# Selection     : all 
# Volume        : 5.16250000e-02
# Time          	maxMag(U)	location	cell
0               	5.40000000e+00	(-4.68052535e-02 1.01701236e-05 5.00000000e-02)	0
1               	5.40142060e+00	(1.51210583e-04 1.28732992e-04 5.00000000e-02)	6677
2               	5.56729629e+00	(2.12770039e-04 1.02105369e-04 5.00000000e-02)	6078
3               	5.62930889e+00	(2.12770039e-04 1.02105369e-04 5.00000000e-02)	6078
4               	5.64675887e+00	(2.12770039e-04 1.02105369e-04 5.00000000e-02)	6078
5               	5.65118351e+00	(2.74971497e-04 1.28732992e-04 5.00000000e-02)	6679
6               	5.64512770e+00	(2.74971497e-04 1.28732992e-04 5.00000000e-02)	6679
7               	5.63154698e+00	(2.74971497e-04 1.28732992e-04 5.00000000e-02)	6679
8               	5.62002907e+00	(3.37821652e-04 1.57000272e-04 5.00000000e-02)	7280
9               	5.60798969e+00	(3.37821652e-04 1.57000272e-04 5.00000000e-02)	7280
10              	5.59441902e+00	(3.37821652e-04 1.57000272e-04 5.00000000e-02)	7280
11              	5.58307859e+00	(4.65495188e-04 1.87008177e-04 5.00000000e-02)	7882
12              	5.57414447e+00	(4.65495188e-04 1.87008177e-04 5.00000000e-02)	7882
13              	5.56495724e+00	(4.65495188e-04 1.87008177e-04 5.00000000e-02)	7882
14              	5.55574412e+00	(4.65495188e-04 1.87008177e-04 5.00000000e-02)	7882
15              	5.54669092e+00	(4.65495188e-04 1.87008177e-04 5.00000000e-02)	7882
16              	5.53982502e+00	(5.95845619e-04 2.18863888e-04 5.00000000e-02)	8484
17              	5.53422026e+00	(5.95845619e-04 2.18863888e-04 5.00000000e-02)	8484
18              	5.52868421e+00	(5.95845619e-04 2.18863888e-04 5.00000000e-02)	8484
19              	5.52328061e+00	(5.95845619e-04 2.18863888e-04 5.00000000e-02)	8484
20              	5.51810866e+00	(5.95845619e-04 2.18863888e-04 5.00000000e-02)	8484
21              	5.51324690e+00	(5.95845619e-04 2.18863888e-04 5.00000000e-02)	8484
22              	5.50971963e+00	(6.62042164e-04 2.52681188e-04 5.00000000e-02)	9085
23              	5.50644734e+00	(7.28929071e-04 2.52681188e-04 5.00000000e-02)	9086
24              	5.50345732e+00	(7.28929071e-04 2.52681188e-04 5.00000000e-02)	9086
25              	5.50061919e+00	(7.28929071e-04 2.52681188e-04 5.00000000e-02)	9086
26              	5.49795563e+00	(7.28929071e-04 2.52681188e-04 5.00000000e-02)	9086
27              	5.49547973e+00	(7.28929071e-04 2.52681188e-04 5.00000000e-02)	9086
28              	5.49320294e+00	(7.28929071e-04 2.52681188e-04 5.00000000e-02)	9086
29              	5.49112142e+00	(7.28929071e-04 2.52681188e-04 5.00000000e-02)	9086
30              	5.48922468e+00	(7.28929071e-04 2.52681188e-04 5.00000000e-02)	9086
31              	5.48749555e+00	(7.28929071e-04 2.52681188e-04 5.00000000e-02)	9086
32              	5.48597798e+00	(7.96513540e-04 2.88580868e-04 5.00000000e-02)	9687
33              	5.48476439e+00	(7.96513540e-04 2.88580868e-04 5.00000000e-02)	9687
34              	5.48365626e+00	(7.96513540e-04 2.88580868e-04 5.00000000e-02)	9687
35              	5.48264534e+00	(8.64802847e-04 2.88580868e-04 5.00000000e-02)	9688
36              	5.48172844e+00	(8.64802847e-04 2.88580868e-04 5.00000000e-02)	9688
37              	5.48088756e+00	(8.64802847e-04 2.88580868e-04 5.00000000e-02)	9688
38              	5.48011664e+00	(8.64802847e-04 2.88580868e-04 5.00000000e-02)	9688
39              	5.47940855e+00	(8.64802847e-04 2.88580868e-04 5.00000000e-02)	9688
40              	5.47875534e+00	(8.64802847e-04 2.88580868e-04 5.00000000e-02)	9688
41              	5.47815105e+00	(8.64802847e-04 2.88580868e-04 5.00000000e-02)	9688
42              	5.47759147e+00	(8.64802847e-04 2.88580868e-04 5.00000000e-02)	9688
43              	5.47707006e+00	(8.64802847e-04 2.88580868e-04 5.00000000e-02)	9688
44              	5.47658181e+00	(8.64802847e-04 2.88580868e-04 5.00000000e-02)	9688
45              	5.47612080e+00	(8.64802847e-04 2.88580868e-04 5.00000000e-02)	9688
46              	5.47568576e+00	(8.64802847e-04 2.88580868e-04 5.00000000e-02)	9688
47              	5.47527204e+00	(8.64802847e-04 2.88580868e-04 5.00000000e-02)	9688
48              	5.47487671e+00	(8.64802847e-04 2.88580868e-04 5.00000000e-02)	9688
49              	5.47449546e+00	(8.64802847e-04 2.88580868e-04 5.00000000e-02)	9688
50              	5.47412652e+00	(8.64802847e-04 2.88580868e-04 5.00000000e-02)	9688
51              	5.47376773e+00	(8.64802847e-04 2.88580868e-04 5.00000000e-02)	9688
52              	5.47341745e+00	(8.64802847e-04 2.88580868e-04 5.00000000e-02)	9688
53              	5.47307573e+00	(8.64802847e-04 2.88580868e-04 5.00000000e-02)	9688
54              	5.47274066e+00	(8.64802847e-04 2.88580868e-04 5.00000000e-02)	9688
55              	5.47251306e+00	(1.00352545e-03 3.26691153e-04 5.00000000e-02)	10290
56              	5.47231644e+00	(1.00352545e-03 3.26691153e-04 5.00000000e-02)	10290
57              	5.47212137e+00	(1.00352545e-03 3.26691153e-04 5.00000000e-02)	10290
58              	5.47192890e+00	(1.00352545e-03 3.26691153e-04 5.00000000e-02)	10290
59              	5.47173799e+00	(1.00352545e-03 3.26691153e-04 5.00000000e-02)	10290
60              	5.47154924e+00	(1.00352545e-03 3.26691153e-04 5.00000000e-02)	10290
61              	5.47136164e+00	(1.00352545e-03 3.26691153e-04 5.00000000e-02)	10290
62              	5.47117600e+00	(1.00352545e-03 3.26691153e-04 5.00000000e-02)	10290
63              	5.47099208e+00	(1.00352545e-03 3.26691153e-04 5.00000000e-02)	10290
64              	5.47080995e+00	(1.00352545e-03 3.26691153e-04 5.00000000e-02)	10290
65              	5.47062996e+00	(1.00352545e-03 3.26691153e-04 5.00000000e-02)	10290
66              	5.47045173e+00	(1.00352545e-03 3.26691153e-04 5.00000000e-02)	10290
67              	5.47027603e+00	(1.00352545e-03 3.26691153e-04 5.00000000e-02)	10290
68              	5.47010223e+00	(1.00352545e-03 3.26691153e-04 5.00000000e-02)	10290
69              	5.46993094e+00	(1.00352545e-03 3.26691153e-04 5.00000000e-02)	10290
70              	5.46976207e+00	(1.00352545e-03 3.26691153e-04 5.00000000e-02)	10290
71              	5.46959577e+00	(1.00352545e-03 3.26691153e-04 5.00000000e-02)	10290
72              	5.46943265e+00	(1.00352545e-03 3.26691153e-04 5.00000000e-02)	10290
73              	5.46927232e+00	(1.00352545e-03 3.26691153e-04 5.00000000e-02)	10290
74              	5.46911534e+00	(1.00352545e-03 3.26691153e-04 5.00000000e-02)	10290
75              	5.46896105e+00	(1.00352545e-03 3.26691153e-04 5.00000000e-02)	10290
76              	5.46880972e+00	(1.00352545e-03 3.26691153e-04 5.00000000e-02)	10290
77              	5.46866087e+00	(1.00352545e-03 3.26691153e-04 5.00000000e-02)	10290
78              	5.46851481e+00	(1.00352545e-03 3.26691153e-04 5.00000000e-02)	10290
79              	5.46837115e+00	(1.00352545e-03 3.26691153e-04 5.00000000e-02)	10290
80              	5.46825281e+00	(1.14515661e-03 3.67148169e-04 5.00000000e-02)	10892
81              	5.46817441e+00	(1.14515661e-03 3.67148169e-04 5.00000000e-02)	10892
82              	5.46809711e+00	(1.14515661e-03 3.67148169e-04 5.00000000e-02)	10892
83              	5.46802820e+00	(1.21708191e-03 3.67148169e-04 5.00000000e-02)	10893
84              	5.46796173e+00	(1.21708191e-03 3.67148169e-04 5.00000000e-02)	10893
85              	5.46789612e+00	(1.21708191e-03 3.67148169e-04 5.00000000e-02)	10893
86              	5.46783104e+00	(1.21708191e-03 3.67148169e-04 5.00000000e-02)	10893
87              	5.46776649e+00	(1.21708191e-03 3.67148169e-04 5.00000000e-02)	10893
88              	5.46770228e+00	(1.21708191e-03 3.67148169e-04 5.00000000e-02)	10893
89              	5.46763852e+00	(1.21708191e-03 3.67148169e-04 5.00000000e-02)	10893
90              	5.46757513e+00	(1.21708191e-03 3.67148169e-04 5.00000000e-02)	10893
91              	5.46751226e+00	(1.21708191e-03 3.67148169e-04 5.00000000e-02)	10893
92              	5.46744973e+00	(1.21708191e-03 3.67148169e-04 5.00000000e-02)	10893
93              	5.46738745e+00	(1.21708191e-03 3.67148169e-04 5.00000000e-02)	10893
94              	5.46732545e+00	(1.21708191e-03 3.67148169e-04 5.00000000e-02)	10893
95              	5.46726378e+00	(1.21708191e-03 3.67148169e-04 5.00000000e-02)	10893
96              	5.46720242e+00	(1.21708191e-03 3.67148169e-04 5.00000000e-02)	10893
97              	5.46714137e+00	(1.21708191e-03 3.67148169e-04 5.00000000e-02)	10893
98              	5.46708065e+00	(1.21708191e-03 3.67148169e-04 5.00000000e-02)	10893
99              	5.46702038e+00	(1.21708191e-03 3.67148169e-04 5.00000000e-02)	10893
100             	5.46696054e+00	(1.21708191e-03 3.67148169e-04 5.00000000e-02)	10893
101             	5.46690132e+00	(1.21708191e-03 3.67148169e-04 5.00000000e-02)	10893
102             	5.46684281e+00	(1.21708191e-03 3.67148169e-04 5.00000000e-02)	10893
103             	5.46678496e+00	(1.21708191e-03 3.67148169e-04 5.00000000e-02)	10893
104             	5.46672769e+00	(1.21708191e-03 3.67148169e-04 5.00000000e-02)	10893
105             	5.46667088e+00	(1.21708191e-03 3.67148169e-04 5.00000000e-02)	10893
106             	5.46661447e+00	(1.21708191e-03 3.67148169e-04 5.00000000e-02)	10893
107             	5.46655830e+00	(1.21708191e-03 3.67148169e-04 5.00000000e-02)	10893
108             	5.46653530e+00	(1.36319065e-03 4.10096419e-04 5.00000000e-02)	11495
109             	5.46651974e+00	(1.36319065e-03 4.10096419e-04 5.00000000e-02)	11495
110             	5.46650389e+00	(1.36319065e-03 4.10096419e-04 5.00000000e-02)	11495
111             	5.46648775e+00	(1.36319065e-03 4.10096419e-04 5.00000000e-02)	11495
112             	5.46647133e+00	(1.36319065e-03 4.10096419e-04 5.00000000e-02)	11495
113             	5.46645498e+00	(1.36319065e-03 4.10096419e-04 5.00000000e-02)	11495
114             	5.46643824e+00	(1.36319065e-03 4.10096419e-04 5.00000000e-02)	11495
115             	5.46642113e+00	(1.36319065e-03 4.10096419e-04 5.00000000e-02)	11495
116             	5.46640359e+00	(1.36319065e-03 4.10096419e-04 5.00000000e-02)	11495
117             	5.46638572e+00	(1.36319065e-03 4.10096419e-04 5.00000000e-02)	11495
118             	5.46636751e+00	(1.36319065e-03 4.10096419e-04 5.00000000e-02)	11495
119             	5.46634897e+00	(1.36319065e-03 4.10096419e-04 5.00000000e-02)	11495
120             	5.46633010e+00	(1.36319065e-03 4.10096419e-04 5.00000000e-02)	11495
121             	5.46631087e+00	(1.36319065e-03 4.10096419e-04 5.00000000e-02)	11495
122             	5.46629134e+00	(1.36319065e-03 4.10096419e-04 5.00000000e-02)	11495
123             	5.46627145e+00	(1.36319065e-03 4.10096419e-04 5.00000000e-02)	11495
124             	5.46625606e+00	(1.43738982e-03 4.10096419e-04 5.00000000e-02)	11496
125             	5.46624050e+00	(1.43738982e-03 4.10096419e-04 5.00000000e-02)	11496
126             	5.46622466e+00	(1.43738982e-03 4.10096419e-04 5.00000000e-02)	11496
127             	5.46620846e+00	(1.43738982e-03 4.10096419e-04 5.00000000e-02)	11496
128             	5.46619194e+00	(1.43738982e-03 4.10096419e-04 5.00000000e-02)	11496
129             	5.46617522e+00	(1.43738982e-03 4.10096419e-04 5.00000000e-02)	11496
130             	5.46615832e+00	(1.43738982e-03 4.10096419e-04 5.00000000e-02)	11496
131             	5.46614122e+00	(1.43738982e-03 4.10096419e-04 5.00000000e-02)	11496
132             	5.46612396e+00	(1.43738982e-03 4.10096419e-04 5.00000000e-02)	11496
133             	5.46610662e+00	(1.43738982e-03 4.10096419e-04 5.00000000e-02)	11496
134             	5.46608920e+00	(1.43738982e-03 4.10096419e-04 5.00000000e-02)	11496
135             	5.46607169e+00	(1.43738982e-03 4.10096419e-04 5.00000000e-02)	11496
136             	5.46605396e+00	(1.43738982e-03 4.10096419e-04 5.00000000e-02)	11496
137             	5.46605219e+00	(1.58811769e-03 4.55689308e-04 5.00000000e-02)	12098
138             	5.46606276e+00	(1.58811769e-03 4.55689308e-04 5.00000000e-02)	12098
139             	5.46607272e+00	(1.58811769e-03 4.55689308e-04 5.00000000e-02)	12098
140             	5.46608206e+00	(1.58811769e-03 4.55689308e-04 5.00000000e-02)	12098
141             	5.46609075e+00	(1.58811769e-03 4.55689308e-04 5.00000000e-02)	12098
142             	5.46609883e+00	(1.58811769e-03 4.55689308e-04 5.00000000e-02)	12098
143             	5.46610630e+00	(1.58811769e-03 4.55689308e-04 5.00000000e-02)	12098
144             	5.46611328e+00	(1.58811769e-03 4.55689308e-04 5.00000000e-02)	12098
145             	5.46611982e+00	(1.58811769e-03 4.55689308e-04 5.00000000e-02)	12098
146             	5.46612572e+00	(1.58811769e-03 4.55689308e-04 5.00000000e-02)	12098
147             	5.46613100e+00	(1.58811769e-03 4.55689308e-04 5.00000000e-02)	12098
148             	5.46613566e+00	(1.58811769e-03 4.55689308e-04 5.00000000e-02)	12098
149             	5.46613969e+00	(1.58811769e-03 4.55689308e-04 5.00000000e-02)	12098
150             	5.46614312e+00	(1.58811769e-03 4.55689308e-04 5.00000000e-02)	12098
151             	5.46614595e+00	(1.58811769e-03 4.55689308e-04 5.00000000e-02)	12098
152             	5.46614822e+00	(1.58811769e-03 4.55689308e-04 5.00000000e-02)	12098
153             	5.46614987e+00	(1.58811769e-03 4.55689308e-04 5.00000000e-02)	12098
154             	5.46615384e+00	(1.66466262e-03 4.55689308e-04 5.00000000e-02)	12099
155             	5.46615839e+00	(1.66466262e-03 4.55689308e-04 5.00000000e-02)	12099
156             	5.46616229e+00	(1.66466262e-03 4.55689308e-04 5.00000000e-02)	12099
157             	5.46616559e+00	(1.66466262e-03 4.55689308e-04 5.00000000e-02)	12099
158             	5.46616822e+00	(1.66466262e-03 4.55689308e-04 5.00000000e-02)	12099
159             	5.46617025e+00	(1.66466262e-03 4.55689308e-04 5.00000000e-02)	12099
160             	5.46617168e+00	(1.66466262e-03 4.55689308e-04 5.00000000e-02)	12099
161             	5.46617251e+00	(1.66466262e-03 4.55689308e-04 5.00000000e-02)	12099
162             	5.46617285e+00	(1.66466262e-03 4.55689308e-04 5.00000000e-02)	12099
163             	5.46617265e+00	(1.66466262e-03 4.55689308e-04 5.00000000e-02)	12099
164             	5.46617196e+00	(1.66466262e-03 4.55689308e-04 5.00000000e-02)	12099
165             	5.46617081e+00	(1.66466262e-03 4.55689308e-04 5.00000000e-02)	12099
166             	5.46616923e+00	(1.66466262e-03 4.55689308e-04 5.00000000e-02)	12099
167             	5.46616724e+00	(1.66466262e-03 4.55689308e-04 5.00000000e-02)	12099
168             	5.46616620e+00	(1.82015566e-03 5.04089685e-04 5.00000000e-02)	12701
169             	5.46618497e+00	(1.82015566e-03 5.04089685e-04 5.00000000e-02)	12701
170             	5.46620309e+00	(1.82015566e-03 5.04089685e-04 5.00000000e-02)	12701
171             	5.46622058e+00	(1.82015566e-03 5.04089685e-04 5.00000000e-02)	12701
172             	5.46623746e+00	(1.82015566e-03 5.04089685e-04 5.00000000e-02)	12701
173             	5.46625372e+00	(1.82015566e-03 5.04089685e-04 5.00000000e-02)	12701
174             	5.46626936e+00	(1.82015566e-03 5.04089685e-04 5.00000000e-02)	12701
175             	5.46628438e+00	(1.82015566e-03 5.04089685e-04 5.00000000e-02)	12701
176             	5.46629877e+00	(1.82015566e-03 5.04089685e-04 5.00000000e-02)	12701
177             	5.46631250e+00	(1.82015566e-03 5.04089685e-04 5.00000000e-02)	12701
178             	5.46632569e+00	(1.89912051e-03 5.04089685e-04 5.00000000e-02)	12702
179             	5.46634125e+00	(1.89912051e-03 5.04089685e-04 5.00000000e-02)	12702
180             	5.46635610e+00	(1.89912051e-03 5.04089685e-04 5.00000000e-02)	12702
181             	5.46637027e+00	(1.89912051e-03 5.04089685e-04 5.00000000e-02)	12702
182             	5.46638380e+00	(1.89912051e-03 5.04089685e-04 5.00000000e-02)	12702
183             	5.46639667e+00	(1.89912051e-03 5.04089685e-04 5.00000000e-02)	12702
184             	5.46640889e+00	(1.89912051e-03 5.04089685e-04 5.00000000e-02)	12702
185             	5.46642045e+00	(1.89912051e-03 5.04089685e-04 5.00000000e-02)	12702
186             	5.46643134e+00	(1.89912051e-03 5.04089685e-04 5.00000000e-02)	12702
187             	5.46644158e+00	(1.89912051e-03 5.04089685e-04 5.00000000e-02)	12702
188             	5.46645120e+00	(1.89912051e-03 5.04089685e-04 5.00000000e-02)	12702
189             	5.46646015e+00	(1.89912051e-03 5.04089685e-04 5.00000000e-02)	12702
190             	5.46646848e+00	(1.89912051e-03 5.04089685e-04 5.00000000e-02)	12702
191             	5.46647619e+00	(1.89912051e-03 5.04089685e-04 5.00000000e-02)	12702
192             	5.46648327e+00	(1.89912051e-03 5.04089685e-04 5.00000000e-02)	12702
193             	5.46648976e+00	(1.89912051e-03 5.04089685e-04 5.00000000e-02)	12702
194             	5.46649564e+00	(1.89912051e-03 5.04089685e-04 5.00000000e-02)	12702
195             	5.46650091e+00	(1.89912051e-03 5.04089685e-04 5.00000000e-02)	12702
196             	5.46650561e+00	(1.89912051e-03 5.04089685e-04 5.00000000e-02)	12702
197             	5.46650971e+00	(1.89912051e-03 5.04089685e-04 5.00000000e-02)	12702
198             	5.46651322e+00	(1.89912051e-03 5.04089685e-04 5.00000000e-02)	12702
199             	5.46651618e+00	(1.89912051e-03 5.04089685e-04 5.00000000e-02)	12702
200             	5.46651855e+00	(1.89912051e-03 5.04089685e-04 5.00000000e-02)	12702
201             	5.46653394e+00	(2.14099063e-03 5.55470428e-04 5.00000000e-02)	13305
202             	5.46655416e+00	(2.14099063e-03 5.55470428e-04 5.00000000e-02)	13305
203             	5.46657364e+00	(2.14099063e-03 5.55470428e-04 5.00000000e-02)	13305
204             	5.46659240e+00	(2.14099063e-03 5.55470428e-04 5.00000000e-02)	13305
205             	5.46661046e+00	(2.14099063e-03 5.55470428e-04 5.00000000e-02)	13305
206             	5.46662780e+00	(2.14099063e-03 5.55470428e-04 5.00000000e-02)	13305
207             	5.46664445e+00	(2.14099063e-03 5.55470428e-04 5.00000000e-02)	13305
208             	5.46666036e+00	(2.14099063e-03 5.55470428e-04 5.00000000e-02)	13305
209             	5.46667553e+00	(2.14099063e-03 5.55470428e-04 5.00000000e-02)	13305
210             	5.46669001e+00	(2.14099063e-03 5.55470428e-04 5.00000000e-02)	13305
211             	5.46670383e+00	(2.14099063e-03 5.55470428e-04 5.00000000e-02)	13305
212             	5.46671703e+00	(2.14099063e-03 5.55470428e-04 5.00000000e-02)	13305
213             	5.46672963e+00	(2.14099063e-03 5.55470428e-04 5.00000000e-02)	13305
214             	5.46674164e+00	(2.14099063e-03 5.55470428e-04 5.00000000e-02)	13305
215             	5.46675308e+00	(2.14099063e-03 5.55470428e-04 5.00000000e-02)	13305
216             	5.46676396e+00	(2.14099063e-03 5.55470428e-04 5.00000000e-02)	13305
217             	5.46677428e+00	(2.14099063e-03 5.55470428e-04 5.00000000e-02)	13305
218             	5.46678404e+00	(2.14099063e-03 5.55470428e-04 5.00000000e-02)	13305
219             	5.46679325e+00	(2.14099063e-03 5.55470428e-04 5.00000000e-02)	13305
220             	5.46680190e+00	(2.14099063e-03 5.55470428e-04 5.00000000e-02)	13305
221             	5.46681004e+00	(2.14099063e-03 5.55470428e-04 5.00000000e-02)	13305
222             	5.46681771e+00	(2.14099063e-03 5.55470428e-04 5.00000000e-02)	13305
223             	5.46682490e+00	(2.14099063e-03 5.55470428e-04 5.00000000e-02)	13305
224             	5.46683162e+00	(2.14099063e-03 5.55470428e-04 5.00000000e-02)	13305
225             	5.46683786e+00	(2.14099063e-03 5.55470428e-04 5.00000000e-02)	13305
226             	5.46684361e+00	(2.14099063e-03 5.55470428e-04 5.00000000e-02)	13305
227             	5.46684885e+00	(2.14099063e-03 5.55470428e-04 5.00000000e-02)	13305
228             	5.46685360e+00	(2.14099063e-03 5.55470428e-04 5.00000000e-02)	13305
229             	5.46685784e+00	(2.14099063e-03 5.55470428e-04 5.00000000e-02)	13305
230             	5.46686156e+00	(2.14099063e-03 5.55470428e-04 5.00000000e-02)	13305
231             	5.46686478e+00	(2.14099063e-03 5.55470428e-04 5.00000000e-02)	13305
232             	5.46686748e+00	(2.14099063e-03 5.55470428e-04 5.00000000e-02)	13305
233             	5.46688061e+00	(2.39050732e-03 6.10015059e-04 5.00000000e-02)	13908
234             	5.46689685e+00	(2.39050732e-03 6.10015059e-04 5.00000000e-02)	13908
235             	5.46691248e+00	(2.39050732e-03 6.10015059e-04 5.00000000e-02)	13908
236             	5.46692752e+00	(2.39050732e-03 6.10015059e-04 5.00000000e-02)	13908
237             	5.46694197e+00	(2.39050732e-03 6.10015059e-04 5.00000000e-02)	13908
238             	5.46695581e+00	(2.39050732e-03 6.10015059e-04 5.00000000e-02)	13908
239             	5.46696905e+00	(2.39050732e-03 6.10015059e-04 5.00000000e-02)	13908
240             	5.46698170e+00	(2.39050732e-03 6.10015059e-04 5.00000000e-02)	13908
241             	5.46699376e+00	(2.39050732e-03 6.10015059e-04 5.00000000e-02)	13908
242             	5.46700524e+00	(2.39050732e-03 6.10015059e-04 5.00000000e-02)	13908
243             	5.46701614e+00	(2.39050732e-03 6.10015059e-04 5.00000000e-02)	13908
244             	5.46702648e+00	(2.39050732e-03 6.10015059e-04 5.00000000e-02)	13908
245             	5.46703626e+00	(2.39050732e-03 6.10015059e-04 5.00000000e-02)	13908
246             	5.46704549e+00	(2.39050732e-03 6.10015059e-04 5.00000000e-02)	13908
247             	5.46705416e+00	(2.39050732e-03 6.10015059e-04 5.00000000e-02)	13908
248             	5.46706230e+00	(2.39050732e-03 6.10015059e-04 5.00000000e-02)	13908
249             	5.46706992e+00	(2.39050732e-03 6.10015059e-04 5.00000000e-02)	13908
250             	5.46707699e+00	(2.39050732e-03 6.10015059e-04 5.00000000e-02)	13908
251             	5.46708356e+00	(2.39050732e-03 6.10015059e-04 5.00000000e-02)	13908
252             	5.46708961e+00	(2.39050732e-03 6.10015059e-04 5.00000000e-02)	13908
253             	5.46709515e+00	(2.39050732e-03 6.10015059e-04 5.00000000e-02)	13908
254             	5.46710018e+00	(2.39050732e-03 6.10015059e-04 5.00000000e-02)	13908
255             	5.46710473e+00	(2.39050732e-03 6.10015059e-04 5.00000000e-02)	13908
256             	5.46710879e+00	(2.39050732e-03 6.10015059e-04 5.00000000e-02)	13908
257             	5.46711236e+00	(2.39050732e-03 6.10015059e-04 5.00000000e-02)	13908
258             	5.46711546e+00	(2.39050732e-03 6.10015059e-04 5.00000000e-02)	13908
259             	5.46711809e+00	(2.39050732e-03 6.10015059e-04 5.00000000e-02)	13908
260             	5.46712025e+00	(2.39050732e-03 6.10015059e-04 5.00000000e-02)	13908
261             	5.46712195e+00	(2.39050732e-03 6.10015059e-04 5.00000000e-02)	13908
262             	5.46712317e+00	(2.39050732e-03 6.10015059e-04 5.00000000e-02)	13908
263             	5.46712395e+00	(2.39050732e-03 6.10015059e-04 5.00000000e-02)	13908
264             	5.46712429e+00	(2.39050732e-03 6.10015059e-04 5.00000000e-02)	13908
265             	5.46712421e+00	(2.39050732e-03 6.10015059e-04 5.00000000e-02)	13908
266             	5.46713206e+00	(2.64791233e-03 6.67918404e-04 5.00000000e-02)	14511
267             	5.46714227e+00	(2.64791233e-03 6.67918404e-04 5.00000000e-02)	14511
268             	5.46715199e+00	(2.64791233e-03 6.67918404e-04 5.00000000e-02)	14511
269             	5.46716125e+00	(2.64791233e-03 6.67918404e-04 5.00000000e-02)	14511
270             	5.46717006e+00	(2.64791233e-03 6.67918404e-04 5.00000000e-02)	14511
271             	5.46717842e+00	(2.64791233e-03 6.67918404e-04 5.00000000e-02)	14511
272             	5.46718635e+00	(2.64791233e-03 6.67918404e-04 5.00000000e-02)	14511
273             	5.46719384e+00	(2.64791233e-03 6.67918404e-04 5.00000000e-02)	14511
274             	5.46720089e+00	(2.64791233e-03 6.67918404e-04 5.00000000e-02)	14511
275             	5.46720751e+00	(2.64791233e-03 6.67918404e-04 5.00000000e-02)	14511
276             	5.46721371e+00	(2.64791233e-03 6.67918404e-04 5.00000000e-02)	14511
277             	5.46721947e+00	(2.64791233e-03 6.67918404e-04 5.00000000e-02)	14511
278             	5.46722481e+00	(2.64791233e-03 6.67918404e-04 5.00000000e-02)	14511
279             	5.46722974e+00	(2.64791233e-03 6.67918404e-04 5.00000000e-02)	14511
280             	5.46723424e+00	(2.64791233e-03 6.67918404e-04 5.00000000e-02)	14511
281             	5.46723902e+00	(2.73550983e-03 6.67918404e-04 5.00000000e-02)	14512
282             	5.46724380e+00	(2.73550983e-03 6.67918404e-04 5.00000000e-02)	14512
283             	5.46724816e+00	(2.73550983e-03 6.67918404e-04 5.00000000e-02)	14512
284             	5.46725212e+00	(2.73550983e-03 6.67918404e-04 5.00000000e-02)	14512
285             	5.46725567e+00	(2.73550983e-03 6.67918404e-04 5.00000000e-02)	14512
286             	5.46725882e+00	(2.73550983e-03 6.67918404e-04 5.00000000e-02)	14512
287             	5.46726157e+00	(2.73550983e-03 6.67918404e-04 5.00000000e-02)	14512
288             	5.46726393e+00	(2.73550983e-03 6.67918404e-04 5.00000000e-02)	14512
289             	5.46726589e+00	(2.73550983e-03 6.67918404e-04 5.00000000e-02)	14512
290             	5.46726747e+00	(2.73550983e-03 6.67918404e-04 5.00000000e-02)	14512
291             	5.46726867e+00	(2.73550983e-03 6.67918404e-04 5.00000000e-02)	14512
292             	5.46726951e+00	(2.73550983e-03 6.67918404e-04 5.00000000e-02)	14512
293             	5.46726997e+00	(2.73550983e-03 6.67918404e-04 5.00000000e-02)	14512
294             	5.46727007e+00	(2.73550983e-03 6.67918404e-04 5.00000000e-02)	14512
295             	5.46726982e+00	(2.73550983e-03 6.67918404e-04 5.00000000e-02)	14512
296             	5.46726921e+00	(2.73550983e-03 6.67918404e-04 5.00000000e-02)	14512
297             	5.46726824e+00	(2.73550983e-03 6.67918404e-04 5.00000000e-02)	14512
298             	5.46726692e+00	(2.73550983e-03 6.67918404e-04 5.00000000e-02)	14512
299             	5.46726525e+00	(2.73550983e-03 6.67918404e-04 5.00000000e-02)	14512
300             	5.46726324e+00	(2.73550983e-03 6.67918404e-04 5.00000000e-02)	14512
301             	5.46726088e+00	(2.73550983e-03 6.67918404e-04 5.00000000e-02)	14512
302             	5.46726665e+00	(3.00382187e-03 7.29387281e-04 5.00000000e-02)	15115
303             	5.46727211e+00	(3.00382187e-03 7.29387281e-04 5.00000000e-02)	15115
304             	5.46727716e+00	(3.00382187e-03 7.29387281e-04 5.00000000e-02)	15115
305             	5.46728182e+00	(3.00382187e-03 7.29387281e-04 5.00000000e-02)	15115
306             	5.46728609e+00	(3.00382187e-03 7.29387281e-04 5.00000000e-02)	15115
307             	5.46728999e+00	(3.00382187e-03 7.29387281e-04 5.00000000e-02)	15115
308             	5.46729352e+00	(3.00382187e-03 7.29387281e-04 5.00000000e-02)	15115
309             	5.46729668e+00	(3.00382187e-03 7.29387281e-04 5.00000000e-02)	15115
310             	5.46729946e+00	(3.00382187e-03 7.29387281e-04 5.00000000e-02)	15115
311             	5.46730188e+00	(3.00382187e-03 7.29387281e-04 5.00000000e-02)	15115
312             	5.46730393e+00	(3.00382187e-03 7.29387281e-04 5.00000000e-02)	15115
313             	5.46730562e+00	(3.00382187e-03 7.29387281e-04 5.00000000e-02)	15115
314             	5.46730696e+00	(3.00382187e-03 7.29387281e-04 5.00000000e-02)	15115
315             	5.46730794e+00	(3.00382187e-03 7.29387281e-04 5.00000000e-02)	15115
316             	5.46730858e+00	(3.00382187e-03 7.29387281e-04 5.00000000e-02)	15115
317             	5.46730887e+00	(3.00382187e-03 7.29387281e-04 5.00000000e-02)	15115
318             	5.46730883e+00	(3.00382187e-03 7.29387281e-04 5.00000000e-02)	15115
319             	5.46730845e+00	(3.00382187e-03 7.29387281e-04 5.00000000e-02)	15115
320             	5.46730774e+00	(3.00382187e-03 7.29387281e-04 5.00000000e-02)	15115
321             	5.46730671e+00	(3.00382187e-03 7.29387281e-04 5.00000000e-02)	15115
322             	5.46730536e+00	(3.00382187e-03 7.29387281e-04 5.00000000e-02)	15115
323             	5.46730368e+00	(3.00382187e-03 7.29387281e-04 5.00000000e-02)	15115
324             	5.46730169e+00	(3.00382187e-03 7.29387281e-04 5.00000000e-02)	15115
325             	5.46729940e+00	(3.00382187e-03 7.29387281e-04 5.00000000e-02)	15115
326             	5.46729679e+00	(3.00382187e-03 7.29387281e-04 5.00000000e-02)	15115
327             	5.46729389e+00	(3.00382187e-03 7.29387281e-04 5.00000000e-02)	15115
328             	5.46729069e+00	(3.00382187e-03 7.29387281e-04 5.00000000e-02)	15115
329             	5.46728719e+00	(3.00382187e-03 7.29387281e-04 5.00000000e-02)	15115
330             	5.46728340e+00	(3.00382187e-03 7.29387281e-04 5.00000000e-02)	15115
331             	5.46727933e+00	(3.00382187e-03 7.29387281e-04 5.00000000e-02)	15115
332             	5.46727497e+00	(3.00382187e-03 7.29387281e-04 5.00000000e-02)	15115
333             	5.46727033e+00	(3.00382187e-03 7.29387281e-04 5.00000000e-02)	15115
334             	5.46726543e+00	(3.00382187e-03 7.29387281e-04 5.00000000e-02)	15115
335             	5.46726025e+00	(3.00382187e-03 7.29387281e-04 5.00000000e-02)	15115
336             	5.46725482e+00	(3.00382187e-03 7.29387281e-04 5.00000000e-02)	15115
337             	5.46724912e+00	(3.00382187e-03 7.29387281e-04 5.00000000e-02)	15115
338             	5.46724525e+00	(3.28061642e-03 7.94641248e-04 5.00000000e-02)	15718
339             	5.46724565e+00	(3.28061642e-03 7.94641248e-04 5.00000000e-02)	15718
340             	5.46724575e+00	(3.28061642e-03 7.94641248e-04 5.00000000e-02)	15718
341             	5.46724557e+00	(3.28061642e-03 7.94641248e-04 5.00000000e-02)	15718
342             	5.46724511e+00	(3.28061642e-03 7.94641248e-04 5.00000000e-02)	15718
343             	5.46724438e+00	(3.28061642e-03 7.94641248e-04 5.00000000e-02)	15718
344             	5.46724339e+00	(3.28061642e-03 7.94641248e-04 5.00000000e-02)	15718
345             	5.46724215e+00	(3.28061642e-03 7.94641248e-04 5.00000000e-02)	15718
346             	5.46724066e+00	(3.28061642e-03 7.94641248e-04 5.00000000e-02)	15718
347             	5.46723894e+00	(3.28061642e-03 7.94641248e-04 5.00000000e-02)	15718
348             	5.46723697e+00	(3.28061642e-03 7.94641248e-04 5.00000000e-02)	15718
349             	5.46723534e+00	(3.37481238e-03 7.94641248e-04 5.00000000e-02)	15719
350             	5.46723349e+00	(3.37481238e-03 7.94641248e-04 5.00000000e-02)	15719
351             	5.46723140e+00	(3.37481238e-03 7.94641248e-04 5.00000000e-02)	15719