/*--------------------------------*- C++ -*----------------------------------*\
  =========                 |
  \\      /  F ield         | OpenFOAM: The Open Source CFD Toolbox
   \\    /   O peration     | Website:  https://openfoam.org
    \\  /    A nd           | Version:  12
     \\/     M anipulation  |
\*---------------------------------------------------------------------------*/
FoamFile
{
    format      ascii;
    class       volScalarField;
    location    "1400";
    object      epsilon;
}
// * * * * * * * * * * * * * * * * * * * * * * * * * * * * * * * * * * * * * //

dimensions      [0 2 -3 0 0 0 0];

internalField   nonuniform List<scalar> 
7480
(
0.0027446099
0.0047922941
0.0085307207
0.014897753
0.025306148
0.041613408
0.065950939
0.10032327
0.14599267
0.20273924
0.26832153
0.33863685
0.40841559
0.47232572
0.52601008
0.56701016
0.59357455
0.61207197
0.61139775
0.60608057
0.59456352
0.57876669
0.56047659
0.54119025
0.52211892
0.5042253
0.48825835
0.4747619
0.46408363
0.45633204
0.45130037
0.44844507
0.44695689
0.44595347
0.44472155
0.44287112
0.44033937
0.43727809
0.4338993
0.43036063
0.42673062
0.42301719
0.41921828
0.4153548
0.41147019
0.40760997
0.40380378
0.40006211
0.39638507
0.3927716
0.38922229
0.38573722
0.38231612
0.37895747
0.37565932
0.37242007
0.36923835
0.36611237
0.36304028
0.36002131
0.35705386
0.35413563
0.35126472
0.3484397
0.34565929
0.34292238
0.3402279
0.33757467
0.3349616
0.33238761
0.32985162
0.32735259
0.32488964
0.32246176
0.32006803
0.3177076
0.31537965
0.3130834
0.31081807
0.30858293
0.30637724
0.30420032
0.30205147
0.29993002
0.29783531
0.2957667
0.29372354
0.29170519
0.28971102
0.28774024
0.28579237
0.2838661
0.28196175
0.28007509
0.2782114
0.27635178
0.27452915
0.27263011
0.27103134
0.26808902
8.3791266e-05
0.00017269136
0.00029434681
0.00047529445
0.00076133778
0.0012279535
0.0019907974
0.0032074062
0.0050581497
0.0077027005
0.011224052
0.015667259
0.02097705
0.026892335
0.033052457
0.039133202
0.044768811
0.050197953
0.055078071
0.059875935
0.065181954
0.072097083
0.080787977
0.090198714
0.1004218
0.11167196
0.12398913
0.1370813
0.15048125
0.16347337
0.17508593
0.18437208
0.1906922
0.19394101
0.19455383
0.1933107
0.19105212
0.18844667
0.18586844
0.18342834
0.18109277
0.17879806
0.17651791
0.17427125
0.17209416
0.17001022
0.16802171
0.16611752
0.16428385
0.16251121
0.16079385
0.15912698
0.15750582
0.15592626
0.15438506
0.1528794
0.15140675
0.14996492
0.14855231
0.14716803
0.14581052
0.14447817
0.14316985
0.1418848
0.14062237
0.13938191
0.13816283
0.13696451
0.13578639
0.13462794
0.13348865
0.13236805
0.13126567
0.1301811
0.12911392
0.12806374
0.12703015
0.12601278
0.12501123
0.12402514
0.12305414
0.12209788
0.12115599
0.12022814
0.11931398
0.11841318
0.1175254
0.11665032
0.11578761
0.11493692
0.11409794
0.11327032
0.11245372
0.11164761
0.11085176
0.1100647
0.10928848
0.10850456
0.10780845
0.10662092
1.7329827e-05
2.9112237e-05
4.3739513e-05
6.1510205e-05
8.3850761e-05
0.00011289172
0.00015139997
0.00020266353
0.00027019903
0.00035739376
0.0004671834
0.00060250299
0.00076612326
0.00095948318
0.0011818706
0.0014306963
0.0016998264
0.0019855149
0.0022817301
0.0025881045
0.0029122717
0.0032840374
0.0037454854
0.0043473845
0.0051587537
0.0062745223
0.0078056654
0.010024263
0.013198711
0.017637222
0.024168471
0.032088206
0.041083604
0.050742722
0.060398556
0.069385993
0.077081611
0.083045699
0.087161021
0.089623297
0.09083194
0.091241503
0.091234184
0.091046831
0.090777947
0.090443949
0.090036608
0.089557203
0.089023431
0.088457445
0.087874384
0.087280309
0.086676577
0.086064228
0.085445173
0.084821415
0.084194424
0.083565228
0.082934654
0.082303438
0.081672352
0.081042054
0.080413143
0.079786206
0.0791618
0.078540439
0.077922591
0.077308664
0.07669901
0.076093952
0.075493783
0.074898776
0.074309165
0.073725162
0.073146961
0.072574726
0.07200859
0.071448659
0.070895016
0.070347723
0.069806823
0.069272338
0.068744272
0.068222616
0.067707347
0.067198431
0.066695823
0.06619947
0.065709308
0.065225269
0.064747258
0.064275216
0.063808955
0.063348531
0.062893392
0.06244415
0.061999785
0.061554879
0.061159007
0.060479444
1.0441593e-05
1.3375177e-05
1.7237025e-05
2.1762379e-05
2.6966325e-05
3.3000809e-05
4.0087003e-05
4.8478528e-05
5.842952e-05
7.0166962e-05
8.3868758e-05
9.9674742e-05
0.00011769681
0.00013799754
0.00016055797
0.00018527109
0.00021189949
0.00024017356
0.0002697628
0.00030038363
0.00033185332
0.00036443447
0.00039878711
0.00043642446
0.00047980432
0.00053274976
0.00060073633
0.00069298827
0.00082477767
0.0010174634
0.0013242404
0.0018037307
0.0025417857
0.0036357927
0.0053207345
0.0077485003
0.011301408
0.01595895
0.021350219
0.02709615
0.032778792
0.037997549
0.042421369
0.045884361
0.048407866
0.050158807
0.051366035
0.052233896
0.052893054
0.053402965
0.053783116
0.05404476
0.054204876
0.054284102
0.054299892
0.054263713
0.05418286
0.054063107
0.053909788
0.053727617
0.053520568
0.053291917
0.053044452
0.052780643
0.052502683
0.05221251
0.051911837
0.051602178
0.051284879
0.050961153
0.050632088
0.050298674
0.049961796
0.049622257
0.049280782
0.048938028
0.048594581
0.048250965
0.047907648
0.047565045
0.047223523
0.046883407
0.04654498
0.046208492
0.045874158
0.04554217
0.045212689
0.044885857
0.044561792
0.044240603
0.043922356
0.043607155
0.04329496
0.042986014
0.042679886
0.042377539
0.042077744
0.041778335
0.04151299
0.041053187
9.0486065e-06
9.9633684e-06
1.1342468e-05
1.3052338e-05
1.5025087e-05
1.7247289e-05
1.9737826e-05
2.2531759e-05
2.5669525e-05
2.9189591e-05
3.3123464e-05
3.7494656e-05
4.2319874e-05
4.7608949e-05
5.3362876e-05
5.957269e-05
6.6216102e-05
7.3260637e-05
8.0663912e-05
8.8379195e-05
9.6358441e-05
0.00010457033
0.00011300623
0.00012170497
0.00013076972
0.00014040314
0.0001509192
0.00016279318
0.00017680598
0.00019396065
0.00021624506
0.00024638132
0.00028852748
0.00034845261
0.00043756552
0.00057190714
0.00078597239
0.0011339441
0.0016820378
0.0025556944
0.0038827796
0.0058136057
0.0085151611
0.011767575
0.015336671
0.01896398
0.022390817
0.025406614
0.02790333
0.029882809
0.031429227
0.032655739
0.033656121
0.034486448
0.035173906
0.035734896
0.036186077
0.036545095
0.036827244
0.037043879
0.037203497
0.037313224
0.037379406
0.037407571
0.037402384
0.03736782
0.037307355
0.037224046
0.03712058
0.036999335
0.03686242
0.036711722
0.036548928
0.036375548
0.036192941
0.03600233
0.035804817
0.035601391
0.035392944
0.035180273
0.034964097
0.034745056
0.034523728
0.034300627
0.034076215
0.033850906
0.033625068
0.033399035
0.033173098
0.032947529
0.032722549
0.032498398
0.032275186
0.032053254
0.031832372
0.031613492
0.031395734
0.031177727
0.030985927
0.03064873
8.6800153e-06
8.9711903e-06
9.4962169e-06
1.0225737e-05
1.1120548e-05
1.2154066e-05
1.3314648e-05
1.4601403e-05
1.6019558e-05
1.7576886e-05
1.9281249e-05
2.1139269e-05
2.3155941e-05
2.5334551e-05
2.7676489e-05
3.0181024e-05
3.2844899e-05
3.5662282e-05
3.8624692e-05
4.1721622e-05
4.4941005e-05
4.8270865e-05
5.1700705e-05
5.5224435e-05
5.8843495e-05
6.2571988e-05
6.6438615e-05
7.0490946e-05
7.4811077e-05
7.9513254e-05
8.4780812e-05
9.0891009e-05
9.8231175e-05
0.00010731237
0.00011893616
0.00013419125
0.00015491705
0.0001839926
0.00022565677
0.00028752257
0.00038158947
0.00052813661
0.00076719304
0.0011474325
0.0017674855
0.0027126057
0.0041259692
0.0060061589
0.0082380233
0.010664111
0.01311411
0.015423727
0.017477004
0.019225656
0.020685492
0.021907335
0.022943442
0.023829733
0.024586997
0.025229827
0.025772415
0.026228691
0.026610588
0.026927561
0.027187353
0.027396722
0.027561637
0.027687251
0.027778016
0.027837836
0.027870157
0.027878031
0.02786416
0.02783095
0.027780551
0.02771489
0.027635695
0.027544519
0.027442756
0.02733166
0.027212357
0.02708586
0.026953083
0.026814845
0.026671886
0.026524871
0.026374402
0.02622102
0.026065209
0.025907417
0.02574803
0.025587431
0.025425885
0.025263824
0.025101227
0.024938982
0.024776614
0.024612955
0.024470068
0.024213809
8.5562948e-06
8.6458445e-06
8.838451e-06
9.1470754e-06
9.5652223e-06
1.0079909e-05
1.0679781e-05
1.1357664e-05
1.2110232e-05
1.2936791e-05
1.3838062e-05
1.4815273e-05
1.5869619e-05
1.7001994e-05
1.8212847e-05
1.9502059e-05
2.0868879e-05
2.2311835e-05
2.3828656e-05
2.541633e-05
2.7071192e-05
2.8789088e-05
3.0565624e-05
3.2396629e-05
3.4278819e-05
3.621043e-05
3.8194081e-05
4.0237222e-05
4.2352122e-05
4.4558533e-05
4.6887392e-05
4.9386608e-05
5.2124596e-05
5.5193492e-05
5.8718555e-05
6.2874148e-05
6.7877842e-05
7.4067716e-05
8.190272e-05
9.2089754e-05
0.0001056463
0.00012406401
0.00014993926
0.00018711355
0.000243054
0.00032851854
0.00046522411
0.00068572156
0.0010414483
0.0016081416
0.0024691967
0.003675209
0.0051686142
0.0068552488
0.0086232654
0.010355713
0.011959771
0.013385551
0.014627442
0.015706173
0.016647207
0.017469422
0.018185514
0.018806309
0.019342676
0.019804826
0.020201461
0.020539888
0.020826504
0.02106702
0.021266463
0.021429247
0.021559278
0.02166003
0.021734599
0.021785747
0.021815948
0.021827422
0.021822159
0.021801947
0.021768394
0.021722948
0.021666913
0.021601464
0.021527663
0.021446465
0.021358736
0.021265258
0.021166735
0.021063811
0.020957057
0.020847017
0.020734123
0.020618915
0.020501574
0.020382952
0.020262931
0.02014047
0.020034238
0.019838317
8.4947236e-06
8.521923e-06
8.5882281e-06
8.7107241e-06
8.8975824e-06
9.1491377e-06
9.4617175e-06
9.8308121e-06
1.0252679e-05
1.0724776e-05
1.1245614e-05
1.1814416e-05
1.2430801e-05
1.3094551e-05
1.3805468e-05
1.4563256e-05
1.5367476e-05
1.6217482e-05
1.7112368e-05
1.8050959e-05
1.9031822e-05
2.0053263e-05
2.1113367e-05
2.2210104e-05
2.3341503e-05
2.4505804e-05
2.5702031e-05
2.6930487e-05
2.819295e-05
2.9493226e-05
3.0837825e-05
3.2237266e-05
3.3707179e-05
3.526949e-05
3.695369e-05
3.8796342e-05
4.086557e-05
4.3235385e-05
4.5998554e-05
4.9285967e-05
5.3274821e-05
5.8192778e-05
6.4373599e-05
7.2278895e-05
8.2694597e-05
9.6689695e-05
0.00011610392
0.00014378534
0.000184643
0.00024696149
0.00034521715
0.00050338542
0.00075779306
0.0011656258
0.0017950183
0.0026706945
0.0037635509
0.0050136052
0.0063417661
0.0076645912
0.0089138713
0.010052017
0.011070963
0.011978752
0.012786362
0.013502555
0.014134784
0.014690717
0.015178098
0.015604008
0.015974666
0.016295646
0.016572002
0.016808271
0.017008511
0.017176364
0.017315103
0.017427669
0.017516707
0.0175846
0.017633493
0.01766532
0.017681827
0.017684591
0.017675033
0.017654441
0.01762398
0.017584702
0.017537561
0.017483423
0.017423068
0.017357222
0.017286499
0.017211569
0.017132813
0.017051094
0.016966585
0.016878447
0.016802311
0.016655689
8.4438609e-06
8.4536301e-06
8.4762369e-06
8.5219252e-06
8.5997928e-06
8.7155768e-06
8.8715619e-06
9.0676626e-06
9.3026457e-06
9.5749874e-06
9.8833096e-06
1.0226516e-05
1.0603772e-05
1.1014435e-05
1.1457977e-05
1.1933919e-05
1.244179e-05
1.2981082e-05
1.355122e-05
1.4151539e-05
1.4781285e-05
1.5439589e-05
1.6125466e-05
1.6837842e-05
1.7575603e-05
1.8337649e-05
1.9123029e-05
1.9931135e-05
2.0761852e-05
2.1615762e-05
2.2494344e-05
2.3400333e-05
2.4338117e-05
2.5314172e-05
2.6337626e-05
2.7419747e-05
2.8578905e-05
2.9838666e-05
3.1227518e-05
3.2781882e-05
3.4548363e-05
3.6585373e-05
3.8987282e-05
4.1854221e-05
4.5333457e-05
4.9625523e-05
5.5018463e-05
6.1906685e-05
7.0921046e-05
8.3026261e-05
9.9765234e-05
0.00012359904
0.00015872027
0.00021222368
0.00029710639
0.00043265181
0.00065157229
0.00099862521
0.0015254438
0.0022357123
0.0031059467
0.0040925621
0.0051352104
0.0061723234
0.0071575931
0.0080675277
0.0088965055
0.0096468656
0.010322495
0.010927513
0.01146675
0.01194558
0.012369288
0.012742792
0.013070668
0.013357166
0.013606187
0.013821286
0.014005702
0.014162381
0.014293998
0.014402978
0.014491524
0.01456163
0.014615107
0.014653595
0.014678582
0.01469142
0.014693333
0.014685434
0.014668732
0.014644155
0.014612517
0.01457464
0.014531106
0.01448283
0.014430231
0.01437277
0.014323156
0.014219732
8.3904672e-06
8.3959346e-06
8.4051168e-06
8.4224233e-06
8.4534198e-06
8.5034236e-06
8.576516e-06
8.6752367e-06
8.8007935e-06
8.9534823e-06
9.1330882e-06
9.3391677e-06
9.5712076e-06
9.8286978e-06
1.0111155e-05
1.0418117e-05
1.0749138e-05
1.1103775e-05
1.1481567e-05
1.188203e-05
1.2304652e-05
1.2748875e-05
1.321409e-05
1.3699639e-05
1.420483e-05
1.4728963e-05
1.5271362e-05
1.5831449e-05
1.6408821e-05
1.7003338e-05
1.7615213e-05
1.8245133e-05
1.8894411e-05
1.9565152e-05
2.0260512e-05
2.0984609e-05
2.1743559e-05
2.2545838e-05
2.3402218e-05
2.4326211e-05
2.5334864e-05
2.6448352e-05
2.7696078e-05
2.9112371e-05
3.073911e-05
3.2632466e-05
3.4863639e-05
3.7542676e-05
4.0805671e-05
4.4842631e-05
4.993286e-05
5.6466633e-05
6.5050962e-05
7.6625719e-05
9.277866e-05
0.00011595654
0.00015048121
0.00020350031
0.00028810512
0.00042191398
0.00063793477
0.00097779772
0.0014588912
0.0020800787
0.0028191151
0.0036359176
0.004481746
0.0053132286
0.0061023594
0.0068363886
0.007511561
0.0081276466
0.0086859441
0.0091890102
0.0096402643
0.010043418
0.010402172
0.010720136
0.011000762
0.011247299
0.011462771
0.011649976
0.011811491
0.011949683
0.01206672
0.012164582
0.012245078
0.012309859
0.012360429
0.01239816
0.0124243
0.012439995
0.012446268
0.012444113
0.012434316
0.012417883
0.012395435
0.012366835
0.012341878
0.012278363
8.3317506e-06
8.3362799e-06
8.3418189e-06
8.349843e-06
8.3628791e-06
8.3840949e-06
8.4167485e-06
8.463711e-06
8.5272007e-06
8.6087376e-06
8.709243e-06
8.8291913e-06
8.968753e-06
9.1279044e-06
9.3065029e-06
9.50433e-06
9.7211207e-06
9.9565769e-06
1.0210373e-05
1.0482158e-05
1.0771566e-05
1.1078201e-05
1.1401643e-05
1.1741441e-05
1.2097125e-05
1.2468215e-05
1.2854232e-05
1.3254726e-05
1.3669314e-05
1.4097722e-05
1.4539827e-05
1.4995706e-05
1.5465704e-05
1.5950497e-05
1.6451207e-05
1.696942e-05
1.7507448e-05
1.8068598e-05
1.8657303e-05
1.9279255e-05
1.9941714e-05
2.0653311e-05
2.1425529e-05
2.2272603e-05
2.3211166e-05
2.4262502e-05
2.5451979e-05
2.6814621e-05
2.8394287e-05
3.024658e-05
3.2443531e-05
3.5090987e-05
3.8338826e-05
4.2385733e-05
4.7533988e-05
5.4218974e-05
6.3112815e-05
7.5270981e-05
9.249373e-05
0.00011757711
0.00015544547
0.00021518563
0.0003094298
0.0004602633
0.00069941884
0.0010478012
0.0015124576
0.0020833315
0.0027339359
0.0034268095
0.0041250572
0.0048018744
0.005442286
0.0060393876
0.0065903322
0.00709448
0.0075527764
0.0079672003
0.0083402414
0.0086746084
0.0089730854
0.0092384297
0.0094733029
0.0096802348
0.0098616048
0.010019633
0.010156381
0.010273752
0.0103735
0.010457239
0.010526447
0.010582486
0.010626591
0.010659931
0.010683498
0.010698414
0.010705471
0.010705022
0.010703897
0.010678717
8.2674183e-06
8.2717396e-06
8.276386e-06
8.2817104e-06
8.2886355e-06
8.2986168e-06
8.3135122e-06
8.3353621e-06
8.3661522e-06
8.4076335e-06
8.46123e-06
8.5280218e-06
8.6087771e-06
8.7040051e-06
8.8140119e-06
8.9389478e-06
9.0788468e-06
9.2336548e-06
9.40325e-06
9.5874587e-06
9.7860685e-06
9.9988327e-06
1.0225474e-05
1.0465687e-05
1.0719149e-05
1.0985522e-05
1.1264462e-05
1.1555633e-05
1.1858723e-05
1.2173467e-05
1.2499669e-05
1.2837227e-05
1.3186158e-05
1.354663e-05
1.3919011e-05
1.4303898e-05
1.4702199e-05
1.5115263e-05
1.5544989e-05
1.5993911e-05
1.6465347e-05
1.6963362e-05
1.7493141e-05
1.8061235e-05
1.8675401e-05
1.9345243e-05
2.008211e-05
2.0900373e-05
2.1817929e-05
2.285684e-05
2.4043648e-05
2.5414261e-05
2.7016395e-05
2.8910518e-05
3.1179848e-05
3.3936151e-05
3.7357693e-05
4.1677332e-05
4.7252034e-05
5.461212e-05
6.4562431e-05
7.8532381e-05
9.8705897e-05
0.00012879263
0.00017560095
0.00024900187
0.00036573602
0.00055079038
0.00082233557
0.0011899066
0.00164944
0.0021823446
0.0027591828
0.0033495516
0.0039300422
0.0044861798
0.0050100674
0.0054976274
0.0059471525
0.0063585958
0.0067329799
0.0070719364
0.0073774352
0.0076516177
0.0078966795
0.0081147946
0.0083080696
0.0084785151
0.0086280296
0.0087583932
0.0088712635
0.008968183
0.0090505707
0.0091197648
0.0091769437
0.00922336
0.0092599462
0.0092876096
0.0093101382
0.0093228039
8.1976632e-06
8.2018996e-06
8.2063166e-06
8.2109161e-06
8.2159713e-06
8.2220327e-06
8.2299465e-06
8.2408223e-06
8.2559463e-06
8.2766677e-06
8.3042917e-06
8.3400005e-06
8.3848071e-06
8.4395394e-06
8.5048456e-06
8.5812095e-06
8.6689738e-06
8.7683611e-06
8.8794941e-06
9.0024137e-06
9.1370957e-06
9.283461e-06
9.4413843e-06
9.6107023e-06
9.7912221e-06
9.9827286e-06
1.0184992e-05
1.0397774e-05
1.0620845e-05
1.0853988e-05
1.109702e-05
1.1349798e-05
1.1612237e-05
1.1884323e-05
1.2166134e-05
1.2457861e-05
1.2759844e-05
1.3072627e-05
1.3397027e-05
1.3734195e-05
1.4085688e-05
1.4453501e-05
1.4840161e-05
1.5248891e-05
1.5683601e-05
1.6149084e-05
1.6651046e-05
1.7196425e-05
1.7793701e-05
1.8453218e-05
1.9187136e-05
2.0010767e-05
2.094368e-05
2.2009645e-05
2.3240384e-05
2.4674421e-05
2.6368034e-05
2.8394558e-05
3.0852502e-05
3.3880952e-05
3.769396e-05
4.2603759e-05
4.907242e-05
5.7798814e-05
6.9973016e-05
8.7454529e-05
0.00011336249
0.00015340916
0.00021574087
0.0003147559
0.00046969334
0.00069669404
0.0010043548
0.0013908152
0.0018411865
0.0023314782
0.0028368218
0.0033376526
0.0038211752
0.0042797538
0.0047090626
0.0051070076
0.0054730471
0.0058076444
0.0061118818
0.0063872177
0.0066353209
0.006857957
0.0070569128
0.0072339482
0.0073907638
0.0075289844
0.0076501422
0.0077556939
0.0078469653
0.0079253254
0.0079918067
0.0080479194
0.0080942938
0.0081449881
8.122743e-06
8.1269054e-06
8.1312245e-06
8.1356111e-06
8.1401221e-06
8.1449337e-06
8.1503689e-06
8.1569237e-06
8.1652658e-06
8.1762046e-06
8.1906415e-06
8.209512e-06
8.2337322e-06
8.2641557e-06
8.3015457e-06
8.3465594e-06
8.3997437e-06
8.4615376e-06
8.5322794e-06
8.6122162e-06
8.7015161e-06
8.8002776e-06
8.908538e-06
9.0262832e-06
9.1534568e-06
9.2899681e-06
9.4356996e-06
9.5905154e-06
9.7542691e-06
9.9268136e-06
1.010801e-05
1.0297733e-05
1.0495885e-05
1.0702397e-05
1.0917243e-05
1.1140451e-05
1.1372122e-05
1.1612456e-05
1.186179e-05
1.2120636e-05
1.2389728e-05
1.2670048e-05
1.2962872e-05
1.3269847e-05
1.359302e-05
1.3934922e-05
1.4298605e-05
1.4687742e-05
1.5106766e-05
1.5561046e-05
1.605688e-05
1.6601871e-05
1.7205443e-05
1.7878775e-05
1.8636232e-05
1.9494849e-05
2.0477004e-05
2.161211e-05
2.2936973e-05
2.4499998e-05
2.6369547e-05
2.8640102e-05
3.1440489e-05
3.4958146e-05
3.9491525e-05
4.5465335e-05
5.3528823e-05
6.4781763e-05
8.0907843e-05
0.00010484134
0.00014164468
0.00019855006
0.00028918875
0.0004283316
0.00062974431
0.00090072506
0.0012389551
0.0016308692
0.0020561716
0.0024945347
0.0029300425
0.0033519602
0.003753539
0.0041307842
0.0044816474
0.0048054283
0.0051023153
0.0053730705
0.005618818
0.0058408942
0.0060407467
0.0062198652
0.0063797344
0.0065218131
0.0066474848
0.0067581805
0.006854968
0.0069399785
0.0070105332
0.007099792
8.0429204e-06
8.0470063e-06
8.051246e-06
8.0555317e-06
8.0598592e-06
8.064276e-06
8.0688885e-06
8.0738858e-06
8.0795588e-06
8.0863093e-06
8.0946435e-06
8.1051542e-06
8.1184918e-06
8.1353336e-06
8.156353e-06
8.1821937e-06
8.2134502e-06
8.2506543e-06
8.2942676e-06
8.3446795e-06
8.4022081e-06
8.4671036e-06
8.5395525e-06
8.6196837e-06
8.7075758e-06
8.8032637e-06
8.9067458e-06
9.0179912e-06
9.1369466e-06
9.2635445e-06
9.3977096e-06
9.5393651e-06
9.6884384e-06
9.8448667e-06
1.0008602e-05
1.0179618e-05
1.0357924e-05
1.0543574e-05
1.0736692e-05
1.0937494e-05
1.1146315e-05
1.1363631e-05
1.1590088e-05
1.1826539e-05
1.2074075e-05
1.2334068e-05
1.2608205e-05
1.2898527e-05
1.3207495e-05
1.3538081e-05
1.3893793e-05
1.4278785e-05
1.4698096e-05
1.5157641e-05
1.5664746e-05
1.6228095e-05
1.6858342e-05
1.7569159e-05
1.8377295e-05
1.9303664e-05
2.0375828e-05
2.1630231e-05
2.3114835e-05
2.4893398e-05
2.7059066e-05
2.9740324e-05
3.3110412e-05
3.7466455e-05
4.3223864e-05
5.1032644e-05
6.1974614e-05
7.767001e-05
0.00010114859
0.0001370671
0.00019300795
0.00028066383
0.00041302899
0.00060099596
0.00084985377
0.0011554664
0.0015046596
0.0018799126
0.0022646792
0.0026462555
0.0030159368
0.0033681031
0.0036993757
0.0040079867
0.0042932834
0.0045553638
0.0047948252
0.0050125835
0.0052097512
0.0053875511
0.0055472439
0.0056901978
0.0058174026
0.0059315833
0.0060265673
0.0061549691
7.9584638e-06
7.9624714e-06
7.9666317e-06
7.9708352e-06
7.9750631e-06
7.9793248e-06
7.9836516e-06
7.9881064e-06
7.9927987e-06
7.9978986e-06
8.0036464e-06
8.010356e-06
8.0184108e-06
8.028252e-06
8.0403628e-06
8.0552498e-06
8.0734247e-06
8.0953867e-06
8.1216084e-06
8.1525252e-06
8.1885283e-06
8.2299597e-06
8.2771101e-06
8.3302193e-06
8.3894791e-06
8.4550364e-06
8.5269978e-06
8.6054343e-06
8.6903874e-06
8.7818745e-06
8.8798948e-06
8.9844341e-06
9.0954693e-06
9.2129724e-06
9.3369147e-06
9.467271e-06
9.6040271e-06
9.7471883e-06
9.8967915e-06
1.0052919e-05
1.0215717e-05
1.038541e-05
1.0562318e-05
1.0746882e-05
1.0939684e-05
1.1141474e-05
1.1353197e-05
1.1576015e-05
1.1811338e-05
1.2060878e-05
1.2326674e-05
1.2611132e-05
1.2917134e-05
1.3248059e-05
1.3607979e-05
1.4001722e-05
1.4435019e-05
1.4914977e-05
1.5450218e-05
1.6051193e-05
1.6731034e-05
1.7506295e-05
1.839852e-05
1.9434633e-05
2.065121e-05
2.2097573e-05
2.3836135e-05
2.5961784e-05
2.8605739e-05
3.1951149e-05
3.6290589e-05
4.2055301e-05
4.995016e-05
6.1073414e-05
7.7205979e-05
0.00010142895
0.00013843093
0.00019628285
0.00028541799
0.00041697781
0.00059950471
0.00083522601
0.0011177775
0.0014341908
0.0017693966
0.0021101223
0.0024464139
0.0027714097
0.003080649
0.0033714556
0.003642438
0.0038930978
0.0041235541
0.0043343356
0.0045262371
0.0047003174
0.0048572862
0.0050003601
0.005119656
0.0052874583
7.8696503e-06
7.873579e-06
7.8776583e-06
7.8817807e-06
7.8859244e-06
7.8900889e-06
7.894283e-06
7.8985256e-06
7.9028531e-06
7.907328e-06
7.9120486e-06
7.9171572e-06
7.9228461e-06
7.9293593e-06
7.9369894e-06
7.9460714e-06
7.9569727e-06
7.9700819e-06
7.9857963e-06
8.0045105e-06
8.0266062e-06
8.0524435e-06
8.0823533e-06
8.1166339e-06
8.1555476e-06
8.1993206e-06
8.2481432e-06
8.3021718e-06
8.3615317e-06
8.4263205e-06
8.4966121e-06
8.5724598e-06
8.6539e-06
8.7409551e-06
8.8336362e-06
8.9319471e-06
9.0358884e-06
9.1454635e-06
9.2606866e-06
9.381591e-06
9.5082402e-06
9.6407389e-06
9.7792449e-06
9.9239835e-06
1.0075264e-05
1.0233497e-05
1.0399212e-05
1.0573074e-05
1.0755908e-05
1.0948718e-05
1.1152719e-05
1.1369352e-05
1.1600338e-05
1.1847699e-05
1.211384e-05
1.2401605e-05
1.2714328e-05
1.3056032e-05
1.3431544e-05
1.3846624e-05
1.4308291e-05
1.4825091e-05
1.5407871e-05
1.6069886e-05
1.6828093e-05
1.7704757e-05
1.8727242e-05
1.9933545e-05
2.1374888e-05
2.3118456e-05
2.5262312e-05
2.7943954e-05
3.1368581e-05
3.5838484e-05
4.184406e-05
5.015142e-05
6.1952541e-05
7.9280027e-05
0.00010537502
0.00014560667
0.0002079723
0.0003021561
0.00043741317
0.00061941434
0.00084694214
0.0011116928
0.0014012389
0.0017029318
0.0020063451
0.0023038257
0.0025901202
0.0028618401
0.0031169911
0.0033545718
0.0035742844
0.0037764194
0.0039610482
0.0041316522
0.0042743758
0.0044810369
7.776766e-06
7.7806155e-06
7.784613e-06
7.7886531e-06
7.7927137e-06
7.7967922e-06
7.8008912e-06
7.8050164e-06
7.8091789e-06
7.8133988e-06
7.8177109e-06
7.8221707e-06
7.8268614e-06
7.8318991e-06
7.8374362e-06
7.8436628e-06
7.8508052e-06
7.8591221e-06
7.8688978e-06
7.8804357e-06
7.8940498e-06
7.9100565e-06
7.9287668e-06
7.9504797e-06
7.9754768e-06
8.0040185e-06
8.0363412e-06
8.0726558e-06
8.1131478e-06
8.1579775e-06
8.2072818e-06
8.2611755e-06
8.319753e-06
8.3830905e-06
8.4512473e-06
8.5242686e-06
8.6021882e-06
8.6850329e-06
8.7728273e-06
8.8655997e-06
8.9633889e-06
9.066252e-06
9.174272e-06
9.2875681e-06
9.4063068e-06
9.530714e-06
9.661088e-06
9.797812e-06
9.9413683e-06
1.0092356e-05
1.0251506e-05
1.0419697e-05
1.0597984e-05
1.0787612e-05
1.0990057e-05
1.1207063e-05
1.1440668e-05
1.1693291e-05
1.1967806e-05
1.2267608e-05
1.2596761e-05
1.2960101e-05
1.3363595e-05
1.3814463e-05
1.4321582e-05
1.4896256e-05
1.5552147e-05
1.6307217e-05
1.7184643e-05
1.8214278e-05
1.9436342e-05
2.0904912e-05
2.2695644e-05
2.4913076e-05
2.7713365e-05
3.1327733e-05
3.6090239e-05
4.2571262e-05
5.1632131e-05
6.4698149e-05
8.4079592e-05
0.00011354095
0.0001590933
0.00022864593
0.00033089987
0.000472916
0.00065679361
0.00087812297
0.0011274133
0.0013933853
0.0016658045
0.0019366709
0.002200238
0.0024526133
0.0026913401
0.0029151371
0.0031228147
0.0033176867
0.003481588
0.0037250792
7.6801043e-06
7.6838747e-06
7.6877897e-06
7.6917465e-06
7.6957232e-06
7.6997166e-06
7.7037279e-06
7.7077592e-06
7.711814e-06
7.715898e-06
7.7200214e-06
7.7242028e-06
7.7284727e-06
7.7328784e-06
7.7374886e-06
7.7423967e-06
7.7477238e-06
7.7536191e-06
7.7602596e-06
7.7678474e-06
7.7766061e-06
7.7867758e-06
7.7986074e-06
7.8123569e-06
7.8282802e-06
7.846628e-06
7.8676416e-06
7.8915493e-06
7.9185642e-06
7.9488821e-06
7.9826812e-06
8.0201207e-06
8.0613415e-06
8.1064663e-06
8.1555997e-06
8.2088295e-06
8.2662289e-06
8.3278582e-06
8.3937687e-06
8.464006e-06
8.5386149e-06
8.617644e-06
8.7011514e-06
8.7892114e-06
8.8819223e-06
8.9794151e-06
9.0818627e-06
9.1894893e-06
9.3025807e-06
9.4214965e-06
9.5466817e-06
9.678678e-06
9.8181399e-06
9.9658488e-06
1.0122732e-05
1.0289887e-05
1.0468601e-05
1.0660388e-05
1.0867036e-05
1.1090644e-05
1.1333699e-05
1.1599121e-05
1.189043e-05
1.2211844e-05
1.2568431e-05
1.2966469e-05
1.3413466e-05
1.3918903e-05
1.4494569e-05
1.515555e-05
1.5920954e-05
1.6815627e-05
1.7872745e-05
1.9136121e-05
2.0666733e-05
2.2550756e-05
2.4905393e-05
2.7912548e-05
3.1837899e-05
3.7086225e-05
4.4324298e-05
5.4603042e-05
6.9657603e-05
9.2272956e-05
0.00012698819
0.0001801541
0.00025947551
0.00037222535
0.00052234796
0.00070828734
0.00092322696
0.0011575575
0.0014016921
0.001647663
0.0018894906
0.0021231169
0.002345094
0.0025578206
0.0027383684
0.0030141323
7.5799641e-06
7.5836553e-06
7.5874876e-06
7.5913605e-06
7.5952524e-06
7.5991601e-06
7.6030844e-06
7.6070264e-06
7.6109877e-06
7.6149696e-06
7.6189744e-06
7.6230067e-06
7.6270754e-06
7.6311963e-06
7.6353954e-06
7.6397122e-06
7.6442026e-06
7.6489419e-06
7.6540263e-06
7.659574e-06
7.6657246e-06
7.672638e-06
7.6804915e-06
7.6894771e-06
7.6997974e-06
7.7116623e-06
7.7252846e-06
7.7408765e-06
7.7586463e-06
7.7787953e-06
7.8015155e-06
7.8269875e-06
7.855379e-06
7.8868432e-06
7.9215184e-06
7.9595274e-06
8.0009783e-06
8.0459651e-06
8.0945697e-06
8.1468641e-06
8.202913e-06
8.2627768e-06
8.3265155e-06
8.394193e-06
8.4658822e-06
8.5416717e-06
8.6216719e-06
8.7060219e-06
8.7948979e-06
8.8885209e-06
8.9871662e-06
9.0911721e-06
9.2009498e-06
9.3169954e-06
9.4399009e-06
9.5703693e-06
9.7092297e-06
9.8574563e-06
1.0016195e-05
1.018679e-05
1.037082e-05
1.0570132e-05
1.0786915e-05
1.1023763e-05
1.1283757e-05
1.1570625e-05
1.1888794e-05
1.2243694e-05
1.2641913e-05
1.3091713e-05
1.3603283e-05
1.4189415e-05
1.4866596e-05
1.5655913e-05
1.6585225e-05
1.7692297e-05
1.9026543e-05
2.0658597e-05
2.2687756e-05
2.5254765e-05
2.8574965e-05
3.2972665e-05
3.895456e-05
4.7344311e-05
5.9487816e-05
7.7567014e-05
0.00010508606
0.00014717863
0.00021049407
0.00030195213
0.00042634992
0.00058402913
0.00077033887
0.00097732392
0.0011962609
0.0014196565
0.0016407104
0.0018598649
0.0020488637
0.0023482486
7.4766471e-06
7.4802594e-06
7.484009e-06
7.4877977e-06
7.4916045e-06
7.4954259e-06
7.4992627e-06
7.5031159e-06
7.5069863e-06
7.5108745e-06
7.5147804e-06
7.5187042e-06
7.5226469e-06
7.5266121e-06
7.5306068e-06
7.5346447e-06
7.5387472e-06
7.5429471e-06
7.5472897e-06
7.5518357e-06
7.5566619e-06
7.5618623e-06
7.567548e-06
7.5738463e-06
7.5808994e-06
7.5888627e-06
7.5979023e-06
7.608192e-06
7.6199109e-06
7.6332403e-06
7.6483611e-06
7.6654508e-06
7.6846816e-06
7.7062175e-06
7.7302132e-06
7.7568119e-06
7.7861454e-06
7.8183333e-06
7.8534836e-06
7.8916937e-06
7.9330513e-06
7.9776363e-06
8.0255228e-06
8.0767818e-06
8.1314845e-06
8.189707e-06
8.2515342e-06
8.3170651e-06
8.3864185e-06
8.4597395e-06
8.5372055e-06
8.6190337e-06
8.7054884e-06
8.7968891e-06
8.8936194e-06
8.9961366e-06
9.1049823e-06
9.2207949e-06
9.3443255e-06
9.4764537e-06
9.6182118e-06
9.7708041e-06
9.9356428e-06
1.0114392e-05
1.0309006e-05
1.0521817e-05
1.0755573e-05
1.1013582e-05
1.1299785e-05
1.1619023e-05
1.1977174e-05
1.2381431e-05
1.2840788e-05
1.3366482e-05
1.3972809e-05
1.467845e-05
1.5507242e-05
1.6491218e-05
1.7673776e-05
1.9113436e-05
2.0893733e-05
2.3134306e-05
2.6010226e-05
2.978864e-05
3.4885976e-05
4.1962613e-05
5.2100863e-05
6.7061602e-05
8.9654829e-05
0.00012411543
0.00017614974
0.00025210728
0.00035703848
0.00049244834
0.0006552666
0.00083920287
0.0010354913
0.0012423681
0.0014260913
0.0017340698
7.3704566e-06
7.3739903e-06
7.3776574e-06
7.381362e-06
7.3850834e-06
7.3888184e-06
7.3925675e-06
7.3963316e-06
7.4001116e-06
7.4039077e-06
7.4077195e-06
7.411546e-06
7.415386e-06
7.4192386e-06
7.4231041e-06
7.4269849e-06
7.430887e-06
7.4348215e-06
7.4388064e-06
7.4428683e-06
7.4470441e-06
7.4513827e-06
7.4559455e-06
7.4608077e-06
7.4660583e-06
7.4718002e-06
7.4781491e-06
7.4852323e-06
7.4931876e-06
7.5021609e-06
7.5123041e-06
7.5237729e-06
7.5367243e-06
7.5513141e-06
7.5676947e-06
7.5860133e-06
7.6064101e-06
7.6290174e-06
7.653959e-06
7.6813501e-06
7.7112968e-06
7.7438974e-06
7.7792422e-06
7.8174159e-06
7.8584986e-06
7.9025692e-06
7.9497076e-06
7.9999986e-06
8.0535357e-06
8.1104257e-06
8.1707936e-06
8.2347875e-06
8.3025846e-06
8.3743976e-06
8.4504807e-06
8.531137e-06
8.6167262e-06
8.7076732e-06
8.8044783e-06
8.9077284e-06
9.0181113e-06
9.13643e-06
9.2636215e-06
9.4007836e-06
9.5491999e-06
9.7103842e-06
9.8861119e-06
1.0078489e-05
1.0290001e-05
1.0523639e-05
1.0782995e-05
1.1072391e-05
1.13971e-05
1.1763591e-05
1.2179864e-05
1.265606e-05
1.3204872e-05
1.3842629e-05
1.4590721e-05
1.5476998e-05
1.6539109e-05
1.7828644e-05
1.9417207e-05
2.1407512e-05
2.395059e-05
2.7272551e-05
3.1724505e-05
3.7862557e-05
4.6583761e-05
5.9346834e-05
7.8491007e-05
0.00010758897
0.00015157792
0.00021621557
0.00030642777
0.00042460775
0.00056765856
0.00073621485
0.00089411793
0.00118659
7.2616945e-06
7.2651503e-06
7.2687353e-06
7.2723561e-06
7.2759925e-06
7.2796411e-06
7.2833025e-06
7.2869777e-06
7.2906673e-06
7.2943717e-06
7.2980905e-06
7.3018225e-06
7.3055661e-06
7.3093194e-06
7.3130803e-06
7.3168473e-06
7.32062e-06
7.3244004e-06
7.3281931e-06
7.3320074e-06
7.335858e-06
7.3397667e-06
7.3437633e-06
7.347887e-06
7.3521876e-06
7.3567258e-06