/*--------------------------------*- C++ -*----------------------------------*\
  =========                 |
  \\      /  F ield         | OpenFOAM: The Open Source CFD Toolbox
   \\    /   O peration     | Website:  https://openfoam.org
    \\  /    A nd           | Version:  12
     \\/     M anipulation  |
\*---------------------------------------------------------------------------*/
FoamFile
{
    format      ascii;
    class       volVectorField;
    location    "1400";
    object      U;
}
// * * * * * * * * * * * * * * * * * * * * * * * * * * * * * * * * * * * * * //

dimensions      [0 1 -1 0 0 0 0];

internalField   nonuniform List<vector> 
7480
(
(0.99632983 0.00031237069 0)
(0.99394515 0.00034041638 -3.3117144e-20)
(0.99090956 0.00050991794 0)
(0.98718844 0.00068348051 0)
(0.98270027 0.00086713933 0)
(0.97737537 0.0009955401 -1.6556096e-17)
(0.97111296 0.001076754 -3.050755e-19)
(0.96388898 0.0013073272 0)
(0.9556491 0.0015509963 0)
(0.94637453 0.0017859724 0)
(0.93610033 0.0020054212 0)
(0.92490068 0.0022002873 0)
(0.91288146 0.0023617492 0)
(0.90017799 0.0024771747 0)
(0.88693918 0.0025650864 0)
(0.87332082 0.0025649402 0)
(0.85949362 0.0025401932 0)
(0.84557193 0.0024674659 0)
(0.83173566 0.0023503898 0)
(0.81810095 0.0022010493 0)
(0.80479076 0.0020213651 0)
(0.79194031 0.0018153917 0)
(0.77970662 0.0015944509 0)
(0.76821802 0.0013692639 0)
(0.75757598 0.0011456066 0)
(0.74786033 0.00092947431 0)
(0.73912057 0.00072559715 0)
(0.7313779 0.00054070087 0)
(0.72461821 0.00038206271 0)
(0.71877279 0.00025603279 0)
(0.71372103 0.00016805332 0)
(0.70930992 0.00011773472 0)
(0.70537138 9.8782832e-05 0)
(0.7017481 0.00010141286 0)
(0.69832081 0.00011446644 0)
(0.69501626 0.00012856572 0)
(0.69179866 0.00013800185 0)
(0.68865504 0.00014081867 0)
(0.68557872 0.00013869109 0)
(0.68255842 0.00013468845 0)
(0.67957814 0.00013120909 0)
(0.6766229 0.00012909675 0)
(0.67368573 0.00012782092 0)
(0.67076993 0.00012648669 0)
(0.66788403 0.0001245382 0)
(0.66503525 0.00012185875 0)
(0.66222657 0.00011863851 0)
(0.65945808 0.0001151324 0)
(0.65672949 0.00011152445 0)
(0.65404099 0.00010786619 0)
(0.65139303 0.0001041657 0)
(0.64878609 0.00010043838 0)
(0.64622035 9.6740437e-05 0)
(0.64369522 9.3137219e-05 0)
(0.64120971 8.9636618e-05 0)
(0.63876331 8.6226613e-05 0)
(0.6363557 8.2920651e-05 0)
(0.63398598 7.9736838e-05 0)
(0.63165313 7.6661616e-05 0)
(0.62935665 7.368787e-05 0)
(0.62709566 7.0841177e-05 0)
(0.62486891 6.8112869e-05 0)
(0.6226755 6.5491967e-05 0)
(0.62051459 6.2984875e-05 0)
(0.61838513 6.0577691e-05 0)
(0.6162864 5.8262188e-05 0)
(0.6142176 5.6044598e-05 0)
(0.61217778 5.3916153e-05 0)
(0.61016619 5.1871793e-05 0)
(0.60818203 4.9914269e-05 0)
(0.60622442 4.8036519e-05 0)
(0.60429259 4.6236255e-05 0)
(0.60238574 4.4510489e-05 0)
(0.60050313 4.2854703e-05 0)
(0.59864404 4.1266706e-05 0)
(0.59680775 3.9742364e-05 0)
(0.59499362 3.8279179e-05 0)
(0.59320099 3.6874659e-05 0)
(0.59142923 3.5526251e-05 0)
(0.58967773 3.423148e-05 0)
(0.58794589 3.2987984e-05 0)
(0.58623316 3.1793563e-05 0)
(0.58453896 3.0646155e-05 0)
(0.58286276 2.9543845e-05 0)
(0.58120404 2.8484813e-05 0)
(0.57956225 2.7467419e-05 0)
(0.57793689 2.6490055e-05 0)
(0.57632742 2.5551557e-05 0)
(0.57473333 2.4650478e-05 0)
(0.57315395 2.3786933e-05 0)
(0.57158894 2.295816e-05 0)
(0.57003686 2.2170011e-05 0)
(0.56849857 2.1411847e-05 0)
(0.56696869 2.071792e-05 0)
(0.56545517 2.0023671e-05 0)
(0.56393247 1.9551946e-05 0)
(0.56244549 1.8316719e-05 -9.7863194e-21)
(0.56086171 3.1919798e-05 8.1166055e-20)
(0.55955681 1.8384193e-05 -2.5219633e-19)
(0.55709734 3.3585661e-05 -4.2846109e-18)
(0.99783317 0.00049217949 0)
(0.99773164 0.0007291741 0)
(0.99763148 0.00093072288 0)
(0.99747654 0.0010911088 -5.650767e-19)
(0.99726801 0.0012409515 0)
(0.99701169 0.0013943264 0)
(0.99669119 0.0015770723 0)
(0.99626741 0.0017697802 0)
(0.99569101 0.0019224938 0)
(0.99490733 0.002046419 0)
(0.99385118 0.0021465205 0)
(0.99244936 0.0022209218 0)
(0.99062704 0.0022686961 0)
(0.98831184 0.0022933956 0)
(0.98544094 0.0022905284 0)
(0.98195986 0.0022786003 0)
(0.9778325 0.0022519687 0)
(0.97302079 0.0022144025 0)
(0.96752337 0.0021690889 0)
(0.96132794 0.0021207496 0)
(0.95443663 0.0020708008 0)
(0.94684381 0.0020124384 0)
(0.93858792 0.0019331361 0)
(0.92977002 0.001834657 0)
(0.9204877 0.0017246207 0)
(0.91085523 0.0016038889 0)
(0.90101441 0.001474341 0)
(0.89111873 0.0013367558 0)
(0.88133334 0.0011921209 0)
(0.87183333 0.0010420132 0)
(0.86281747 0.00089488298 0)
(0.85444237 0.00076126937 0)
(0.84677872 0.0006465378 0)
(0.83980925 0.00055539024 0)
(0.83345892 0.00048936346 0)
(0.82761658 0.00044663831 0)
(0.82216419 0.00042236168 0)
(0.81700721 0.00040930371 0)
(0.81208361 0.00040013742 0)
(0.80735839 0.00039010192 0)
(0.80281367 0.00037741712 0)
(0.79843695 0.00036225256 0)
(0.79421467 0.00034541728 0)
(0.79013083 0.00032811725 0)
(0.78616782 0.00031155407 0)
(0.78230888 0.00029634737 0)
(0.77854128 0.00028243326 0)
(0.77485818 0.00026945315 0)
(0.77125675 0.0002571905 0)
(0.76773458 0.00024551911 0)
(0.76428787 0.00023438677 0)
(0.76091238 0.00022375157 0)
(0.75760479 0.00021360887 0)
(0.75436262 0.00020396745 0)
(0.7511836 0.00019476885 0)
(0.74806573 0.0001859704 0)
(0.74500715 0.00017758492 0)
(0.74200574 0.00016961789 0)
(0.73905943 0.00016202524 0)
(0.73616651 0.00015478006 0)
(0.73332535 0.00014790334 0)
(0.73053414 0.00014135601 0)
(0.72779145 0.0001351137 0)
(0.72509583 0.00012918607 0)
(0.72244567 0.00012353989 0)
(0.7198396 0.0001181564 0)
(0.71727627 0.00011304057 0)
(0.71475422 0.00010816723 0)
(0.71227219 0.00010352245 0)
(0.70982892 9.9105611e-05 0)
(0.7074231 9.4897598e-05 0)
(0.70505353 9.0890083e-05 0)
(0.70271904 8.7072964e-05 0)
(0.70041849 8.343481e-05 0)
(0.69815078 7.9968468e-05 0)
(0.69591485 7.666282e-05 0)
(0.69370968 7.3510159e-05 0)
(0.6915343 7.0502768e-05 0)
(0.68938776 6.7633175e-05 0)
(0.68726915 6.4894327e-05 0)
(0.6851776 6.2279568e-05 0)
(0.68311225 5.9782687e-05 0)
(0.68107229 5.7397868e-05 0)
(0.67905692 5.5119695e-05 0)
(0.67706536 5.2943075e-05 0)
(0.67509686 5.0863346e-05 0)
(0.67315067 4.8876081e-05 0)
(0.67122602 4.6977631e-05 0)
(0.66932222 4.5164038e-05 0)
(0.66743837 4.3433681e-05 0)
(0.66557394 4.1782158e-05 0)
(0.66372725 4.02154e-05 0)
(0.66189897 3.8720872e-05 0)
(0.66008335 3.734e-05 0)
(0.65828839 3.6001686e-05 0)
(0.6564875 3.494627e-05 0)
(0.65472683 3.3848283e-05 9.9141991e-21)
(0.65286681 3.5109178e-05 0)
(0.65130928 3.035969e-05 0)
(0.64844829 3.8703362e-05 0)
(0.99790234 0.00049607084 0)
(0.99786988 0.00069550333 0)
(0.99786157 0.00084894117 0)
(0.99783833 0.00098805735 0)
(0.99780768 0.0011415964 0)
(0.99778537 0.0013156922 0)
(0.99777682 0.0015014631 0)
(0.99778162 0.0016873774 0)
(0.99780332 0.0018774353 0)
(0.99784443 0.0020769081 0)
(0.99790218 0.0022800113 0)
(0.99797113 0.0024777419 0)
(0.99804329 0.0026631249 0)
(0.99810785 0.0028300587 0)
(0.99815286 0.002976115 0)
(0.99816297 0.0030974436 0)
(0.99812069 0.0031927345 0)
(0.99800847 0.0032606276 0)
(0.99780248 0.0033010267 0)
(0.99747491 0.0033120094 0)
(0.99699229 0.0032980155 0)
(0.99631607 0.0032569685 0)
(0.99534933 0.0031908505 0)
(0.9939602 0.0031014155 0)
(0.9920375 0.0029896249 0)
(0.98946699 0.0028582758 0)
(0.98612659 0.0027108715 0)
(0.9818979 0.0025522104 0)
(0.97667431 0.0023889492 0)
(0.97037935 0.0022288793 0)
(0.96297098 0.0020633107 0)
(0.95459837 0.0018905257 0)
(0.94548743 0.0017230983 0)
(0.93596259 0.0015625322 0)
(0.92637496 0.0014082576 0)
(0.91705093 0.0012583873 0)
(0.90825501 0.0011160971 0)
(0.90015157 0.00099036052 0)
(0.8927574 0.00088698701 0)
(0.88598937 0.00080732596 0)
(0.87972372 0.00074957061 0)
(0.87383765 0.0007090251 0)
(0.86824159 0.00067864178 0)
(0.86288341 0.00065176635 0)
(0.85773659 0.00062441241 0)
(0.85278553 0.00059578592 0)
(0.84801592 0.00056652512 0)
(0.84341227 0.00053757102 0)
(0.83895822 0.00050991551 0)
(0.83463787 0.00048407142 0)
(0.83043773 0.00046001489 0)
(0.82634812 0.00043743752 0)
(0.82236269 0.00041613659 0)
(0.81847609 0.00039604422 0)
(0.81468264 0.00037703699 0)
(0.81097691 0.00035901609 0)
(0.80735441 0.00034195392 0)
(0.80381118 0.0003258113 0)
(0.8003437 0.00031049141 0)
(0.79694882 0.00029594042 0)
(0.79362353 0.00028217466 0)
(0.79036486 0.00026911312 0)
(0.7871704 0.00025670126 0)
(0.78403781 0.00024494058 0)
(0.78096468 0.00023377092 0)
(0.7779489 0.00022315325 0)
(0.77498845 0.00021308425 0)
(0.77208127 0.00020351706 0)
(0.76922555 0.00019442199 0)
(0.7664195 0.00018578956 0)
(0.76366136 0.00017758416 0)
(0.76094948 0.00016978612 0)
(0.75828228 0.00016237357 0)
(0.75565823 0.00015532348 0)
(0.75307587 0.00014861955 0)
(0.75053376 0.00014223993 0)
(0.74803056 0.00013616792 0)
(0.74556496 0.00013038724 0)
(0.74313573 0.00012488233 0)
(0.74074164 0.00011963854 0)
(0.73838156 0.00011464207 0)
(0.73605435 0.00010988004 0)
(0.73375895 0.00010534037 0)
(0.73149431 0.00010101182 0)
(0.72925942 9.6883871e-05 0)
(0.7270533 9.2946781e-05 0)
(0.72487499 8.9191498e-05 0)
(0.72272352 8.561004e-05 0)
(0.72059797 8.2194902e-05 0)
(0.71849727 7.8940594e-05 0)
(0.71642067 7.5841678e-05 0)
(0.71436633 7.2899428e-05 0)
(0.71233471 7.0109566e-05 0)
(0.71031993 6.7499792e-05 0)
(0.70832967 6.5044727e-05 0)
(0.7063373 6.2941538e-05 0)
(0.7043887 6.1054962e-05 6.9213336e-21)
(0.70234187 5.9722208e-05 0)
(0.70061421 5.8837919e-05 0)
(0.69747971 6.1813779e-05 -2.6775805e-20)
(0.99793502 0.00050859266 0)
(0.99790544 0.00069770024 0)
(0.99790311 0.00085902041 0)
(0.99789531 0.0010119961 0)
(0.99788494 0.0011732396 0)
(0.99788397 0.0013446704 0)
(0.99789823 0.0015214302 0)
(0.9979298 0.0017032627 0)
(0.9979824 0.0018902018 0)
(0.9980581 0.0020743977 0)
(0.99815615 0.0022481245 0)
(0.99827487 0.0024051902 0)
(0.99841102 0.002541433 0)
(0.99855985 0.0026541435 0)
(0.99871669 0.002742853 0)
(0.9988762 0.0028053658 0)
(0.99903355 0.0028457408 0)
(0.99918602 0.0028654381 0)
(0.99932888 0.0028654113 0)
(0.99945716 0.0028524425 0)
(0.99956821 0.002828917 0)
(0.99965944 0.0027968893 0)
(0.99972577 0.0027575352 0)
(0.99975915 0.0027127738 0)
(0.99974981 0.0026651326 0)
(0.9996856 0.0026165703 0)
(0.99954934 0.0025690505 0)
(0.99931828 0.002524114 0)
(0.99896036 0.0024821701 0)
(0.99842684 0.0024420241 0)
(0.99763818 0.0024026908 0)
(0.9963923 0.0023613125 0)
(0.99449936 0.0023119533 0)
(0.99175843 0.0022503851 0)
(0.98798833 0.0021748348 0)
(0.98306269 0.0020894704 0)
(0.97692214 0.0019905737 0)
(0.96969707 0.0018718627 0)
(0.96168183 0.0017410103 0)
(0.95324202 0.0016058777 0)
(0.94475118 0.0014700954 0)
(0.93652727 0.00133734 0)
(0.92879231 0.0012161526 0)
(0.92161535 0.0011126928 0)
(0.91495302 0.0010278677 0)
(0.90870852 0.00096047406 0)
(0.90278435 0.00090675601 0)
(0.89711394 0.00086114608 0)
(0.89166204 0.00081908393 0)
(0.8864114 0.00077840041 0)
(0.88134936 0.00073874486 0)
(0.87646218 0.00070042569 0)
(0.87173486 0.00066401823 0)
(0.86715253 0.00062992343 0)
(0.86270226 0.00059804081 0)
(0.8583743 0.00056808711 0)
(0.85416137 0.00053990315 0)
(0.85005686 0.00051337419 0)
(0.84605434 0.00048833593 0)
(0.84214817 0.00046467662 0)
(0.83833328 0.00044236867 0)
(0.83460508 0.00042126792 0)
(0.83095964 0.00040127892 0)
(0.8273933 0.00038238343 0)
(0.82390244 0.00036448336 0)
(0.82048398 0.00034750868 0)
(0.81713501 0.0003314388 0)
(0.81385265 0.00031619939 0)
(0.81063438 0.00030173863 0)
(0.80747776 0.00028803235 0)
(0.80438042 0.00027502446 0)
(0.80134019 0.00026267951 0)
(0.79835498 0.00025096023 0)
(0.79542281 0.00023982911 0)
(0.79254177 0.0002292577 0)
(0.78971004 0.00021921087 0)
(0.78692588 0.00020966037 0)
(0.78418763 0.00020057907 0)
(0.78149371 0.00019194128 0)
(0.77884258 0.00018372285 0)
(0.77623277 0.00017590103 0)
(0.77366289 0.00016845464 0)
(0.77113158 0.00016136382 0)
(0.76863752 0.0001546101 0)
(0.76617946 0.0001481762 0)
(0.76375616 0.00014204609 0)
(0.76136644 0.000136205 0)
(0.75900911 0.00013063953 0)
(0.75668304 0.00012533781 0)
(0.75438693 0.00012028929 0)
(0.75211985 0.00011548788 0)
(0.74987978 0.00011092705 0)
(0.74766694 0.00010661614 0)
(0.7454754 0.00010255551 0)
(0.74331241 9.8797497e-05 0)
(0.74115167 9.5421509e-05 0)
(0.73903821 9.2694805e-05 5.5592488e-21)
(0.73682921 8.9848642e-05 0)
(0.73495482 9.2875898e-05 0)
(0.73158321 8.8539397e-05 2.1697996e-20)
(0.99797095 0.00052602409 0)
(0.99793346 0.00070349996 0)
(0.99792605 0.0008629489 0)
(0.99791966 0.0010142271 0)
(0.99791419 0.0011709876 0)
(0.99791886 0.0013367946 0)
(0.99793886 0.0015094112 0)
(0.99797622 0.0016876727 0)
(0.99803382 0.0018688885 0)
(0.99811365 0.0020470686 0)
(0.99821559 0.0022179364 0)
(0.99833831 0.0023770471 0)
(0.99847896 0.0025203551 0)
(0.99863341 0.0026447864 0)
(0.99879763 0.0027490196 0)
(0.99896666 0.0028313364 0)
(0.99913626 0.0028939933 0)
(0.99930383 0.0029367561 0)
(0.99946594 0.0029609133 0)
(0.9996195 0.0029676373 0)
(0.99976326 0.0029604915 0)
(0.99989692 0.0029392237 0)
(1.0000186 0.0029044731 0)
(1.0001259 0.0028577807 0)
(1.0002171 0.0028017163 0)
(1.0002903 0.0027389601 0)
(1.0003435 0.0026718103 0)
(1.0003746 0.0026028663 0)
(1.0003819 0.0025352036 0)
(1.0003637 0.0024723198 0)
(1.0003185 0.0024170101 0)
(1.0002397 0.0023709186 0)
(1.0001162 0.0023349964 0)
(0.99992856 0.0023085956 0)
(0.99964796 0.0022896351 0)
(0.99922496 0.0022732218 0)
(0.99858802 0.0022540087 0)
(0.99755034 0.0022277948 0)
(0.99588092 0.0021899067 0)
(0.9933607 0.0021373847 0)
(0.98980639 0.0020712441 0)
(0.98510767 0.0019924524 0)
(0.97929174 0.0018945834 0)
(0.9726035 0.0017805963 0)
(0.96536925 0.0016603276 0)
(0.95794173 0.0015375266 0)
(0.95063249 0.0014182665 0)
(0.94364372 0.0013101294 0)
(0.93703912 0.0012159561 0)
(0.93079113 0.0011361571 0)
(0.92483492 0.0010691624 0)
(0.9191145 0.001011258 0)
(0.91359714 0.00095872319 0)
(0.9082671 0.00090931854 0)
(0.90311423 0.00086220955 0)
(0.89812792 0.00081730298 0)
(0.89329599 0.00077490928 0)
(0.88860601 0.00073517986 0)
(0.88404723 0.00069790994 0)
(0.87961147 0.00066286028 0)
(0.87529186 0.0006299318 0)
(0.87108183 0.00059890454 0)
(0.86697544 0.00056962549 0)
(0.86296729 0.00054203339 0)
(0.85905244 0.00051596939 0)
(0.8552266 0.00049131834 0)
(0.85148575 0.00046803114 0)
(0.84782606 0.00044599527 0)
(0.8442441 0.00042512687 0)
(0.8407367 0.00040537878 0)
(0.8373008 0.00038666791 0)
(0.83393358 0.00036893707 0)
(0.83063239 0.00035212842 0)
(0.82739472 0.0003361854 0)
(0.82421818 0.00032106332 0)
(0.8211005 0.00030671025 0)
(0.81803951 0.00029308309 0)
(0.81503318 0.00028014095 0)
(0.81207954 0.00026784531 0)
(0.80917671 0.00025616003 0)
(0.8063229 0.00024505119 0)
(0.80351638 0.00023448718 0)
(0.80075551 0.00022443848 0)
(0.79803868 0.00021487754 0)
(0.79536438 0.00020577872 0)
(0.79273112 0.00019711818 0)
(0.79013746 0.00018887406 0)
(0.78758198 0.00018102617 0)
(0.78506332 0.00017355728 0)
(0.78257999 0.00016645047 0)
(0.78013084 0.00015969834 0)
(0.77771366 0.00015328466 0)
(0.77532844 0.0001472339 0)
(0.7729692 0.0001415131 0)
(0.77064274 0.00013626491 0)
(0.76832315 0.00013141652 0)
(0.7660546 0.00012776901 4.8124471e-21)
(0.76369367 0.00012290585 3.9462941e-20)
(0.761683 0.00013091534 0)
(0.75809099 0.00011685962 0)
(0.99801203 0.00054555709 0)
(0.9979667 0.00071135099 0)
(0.99795107 0.00086638782 0)
(0.99794172 0.0010156449 0)
(0.99793686 0.0011701105 0)
(0.9979431 0.0013330014 0)
(0.99796465 0.0015024017 0)
(0.99800331 0.0016765999 0)
(0.99806158 0.0018531627 0)
(0.99814129 0.0020274053 0)
(0.99824241 0.0021950391 0)
(0.99836357 0.0023513039 0)
(0.99850212 0.0024919196 0)
(0.99865423 0.0026137112 0)
(0.99881604 0.0027151609 0)
(0.99898326 0.0027947568 0)
(0.99915193 0.0028539708 0)
(0.99931938 0.0028930283 0)
(0.99948255 0.00291277 0)
(0.99963857 0.0029161414 0)
(0.99978638 0.0029053271 0)
(0.99992557 0.0028813212 0)
(1.0000547 0.0028453469 0)
(1.0001717 0.0027993693 0)
(1.000275 0.0027457575 0)
(1.000364 0.0026867707 0)
(1.0004384 0.0026249741 0)
(1.0004979 0.0025629148 0)
(1.0005428 0.002503501 0)
(1.0005743 0.0024499252 0)
(1.0005942 0.0024034897 0)
(1.0006041 0.002364555 0)
(1.0006053 0.0023330459 0)
(1.000598 0.0023072728 0)
(1.0005805 0.0022846613 0)
(1.0005483 0.0022634532 0)
(1.0004959 0.0022432068 0)
(1.0004121 0.0022239819 0)
(1.0002763 0.0022063098 0)
(1.0000602 0.0021905547 0)
(0.99972169 0.0021758698 0)
(0.99919552 0.0021589924 0)
(0.99834535 0.0021369208 0)
(0.99694505 0.0021057177 0)
(0.99477976 0.0020613515 0)
(0.99166849 0.0020047935 0)
(0.98749199 0.0019320968 0)
(0.98232289 0.0018402265 0)
(0.97638558 0.0017369956 0)
(0.96997853 0.0016283659 0)
(0.96341347 0.001519285 0)
(0.95693913 0.0014164821 0)
(0.95068274 0.0013234809 0)
(0.94467308 0.0012414169 0)
(0.93888591 0.0011697981 0)
(0.93328918 0.0011062294 0)
(0.92786281 0.0010481106 0)
(0.92259756 0.00099375658 0)
(0.9174877 0.00094232231 0)
(0.91252636 0.00089362709 0)
(0.90770469 0.00084783624 0)
(0.90301357 0.0008048132 0)
(0.89844552 0.00076433971 0)
(0.89399428 0.00072629141 0)
(0.88965397 0.00069043955 0)
(0.88541918 0.00065661891 0)
(0.88128482 0.0006247412 0)
(0.87724616 0.00059464104 0)
(0.87329903 0.00056619188 0)
(0.86943951 0.00053931502 0)
(0.86566387 0.00051389221 0)
(0.86196868 0.00048983714 0)
(0.85835072 0.0004670651 0)
(0.85480697 0.00044549501 0)
(0.85133455 0.0004250611 0)
(0.84793074 0.00040569035 0)
(0.84459298 0.00038732107 0)
(0.84131882 0.00036989524 0)
(0.83810594 0.00035335845 0)
(0.8349521 0.00033765977 0)
(0.83185518 0.00032275155 0)
(0.82881314 0.00030858941 0)
(0.82582404 0.00029513196 0)
(0.82288599 0.00028234063 0)
(0.81999719 0.00027017955 0)
(0.8171559 0.00025861534 0)
(0.81436044 0.00024761749 0)
(0.81160914 0.00023715756 0)
(0.80890044 0.00022721165 0)
(0.8062326 0.00021775521 0)
(0.80360428 0.00020877853 0)
(0.80101308 0.00020025425 0)
(0.79845876 0.00019222203 0)
(0.79593526 0.00018461233 0)
(0.79344897 0.0001776641 0)
(0.79097436 0.00017113313 0)
(0.78855482 0.00016642522 0)
(0.78604607 0.00015901581 0)
(0.78390399 0.00017303036 5.5677817e-20)
(0.78009895 0.00014723983 0)
(0.99805599 0.000566454 0)
(0.99800565 0.00072156908 0)
(0.99798236 0.00087141818 0)
(0.9979686 0.0010181259 0)
(0.99796215 0.0011699575 0)
(0.99796775 0.0013294222 0)
(0.99798876 0.0014949072 0)
(0.99802683 0.0016647492 0)
(0.9980841 0.0018367499 0)
(0.99816218 0.0020066965 0)
(0.99826102 0.0021703073 0)
(0.99837931 0.0023230968 0)
(0.99851458 0.0024610649 0)
(0.99866326 0.0025811871 0)
(0.99882166 0.0026818895 0)
(0.99898574 0.0027617991 0)
(0.99915174 0.0028219405 0)
(0.99931697 0.0028627223 0)
(0.9994785 0.0028850454 0)
(0.99963364 0.0028910769 0)
(0.99978122 0.0028833368 0)
(0.99992071 0.0028627711 0)
(1.0000507 0.002830314 0)
(1.0001694 0.0027877352 0)
(1.0002756 0.0027373137 0)
(1.0003688 0.0026813449 0)
(1.0004486 0.0026222405 0)
(1.0005151 0.002562547 0)
(1.0005686 0.0025049061 0)
(1.0006109 0.0024519809 0)
(1.0006442 0.0024053296 0)
(1.000671 0.002365605 0)
(1.0006935 0.0023330676 0)
(1.0007137 0.0023064976 0)
(1.000732 0.0022838838 0)
(1.0007481 0.0022638958 0)
(1.0007605 0.0022454672 0)
(1.0007674 0.00222773 0)
(1.0007659 0.00221059 0)
(1.0007525 0.0021939441 0)
(1.0007225 0.002177367 0)
(1.0006695 0.002160865 0)
(1.0005829 0.0021443657 0)
(1.0004399 0.0021276947 0)
(1.0002086 0.0021110338 0)
(0.99983981 0.0020934565 0)
(0.99926223 0.0020735541 0)
(0.99830484 0.0020489586 0)
(0.9967639 0.0020153717 0)
(0.9944469 0.0019707864 0)
(0.99119967 0.0019122142 0)
(0.98700046 0.0018358793 0)
(0.98199544 0.0017464517 0)
(0.97642141 0.0016501224 0)
(0.97055788 0.0015520891 0)
(0.9646439 0.0014580478 0)
(0.95882167 0.0013706507 0)
(0.9531447 0.0012914186 0)
(0.94761656 0.001220233 0)
(0.94222736 0.0011555638 0)
(0.93697132 0.001095736 0)
(0.9318474 0.0010395381 0)
(0.92685471 0.00098640117 0)
(0.92198955 0.00093630316 0)
(0.91724629 0.00088911348 0)
(0.91261959 0.0008446549 0)
(0.9081047 0.00080279967 0)
(0.90369712 0.00076332935 0)
(0.89939252 0.00072607816 0)
(0.89518672 0.00069093403 0)
(0.89107572 0.0006577369 0)
(0.8870558 0.00062636603 0)
(0.88312341 0.0005967051 0)
(0.87927521 0.00056864338 0)
(0.875508 0.00054208909 0)
(0.87181873 0.00051694387 0)
(0.86820452 0.00049312361 0)
(0.86466263 0.00047054975 0)
(0.86119042 0.00044914892 0)
(0.85778538 0.00042885258 0)
(0.85444508 0.00040959675 0)
(0.85116723 0.00039132188 0)
(0.84794959 0.00037397249 0)
(0.84479005 0.00035749694 0)
(0.84168654 0.00034184721 0)
(0.83863708 0.00032697865 0)
(0.83563976 0.00031285045 0)
(0.8326927 0.0002994244 0)
(0.82979409 0.0002866685 0)
(0.82694202 0.00027454927 0)
(0.8241349 0.00026305358 0)
(0.8213702 0.00025214168 0)
(0.81864742 0.00024186791 0)
(0.81596043 0.00023212389 0)
(0.81331526 0.00022324846 0)
(0.81068663 0.00021481189 0)
(0.8081174 0.00020887772 0)
(0.80546202 0.00019853685 0)
(0.80319047 0.00021939229 5.2228123e-20)
(0.7991751 0.00018007039 0)
(0.99810062 0.00058799743 0)
(0.99804814 0.00073372457 0)
(0.99801931 0.00087822227 0)
(0.99800145 0.0010217481 0)
(0.99799264 0.0011703559 0)
(0.99799647 0.0013259918 0)
(0.99801579 0.0014873236 0)
(0.99805214 0.001652758 0)
(0.99810737 0.0018201656 0)
(0.99818287 0.0019856879 0)
(0.99827861 0.0021452503 0)
(0.99839335 0.0022946795 0)
(0.99852479 0.0024301873 0)
(0.99866959 0.0025488196 0)
(0.99882422 0.0026489098 0)
(0.99898482 0.0027291376 0)
(0.99914778 0.0027901569 0)
(0.99931037 0.0028323859 0)
(0.99946975 0.0028566412 0)
(0.99962334 0.0028648084 0)
(0.99976985 0.0028591886 0)
(0.9999086 0.0028407588 0)
(1.0000382 0.0028105328 0)
(1.0001571 0.0027702405 0)
(1.0002641 0.0027220938 0)
(1.0003586 0.0026683408 0)
(1.0004404 0.0026113215 0)
(1.0005097 0.0025534922 0)
(1.0005668 0.0024974475 0)
(1.0006135 0.0024458222 0)
(1.0006521 0.0024002097 0)
(1.0006849 0.0023613645 0)
(1.0007144 0.002329431 0)
(1.0007427 0.0023032634 0)
(1.0007709 0.0022811215 0)
(1.000799 0.0022615468 0)
(1.0008265 0.0022433308 0)
(1.0008524 0.00222572 0)
(1.0008758 0.0022087249 0)
(1.0008959 0.0021923306 0)
(1.0009117 0.0021764443 0)
(1.0009222 0.0021610314 0)
(1.0009256 0.0021456039 0)
(1.0009187 0.0021299375 0)
(1.0008967 0.0021141192 0)
(1.000853 0.0020982584 0)
(1.0007797 0.0020823609 0)
(1.0006597 0.0020660382 0)
(1.0004632 0.0020490959 0)
(1.0001476 0.0020311822 0)
(0.99965003 0.0020114898 0)
(0.99883898 0.0019885009 0)
(0.99752882 0.0019587728 0)
(0.99553812 0.001919858 0)
(0.99270811 0.0018671872 0)
(0.98901086 0.0017981209 0)
(0.98455163 0.0017178301 0)
(0.97953168 0.0016309134 0)
(0.97419774 0.0015426503 0)
(0.96875501 0.0014571311 0)
(0.96333117 0.001376428 0)
(0.95798213 0.0013019627 0)
(0.95272445 0.001233591 0)
(0.94756333 0.0011703424 0)
(0.94250417 0.0011110997 0)
(0.93755208 0.0010551465 0)
(0.93270894 0.0010022943 0)
(0.92797357 0.00095238283 0)
(0.92334375 0.00090526334 0)
(0.91881706 0.00086080934 0)
(0.91439078 0.00081882908 0)
(0.91006204 0.00077917725 0)
(0.90582777 0.00074171084 0)
(0.90168498 0.0007062898 0)
(0.89763066 0.00067279546 0)
(0.89366189 0.00064110268 0)
(0.88977578 0.00061110298 0)
(0.88596956 0.00058269485 0)
(0.88224051 0.00055578366 0)
(0.87858599 0.00053028104 0)
(0.87500346 0.00050610455 0)
(0.87149045 0.00048317743 0)
(0.86804457 0.0004614282 0)
(0.86466353 0.0004407903 0)
(0.86134508 0.00042120185 0)
(0.85808707 0.00040260527 0)
(0.85488739 0.0003849479 0)
(0.85174397 0.00036818032 0)
(0.84865485 0.00035226105 0)
(0.8456179 0.00033714638 0)
(0.84263138 0.00032281861 0)
(0.83969257 0.00030922445 0)
(0.83680079 0.00029643213 0)
(0.83394985 0.00028429279 0)
(0.83114539 0.00027324734 0)
(0.82836239 0.00026266888 0)
(0.82564333 0.00025532826 0)
(0.822841 0.0002416889 -1.6162805e-20)
(0.82044033 0.00027015621 0)
(0.81621482 0.00021556973 -7.8909812e-21)
(0.99814478 0.00060967665 0)
(0.99809212 0.00074714551 0)
(0.99805997 0.00088636911 0)
(0.99803919 0.0010263452 0)
(0.99802831 0.0011713909 0)
(0.99803018 0.0013229988 0)
(0.99804734 0.0014800392 0)
(0.99808136 0.0016409697 0)
(0.99813388 0.0018037159 0)
(0.99820617 0.0019647542 0)
(0.99829821 0.0021202496 0)
(0.99840888 0.0022662851 0)
(0.99853603 0.0023992527 0)
(0.99867655 0.0025162703 0)
(0.99882705 0.0026156049 0)
(0.99898388 0.0026959626 0)
(0.99914353 0.0027577005 0)
(0.99930324 0.0028011964 0)
(0.99946024 0.0028271845 0)
(0.99961202 0.0028373473 0)
(0.99975718 0.0028337672 0)
(0.9998949 0.0028174954 0)
(1.0000238 0.0027895814 0)
(1.0001424 0.0027516963 0)
(1.0002496 0.0027059645 0)
(1.0003448 0.0026545732 0)
(1.0004277 0.002599804 0)
(1.0004984 0.0025440565 0)
(1.0005577 0.0024898506 0)
(1.0006069 0.0024397077 0)
(1.0006484 0.0023952105 0)
(1.0006844 0.0023570996 0)
(1.0007173 0.0023255517 0)
(1.0007494 0.0022995782 0)
(1.0007817 0.002277528 0)
(1.0008145 0.0022579922 0)
(1.0008474 0.0022398715 0)
(1.0008799 0.0022224741 0)
(1.0009113 0.0022057732 0)
(1.0009414 0.0021897752 0)
(1.0009699 0.0021743653 0)
(1.0009965 0.0021593767 0)
(1.0010208 0.0021443544 0)
(1.0010416 0.0021291375 0)
(1.0010578 0.0021138404 0)
(1.0010679 0.0020985836 0)
(1.0010704 0.0020833034 0)
(1.0010625 0.0020678361 0)
(1.0010395 0.0020523149 0)
(1.0009945 0.0020368769 0)
(1.0009189 0.0020214944 0)
(1.0007966 0.0020057234 0)
(1.0005977 0.0019890485 0)
(1.0002789 0.001970982 0)
(0.99977752 0.0019512095 0)
(0.99896037 0.0019283721 0)
(0.99766107 0.0018992235 0)
(0.99571105 0.0018609679 0)
(0.99297524 0.0018086376 0)
(0.98945479 0.0017424463 0)
(0.98525078 0.0016673838 0)
(0.98055476 0.0015876995 0)
(0.97557884 0.0015075201 0)
(0.97048993 0.0014291546 0)
(0.96538737 0.0013548222 0)
(0.96031794 0.0012854402 0)
(0.95530319 0.0012208039 0)
(0.95035752 0.001160109 0)
(0.94549249 0.0011027171 0)
(0.94071537 0.0010483844 0)
(0.93602942 0.00099694918 0)
(0.93143576 0.00094829296 0)
(0.92693448 0.0009022725 0)
(0.92252489 0.00085873836 0)
(0.91820569 0.00081756045 0)
(0.91397513 0.00077859637 0)
(0.90983125 0.00074171886 0)
(0.90577191 0.00070680673 0)
(0.90179486 0.00067374563 0)
(0.89789779 0.00064242769 0)
(0.89407837 0.00061275166 0)
(0.89033426 0.00058462292 0)
(0.88666316 0.00055795314 0)
(0.88306278 0.00053265984 0)
(0.87953086 0.00050866622 0)
(0.87606519 0.00048590065 0)
(0.8726636 0.00046429745 0)
(0.86932392 0.00044379487 0)
(0.86604407 0.00042434083 0)
(0.86282183 0.00040588031 0)
(0.85965531 0.00038838995 0)
(0.8565417 0.00037180198 0)
(0.85348013 0.00035619759 0)
(0.85046436 0.00034138632 0)
(0.84749976 0.00032791247 0)
(0.84456149 0.00031494203 0)
(0.84169179 0.00030600072 1.9634169e-21)
(0.83874152 0.00028868051 0)
(0.83621125 0.00032551472 4.9495625e-20)
(0.83177449 0.00025393332 0)
(0.99818806 0.00063119949 0)
(0.99813636 0.00076131877 0)
(0.99810254 0.0008954147 0)
(0.9980801 0.0010316739 0)
(0.99806792 0.0011730118 0)
(0.99806825 0.0013205114 0)
(0.9980834 0.0014731791 0)
(0.99811496 0.0016295321 0)
(0.99816453 0.0017875714 0)
(0.99823326 0.0019440772 0)
(0.99832122 0.0020954506 0)
(0.99842742 0.0022380084 0)
(0.99854987 0.0023683225 0)
(0.99868573 0.0024835957 0)
(0.99883176 0.0025820507 0)
(0.99898448 0.0026624037 0)
(0.99914051 0.0027247681 0)
(0.99929708 0.0027694548 0)
(0.99945147 0.0027971197 0)
(0.99960122 0.0028092531 0)
(0.99974482 0.0028077389 0)
(0.99988132 0.0027936702 0)
(1.0000094 0.002768109 0)
(1.0001275 0.0027326677 0)
(1.0002346 0.0026893841 0)
(1.0003302 0.0026403846 0)
(1.0004138 0.0025878922 0)
(1.0004857 0.0025342463 0)
(1.0005465 0.0024818807 0)
(1.0005975 0.0024332032 0)
(1.000641 0.002389786 0)
(1.0006791 0.0023523901 0)
(1.0007143 0.0023212176 0)
(1.0007485 0.0022954002 0)
(1.0007831 0.0022734152 0)
(1.0008182 0.0022539379 0)
(1.0008538 0.0022359303 0)
(1.0008892 0.0022187191 0)
(1.0009242 0.0022022294 0)
(1.0009585 0.0021864443 0)
(1.000992 0.0021712338 0)
(1.0010248 0.0021564294 0)
(1.0010565 0.002141642 0)
(1.0010867 0.0021267253 0)
(1.0011148 0.0021117889 0)
(1.0011403 0.0020969702 0)
(1.0011628 0.0020822002 0)
(1.0011815 0.0020673322 0)
(1.0011951 0.0020524749 0)
(1.0012021 0.0020377249 0)
(1.0012005 0.0020229975 0)
(1.0011873 0.0020080574 0)
(1.0011573 0.0019929583 0)
(1.0011026 0.001977969 0)
(1.0010136 0.0019629759 0)
(1.0008701 0.0019474195 0)
(1.0006395 0.0019307483 0)
(1.0002735 0.0019124554 0)
(0.99969386 0.0018922566 0)
(0.99875827 0.0018682708 0)
(0.99731358 0.0018378248 0)
(0.9952019 0.0017958778 0)
(0.99235626 0.0017405435 0)
(0.98880314 0.0016755799 0)
(0.98467153 0.001604313 0)
(0.98014781 0.0015302398 0)
(0.97540702 0.0014558708 0)
(0.97057265 0.0013837006 0)
(0.96571436 0.0013152269 0)
(0.96086931 0.0012507726 0)
(0.95606155 0.0011899159 0)
(0.95130885 0.001132214 0)
(0.94662327 0.0010774189 0)
(0.94201212 0.0010254107 0)
(0.93747972 0.00097609706 0)
(0.93302855 0.00092934952 0)
(0.92865985 0.00088504724 0)
(0.92437381 0.0008430692 0)
(0.92016995 0.00080329459 0)
(0.91604732 0.00076560482 0)
(0.91200459 0.00072988574 0)
(0.90804022 0.00069602864 0)
(0.90415246 0.00066393055 0)
(0.90033945 0.0006334944 0)
(0.89659926 0.00060462911 0)
(0.89292989 0.00057724925 0)
(0.88932931 0.00055127607 0)
(0.88579546 0.00052663516 0)
(0.8823263 0.00050326337 0)
(0.87891962 0.00048109382 0)
(0.87557351 0.0004600968 0)
(0.87228512 0.00044018954 0)
(0.8690535 0.00042146533 0)
(0.86587242 0.00040369155 0)
(0.86274702 0.0003875166 0)
(0.85965264 0.00037189094 0)
(0.85663145 0.00036114105 0)
(0.85353212 0.00033974305 0)
(0.85087152 0.00038570749 0)
(0.84622185 0.00029536889 0)
(0.99823043 0.00065240468 0)
(0.99818032 0.00077591478 0)
(0.99814593 0.00090502823 0)
(0.99812277 0.0010374715 0)
(0.99811003 0.0011750341 0)
(0.99810943 0.0013184156 0)
(0.99812304 0.0014667017 0)
(0.99815244 0.0016184688 0)
(0.99819915 0.0017718019 0)
(0.9982643 0.0019237539 0)
(0.99834805 0.0020709614 0)
(0.99844957 0.0022099684 0)
(0.99856707 0.0023375276 0)
(0.99869795 0.0024509354 0)
(0.99883918 0.0025483886 0)
(0.99898746 0.0026286044 0)
(0.99913955 0.002691494 0)
(0.99929267 0.0027372856 0)
(0.99944417 0.0027665538 0)
(0.99959163 0.0027806087 0)
(0.99973344 0.0027811505 0)
(0.99986854 0.0027692832 0)
(0.99999557 0.0027460748 0)
(1.0001131 0.0027130808 0)
(1.00022 0.0026722553 0)
(1.0003157 0.0026256609 0)
(1.0003999 0.0025754598 0)
(1.0004727 0.0025239266 0)
(1.0005347 0.0024734108 0)
(1.0005873 0.0024262165 0)
(1.0006324 0.0023839022 0)
(1.0006722 0.0023472509 0)