/*--------------------------------*- C++ -*----------------------------------*\
  =========                 |
  \\      /  F ield         | OpenFOAM: The Open Source CFD Toolbox
   \\    /   O peration     | Website:  https://openfoam.org
    \\  /    A nd           | Version:  12
     \\/     M anipulation  |
\*---------------------------------------------------------------------------*/
FoamFile
{
    format      ascii;
    class       volVectorField;
    location    "1400";
    object      wallShearStress;
}
// * * * * * * * * * * * * * * * * * * * * * * * * * * * * * * * * * * * * * //

dimensions      [0 2 -2 0 0 0 0];

internalField   uniform (0 0 0);

boundaryField
{
    inlet
    {
        type            calculated;
        value           uniform (0 0 0);
    }
    top
    {
        type            calculated;
        value           uniform (0 0 0);
    }
    outlet
    {
        type            calculated;
        value           uniform (0 0 0);
    }
    slipsurface
    {
        type            calculated;
        value           uniform (0 0 0);
    }
    bottom
    {
        type            calculated;
        value           nonuniform List<vector> 
100
(
(-0.00062469823 -3.5977386e-07 1.7886661e-21)
(-0.00072362961 -4.9336938e-07 2.4110238e-23)
(-0.00084315618 -8.0885733e-07 0)
(-0.0009778446 -1.2188012e-06 9.4267191e-21)
(-0.0011257808 -1.748587e-06 4.814715e-20)
(-0.0012845727 -2.3019984e-06 -5.0000469e-20)
(-0.001450493 -2.8597685e-06 4.5566517e-22)
(-0.0016185229 -3.8216719e-06 1.4187417e-19)
(-0.0017825695 -4.9496795e-06 0)
(-0.001936024 -6.1688355e-06 3.9485609e-19)
(-0.0020725007 -7.4164679e-06 0)
(-0.0021869489 -8.6137319e-06 -6.1833592e-19)
(-0.0022761477 -9.6785251e-06 0)
(-0.0023389488 -1.0520415e-05 1.1938819e-18)
(-0.0023760558 -1.1169971e-05 -2.3184857e-22)
(-0.0023900073 -1.139289e-05 1.3786544e-18)
(-0.0023829743 -1.1411488e-05 0)
(-0.0023649155 -1.1180375e-05 0)
(-0.0023254811 -1.066173e-05 3.9261932e-19)
(-0.0022816777 -9.9883641e-06 3.5992092e-19)
(-0.0022323375 -9.1654954e-06 6.4806749e-19)
(-0.0021799346 -8.222864e-06 0)
(-0.002126756 -7.2172584e-06 -4.0952422e-19)
(-0.0020746715 -6.2017766e-06 0)
(-0.0020251864 -5.2065033e-06 1.0086565e-19)
(-0.0019795139 -4.2585522e-06 0)
(-0.0019385908 -3.3775007e-06 -0)
(-0.0019030843 -2.5873616e-06 0)
(-0.0018733666 -1.9131242e-06 -5.8440131e-21)
(-0.0018493996 -1.3759637e-06 -4.652275e-20)
(-0.0018306392 -9.9259984e-07 0)
(-0.0018160569 -7.5893789e-07 7.0501433e-20)
(-0.0018042743 -6.5023253e-07 -6.0458303e-20)
(-0.0017938642 -6.2884989e-07 0)
(-0.0017837036 -6.5192977e-07 0)
(-0.0017731643 -6.8338803e-07 9.8473183e-21)
(-0.001762087 -7.0111554e-07 0)
(-0.0017506119 -6.973611e-07 0)
(-0.0017389615 -6.7785926e-07 0)
(-0.0017272846 -6.5338051e-07 -0)
(-0.001715617 -6.3209177e-07 -0)
(-0.0017039286 -6.1643062e-07 -0)
(-0.0016921984 -6.0396002e-07 -0)
(-0.0016804576 -5.9120474e-07 0)
(-0.0016687765 -5.7624349e-07 -0)
(-0.0016572249 -5.5890603e-07 -0)
(-0.0016458436 -5.4005731e-07 0)
(-0.0016346446 -5.2063756e-07 0)
(-0.001623627 -5.0124541e-07 0)
(-0.0016127897 -4.8202206e-07 -0)
(-0.0016021341 -4.6297815e-07 0)
(-0.0015916611 -4.4416144e-07 0)
(-0.0015813706 -4.2576895e-07 0)
(-0.001571259 -4.0802491e-07 -0)
(-0.0015613214 -3.9093692e-07 0)
(-0.0015515541 -3.7443694e-07 0)
(-0.0015419547 -3.5856195e-07 0)
(-0.0015325184 -3.4336906e-07 0)
(-0.0015232404 -3.287924e-07 0)
(-0.0015141182 -3.1479305e-07 -0)
(-0.0015051476 -3.0145263e-07 0)
(-0.0014963225 -2.8872984e-07 0)
(-0.0014876384 -2.7656995e-07 0)
(-0.0014790911 -2.6498375e-07 0)
(-0.0014706766 -2.5391391e-07 0)
(-0.0014623914 -2.4332011e-07 0)
(-0.0014542323 -2.332155e-07 0)
(-0.0014461953 -2.2356211e-07 0)
(-0.0014382772 -2.1433293e-07 -0)
(-0.0014304746 -2.0552979e-07 -0)
(-0.0014227839 -1.9712192e-07 -0)
(-0.0014152019 -1.8909342e-07 0)
(-0.0014077256 -1.8142735e-07 0)
(-0.0014003517 -1.7410179e-07 0)
(-0.0013930775 -1.6710325e-07 0)
(-0.0013858999 -1.6041193e-07 0)
(-0.0013788165 -1.5401375e-07 0)
(-0.0013718246 -1.478955e-07 0)
(-0.0013649216 -1.4204369e-07 0)
(-0.0013581052 -1.3644559e-07 0)
(-0.001351373 -1.3108883e-07 0)
(-0.0013447227 -1.2596217e-07 0)
(-0.0013381521 -1.2105506e-07 0)
(-0.0013316591 -1.1635729e-07 0)
(-0.0013252416 -1.118598e-07 -0)
(-0.0013188973 -1.0755397e-07 0)
(-0.0013126244 -1.0343152e-07 -0)
(-0.0013064207 -9.9485819e-08 -0)
(-0.0013002842 -9.5710335e-08 0)
(-0.0012942124 -9.2101358e-08 0)
(-0.0012882038 -8.8652557e-08 0)
(-0.0012822534 -8.537135e-08 0)
(-0.0012763636 -8.2246138e-08 0)
(-0.0012705168 -7.9335812e-08 0)
(-0.0012647377 -7.6555291e-08 0)
(-0.0012589447 -7.4366374e-08 0)
(-0.0012532807 -7.0383865e-08 2.1806565e-23)
(-0.0012473038 -1.0921866e-07 -1.8050568e-22)
(-0.0012423366 -7.2700544e-08 5.5993013e-22)
(-0.0012330694 -1.1089706e-07 2.1382038e-20)
)
;
    }
    frontandback
    {
        type            empty;
    }
}


// ************************************************************************* //
