# Selection     : all 
# Volume        : 2.33333000e+00
# Time          	min(p)	location	cell	min(k)	location	cell	min(epsilon)	location	cell	min(nut)	location	cell
0               	0.00000000e+00	(1.56631511e-03 4.00664797e-04 5.00000000e-01)	0	1.50000000e-04	(1.56631511e-03 4.00664797e-04 5.00000000e-01)	0	1.00000000e-02	(1.56631511e-03 4.00664797e-04 5.00000000e-01)	0	2.02500000e-07	(1.56631511e-03 4.00664797e-04 5.00000000e-01)	0
1               	2.32320831e-05	(1.96867370e+00 9.10418368e-01 5.00000000e-01)	7479	8.80920789e-05	(-2.00361109e-01 9.10418368e-01 5.00000000e-01)	5671	1.83761161e-03	(4.24563479e-02 4.00664797e-04 5.00000000e-01)	11	1.30783885e-07	(-2.84388080e-01 9.10418368e-01 5.00000000e-01)	5670
2               	2.15813214e-05	(1.96867370e+00 9.10418368e-01 5.00000000e-01)	7479	5.32199992e-05	(-2.00361109e-01 9.10418368e-01 5.00000000e-01)	5671	2.82009856e-03	(1.96867370e+00 9.10418368e-01 5.00000000e-01)	7479	9.03368921e-08	(-2.00361109e-01 9.10418368e-01 5.00000000e-01)	5671
3               	3.12668210e-05	(1.96867370e+00 9.10418368e-01 5.00000000e-01)	7479	3.26497877e-05	(1.96867370e+00 9.10418368e-01 5.00000000e-01)	7479	1.51333799e-03	(1.96867370e+00 9.10418368e-01 5.00000000e-01)	7479	6.33967943e-08	(1.96867370e+00 9.10418368e-01 5.00000000e-01)	7479
4               	3.01605020e-05	(1.96867370e+00 9.10418368e-01 5.00000000e-01)	7479	2.03182426e-05	(1.96867370e+00 9.10418368e-01 5.00000000e-01)	7479	8.19217216e-04	(1.96867370e+00 9.10418368e-01 5.00000000e-01)	7479	4.53540134e-08	(1.96867370e+00 9.10418368e-01 5.00000000e-01)	7479
5               	2.43080232e-05	(1.96867370e+00 2.05728518e-03 5.00000000e-01)	299	1.29107263e-05	(1.96867370e+00 9.10418368e-01 5.00000000e-01)	7479	4.48123856e-04	(1.96867370e+00 9.10418368e-01 5.00000000e-01)	7479	3.34769432e-08	(1.96867370e+00 9.10418368e-01 5.00000000e-01)	7479
6               	1.08351829e-05	(1.96867370e+00 2.05728518e-03 5.00000000e-01)	299	8.39982708e-06	(1.96867370e+00 9.10418368e-01 5.00000000e-01)	7479	2.48228363e-04	(1.96867370e+00 9.10418368e-01 5.00000000e-01)	7479	2.55818411e-08	(1.96867370e+00 9.10418368e-01 5.00000000e-01)	7479
7               	-3.93600018e-08	(1.96867370e+00 2.05728518e-03 5.00000000e-01)	299	5.61222846e-06	(1.96867370e+00 9.10418368e-01 5.00000000e-01)	7479	1.39600541e-04	(1.96867370e+00 9.10418368e-01 5.00000000e-01)	7479	2.03060800e-08	(1.96867370e+00 9.10418368e-01 5.00000000e-01)	7479
8               	-7.90229918e-06	(1.96867370e+00 4.00664797e-04 5.00000000e-01)	99	3.86249048e-06	(1.96867370e+00 9.10418368e-01 5.00000000e-01)	7479	7.99599423e-05	(1.96867370e+00 9.10418368e-01 5.00000000e-01)	7479	1.67920949e-08	(1.96867370e+00 9.10418368e-01 5.00000000e-01)	7479
9               	-1.42876311e-05	(1.96867370e+00 4.00664797e-04 5.00000000e-01)	99	2.74607895e-06	(1.96867370e+00 9.10418368e-01 5.00000000e-01)	7479	4.68192761e-05	(1.96867370e+00 9.10418368e-01 5.00000000e-01)	7479	1.44958556e-08	(1.96867370e+00 9.10418368e-01 5.00000000e-01)	7479
10              	-1.98123252e-05	(1.96867370e+00 4.00664797e-04 5.00000000e-01)	99	2.02158652e-06	(1.96867370e+00 9.10418368e-01 5.00000000e-01)	7479	2.81435368e-05	(1.96867370e+00 9.10418368e-01 5.00000000e-01)	7479	1.30691849e-08	(1.96867370e+00 9.10418368e-01 5.00000000e-01)	7479
11              	-2.52025596e-05	(1.96867370e+00 4.00664797e-04 5.00000000e-01)	99	1.54322219e-06	(1.96867370e+00 9.10418368e-01 5.00000000e-01)	7479	1.74455099e-05	(1.96867370e+00 9.10418368e-01 5.00000000e-01)	7479	1.22861485e-08	(1.96867370e+00 9.10418368e-01 5.00000000e-01)	7479
12              	-3.03077692e-05	(1.96867370e+00 4.00664797e-04 5.00000000e-01)	99	1.22181882e-06	(1.96867370e+00 9.10418368e-01 5.00000000e-01)	7479	1.11998129e-05	(1.96867370e+00 9.10418368e-01 5.00000000e-01)	7479	1.19962459e-08	(1.96867370e+00 9.10418368e-01 5.00000000e-01)	7479
13              	-3.51158569e-05	(1.96867370e+00 4.00664797e-04 5.00000000e-01)	99	1.00212654e-06	(1.96867370e+00 9.10418368e-01 5.00000000e-01)	7479	7.47292988e-06	(1.96867370e+00 9.10418368e-01 5.00000000e-01)	7479	1.20947453e-08	(1.96867370e+00 9.10418368e-01 5.00000000e-01)	7479
14              	-4.00600751e-05	(1.96867370e+00 4.00664797e-04 5.00000000e-01)	99	8.49463927e-07	(1.96867370e+00 9.10418368e-01 5.00000000e-01)	7479	5.19345587e-06	(1.96867370e+00 9.10418368e-01 5.00000000e-01)	7479	1.25047769e-08	(1.96867370e+00 9.10418368e-01 5.00000000e-01)	7479
15              	-4.56061223e-05	(1.96867370e+00 4.00664797e-04 5.00000000e-01)	99	7.41779336e-07	(1.96867370e+00 9.10418368e-01 5.00000000e-01)	7479	3.76085136e-06	(1.96867370e+00 9.10418368e-01 5.00000000e-01)	7479	1.01642805e-08	(1.96867370e+00 4.75548180e-03 5.00000000e-01)	599
16              	-5.15925158e-05	(1.96867370e+00 4.00664797e-04 5.00000000e-01)	99	6.64866388e-07	(1.96867370e+00 9.10418368e-01 5.00000000e-01)	7479	2.83410242e-06	(1.96867370e+00 9.10418368e-01 5.00000000e-01)	7479	7.16271126e-09	(1.96867370e+00 4.75548180e-03 5.00000000e-01)	599
17              	-5.73209721e-05	(1.96867370e+00 4.00664797e-04 5.00000000e-01)	99	6.09442472e-07	(1.96867370e+00 9.10418368e-01 5.00000000e-01)	7479	2.21662904e-06	(1.96867370e+00 9.10418368e-01 5.00000000e-01)	7479	5.97709258e-09	(1.96867370e+00 4.75548180e-03 5.00000000e-01)	599
18              	-6.21797576e-05	(1.96867370e+00 4.00664797e-04 5.00000000e-01)	99	5.69345768e-07	(1.96867370e+00 9.10418368e-01 5.00000000e-01)	7479	1.79309992e-06	(1.96867370e+00 9.10418368e-01 5.00000000e-01)	7479	5.53800658e-09	(1.96867370e+00 4.75548180e-03 5.00000000e-01)	599
19              	-6.64345738e-05	(1.96867370e+00 4.00664797e-04 5.00000000e-01)	99	5.40413985e-07	(1.96867370e+00 9.10418368e-01 5.00000000e-01)	7479	1.49446861e-06	(1.96867370e+00 9.10418368e-01 5.00000000e-01)	7479	5.86302913e-09	(1.96867370e+00 4.75548180e-03 5.00000000e-01)	599
20              	-7.09715801e-05	(1.96867370e+00 4.00664797e-04 5.00000000e-01)	99	5.19782530e-07	(1.96867370e+00 9.10418368e-01 5.00000000e-01)	7479	1.27846000e-06	(1.96867370e+00 9.10418368e-01 5.00000000e-01)	7479	7.09617528e-09	(1.96867370e+00 4.75548180e-03 5.00000000e-01)	599
21              	-7.64605293e-05	(1.96867370e+00 4.00664797e-04 5.00000000e-01)	99	5.05441839e-07	(1.96867370e+00 9.10418368e-01 5.00000000e-01)	7479	1.11856479e-06	(1.96867370e+00 9.10418368e-01 5.00000000e-01)	7479	8.48552895e-09	(1.96867370e+00 5.71560190e-03 5.00000000e-01)	699
22              	-8.27725040e-05	(1.96867370e+00 4.00664797e-04 5.00000000e-01)	99	4.95955185e-07	(1.96867370e+00 9.10418368e-01 5.00000000e-01)	7479	9.97748982e-07	(1.96867370e+00 9.10418368e-01 5.00000000e-01)	7479	5.83541875e-09	(1.96867370e+00 5.71560190e-03 5.00000000e-01)	699
23              	-8.92458910e-05	(1.96867370e+00 4.00664797e-04 5.00000000e-01)	99	4.90276288e-07	(1.96867370e+00 9.10418368e-01 5.00000000e-01)	7479	9.04799166e-07	(1.96867370e+00 9.10418368e-01 5.00000000e-01)	7479	4.81307442e-09	(1.96867370e+00 5.71560190e-03 5.00000000e-01)	699
24              	-9.46934094e-05	(1.96867370e+00 4.00664797e-04 5.00000000e-01)	99	4.87629474e-07	(1.96867370e+00 9.10418368e-01 5.00000000e-01)	7479	8.32158699e-07	(1.96867370e+00 9.10418368e-01 5.00000000e-01)	7479	4.27356870e-09	(1.96867370e+00 5.71560190e-03 5.00000000e-01)	699
25              	-9.91195835e-05	(1.96867370e+00 4.00664797e-04 5.00000000e-01)	99	4.87429580e-07	(1.96867370e+00 9.10418368e-01 5.00000000e-01)	7479	7.74620167e-07	(1.96867370e+00 9.10418368e-01 5.00000000e-01)	7479	4.40485938e-09	(1.96867370e+00 5.71560190e-03 5.00000000e-01)	699
26              	-1.03460262e-04	(1.96867370e+00 4.00664797e-04 5.00000000e-01)	99	4.89227551e-07	(1.96867370e+00 9.10418368e-01 5.00000000e-01)	7479	7.28518502e-07	(1.96867370e+00 9.10418368e-01 5.00000000e-01)	7479	5.12355433e-09	(1.96867370e+00 5.71560190e-03 5.00000000e-01)	699
27              	-1.08800698e-04	(1.96867370e+00 4.00664797e-04 5.00000000e-01)	99	4.92672961e-07	(1.96867370e+00 9.10418368e-01 5.00000000e-01)	7479	6.91222590e-07	(1.96867370e+00 9.10418368e-01 5.00000000e-01)	7479	6.75488847e-09	(1.96867370e+00 5.71560190e-03 5.00000000e-01)	699
28              	-1.15337449e-04	(1.96867370e+00 4.00664797e-04 5.00000000e-01)	99	4.97487870e-07	(1.96867370e+00 9.10418368e-01 5.00000000e-01)	7479	6.60808397e-07	(1.96867370e+00 9.10418368e-01 5.00000000e-01)	7479	7.02809904e-09	(1.96867370e+00 6.70778142e-03 5.00000000e-01)	799
29              	-1.22574372e-04	(1.96867370e+00 4.00664797e-04 5.00000000e-01)	99	5.03448379e-07	(1.96867370e+00 9.10418368e-01 5.00000000e-01)	7479	6.35844684e-07	(1.96867370e+00 9.10418368e-01 5.00000000e-01)	7479	6.09720225e-09	(1.96867370e+00 6.70778142e-03 5.00000000e-01)	799
30              	-1.29299720e-04	(1.96867370e+00 4.00664797e-04 5.00000000e-01)	99	5.10371454e-07	(1.96867370e+00 9.10418368e-01 5.00000000e-01)	7479	6.15249829e-07	(1.96867370e+00 9.10418368e-01 5.00000000e-01)	7479	5.34109268e-09	(1.96867370e+00 6.70778142e-03 5.00000000e-01)	799
31              	-1.34994249e-04	(1.96867370e+00 4.00664797e-04 5.00000000e-01)	99	5.18105355e-07	(1.96867370e+00 9.10418368e-01 5.00000000e-01)	7479	5.98194367e-07	(1.96867370e+00 9.10418368e-01 5.00000000e-01)	7479	5.51285872e-09	(1.96867370e+00 6.70778142e-03 5.00000000e-01)	799
32              	-1.39931398e-04	(1.96867370e+00 4.00664797e-04 5.00000000e-01)	99	5.26522605e-07	(1.96867370e+00 9.10418368e-01 5.00000000e-01)	7479	5.84033497e-07	(1.96867370e+00 9.10418368e-01 5.00000000e-01)	7479	6.28105523e-09	(1.96867370e+00 6.70778142e-03 5.00000000e-01)	799
33              	-1.45233054e-04	(1.96867370e+00 4.00664797e-04 5.00000000e-01)	99	5.35514762e-07	(1.96867370e+00 9.10418368e-01 5.00000000e-01)	7479	5.72259603e-07	(1.96867370e+00 9.10418368e-01 5.00000000e-01)	7479	7.90036852e-09	(1.96867370e+00 6.70778142e-03 5.00000000e-01)	799
34              	-1.51641486e-04	(1.96867370e+00 4.00664797e-04 5.00000000e-01)	99	5.44988519e-07	(1.96867370e+00 9.10418368e-01 5.00000000e-01)	7479	5.62468400e-07	(1.96867370e+00 9.10418368e-01 5.00000000e-01)	7479	8.60589303e-09	(1.96867370e+00 7.73309085e-03 5.00000000e-01)	899
35              	-1.59064210e-04	(1.96867370e+00 4.00664797e-04 5.00000000e-01)	99	5.54862758e-07	(1.96867370e+00 9.10418368e-01 5.00000000e-01)	7479	5.54334447e-07	(1.96867370e+00 9.10418368e-01 5.00000000e-01)	7479	7.80468352e-09	(1.96867370e+00 7.73309085e-03 5.00000000e-01)	899
36              	-1.66680482e-04	(1.96867370e+00 4.00664797e-04 5.00000000e-01)	99	5.65066313e-07	(1.96867370e+00 9.10418368e-01 5.00000000e-01)	7479	5.47593194e-07	(1.96867370e+00 9.10418368e-01 5.00000000e-01)	7479	7.32812536e-09	(1.96867370e+00 7.73309085e-03 5.00000000e-01)	899
37              	-1.73573620e-04	(1.96867370e+00 4.00664797e-04 5.00000000e-01)	99	5.75536231e-07	(1.96867370e+00 9.10418368e-01 5.00000000e-01)	7479	5.42027613e-07	(1.96867370e+00 9.10418368e-01 5.00000000e-01)	7479	7.84356572e-09	(1.96867370e+00 7.73309085e-03 5.00000000e-01)	899
38              	-1.79787114e-04	(1.96867370e+00 4.00664797e-04 5.00000000e-01)	99	5.86216395e-07	(1.96867370e+00 9.10418368e-01 5.00000000e-01)	7479	5.37458116e-07	(1.96867370e+00 9.10418368e-01 5.00000000e-01)	7479	9.16777436e-09	(1.96867370e+00 7.73309085e-03 5.00000000e-01)	899
39              	-1.86050990e-04	(1.96867370e+00 4.00664797e-04 5.00000000e-01)	99	5.97056443e-07	(1.96867370e+00 9.10418368e-01 5.00000000e-01)	7479	5.33734877e-07	(1.96867370e+00 9.10418368e-01 5.00000000e-01)	7479	1.13760372e-08	(1.96867370e+00 7.73309085e-03 5.00000000e-01)	899
40              	-1.93224716e-04	(1.96867370e+00 4.00664797e-04 5.00000000e-01)	99	6.07777897e-07	(1.96867370e+00 7.61754087e-02 5.00000000e-01)	4399	5.30731987e-07	(1.96867370e+00 9.10418368e-01 5.00000000e-01)	7479	1.00785963e-08	(1.96867370e+00 8.79263643e-03 5.00000000e-01)	999
41              	-2.01605703e-04	(1.96867370e+00 4.00664797e-04 5.00000000e-01)	99	6.16086823e-07	(1.96867370e+00 1.10190469e-02 5.00000000e-01)	1199	5.28342927e-07	(1.96867370e+00 9.10418368e-01 5.00000000e-01)	7479	9.69709044e-09	(1.96867370e+00 8.79263643e-03 5.00000000e-01)	999
42              	-2.10520362e-04	(1.96867370e+00 4.00664797e-04 5.00000000e-01)	99	6.25557164e-07	(1.96867370e+00 1.10190469e-02 5.00000000e-01)	1199	5.26477053e-07	(1.96867370e+00 9.10418368e-01 5.00000000e-01)	7479	9.95486952e-09	(1.96867370e+00 8.79263643e-03 5.00000000e-01)	999
43              	-2.19181976e-04	(1.96867370e+00 4.00664797e-04 5.00000000e-01)	99	6.38247202e-07	(1.96867370e+00 1.10190469e-02 5.00000000e-01)	1199	5.25056795e-07	(1.96867370e+00 9.10418368e-01 5.00000000e-01)	7479	1.14049190e-08	(1.96867370e+00 8.79263643e-03 5.00000000e-01)	999
44              	-2.27404503e-04	(1.96867370e+00 4.00664797e-04 5.00000000e-01)	99	6.48124562e-07	(1.96867370e+00 1.21883140e-02 5.00000000e-01)	1299	5.24015410e-07	(1.96867370e+00 9.10418368e-01 5.00000000e-01)	7479	1.37972105e-08	(1.96867370e+00 8.79263643e-03 5.00000000e-01)	999
45              	-2.35861190e-04	(1.96867370e+00 4.00664797e-04 5.00000000e-01)	99	6.55941323e-07	(1.96867370e+00 1.21883140e-02 5.00000000e-01)	1299	5.23295191e-07	(1.96867370e+00 9.10418368e-01 5.00000000e-01)	7479	1.27030683e-08	(1.96867370e+00 9.88756135e-03 5.00000000e-01)	1099
46              	-2.45318089e-04	(1.96867370e+00 4.00664797e-04 5.00000000e-01)	99	6.64139806e-07	(1.96867370e+00 1.21883140e-02 5.00000000e-01)	1299	5.22846038e-07	(1.96867370e+00 9.10418368e-01 5.00000000e-01)	7479	1.21061014e-08	(1.96867370e+00 9.88756135e-03 5.00000000e-01)	1099
47              	-2.55700472e-04	(1.96867370e+00 4.00664797e-04 5.00000000e-01)	99	6.74571060e-07	(1.96867370e+00 1.21883140e-02 5.00000000e-01)	1299	5.22624309e-07	(1.96867370e+00 9.10418368e-01 5.00000000e-01)	7479	1.27458300e-08	(1.96867370e+00 9.88756135e-03 5.00000000e-01)	1099
48              	-2.66473359e-04	(1.96867370e+00 4.00664797e-04 5.00000000e-01)	99	6.87525014e-07	(1.96867370e+00 1.33966242e-02 5.00000000e-01)	1399	5.22591875e-07	(1.96867370e+00 9.10418368e-01 5.00000000e-01)	7479	1.44090086e-08	(1.96867370e+00 9.88756135e-03 5.00000000e-01)	1099
49              	-2.77006793e-04	(1.96867370e+00 4.00664797e-04 5.00000000e-01)	99	6.95420042e-07	(1.96867370e+00 1.33966242e-02 5.00000000e-01)	1399	5.22715331e-07	(1.96867370e+00 9.10418368e-01 5.00000000e-01)	7479	1.73470320e-08	(1.96867370e+00 1.10190469e-02 5.00000000e-01)	1199
50              	-2.87411131e-04	(1.96867370e+00 4.00664797e-04 5.00000000e-01)	99	7.02593423e-07	(1.96867370e+00 1.33966242e-02 5.00000000e-01)	1399	5.22965339e-07	(1.96867370e+00 9.10418368e-01 5.00000000e-01)	7479	1.52621473e-08	(1.96867370e+00 1.10190469e-02 5.00000000e-01)	1199
51              	-2.98149130e-04	(1.96867370e+00 4.00664797e-04 5.00000000e-01)	99	7.10840996e-07	(1.96867370e+00 1.33966242e-02 5.00000000e-01)	1399	5.23316082e-07	(1.96867370e+00 9.10418368e-01 5.00000000e-01)	7479	1.49227917e-08	(1.96867370e+00 1.10190469e-02 5.00000000e-01)	1199
52              	-3.09441386e-04	(1.96867370e+00 4.00664797e-04 5.00000000e-01)	99	7.22305271e-07	(1.96867370e+00 1.33966242e-02 5.00000000e-01)	1399	5.23744826e-07	(1.96867370e+00 9.10418368e-01 5.00000000e-01)	7479	1.60807509e-08	(1.67793547e+00 1.10190470e-02 5.00000000e-01)	1194
53              	-3.21106123e-04	(1.96867370e+00 4.00664797e-04 5.00000000e-01)	99	7.32657158e-07	(1.96867370e+00 1.46452811e-02 5.00000000e-01)	1499	5.24231542e-07	(1.96867370e+00 9.10418368e-01 5.00000000e-01)	7479	1.86258041e-08	(1.96867370e+00 1.10190469e-02 5.00000000e-01)	1199
54              	-3.32613884e-04	(1.96867370e+00 4.00664797e-04 5.00000000e-01)	99	7.39272109e-07	(1.96867370e+00 1.46452811e-02 5.00000000e-01)	1499	5.24758583e-07	(1.96867370e+00 9.10418368e-01 5.00000000e-01)	7479	1.88061889e-08	(1.96867370e+00 1.21883140e-02 5.00000000e-01)	1299
55              	-3.43731400e-04	(1.96867370e+00 4.00664797e-04 5.00000000e-01)	99	7.45792605e-07	(1.96867370e+00 1.46452811e-02 5.00000000e-01)	1499	5.25310397e-07	(1.96867370e+00 9.10418368e-01 5.00000000e-01)	7479	1.73809134e-08	(1.96867370e+00 1.21883140e-02 5.00000000e-01)	1299
56              	-3.54616040e-04	(1.96867370e+00 4.00664797e-04 5.00000000e-01)	99	7.54276998e-07	(1.96867370e+00 1.46452811e-02 5.00000000e-01)	1499	5.25873287e-07	(1.96867370e+00 9.10418368e-01 5.00000000e-01)	7479	1.77143204e-08	(1.90695483e+00 1.21883140e-02 5.00000000e-01)	1298
57              	-3.65519789e-04	(1.96867370e+00 4.00664797e-04 5.00000000e-01)	99	7.66165284e-07	(1.96867370e+00 1.46452811e-02 5.00000000e-01)	1499	5.26435217e-07	(1.96867370e+00 9.10418368e-01 5.00000000e-01)	7479	1.93388009e-08	(1.73261832e+00 1.21883140e-02 5.00000000e-01)	1295
58              	-3.76375697e-04	(1.96867370e+00 4.00664797e-04 5.00000000e-01)	99	7.72951318e-07	(1.96867370e+00 1.59356319e-02 5.00000000e-01)	1599	5.26985628e-07	(1.96867370e+00 9.10418368e-01 5.00000000e-01)	7479	2.24967828e-08	(1.96867370e+00 1.33966242e-02 5.00000000e-01)	1399
59              	-3.86857693e-04	(1.96867370e+00 4.00664797e-04 5.00000000e-01)	99	7.77924575e-07	(1.96867370e+00 1.59356319e-02 5.00000000e-01)	1599	5.27515284e-07	(1.96867370e+00 9.10418368e-01 5.00000000e-01)	7479	1.99312937e-08	(1.96867370e+00 1.33966242e-02 5.00000000e-01)	1399
60              	-3.96759328e-04	(1.96867370e+00 4.00664797e-04 5.00000000e-01)	99	7.83692912e-07	(1.96867370e+00 1.59356319e-02 5.00000000e-01)	1599	5.28016128e-07	(1.96867370e+00 9.10418368e-01 5.00000000e-01)	7479	1.91854707e-08	(1.90695483e+00 1.33966242e-02 5.00000000e-01)	1398
61              	-4.06310551e-04	(1.96867370e+00 4.00664797e-04 5.00000000e-01)	99	7.92320117e-07	(1.96867370e+00 1.59356319e-02 5.00000000e-01)	1599	5.28481160e-07	(1.96867370e+00 9.10418368e-01 5.00000000e-01)	7479	2.05952456e-08	(1.84707559e+00 1.33966242e-02 5.00000000e-01)	1397
62              	-4.15763322e-04	(1.96867370e+00 4.00664797e-04 5.00000000e-01)	99	8.03219967e-07	(1.96867370e+00 1.72690689e-02 5.00000000e-01)	1699	5.28904330e-07	(1.96867370e+00 9.10418368e-01 5.00000000e-01)	7479	2.40687191e-08	(1.84707559e+00 1.33966242e-02 5.00000000e-01)	1397
63              	-4.25014347e-04	(1.96867370e+00 4.00664797e-04 5.00000000e-01)	99	8.07224012e-07	(1.96867370e+00 1.72690689e-02 5.00000000e-01)	1699	5.29280443e-07	(1.96867370e+00 9.10418368e-01 5.00000000e-01)	7479	2.23462187e-08	(1.96867370e+00 1.46452811e-02 5.00000000e-01)	1499
64              	-4.33944326e-04	(1.96867370e+00 4.00664797e-04 5.00000000e-01)	99	8.10676196e-07	(1.96867370e+00 1.72690689e-02 5.00000000e-01)	1699	5.29605066e-07	(1.96867370e+00 9.10418368e-01 5.00000000e-01)	7479	2.09287862e-08	(1.90695483e+00 1.46452811e-02 5.00000000e-01)	1498
65              	-4.42650934e-04	(1.96867370e+00 4.00664797e-04 5.00000000e-01)	99	8.15698672e-07	(1.96867370e+00 1.72690689e-02 5.00000000e-01)	1699	5.29874444e-07	(1.96867370e+00 9.10418368e-01 5.00000000e-01)	7479	2.19015755e-08	(1.90695483e+00 1.46452811e-02 5.00000000e-01)	1498
66              	-4.51367214e-04	(1.96867370e+00 4.00664797e-04 5.00000000e-01)	99	8.23570944e-07	(1.96867370e+00 1.72690689e-02 5.00000000e-01)	1699	5.30085432e-07	(1.96867370e+00 9.10418368e-01 5.00000000e-01)	7479	2.57247866e-08	(1.84707559e+00 1.46452811e-02 5.00000000e-01)	1497
67              	-4.60102279e-04	(1.96867370e+00 4.00664797e-04 5.00000000e-01)	99	8.32658897e-07	(1.96867370e+00 1.86470308e-02 5.00000000e-01)	1799	5.30235419e-07	(1.96867370e+00 9.10418368e-01 5.00000000e-01)	7479	2.49046641e-08	(1.96867370e+00 1.59356319e-02 5.00000000e-01)	1599
68              	-4.68730007e-04	(1.96867370e+00 4.00664797e-04 5.00000000e-01)	99	8.34923954e-07	(1.96867370e+00 1.86470308e-02 5.00000000e-01)	1799	5.30322266e-07	(1.96867370e+00 9.10418368e-01 5.00000000e-01)	7479	2.25812764e-08	(1.96867370e+00 1.59356319e-02 5.00000000e-01)	1599
69              	-4.77204253e-04	(1.96867370e+00 4.00664797e-04 5.00000000e-01)	99	8.37713188e-07	(1.96867370e+00 1.86470308e-02 5.00000000e-01)	1799	5.30344235e-07	(1.96867370e+00 9.10418368e-01 5.00000000e-01)	7479	2.30000513e-08	(1.96867370e+00 1.59356319e-02 5.00000000e-01)	1599
70              	-4.85621963e-04	(1.96867370e+00 4.00664797e-04 5.00000000e-01)	99	8.43197683e-07	(1.96867370e+00 1.86470308e-02 5.00000000e-01)	1799	5.30299925e-07	(1.96867370e+00 9.10418368e-01 5.00000000e-01)	7479	2.68640690e-08	(1.96867370e+00 1.59356319e-02 5.00000000e-01)	1599
71              	-4.93976098e-04	(1.96867370e+00 4.00664797e-04 5.00000000e-01)	99	8.51284962e-07	(1.96867370e+00 1.86470308e-02 5.00000000e-01)	1799	5.30188208e-07	(1.96867370e+00 9.10418368e-01 5.00000000e-01)	7479	2.78220938e-08	(1.96867370e+00 1.72690689e-02 5.00000000e-01)	1699
72              	-5.02126977e-04	(1.96867370e+00 4.00664797e-04 5.00000000e-01)	99	8.56935746e-07	(1.96867370e+00 2.00710042e-02 5.00000000e-01)	1899	5.30008161e-07	(1.96867370e+00 9.10418368e-01 5.00000000e-01)	7479	2.46508764e-08	(1.96867370e+00 1.72690689e-02 5.00000000e-01)	1699
73              	-5.09943666e-04	(1.96867370e+00 4.00664797e-04 5.00000000e-01)	99	8.59687753e-07	(1.96867370e+00 2.00710042e-02 5.00000000e-01)	1899	5.29758993e-07	(1.96867370e+00 9.10418368e-01 5.00000000e-01)	7479	2.50874100e-08	(1.96867370e+00 1.72690689e-02 5.00000000e-01)	1699
74              	-5.17420211e-04	(1.96867370e+00 4.00664797e-04 5.00000000e-01)	99	8.65562698e-07	(1.96867370e+00 2.00710042e-02 5.00000000e-01)	1899	5.29439981e-07	(1.96867370e+00 9.10418368e-01 5.00000000e-01)	7479	2.99897874e-08	(1.96867370e+00 1.72690689e-02 5.00000000e-01)	1699
75              	-5.24494658e-04	(1.96867370e+00 4.00664797e-04 5.00000000e-01)	99	8.75325217e-07	(1.96867370e+00 2.15425256e-02 5.00000000e-01)	1999	5.29050394e-07	(1.96867370e+00 9.10418368e-01 5.00000000e-01)	7479	3.15088082e-08	(1.96867370e+00 1.86470308e-02 5.00000000e-01)	1799
76              	-5.31015155e-04	(1.96867370e+00 4.00664797e-04 5.00000000e-01)	99	8.77993756e-07	(1.96867370e+00 2.15425256e-02 5.00000000e-01)	1999	5.28589432e-07	(1.96867370e+00 9.10418368e-01 5.00000000e-01)	7479	2.86019307e-08	(1.96867370e+00 1.86470308e-02 5.00000000e-01)	1799
77              	-5.36930193e-04	(1.96867370e+00 4.00664797e-04 5.00000000e-01)	99	8.82970901e-07	(1.96867370e+00 2.15425256e-02 5.00000000e-01)	1999	5.28056172e-07	(1.96867370e+00 9.10418368e-01 5.00000000e-01)	7479	3.07833051e-08	(1.96867370e+00 1.86470308e-02 5.00000000e-01)	1799
78              	-5.42314043e-04	(1.96867370e+00 4.00664797e-04 5.00000000e-01)	99	8.90648211e-07	(1.96867370e+00 2.30631827e-02 5.00000000e-01)	2099	5.27449535e-07	(1.96867370e+00 9.10418368e-01 5.00000000e-01)	7479	3.96950461e-08	(1.96867370e+00 1.86470308e-02 5.00000000e-01)	1799
79              	-5.47184456e-04	(1.96867370e+00 4.00664797e-04 5.00000000e-01)	99	8.93551649e-07	(1.96867370e+00 2.30631827e-02 5.00000000e-01)	2099	5.26768291e-07	(1.96867370e+00 9.10418368e-01 5.00000000e-01)	7479	3.76627175e-08	(1.96867370e+00 2.00710042e-02 5.00000000e-01)	1899
80              	-5.51428035e-04	(1.96867370e+00 4.00664797e-04 5.00000000e-01)	99	8.98206362e-07	(1.96867370e+00 2.30631827e-02 5.00000000e-01)	2099	5.26011121e-07	(1.96867370e+00 9.10418368e-01 5.00000000e-01)	7479	3.72821453e-08	(1.96867370e+00 2.00710042e-02 5.00000000e-01)	1899
81              	-5.55031146e-04	(1.96867370e+00 4.00664797e-04 5.00000000e-01)	99	9.02116984e-07	(1.96867370e+00 2.46346160e-02 5.00000000e-01)	2199	5.25176772e-07	(1.96867370e+00 9.10418368e-01 5.00000000e-01)	7479	4.51850034e-08	(1.96867370e+00 2.00710042e-02 5.00000000e-01)	1899
82              	-5.58020485e-04	(1.96867370e+00 4.00664797e-04 5.00000000e-01)	99	9.04630247e-07	(1.96867370e+00 2.46346160e-02 5.00000000e-01)	2199	5.24264328e-07	(1.96867370e+00 9.10418368e-01 5.00000000e-01)	7479	5.40003782e-08	(1.96867370e+00 2.15425256e-02 5.00000000e-01)	1999
83              	-5.60387708e-04	(1.96867370e+00 4.00664797e-04 5.00000000e-01)	99	9.08366067e-07	(1.96867370e+00 2.62585212e-02 5.00000000e-01)	2299	5.23273675e-07	(1.96867370e+00 9.10418368e-01 5.00000000e-01)	7479	5.03971707e-08	(1.96867370e+00 2.15425256e-02 5.00000000e-01)	1999
84              	-5.62151234e-04	(1.96867370e+00 4.00664797e-04 5.00000000e-01)	99	9.10146327e-07	(1.96867370e+00 2.62585212e-02 5.00000000e-01)	2299	5.22206201e-07	(1.96867370e+00 9.10418368e-01 5.00000000e-01)	7479	5.69472900e-08	(1.96867370e+00 2.15425256e-02 5.00000000e-01)	1999
85              	-5.63386324e-04	(1.96867370e+00 4.00664797e-04 5.00000000e-01)	99	9.11849682e-07	(1.96867370e+00 2.62585212e-02 5.00000000e-01)	2299	5.21065831e-07	(1.96867370e+00 9.10418368e-01 5.00000000e-01)	7479	7.48427942e-08	(1.96867370e+00 2.30631827e-02 5.00000000e-01)	2099
86              	-5.64148421e-04	(1.96867370e+00 4.00664797e-04 5.00000000e-01)	99	9.14067364e-07	(1.96867370e+00 2.62585212e-02 5.00000000e-01)	2299	5.19860497e-07	(1.96867370e+00 9.10418368e-01 5.00000000e-01)	7479	6.96192760e-08	(1.96867370e+00 2.30631827e-02 5.00000000e-01)	2099
87              	-5.64459289e-04	(1.96867370e+00 4.00664797e-04 5.00000000e-01)	99	9.15282750e-07	(1.96867370e+00 2.79366503e-02 5.00000000e-01)	2399	5.18604157e-07	(1.96867370e+00 9.10418368e-01 5.00000000e-01)	7479	7.41079623e-08	(1.96867370e+00 2.30631827e-02 5.00000000e-01)	2099
88              	-5.64378371e-04	(1.96867370e+00 4.00664797e-04 5.00000000e-01)	99	9.16186913e-07	(1.96867370e+00 2.79366503e-02 5.00000000e-01)	2399	5.17319524e-07	(1.96867370e+00 9.10418368e-01 5.00000000e-01)	7479	9.34427538e-08	(1.96867370e+00 2.30631827e-02 5.00000000e-01)	2099
89              	-5.63993408e-04	(1.96867370e+00 4.00664797e-04 5.00000000e-01)	99	9.16996852e-07	(1.96867370e+00 2.79366503e-02 5.00000000e-01)	2399	5.16041659e-07	(1.96867370e+00 9.10418368e-01 5.00000000e-01)	7479	9.41794794e-08	(1.96867370e+00 2.46346160e-02 5.00000000e-01)	2199
90              	-5.63327497e-04	(1.96867370e+00 4.00664797e-04 5.00000000e-01)	99	9.18368688e-07	(1.96867370e+00 2.96708138e-02 5.00000000e-01)	2499	5.14822620e-07	(1.96867370e+00 9.10418368e-01 5.00000000e-01)	7479	9.35787539e-08	(1.96867370e+00 2.46346160e-02 5.00000000e-01)	2199
91              	-5.62414565e-04	(1.96867370e+00 4.00664797e-04 5.00000000e-01)	99	9.18694427e-07	(1.96867370e+00 2.96708138e-02 5.00000000e-01)	2499	5.13737368e-07	(1.96867370e+00 9.10418368e-01 5.00000000e-01)	7479	1.05474725e-07	(1.96867370e+00 2.46346160e-02 5.00000000e-01)	2199
92              	-5.61254963e-04	(1.96867370e+00 4.00664797e-04 5.00000000e-01)	99	9.18974202e-07	(1.96867370e+00 2.96708138e-02 5.00000000e-01)	2499	5.12891145e-07	(1.96867370e+00 9.10418368e-01 5.00000000e-01)	7479	1.19281875e-07	(1.96867370e+00 2.62585212e-02 5.00000000e-01)	2299
93              	-5.59853012e-04	(1.96867370e+00 4.00664797e-04 5.00000000e-01)	99	9.19340794e-07	(1.96867370e+00 2.96708138e-02 5.00000000e-01)	2499	5.12428515e-07	(1.96867370e+00 9.10418368e-01 5.00000000e-01)	7479	1.17640891e-07	(1.96867370e+00 2.62585212e-02 5.00000000e-01)	2299
94              	-5.58201427e-04	(1.96867370e+00 4.00664797e-04 5.00000000e-01)	99	9.19814264e-07	(1.96867370e+00 2.96708138e-02 5.00000000e-01)	2499	5.12544268e-07	(1.96867370e+00 9.10418368e-01 5.00000000e-01)	7479	1.18456614e-07	(1.96867370e+00 2.62585212e-02 5.00000000e-01)	2299
95              	-5.56294285e-04	(1.96867370e+00 4.00664797e-04 5.00000000e-01)	99	9.21347340e-07	(1.96867370e+00 2.96708138e-02 5.00000000e-01)	2499	5.12408299e-07	(1.96867370e+00 3.14628829e-02 5.00000000e-01)	2599	1.28817651e-07	(1.96867370e+00 2.62585212e-02 5.00000000e-01)	2299
96              	-5.54117618e-04	(1.96867370e+00 4.00664797e-04 5.00000000e-01)	99	9.23256849e-07	(1.96867370e+00 3.14628829e-02 5.00000000e-01)	2599	5.11533005e-07	(1.96867370e+00 3.14628829e-02 5.00000000e-01)	2599	1.39275808e-07	(1.96867370e+00 2.79366503e-02 5.00000000e-01)	2399
97              	-5.51701773e-04	(1.96867370e+00 4.00664797e-04 5.00000000e-01)	99	9.25898812e-07	(1.96867370e+00 3.14628829e-02 5.00000000e-01)	2599	5.11082435e-07	(1.96867370e+00 3.14628829e-02 5.00000000e-01)	2599	1.40174842e-07	(1.96867370e+00 2.79366503e-02 5.00000000e-01)	2399
98              	-5.49045364e-04	(1.96867370e+00 4.00664797e-04 5.00000000e-01)	99	9.29988203e-07	(1.96867370e+00 3.14628829e-02 5.00000000e-01)	2599	5.11326627e-07	(1.96867370e+00 3.14628829e-02 5.00000000e-01)	2599	1.40482697e-07	(1.96867370e+00 2.79366503e-02 5.00000000e-01)	2399
99              	-5.46155522e-04	(1.96867370e+00 4.00664797e-04 5.00000000e-01)	99	9.36036154e-07	(1.96867370e+00 3.14628829e-02 5.00000000e-01)	2599	5.12379104e-07	(1.96867370e+00 3.14628829e-02 5.00000000e-01)	2599	1.43534910e-07	(1.96867370e+00 2.79366503e-02 5.00000000e-01)	2399
100             	-5.43095468e-04	(1.96867370e+00 4.00664797e-04 5.00000000e-01)	99	9.44741929e-07	(1.96867370e+00 3.14628829e-02 5.00000000e-01)	2599	5.14551878e-07	(1.96867370e+00 3.14628829e-02 5.00000000e-01)	2599	1.52078320e-07	(1.96867370e+00 2.79366503e-02 5.00000000e-01)	2399
101             	-5.39879159e-04	(1.96867370e+00 4.00664797e-04 5.00000000e-01)	99	9.57046387e-07	(1.96867370e+00 3.14628829e-02 5.00000000e-01)	2599	5.18689564e-07	(1.96867370e+00 3.14628829e-02 5.00000000e-01)	2599	1.56602408e-07	(1.96867370e+00 2.96708138e-02 5.00000000e-01)	2499
102             	-5.36517692e-04	(1.96867370e+00 4.00664797e-04 5.00000000e-01)	99	9.74593632e-07	(1.96867370e+00 3.14628829e-02 5.00000000e-01)	2599	5.25498378e-07	(1.96867370e+00 3.14628829e-02 5.00000000e-01)	2599	1.61223493e-07	(1.96867370e+00 2.96708138e-02 5.00000000e-01)	2499
103             	-5.33027191e-04	(1.96867370e+00 4.00664797e-04 5.00000000e-01)	99	9.99112233e-07	(1.96867370e+00 3.14628829e-02 5.00000000e-01)	2599	5.35995871e-07	(1.96867370e+00 3.14628829e-02 5.00000000e-01)	2599	1.65986588e-07	(1.96867370e+00 2.96708138e-02 5.00000000e-01)	2499
104             	-5.29449281e-04	(1.96867370e+00 4.00664797e-04 5.00000000e-01)	99	1.03250169e-06	(1.96867370e+00 3.14628829e-02 5.00000000e-01)	2599	5.50219346e-07	(1.96867370e+00 3.14628829e-02 5.00000000e-01)	2599	1.73175085e-07	(1.96867370e+00 2.96708138e-02 5.00000000e-01)	2499