#      distance             U_x             U_y             U_z wallShearStr... wallShearStr... wallShearStr...               p         epsilon               k             nut
    0.001215373      0.64042347   3.8112906e-05  -2.4330784e-20               0               0               0   0.00024639472      0.13703655    0.0042644149   1.5756615e-05
   0.0020572852      0.69659951   6.0786553e-05  -5.7529633e-22               0               0               0   0.00024720923     0.067924136    0.0041763712    2.550428e-05
   0.0029273097      0.73277097   9.1470635e-05   3.0227281e-21               0               0               0   0.00024802773     0.043789843    0.0040261992   3.4968537e-05
   0.0038263852      0.76026669   0.00012590463   1.2242149e-20               0               0               0   0.00024887207     0.031981928    0.0038975044   4.3960801e-05
   0.0047554818      0.78287126   0.00016373019   2.5006342e-20               0               0               0   0.00024976555     0.024982868    0.0037749224    5.226717e-05
   0.0057156019       0.8023721   0.00020515263   1.8663217e-20               0               0               0   0.00025069715     0.020328823    0.0036512796   5.9762213e-05
   0.0067077814      0.81975094   0.00025038074   9.4832838e-21               0               0               0   0.00025165177     0.016985447    0.0035228666    6.636061e-05
   0.0077330908      0.83560329    0.0002996167   1.0270069e-20               0               0               0   0.00025261877      0.01444416    0.0033874542   7.1997143e-05
   0.0087926364      0.85031637   0.00035309541  -8.1523301e-21               0               0               0   0.00025359053     0.012425978    0.0032434996   7.6617844e-05
   0.0098875613      0.86415478   0.00041109613  -4.8583476e-20               0               0               0    0.0002545579     0.010765074    0.0030898081   8.0175846e-05
    0.011019047       0.8773055   0.00047374932  -6.0452301e-20               0               0               0   0.00025550506     0.009356663    0.0029253836   8.2629476e-05
    0.012188314      0.88990314   0.00054127541  -1.6585167e-20               0               0               0   0.00025641544    0.0081313474    0.0027493716    8.394163e-05
    0.013396624      0.90204446   0.00061409771   2.1360216e-20               0               0               0   0.00025727797    0.0070415429    0.0025610555   8.4080095e-05
    0.014645281      0.91379671    0.0006923281   1.3949767e-20               0               0               0   0.00025808369    0.0060539297    0.0023598974   8.3018881e-05
    0.015935632      0.92520181   0.00077595453   -4.088468e-22               0               0               0   0.00025882007    0.0051451537    0.0021456265   8.0740935e-05
    0.017269069      0.93627713   0.00086498838  -2.5502809e-21               0               0               0   0.00025946868    0.0042994431    0.0019183958   7.7243175e-05
    0.018647031      0.94701287   0.00095918587               0               0               0               0   0.00026000956    0.0035074989    0.0016790465   7.2545803e-05
    0.020071004      0.95736494    0.0010579236  -3.7877811e-21               0               0               0   0.00026042423     0.002766392    0.0014295609   6.6710192e-05
    0.021542526      0.96724041    0.0011599597  -3.7877814e-21               0               0               0    0.0002606957    0.0020803969    0.0011738474   5.9875221e-05
    0.023063183      0.97647096    0.0012629992   3.9078074e-21               0               0               0   0.00026081089    0.0014626532   0.00091909545     5.23353e-05
    0.024634616      0.98476999    0.0013628952   2.7722639e-20               0               0               0   0.00026075909    0.0009365549   0.00067784585   4.4711094e-05
    0.026258521       0.9917016      0.00145256   4.8005156e-20               0               0               0   0.00026051657   0.00053182739   0.00046936421    3.827317e-05
     0.02793665      0.99680261    0.0015222595   3.1583302e-20               0               0               0   0.00026001936   0.00026654134   0.00031432564   3.5209204e-05
    0.029670814      0.99995739    0.0015668277   7.3929776e-21               0               0               0   0.00025919963    0.0001244727   0.00021993092    3.798309e-05
    0.031462883       1.0016049    0.0015905345    6.179534e-21               0               0               0   0.00025808259   6.1055963e-05   0.00017270531   4.7628741e-05
    0.033314791        1.002397    0.0016019124  -2.0688086e-22               0               0               0    0.0002567719   3.4727395e-05   0.00015156862    6.291172e-05
    0.035228536       1.0027915    0.0016074507  -6.3864164e-21               0               0               0   0.00025535127    2.304116e-05   0.00014203262   8.1462267e-05
    0.037206184       1.0030075    0.0016101803   -2.428925e-21               0               0               0   0.00025386554   1.7128318e-05   0.00013742482   0.00010121275
    0.039249867       1.0031372    0.0016114672  -2.1491117e-20               0               0               0   0.00025233656   1.3750428e-05   0.00013506124   0.00012083786
     0.04136179       1.0032206    0.0016119372  -3.8037682e-20               0               0               0   0.00025076388   1.1633214e-05   0.00013382542   0.00013960309
    0.043544233        1.003277    0.0016119164  -1.8975491e-20               0               0               0   0.00024913883   1.0211867e-05   0.00013320805   0.00015715306
     0.04579955       1.0033162    0.0016115745               0               0               0               0   0.00024745637   9.2068149e-06   0.00013295369   0.00017336292
    0.048130175       1.0033439    0.0016109996  -1.6264359e-20               0               0               0   0.00024571515   8.4665154e-06    0.0001329234   0.00018824474
    0.050538621       1.0033636    0.0016102471  -3.0368945e-20               0               0               0   0.00024391452    7.902605e-06   0.00013303602     0.000201888
    0.053027488       1.0033773    0.0016093569  -1.4104585e-20               0               0               0   0.00024205395   7.4604388e-06   0.00013324158   0.00021442368
    0.055599461       1.0033866    0.0016083598  -1.3454946e-20               0               0               0   0.00024013316   7.1045798e-06   0.00013350801   0.00022600122
    0.058257315       1.0033929    0.0016072791  -4.0248601e-20               0               0               0   0.00023815269   6.8111483e-06   0.00013381373   0.00023677308
    0.061003917       1.0033968    0.0016061291  -3.1762489e-20               0               0               0   0.00023611441   6.5635516e-06     0.000134144   0.00024688676
    0.063842231       1.0033989    0.0016049153   8.2828136e-21               0               0               0   0.00023401977   6.3499803e-06   0.00013448851   0.00025647948
     0.06677532       1.0033996    0.0016036393   3.1626635e-20               0               0               0   0.00023186727   6.1618754e-06   0.00013484003   0.00026567564
    0.069806347       1.0033993    0.0016022996   3.1498703e-20               0               0               0   0.00022965264   5.9929529e-06   0.00013519348   0.00027458588
    0.072938584       1.0033982    0.0016008829   1.8790656e-20               0               0               0   0.00022736976   5.8385589e-06   0.00013554535    0.0002833071
    0.076175409       1.0033962    0.0015993856    5.666942e-21               0               0               0   0.00022501513   5.6952305e-06   0.00013589325   0.00029192334
    0.079520315       1.0033937    0.0015978261               0               0               0               0   0.00022259878   5.5603857e-06   0.00013623565   0.00030050689
    0.082976911       1.0033909    0.0015962136   6.4185233e-21               0               0               0   0.00022014469   5.4320995e-06   0.00013657163   0.00030911976
    0.086548926       1.0033882    0.0015945075   -3.233344e-21               0               0               0   0.00021766835   5.3089387e-06   0.00013690074   0.00031781521
    0.090240215       1.0033865    0.0015926498  -3.1974365e-21               0               0               0   0.00021515849   5.1898366e-06   0.00013722284   0.00032663933
     0.09405476       1.0033867    0.0015906216   2.7153352e-20               0               0               0   0.00021259199   5.0739989e-06   0.00013753803   0.00033563261
