#      distance             U_x             U_y             U_z wallShearStr... wallShearStr... wallShearStr...               p         epsilon               k             nut
  5.5511169e-17      0.99958131   2.5038046e-22               0               0               0               0     0.004160348   1.0314463e-05   0.00014758082   0.00019004509
   0.0021021021      0.99956962   2.5038046e-22               0               0               0               0    0.0041719562   1.0314099e-05    0.0001475578   0.00018999251
   0.0042042042      0.99955794   2.5038046e-22               0               0               0               0    0.0041835644   1.0313735e-05   0.00014753478   0.00018993993
   0.0063063063      0.99954625   2.5038046e-22               0               0               0               0    0.0041951725   1.0313372e-05   0.00014751176   0.00018988735
   0.0084084084      0.99953456   2.5038046e-22               0               0               0               0    0.0042067807   1.0313008e-05   0.00014748874   0.00018983477
    0.010510511      0.99952288   2.5038046e-22               0               0               0               0    0.0042183889   1.0312644e-05   0.00014746573   0.00018978219
    0.012612613      0.99951119   2.5038046e-22               0               0               0               0     0.004229997   1.0312281e-05   0.00014744271   0.00018972962
    0.014714715       0.9994995   2.5038046e-22               0               0               0               0    0.0042416052   1.0311917e-05   0.00014741969   0.00018967704
    0.016816817      0.99948782   2.5038046e-22               0               0               0               0    0.0042532134   1.0311553e-05   0.00014739667   0.00018962446
    0.018918919      0.99947613   2.5038046e-22               0               0               0               0    0.0042648215    1.031119e-05   0.00014737366   0.00018957188
    0.021021021      0.99946444   2.5038046e-22               0               0               0               0    0.0042764297   1.0310826e-05   0.00014735064    0.0001895193
    0.023123123      0.99944673   3.8163347e-22               0               0               0               0    0.0042942302   1.0310599e-05   0.00014732755   0.00018946411
    0.025225225      0.99942882   3.8163347e-22               0               0               0               0    0.0043122332   1.0310376e-05   0.00014730445   0.00018940884
    0.027327327       0.9994109   3.8163347e-22               0               0               0               0    0.0043302362   1.0310154e-05   0.00014728136   0.00018935356
    0.029429429      0.99939299   3.8163347e-22               0               0               0               0    0.0043482392   1.0309931e-05   0.00014725827   0.00018929829
    0.031531532      0.99937508   3.8163347e-22               0               0               0               0    0.0043662422   1.0309709e-05   0.00014723518   0.00018924302
    0.033633634      0.99935716   3.8163347e-22               0               0               0               0    0.0043842452   1.0309486e-05   0.00014721208   0.00018918775
    0.035735736      0.99933925   3.8163347e-22               0               0               0               0    0.0044022481   1.0309263e-05   0.00014718899   0.00018913247
    0.037837838      0.99932134   3.8163347e-22               0               0               0               0    0.0044202511   1.0309041e-05    0.0001471659    0.0001890772
     0.03993994      0.99930343   3.8163347e-22               0               0               0               0    0.0044382541   1.0308818e-05    0.0001471428   0.00018902193
    0.042042042      0.99928551   3.8163347e-22               0               0               0               0    0.0044562571   1.0308596e-05   0.00014711971   0.00018896665
    0.044144144       0.9992676   3.8163347e-22               0               0               0               0    0.0044742601   1.0308373e-05   0.00014709662   0.00018891138
    0.046246246      0.99924969   3.8163347e-22               0               0               0               0    0.0044922631    1.030815e-05   0.00014707352   0.00018885611
    0.048348348      0.99922564   5.7816836e-22               0               0               0               0    0.0045160833   1.0308099e-05   0.00014705038   0.00018879763
     0.05045045      0.99919857   5.7816836e-22               0               0               0               0    0.0045427597   1.0308131e-05   0.00014702721   0.00018873758
    0.052552553       0.9991715   5.7816836e-22               0               0               0               0    0.0045694362   1.0308163e-05   0.00014700404   0.00018867753
    0.054654655      0.99914443   5.7816836e-22               0               0               0               0    0.0045961126   1.0308195e-05   0.00014698087   0.00018861747
    0.056756757      0.99911736   5.7816836e-22               0               0               0               0     0.004622789   1.0308227e-05    0.0001469577   0.00018855742
    0.058858859      0.99909029   5.7816836e-22               0               0               0               0    0.0046494654   1.0308259e-05   0.00014693453   0.00018849737
    0.060960961      0.99906322   5.7816836e-22               0               0               0               0    0.0046761418   1.0308292e-05   0.00014691136   0.00018843732
    0.063063063      0.99903615   5.7816836e-22               0               0               0               0    0.0047028182   1.0308324e-05   0.00014688818   0.00018837727
    0.065165165      0.99900908   5.7816836e-22               0               0               0               0    0.0047294946   1.0308356e-05   0.00014686501   0.00018831721
    0.067267267      0.99897167   8.3057202e-22               0               0               0               0    0.0047675218    1.030855e-05   0.00014684232   0.00018825549
    0.069369369       0.9989325   8.3057202e-22               0               0               0               0    0.0048074758   1.0308771e-05    0.0001468197   0.00018819348
    0.071471471      0.99889334   8.3057202e-22               0               0               0               0    0.0048474299   1.0308993e-05   0.00014679709   0.00018813147
    0.073573574      0.99885418   8.3057202e-22               0               0               0               0    0.0048873839   1.0309214e-05   0.00014677447   0.00018806946
    0.075675676      0.99881501   8.3057202e-22               0               0               0               0     0.004927338   1.0309436e-05   0.00014675186   0.00018800745
    0.077777778      0.99877585   8.3057202e-22               0               0               0               0     0.004967292   1.0309657e-05   0.00014672924   0.00018794544
     0.07987988      0.99872254   1.4195615e-21               0               0               0               0    0.0050175295    1.031333e-05   0.00014670563   0.00018781853
    0.081981982      0.99865694   1.4195615e-21               0               0               0               0    0.0050767022   1.0320001e-05   0.00014668116   0.00018763522
    0.084084084      0.99859133   1.4195615e-21               0               0               0               0     0.005135875   1.0326673e-05   0.00014665669   0.00018745192
    0.086186186      0.99852573   1.4195615e-21               0               0               0               0    0.0051950478   1.0333344e-05   0.00014663222   0.00018726862
    0.088288288      0.99846002   1.9458162e-21               0               0               0               0    0.0052544604   1.0345935e-05   0.00014660789   0.00018702659
     0.09039039      0.99836888   1.9458162e-21               0               0               0               0    0.0053659377   1.1643746e-05   0.00014661552    0.0001740344
    0.092492492      0.99827775   1.9458162e-21               0               0               0               0     0.005477415   1.2941557e-05   0.00014662315   0.00016104221
    0.094594595      0.99818662   1.9458162e-21               0               0               0               0    0.0055888923   1.4239368e-05   0.00014663078   0.00014805001
    0.096696697       0.8359143   1.1570168e-20               0  -0.00010138213  -5.8150414e-08   2.5998889e-22    0.0057273944   0.00045649935    0.0001545518   0.00011460155
    0.098798799      0.62152696   1.1570168e-20               0  -0.00023534221  -1.3498678e-07   6.0352215e-22    0.0058745806    0.0010404574   0.00016501571   7.4579709e-05
      0.1009009      0.35550872   3.4492214e-20               0  -0.00041580383  -2.4946659e-07   8.0445673e-22    0.0059965981    0.0020571257   0.00019062948   3.6859424e-05
       0.103003     0.020649282   3.4492214e-20               0  -0.00065826748  -4.1413767e-07   8.1525973e-22    0.0060850573    0.0036507411   0.00023644309   2.2078807e-06
     0.10510511   1.1034973e-16   3.7593839e-20  -4.9175166e-36  -0.00073991056  -5.6106547e-07     3.27324e-22    0.0060890369    0.0055091774   0.00030673895   9.8458747e-08
     0.10720721   1.1001309e-16   5.6412486e-20               0  -0.00081467479  -7.4017019e-07    1.143709e-21    0.0060820947    0.0079095667    0.0003904291   1.2925642e-07
     0.10930931   1.1001309e-16   5.6412486e-20               0   -0.0008949209  -9.6880994e-07    3.946514e-21    0.0060671749     0.011089238   0.00049162782   1.6245279e-07
     0.11141141   1.0960041e-16   7.5684465e-20               0    -0.000980342  -1.2457011e-06   1.6402432e-20    0.0060667063     0.015860746   0.00062124209   1.9807971e-07
     0.11351351   1.0910261e-16   9.6099959e-20               0   -0.0010677665  -1.5394906e-06   2.5072987e-20    0.0060708448     0.021507311   0.00076476681   2.3469062e-07
     0.11561562   1.0910261e-16   9.6099959e-20               0   -0.0011589257  -1.8603731e-06   8.0604251e-21    0.0060811278     0.029426086   0.00094143019   2.7324258e-07
     0.11771772   1.0851197e-16    1.101971e-19  -1.8750406e-33   -0.0012513399  -2.1802835e-06   -7.226387e-21    0.0060887231     0.039252021    0.0011409202   3.1263274e-07
     0.11981982   1.0851197e-16    1.101971e-19  -1.8750406e-33   -0.0013449831  -2.4992421e-06  -2.0823427e-20    0.0060936865     0.050945356    0.0013627609   3.5284363e-07
     0.12192192   1.0781724e-16   1.1915753e-19  -3.4587099e-35   -0.0014384807  -2.8996339e-06   1.6711735e-20     0.006088199     0.066265931    0.0016200521    3.935869e-07
     0.12402402   1.0781724e-16   1.1915753e-19  -3.4587099e-35   -0.0015319351  -3.3241297e-06   6.9381866e-20    0.0060796179     0.082660157    0.0018878365   4.3448776e-07
     0.12612613    1.070158e-16   1.4479339e-19               0   -0.0016221646  -3.8890663e-06    7.006426e-20    0.0060512276      0.10427326    0.0021964537   4.7492487e-07
     0.12822823   1.0610156e-16   1.7188445e-19               0   -0.0017114141  -4.4634776e-06   7.9473058e-20    0.0060204892       0.1267174    0.0025101109   5.1510718e-07
     0.13033033   1.0610156e-16   1.7188445e-19               0   -0.0017950851  -5.0816281e-06   1.4608862e-19    0.0059775113      0.15366058    0.0028501961   5.5380403e-07
     0.13243243   1.0507241e-16   1.9800841e-19               0   -0.0018764281  -5.7027968e-06   1.9641947e-19    0.0059320578       0.1816533    0.0031937919   5.9177289e-07
     0.13453453   1.0507241e-16   1.9800841e-19               0   -0.0019505761   -6.333294e-06   1.9641952e-19     0.005878953      0.21288982    0.0035482379   6.2749171e-07
     0.13663664    1.039322e-16   2.2240956e-19               0   -0.0020213087  -6.9568887e-06   1.2434239e-19    0.0058225337      0.24482987    0.0039010855    6.620518e-07
     0.13873874    1.039322e-16   2.2240956e-19               0   -0.0020835868  -7.5633966e-06  -1.2616151e-19    0.0057579092      0.27851149    0.0042499765   6.9374342e-07
     0.14084084   1.0268916e-16   2.4408391e-19               0   -0.0021422829  -8.1531528e-06  -3.0880797e-19    0.0056907159      0.31219836     0.004591998   7.2415149e-07
     0.14294294   1.0268916e-16   2.4408391e-19               0   -0.0021913378  -8.6978197e-06  -3.0880806e-19    0.0056166082      0.34589934    0.0049155291   7.5110471e-07
     0.14504505   1.0135503e-16    2.620512e-19               0   -0.0022377968   -9.223476e-06  -2.2764554e-19    0.0055413121      0.37912272    0.0052310371   7.7708493e-07
     0.14714715   1.0135503e-16    2.620512e-19               0   -0.0022733365  -9.6691681e-06   1.9490768e-19    0.0054610176      0.41033718    0.0055127978   7.9897252e-07
     0.14924925   9.9944829e-17   2.7491139e-19               0    -0.002308241  -1.0109559e-05   5.9658275e-19     0.005380552       0.4413261    0.0057919639   8.2061179e-07
     0.15135135   9.9944829e-17   2.7491139e-19               0   -0.0023309226   -1.044795e-05   5.9653082e-19    0.0052967942      0.46797543     0.006021205   8.3747318e-07
     0.15345345   9.9944829e-17   2.7491139e-19               0   -0.0023536041  -1.0786341e-05    5.964789e-19    0.0052130365      0.49462476    0.0062504462   8.5433457e-07
     0.15555556   9.8475088e-17   2.8469889e-19               0   -0.0023666877   -1.100202e-05   6.3073534e-19    0.0051294449      0.51637844     0.006432233   8.6727765e-07
     0.15765766   9.8475088e-17   2.8469889e-19               0   -0.0023779554  -1.1194483e-05   6.7148289e-19    0.0050458848      0.53720586    0.0066050414   8.7947939e-07
     0.15975976    9.696311e-17   2.8473734e-19               0   -0.0023837173  -1.1307818e-05    6.892542e-19    0.0049635321      0.55441976    0.0067461867   8.8931483e-07
     0.16186186    9.696311e-17   2.8473734e-19               0   -0.0023852324   -1.136012e-05   6.8930346e-19    0.0048821105      0.56884646    0.0068629095   8.9732509e-07
     0.16396396   9.5427867e-17   2.8202211e-19               0   -0.0023852922  -1.1391555e-05   6.2712719e-19    0.0048012686      0.58216426    0.0069703745   9.0467832e-07
     0.16606607   9.5427867e-17   2.8202211e-19               0   -0.0023801399   -1.134825e-05   3.4208319e-19    0.0047225026      0.59151038    0.0070446816   9.0967829e-07
     0.16816817   9.5427867e-17   2.8202211e-19               0   -0.0023749876  -1.1304946e-05    5.703918e-20    0.0046437366      0.60085649    0.0071189887   9.1467827e-07
     0.17027027   9.3882042e-17   2.7397655e-19               0   -0.0023647488  -1.1176348e-05   6.3015506e-20    0.0045682954      0.60560249    0.0071565543   9.1719335e-07
     0.17237237   9.3882042e-17   2.7397655e-19               0   -0.0023532376  -1.1026413e-05   1.4179538e-19    0.0044936861      0.60919768    0.0071849284   9.1908679e-07
     0.17447447   9.2345661e-17   2.6099701e-19               0   -0.0023402889  -1.0851363e-05   2.1789888e-19    0.0044207816       0.6113333    0.0072017933   9.2021297e-07
     0.17657658   9.2345661e-17   2.6099701e-19               0   -0.0023240987  -1.0619681e-05   2.8796731e-19    0.0043517217      0.61017765    0.0071927056   9.1960903e-07
     0.17867868   9.2345661e-17   2.6099701e-19               0   -0.0023079084     -1.0388e-05   3.5803573e-19    0.0042826617        0.609022    0.0071836178   9.1900509e-07
     0.18078078   9.0831611e-17   2.4443272e-19               0    -0.002290694  -1.0119004e-05   4.1200863e-19    0.0042178032      0.60638134     0.007162791   9.1761638e-07
     0.18288288   9.0831611e-17   2.4443272e-19               0   -0.0022731158  -9.8367605e-06    4.602667e-19    0.0041544364      0.60321342    0.0071377961   9.1594904e-07
     0.18498498   8.9353545e-17     2.24499e-19               0   -0.0022554429  -9.5508375e-06   4.9826937e-19    0.0040915088      0.59988128    0.0071114845   9.1419228e-07
     0.18708709   8.9353545e-17     2.24499e-19               0   -0.0022368089  -9.2276185e-06   4.3231583e-19    0.0040330335      0.59488445    0.0070718265   9.1152919e-07
     0.18918919   8.9353545e-17     2.24499e-19               0    -0.002218175  -8.9043995e-06   3.6636229e-19    0.0039745581      0.58988761    0.0070321685   9.0886611e-07
     0.19129129   8.7926477e-17   2.0164154e-19               0   -0.0021994942  -8.5729153e-06   2.5639285e-19    0.0039180174      0.58450975    0.0069893385   9.0597876e-07
     0.19339339   8.7926477e-17   2.0164154e-19               0   -0.0021807302  -8.2267535e-06   6.8258354e-20    0.0038649125      0.57845524    0.0069408757   9.0269315e-07
      0.1954955   8.7926477e-17   2.0164154e-19               0   -0.0021619661  -7.8805916e-06  -1.1987614e-19    0.0038118076      0.57240074    0.0068924128   8.9940755e-07
      0.1975976   8.6567852e-17    1.771143e-19               0   -0.0021435367  -7.5331607e-06   -2.051289e-19    0.0037619835      0.56611473    0.0068418035   8.9595384e-07
      0.1996997   8.6567852e-17    1.771143e-19               0   -0.0021253844  -7.1846783e-06  -2.0512898e-19    0.0037148781      0.55963688    0.0067894154   8.9236082e-07
      0.2018018   8.6567852e-17    1.771143e-19               0   -0.0021072322  -6.8361959e-06  -2.0512906e-19    0.0036677727      0.55315903    0.0067370274    8.887678e-07
      0.2039039   8.5291925e-17   1.5211304e-19               0   -0.0020898287  -6.4955266e-06  -1.4973509e-19    0.0036245221      0.54672056    0.0066845757   8.8514064e-07
     0.20600601   8.5291925e-17   1.5211304e-19               0   -0.0020728336  -6.1591198e-06  -6.4120858e-20    0.0035833746      0.54030357    0.0066320893   8.8149486e-07
     0.20810811   8.5291925e-17   1.5211304e-19               0   -0.0020558386  -5.8227129e-06   2.1493378e-20    0.0035422271      0.53388659    0.0065796029   8.7784907e-07
     0.21021021   8.4109975e-17   1.2727883e-19               0    -0.002039861  -5.5000999e-06   5.0765338e-20     0.003504854      0.52774354    0.0065289786   8.7430276e-07
     0.21231231   8.4109975e-17   1.2727883e-19               0    -0.002024412  -5.1846532e-06   5.0765358e-20    0.0034694418       0.5217428    0.0064793218   8.7080814e-07
     0.21441441   8.4109975e-17   1.2727883e-19               0   -0.0020089631  -4.8692065e-06   5.0765379e-20    0.0034340296      0.51574206    0.0064296649   8.6731352e-07
     0.21651652   8.3030874e-17   1.0327877e-19               0   -0.0019945579  -4.5695599e-06   4.1535332e-20    0.0034018625      0.51012641    0.0063829036   8.6399941e-07
     0.21861862   8.3030874e-17   1.0327877e-19               0    -0.001980917    -4.28148e-06   2.5548241e-20     0.003372071      0.50479266    0.0063382621   8.6081747e-07
     0.22072072   8.3030874e-17   1.0327877e-19               0    -0.001967276  -3.9934001e-06   9.5611493e-21    0.0033422795      0.49945891    0.0062936206   8.5763552e-07
     0.22282282   8.2060133e-17   8.0636794e-20               0   -0.0019544226  -3.7184527e-06               0    0.0033146663      0.49445891    0.0062516124   8.5462833e-07
     0.22492492   8.2060133e-17   8.0636794e-20               0   -0.0019427409  -3.4630449e-06               0    0.0032902944      0.48995549    0.0062135223   8.5188116e-07
     0.22702703   8.2060133e-17   8.0636794e-20               0   -0.0019310593  -3.2076372e-06               0    0.0032659225      0.48545207    0.0061754321   8.4913399e-07
     0.22912913   8.1200113e-17   6.0099719e-20               0   -0.0019196368  -2.9571634e-06  -1.0704076e-22    0.0032422012      0.48106705    0.0061383074   8.4645351e-07
     0.23123123   8.1200113e-17   6.0099719e-20               0   -0.0019099641  -2.7400063e-06  -9.3687118e-22    0.0032228738      0.47748155    0.0061077013   8.4422326e-07
     0.23333333   8.1200113e-17   6.0099719e-20               0   -0.0019002914  -2.5228492e-06  -1.7667016e-21    0.0032035464      0.47389605    0.0060770952   8.4199302e-07
     0.23543544   8.1200113e-17   6.0099719e-20               0   -0.0018906188  -2.3056921e-06   -2.596532e-21     0.003184219      0.47031055    0.0060464891   8.3976277e-07
     0.23753754   8.0449261e-17    4.247666e-20               0   -0.0018824178  -2.1209007e-06  -7.8331057e-21    0.0031681928      0.46742992    0.0060217709   8.3795096e-07
     0.23963964   8.0449261e-17    4.247666e-20               0    -0.001874693  -1.9465848e-06  -1.4495946e-20    0.0031532351      0.46477741    0.0059989583   8.3627457e-07
     0.24174174   8.0449261e-17    4.247666e-20               0   -0.0018669683  -1.7722688e-06  -2.1158787e-20    0.0031382774      0.46212491    0.0059761457   8.3459818e-07
     0.24384384   7.9799959e-17   2.8472554e-20               0   -0.0018597333   -1.610693e-06  -2.5749732e-20    0.0031243223      0.45971373    0.0059553844   8.3307052e-07
     0.24594595   7.9799959e-17   2.8472554e-20               0   -0.0018537681  -1.4821503e-06  -2.4968643e-20    0.0031129664      0.45792827    0.0059399415   8.3192847e-07
     0.24804805   7.9799959e-17   2.8472554e-20               0   -0.0018478029  -1.3536075e-06  -2.4187554e-20    0.0031016106      0.45614281    0.0059244986   8.3078642e-07
     0.25015015   7.9799959e-17   2.8472554e-20               0   -0.0018418376  -1.2250647e-06  -2.3406465e-20    0.0030902547      0.45435735    0.0059090558   8.2964437e-07
     0.25225225   7.9238824e-17   1.8692999e-20               0   -0.0018368784  -1.1277118e-06  -1.2195269e-20    0.0030807796      0.45306927    0.0058978899   8.2881653e-07
     0.25435435   7.9238824e-17   1.8692999e-20               0    -0.001832362  -1.0440881e-06   3.6070555e-21    0.0030721324      0.45200012    0.0058886067   8.2812701e-07
     0.25645646   7.9238824e-17   1.8692999e-20               0   -0.0018278456  -9.6046439e-07    1.940938e-20    0.0030634851      0.45093098    0.0058793234   8.2743749e-07
     0.25855856    7.874887e-17   1.3095893e-20               0   -0.0018233295  -8.7685119e-07    3.520523e-20    0.0030548383      0.44986197    0.0058700414   8.2674805e-07
     0.26066066    7.874887e-17   1.3095893e-20               0   -0.0018198648  -8.3180412e-07   2.7272675e-20    0.0030475812      0.44929046    0.0058650671   8.2637759e-07
     0.26276276    7.874887e-17   1.3095893e-20               0   -0.0018164001  -7.8675705e-07    1.934012e-20    0.0030403241      0.44871895    0.0058600928   8.2600712e-07
     0.26486486    7.874887e-17   1.3095893e-20               0   -0.0018129355  -7.4170998e-07   1.1407565e-20     0.003033067      0.44814744    0.0058551185   8.2563665e-07
     0.26696697    7.831143e-17   1.0983363e-20               0   -0.0018095933  -7.0213734e-07   3.2748872e-21    0.0030258442      0.44762477    0.0058505685   8.2529771e-07
     0.26906907    7.831143e-17   1.0983363e-20               0   -0.0018067642  -6.8549983e-07  -5.6962027e-21    0.0030187649      0.44730666    0.0058477958   8.2509087e-07
     0.27117117    7.831143e-17   1.0983363e-20               0   -0.0018039351  -6.6886232e-07  -1.4667293e-20    0.0030116857      0.44698855    0.0058450231   8.2488403e-07
     0.27327327    7.831143e-17   1.0983363e-20               0    -0.001801106  -6.5222481e-07  -2.3638383e-20    0.0030046065      0.44667044    0.0058422503    8.246772e-07
     0.27537538   7.7909027e-17   1.1269583e-20               0   -0.0017983535   -6.400941e-07  -2.8201776e-20    0.0029973971      0.44636346    0.0058395739   8.2447748e-07
     0.27747748   7.7909027e-17   1.1269583e-20               0   -0.0017958097  -6.4026404e-07  -2.0735028e-20    0.0029898324      0.44608683    0.0058371602   8.2429722e-07
     0.27957958   7.7909027e-17   1.1269583e-20               0    -0.001793266  -6.4043397e-07  -1.3268279e-20    0.0029822677      0.44581019    0.0058347465   8.2411696e-07
     0.28168168   7.7909027e-17   1.1269583e-20               0   -0.0017907223  -6.4060391e-07  -5.8015302e-21    0.0029747031      0.44553356    0.0058323328    8.239367e-07
     0.28378378   7.7528409e-17   1.2715557e-20               0   -0.0017881921  -6.4218976e-07   2.6303076e-22    0.0029669881      0.44523615    0.0058297371   8.2374278e-07
     0.28588589   7.7528409e-17   1.2715557e-20               0    -0.001785709  -6.4870858e-07   1.4424462e-21    0.0029587493      0.44486636    0.0058265072   8.2350128e-07
     0.28798799   7.7528409e-17   1.2715557e-20               0   -0.0017832259   -6.552274e-07   2.6218617e-21    0.0029505106      0.44449658    0.0058232773   8.2325977e-07
     0.29009009   7.7528409e-17   1.2715557e-20               0   -0.0017807428  -6.6174622e-07   3.8012772e-21    0.0029422718      0.44412679    0.0058200474   8.2301826e-07
     0.29219219   7.7161434e-17    1.427932e-20               0    -0.001778258  -6.6822178e-07   4.9174567e-21    0.0029340112      0.44374949    0.0058167515   8.2277179e-07
     0.29429429   7.7161434e-17    1.427932e-20               0   -0.0017757424  -6.7393382e-07   4.9174595e-21    0.0029253651      0.44323955    0.0058122911   8.2243774e-07
      0.2963964   7.7161434e-17    1.427932e-20               0   -0.0017732268  -6.7964585e-07   4.9174624e-21    0.0029167189      0.44272962    0.0058078307    8.221037e-07
      0.2984985   7.7161434e-17    1.427932e-20               0   -0.0017707112  -6.8535789e-07   4.9174652e-21    0.0029080727      0.44221968    0.0058033703   8.2176966e-07
      0.3006006   7.7161434e-17    1.427932e-20               0   -0.0017681956  -6.9106993e-07    4.917468e-21    0.0028994265      0.44170975    0.0057989099   8.2143561e-07
      0.3027027   7.6804124e-17   1.5326246e-20               0   -0.0017656569  -6.9365124e-07   4.0780555e-21    0.0028908318      0.44110796    0.0057936383   8.2104016e-07
      0.3048048   7.6804124e-17   1.5326246e-20               0   -0.0017631107  -6.9522276e-07   2.9678984e-21    0.0028822536      0.44047654    0.0057881051   8.2062491e-07
     0.30690691   7.6804124e-17   1.5326246e-20               0   -0.0017605645  -6.9679428e-07   1.8577413e-21    0.0028736755      0.43984513    0.0057825719   8.2020965e-07
     0.30900901   7.6804124e-17   1.5326246e-20               0   -0.0017580183  -6.9836581e-07   7.4758412e-22    0.0028650974      0.43921371    0.0057770386    8.197944e-07
     0.31111111   7.6455035e-17   1.5638495e-20               0   -0.0017554764  -6.9859076e-07               0    0.0028566146      0.43855814    0.0057712892   8.1936253e-07
     0.31321321   7.6455035e-17   1.5638495e-20               0   -0.0017529433  -6.9603924e-07               0    0.0028483285      0.43785277    0.0057650939   8.1889642e-07
     0.31531532   7.6455035e-17   1.5638495e-20               0   -0.0017504103  -6.9348772e-07               0    0.0028400423      0.43714739    0.0057588987    8.184303e-07
     0.31741742   7.6455035e-17   1.5638495e-20               0   -0.0017478773   -6.909362e-07               0    0.0028317562      0.43644202    0.0057527035   8.1796419e-07
     0.31951952   7.6455035e-17   1.5638495e-20               0   -0.0017453442  -6.8838467e-07               0    0.0028234701      0.43573664    0.0057465082   8.1749807e-07
     0.32162162   7.6113422e-17   1.5401764e-20               0   -0.0017428524  -6.8421544e-07               0    0.0028153522      0.43500866     0.005740102   8.1701503e-07
     0.32372372   7.6113422e-17   1.5401764e-20               0   -0.0017403734  -6.7953811e-07               0    0.0028072872      0.43427358    0.0057336295   8.1652667e-07
     0.32582583   7.6113422e-17   1.5401764e-20               0   -0.0017378944  -6.7486077e-07               0    0.0027992221      0.43353849     0.005727157   8.1603832e-07
     0.32792793   7.6113422e-17   1.5401764e-20               0   -0.0017354155  -6.7018344e-07               0    0.0027911571      0.43280341    0.0057206844   8.1554996e-07
     0.33003003   7.5778036e-17   1.4956859e-20               0   -0.0017329405  -6.6550368e-07               0    0.0027830987      0.43206811     0.005714209    8.150613e-07
     0.33213213   7.5778036e-17   1.4956859e-20               0   -0.0017305336  -6.6078229e-07               0     0.002775153      0.43132903    0.0057076837   8.1456746e-07
     0.33423423   7.5778036e-17   1.4956859e-20               0   -0.0017281268   -6.560609e-07               0    0.0027672073      0.43058996    0.0057011584   8.1407362e-07
     0.33633634   7.5778036e-17   1.4956859e-20               0   -0.0017257199  -6.5133951e-07               0    0.0027592616      0.42985088    0.0056946331   8.1357978e-07
     0.33843844   7.5778036e-17   1.4956859e-20               0   -0.0017233131  -6.4661811e-07               0    0.0027513159       0.4291118    0.0056881078   8.1308594e-07
     0.34054054   7.5447094e-17   1.4570166e-20               0   -0.0017209207  -6.4210623e-07               0    0.0027433874      0.42837366     0.005681587   8.1259211e-07
     0.34264264   7.5447094e-17   1.4570166e-20               0   -0.0017185844  -6.3840853e-07               0    0.0027355257      0.42763913    0.0056750835   8.1209836e-07
     0.34474474   7.5447094e-17   1.4570166e-20               0   -0.0017162482  -6.3471083e-07               0    0.0027276641       0.4269046      0.00566858   8.1160461e-07
     0.34684685   7.5447094e-17   1.4570166e-20               0   -0.0017139119  -6.3101313e-07               0    0.0027198024      0.42617007    0.0056620765   8.1111086e-07
     0.34894895   7.5447094e-17   1.4570166e-20               0   -0.0017115757  -6.2731543e-07               0    0.0027119408      0.42543554     0.005655573   8.1061711e-07
     0.35105105   7.5118933e-17   1.4335441e-20               0   -0.0017092524  -6.2381607e-07               0    0.0027041146      0.42470214    0.0056490756   8.1012349e-07
     0.35315315   7.5118933e-17   1.4335441e-20               0   -0.0017069797  -6.2108506e-07               0    0.0026964259      0.42397311     0.005642602    8.096304e-07