#      distance             U_x             U_y             U_z wallShearStr... wallShearStr... wallShearStr...               p           omega               k             nut
              0      0.99950961               0               0               0               0               0    0.0046624412        144.9334   2.0223336e-05   1.3953545e-07
   0.0021021021      0.99949546               0               0               0               0               0    0.0046806361        144.9426   2.0215259e-05   1.3947087e-07
   0.0042042042       0.9994813               0               0               0               0               0    0.0046988309       144.95181   2.0207181e-05   1.3940628e-07
   0.0063063063      0.99946715               0               0               0               0               0    0.0047170257       144.96101   2.0199104e-05    1.393417e-07
   0.0084084084        0.999453               0               0               0               0               0    0.0047352206       144.97021   2.0191027e-05   1.3927712e-07
    0.010510511      0.99943682               0               0               0               0               0    0.0047558434       144.97965   2.0183743e-05   1.3921781e-07
    0.012612613      0.99941938               0               0               0               0               0    0.0047779743       144.98926   2.0176953e-05   1.3916176e-07
    0.014714715      0.99940194               0               0               0               0               0    0.0048001052       144.99886   2.0170162e-05   1.3910572e-07
    0.016816817       0.9993845               0               0               0               0               0     0.004822236       145.00846   2.0163372e-05   1.3904968e-07
    0.018918919      0.99936706               0               0               0               0               0    0.0048443669       145.01806   2.0156582e-05   1.3899364e-07
    0.021021021      0.99934909               0               0               0               0               0     0.004867115       145.02778    2.014993e-05   1.3893845e-07
    0.023123123      0.99932755               0               0               0               0               0     0.004894013       145.03825    2.014421e-05   1.3888899e-07
    0.025225225      0.99930601               0               0               0               0               0    0.0049209109       145.04872    2.013849e-05   1.3883953e-07
    0.027327327      0.99928448               0               0               0               0               0    0.0049478088       145.05919    2.013277e-05   1.3879007e-07
    0.029429429      0.99926294               0               0               0               0               0    0.0049747068       145.06966    2.012705e-05   1.3874062e-07
    0.031531532       0.9992401               0               0               0               0               0    0.0050030931       145.08043   2.0121568e-05   1.3869253e-07
    0.033633634      0.99921342               0               0               0               0               0    0.0050358267       145.09207   2.0116782e-05   1.3864842e-07
    0.035735736      0.99918675               0               0               0               0               0    0.0050685603        145.1037   2.0111995e-05   1.3860432e-07
    0.037837838      0.99916007               0               0               0               0               0    0.0051012939       145.11534   2.0107209e-05   1.3856022e-07
     0.03993994       0.9991334               0               0               0               0               0    0.0051340275       145.12697   2.0102422e-05   1.3851612e-07
    0.042042042      0.99910075               0               0               0               0               0    0.0051733807        145.1399   2.0098412e-05   1.3847616e-07
    0.044144144      0.99906754               0               0               0               0               0    0.0052133542       145.15294   2.0094475e-05    1.384366e-07
    0.046246246      0.99903433               0               0               0               0               0    0.0052533276       145.16598   2.0090538e-05   1.3839703e-07
    0.048348348      0.99900082               0               0               0               0               0    0.0052936365       145.17909    2.008663e-05   1.3835761e-07
     0.05045045       0.9989592               0               0               0               0               0    0.0053427493        145.1938   2.0083497e-05   1.3832202e-07
    0.052552553      0.99891758               0               0               0               0               0     0.005391862        145.2085   2.0080364e-05   1.3828644e-07
    0.054654655      0.99887596               0               0               0               0               0    0.0054409748       145.22321   2.0077231e-05   1.3825086e-07
    0.056756757       0.9988281               0               0               0               0               0    0.0054966769       145.23897   2.0074533e-05   1.3821729e-07
    0.058858859      0.99877532               0               0               0               0               0     0.005557574       145.25555   2.0072178e-05    1.381853e-07
    0.060960961      0.99872253               0               0               0               0               0    0.0056184711       145.27212   2.0069823e-05   1.3815332e-07
    0.063063063      0.99866342               0               0               0               0               0    0.0056860385       145.28972   2.0067814e-05   1.3812276e-07
    0.065165165      0.99859575               0               0               0               0               0     0.005762624       145.30867   2.0066274e-05   1.3809414e-07
    0.067267267      0.99852807               0               0               0               0               0    0.0058392095       145.32763   2.0064733e-05   1.3806552e-07
    0.069369369      0.99844752               0               0               0               0               0    0.0059283933       145.34739   2.0063583e-05   1.3803885e-07
    0.071471471      0.99835779               0               0               0               0               0    0.0060265596       145.36771   2.0062712e-05   1.3801355e-07
    0.073573574      0.99826805               0               0               0               0               0    0.0061247258       145.38803   2.0061841e-05   1.3798826e-07
    0.075675676      0.99814931               0               0               0               0               0    0.0062545864       145.41601   2.0062439e-05   1.3796584e-07
    0.077777778      0.99803024               0               0               0               0               0    0.0063848069       145.44407   2.0063055e-05   1.3794344e-07
     0.07987988      0.99787423               0               0               0               0               0    0.0065441477        145.4608   2.0062479e-05   1.3792362e-07
    0.081981982       0.9976934               0               0               0               0               0    0.0067230665        145.4699   2.0061102e-05   1.3790551e-07
    0.084084084      0.99748871               0               0               0               0               0    0.0069375865       145.51609   2.0065024e-05   1.3788871e-07
    0.086186186      0.99724384               0               0               0               0               0    0.0072120765       145.62473   2.0077872e-05   1.3787408e-07
    0.088288288      0.99686127               0  -3.1935047e-22               0               0               0    0.0075264215       145.62512   2.0075196e-05   1.3785527e-07
     0.09039039      0.99611789               0   -1.475576e-21               0               0               0    0.0079452086       145.34184   2.0031837e-05   1.3782547e-07
    0.092492492      0.99540816               0   1.0169929e-17               0               0               0    0.0085576807       149.85556   2.0221281e-05   1.3578202e-07
    0.094594595      0.99478716               0   4.7164946e-17               0               0               0    0.0096808731       167.01831   2.1024591e-05   1.2842882e-07
    0.096696697      0.90673958               0   7.1720452e-17  -0.00046112103  -3.0811972e-06               0     0.010454988       1403748.4   1.9805839e-05   1.1140713e-07
    0.098798799      0.64612105               0    7.172166e-17   -0.0018324469  -1.2244356e-05               0     0.010540059       5577819.3   1.4595744e-05   7.5300877e-08
      0.1009009      0.38554686               0   5.5616533e-17   -0.0029040824  -1.7544216e-05   8.0201541e-20    0.0096949244       9751109.9   9.0117225e-06   4.2392437e-08
       0.103003      0.12503181               0   1.8036292e-17   -0.0035761308  -1.7693011e-05   2.6733847e-19    0.0076095148        13923360   2.9291308e-06   1.3747753e-08
     0.10510511               0               0               0   -0.0035290152  -1.3040342e-05   4.6876918e-19    0.0059490312        15925793   1.3655314e-08               0
     0.10720721               0               0               0   -0.0028182132  -3.9566049e-06   6.8339102e-19    0.0046806942        15925793   2.0978722e-08               0
     0.10930931               0               0               0   -0.0025208236   -2.014614e-07   6.1389219e-19    0.0042406033        15925793    2.670514e-08               0
     0.11141141               0               0               0   -0.0025035275  -5.6525067e-08   3.5189707e-19    0.0043616624        15925793   3.1349572e-08               0
     0.11351351               0               0               0   -0.0024892458  -7.5656971e-09   1.2333859e-19     0.004485105        15925793   3.3411353e-08               0
     0.11561562               0               0               0   -0.0024765438  -8.9031559e-09   -8.769738e-20    0.0046097967        15925793   3.4119692e-08               0
     0.11771772               0               0               0   -0.0024523168  -1.0785478e-08  -9.7560432e-20    0.0046203362        15925793   3.3813601e-08               0
     0.11981982               0               0               0   -0.0024231391  -1.2901854e-08  -2.1007304e-20    0.0045818403        15925793   3.3071749e-08               0
     0.12192192               0               0               0   -0.0023924625  -1.3378733e-08               0    0.0045036394        15925793   3.2185099e-08               0
     0.12402402               0               0               0   -0.0023612191  -1.3235558e-08               0    0.0044104221        15925793   3.1243686e-08               0
     0.12612613               0               0               0   -0.0023324894  -1.2591784e-08               0    0.0043363381        15925793   3.0392855e-08               0
     0.12822823               0               0               0   -0.0023046722  -1.1766311e-08               0    0.0042691986        15925793   2.9574902e-08               0
     0.13033033               0               0               0   -0.0022797537  -1.0960317e-08               0    0.0042212536        15925793   2.8848379e-08               0
     0.13243243               0               0               0   -0.0022559448  -1.0161779e-08               0    0.0041806563        15925793   2.8156857e-08               0
     0.13453453               0               0               0   -0.0022343755  -9.4814881e-09  -1.4535963e-19    0.0041435815        15925793   2.7532121e-08               0
     0.13663664               0               0               0   -0.0022137969  -8.8535069e-09  -3.5502366e-19     0.004108065        15925793    2.693693e-08               0
     0.13873874               0               0               0   -0.0021948444  -8.3128007e-09  -4.2979733e-19    0.0040727093        15925793   2.6392205e-08               0
     0.14084084               0               0               0   -0.0021767934  -7.8204734e-09  -4.2979737e-19    0.0040374429        15925793   2.5875454e-08               0
     0.14294294               0               0               0   -0.0021599088  -7.3901975e-09  -4.0635784e-19    0.0040035893        15925793   2.5395715e-08               0
     0.14504505               0               0               0   -0.0021438948  -7.0062339e-09  -3.6542406e-19    0.0039707903        15925793   2.4943599e-08               0
     0.14714715               0               0               0   -0.0021286293  -6.6660133e-09  -2.7254461e-19     0.003939344        15925793   2.4514351e-08               0
     0.14924925               0               0               0   -0.0021141737  -6.3731243e-09  -1.2345762e-19    0.0039093615        15925793   2.4109849e-08               0
     0.15135135               0               0               0   -0.0021001615  -6.0998873e-09  -1.9559151e-20    0.0038801658        15925793   2.3718799e-08               0
     0.15345345               0               0               0   -0.0020869189  -5.8607511e-09   5.9256446e-21    0.0038523353        15925793   2.3351092e-08               0
     0.15555556               0               0               0   -0.0020739211  -5.6279725e-09  -7.5970746e-21    0.0038249257        15925793   2.2991244e-08               0
     0.15765766               0               0               0    -0.002061754  -5.4167573e-09  -1.5342585e-19    0.0037989434        15925793   2.2658052e-08               0
     0.15975976               0               0               0   -0.0020496505  -5.2069912e-09  -2.7357549e-19    0.0037730819        15925793   2.2326911e-08               0
     0.16186186               0               0               0   -0.0020384521   -5.017816e-09  -2.8825171e-20    0.0037489373        15925793   2.2024902e-08               0
     0.16396396               0               0               0   -0.0020272537  -4.8286409e-09   2.1592514e-19    0.0037247928        15925793   2.1722894e-08               0
     0.16606607               0               0               0   -0.0020168317  -4.6575885e-09   2.4557303e-19    0.0037022491        15925793     2.14455e-08               0
     0.16816817               0               0               0   -0.0020065167   -4.489034e-09   2.4557306e-19    0.0036799261        15925793   2.1171498e-08               0
     0.17027027               0               0               0   -0.0019967253  -4.3347919e-09   1.4122523e-19    0.0036586003        15925793    2.091374e-08               0
     0.17237237               0               0               0   -0.0019871962  -4.1877231e-09  -1.5420236e-20    0.0036377744        15925793   2.0664124e-08               0
     0.17447447               0               0               0   -0.0019779608  -4.0486849e-09  -1.0523649e-19    0.0036175092        15925793   2.0423481e-08               0
     0.17657658               0               0               0     -0.00196912  -3.9204396e-09   -1.052365e-19    0.0035979976        15925793     2.01949e-08               0
     0.17867868               0               0               0    -0.001960377  -3.7946825e-09  -1.1062715e-19    0.0035786587        15925793    1.996928e-08               0
     0.18078078               0               0               0   -0.0019521494  -3.6820526e-09  -1.4445682e-19    0.0035602311        15925793   1.9759281e-08               0
     0.18288288               0               0               0   -0.0019439219  -3.5694227e-09  -1.7828649e-19    0.0035418035        15925793   1.9549283e-08               0
     0.18498498               0               0               0   -0.0019361642  -3.4686997e-09  -1.1930462e-19     0.003524259        15925793   1.9353364e-08               0
     0.18708709               0               0               0   -0.0019284811  -3.3698624e-09  -4.5624134e-20    0.0035068545        15925793   1.9159676e-08               0
     0.18918919               0               0               0   -0.0019210583  -3.2770758e-09   3.0167431e-20    0.0034899142        15925793   1.8973712e-08               0
     0.19129129               0               0               0   -0.0019138597  -3.1894983e-09    1.077764e-19    0.0034733736        15925793     1.87944e-08               0
     0.19339339               0               0               0   -0.0019067404  -3.1035315e-09   1.5842236e-19    0.0034569825        15925793   1.8617425e-08               0
      0.1954955               0               0               0   -0.0018999812  -3.0248762e-09   8.6685114e-20    0.0034412699        15925793    1.845106e-08               0
      0.1975976               0               0               0    -0.001893222  -2.9462208e-09   1.4947864e-20    0.0034255573        15925793   1.8284695e-08               0
      0.1996997               0               0               0   -0.0018867809  -2.8735251e-09               0    0.0034105694        15925793   1.8127563e-08               0
      0.2018018               0               0               0   -0.0018804236  -2.8023981e-09               0    0.0033957722        15925793    1.797286e-08               0
      0.2039039               0               0               0   -0.0018742026  -2.7339213e-09  -2.0242598e-20     0.003381152        15925793   1.7822071e-08               0
     0.20600601               0               0               0   -0.0018682144  -2.6699674e-09  -7.5031532e-20    0.0033668339        15925793    1.767796e-08               0
     0.20810811               0               0               0   -0.0018622262  -2.6060135e-09  -1.2982047e-19    0.0033525158        15925793   1.7533849e-08               0
     0.21021021               0               0               0   -0.0018565431  -2.5477472e-09  -1.3459735e-19    0.0033388027        15925793   1.7398453e-08               0
     0.21231231               0               0               0   -0.0018508892  -2.4900241e-09  -1.3459737e-19    0.0033251475        15925793   1.7263889e-08               0
     0.21441441               0               0               0   -0.0018453656  -2.4343893e-09  -1.1222796e-19    0.0033118422        15925793   1.7132984e-08               0
     0.21651652               0               0               0   -0.0018400216  -2.3816339e-09  -5.9017352e-20    0.0032990193        15925793   1.7007123e-08               0
     0.21861862               0               0               0   -0.0018346775  -2.3288785e-09  -5.8067417e-21    0.0032861965        15925793   1.6881261e-08               0
     0.22072072               0               0               0   -0.0018295893  -2.2809156e-09               0    0.0032736165        15925793   1.6762494e-08               0
     0.22282282               0               0               0   -0.0018245325  -2.2335398e-09               0    0.0032610662        15925793   1.6644596e-08               0
     0.22492492               0               0               0   -0.0018195588   -2.187682e-09               0    0.0032486781        15925793   1.6529001e-08               0
     0.22702703               0               0               0   -0.0018147595   -2.145008e-09               0    0.0032366303        15925793   1.6418236e-08               0
     0.22912913               0               0               0   -0.0018099603   -2.102334e-09               0    0.0032245825        15925793   1.6307472e-08               0
     0.23123123               0               0               0   -0.0018053332  -2.0619531e-09  -2.7823668e-20    0.0032130484        15925793   1.6201408e-08               0
     0.23333333               0               0               0   -0.0018007747  -2.0224867e-09  -6.6743294e-20    0.0032017192        15925793   1.6097219e-08               0
     0.23543544               0               0               0   -0.0017962311  -1.9832549e-09  -1.0072526e-19    0.0031904031        15925793    1.599343e-08               0
     0.23753754               0               0               0   -0.0017918997  -1.9473698e-09  -6.4245955e-20    0.0031792734        15925793   1.5895351e-08               0
     0.23963964               0               0               0   -0.0017875682  -1.9114847e-09  -2.7766652e-20    0.0031681437        15925793   1.5797272e-08               0
     0.24174174               0               0               0   -0.0017833134  -1.8768745e-09   9.1576984e-21    0.0031571299        15925793    1.570126e-08               0
     0.24384384               0               0               0   -0.0017791876  -1.8444068e-09   4.6830039e-20    0.0031463107        15925793   1.5608721e-08               0
     0.24594595               0               0               0   -0.0017750617  -1.8119392e-09   8.4502379e-20    0.0031354916        15925793   1.5516182e-08               0
     0.24804805               0               0               0   -0.0017710582   -1.780911e-09   7.5780644e-20    0.0031250594        15925793   1.5426907e-08               0
     0.25015015               0               0               0   -0.0017671247  -1.7507068e-09   4.0495159e-20    0.0031148488        15925793   1.5339502e-08               0
     0.25225225               0               0               0   -0.0017631913  -1.7205027e-09   5.2096747e-21    0.0031046382        15925793   1.5252096e-08               0
     0.25435435               0               0               0   -0.0017594145  -1.6923952e-09               0    0.0030946827        15925793   1.5168786e-08               0
     0.25645646               0               0               0   -0.0017556649  -1.6646509e-09               0    0.0030847714        15925793   1.5086185e-08               0
     0.25855856               0               0               0   -0.0017519187  -1.6369632e-09   5.8300532e-22     0.003074862        15925793   1.5003674e-08               0
     0.26066066               0               0               0   -0.0017483368  -1.6119707e-09   2.8891259e-20     0.003065048        15925793   1.4925452e-08               0
     0.26276276               0               0               0    -0.001744755  -1.5869782e-09   5.7199512e-20    0.0030552341        15925793    1.484723e-08               0
     0.26486486               0               0               0   -0.0017411946  -1.5622356e-09   8.1580575e-20    0.0030454819        15925793   1.4769571e-08               0
     0.26696697               0               0               0   -0.0017377676  -1.5390445e-09   8.1580595e-20    0.0030361139        15925793   1.4695405e-08               0
     0.26906907               0               0               0   -0.0017343406  -1.5158534e-09   8.1580614e-20    0.0030267458        15925793    1.462124e-08               0
     0.27117117               0               0               0   -0.0017309442  -1.4929487e-09   7.5989685e-20    0.0030174824        15925793   1.4547861e-08               0
     0.27327327               0               0               0   -0.0017276671  -1.4711565e-09   4.8687855e-20    0.0030086249        15925793   1.4477533e-08               0
     0.27537538               0               0               0   -0.0017243899  -1.4493642e-09   2.1386025e-20    0.0029997675        15925793   1.4407206e-08               0
     0.27747748               0               0               0   -0.0017211434  -1.4279966e-09  -5.0944664e-21    0.0029909233        15925793    1.433765e-08               0
     0.27957958               0               0               0   -0.0017180076  -1.4081637e-09  -2.8605766e-20    0.0029821272        15925793   1.4270879e-08               0
     0.28168168               0               0               0   -0.0017148719  -1.3883309e-09  -5.2117066e-20     0.002973331        15925793   1.4204109e-08               0
     0.28378378               0               0               0   -0.0017117584  -1.3688079e-09   -7.157849e-20    0.0029645458        15925793   1.4137904e-08               0
     0.28588589               0               0               0   -0.0017087514  -1.3507736e-09  -7.1578509e-20     0.002955813        15925793   1.4074413e-08               0
     0.28798799               0               0               0   -0.0017057445  -1.3327393e-09  -7.1578528e-20    0.0029470802        15925793   1.4010922e-08               0
     0.29009009               0               0               0   -0.0017027461  -1.3147962e-09  -7.0012748e-20    0.0029383793        15925793   1.3947647e-08               0
     0.29219219               0               0               0   -0.0016998611  -1.2980797e-09  -4.7390252e-20    0.0029301065        15925793   1.3887261e-08               0
     0.29429429               0               0               0   -0.0016969761  -1.2813632e-09  -2.4767757e-20    0.0029218337        15925793   1.3826875e-08               0
      0.2963964               0               0               0   -0.0016940911  -1.2646467e-09  -2.1452618e-21     0.002913561        15925793    1.376649e-08               0
      0.2984985               0               0               0   -0.0016913101  -1.2492568e-09               0    0.0029056552        15925793   1.3708616e-08               0
      0.3006006               0               0               0   -0.0016885399  -1.2340059e-09               0    0.0028977879        15925793   1.3651005e-08               0
      0.3027027               0               0               0   -0.0016857698   -1.218755e-09               0    0.0028899207        15925793   1.3593395e-08               0
      0.3048048               0               0               0    -0.001683071  -1.2043776e-09   1.2557473e-20    0.0028820534        15925793   1.3537449e-08               0
     0.30690691               0               0               0   -0.0016804061  -1.1904158e-09   3.1089576e-20    0.0028741861        15925793   1.3482296e-08               0
     0.30900901               0               0               0   -0.0016777412   -1.176454e-09   4.9621679e-20    0.0028663189        15925793   1.3427142e-08               0
     0.31111111               0               0               0    -0.001675115  -1.1627657e-09   5.7690347e-20    0.0028584722        15925793   1.3372929e-08               0
     0.31321321               0               0               0   -0.0016725507  -1.1495164e-09   4.8964846e-20    0.0028506587        15925793   1.3320225e-08               0
     0.31531532               0               0               0   -0.0016699865  -1.1362672e-09   4.0239345e-20    0.0028428451        15925793   1.3267522e-08               0
     0.31741742               0               0               0   -0.0016674244  -1.1230288e-09   3.1669914e-20    0.0028350401        15925793    1.321487e-08               0
     0.31951952               0               0               0   -0.0016649592  -1.1102897e-09   3.0312261e-20    0.0028276273        15925793   1.3164614e-08               0
     0.32162162               0               0               0    -0.001662494  -1.0975507e-09   2.8954607e-20    0.0028202145        15925793   1.3114358e-08               0
     0.32372372               0               0               0   -0.0016600288  -1.0848116e-09   2.7596954e-20    0.0028128018        15925793   1.3064103e-08               0
     0.32582583               0               0               0   -0.0016576204   -1.072497e-09   3.1939936e-20    0.0028055988        15925793   1.3015212e-08               0
     0.32792793               0               0               0   -0.0016552521  -1.0604815e-09   4.0300329e-20    0.0027985437        15925793   1.2967284e-08               0
     0.33003003               0               0               0   -0.0016528837   -1.048466e-09   4.8660721e-20    0.0027914885        15925793   1.2919356e-08               0
     0.33213213               0               0               0   -0.0016505225  -1.0365262e-09   5.5166432e-20     0.002784435        15925793   1.2871596e-08               0
     0.33423423               0               0               0   -0.0016482459  -1.0254929e-09   3.9452925e-20    0.0027774012        15925793   1.2825844e-08               0
     0.33633634               0               0               0   -0.0016459693  -1.0144596e-09   2.3739418e-20    0.0027703674        15925793   1.2780092e-08               0
     0.33843844               0               0               0   -0.0016436927  -1.0034263e-09   8.0259115e-21    0.0027633335        15925793    1.273434e-08               0
     0.34054054               0               0               0    -0.001641458  -9.9281858e-10  -1.0042168e-20    0.0027563082        15925793   1.2689594e-08               0
     0.34264264               0               0               0   -0.0016392668  -9.8265506e-10  -3.0568442e-20    0.0027492918        15925793   1.2645896e-08               0
     0.34474474               0               0               0   -0.0016370757  -9.7249154e-10  -5.1094715e-20    0.0027422754        15925793   1.2602199e-08               0
     0.34684685               0               0               0   -0.0016348845  -9.6232803e-10  -7.1620988e-20     0.002735259        15925793   1.2558501e-08               0
     0.34894895               0               0               0   -0.0016327603  -9.5265612e-10  -7.5321071e-20    0.0027284694        15925793   1.2516413e-08               0
     0.35105105               0               0               0   -0.0016306508  -9.4309232e-10    -7.53211e-20    0.0027217297        15925793   1.2474679e-08               0
     0.35315315               0               0               0   -0.0016285413  -9.3352853e-10  -7.5321129e-20      0.00271499        15925793   1.2432945e-08               0