#      distance             U_x             U_y             U_z wallShearStr... wallShearStr... wallShearStr...               p           omega               k             nut
  3.0219182e-06     0.018437891   2.6284549e-09  -3.4461374e-23               0               0               0   0.00023276699       5570601.8   3.9968251e-07   3.7390978e-13
  5.0865428e-06     0.031038034   6.6678364e-09   -1.461154e-23               0               0               0    0.0002327672       1240850.2   1.8252606e-06   3.4559014e-12
  7.2269684e-06     0.044100082   1.3130514e-08  -3.7643241e-23               0               0               0   0.00023276742       495682.18    5.756912e-06   1.9325631e-11
  9.4750924e-06     0.057816668   2.2378943e-08  -5.6458823e-23               0               0               0   0.00023276764       256764.63   1.4417805e-05     7.88196e-11
  1.1864417e-05     0.072385796   3.4924587e-08  -2.3400987e-23               0               0               0   0.00023276787       152802.43   3.1086347e-05   2.5990344e-10
  1.4430548e-05     0.088006882   5.1501816e-08   7.8882656e-23               0               0               0   0.00023276812        99058.22   6.0518603e-05   7.3658741e-10
  1.7211727e-05      0.10486871   7.3068695e-08   1.2748067e-22               0               0               0    0.0002327684       68139.935   0.00010940362   1.8611129e-09
  2.0249401e-05      0.12312316   1.0082008e-07   2.8786679e-23               0               0               0   0.00023276873       49052.781   0.00018656239   4.2814127e-09
  2.3588836e-05       0.1428396   1.3617979e-07  -3.0451857e-23               0               0               0   0.00023276911       36671.308   0.00030228813   9.0656014e-09
  2.7279799e-05      0.16394567   1.8073721e-07  -1.5225929e-23               0               0               0    0.0002327696       28321.835   0.00046603777   1.7755295e-08
  3.1377293e-05       0.1861822   2.3612618e-07               0               0               0               0   0.00023277022       22484.258   0.00068235545   3.2248233e-08
  3.5942381e-05      0.20911573   3.0390853e-07   7.1949578e-23               0               0               0   0.00023277105       18244.023   0.00094682883   5.4497286e-08
  4.1043091e-05      0.23222704   3.8555573e-07   1.0791282e-22               0               0               0   0.00023277214       15039.648    0.0012453319   8.6183022e-08
  4.6755437e-05      0.25503551   4.8251422e-07   1.2149726e-22               0               0               0   0.00023277355       12530.034    0.0015580307   1.2857469e-07
  5.3164546e-05      0.27720466   5.9646084e-07    1.282873e-22               0               0               0   0.00023277535       10510.288    0.0018656955   1.8205241e-07
  6.0365928e-05      0.29857467   7.2962141e-07  -1.9330803e-22               0               0               0   0.00023277759       8853.5791    0.0021545083   2.4683786e-07
    6.84669e-05      0.31908962    8.847143e-07  -4.1173397e-22               0               0               0   0.00023278039       7476.9374    0.0024168741   3.2495171e-07
  7.7588184e-05       0.3387126   1.0647527e-06  -2.1503827e-22               0               0               0   0.00023278386       6324.5491    0.0026493285   4.1961675e-07
   8.786571e-05      0.35741901   1.2731065e-06    6.135567e-23               0               0               0   0.00023278815       5357.5391    0.0028511042   5.3377084e-07
  9.9452634e-05      0.37521864   1.5136492e-06   2.7236194e-22               0               0               0    0.0002327934       4546.6252    0.0030236993    6.699452e-07
  0.00011252163      0.39216376   1.7909151e-06   5.6552799e-23               0               0               0   0.00023279972       3867.6645    0.0031701509   8.2954907e-07
  0.00012726745      0.40834856   2.1104019e-06  -1.5312012e-22               0               0               0    0.0002328072       3299.2828    0.0032941992   1.0127849e-06
  0.00014390985      0.42388506   2.4786911e-06  -3.8032261e-23               0               0               0   0.00023281601       2822.4269    0.0033995545   1.2215793e-06
  0.00016269684      0.43886725   2.9032039e-06   6.8210106e-23               0               0               0   0.00023282634       2421.0097    0.0034893248   1.4605674e-06
  0.00018390838      0.45336297   3.3922388e-06   5.4409911e-22               0               0               0   0.00023283848        2082.004    0.0035658994   1.7344576e-06
  0.00020786057       0.4674274   3.9553804e-06   6.7966306e-22               0               0               0    0.0002328527       1794.8363    0.0036312172     2.04758e-06
  0.00023491035      0.48110989   4.6037086e-06   2.0377405e-22               0               0               0    0.0002328693       1550.8452    0.0036869325   2.4048036e-06
  0.00026546084      0.49445439   5.3499223e-06               0               0               0               0   0.00023288865       1342.9264    0.0037344405   2.8115955e-06
   0.0002999673          0.5075   6.2085914e-06               0               0               0               0   0.00023291114        1165.241    0.0037749083   3.2740854e-06
  0.00033894396       0.5202815   7.1964452e-06   -1.851246e-22               0               0               0   0.00023293723       1012.9787    0.0038093067    3.799135e-06
  0.00038297165      0.53282987   8.3326975e-06   -3.702492e-22               0               0               0   0.00023296743       882.16474    0.0038384389   4.3944108e-06
  0.00043270649       0.5451728    9.639422e-06   8.0095927e-22               0               0               0   0.00023300235        769.5051    0.0038629653   5.0684607e-06
  0.00048888965      0.55733512   1.1141986e-05   1.5554393e-21               0               0               0   0.00023304265       672.26038    0.0038834248   5.8307907e-06
  0.00055235838      0.56933924   1.2869557e-05   5.6935542e-22               0               0               0   0.00023308909        588.1448    0.0039002518   6.6919404e-06
   0.0006240585      0.58120548   1.4855695e-05               0               0               0               0   0.00023314253       515.24439    0.0039137907   7.6635536e-06
  0.00070505852      0.59295245    1.713904e-05   2.3905839e-22               0               0               0   0.00023320396       451.95104    0.0039243067   8.7584377e-06
  0.00079656552      0.60459732   1.9764124e-05   4.7811678e-22               0               0               0   0.00023327447       396.90903    0.0039319947   9.9906058e-06
  0.00089994316      0.61615612   2.2782329e-05   2.3905839e-22               0               0               0    0.0002333553       348.97171    0.0039369852   1.1375289e-05
    0.001016732        0.627644   2.6253019e-05               0               0               0               0   0.00023344783       307.16618    0.0039393494   1.2928908e-05
   0.0011486725      0.63907554   3.0244892e-05   1.0417275e-21               0               0               0    0.0002335536       270.66456    0.0039391017   1.4668982e-05
   0.0012977308      0.65046496   3.4837601e-05  -7.8789606e-22               0               0               0   0.00023367435       238.76032    0.0039362004   1.6613949e-05
   0.0014661282      0.66182639   4.0123711e-05  -3.4905347e-21               0               0               0   0.00023381196       210.84897    0.0039305479   1.8782869e-05
   0.0016563743       0.6731742   4.6211075e-05  -2.6967077e-21               0               0               0   0.00023396854       186.41204    0.0039219883   2.1194957e-05
   0.0018713042      0.68452329   5.3225754e-05  -1.5854653e-21               0               0               0   0.00023414634       165.00389    0.0039103036   2.3868887e-05
   0.0021141207      0.69588943   6.1315622e-05  -5.4966863e-22               0               0               0   0.00023434783       146.24069    0.0038952083   2.6821805e-05
   0.0023884425      0.70728968   7.0654869e-05  -4.0098679e-22               0               0               0   0.00023457558       129.79136    0.0038763414   3.0067929e-05
   0.0026983575      0.71874288   8.1449679e-05    1.244369e-21               0               0               0   0.00023483227       115.36992    0.0038532563   3.3616632e-05
   0.0030484842      0.73027022   9.3945458e-05  -2.2368203e-21               0               0               0   0.00023512062       102.72911    0.0038254067   3.7469844e-05
   0.0034440402      0.74189597   0.00010843615  -5.6989967e-21               0               0               0   0.00023544316       91.655151    0.0037921286   4.1618597e-05
   0.0038909203      0.75364837   0.00012527638  -1.8168205e-21               0               0               0   0.00023580214       81.963264    0.0037526171   4.6038488e-05
    0.004395784      0.76556078    0.0001448975   3.1397399e-21               0               0               0   0.00023619912       73.494064    0.0037058953   5.0683848e-05
   0.0049661549      0.77767319   0.00016782959  -4.6845742e-21               0               0               0   0.00023663467       66.110586     0.003650774   5.5480383e-05
   0.0056105328      0.79003408   0.00019473173  -1.3757686e-20               0               0               0   0.00023710759       59.695998    0.0035857992   6.0316129e-05
   0.0063385204      0.80270304   0.00022643022   5.3445728e-21               0               0               0    0.0002376129       54.151986    0.0035091837   6.5030737e-05
   0.0071609664      0.81575416   0.00026394791   1.8558431e-20               0               0               0   0.00023813778       49.398001    0.0034187224   6.9403378e-05
   0.0080901272      0.82929288   0.00030865309   2.9365209e-20               0               0               0   0.00023866644       45.366292    0.0033113887   7.3002822e-05
   0.0091398493      0.84349121   0.00036255495   3.4051288e-20               0               0               0   0.00023918414       41.988115    0.0031823964   7.5150057e-05
    0.010325776      0.85859795   0.00042856774   1.6023106e-20               0               0               0   0.00023965467       39.180372     0.003024095   7.5298375e-05
     0.01166558      0.87491337   0.00051062672   4.0565426e-21               0               0               0   0.00024000763       36.833308    0.0028246286   7.3109827e-05
    0.013179228      0.89277154   0.00061403904   1.7909598e-20               0               0               0   0.00024015095       34.787091    0.0025665972   6.8305348e-05
    0.014889277      0.91247596   0.00074574833   1.6571072e-20               0               0               0   0.00023993651       32.818683    0.0022283416   6.0909608e-05
    0.016821209      0.93403246   0.00091052985   5.0714787e-20               0               0               0   0.00023904302       30.697582    0.0017936171   5.1466078e-05
    0.019003816      0.95679145    0.0011121064   7.7419738e-20               0               0               0   0.00023727388        28.14665    0.0012634974   4.0159236e-05
    0.021469624      0.97883347    0.0013395436   4.3864664e-20               0               0               0   0.00023446774        23.07733   0.00068844391   2.6268074e-05
    0.024255377       0.9952672     0.001516605   2.4054397e-20               0               0               0   0.00022960055       14.332337   0.00023565689   1.2129025e-05
    0.027402591       1.0024697     0.001584323   5.5561143e-21               0               0               0   0.00022278753       7.3125454   3.6688608e-05   3.1149555e-06
    0.030958166        1.003776     0.001588305               0               0               0               0   0.00021582924       5.3269938   1.7760325e-06   3.2425951e-07
    0.034975088       1.0038179    0.0015795055               0               0               0               0   0.00020933811       5.2603575   6.5595343e-07   1.2469781e-07
    0.039513219       1.0038155    0.0015693761    1.970317e-20               0               0               0   0.00020287729       5.2618482   6.5391265e-07   1.2427305e-07
    0.044640187       1.0038176    0.0015601516   2.9551665e-20               0               0               0   0.00019621871       5.2622593   6.5412435e-07   1.2430341e-07
    0.050432395       1.0038245    0.0015498647   9.8484599e-21               0               0               0   0.00018935981       5.2622372   6.5413622e-07   1.2430619e-07
    0.056976161       1.0038303    0.0015380534               0               0               0               0   0.00018239832       5.2622295   6.5413299e-07   1.2430576e-07
    0.064369002       1.0038309    0.0015254743               0               0               0               0   0.00017550898       5.2622238   6.5413179e-07   1.2430567e-07
    0.072721087       1.0038279    0.0015117655               0               0               0               0   0.00016884477       5.2622136   6.5413018e-07    1.243056e-07
    0.082156882       1.0038227    0.0014970805               0               0               0               0   0.00016249313       5.2621961   6.5412763e-07   1.2430553e-07
    0.092817002        1.003815    0.0014811886               0               0               0               0   0.00015653503       5.2621689   6.5412383e-07   1.2430545e-07
