#      distance             U_x             U_y             U_z wallShearStr... wallShearStr... wallShearStr...               p           omega               k             nut
              0      0.99938601               0               0               0               0               0    0.0046624761       45.593306   6.6412025e-06    1.456416e-07
   0.0021021021      0.99936787               0               0               0               0               0     0.004680666       45.423009   6.6030673e-06   1.4534699e-07
   0.0042042042      0.99934972               0               0               0               0               0     0.004698856       45.252712   6.5649322e-06   1.4505239e-07
   0.0063063063      0.99933158               0               0               0               0               0    0.0047170459       45.082415    6.526797e-06   1.4475779e-07
   0.0084084084      0.99931344               0               0               0               0               0    0.0047352358       44.912118   6.4886618e-06   1.4446319e-07
    0.010510511      0.99929287               0               0               0               0               0    0.0047558525       44.754992   6.4528354e-06      1.4417e-07
    0.012612613      0.99927079               0               0               0               0               0    0.0047779763       44.606048   6.4184429e-06    1.438777e-07
    0.014714715      0.99924872               0               0               0               0               0    0.0048001002       44.457103   6.3840504e-06   1.4358539e-07
    0.016816817      0.99922664               0               0               0               0               0     0.004822224       44.308158   6.3496579e-06   1.4329308e-07
    0.018918919      0.99920457               0               0               0               0               0    0.0048443479       44.159213   6.3152655e-06   1.4300078e-07
    0.021021021      0.99918187               0               0               0               0               0    0.0048670886       44.012369   6.2812474e-06   1.4270889e-07
    0.023123123      0.99915503               0               0               0               0               0    0.0048939769       43.879647   6.2497464e-06   1.4241986e-07
    0.025225225      0.99912818               0               0               0               0               0    0.0049208651       43.746925   6.2182453e-06   1.4213083e-07
    0.027327327      0.99910133               0               0               0               0               0    0.0049477534       43.614203   6.1867443e-06   1.4184179e-07
    0.029429429      0.99907449               0               0               0               0               0    0.0049746417       43.481481   6.1552433e-06   1.4155276e-07
    0.031531532      0.99904615               0               0               0               0               0    0.0050030174       43.351997   6.1243278e-06   1.4126468e-07
    0.033633634      0.99901345               0               0               0               0               0     0.005035738       43.231967   6.0951225e-06   1.4097939e-07
    0.035735736      0.99898074               0               0               0               0               0    0.0050684585       43.111937   6.0659172e-06    1.406941e-07
    0.037837838      0.99894804               0               0               0               0               0    0.0051011791       42.991907    6.036712e-06    1.404088e-07
     0.03993994      0.99891534               0               0               0               0               0    0.0051338997       42.871878   6.0075067e-06   1.4012351e-07
    0.042042042      0.99887597               0               0               0               0               0    0.0051732358       42.761139    5.980005e-06    1.398418e-07
    0.044144144      0.99883597               0               0               0               0               0     0.005213192       42.651271   5.9526629e-06   1.3956043e-07
    0.046246246      0.99879597               0               0               0               0               0    0.0052531481       42.541403   5.9253209e-06   1.3927906e-07
    0.048348348      0.99875564               0               0               0               0               0    0.0052934394        42.43184   5.8980354e-06   1.3899783e-07
     0.05045045      0.99870642               0               0               0               0               0    0.0053425294       42.330278   5.8722342e-06   1.3872038e-07
    0.052552553       0.9986572               0               0               0               0               0    0.0053916194       42.228716   5.8464331e-06   1.3844293e-07
    0.054654655      0.99860799               0               0               0               0               0    0.0054407093       42.127153    5.820632e-06   1.3816548e-07
    0.056756757      0.99855204               0               0               0               0               0    0.0054963847       42.029447   5.7955544e-06   1.3789017e-07
    0.058858859       0.9984908               0               0               0               0               0     0.005557252        41.93478   5.7710472e-06   1.3761655e-07
    0.060960961      0.99842956               0               0               0               0               0    0.0056181192       41.840114     5.74654e-06   1.3734293e-07
    0.063063063       0.9983616               0               0               0               0               0    0.0056856529       41.747957   5.7225048e-06   1.3707083e-07
    0.065165165      0.99828455               0               0               0               0               0    0.0057621996       41.659194   5.6991079e-06    1.368008e-07
    0.067267267       0.9982075               0               0               0               0               0    0.0058387462        41.57043   5.6757109e-06   1.3653077e-07
    0.069369369      0.99811697               0               0               0               0               0    0.0059278831       41.484466   5.6528587e-06   1.3626287e-07
    0.071471471      0.99801683               0               0               0               0               0    0.0060259967       41.400498   5.6303948e-06   1.3599649e-07
    0.073573574      0.99791669               0               0               0               0               0    0.0061241104        41.31653   5.6079309e-06   1.3573011e-07
    0.075675676      0.99778659               0               0               0               0               0    0.0062539019       41.237921   5.5864098e-06   1.3546635e-07
    0.077777778      0.99765614               0               0               0               0               0    0.0063840531       41.159374   5.5648995e-06   1.3520263e-07
     0.07987988      0.99748777               0               0               0               0               0    0.0065432905       41.080785   5.5435247e-06   1.3494093e-07
    0.081981982      0.99729391               0               0               0               0               0     0.006722083       41.002168   5.5222411e-06   1.3468058e-07
    0.084084084      0.99707633               0               0               0               0               0    0.0069364722       40.929957   5.5021088e-06   1.3442666e-07
    0.086186186       0.9968188               0               0               0               0               0    0.0072108236       40.868537   5.4839158e-06   1.3418358e-07
    0.088288288      0.99642319               0  -3.2038007e-22               0               0               0    0.0075250634       40.790214   5.4631936e-06   1.3393314e-07
     0.09039039      0.99566573               0  -1.4803334e-21               0               0               0    0.0079438329       40.667597   5.4358436e-06    1.336634e-07
    0.092492492      0.99493776               0    7.935889e-18               0               0               0    0.0085559796       44.975694   5.5026548e-06   1.2858824e-07
    0.094594595      0.99428754               0   3.6806044e-17               0               0               0    0.0096780348        60.96696   5.8177559e-06   1.1084183e-07
    0.096696697      0.90626282               0   5.5968749e-17  -0.00046035286  -3.0792318e-06               0     0.010450858       1403650.8   5.5531628e-06   8.7327015e-08
    0.098798799      0.64576996               0   5.5969962e-17   -0.0018293943  -1.2236546e-05               0     0.010534335       5577748.9    4.144314e-06   5.2425975e-08
      0.1009009       0.3853303               0   4.3402005e-17   -0.0028986972  -1.7532975e-05   8.0157455e-20    0.0096876556       9751067.3   2.5913399e-06   2.5188317e-08
       0.103003      0.12496158               0   1.4075153e-17   -0.0035683488  -1.7681557e-05   2.6719152e-19    0.0076007678        13923346   8.4619887e-07   8.1685033e-09
     0.10510511               0               0               0   -0.0035206213  -1.3031687e-05   4.5618369e-19    0.0059399863        15925793    1.269724e-08               0
     0.10720721               0               0               0   -0.0028108549   -3.953528e-06   6.4698294e-19    0.0046724405        15925793   2.0509371e-08               0
     0.10930931               0               0               0   -0.0025150187  -2.0069253e-07   5.7170635e-19    0.0042349439        15925793   2.6479621e-08               0
     0.11141141               0               0               0   -0.0024996267  -5.5848846e-08   3.1615915e-19    0.0043598188        15925793   3.1201966e-08               0
     0.11351351               0               0               0   -0.0024866707  -7.0368948e-09   1.0518776e-19    0.0044860911        15925793   3.3317327e-08               0
     0.11561562               0               0               0   -0.0024749913  -8.5504727e-09  -8.2423636e-20    0.0046130956        15925793   3.4066496e-08               0
     0.11771772               0               0               0   -0.0024513066  -1.0558154e-08  -8.9611213e-20    0.0046241936        15925793   3.3780565e-08               0
     0.11981982               0               0               0   -0.0024224648  -1.2778084e-08   -1.929563e-20    0.0045855025        15925793   3.3049995e-08               0
     0.12192192               0               0               0   -0.0023919506  -1.3307658e-08               0    0.0045066048        15925793   3.2168513e-08               0
     0.12402402               0               0               0   -0.0023608038  -1.3197942e-08               0    0.0044125009        15925793   3.1229957e-08               0
     0.12612613               0               0               0   -0.0023321254  -1.2568875e-08               0    0.0043378637        15925793   3.0380831e-08               0
     0.12822823               0               0               0    -0.002304343  -1.1751303e-08               0    0.0042702921        15925793   2.9564165e-08               0
     0.13033033               0               0               0   -0.0022794518  -1.0948417e-08               0    0.0042221632        15925793   2.8838731e-08               0
     0.13243243               0               0               0   -0.0022556674  -1.0151153e-08               0    0.0041814771        15925793   2.8148221e-08               0
     0.13453453               0               0               0   -0.0022341213  -9.4715607e-09  -1.4519489e-19     0.004144358        15925793   2.7524392e-08               0
     0.13663664               0               0               0   -0.0022135655  -8.8440249e-09  -3.5462131e-19     0.004108817        15925793   2.6930062e-08               0
     0.13873874               0               0               0    -0.002194634  -8.3039176e-09  -4.2931024e-19    0.0040734144        15925793   2.6386088e-08               0
     0.14084084               0               0               0   -0.0021766031  -7.8122745e-09  -4.2931028e-19    0.0040380886        15925793   2.5870027e-08               0
     0.14294294               0               0               0   -0.0021597363  -7.3827536e-09  -4.0592256e-19    0.0040041761        15925793   2.5390884e-08               0
     0.14504505               0               0               0   -0.0021437386  -6.9995979e-09  -3.6507925e-19    0.0039713184        15925793   2.4939293e-08               0
     0.14714715               0               0               0   -0.0021284874  -6.6601465e-09  -2.7229772e-19     0.003939822        15925793   2.4510499e-08               0
     0.14924925               0               0               0   -0.0021140441  -6.3679851e-09  -1.2331669e-19    0.0039097985        15925793   2.4106372e-08               0
     0.15135135               0               0               0   -0.0021000431   -6.095395e-09  -1.9505768e-20    0.0038805679        15925793   2.3715659e-08               0
     0.15345345               0               0               0   -0.0020868097   -5.856766e-09   5.9234257e-21    0.0038527131        15925793   2.3348223e-08               0
     0.15555556               0               0               0   -0.0020738207  -5.6244522e-09  -7.6186356e-21    0.0038252813        15925793   2.2988633e-08               0
     0.15765766               0               0               0   -0.0020616609  -5.4135585e-09  -1.5334376e-19    0.0037992844        15925793   2.2655656e-08               0
     0.15975976               0               0               0   -0.0020495647  -5.2041085e-09  -2.7340556e-19    0.0037734083        15925793   2.2324725e-08               0
     0.16186186               0               0               0   -0.0020383723  -5.0151746e-09  -2.8791853e-20    0.0037492488        15925793   2.2022888e-08               0
     0.16396396               0               0               0   -0.0020271799  -4.8262407e-09   2.1582185e-19    0.0037250893        15925793    2.172105e-08               0
     0.16606607               0               0               0    -0.002016763  -4.6553862e-09   2.4545319e-19    0.0037025315        15925793   2.1443797e-08               0
     0.16816817               0               0               0   -0.0020064529  -4.4870237e-09   2.4545322e-19    0.0036801945        15925793   2.1169932e-08               0
     0.17027027               0               0               0   -0.0019966658  -4.3329444e-09   1.4115333e-19    0.0036588562        15925793   2.0912294e-08               0
     0.17237237               0               0               0   -0.0019871409  -4.1860237e-09  -1.5420173e-20    0.0036380183        15925793   2.0662789e-08               0
     0.17447447               0               0               0   -0.0019779092  -4.0471213e-09  -1.0519516e-19     0.003617742        15925793   2.0422249e-08               0
     0.17657658               0               0               0   -0.0019690718  -3.9189952e-09  -1.0519517e-19    0.0035982203        15925793   2.0193757e-08               0
     0.17867868               0               0               0   -0.0019603321  -3.7933551e-09   -1.105848e-19    0.0035788715        15925793   1.9968225e-08               0
     0.18078078               0               0               0   -0.0019521073  -3.6808295e-09  -1.4440808e-19    0.0035604349        15925793     1.97583e-08               0
     0.18288288               0               0               0   -0.0019438826  -3.5683038e-09  -1.7823135e-19    0.0035419982        15925793   1.9548375e-08               0
     0.18498498               0               0               0   -0.0019361273  -3.4676695e-09  -1.1926574e-19    0.0035244458        15925793   1.9352517e-08               0
     0.18708709               0               0               0   -0.0019284464  -3.3689184e-09  -4.5605095e-20    0.0035070335        15925793   1.9158887e-08               0
     0.18918919               0               0               0   -0.0019210257  -3.2762045e-09   3.0164521e-20    0.0034900864        15925793   1.8972977e-08               0
     0.19129129               0               0               0    -0.001913829   -3.188688e-09   1.0774972e-19    0.0034735398        15925793   1.8793711e-08               0
     0.19339339               0               0               0   -0.0019067116  -3.1027793e-09    1.583797e-19    0.0034571428        15925793   1.8616782e-08               0
      0.1954955               0               0               0    -0.001899954  -3.0241684e-09    8.666177e-20    0.0034414242        15925793   1.8450457e-08               0
      0.1975976               0               0               0   -0.0018931964  -2.9455575e-09   1.4943839e-20    0.0034257057        15925793   1.8284133e-08               0
      0.1996997               0               0               0   -0.0018867568  -2.8729003e-09               0    0.0034107117        15925793   1.8127035e-08               0
      0.2018018               0               0               0   -0.0018804009  -2.8018101e-09               0    0.0033959084        15925793   1.7972367e-08               0
      0.2039039               0               0               0   -0.0018741813  -2.7333675e-09  -2.0238702e-20    0.0033812827        15925793    1.782161e-08               0
     0.20600601               0               0               0   -0.0018681942  -2.6694433e-09  -7.5017091e-20    0.0033669598        15925793   1.7677528e-08               0
     0.20810811               0               0               0   -0.0018622072  -2.6055191e-09  -1.2979548e-19    0.0033526369        15925793   1.7533447e-08               0
     0.21021021               0               0               0   -0.0018565252   -2.547278e-09  -1.3457144e-19    0.0033389198        15925793   1.7398076e-08               0
     0.21231231               0               0               0   -0.0018508724  -2.4895796e-09  -1.3457147e-19    0.0033252605        15925793   1.7263538e-08               0
     0.21441441               0               0               0   -0.0018453498  -2.4339677e-09  -1.1220636e-19    0.0033119517        15925793   1.7132657e-08               0
     0.21651652               0               0               0   -0.0018400067  -2.3812327e-09  -5.9005993e-20    0.0032991263        15925793   1.7006817e-08               0
     0.21861862               0               0               0   -0.0018346636  -2.3284976e-09  -5.8056241e-21    0.0032863008        15925793   1.6880977e-08               0
     0.22072072               0               0               0   -0.0018295762  -2.2805524e-09               0    0.0032737182        15925793   1.6762229e-08               0
     0.22282282               0               0               0   -0.0018245202  -2.2331939e-09               0    0.0032611654        15925793    1.664435e-08               0
     0.22492492               0               0               0   -0.0018195473  -2.1873529e-09               0    0.0032487745        15925793   1.6528773e-08               0
     0.22702703               0               0               0   -0.0018147488  -2.1446947e-09               0    0.0032367234        15925793   1.6418024e-08               0
     0.22912913               0               0               0   -0.0018099502  -2.1020364e-09               0    0.0032246723        15925793   1.6307276e-08               0
     0.23123123               0               0               0   -0.0018053238  -2.0616696e-09  -2.7819988e-20    0.0032131351        15925793   1.6201227e-08               0
     0.23333333               0               0               0    -0.001800766  -2.0222165e-09  -6.6734468e-20    0.0032018029        15925793   1.6097052e-08               0
     0.23543544               0               0               0    -0.001796223  -1.9829977e-09  -1.0071192e-19    0.0031904838        15925793   1.5993277e-08               0
     0.23753754               0               0               0   -0.0017918921  -1.9471233e-09  -6.4237134e-20    0.0031793522        15925793   1.5895211e-08               0
     0.23963964               0               0               0   -0.0017875613  -1.9112488e-09   -2.776235e-20    0.0031682206        15925793   1.5797144e-08               0
     0.24174174               0               0               0    -0.001783307  -1.8766489e-09   9.1573101e-21    0.0031572047        15925793   1.5701144e-08               0
     0.24384384               0               0               0   -0.0017791816  -1.8441913e-09   4.6824669e-20    0.0031463834        15925793   1.5608616e-08               0
     0.24594595               0               0               0   -0.0017750562  -1.8117337e-09   8.4492028e-20     0.003135562        15925793   1.5516087e-08               0
     0.24804805               0               0               0   -0.0017710531  -1.7807153e-09   7.5771258e-20    0.0031251275        15925793   1.5426822e-08               0
     0.25015015               0               0               0   -0.0017671201  -1.7505211e-09   4.0490144e-20    0.0031149146        15925793   1.5339426e-08               0
     0.25225225               0               0               0   -0.0017631871  -1.7203269e-09   5.2090295e-21    0.0031047016        15925793    1.525203e-08               0
     0.25435435               0               0               0   -0.0017594107  -1.6922279e-09               0    0.0030947445        15925793   1.5168727e-08               0
     0.25645646               0               0               0   -0.0017556615  -1.6644919e-09               0    0.0030848318        15925793   1.5086133e-08               0
     0.25855856               0               0               0   -0.0017519157  -1.6368125e-09   5.8295626e-22    0.0030749211        15925793    1.500363e-08               0
     0.26066066               0               0               0   -0.0017483342   -1.611827e-09   2.8888827e-20    0.0030651057        15925793   1.4925414e-08               0
     0.26276276               0               0               0   -0.0017447526  -1.5868415e-09   5.7194699e-20    0.0030552904        15925793   1.4847199e-08               0
     0.26486486               0               0               0   -0.0017411926  -1.5621058e-09    8.157371e-20    0.0030455368        15925793   1.4769546e-08               0
     0.26696697               0               0               0   -0.0017377658  -1.5389213e-09    8.157373e-20    0.0030361668        15925793   1.4695387e-08               0
     0.26906907               0               0               0   -0.0017343391  -1.5157367e-09   8.1573749e-20    0.0030267968        15925793   1.4621227e-08               0
     0.27117117               0               0               0    -0.001730943  -1.4928383e-09    7.598329e-20    0.0030175315        15925793   1.4547853e-08               0
     0.27327327               0               0               0   -0.0017276661  -1.4710514e-09   4.8683758e-20    0.0030086723        15925793    1.447753e-08               0
     0.27537538               0               0               0   -0.0017243891  -1.4492645e-09   2.1384226e-20    0.0029998132        15925793   1.4407207e-08               0
     0.27747748               0               0               0   -0.0017211428  -1.4279018e-09  -5.0941454e-21    0.0029909675        15925793   1.4337655e-08               0
     0.27957958               0               0               0   -0.0017180073  -1.4080728e-09  -2.8603964e-20    0.0029821702        15925793   1.4270889e-08               0
     0.28168168               0               0               0   -0.0017148718  -1.3882438e-09  -5.2113782e-20     0.002973373        15925793   1.4204123e-08               0
     0.28378378               0               0               0   -0.0017117584  -1.3687244e-09   -7.157398e-20    0.0029645867        15925793   1.4137921e-08               0
     0.28588589               0               0               0   -0.0017087517  -1.3506929e-09  -7.1573999e-20    0.0029558529        15925793   1.4074434e-08               0
     0.28798799               0               0               0    -0.001705745  -1.3326614e-09  -7.1574018e-20     0.002947119        15925793   1.4010947e-08               0
     0.29009009               0               0               0   -0.0017027467  -1.3147211e-09  -7.0008336e-20     0.002938417        15925793   1.3947675e-08               0
     0.29219219               0               0               0   -0.0016998619  -1.2980071e-09  -4.7387266e-20     0.002930143        15925793   1.3887292e-08               0
     0.29429429               0               0               0   -0.0016969771   -1.281293e-09  -2.4766196e-20    0.0029218689        15925793    1.382691e-08               0
      0.2963964               0               0               0   -0.0016940922  -1.2645789e-09  -2.1451266e-21    0.0029135948        15925793   1.3766527e-08               0
      0.2984985               0               0               0   -0.0016913113  -1.2491913e-09               0    0.0029056879        15925793   1.3708656e-08               0
      0.3006006               0               0               0   -0.0016885414  -1.2339426e-09               0    0.0028978195        15925793   1.3651048e-08               0
      0.3027027               0               0               0   -0.0016857714  -1.2186939e-09               0    0.0028899511        15925793    1.359344e-08               0
      0.3048048               0               0               0   -0.0016830727  -1.2043183e-09   1.2556841e-20     0.002882083        15925793   1.3537497e-08               0
     0.30690691               0               0               0    -0.001680408   -1.190358e-09   3.1088012e-20     0.002874215        15925793   1.3482346e-08               0
     0.30900901               0               0               0   -0.0016777433  -1.1763977e-09   4.9619184e-20    0.0028663471        15925793   1.3427195e-08               0
     0.31111111               0               0               0   -0.0016751172  -1.1627107e-09   5.7687444e-20    0.0028584998        15925793   1.3372984e-08               0
     0.31321321               0               0               0   -0.0016725531  -1.1494623e-09   4.8962379e-20    0.0028506857        15925793   1.3320283e-08               0
     0.31531532               0               0               0   -0.0016699889   -1.136214e-09   4.0237314e-20    0.0028428716        15925793   1.3267581e-08               0
     0.31741742               0               0               0   -0.0016674269  -1.1229764e-09    3.166831e-20    0.0028350659        15925793   1.3214932e-08               0
     0.31951952               0               0               0   -0.0016649618  -1.1102381e-09   3.0310743e-20    0.0028276524        15925793   1.3164678e-08               0
     0.32162162               0               0               0   -0.0016624967  -1.0974998e-09   2.8953175e-20    0.0028202388        15925793   1.3114424e-08               0
     0.32372372               0               0               0   -0.0016600316  -1.0847615e-09   2.7595608e-20    0.0028128252        15925793    1.306417e-08               0
     0.32582583               0               0               0   -0.0016576233  -1.0724476e-09   3.1938381e-20    0.0028056216        15925793   1.3015282e-08               0
     0.32792793               0               0               0   -0.0016552551  -1.0604327e-09   4.0298356e-20    0.0027985659        15925793   1.2967356e-08               0
     0.33003003               0               0               0   -0.0016528869  -1.0484179e-09   4.8658331e-20    0.0027915101        15925793    1.291943e-08               0
     0.33213213               0               0               0   -0.0016505258  -1.0364787e-09   5.5163717e-20     0.002784456        15925793   1.2871671e-08               0
     0.33423423               0               0               0   -0.0016482493  -1.0254457e-09   3.9450983e-20     0.002777422        15925793   1.2825922e-08               0
     0.33633634               0               0               0   -0.0016459729  -1.0144127e-09    2.373825e-20     0.002770388        15925793   1.2780172e-08               0
     0.33843844               0               0               0   -0.0016436964  -1.0033797e-09   8.0255164e-21    0.0027633539        15925793   1.2734422e-08               0
     0.34054054               0               0               0   -0.0016414617  -9.9277209e-10  -1.0041649e-20    0.0027563285        15925793   1.2689677e-08               0
     0.34264264               0               0               0   -0.0016392707  -9.8260869e-10  -3.0566859e-20    0.0027493119        15925793   1.2645981e-08               0
     0.34474474               0               0               0   -0.0016370796  -9.7244528e-10  -5.1092069e-20    0.0027422953        15925793   1.2602286e-08               0
     0.34684685               0               0               0   -0.0016348886  -9.6228187e-10  -7.1617279e-20    0.0027352788        15925793    1.255859e-08               0
     0.34894895               0               0               0   -0.0016327645  -9.5261031e-10  -7.5317171e-20    0.0027284889        15925793   1.2516504e-08               0
     0.35105105               0               0               0   -0.0016306551  -9.4304689e-10    -7.53172e-20    0.0027217489        15925793   1.2474772e-08               0
     0.35315315               0               0               0   -0.0016285457  -9.3348348e-10  -7.5317229e-20    0.0027150088        15925793    1.243304e-08               0