/*--------------------------------*- C++ -*----------------------------------*\
  =========                 |
  \\      /  F ield         | OpenFOAM: The Open Source CFD Toolbox
   \\    /   O peration     | Website:  https://openfoam.org
    \\  /    A nd           | Version:  12
     \\/     M anipulation  |
\*---------------------------------------------------------------------------*/
FoamFile
{
    format      ascii;
    class       volScalarField;
    location    "200";
    object      nuTilda;
}
// * * * * * * * * * * * * * * * * * * * * * * * * * * * * * * * * * * * * * //

dimensions      [0 2 -1 0 0 0 0];

internalField   nonuniform List<scalar> 
13056
(
1.9999933e-06
2.000024e-06
2.0000912e-06
2.0001799e-06
2.0002854e-06
2.0004063e-06
2.0005419e-06
2.0006921e-06
2.0008569e-06
2.001037e-06
2.0012334e-06
2.0014479e-06
2.0016827e-06
2.001941e-06
2.0022276e-06
2.0025486e-06
2.0029153e-06
2.003338e-06
2.003857e-06
2.0044642e-06
2.0053923e-06
2.0063589e-06
2.009556e-06
2.0106088e-06
3.0026564e-08
2.2007651e-08
2.0862266e-08
2.0454464e-08
2.0190938e-08
1.9968738e-08
1.9770909e-08
1.9592859e-08
1.9431559e-08
1.9284057e-08
1.9147923e-08
1.9021377e-08
1.8903105e-08
1.8792076e-08
1.8687437e-08
1.8588469e-08
1.849456e-08
1.8405191e-08
1.8319915e-08
1.8238353e-08
1.8160184e-08
1.8085124e-08
1.8012938e-08
1.7943409e-08
1.7876339e-08
1.7811563e-08
1.7748927e-08
1.7688281e-08
1.7629498e-08
1.7572463e-08
1.7517063e-08
1.7463191e-08
1.741076e-08
1.7359686e-08
1.7309882e-08
1.726127e-08
1.7213787e-08
1.7167371e-08
1.7121953e-08
1.7077474e-08
1.7033887e-08
1.6991143e-08
1.6949193e-08
1.6907988e-08
1.6867488e-08
1.6827659e-08
1.6788463e-08
1.674986e-08
1.6711815e-08
1.6674303e-08
1.6637295e-08
1.6600759e-08
1.6564666e-08
1.652899e-08
1.6493711e-08
1.6458807e-08
1.6424249e-08
1.6390015e-08
1.6356085e-08
1.6322441e-08
1.6289064e-08
1.6255931e-08
1.6223021e-08
1.6190318e-08
1.6157808e-08
1.6125471e-08
1.6093285e-08
1.6061233e-08
1.6029301e-08
1.5997473e-08
1.596573e-08
1.593405e-08
1.5902418e-08
1.5870819e-08
1.5839234e-08
1.5807642e-08
1.5776021e-08
1.5744356e-08
1.5712629e-08
1.5680815e-08
1.564889e-08
1.5616835e-08
1.5584629e-08
1.5552243e-08
1.5519649e-08
1.5486824e-08
1.5453741e-08
1.5420361e-08
1.5386663e-08
1.5353354e-08
1.5321477e-08
1.5291292e-08
1.5262648e-08
1.5235411e-08
1.5209456e-08
1.5184674e-08
1.5160974e-08
1.5138274e-08
1.5116496e-08
1.5095571e-08
1.5075441e-08
1.5056051e-08
1.5037352e-08
1.5019294e-08
1.5001832e-08
1.4984907e-08
1.4968514e-08
1.4952446e-08
1.493702e-08
1.4920951e-08
1.4907122e-08
1.4884202e-08
1.9999933e-06
2.000024e-06
2.0000913e-06
2.0001803e-06
2.0002859e-06
2.000407e-06
2.000543e-06
2.0006934e-06
2.0008586e-06
2.001039e-06
2.0012358e-06
2.0014507e-06
2.0016859e-06
2.0019447e-06
2.0022317e-06
2.0025532e-06
2.0029205e-06
2.0033438e-06
2.0038635e-06
2.0044714e-06
2.0054005e-06
2.0063681e-06
2.0095673e-06
2.0106338e-06
8.7961985e-08
6.6319469e-08
6.2888145e-08
6.1659949e-08
6.0866085e-08
6.0197076e-08
5.9601458e-08
5.9065302e-08
5.8579483e-08
5.8135154e-08
5.7725027e-08
5.7343755e-08
5.6987395e-08
5.6652846e-08
5.6337546e-08
5.6039335e-08
5.5756368e-08
5.5487079e-08
5.5230121e-08
5.4984352e-08
5.4748803e-08
5.452262e-08
5.4305087e-08
5.4095557e-08
5.3893432e-08
5.3698214e-08
5.3509436e-08
5.3326652e-08
5.3149474e-08
5.297756e-08
5.2810567e-08
5.2648175e-08
5.249012e-08
5.2336151e-08
5.2186005e-08
5.2039448e-08
5.189629e-08
5.1756341e-08
5.16194e-08
5.1485286e-08
5.1353854e-08
5.1224965e-08
5.1098463e-08
5.0974203e-08
5.0852068e-08
5.0731951e-08
5.0613739e-08
5.0497314e-08
5.0382569e-08
5.0269425e-08
5.0157799e-08
5.0047596e-08
4.9938724e-08
4.9831108e-08
4.9724686e-08
4.9619389e-08
4.9515138e-08
4.9411857e-08
4.9309492e-08
4.920799e-08
4.9107288e-08
4.9007319e-08
4.8908018e-08
4.8809343e-08
4.8711246e-08
4.8613666e-08
4.8516542e-08
4.8419818e-08
4.8323454e-08
4.8227402e-08
4.8131601e-08
4.8035989e-08
4.7940519e-08
4.7845147e-08
4.7749815e-08
4.7654456e-08
4.7559008e-08
4.7463427e-08
4.7367653e-08
4.7271614e-08
4.7175236e-08
4.7078464e-08
4.6981233e-08
4.6883455e-08
4.6785047e-08
4.6685939e-08
4.6586047e-08
4.6485257e-08
4.6383504e-08
4.6282921e-08
4.6186659e-08
4.6095505e-08
4.6009003e-08
4.5926748e-08
4.5848365e-08
4.5773525e-08
4.5701951e-08
4.5633395e-08
4.5567626e-08
4.5504433e-08
4.5443638e-08
4.538508e-08
4.5328608e-08
4.5274069e-08
4.5221334e-08
4.5170218e-08
4.512071e-08
4.5072183e-08
4.5025595e-08
4.4977069e-08
4.4935304e-08
4.4866073e-08
1.9999932e-06
2.0000241e-06
2.0000918e-06
2.0001813e-06
2.0002876e-06
2.0004094e-06
2.0005462e-06
2.0006975e-06
2.0008637e-06
2.0010451e-06
2.0012431e-06
2.0014591e-06
2.0016956e-06
2.0019557e-06
2.0022441e-06
2.0025671e-06
2.002936e-06
2.0033612e-06
2.0038829e-06
2.0044931e-06
2.0054252e-06
2.0063956e-06
2.0096006e-06
2.0106901e-06
1.4431226e-07
1.1152995e-07
1.0582373e-07
1.0376006e-07
1.0242651e-07
1.0130344e-07
1.0030352e-07
9.9403114e-08
9.8586928e-08
9.7840237e-08
9.7150887e-08
9.6509943e-08
9.5910811e-08
9.5348307e-08
9.4818142e-08
9.4316697e-08
9.3840875e-08
9.3388043e-08
9.2955937e-08
9.2542634e-08
9.2146504e-08
9.176611e-08
9.1400247e-08
9.1047828e-08
9.0707848e-08
9.0379467e-08
9.0061904e-08
8.9754407e-08
8.9456326e-08
8.9167086e-08
8.888611e-08
8.8612862e-08
8.8346899e-08
8.8087797e-08
8.7835117e-08
8.7588467e-08
8.7347524e-08
8.7111971e-08
8.6881472e-08
8.665572e-08
8.6434474e-08
8.6217498e-08
8.6004532e-08
8.5795332e-08
8.5589701e-08
8.5387459e-08
8.5188417e-08
8.4992376e-08
8.4799157e-08
8.4608625e-08
8.4420641e-08
8.4235047e-08
8.4051689e-08
8.3870439e-08
8.3691193e-08
8.3513834e-08
8.3338231e-08
8.3164256e-08
8.2991817e-08
8.2820824e-08
8.2651174e-08
8.2482753e-08
8.231545e-08
8.2149195e-08
8.1983908e-08
8.1819486e-08
8.1655826e-08
8.1492835e-08
8.1330444e-08
8.1168573e-08
8.1007119e-08
8.0845976e-08
8.0685067e-08
8.0524318e-08
8.0363629e-08
8.0202888e-08
8.0041993e-08
7.9880865e-08
7.9719407e-08
7.9557495e-08
7.9395006e-08
7.9231846e-08
7.9067906e-08
7.8903037e-08
7.8737099e-08
7.8569974e-08
7.840152e-08
7.8231545e-08
7.8059937e-08
7.7890298e-08
7.7727938e-08
7.7574189e-08
7.7428284e-08
7.728954e-08
7.7157326e-08
7.7031087e-08
7.6910356e-08
7.6794715e-08
7.6683772e-08
7.6577177e-08
7.6474625e-08
7.6375846e-08
7.6280585e-08
7.6188586e-08
7.6099628e-08
7.6013401e-08
7.5929888e-08
7.584803e-08
7.5769439e-08
7.56876e-08
7.5617141e-08
7.550034e-08
1.9999931e-06
2.0000243e-06
2.0000926e-06
2.0001829e-06
2.0002903e-06
2.0004134e-06
2.0005516e-06
2.0007045e-06
2.0008723e-06
2.0010555e-06
2.0012554e-06
2.0014734e-06
2.001712e-06
2.0019743e-06
2.0022652e-06
2.0025908e-06
2.0029625e-06
2.0033906e-06
2.0039159e-06
2.0045298e-06
2.0054668e-06
2.006442e-06
2.0096565e-06
2.0107787e-06
1.9975646e-07
1.5824368e-07
1.5028809e-07
1.4736448e-07
1.4547641e-07
1.4388748e-07
1.4247243e-07
1.4119753e-07
1.4004121e-07
1.3898289e-07
1.3800556e-07
1.3709664e-07
1.3624687e-07
1.3544896e-07
1.3469685e-07
1.3398545e-07
1.3331038e-07
1.3266789e-07
1.3205479e-07
1.3146834e-07
1.3090623e-07
1.3036641e-07
1.2984719e-07
1.2934701e-07
1.2886445e-07
1.2839832e-07
1.2794751e-07
1.2751097e-07
1.2708776e-07
1.2667707e-07
1.2627809e-07
1.2589006e-07
1.2551235e-07
1.2514435e-07
1.2478545e-07
1.244351e-07
1.2409283e-07
1.237582e-07
1.2343072e-07
1.2310998e-07
1.2279561e-07
1.224873e-07
1.2218466e-07
1.2188737e-07
1.2159512e-07
1.2130768e-07
1.2102477e-07
1.2074612e-07
1.2047145e-07
1.202006e-07
1.1993335e-07
1.1966949e-07
1.1940879e-07
1.1915108e-07
1.188962e-07
1.1864399e-07
1.1839427e-07
1.1814686e-07
1.1790161e-07
1.1765841e-07
1.174171e-07
1.1717753e-07
1.1693955e-07
1.1670304e-07
1.1646789e-07
1.1623396e-07
1.1600111e-07
1.157692e-07
1.1553813e-07
1.1530779e-07
1.1507803e-07
1.148487e-07
1.1461969e-07
1.143909e-07
1.1416218e-07
1.1393338e-07
1.1370435e-07
1.1347497e-07
1.1324511e-07
1.1301459e-07
1.1278324e-07
1.1255093e-07
1.1231749e-07
1.1208271e-07
1.118464e-07
1.1160839e-07
1.1136847e-07
1.1112637e-07
1.1088193e-07
1.1064029e-07
1.10409e-07
1.1018997e-07
1.099821e-07
1.0978444e-07
1.0959607e-07
1.0941622e-07
1.0924421e-07
1.0907945e-07
1.0892138e-07
1.0876951e-07
1.0862339e-07
1.0848265e-07
1.0834692e-07
1.0821584e-07
1.0808909e-07
1.0796623e-07
1.0784724e-07
1.0773061e-07
1.0761863e-07
1.0750205e-07
1.0740165e-07
1.072352e-07
1.999993e-06
2.0000245e-06
2.0000937e-06
2.0001853e-06
2.0002943e-06
2.0004192e-06
2.0005594e-06
2.0007145e-06
2.0008847e-06
2.0010705e-06
2.001273e-06
2.0014939e-06
2.0017356e-06
2.0020011e-06
2.0022954e-06
2.0026247e-06
2.0030004e-06
2.0034329e-06
2.0039631e-06
2.0045824e-06
2.0055264e-06
2.0065083e-06
2.0097359e-06
2.0109015e-06
2.5483684e-07
2.0705496e-07
1.9691078e-07
1.9309729e-07
1.9063598e-07
1.8856579e-07
1.8672119e-07
1.8505788e-07
1.8354806e-07
1.8216536e-07
1.8088789e-07
1.7969946e-07
1.7858808e-07
1.7754432e-07
1.7656036e-07
1.7562957e-07
1.7474624e-07
1.7390551e-07
1.7310316e-07
1.7233564e-07
1.7159992e-07
1.7089333e-07
1.7021363e-07
1.695588e-07
1.6892698e-07
1.6831663e-07
1.6772628e-07
1.6715455e-07
1.6660023e-07
1.6606227e-07
1.655396e-07
1.6503123e-07
1.6453633e-07
1.6405412e-07
1.635838e-07
1.6312464e-07
1.6267603e-07
1.622374e-07
1.6180812e-07
1.6138763e-07
1.6097548e-07
1.6057122e-07
1.6017439e-07
1.5978453e-07
1.5940128e-07
1.5902429e-07
1.5865322e-07
1.582877e-07
1.5792741e-07
1.5757208e-07
1.5722146e-07
1.5687526e-07
1.565332e-07
1.5619503e-07
1.5586055e-07
1.5552957e-07
1.5520182e-07
1.5487708e-07
1.5455516e-07
1.5423591e-07
1.5391914e-07
1.5360462e-07
1.5329216e-07
1.5298162e-07
1.5267285e-07
1.5236566e-07
1.5205987e-07
1.5175529e-07
1.514518e-07
1.5114925e-07
1.5084744e-07
1.5054618e-07
1.5024533e-07
1.4994474e-07
1.4964422e-07
1.4934358e-07
1.4904262e-07
1.4874118e-07
1.484391e-07
1.4813613e-07
1.4783204e-07
1.4752667e-07
1.4721979e-07
1.4691115e-07
1.4660046e-07
1.4628752e-07
1.4597205e-07
1.4565369e-07
1.4533224e-07
1.4501443e-07
1.4471022e-07
1.4442213e-07
1.4414871e-07
1.438887e-07
1.4364092e-07
1.4340432e-07
1.4317805e-07
1.4296131e-07
1.4275337e-07
1.4255358e-07
1.4236136e-07
1.4217621e-07
1.4199765e-07
1.418252e-07
1.4165845e-07
1.4149682e-07
1.4134028e-07
1.4118685e-07
1.4103952e-07
1.408862e-07
1.407541e-07
1.4053506e-07
1.9999928e-06
2.0000247e-06
2.0000951e-06
2.0001885e-06
2.0002996e-06
2.0004269e-06
2.0005697e-06
2.0007278e-06
2.0009011e-06
2.0010903e-06
2.0012964e-06
2.0015212e-06
2.0017668e-06
2.0020367e-06
2.0023355e-06
2.0026697e-06
2.0030507e-06
2.0034889e-06
2.0040256e-06
2.0046521e-06
2.0056052e-06
2.006596e-06
2.0098404e-06
2.0110611e-06
3.0995819e-07
2.5852648e-07
2.4632927e-07
2.4159954e-07
2.3854533e-07
2.3597691e-07
2.3368607e-07
2.3161776e-07
2.2973814e-07
2.2801527e-07
2.2642249e-07
2.2494e-07
2.2355311e-07
2.2225024e-07
2.2102176e-07
2.198595e-07
2.1875636e-07
2.177063e-07
2.1670409e-07
2.1574529e-07
2.148261e-07
2.1394321e-07
2.1309383e-07
2.1227543e-07
2.114857e-07
2.107227e-07
2.0998462e-07
2.0926974e-07
2.0857656e-07
2.0790375e-07
2.0724999e-07
2.0661404e-07
2.0599488e-07
2.0539154e-07
2.0480302e-07
2.042284e-07
2.0366693e-07
2.031179e-07
2.0258052e-07
2.020541e-07
2.0153807e-07
2.0103189e-07
2.0053496e-07
2.0004672e-07
1.995667e-07
1.990945e-07
1.9862968e-07
1.9817178e-07
1.9772038e-07
1.9727517e-07
1.9683583e-07
1.9640199e-07
1.959733e-07
1.9554946e-07
1.9513023e-07
1.9471533e-07
1.9430446e-07
1.9389733e-07
1.9349372e-07
1.9309341e-07
1.9269618e-07
1.9230176e-07
1.9190988e-07
1.9152039e-07
1.9113309e-07
1.9074774e-07
1.9036412e-07
1.8998199e-07
1.896012e-07
1.8922156e-07
1.8884283e-07
1.8846475e-07
1.8808716e-07
1.8770987e-07
1.8733265e-07
1.8695525e-07
1.8657741e-07
1.8619894e-07
1.8581964e-07
1.8543919e-07
1.8505732e-07
1.846738e-07
1.8428837e-07
1.8390068e-07
1.835104e-07
1.8311725e-07
1.827209e-07
1.8232089e-07
1.8191696e-07
1.8151757e-07
1.8113526e-07
1.8077316e-07
1.8042951e-07
1.8010269e-07
1.7979123e-07
1.7949383e-07
1.7920939e-07
1.7893694e-07
1.7867555e-07
1.7842439e-07
1.7818275e-07
1.7795e-07
1.7772553e-07
1.7750874e-07
1.7729911e-07
1.7709592e-07
1.7689911e-07
1.7670624e-07
1.7652101e-07
1.7632832e-07
1.7616223e-07
1.7588679e-07
1.9999926e-06
2.0000251e-06
2.000097e-06
2.0001925e-06
2.0003062e-06
2.0004366e-06
2.0005829e-06
2.0007447e-06
2.000922e-06
2.0011155e-06
2.0013262e-06
2.0015558e-06
2.0018066e-06
2.0020818e-06
2.0023865e-06
2.0027268e-06
2.0031145e-06
2.00356e-06
2.0041049e-06
2.0047403e-06
2.0057049e-06
2.0067067e-06
2.0099717e-06
2.0112603e-06
3.6539171e-07
3.1315293e-07
2.991802e-07
2.9352848e-07
2.8986655e-07
2.8678494e-07
2.8403141e-07
2.8154056e-07
2.7927316e-07
2.7719223e-07
2.7526661e-07
2.7347305e-07
2.717942e-07
2.702164e-07
2.6872822e-07
2.6731991e-07
2.6598299e-07
2.6471017e-07
2.6349515e-07
2.6233258e-07
2.6121787e-07
2.6014702e-07
2.5911664e-07
2.581237e-07
2.571654e-07
2.5623939e-07
2.5534349e-07
2.5447563e-07
2.5363398e-07
2.5281695e-07
2.5202294e-07
2.5125048e-07
2.504983e-07
2.4976525e-07
2.4905011e-07
2.4835178e-07
2.4766936e-07
2.4700198e-07
2.4634869e-07
2.4570866e-07
2.4508119e-07
2.4446562e-07
2.4386125e-07
2.432674e-07
2.4268349e-07
2.4210902e-07
2.4154348e-07
2.4098631e-07
2.4043701e-07
2.3989518e-07
2.3936045e-07
2.3883237e-07
2.3831051e-07
2.3779451e-07
2.3728407e-07
2.3677887e-07
2.3627853e-07
2.3578271e-07
2.3529112e-07
2.3480353e-07
2.3431963e-07
2.3383912e-07
2.3336167e-07
2.3288708e-07
2.3241512e-07
2.3194551e-07
2.3147796e-07
2.310122e-07
2.3054802e-07
2.300852e-07
2.2962346e-07
2.2916248e-07
2.2870205e-07
2.2824195e-07
2.277819e-07
2.2732158e-07
2.2686069e-07
2.26399e-07
2.2593625e-07
2.2547206e-07
2.250061e-07
2.2453808e-07
2.2406769e-07
2.2359451e-07
2.2311812e-07
2.2263819e-07
2.2215431e-07
2.2166591e-07
2.2117268e-07
2.2068496e-07
2.2021803e-07
2.1977579e-07
2.1935603e-07
2.1895683e-07
2.1857638e-07
2.1821309e-07
2.1786563e-07
2.1753281e-07
2.1721349e-07
2.1690666e-07
2.1661147e-07
2.1632712e-07
2.1605289e-07
2.1578804e-07
2.1553193e-07
2.1528369e-07
2.1504324e-07
2.1480762e-07
2.1458131e-07
2.1434599e-07
2.1414304e-07
2.1380641e-07
1.9999923e-06
2.0000255e-06
2.0000993e-06
2.0001975e-06
2.0003144e-06
2.0004486e-06
2.0005991e-06
2.0007655e-06
2.0009478e-06
2.0011466e-06
2.0013629e-06
2.0015985e-06
2.0018556e-06
2.0021375e-06
2.0024493e-06
2.0027972e-06
2.003193e-06
2.0036475e-06
2.0042024e-06
2.0048487e-06
2.0058272e-06
2.0068425e-06
2.0101315e-06
2.0115027e-06
4.212796e-07
3.7129878e-07
3.560799e-07
3.4955056e-07
3.4528155e-07
3.4168042e-07
3.3845253e-07
3.3552384e-07
3.3285133e-07
3.3039402e-07
3.2811695e-07
3.2599376e-07
3.2400472e-07
3.2213418e-07
3.2036904e-07
3.1869798e-07
3.1711113e-07
3.1559994e-07
3.1415704e-07
3.1277608e-07
3.1145168e-07
3.1017912e-07
3.0895439e-07
3.077739e-07
3.0663438e-07
3.0553303e-07
3.0446728e-07
3.034347e-07
3.0243313e-07
3.0146067e-07
3.0051547e-07
2.9959575e-07
2.9870005e-07
2.9782698e-07
2.9697512e-07
2.9614317e-07
2.9533006e-07
2.9453475e-07
2.9375614e-07
2.9299323e-07
2.922452e-07
2.9151127e-07
2.907906e-07
2.9008239e-07
2.8938596e-07
2.8870072e-07
2.8802605e-07
2.8736129e-07
2.8670585e-07
2.8605927e-07
2.8542107e-07
2.8479076e-07
2.8416782e-07
2.835518e-07
2.8294235e-07
2.823391e-07
2.8174161e-07
2.8114945e-07
2.8056229e-07
2.7997984e-07
2.7940175e-07
2.7882765e-07
2.7825716e-07
2.7769003e-07
2.7712599e-07
2.7656471e-07
2.7600584e-07
2.7544904e-07
2.7489409e-07
2.7434072e-07
2.7378858e-07
2.732373e-07
2.7268663e-07
2.721363e-07
2.7158597e-07
2.7103527e-07
2.7048384e-07
2.6993141e-07
2.6937764e-07
2.6882211e-07
2.6826439e-07
2.6770416e-07
2.6714104e-07
2.6657452e-07
2.6600411e-07
2.654294e-07
2.648499e-07
2.6426494e-07
2.6367412e-07
2.6308984e-07
2.6253042e-07
2.6200053e-07
2.6149757e-07
2.6101921e-07
2.6056329e-07
2.6012794e-07
2.5971154e-07
2.5931268e-07
2.5892999e-07
2.5856227e-07
2.5820848e-07
2.5786769e-07
2.5753902e-07
2.5722158e-07
2.5691463e-07
2.5661709e-07
2.563289e-07
2.560465e-07
2.5577523e-07
2.554933e-07
2.5525002e-07
2.548464e-07
1.9999919e-06
2.0000259e-06
2.000102e-06
2.0002034e-06
2.0003243e-06
2.000463e-06
2.0006186e-06
2.0007906e-06
2.0009789e-06
2.0011841e-06
2.0014073e-06
2.00165e-06
2.0019148e-06
2.0022048e-06
2.0025251e-06
2.0028821e-06
2.0032879e-06
2.0037529e-06
2.0043199e-06
2.0049793e-06
2.0059743e-06
2.0070056e-06
2.0103219e-06
2.0117919e-06
4.7764384e-07
4.3311108e-07
4.1758475e-07
4.1032294e-07
4.0548257e-07
4.0137609e-07
3.9767506e-07
3.9430131e-07
3.9121119e-07
3.8836191e-07
3.8571604e-07
3.8324496e-07
3.8092708e-07
3.7874515e-07
3.7668456e-07
3.7473261e-07
3.7287808e-07
3.7111121e-07
3.6942351e-07
3.6780769e-07
3.6625754e-07
3.6476759e-07
3.633332e-07
3.6195024e-07
3.6061491e-07
3.5932395e-07
3.5807441e-07
3.5686347e-07
3.5568862e-07
3.5454765e-07
3.5343843e-07
3.523589e-07
3.5130734e-07
3.5028215e-07
3.4928169e-07
3.4830446e-07
3.4734917e-07
3.4641464e-07
3.454996e-07
3.4460287e-07
3.437235e-07
3.4286057e-07
3.4201312e-07
3.411802e-07
3.4036104e-07
3.3955491e-07
3.3876113e-07
3.3797892e-07
3.3720757e-07
3.3644655e-07
3.3569531e-07
3.3495327e-07
3.3421981e-07
3.3349443e-07
3.327767e-07
3.3206619e-07
3.3136239e-07
3.3066478e-07
3.29973e-07
3.2928668e-07
3.2860544e-07
3.2792882e-07
3.2725639e-07
3.2658785e-07
3.2592287e-07
3.2526108e-07
3.2460206e-07
3.2394542e-07
3.2329089e-07
3.2263815e-07
3.219868e-07
3.213364e-07
3.2068663e-07
3.2003721e-07
3.1938773e-07
3.1873774e-07
3.1808682e-07
3.1743464e-07
3.1678082e-07
3.1612484e-07
3.1546623e-07
3.1480457e-07
3.1413942e-07
3.1347019e-07
3.127963e-07
3.1211725e-07
3.1143246e-07
3.1074115e-07
3.1004284e-07
3.0935217e-07
3.0869083e-07
3.0806434e-07
3.0746965e-07
3.0690402e-07
3.0636491e-07
3.058501e-07
3.053577e-07
3.0488601e-07
3.0443345e-07
3.0399857e-07
3.0358017e-07
3.0317713e-07
3.0278842e-07
3.0241299e-07
3.0204995e-07
3.0169805e-07
3.0135719e-07
3.0102322e-07
3.0070236e-07
3.0036905e-07
3.000813e-07
2.9960371e-07
1.9999915e-06
2.0000265e-06
2.0001052e-06
2.0002105e-06
2.0003361e-06
2.0004802e-06
2.0006419e-06
2.0008205e-06
2.001016e-06
2.0012289e-06
2.0014601e-06
2.0017115e-06
2.0019852e-06
2.0022848e-06
2.0026153e-06
2.0029831e-06
2.0034005e-06
2.0038782e-06
2.0044593e-06
2.005134e-06
2.0061483e-06
2.0071983e-06
2.0105448e-06
2.0121318e-06
5.3440437e-07
4.984272e-07
4.8412175e-07
4.764556e-07
4.7114908e-07
4.6659289e-07
4.624474e-07
4.5863986e-07
4.5513224e-07
4.5188391e-07
4.4885759e-07
4.4602408e-07
4.4336102e-07
4.4085027e-07
4.3847627e-07
4.3622521e-07
4.3408476e-07
4.3204404e-07
4.3009356e-07
4.2822513e-07
4.2643172e-07
4.2470715e-07
4.2304616e-07
4.2144407e-07
4.1989656e-07
4.1839992e-07
4.169508e-07
4.1554598e-07
4.141826e-07
4.1285816e-07
4.1157021e-07
4.103164e-07
4.0909477e-07
4.0790348e-07
4.0674066e-07
4.0560459e-07
4.0449379e-07
4.034069e-07
4.0234249e-07
4.0129918e-07
4.0027586e-07
3.9927151e-07
3.9828501e-07
3.9731527e-07
3.9636138e-07
3.9542254e-07
3.9449792e-07
3.9358665e-07
3.9268791e-07
3.9180107e-07
3.9092552e-07
3.9006056e-07
3.892055e-07
3.8835974e-07
3.875228e-07
3.8669416e-07
3.8587324e-07
3.8505946e-07
3.8425236e-07
3.8345154e-07
3.8265655e-07
3.8186686e-07
3.8108197e-07
3.8030151e-07
3.7952514e-07
3.7875239e-07
3.7798278e-07
3.7721588e-07
3.7645133e-07
3.756888e-07
3.7492779e-07
3.7416782e-07
3.734085e-07
3.7264949e-07
3.7189033e-07
3.7113049e-07
3.7036947e-07
3.696069e-07
3.6884231e-07
3.6807512e-07
3.6730475e-07
3.6653074e-07
3.6575256e-07
3.6496951e-07
3.641809e-07
3.6338618e-07
3.6258465e-07
3.6177538e-07
3.6095782e-07
3.601491e-07
3.5937465e-07
3.5864094e-07
3.5794442e-07
3.5728191e-07
3.5665043e-07
3.5604738e-07
3.5547058e-07
3.5491802e-07
3.5438786e-07
3.5387841e-07
3.5338824e-07
3.5291608e-07
3.5246068e-07
3.5202085e-07
3.5159551e-07
3.5118322e-07
3.5078388e-07
3.5039262e-07
3.5001668e-07
3.4962636e-07
3.4928921e-07
3.4872939e-07
1.999991e-06
2.0000271e-06
2.0001089e-06
2.0002187e-06
2.0003498e-06
2.0005004e-06
2.0006692e-06
2.0008557e-06
2.0010596e-06
2.0012814e-06
2.0015223e-06
2.0017837e-06
2.0020681e-06
2.0023789e-06
2.0027212e-06
2.0031017e-06
2.0035327e-06
2.004025e-06
2.0046226e-06
2.005315e-06
2.0063515e-06
2.0074229e-06
2.0108019e-06
2.0125264e-06
5.91373e-07
5.6677888e-07
5.5588806e-07
5.4844205e-07
5.429002e-07
5.3802669e-07
5.3351796e-07
5.2932508e-07
5.2542666e-07
5.2179149e-07
5.1838714e-07
5.1518697e-07
5.1216991e-07
5.0931842e-07
5.0661693e-07
5.0405126e-07
5.0160841e-07
4.9927674e-07
4.9704598e-07
4.9490717e-07
4.9285261e-07
4.9087551e-07
4.8897004e-07
4.8713101e-07
4.8535364e-07
4.8363378e-07
4.8196771e-07
4.8035184e-07
4.7878296e-07
4.7725827e-07
4.7577502e-07
4.7433059e-07
4.7292273e-07
4.7154941e-07
4.7020851e-07
4.6889808e-07
4.6761644e-07
4.6636206e-07
4.6513332e-07
4.6392867e-07
4.6274682e-07
4.6158661e-07
4.6044679e-07
4.5932613e-07
4.5822355e-07
4.5713816e-07
4.5606902e-07
4.5501513e-07
4.5397556e-07
4.5294957e-07
4.5193647e-07
4.5093547e-07
4.4994578e-07
4.4896671e-07
4.4799768e-07
4.4703813e-07
4.4608739e-07
4.4514478e-07
4.4420978e-07
4.4328192e-07
4.4236068e-07
4.4144547e-07
4.405357e-07
4.3963095e-07
4.3873081e-07
4.3783475e-07
4.3694223e-07
4.3605272e-07
4.3516585e-07
4.3428118e-07
4.3339818e-07
4.3251627e-07
4.3163502e-07
4.30754e-07
4.298727e-07
4.289905e-07
4.2810683e-07
4.2722124e-07
4.2633321e-07
4.2544204e-07
4.2454707e-07
4.2364776e-07
4.2274348e-07
4.2183344e-07
4.2091683e-07
4.19993e-07
4.1906113e-07
4.1812015e-07
4.1716941e-07
4.1622883e-07
4.1532798e-07
4.1447446e-07
4.1366414e-07
4.1289334e-07
4.1215861e-07
4.1145694e-07
4.1078578e-07
4.1014283e-07
4.0952592e-07
4.0893309e-07
4.083627e-07
4.0781324e-07
4.0728329e-07
4.0677144e-07
4.0627645e-07
4.0579666e-07
4.0533191e-07
4.0487662e-07
4.0443909e-07
4.039851e-07
4.0359272e-07
4.0294087e-07
1.9999904e-06
2.0000277e-06
2.0001131e-06
2.0002282e-06
2.0003658e-06
2.0005238e-06
2.000701e-06
2.0008966e-06
2.0011103e-06
2.0013426e-06
2.0015946e-06
2.0018677e-06
2.0021644e-06
2.0024883e-06
2.0028444e-06
2.0032395e-06
2.0036862e-06
2.0041954e-06
2.0048118e-06
2.0055245e-06
2.006586e-06
2.0076817e-06
2.0110947e-06
2.0129792e-06
6.4823478e-07
6.3747501e-07
6.3274538e-07
6.2655293e-07
6.2120923e-07
6.162802e-07
6.1158182e-07
6.0712011e-07
6.0290863e-07
5.9893741e-07
5.9518694e-07
5.9163861e-07
5.8827642e-07
5.8508604e-07
5.8205381e-07
5.7916649e-07
5.764114e-07
5.7377679e-07
5.7125212e-07
5.6882808e-07
5.6649657e-07
5.6425041e-07
5.6208338e-07
5.5998995e-07
5.5796497e-07
5.5600396e-07
5.5410288e-07
5.5225786e-07
5.5046537e-07
5.4872232e-07
5.4702575e-07
5.4537275e-07
5.4376083e-07
5.4218774e-07
5.4065117e-07
5.3914891e-07
5.3767912e-07
5.3624008e-07
5.3482999e-07
5.334471e-07
5.3208999e-07
5.3075734e-07
5.2944775e-07
5.2815984e-07
5.268924e-07
5.256444e-07
5.2441481e-07
5.232025e-07
5.220064e-07
5.2082567e-07
5.1965954e-07
5.1850712e-07
5.173675e-07
5.162399e-07
5.1512367e-07
5.1401815e-07
5.129226e-07
5.1183624e-07
5.1075846e-07
5.0968874e-07
5.0862649e-07
5.0757103e-07
5.0652168e-07
5.0547796e-07
5.0443939e-07
5.0340539e-07
5.0237532e-07
5.0134859e-07
5.0032473e-07
4.9930329e-07
4.9828363e-07
4.9726509e-07
4.9624715e-07
4.9522936e-07
4.942111e-07
4.9319166e-07
4.9217039e-07
4.9114676e-07
4.9012017e-07
4.8908982e-07
4.8805493e-07
4.8701488e-07
4.8596896e-07
4.8491623e-07
4.8385577e-07
4.827868e-07
4.817084e-07
4.8061931e-07
4.7951877e-07
4.7842984e-07
4.7738678e-07
4.7639842e-07
4.7546002e-07
4.7456733e-07
4.7371638e-07
4.7290369e-07
4.7212631e-07
4.7138159e-07
4.7066702e-07
4.6998033e-07
4.6931961e-07
4.6868314e-07
4.6806927e-07
4.6747634e-07
4.6690294e-07
4.6634714e-07
4.6580877e-07
4.6528141e-07
4.6477454e-07
4.6424893e-07
4.6379443e-07
4.6303884e-07
1.9999896e-06
2.0000284e-06
2.0001179e-06
2.000239e-06
2.0003841e-06
2.0005507e-06
2.0007375e-06
2.0009437e-06
2.0011688e-06
2.0014132e-06
2.001678e-06
2.0019646e-06
2.0022755e-06
2.0026143e-06
2.0029862e-06
2.0033981e-06
2.0038627e-06
2.0043912e-06
2.005029e-06
2.0057646e-06
2.0068541e-06
2.0079771e-06
2.0114241e-06
2.0134937e-06
7.04557e-07
7.0966088e-07
7.1417712e-07
7.1071996e-07
7.0628463e-07
7.0175159e-07
6.9718053e-07
6.9267811e-07
6.8831895e-07
6.8413175e-07
6.8012225e-07
6.7628859e-07
6.7262601e-07
6.6912784e-07
6.6578558e-07
6.6258932e-07
6.5952841e-07
6.5659236e-07
6.5377131e-07
6.5105637e-07
6.4843966e-07
6.459141e-07
6.4347346e-07
6.4111218e-07
6.3882501e-07
6.3660733e-07
6.3445498e-07
6.3236392e-07
6.3033045e-07
6.2835132e-07
6.2642337e-07
6.2454353e-07
6.227091e-07
6.2091767e-07
6.1916677e-07
6.1745399e-07
6.1577731e-07
6.1413488e-07
6.1252475e-07
6.1094497e-07
6.0939396e-07
6.078703e-07
6.0637244e-07
6.0489885e-07
6.0344819e-07
6.020193e-07
6.0061103e-07
5.9922216e-07
5.9785146e-07
5.9649801e-07
5.9516092e-07
5.9383922e-07
5.9253188e-07
5.9123802e-07
5.899569e-07
5.8868779e-07
5.8742986e-07
5.8618222e-07
5.8494418e-07
5.8371514e-07
5.8249445e-07
5.8128133e-07
5.80075e-07
5.7887492e-07
5.7768056e-07
5.7649123e-07
5.7530623e-07
5.7412486e-07
5.729466e-07
5.7177093e-07
5.7059711e-07
5.694244e-07
5.682522e-07
5.6707997e-07
5.6590703e-07
5.6473255e-07
5.6355578e-07
5.6237612e-07
5.6119285e-07
5.6000509e-07
5.5881192e-07
5.5761263e-07
5.5640639e-07
5.5519212e-07
5.5396877e-07
5.5273542e-07
5.5149101e-07
5.5023408e-07
5.4896377e-07
5.4770666e-07
5.4650235e-07
5.4536107e-07
5.442774e-07
5.4324646e-07
5.4226367e-07
5.4132504e-07
5.4042718e-07
5.3956701e-07
5.3874165e-07
5.3794848e-07
5.3718531e-07
5.3645013e-07
5.3574104e-07
5.3505614e-07
5.3439379e-07
5.3375178e-07
5.331299e-07
5.3252079e-07
5.3193527e-07
5.3132854e-07
5.308036e-07
5.2993021e-07
1.9999888e-06
2.0000291e-06
2.0001233e-06
2.0002513e-06
2.0004049e-06
2.0005814e-06
2.0007793e-06
2.0009976e-06
2.0012357e-06
2.001494e-06
2.0017733e-06
2.0020754e-06
2.0024026e-06
2.0027584e-06
2.0031483e-06
2.0035791e-06
2.004064e-06
2.0046141e-06
2.0052759e-06
2.0060372e-06
2.0071576e-06
2.0083108e-06
2.0117904e-06
2.0140722e-06
7.5980239e-07
7.8235434e-07
7.9936178e-07
8.0049233e-07
7.9797755e-07
7.9451848e-07
7.9057603e-07
7.8641444e-07
7.8220082e-07
7.780241e-07
7.7393131e-07
7.6994933e-07
7.6609351e-07
7.6237141e-07
7.5878465e-07
7.553304e-07
7.520029e-07
7.4879503e-07
7.4569937e-07
7.4270878e-07
7.3981669e-07
7.3701698e-07
7.3430415e-07
7.316732e-07
7.2911927e-07
7.2663802e-07
7.2422552e-07
7.2187786e-07
7.1959141e-07
7.1736296e-07
7.1518937e-07
7.1306751e-07
7.1099465e-07
7.0896831e-07
7.0698596e-07
7.0504509e-07
7.0314355e-07
7.0127941e-07
6.9945063e-07
6.9765512e-07
6.9589119e-07
6.9415731e-07
6.9245185e-07
6.9077312e-07
6.8911967e-07
6.8749025e-07
6.8588361e-07
6.8429842e-07
6.8273333e-07
6.811873e-07
6.7965939e-07
6.7814851e-07
6.7665355e-07
6.7517349e-07
6.7370753e-07
6.7225486e-07
6.7081455e-07
6.6938562e-07
6.6796729e-07
6.6655888e-07
6.6515966e-07
6.6376877e-07
6.6238534e-07
6.6100872e-07
6.5963833e-07
6.5827342e-07
6.5691316e-07
6.5555677e-07
6.5420367e-07
6.5285323e-07
6.5150467e-07
6.501571e-07
6.4880984e-07
6.474623e-07
6.4611367e-07
6.4476303e-07
6.434095e-07
6.4205238e-07
6.4069089e-07
6.3932397e-07
6.379506e-07
6.3656994e-07
6.3518104e-07
6.3378266e-07
6.3237358e-07
6.3095276e-07
6.2951896e-07
6.280705e-07
6.2660638e-07
6.2515723e-07
6.2376873e-07
6.2245276e-07
6.2120311e-07
6.2001417e-07
6.1888071e-07
6.1779814e-07
6.1676255e-07
6.1577043e-07
6.1481843e-07
6.1390354e-07
6.1302324e-07
6.1217522e-07
6.1135729e-07
6.1056726e-07
6.0980323e-07
6.0906266e-07
6.0834532e-07
6.076428e-07
6.0696738e-07
6.0626802e-07
6.0566264e-07
6.0465442e-07
1.9999878e-06
2.0000299e-06
2.0001292e-06
2.0002651e-06
2.0004284e-06
2.0006161e-06
2.0008266e-06
2.0010586e-06
2.0013116e-06
2.0015856e-06
2.0018816e-06
2.0022011e-06
2.0025466e-06
2.0029217e-06
2.0033318e-06
2.003784e-06
2.0042916e-06
2.0048659e-06
2.0055544e-06
2.006344e-06
2.007498e-06
2.0086843e-06
2.0121927e-06
2.0147163e-06
8.133404e-07
8.5447193e-07
8.8728882e-07
8.9512519e-07
8.958104e-07
8.9431783e-07
8.9169239e-07
8.8842054e-07
8.8479455e-07
8.8098595e-07
8.7710057e-07
8.7320789e-07
8.6935402e-07
8.6556905e-07
8.6187121e-07
8.5826974e-07
8.5476768e-07
8.5136441e-07
8.480574e-07
8.4484327e-07
8.4171842e-07
8.3867907e-07
8.3572156e-07
8.3284242e-07
8.3003802e-07
8.2730495e-07
8.2464009e-07
8.2204021e-07
8.1950215e-07
8.1702311e-07
8.1460031e-07
8.1223086e-07
8.0991219e-07
8.0764201e-07
8.0541789e-07
8.0323737e-07
8.0109833e-07
7.989989e-07
7.9693702e-07
7.9491059e-07
7.9291784e-07
7.9095725e-07
7.8902714e-07
7.8712576e-07
7.8525157e-07
7.8340326e-07
7.8157954e-07
7.79779e-07
7.7800019e-07
7.7624199e-07
7.7450339e-07
7.7278326e-07
7.7108037e-07
7.6939363e-07
7.6772214e-07
7.6606505e-07
7.6442135e-07
7.6278995e-07
7.6116997e-07
7.5956069e-07
7.579613e-07
7.5637086e-07
7.5478837e-07
7.5321314e-07
7.5164449e-07
7.5008161e-07
7.4852356e-07
7.4696948e-07
7.4541868e-07
7.4387049e-07
7.42324e-07
7.4077822e-07
7.3923239e-07
7.376858e-07
7.3613757e-07
7.3458663e-07
7.3303199e-07
7.3147284e-07
7.2990828e-07
7.2833713e-07
7.2675819e-07
7.251705e-07
7.2357299e-07
7.2196422e-07
7.2034279e-07
7.1870751e-07
7.1705694e-07
7.1538914e-07
7.1370297e-07
7.1203367e-07
7.1043393e-07
7.0891753e-07
7.0747739e-07
7.061071e-07
7.0480064e-07
7.0355277e-07
7.0235901e-07
7.0121531e-07
7.0011784e-07
6.9906311e-07
6.9804824e-07
6.9707057e-07
6.9612757e-07
6.9521672e-07
6.9433583e-07
6.93482e-07
6.9265493e-07
6.9184508e-07
6.9106631e-07
6.9026065e-07
6.8956289e-07
6.8839944e-07
1.9999866e-06
2.0000306e-06
2.0001358e-06
2.0002804e-06
2.0004546e-06
2.0006551e-06
2.0008798e-06
2.0011273e-06
2.001397e-06
2.0016887e-06
2.0020035e-06
2.0023427e-06
2.0027088e-06
2.0031054e-06
2.0035381e-06
2.0040141e-06
2.0045469e-06
2.005148e-06
2.0058657e-06
2.0066863e-06
2.0078764e-06
2.0090985e-06
2.0126292e-06
2.0154258e-06
8.6445358e-07
9.2486069e-07
9.768161e-07
9.9372563e-07
9.9911917e-07
1.0006652e-06
1.0002045e-06
9.9852032e-07
9.9606366e-07
9.9311017e-07
9.8984152e-07
9.8638383e-07
9.8282533e-07
9.7922766e-07
9.756329e-07
9.7206822e-07
9.6855013e-07
9.6508822e-07
9.6168795e-07
9.5835227e-07
9.5508268e-07
9.5187955e-07
9.4874261e-07
9.456712e-07
9.4266406e-07
9.3971969e-07
9.3683662e-07
9.3401301e-07
9.3124683e-07
9.2853624e-07
9.258793e-07
9.232738e-07
9.2071769e-07
9.182092e-07
9.1574631e-07
9.1332687e-07
9.10949e-07
9.0861108e-07
9.0631124e-07
9.040475e-07
9.0181818e-07
8.9962186e-07
8.9745694e-07
8.9532172e-07
8.9321463e-07
8.9113439e-07
8.8907975e-07
8.8704927e-07