/*--------------------------------*- C++ -*----------------------------------*\
  =========                 |
  \\      /  F ield         | OpenFOAM: The Open Source CFD Toolbox
   \\    /   O peration     | Website:  https://openfoam.org
    \\  /    A nd           | Version:  12
     \\/     M anipulation  |
\*---------------------------------------------------------------------------*/
FoamFile
{
    format      ascii;
    class       volScalarField;
    location    "200";
    object      nuTilda;
}
// * * * * * * * * * * * * * * * * * * * * * * * * * * * * * * * * * * * * * //

dimensions      [0 2 -1 0 0 0 0];

internalField   nonuniform List<scalar> 
7480
(
1.7185515e-06
1.4393351e-06
1.3089784e-06
1.2782782e-06
1.300482e-06
1.3630782e-06
1.4689926e-06
1.6272144e-06
1.8538092e-06
2.1735828e-06
2.619149e-06
3.2267033e-06
4.017306e-06
4.9546827e-06
5.9138606e-06
6.7309386e-06
7.3009569e-06
7.6167605e-06
7.7524284e-06
7.7207807e-06
7.6310189e-06
7.5053521e-06
7.3601449e-06
7.2198015e-06
7.1136102e-06
7.0467068e-06
7.0109868e-06
6.9956885e-06
6.993227e-06
6.999382e-06
7.0104256e-06
7.0228173e-06
7.0346805e-06
7.0133637e-06
6.9772368e-06
6.941421e-06
6.9102743e-06
6.8846056e-06
6.8633659e-06
6.8447613e-06
6.8272559e-06
6.8100552e-06
6.7929705e-06
6.7764796e-06
6.7634073e-06
6.7614376e-06
6.7995653e-06
6.9474188e-06
7.3171705e-06
7.9501005e-06
8.5824751e-06
9.0143523e-06
9.330404e-06
9.5460491e-06
9.6832177e-06
9.7680538e-06
9.8227311e-06
9.8619005e-06
9.8921076e-06
9.9171184e-06
9.9386156e-06
9.9574562e-06
9.9743124e-06
9.9898138e-06
1.0004352e-05
1.0018262e-05
1.0031921e-05
1.0045552e-05
1.0059257e-05
1.0073137e-05
1.0087321e-05
1.0101943e-05
1.0117133e-05
1.0133011e-05
1.0149694e-05
1.0167294e-05
1.0185919e-05
1.0205675e-05
1.022666e-05
1.0248959e-05
1.0272645e-05
1.0297762e-05
1.0324221e-05
1.0350993e-05
1.0365715e-05
1.0106195e-05
4.3220682e-06
4.019845e-06
4.0424846e-06
4.0586255e-06
4.0684386e-06
4.0760472e-06
4.08124e-06
4.0844882e-06
4.0862931e-06
4.087032e-06
4.086925e-06
4.0862028e-06
4.0849154e-06
4.080787e-06
1.9523625e-06
1.9015024e-06
1.8460118e-06
1.7908988e-06
1.7377835e-06
1.6879359e-06
1.6408923e-06
1.6039683e-06
1.5678355e-06
1.5794644e-06
1.6166115e-06
1.68635e-06
1.7993753e-06
1.9728258e-06
2.226203e-06
2.573404e-06
3.0357523e-06
3.596614e-06
4.242248e-06
4.9682196e-06
5.7661007e-06
6.5365107e-06
7.2490915e-06
7.9058937e-06
8.5031962e-06
9.0406591e-06
9.5217668e-06
9.9528777e-06
1.0345628e-05
1.0711804e-05
1.1054598e-05
1.1373923e-05
1.1666119e-05
1.1925477e-05
1.215501e-05
1.2363964e-05
1.2562226e-05
1.2763944e-05
1.2974141e-05
1.31917e-05
1.3413484e-05
1.3636979e-05
1.3860161e-05
1.4080667e-05
1.4299561e-05
1.44999e-05
1.4691974e-05
1.4904358e-05
1.51823e-05
1.5554271e-05
1.5962389e-05
1.6333341e-05
1.6652749e-05
1.6919712e-05
1.7144148e-05
1.7336902e-05
1.7506983e-05
1.7662377e-05
1.7808827e-05
1.7950349e-05
1.8087211e-05
1.8219069e-05
1.8346182e-05
1.8469379e-05
1.8588892e-05
1.8705281e-05
1.881956e-05
1.8932153e-05
1.9043091e-05
1.9152459e-05
1.9260472e-05
1.9367398e-05
1.9473497e-05
1.9579016e-05
1.9684187e-05
1.9789234e-05
1.9894371e-05
1.9999804e-05
2.0105722e-05
2.0212294e-05
2.0319663e-05
2.042792e-05
2.05369e-05
2.0644715e-05
2.0729132e-05
2.0547641e-05
1.7379869e-05
1.5977534e-05
1.4922697e-05
1.4266323e-05
1.3831378e-05
1.3536979e-05
1.3329471e-05
1.3179354e-05
1.3068243e-05
1.2984381e-05
1.291971e-05
1.2869119e-05
1.2828511e-05
1.2795033e-05
1.9770723e-06
1.9592442e-06
1.9394679e-06
1.9187415e-06
1.8973494e-06
1.8748773e-06
1.8511312e-06
1.8260572e-06
1.7996301e-06
1.7736298e-06
1.7489344e-06
1.7265772e-06
1.7079311e-06
1.6943813e-06
1.6816116e-06
1.6832369e-06
1.6956115e-06
1.740102e-06
1.8247823e-06
1.9597334e-06
2.1601301e-06
2.4446815e-06
2.8261718e-06
3.3330873e-06
3.946464e-06
4.6604825e-06
5.4852731e-06
6.3688205e-06
7.2700942e-06
8.158576e-06
9.0096012e-06
9.8033653e-06
1.0514057e-05
1.1156937e-05
1.1761375e-05
1.2346025e-05
1.29135e-05
1.3462793e-05
1.3988795e-05
1.4494716e-05
1.4984504e-05
1.5461866e-05
1.5927364e-05
1.6379336e-05
1.6818201e-05
1.7241211e-05
1.7646859e-05
1.803847e-05
1.8435304e-05
1.8848993e-05
1.927352e-05
1.9696603e-05
2.0101317e-05
2.0483718e-05
2.0846198e-05
2.1189886e-05
2.1515428e-05
2.1827371e-05
2.213133e-05
2.2430757e-05
2.2722643e-05
2.3005848e-05
2.32806e-05
2.3547932e-05
2.3807376e-05
2.4059969e-05
2.4307292e-05
2.4549512e-05
2.478638e-05
2.5017902e-05
2.5244291e-05
2.5465809e-05
2.5682716e-05
2.5895245e-05
2.6103622e-05
2.6308064e-05
2.6508783e-05
2.6705986e-05
2.6899875e-05
2.7090641e-05
2.7278467e-05
2.7463503e-05
2.7645718e-05
2.7823999e-05
2.7984643e-05
2.8003811e-05
2.6871744e-05
2.627705e-05
2.5824257e-05
2.5548236e-05
2.5380925e-05
2.528615e-05
2.5235016e-05
2.5210325e-05
2.5201405e-05
2.5202235e-05
2.5207102e-05
2.5218066e-05
2.5218282e-05
2.5252271e-05
1.9843511e-06
1.975395e-06
1.9656242e-06
1.9554026e-06
1.9448113e-06
1.9338528e-06
1.9225269e-06
1.9107264e-06
1.8984194e-06
1.8854532e-06
1.8717658e-06
1.8572858e-06
1.8420096e-06
1.8261712e-06
1.8103852e-06
1.7950097e-06
1.7802218e-06
1.7666459e-06
1.755656e-06
1.7478671e-06
1.7436105e-06
1.7469774e-06
1.7590619e-06
1.7905615e-06
1.8585052e-06
1.9739166e-06
2.1541542e-06
2.4203066e-06
2.7944515e-06
3.3127976e-06
3.9826939e-06
4.7886067e-06
5.7270784e-06
6.7411784e-06
7.7800365e-06
8.806786e-06
9.7974316e-06
1.0740164e-05
1.1634465e-05
1.2486275e-05
1.3304091e-05
1.4096746e-05
1.4859885e-05
1.5593301e-05
1.6313972e-05
1.7023833e-05
1.7711481e-05
1.8374489e-05
1.9018763e-05
1.9649075e-05
2.0267569e-05
2.0873469e-05
2.1465872e-05
2.2042977e-05
2.2602567e-05
2.3143161e-05
2.3664346e-05
2.4175489e-05
2.4680628e-05
2.5180631e-05
2.5665821e-05
2.613777e-05
2.6597594e-05
2.7046606e-05
2.7482815e-05
2.7909284e-05
2.8327735e-05
2.8737342e-05
2.9137714e-05
2.9528983e-05
2.9911407e-05
3.0285238e-05
3.0650697e-05
3.1007983e-05
3.1357274e-05
3.1698735e-05
3.203252e-05
3.2358777e-05
3.2677643e-05
3.298925e-05
3.3293728e-05
3.3591192e-05
3.388166e-05
3.4164831e-05
3.4435188e-05
3.4651637e-05
3.4507578e-05
3.4475482e-05
3.4464446e-05
3.4504859e-05
3.4585141e-05
3.46959e-05
3.4825189e-05
3.4964133e-05
3.5106491e-05
3.5249406e-05
3.5387321e-05
3.5529977e-05
3.5635945e-05
3.5848863e-05
1.9878972e-06
1.9825708e-06
1.9768219e-06
1.9708211e-06
1.9646034e-06
1.9581711e-06
1.9515208e-06
1.9446448e-06
1.9375358e-06
1.9301769e-06
1.9225453e-06
1.9146119e-06
1.9063446e-06
1.8977048e-06
1.8887054e-06
1.8793224e-06
1.8695693e-06
1.8593462e-06
1.8486269e-06
1.8376314e-06
1.826713e-06
1.8160792e-06
1.8059209e-06
1.7967314e-06
1.7900181e-06
1.7837284e-06
1.7846216e-06
1.7900856e-06
1.8068956e-06
1.8394151e-06
1.9119577e-06
2.0414672e-06
2.2518065e-06
2.572397e-06
3.033556e-06
3.6881053e-06
4.5106851e-06
5.4895902e-06
6.5962152e-06
7.7687254e-06
8.957943e-06
1.0127893e-05
1.1257742e-05
1.2341048e-05
1.3383343e-05
1.4395683e-05
1.5383996e-05
1.6347119e-05
1.7283496e-05
1.8193693e-05
1.9080444e-05
1.9941249e-05
2.0787627e-05
2.1613493e-05
2.2419007e-05
2.3204288e-05
2.3968917e-05
2.4716157e-05
2.5449142e-05
2.6170406e-05
2.6877064e-05
2.7568418e-05
2.824454e-05
2.8906579e-05
2.9548977e-05
3.0182196e-05
3.0804921e-05
3.1414162e-05
3.2010451e-05
3.2594312e-05
3.3166097e-05
3.3726079e-05
3.4274498e-05
3.4811566e-05
3.5337472e-05
3.5852389e-05
3.6356471e-05
3.684986e-05
3.7332691e-05
3.7805081e-05
3.8267153e-05
3.8719017e-05
3.9160722e-05
3.9592339e-05
4.0012034e-05
4.0409574e-05
4.0703136e-05
4.1007142e-05
4.1295197e-05
4.1582578e-05
4.1874712e-05
4.2173879e-05
4.2477328e-05
4.2781221e-05
4.3081818e-05
4.3378021e-05
4.3663465e-05
4.3955069e-05
4.4183373e-05
4.4610217e-05
1.9900766e-06
1.9865954e-06
1.9828613e-06
1.9789682e-06
1.9749347e-06
1.9707611e-06
1.9664435e-06
1.961977e-06
1.9573572e-06
1.9525791e-06
1.9476382e-06
1.9425299e-06
1.9372497e-06
1.931792e-06
1.9261498e-06
1.9203136e-06
1.9142731e-06
1.9080133e-06
1.901512e-06
1.8947445e-06
1.887704e-06
1.8803653e-06
1.8727699e-06
1.8646599e-06
1.8562669e-06
1.8477558e-06
1.8394049e-06
1.8313848e-06
1.8238622e-06
1.8179733e-06
1.8117353e-06
1.8119106e-06
1.8155037e-06
1.8278278e-06
1.8554833e-06
1.9120464e-06
2.0260741e-06
2.2238488e-06
2.5419215e-06
3.0183947e-06
3.7253038e-06
4.6368953e-06
5.7380751e-06
6.9888327e-06
8.3174097e-06
9.6657095e-06
1.0993822e-05
1.2283105e-05
1.3531865e-05
1.4746123e-05
1.59317e-05
1.7089637e-05
1.8220207e-05
1.9324734e-05
2.0404476e-05
2.1460688e-05
2.2493319e-05
2.3502883e-05
2.4491401e-05
2.5461621e-05
2.6413982e-05
2.7348219e-05
2.8264168e-05
2.9162653e-05
3.0041141e-05
3.090356e-05
3.1750989e-05
3.2582735e-05
3.3398708e-05
3.4199204e-05
3.4984571e-05
3.5755123e-05
3.6511139e-05
3.7252876e-05
3.7980561e-05
3.8694404e-05
3.9394592e-05
4.0081294e-05
4.0754668e-05
4.1414855e-05
4.2061993e-05
4.269621e-05
4.3317587e-05
4.3926327e-05
4.4521998e-05
4.5103633e-05
4.5655083e-05
4.6197245e-05
4.671651e-05
4.7216951e-05
4.770563e-05
4.8188411e-05
4.8666957e-05
4.9140436e-05
4.9606634e-05
5.0065571e-05
5.0509659e-05
5.0962833e-05
5.1325305e-05
5.1991182e-05
1.991602e-06
1.9891741e-06
1.986584e-06
1.9838872e-06
1.9810945e-06
1.9782057e-06
1.9752178e-06
1.9721273e-06
1.9689307e-06
1.9656242e-06
1.9622043e-06
1.9586677e-06
1.9550117e-06
1.951234e-06
1.9473323e-06
1.9433042e-06
1.9391462e-06
1.9348541e-06
1.9304232e-06
1.9258457e-06
1.9211133e-06
1.9162153e-06
1.9111432e-06
1.9058783e-06
1.9003988e-06
1.8947008e-06
1.8887641e-06
1.8825892e-06
1.8761516e-06
1.8694495e-06
1.8624687e-06
1.8555787e-06
1.8489445e-06
1.8426961e-06
1.8378669e-06
1.8329734e-06
1.8334456e-06
1.837516e-06
1.8508246e-06
1.8811719e-06
1.9422009e-06
2.0709469e-06
2.3027235e-06
2.6842582e-06
3.2765741e-06
4.1410244e-06
5.2462457e-06
6.5670989e-06
8.0214078e-06
9.5318129e-06
1.1038983e-05
1.2511024e-05
1.3941853e-05
1.5338412e-05
1.670742e-05
1.8050559e-05
1.936668e-05
2.0655469e-05
2.1918485e-05
2.3157971e-05
2.437512e-05
2.5570439e-05
2.6744279e-05
2.7897382e-05
2.9028948e-05
3.0139888e-05
3.1231579e-05
3.2304511e-05
3.3358803e-05
3.4394688e-05
3.5412496e-05
3.6412563e-05
3.7395211e-05
3.8360744e-05
3.9309439e-05
4.0241547e-05
4.11573e-05
4.2056909e-05
4.2940565e-05
4.3808445e-05
4.4660716e-05
4.5497533e-05
4.6319007e-05
4.712537e-05
4.7916683e-05
4.8693914e-05
4.9457799e-05
5.0209368e-05
5.0938988e-05
5.1644727e-05
5.2330962e-05
5.3003498e-05
5.3665811e-05
5.431893e-05
5.4961745e-05
5.5595195e-05
5.6210381e-05
5.6838353e-05
5.7347087e-05
5.8275246e-05
1.9927536e-06
1.9909803e-06
1.9890969e-06
1.9871384e-06
1.9851114e-06
1.9830152e-06
1.980848e-06
1.9786072e-06
1.9762902e-06
1.9738944e-06
1.9714172e-06
1.9688561e-06
1.9662087e-06
1.9634729e-06
1.9606469e-06
1.9577286e-06
1.9547155e-06
1.951605e-06
1.9483939e-06
1.9450783e-06
1.941654e-06
1.9381172e-06
1.934463e-06
1.9306871e-06
1.9267843e-06
1.9227483e-06
1.9185714e-06
1.9142451e-06
1.9097603e-06
1.9051009e-06
1.9002604e-06
1.8952168e-06
1.8899682e-06
1.8845001e-06
1.8787962e-06
1.8728623e-06
1.8670313e-06
1.861437e-06
1.8563962e-06
1.8526598e-06
1.8499044e-06
1.8515049e-06
1.8584465e-06
1.8784088e-06
1.9211359e-06
2.0153065e-06
2.204074e-06
2.5430493e-06
3.0963509e-06
3.9699521e-06
5.1333511e-06
6.5551971e-06
8.1501064e-06
9.8207341e-06
1.1494217e-05
1.3134526e-05
1.4736652e-05
1.6307977e-05
1.7853515e-05
1.9373394e-05
2.0866972e-05
2.2335233e-05
2.3779489e-05
2.520039e-05
2.6597611e-05
2.7971341e-05
2.932248e-05
3.0651719e-05
3.1959439e-05
3.3245985e-05
3.4511693e-05
3.5756889e-05
3.6981915e-05
3.8187102e-05
3.9372758e-05
4.0539168e-05
4.1686602e-05
4.2815303e-05
4.39255e-05
4.5017404e-05
4.6091211e-05
4.7147099e-05
4.8185212e-05
4.9205773e-05
5.0209003e-05
5.1195756e-05
5.2169743e-05
5.3130136e-05
5.4070299e-05
5.498593e-05
5.5878359e-05
5.6751895e-05
5.7610373e-05
5.8455913e-05
5.9288292e-05
6.0109329e-05
6.090886e-05
6.1725257e-05
6.2392652e-05
6.3605273e-05
1.993676e-06
1.9923351e-06
1.9909163e-06
1.9894425e-06
1.9879177e-06
1.9863415e-06
1.9847123e-06
1.9830284e-06
1.9812879e-06
1.9794888e-06
1.9776293e-06
1.9757073e-06
1.9737212e-06
1.9716693e-06
1.96955e-06
1.9673616e-06
1.9651022e-06
1.9627696e-06
1.9603613e-06
1.9578745e-06
1.9553062e-06
1.9526534e-06
1.9499128e-06
1.9470813e-06
1.9441557e-06
1.9411326e-06
1.9380087e-06
1.9347803e-06
1.9314437e-06
1.9279943e-06
1.9244278e-06
1.9207375e-06
1.9169155e-06
1.9129539e-06
1.9088377e-06
1.9045608e-06
1.9001007e-06
1.8954769e-06
1.8905741e-06
1.8854972e-06
1.880359e-06
1.8753884e-06
1.8706844e-06
1.8670087e-06
1.8637324e-06
1.8645963e-06
1.869572e-06
1.8854182e-06
1.9230961e-06
2.0055178e-06
2.1880637e-06
2.535435e-06
3.126934e-06
4.0890746e-06
5.388071e-06
6.9807738e-06
8.7550797e-06
1.0599363e-05
1.243699e-05
1.4238545e-05
1.6006175e-05
1.7748574e-05
1.9468034e-05
2.1162858e-05
2.2832306e-05
2.4476968e-05
2.6097298e-05
2.7693454e-05
2.9265808e-05
3.0814801e-05
3.234069e-05
3.3843712e-05
3.5324175e-05
3.6782375e-05
3.8218589e-05
3.96331e-05
4.1026177e-05
4.2398071e-05
4.3749023e-05
4.5079263e-05
4.6388999e-05
4.7678422e-05
4.8947697e-05
5.0197021e-05
5.1426662e-05
5.2636979e-05
5.383123e-05
5.5009875e-05
5.6168981e-05
5.7303977e-05
5.8413966e-05
5.9501402e-05
6.0569638e-05
6.1621295e-05
6.2656821e-05
6.3678895e-05
6.4676175e-05
6.5694567e-05
6.6533006e-05
6.8051313e-05
1.994453e-06
1.9934114e-06
1.9923127e-06
1.9911723e-06
1.9899929e-06
1.9887742e-06
1.9875149e-06
1.9862136e-06
1.984869e-06
1.9834795e-06
1.9820438e-06
1.9805603e-06
1.9790278e-06
1.9774448e-06
1.9758101e-06
1.9741223e-06
1.97238e-06
1.9705815e-06
1.9687248e-06
1.9668078e-06
1.9648281e-06
1.9627837e-06
1.9606718e-06
1.9584902e-06
1.9562363e-06
1.9539074e-06
1.9515011e-06
1.9490146e-06
1.9464452e-06
1.9437902e-06
1.9410464e-06
1.9382109e-06
1.9352801e-06
1.9322504e-06
1.9291177e-06
1.9258779e-06
1.9225245e-06
1.919052e-06
1.9154488e-06
1.9117011e-06
1.9078037e-06
1.9037464e-06
1.8995251e-06
1.8951071e-06
1.890527e-06
1.886071e-06
1.8818304e-06
1.8784506e-06
1.8755085e-06
1.8763469e-06
1.8813908e-06
1.897652e-06
1.9381077e-06
2.0310287e-06
2.2440567e-06
2.6577957e-06
3.3869173e-06
4.5441469e-06
6.0821327e-06
7.9170226e-06
9.904894e-06
1.1928394e-05
1.3926602e-05
1.5889523e-05
1.782631e-05
1.9741409e-05
2.1632937e-05
2.3499532e-05
2.5341786e-05
2.7160028e-05
2.8953998e-05
3.0723699e-05
3.2469317e-05
3.4190943e-05
3.5888704e-05
3.7562793e-05
3.9213391e-05
4.0840688e-05
4.2444883e-05
4.4026175e-05
4.5584745e-05
4.7120758e-05
4.8634375e-05
5.0125752e-05
5.1595138e-05
5.3042444e-05
5.446998e-05
5.5879314e-05
5.7268635e-05
5.8634138e-05
5.9973694e-05
6.1288069e-05
6.25797e-05
6.3851224e-05
6.5103518e-05
6.6340045e-05
6.7548365e-05
6.8782095e-05
6.9803813e-05
7.1648254e-05
1.9951325e-06
1.9943057e-06
1.9934358e-06
1.9925336e-06
1.9916009e-06
1.9906372e-06
1.9896417e-06
1.9886133e-06
1.9875509e-06
1.9864534e-06
1.9853196e-06
1.9841484e-06
1.9829387e-06
1.9816895e-06
1.9803997e-06
1.9790682e-06
1.9776939e-06
1.9762753e-06
1.974811e-06
1.9732994e-06
1.9717386e-06
1.970127e-06
1.9684627e-06
1.9667436e-06
1.964968e-06
1.9631337e-06
1.9612387e-06
1.9592809e-06
1.9572582e-06
1.9551683e-06
1.9530089e-06
1.9507774e-06
1.9484714e-06
1.9460881e-06
1.9436249e-06
1.9410789e-06
1.9384473e-06
1.935727e-06
1.932915e-06
1.9300074e-06
1.9269996e-06
1.9238853e-06
1.9206584e-06
1.9173063e-06
1.9138214e-06
1.91019e-06
1.906412e-06
1.9024452e-06
1.8983264e-06
1.8943238e-06
1.89056e-06
1.8875824e-06
1.8855583e-06
1.8870152e-06
1.8939383e-06
1.915578e-06
1.968948e-06
2.1017281e-06
2.4012704e-06
2.9691675e-06
4.0036958e-06
5.4901761e-06
7.3673862e-06
9.4820341e-06
1.1680057e-05
1.3868277e-05
1.6022516e-05
1.8150962e-05
2.0259593e-05
2.2346407e-05
2.4409381e-05
2.6448633e-05
2.8464058e-05
3.0455106e-05
3.2421583e-05
3.4363445e-05
3.6280597e-05
3.8173033e-05
4.0040807e-05
4.188398e-05
4.370262e-05
4.5496797e-05
4.7266609e-05
4.9012132e-05
5.0733538e-05
5.243036e-05
5.4104166e-05
5.5757054e-05
5.7388624e-05
5.8996184e-05
6.0577187e-05
6.2131121e-05
6.3659364e-05
6.5164198e-05
6.6646664e-05
6.8110881e-05
6.9543339e-05
7.1005506e-05
7.2222583e-05
7.4413023e-05
1.995735e-06
1.9950669e-06
1.9943657e-06
1.9936389e-06
1.9928877e-06
1.9921118e-06
1.9913104e-06
1.9904827e-06
1.9896278e-06
1.9887448e-06
1.9878329e-06
1.986891e-06
1.9859185e-06
1.9849143e-06
1.9838776e-06
1.9828076e-06
1.9817032e-06
1.9805634e-06
1.979387e-06
1.9781728e-06
1.9769192e-06
1.9756251e-06
1.9742888e-06
1.9729088e-06
1.9714837e-06
1.9700118e-06
1.9684915e-06
1.9669212e-06
1.9652991e-06
1.9636234e-06
1.9618923e-06
1.9601039e-06
1.958256e-06
1.9563465e-06
1.9543733e-06
1.9523341e-06
1.9502267e-06
1.9480486e-06
1.9457977e-06
1.9434713e-06
1.9410669e-06
1.9385817e-06
1.9360127e-06
1.9333563e-06
1.9306089e-06
1.9277646e-06
1.9248179e-06
1.9217565e-06
1.9185725e-06
1.9152525e-06
1.9117992e-06
1.9081634e-06
1.9044517e-06
1.9008201e-06
1.8977658e-06
1.8945614e-06
1.8947926e-06
1.8979951e-06
1.9102207e-06
1.9458245e-06
2.0337445e-06
2.2641002e-06
2.7488945e-06
3.6734039e-06
5.145099e-06
7.0905393e-06
9.3488162e-06
1.1728778e-05
1.4109102e-05
1.6455751e-05
1.8777334e-05
2.108057e-05
2.3363055e-05
2.5622597e-05
2.7859043e-05
3.0071825e-05
3.226017e-05
3.4423721e-05
3.6562189e-05
3.8675296e-05
4.0762848e-05
4.2824694e-05
4.4860765e-05
4.6870979e-05
4.8855336e-05
5.0812995e-05
5.2745054e-05
5.4653751e-05
5.653943e-05
5.8400443e-05
6.0234355e-05
6.203985e-05
6.3817301e-05
6.55684e-05
6.7294091e-05
6.8998973e-05
7.0668455e-05
7.2371929e-05
7.3796321e-05
7.6352165e-05
1.9962638e-06
1.9957162e-06
1.9951426e-06
1.9945483e-06
1.9939342e-06
1.9933e-06
1.9926452e-06
1.991969e-06
1.9912706e-06
1.9905495e-06
1.9898049e-06
1.989036e-06
1.9882421e-06
1.9874226e-06
1.9865767e-06
1.9857036e-06
1.9848025e-06
1.9838727e-06
1.9829131e-06
1.9819227e-06
1.9809004e-06
1.9798451e-06
1.9787556e-06
1.9776308e-06
1.9764692e-06
1.9752698e-06
1.9740312e-06
1.972752e-06
1.9714309e-06
1.9700664e-06
1.968657e-06
1.9672012e-06
1.9656974e-06
1.9641437e-06
1.9625385e-06
1.96088e-06
1.9591663e-06
1.9573955e-06
1.9555657e-06
1.9536749e-06
1.9517209e-06
1.9497015e-06
1.9476146e-06
1.9454575e-06
1.943228e-06
1.9409232e-06
1.9385404e-06
1.9360761e-06
1.9335269e-06
1.9308871e-06
1.9281519e-06
1.9253094e-06
1.9223526e-06
1.9192717e-06
1.9160481e-06
1.9126141e-06
1.9092619e-06
1.9060976e-06
1.9035273e-06
1.9020239e-06
1.9036816e-06
1.9117508e-06
1.9380129e-06
2.007647e-06
2.20123e-06
2.6464539e-06
3.5395735e-06
5.0575782e-06
7.1226562e-06
9.5531778e-06
1.2124768e-05
1.469791e-05
1.7237519e-05
1.9754362e-05
2.2254178e-05
2.4733779e-05
2.7191265e-05
2.9626206e-05
3.2037555e-05
3.4424366e-05
3.6785994e-05
3.9121851e-05
4.1431535e-05
4.3714665e-05
4.5970923e-05
4.8199002e-05
5.03997e-05
5.2575201e-05
5.4726041e-05
5.6851321e-05
5.8948962e-05
6.1017251e-05
6.3055736e-05
6.5065405e-05
6.7046886e-05
6.9005051e-05
7.0924174e-05
7.2881593e-05
7.4525099e-05
7.7465353e-05
1.9967195e-06
1.9962652e-06
1.99579e-06
1.995298e-06
1.9947897e-06
1.994265e-06
1.9937231e-06
1.9931637e-06
1.9925861e-06
1.9919897e-06
1.991374e-06
1.9907384e-06
1.9900822e-06
1.9894048e-06
1.9887057e-06
1.9879842e-06
1.9872397e-06
1.9864714e-06
1.9856787e-06
1.9848605e-06
1.9840161e-06
1.9831445e-06
1.9822449e-06
1.9813161e-06
1.9803572e-06
1.9793671e-06
1.9783449e-06
1.9772893e-06
1.9761993e-06
1.9750738e-06
1.9739113e-06
1.9727108e-06
1.9714709e-06
1.9701901e-06
1.9688671e-06
1.9675005e-06
1.9660886e-06
1.96463e-06
1.963123e-06
1.9615661e-06
1.9599575e-06
1.9582953e-06
1.9565778e-06
1.9548028e-06
1.9529685e-06
1.9510726e-06
1.9491129e-06
1.9470869e-06
1.9449925e-06
1.9428269e-06
1.9405877e-06
1.9382723e-06
1.935877e-06
1.9333975e-06
1.9308249e-06
1.9281513e-06
1.9253604e-06
1.9224585e-06
1.9193889e-06
1.9162643e-06
1.9132472e-06
1.9107224e-06
1.9087553e-06
1.9098508e-06
1.9161903e-06
1.9383354e-06
2.0010056e-06
2.1851628e-06
2.6362698e-06
3.5827964e-06
5.2310733e-06
7.4886567e-06
1.0132144e-05
1.2908111e-05
1.5675666e-05
1.8410499e-05
2.1126171e-05
2.3825571e-05
2.6504989e-05
2.9162906e-05
3.1798255e-05
3.4409651e-05
3.699617e-05
3.9556909e-05
4.2090991e-05
4.4596461e-05
4.7073846e-05
4.9525168e-05
5.1950731e-05
5.4349976e-05
5.6721167e-05
5.9062467e-05
6.1372817e-05
6.365249e-05
6.5901632e-05
6.8125175e-05
7.0306158e-05
7.2529826e-05
7.4403999e-05
7.7748371e-05
1.9971063e-06
1.9967253e-06
1.9963275e-06
1.9959159e-06
1.9954907e-06
1.9950518e-06
1.9945987e-06
1.9941309e-06
1.993648e-06
1.9931495e-06
1.9926349e-06
1.9921037e-06
1.9915554e-06
1.9909894e-06
1.9904054e-06
1.9898027e-06
1.9891809e-06
1.9885392e-06
1.9878771e-06
1.9871938e-06
1.9864888e-06
1.9857611e-06
1.98501e-06
1.9842347e-06
1.9834344e-06
1.9826082e-06
1.9817552e-06
1.9808746e-06
1.9799653e-06
1.9790265e-06
1.9780572e-06
1.9770562e-06
1.9760225e-06
1.9749549e-06
1.9738523e-06
1.9727135e-06
1.9715373e-06
1.9703223e-06
1.9690672e-06
1.9677708e-06
1.9664316e-06
1.965048e-06
1.9636186e-06
1.9621417e-06
1.9606157e-06
1.9590387e-06
1.9574089e-06
1.9557244e-06
1.9539831e-06
1.952183e-06
1.9503222e-06
1.9483987e-06
1.9464104e-06
1.9443551e-06
1.9422299e-06
1.9400324e-06
1.9377574e-06
1.9354005e-06
1.9329509e-06
1.930399e-06
1.9277441e-06
1.9249353e-06
1.9220231e-06
1.919193e-06
1.9167994e-06
1.9148048e-06
1.9157503e-06
1.9217168e-06
1.9434908e-06
2.0081444e-06
2.2101407e-06
2.7178824e-06
3.8238375e-06
5.7064226e-06
8.2387668e-06
1.1131636e-05
1.4118817e-05
1.7082367e-05
2.0017034e-05
2.2935607e-05
2.5837151e-05
2.8718778e-05
3.1579391e-05
3.4417242e-05
3.7230554e-05
4.0016486e-05
4.2775179e-05
4.5508386e-05
4.8215837e-05
5.0896858e-05
5.3549837e-05
5.6172908e-05
5.8764589e-05
6.1324482e-05
6.3852144e-05
6.6352356e-05
6.8806803e-05
7.1308537e-05
7.3424559e-05
7.7192165e-05
1.9974311e-06
1.9971088e-06
1.9967728e-06
1.9964251e-06
1.9960662e-06
1.9956956e-06
1.9953131e-06
1.9949184e-06
1.9945109e-06
1.9940903e-06
1.9936562e-06
1.9932081e-06
1.9927456e-06
1.9922684e-06
1.9917759e-06
1.9912677e-06
1.9907434e-06
1.9902024e-06
1.9896442e-06
1.9890683e-06
1.9884739e-06
1.9878606e-06
1.9872277e-06
1.9865744e-06
1.9859e-06
1.985204e-06
1.9844855e-06
1.9837438e-06
1.9829781e-06
1.9821876e-06
1.9813715e-06
1.9805288e-06
1.9796588e-06
1.9787603e-06
1.9778326e-06
1.9768745e-06
1.9758851e-06
1.9748632e-06
1.9738078e-06
1.9727178e-06
1.9715919e-06
1.9704291e-06
1.9692278e-06
1.9679869e-06
1.9667049e-06
1.9653803e-06
1.9640117e-06
1.9625973e-06
1.9611356e-06
1.9596249e-06
1.9580635e-06
1.9564497e-06
1.9547817e-06
1.9530577e-06
1.9512757e-06
1.9494334e-06
1.9475288e-06
1.9455592e-06
1.9435222e-06
1.9414143e-06
1.9392316e-06
1.9369645e-06
1.9346039e-06
1.9321459e-06
1.9295455e-06
1.9268308e-06
1.9241951e-06
1.9219553e-06
1.9202049e-06
1.9213125e-06
1.9281272e-06
1.9537197e-06
2.0308333e-06
2.2871122e-06
2.9196207e-06
4.3443628e-06
6.5820915e-06
9.4503005e-06
1.260366e-05
1.5794774e-05
1.8953736e-05
2.2092692e-05
2.521799e-05
2.8325722e-05
3.1413413e-05
3.4477361e-05
3.7517079e-05
4.053396e-05
4.3526853e-05
4.6494492e-05
4.9435022e-05
5.2346459e-05
5.5226982e-05
5.8075573e-05
6.0891127e-05
6.3678081e-05
6.6416617e-05
6.9207451e-05
7.1575955e-05
7.5784036e-05
1.9977039e-06
1.9974291e-06
1.9971429e-06
1.996847e-06
1.9965414e-06
1.9962261e-06
1.9959006e-06
1.9955647e-06
1.995218e-06
1.9948602e-06
1.994491e-06
1.9941099e-06
1.9937166e-06
1.9933108e-06
1.9928921e-06
1.9924601e-06
1.9920143e-06
1.9915544e-06
1.99108e-06
1.9905904e-06
1.9900853e-06
1.9895641e-06
1.9890262e-06
1.9884712e-06
1.9878983e-06
1.987307e-06
1.9866967e-06
1.9860668e-06
1.9854166e-06
1.9847454e-06
1.9840525e-06
1.9833372e-06
1.9825987e-06
1.9818362e-06
1.981049e-06
1.9802361e-06
1.9793967e-06
1.97853e-06
1.977635e-06
1.9767107e-06
1.9757561e-06
1.9747703e-06
1.9737522e-06
1.9727006e-06
1.9716143e-06
1.9704922e-06
1.969333e-06
1.9681352e-06
1.9668976e-06
1.9656187e-06
1.9642972e-06
1.9629315e-06
1.9615203e-06
1.960062e-06
1.9585548e-06
1.9569968e-06
1.9553863e-06
1.9537212e-06
1.9519997e-06
1.9502198e-06
1.9483792e-06
1.9464758e-06
1.9445063e-06
1.9424675e-06
1.9403502e-06
1.9381455e-06
1.9358494e-06
1.9334168e-06
1.9308832e-06
1.9284446e-06
1.9263642e-06
1.9251579e-06
1.9268119e-06
1.9361411e-06
1.9699312e-06
2.0791672e-06
2.4449363e-06
3.3450471e-06
5.1945313e-06
7.9044047e-06
1.115163e-05
1.4563141e-05
1.7958773e-05
2.1324447e-05
2.4675389e-05
2.8008516e-05
3.1322593e-05
3.4619178e-05
3.7895971e-05
4.1150691e-05
4.4380817e-05
4.7584006e-05
5.0758059e-05
5.3901333e-05
5.7011992e-05
6.0093944e-05
6.3125694e-05
6.6215436e-05
6.8846107e-05
7.3511212e-05
1.9979369e-06
1.997701e-06
1.9974555e-06
1.9972017e-06
1.9969397e-06
1.9966693e-06
1.9963903e-06
1.9961024e-06
1.9958053e-06
1.9954987e-06
1.9951823e-06
1.9948558e-06
1.9945189e-06
1.9941713e-06
1.9938126e-06
1.9934426e-06
1.9930609e-06
1.9926671e-06
1.9922608e-06
1.9918416e-06
1.9914091e-06
1.9909629e-06
1.9905024e-06
1.9900273e-06
1.989537e-06
1.989031e-06
1.9885087e-06
1.9879698e-06
1.9874135e-06
1.9868393e-06
1.9862466e-06
1.9856348e-06
1.9850033e-06
1.9843514e-06
1.9836783e-06
1.9829835e-06
1.982266e-06
1.9815253e-06
1.9807605e-06
1.9799708e-06
1.9791554e-06
1.9783134e-06
1.9774439e-06
1.9765459e-06
1.9756185e-06
1.9746606e-06
1.9736712e-06
1.9726491e-06
1.9715931e-06
1.9705022e-06
1.969375e-06
1.9682105e-06
1.9670073e-06
1.9657641e-06
1.9644795e-06
1.9631519e-06
1.9617797e-06
1.9603614e-06
1.9588952e-06
1.9573794e-06
1.9558123e-06
1.9541921e-06
1.9525167e-06
1.9507843e-06
1.9489927e-06
1.9471391e-06
1.9452202e-06
1.9432274e-06
1.9411512e-06
1.9389897e-06
1.9366937e-06
1.9343064e-06
1.9322026e-06
1.9297214e-06
1.9298687e-06
1.9327968e-06
1.947674e-06
1.9979212e-06
2.1881311e-06
2.7508406e-06
4.145364e-06
6.58042e-06
9.821685e-06
1.3418002e-05
1.7053467e-05
2.0649467e-05
2.4226067e-05
2.7792746e-05
3.1345693e-05
3.4882084e-05
3.8398618e-05
4.1892386e-05
4.5360663e-05
4.8801084e-05
5.221098e-05
5.5593541e-05
5.8925404e-05
6.2322014e-05
6.5223041e-05
7.0360016e-05
1.9981413e-06
1.9979374e-06
1.9977254e-06
1.9975063e-06
1.9972802e-06
1.9970469e-06
1.9968062e-06
1.9965578e-06
1.9963015e-06
1.996037e-06
1.9957641e-06
1.9954825e-06
1.995192e-06
1.9948922e-06
1.994583e-06
1.994264e-06
1.9939349e-06
1.9935954e-06
1.9932451e-06
1.9928838e-06
1.9925111e-06
1.9921265e-06
1.9917297e-06
1.9913203e-06
1.9908978e-06
1.9904619e-06
1.990012e-06
1.9895477e-06
1.9890686e-06
1.9885741e-06
1.9880638e-06
1.987537e-06
1.9869933e-06
1.9864321e-06
1.9858528e-06
1.9852548e-06
1.9846375e-06
1.9840002e-06
1.9833422e-06
1.9826629e-06
1.9819616e-06
1.9812375e-06
1.9804898e-06
1.9797178e-06
1.9789206e-06
1.9780973e-06
1.977247e-06
1.9763687e-06
1.9754616e-06
1.9745245e-06
1.9735565e-06
1.9725565e-06
1.9715236e-06
1.9704564e-06
1.9693539e-06
1.9682147e-06
1.9670375e-06
1.9658209e-06
1.9645635e-06
1.9632639e-06
1.9619205e-06
1.9605317e-06
1.9590959e-06
1.9576115e-06
1.9560766e-06
1.9544896e-06
1.9528484e-06
1.9511511e-06
1.9493951e-06
1.9475766e-06
1.9456893e-06
1.9437134e-06
1.9416835e-06
1.9394399e-06
1.9372336e-06
1.9352867e-06
1.9335329e-06
1.9343409e-06
1.9405593e-06
1.9667942e-06
2.0592287e-06
2.4143227e-06
3.3818222e-06
5.4987878e-06
8.6472872e-06
1.2378774e-05
1.6249091e-05
2.0091227e-05
2.3909269e-05
2.7716422e-05
3.1510071e-05
3.5287443e-05
3.904537e-05
4.2780635e-05
4.6489659e-05
5.0174729e-05
5.3810406e-05
5.751915e-05
6.0696497e-05
6.6317562e-05
1.9983256e-06
1.9981484e-06
1.9979643e-06
1.9977741e-06
1.9975779e-06
1.9973753e-06
1.9971664e-06
1.9969508e-06
1.9967284e-06
1.9964989e-06
1.9962621e-06
1.9960178e-06
1.9957658e-06
1.9955058e-06
1.9952375e-06
1.9949608e-06
1.9946754e-06
1.994381e-06
1.9940773e-06
1.993764e-06
1.9934408e-06
1.9931074e-06
1.9927634e-06
1.9924085e-06
1.9920423e-06
1.9916644e-06
1.9912746e-06
1.9908723e-06
1.9904571e-06
1.9900287e-06
1.9895866e-06
1.9891303e-06
1.9886594e-06
1.9881734e-06
1.9876718e-06
1.987154e-06
1.9866195e-06
1.9860678e-06
1.9854983e-06
1.9849104e-06
1.9843035e-06
1.983677e-06
1.9830302e-06
1.9823623e-06
1.9816728e-06
1.9809608e-06
1.9802256e-06
1.9794663e-06
1.9786821e-06
1.9778722e-06
1.9770357e-06
1.9761717e-06
1.9752793e-06
1.9743575e-06
1.9734054e-06
1.9724217e-06
1.9714054e-06
1.9703552e-06
1.9692701e-06
1.9681487e-06
1.9669897e-06
1.9657919e-06
1.9645538e-06
1.9632739e-06
1.9619508e-06
1.9605829e-06
1.9591686e-06
1.9577062e-06
1.956194e-06
1.9546302e-06
1.953013e-06
1.9513392e-06
1.9496059e-06
1.9478054e-06
1.9459208e-06
1.9439546e-06
1.9418473e-06
1.9398235e-06
1.9380587e-06
1.9374527e-06
1.9397859e-06
1.9536061e-06
2.005333e-06
2.2196884e-06
2.8915519e-06
4.6945337e-06
7.6811496e-06
1.149643e-05
1.5591706e-05
1.9683265e-05
2.3744879e-05
2.7795013e-05
3.1832768e-05
3.585495e-05
3.9857635e-05
4.3842205e-05
4.7781029e-05
5.1803375e-05
5.5259851e-05
6.137336e-05
1.9984964e-06
1.9983416e-06
1.9981809e-06
1.9980149e-06
1.9978436e-06
1.9976669e-06
1.9974845e-06
1.9972964e-06
1.9971024e-06
1.9969022e-06
1.9966957e-06
1.9964826e-06
1.9962628e-06
1.996036e-06
1.9958021e-06
1.9955609e-06
1.995312e-06
1.9950553e-06
1.9947905e-06
1.9945174e-06
1.9942357e-06
1.993945e-06
1.9936452e-06
1.9933359e-06
1.9930168e-06
1.9926875e-06
1.9923478e-06
1.9919973e-06
1.9916357e-06
1.9912625e-06
1.9908774e-06
1.9904801e-06
1.99007e-06
1.9896468e-06
1.98921e-06
1.9887592e-06
1.988294e-06
1.9878138e-06
1.9873182e-06
1.9868066e-06
1.9862785e-06
1.9857334e-06
1.9851707e-06
1.9845898e-06
1.9839901e-06
1.983371e-06
1.9827317e-06
1.9820716e-06
1.9813899e-06
1.980686e-06
1.9799591e-06
1.9792084e-06
1.9784331e-06
1.9776324e-06
1.9768054e-06
1.9759512e-06
1.9750688e-06
1.9741571e-06
1.9732153e-06
1.9722421e-06
1.9712366e-06
1.9701975e-06
1.9691236e-06
1.9680138e-06
1.9668667e-06
1.965681e-06
1.9644553e-06
1.9631881e-06
1.961878e-06
1.9605234e-06
1.9591227e-06
1.9576743e-06
1.9561762e-06
1.9546273e-06
1.953024e-06
1.9513619e-06
1.9496298e-06
1.9478293e-06
1.9458922e-06
1.9439323e-06
1.942165e-06
1.9406161e-06
1.9415843e-06
1.9487212e-06
1.9803804e-06
2.1040343e-06
2.6025428e-06
4.0324211e-06
6.8565421e-06
1.0753149e-05
1.5081205e-05
1.9435224e-05
2.3749175e-05
2.8047947e-05
3.2334215e-05
3.6609821e-05
4.0845761e-05
4.5178213e-05
4.8912398e-05
5.5521245e-05
1.9986584e-06
1.9985225e-06
1.9983815e-06
1.998236e-06
1.9980857e-06
1.9979308e-06
1.9977709e-06
1.997606e-06
1.9974359e-06
1.9972604e-06
1.9970794e-06
1.9968927e-06