/*--------------------------------*- C++ -*----------------------------------*\
  =========                 |
  \\      /  F ield         | OpenFOAM: The Open Source CFD Toolbox
   \\    /   O peration     | Website:  https://openfoam.org
    \\  /    A nd           | Version:  12
     \\/     M anipulation  |
\*---------------------------------------------------------------------------*/
FoamFile
{
    format      ascii;
    class       volScalarField;
    location    "200";
    object      p;
}
// * * * * * * * * * * * * * * * * * * * * * * * * * * * * * * * * * * * * * //

dimensions      [0 2 -2 0 0 0 0];

internalField   nonuniform List<scalar> 
13056
(
0.0038487124
0.0038682761
0.0039111053
0.0039653502
0.0040293281
0.0041029604
0.0041856013
0.0042765466
0.0043754649
0.004482405
0.004597715
0.0047220443
0.0048564241
0.0050024116
0.005162292
0.0053394891
0.0055390042
0.0057691555
0.006041692
0.0063837905
0.0068220725
0.0075120484
0.008400981
0.012395349
0.0089277572
0.003810748
0.0037025855
0.0041752626
0.004296388
0.0042383902
0.0041596017
0.0040904535
0.0040226279
0.0039532352
0.0038848094
0.0038195216
0.0037578979
0.0036994434
0.0036438318
0.0035907992
0.0035401161
0.0034915946
0.0034448462
0.0033998995
0.0033563862
0.0033143209
0.0032736392
0.0032339512
0.0031954877
0.0031581427
0.0031215764
0.003085936
0.0030512296
0.0030172437
0.002983845
0.0029512463
0.00291934
0.0028878522
0.0028568387
0.0028264515
0.0027965674
0.0027669562
0.0027376543
0.0027088377
0.0026804111
0.0026521212
0.0026240295
0.002596222
0.0025687156
0.0025413282
0.0025140074
0.0024867684
0.0024597551
0.0024328713
0.0024059122
0.0023789362
0.0023519903
0.0023251369
0.0022982286
0.002271167
0.0022439646
0.0022167348
0.0021894643
0.0021619482
0.0021341898
0.0021061735
0.0020780375
0.0020496982
0.0020209353
0.0019917996
0.0019623024
0.0019325199
0.0019023056
0.0018715088
0.001840128
0.0018082812
0.0017759154
0.001742767
0.0017088162
0.001674097
0.0016386393
0.0016022308
0.0015646828
0.0015260243
0.0014862986
0.0014452776
0.0014026761
0.0013585346
0.0013128277
0.0012652354
0.0012154299
0.0011635176
0.001109393
0.0010534728
0.00099754864
0.00094287799
0.00088932976
0.00083657892
0.00078476055
0.00073393344
0.00068387127
0.00063448419
0.00058587814
0.00053823783
0.00049151928
0.00044558801
0.00040062387
0.00035681108
0.00031458034
0.00027402892
0.00023636543
0.00020016888
0.00017592503
0.00014302977
0.00024823121
-0.0001983918
0.0038487124
0.0038682761
0.0039111053
0.0039653502
0.0040293282
0.0041029604
0.0041856013
0.0042765466
0.0043754649
0.004482405
0.004597715
0.0047220444
0.0048564241
0.0050024117
0.0051622921
0.0053394892
0.0055390044
0.0057691557
0.0060416923
0.006383791
0.0068220732
0.00751205
0.0084009838
0.012378187
0.0089285702
0.0038114153
0.0037026845
0.0041753
0.0042964145
0.0042384126
0.0041596214
0.0040904709
0.0040226435
0.0039532492
0.0038848222
0.0038195332
0.0037579087
0.0036994533
0.0036438411
0.0035908078
0.0035401241
0.0034916021
0.0034448532
0.0033999061
0.0033563924
0.0033143268
0.0032736448
0.0032339565
0.0031954927
0.0031581475
0.0031215809
0.0030859402
0.0030512336
0.0030172476
0.0029838487
0.0029512498
0.0029193434
0.0028878554
0.0028568417
0.0028264544
0.0027965702
0.0027669589
0.0027376568
0.0027088402
0.0026804134
0.0026521235
0.0026240316
0.0025962241
0.0025687175
0.0025413301
0.0025140092
0.0024867701
0.0024597568
0.0024328729
0.0024059137
0.0023789376
0.0023519918
0.0023251383
0.0022982299
0.0022711682
0.0022439658
0.002216736
0.0021894655
0.0021619493
0.0021341908
0.0021061745
0.0020780385
0.0020496991
0.0020209361
0.0019918004
0.0019623032
0.0019325207
0.0019023063
0.0018715096
0.0018401287
0.0018082819
0.001775916
0.0017427676
0.0017088168
0.0016740976
0.0016386398
0.0016022312
0.0015646833
0.0015260248
0.001486299
0.001445278
0.0014026765
0.0013585349
0.0013128281
0.0012652358
0.0012154302
0.0011635179
0.0011093932
0.0010534731
0.00099754888
0.00094287822
0.00088932997
0.00083657913
0.00078476075
0.00073393363
0.00068387145
0.00063448436
0.00058587831
0.00053823799
0.00049151943
0.00044558815
0.00040062401
0.00035681122
0.00031458047
0.00027402904
0.00023636556
0.000200169
0.00017592515
0.0001430299
0.00024823135
-0.00019839171
0.0038487124
0.0038682761
0.0039111053
0.0039653502
0.0040293282
0.0041029604
0.0041856013
0.0042765466
0.0043754649
0.0044824051
0.0045977151
0.0047220444
0.0048564242
0.0050024118
0.0051622922
0.0053394894
0.0055390046
0.005769156
0.0060416926
0.0063837916
0.0068220739
0.0075120517
0.0084009859
0.012361883
0.0089294568
0.0038121861
0.003702802
0.0041753448
0.0042964462
0.0042384395
0.004159645
0.0040904918
0.0040226621
0.003953266
0.0038848374
0.0038195472
0.0037579216
0.0036994652
0.0036438521
0.0035908181
0.0035401337
0.0034916111
0.0034448617
0.0033999141
0.0033563999
0.0033143339
0.0032736515
0.0032339628
0.0031954987
0.0031581531
0.0031215863
0.0030859454
0.0030512385
0.0030172522
0.0029838531
0.002951254
0.0029193474
0.0028878593
0.0028568454
0.0028264579
0.0027965735
0.0027669621
0.0027376599
0.0027088431
0.0026804163
0.0026521261
0.0026240342
0.0025962266
0.0025687199
0.0025413324
0.0025140114
0.0024867722
0.0024597588
0.0024328748
0.0024059156
0.0023789394
0.0023519935
0.00232514
0.0022982315
0.0022711697
0.0022439672
0.0022167374
0.0021894668
0.0021619506
0.002134192
0.0021061757
0.0020780396
0.0020497002
0.0020209372
0.0019918014
0.0019623041
0.0019325216
0.0019023072
0.0018715104
0.0018401295
0.0018082826
0.0017759167
0.0017427683
0.0017088175
0.0016740982
0.0016386404
0.0016022318
0.0015646839
0.0015260253
0.0014862995
0.0014452784
0.001402677
0.0013585354
0.0013128285
0.0012652362
0.0012154306
0.0011635182
0.0011093935
0.0010534734
0.00099754917
0.00094287849
0.00088933023
0.00083657937
0.00078476098
0.00073393385
0.00068387166
0.00063448456
0.0005858785
0.00053823818
0.00049151961
0.00044558833
0.00040062418
0.00035681138
0.00031458062
0.0002740292
0.0002363657
0.00020016914
0.00017592529
0.00014303004
0.00024823151
-0.0001983916
0.0038487124
0.0038682761
0.0039111053
0.0039653502
0.0040293282
0.0041029604
0.0041856014
0.0042765466
0.004375465
0.0044824051
0.0045977151
0.0047220445
0.0048564243
0.0050024119
0.0051622923
0.0053394895
0.0055390048
0.0057691562
0.006041693
0.0063837921
0.0068220746
0.0075120532
0.008400988
0.012347346
0.0089304497
0.0038128965
0.0037029128
0.0041753889
0.0042964774
0.0042384659
0.0041596681
0.0040905122
0.0040226804
0.0039532825
0.0038848524
0.0038195609
0.0037579342
0.0036994769
0.0036438629
0.0035908281
0.0035401431
0.0034916199
0.0034448699
0.0033999219
0.0033564072
0.0033143408
0.003273658
0.003233969
0.0031955046
0.0031581587
0.0031215915
0.0030859504
0.0030512433
0.0030172567
0.0029838574
0.0029512581
0.0029193513
0.002887863
0.002856849
0.0028264614
0.0027965768
0.0027669653
0.0027376629
0.002708846
0.002680419
0.0026521288
0.0026240367
0.002596229
0.0025687222
0.0025413346
0.0025140135
0.0024867743
0.0024597608
0.0024328767
0.0024059174
0.0023789412
0.0023519952
0.0023251416
0.002298233
0.0022711712
0.0022439687
0.0022167388
0.0021894681
0.0021619518
0.0021341933
0.0021061769
0.0020780408
0.0020497013
0.0020209382
0.0019918024
0.0019623051
0.0019325225
0.0019023081
0.0018715112
0.0018401303
0.0018082834
0.0017759174
0.001742769
0.0017088181
0.0016740989
0.001638641
0.0016022324
0.0015646844
0.0015260258
0.0014863
0.0014452789
0.0014026774
0.0013585358
0.0013128289
0.0012652365
0.0012154309
0.0011635186
0.0011093939
0.0010534737
0.00099754946
0.00094287876
0.00088933049
0.00083657961
0.00078476121
0.00073393407
0.00068387187
0.00063448476
0.0005858787
0.00053823836
0.00049151979
0.0004455885
0.00040062434
0.00035681154
0.00031458078
0.00027402935
0.00023636585
0.00020016928
0.00017592543
0.00014303017
0.00024823167
-0.0001983915
0.0038487124
0.0038682761
0.0039111053
0.0039653502
0.0040293282
0.0041029604
0.0041856014
0.0042765466
0.004375465
0.0044824051
0.0045977152
0.0047220445
0.0048564243
0.005002412
0.0051622924
0.0053394897
0.0055390049
0.0057691565
0.0060416933
0.0063837926
0.0068220753
0.0075120546
0.0084009905
0.012333003
0.0089316021
0.0038135434
0.0037030256
0.0041754345
0.0042965094
0.0042384931
0.0041596919
0.0040905333
0.0040226991
0.0039532994
0.0038848678
0.003819575
0.0037579471
0.0036994888
0.003643874
0.0035908385
0.0035401528
0.0034916289
0.0034448784
0.0033999298
0.0033564148
0.0033143479
0.0032736647
0.0032339753
0.0031955106
0.0031581644
0.003121597
0.0030859555
0.0030512482
0.0030172614
0.0029838619
0.0029512624
0.0029193554
0.0028878669
0.0028568527
0.0028264649
0.0027965802
0.0027669685
0.002737666
0.002708849
0.0026804218
0.0026521315
0.0026240393
0.0025962315
0.0025687246
0.0025413369
0.0025140157
0.0024867764
0.0024597628
0.0024328787
0.0024059193
0.002378943
0.0023519969
0.0023251432
0.0022982346
0.0022711728
0.0022439701
0.0022167402
0.0021894695
0.0021619531
0.0021341945
0.0021061781
0.0020780419
0.0020497024
0.0020209393
0.0019918034
0.001962306
0.0019325235
0.001902309
0.0018715121
0.0018401311
0.0018082842
0.0017759182
0.0017427697
0.0017088188
0.0016740995
0.0016386417
0.001602233
0.001564685
0.0015260264
0.0014863005
0.0014452794
0.0014026779
0.0013585362
0.0013128293
0.0012652369
0.0012154313
0.0011635189
0.0011093942
0.001053474
0.00099754975
0.00094287904
0.00088933075
0.00083657986
0.00078476145
0.0007339343
0.00068387209
0.00063448497
0.0005858789
0.00053823855
0.00049151997
0.00044558867
0.00040062451
0.00035681171
0.00031458094
0.0002740295
0.000236366
0.00020016943
0.00017592558
0.00014303031
0.00024823184
-0.00019839139
0.0038487124
0.0038682761
0.0039111054
0.0039653502
0.0040293282
0.0041029605
0.0041856014
0.0042765467
0.004375465
0.0044824052
0.0045977152
0.0047220446
0.0048564244
0.0050024121
0.0051622926
0.0053394898
0.0055390051
0.0057691567
0.0060416936
0.0063837931
0.0068220761
0.0075120559
0.0084009935
0.012318271
0.0089327493
0.0038141213
0.0037031472
0.0041754838
0.0042965439
0.0042385222
0.0041597174
0.0040905558
0.0040227192
0.0039533175
0.0038848842
0.0038195901
0.003757961
0.0036995016
0.0036438859
0.0035908495
0.0035401631
0.0034916386
0.0034448875
0.0033999384
0.0033564228
0.0033143555
0.0032736719
0.0032339821
0.003195517
0.0031581705
0.0031216028
0.003085961
0.0030512534
0.0030172664
0.0029838666
0.0029512669
0.0029193597
0.002887871
0.0028568566
0.0028264686
0.0027965838
0.0027669719
0.0027376693
0.0027088521
0.0026804249
0.0026521344
0.0026240421
0.0025962342
0.0025687272
0.0025413394
0.0025140181
0.0024867787
0.002459765
0.0024328807
0.0024059213
0.0023789449
0.0023519987
0.002325145
0.0022982363
0.0022711744
0.0022439717
0.0022167417
0.0021894709
0.0021619545
0.0021341958
0.0021061793
0.0020780431
0.0020497036
0.0020209404
0.0019918045
0.0019623071
0.0019325245
0.0019023099
0.001871513
0.001840132
0.001808285
0.001775919
0.0017427705
0.0017088195
0.0016741002
0.0016386423
0.0016022336
0.0015646856
0.0015260269
0.0014863011
0.0014452799
0.0014026784
0.0013585367
0.0013128297
0.0012652374
0.0012154317
0.0011635193
0.0011093945
0.0010534743
0.00099755006
0.00094287933
0.00088933103
0.00083658013
0.0007847617
0.00073393454
0.00068387232
0.00063448519
0.00058587911
0.00053823876
0.00049152017
0.00044558886
0.00040062469
0.00035681188
0.00031458111
0.00027402966
0.00023636616
0.00020016958
0.00017592573
0.00014303046
0.00024823202
-0.00019839128
0.0038487124
0.0038682762
0.0039111054
0.0039653502
0.0040293282
0.0041029605
0.0041856014
0.0042765467
0.004375465
0.0044824052
0.0045977153
0.0047220447
0.0048564245
0.0050024122
0.0051622927
0.00533949
0.0055390054
0.005769157
0.006041694
0.0063837937
0.0068220768
0.0075120572
0.0084009971
0.012303123
0.0089339188
0.0038147065
0.0037032819
0.0041755387
0.0042965819
0.0042385542
0.0041597454
0.0040905805
0.0040227413
0.0039533373
0.0038849022
0.0038196065
0.0037579761
0.0036995157
0.0036438989
0.0035908616
0.0035401744
0.0034916492
0.0034448974
0.0033999477
0.0033564316
0.0033143638
0.0032736797
0.0032339895
0.0031955241
0.0031581772
0.0031216091
0.003085967
0.0030512591
0.0030172718
0.0029838718
0.0029512718
0.0029193644
0.0028878755
0.0028568609
0.0028264727
0.0027965877
0.0027669757
0.0027376729
0.0027088556
0.0026804282
0.0026521376
0.0026240451
0.0025962371
0.00256873
0.002541342
0.0025140206
0.0024867811
0.0024597674
0.002432883
0.0024059235
0.002378947
0.0023520007
0.0023251469
0.0022982382
0.0022711762
0.0022439734
0.0022167433
0.0021894725
0.002161956
0.0021341973
0.0021061807
0.0020780445
0.0020497048
0.0020209416
0.0019918057
0.0019623082
0.0019325255
0.001902311
0.001871514
0.001840133
0.0018082859
0.0017759199
0.0017427713
0.0017088203
0.001674101
0.001638643
0.0016022343
0.0015646862
0.0015260276
0.0014863017
0.0014452805
0.0014026789
0.0013585372
0.0013128302
0.0012652378
0.0012154321
0.0011635197
0.0011093949
0.0010534747
0.0009975504
0.00094287965
0.00088933133
0.00083658042
0.00078476198
0.0007339348
0.00068387257
0.00063448543
0.00058587934
0.00053823898
0.00049152038
0.00044558907
0.00040062489
0.00035681207
0.00031458129
0.00027402984
0.00023636633
0.00020016975
0.0001759259
0.00014303061
0.00024823222
-0.00019839116
0.0038487124
0.0038682762
0.0039111054
0.0039653502
0.0040293282
0.0041029605
0.0041856014
0.0042765467
0.0043754651
0.0044824053
0.0045977153
0.0047220447
0.0048564246
0.0050024123
0.0051622929
0.0053394902
0.0055390056
0.0057691574
0.0060416945
0.0063837943
0.0068220776
0.0075120586
0.0084010013
0.012287608
0.0089351201
0.0038154286
0.0037034357
0.0041756013
0.0042966249
0.0042385902
0.0041597768
0.0040906083
0.004022766
0.0039533595
0.0038849224
0.003819625
0.0037579931
0.0036995313
0.0036439133
0.0035908751
0.0035401869
0.0034916609
0.0034449084
0.003399958
0.0033564413
0.003314373
0.0032736884
0.0032339978
0.0031955318
0.0031581845
0.0031216161
0.0030859737
0.0030512654
0.0030172778
0.0029838775
0.0029512773
0.0029193696
0.0028878805
0.0028568656
0.0028264773
0.002796592
0.0027669798
0.0027376769
0.0027088594
0.0026804318
0.002652141
0.0026240485
0.0025962403
0.002568733
0.002541345
0.0025140235
0.0024867838
0.00245977
0.0024328855
0.0024059259
0.0023789493
0.002352003
0.0023251491
0.0022982402
0.0022711781
0.0022439753
0.0022167452
0.0021894742
0.0021619577
0.0021341989
0.0021061823
0.0020780459
0.0020497063
0.002020943
0.001991807
0.0019623095
0.0019325267
0.0019023121
0.0018715151
0.001840134
0.0018082869
0.0017759208
0.0017427722
0.0017088212
0.0016741018
0.0016386438
0.0016022351
0.001564687
0.0015260282
0.0014863023
0.0014452811
0.0014026795
0.0013585377
0.0013128307
0.0012652383
0.0012154326
0.0011635201
0.0011093953
0.0010534751
0.00099755077
0.00094288001
0.00088933167
0.00083658074
0.00078476228
0.00073393509
0.00068387285
0.0006344857
0.00058587959
0.00053823922
0.00049152061
0.00044558929
0.00040062511
0.00035681228
0.00031458149
0.00027403004
0.00023636652
0.00020016993
0.00017592608
0.00014303079
0.00024823243
-0.00019839103
0.0038487124
0.0038682762
0.0039111054
0.0039653502
0.0040293283
0.0041029605
0.0041856015
0.0042765468
0.0043754651
0.0044824053
0.0045977154
0.0047220448
0.0048564247
0.0050024124
0.005162293
0.0053394904
0.0055390059
0.0057691577
0.0060416949
0.006383795
0.0068220785
0.0075120599
0.0084010063
0.012271772
0.0089360274
0.0038163894
0.0037036196
0.0041756755
0.0042966752
0.004238632
0.0041598133
0.0040906403
0.0040227945
0.0039533852
0.0038849456
0.0038196461
0.0037580125
0.0036995492
0.0036439299
0.0035908905
0.0035402013
0.0034916743
0.003444921
0.0033999699
0.0033564525
0.0033143835
0.0032736983
0.0032340071
0.0031955407
0.0031581929
0.003121624
0.0030859812
0.0030512726
0.0030172847
0.002983884
0.0029512835
0.0029193755
0.0028878861
0.002856871
0.0028264824
0.0027965969
0.0027669845
0.0027376813
0.0027088637
0.0026804359
0.002652145
0.0026240523
0.0025962439
0.0025687365
0.0025413483
0.0025140267
0.0024867869
0.0024597729
0.0024328883
0.0024059286
0.0023789519
0.0023520055
0.0023251515
0.0022982425
0.0022711803
0.0022439774
0.0022167472
0.0021894762
0.0021619596
0.0021342007
0.002106184
0.0020780476
0.0020497078
0.0020209445
0.0019918084
0.0019623109
0.0019325281
0.0019023134
0.0018715163
0.0018401352
0.0018082881
0.0017759219
0.0017427732
0.0017088222
0.0016741027
0.0016386447
0.0016022359
0.0015646878
0.001526029
0.0014863031
0.0014452818
0.0014026802
0.0013585384
0.0013128313
0.0012652389
0.0012154331
0.0011635206
0.0011093958
0.0010534755
0.00099755119
0.0009428804
0.00088933204
0.00083658109
0.00078476262
0.00073393541
0.00068387315
0.00063448599
0.00058587987
0.00053823949
0.00049152087
0.00044558954
0.00040062535
0.00035681251
0.00031458172
0.00027403025
0.00023636673
0.00020017014
0.00017592629
0.00014303098
0.00024823267
-0.00019839088
0.0038487124
0.0038682762
0.0039111054
0.0039653503
0.0040293283
0.0041029606
0.0041856015
0.0042765468
0.0043754652
0.0044824054
0.0045977155
0.0047220449
0.0048564248
0.0050024126
0.0051622932
0.0053394906
0.0055390062
0.0057691582
0.0060416954
0.0063837958
0.0068220795
0.0075120613
0.0084010122
0.012255697
0.00893631
0.0038176785
0.003703853
0.0041757678
0.0042967367
0.0042386828
0.0041598573
0.004090679
0.0040228288
0.0039534159
0.0038849734
0.0038196714
0.0037580357
0.0036995705
0.0036439496
0.0035909088
0.0035402183
0.0034916902
0.0034449359
0.0033999838
0.0033564656
0.0033143958
0.00327371
0.0032340181
0.0031955511
0.0031582028
0.0031216334
0.0030859901
0.003051281
0.0030172927
0.0029838916
0.0029512907
0.0029193824
0.0028878927
0.0028568773
0.0028264884
0.0027966026
0.00276699
0.0027376866
0.0027088687
0.0026804407
0.0026521496
0.0026240567
0.0025962481
0.0025687405
0.0025413522
0.0025140304
0.0024867904
0.0024597763
0.0024328916
0.0024059317
0.0023789549
0.0023520083
0.0023251542
0.0022982452
0.0022711829
0.0022439799
0.0022167495
0.0021894784
0.0021619617
0.0021342028
0.002106186
0.0020780495
0.0020497097
0.0020209463
0.0019918101
0.0019623125
0.0019325296
0.0019023149
0.0018715177
0.0018401365
0.0018082893
0.0017759231
0.0017427744
0.0017088233
0.0016741038
0.0016386458
0.0016022369
0.0015646887
0.0015260299
0.0014863039
0.0014452826
0.0014026809
0.0013585391
0.001312832
0.0012652395
0.0012154337
0.0011635212
0.0011093964
0.001053476
0.00099755167
0.00094288085
0.00088933247
0.0008365815
0.000784763
0.00073393578
0.00068387351
0.00063448633
0.0005858802
0.0005382398
0.00049152117
0.00044558983
0.00040062562
0.00035681278
0.00031458197
0.0002740305
0.00023636697
0.00020017038
0.00017592652
0.00014303121
0.00024823294
-0.00019839071
0.0038487124
0.0038682762
0.0039111054
0.0039653503
0.0040293283
0.0041029606
0.0041856015
0.0042765468
0.0043754652
0.0044824055
0.0045977156
0.004722045
0.004856425
0.0050024128
0.0051622934
0.0053394909
0.0055390066
0.0057691586
0.006041696
0.0063837966
0.0068220805
0.0075120626
0.0084010192
0.012239485
0.0089362863
0.0038194044
0.003704168
0.0041758896
0.0042968163
0.0042387478
0.0041599134
0.004090728
0.004022872
0.0039534545
0.0038850082
0.0038197031
0.0037580646
0.0036995971
0.0036439741
0.0035909314
0.0035402394
0.0034917099
0.0034449542
0.003400001
0.0033564817
0.003314411
0.0032737242
0.0032340316
0.0031955638
0.0031582148
0.0031216448
0.0030860009
0.0030512913
0.0030173024
0.0029839009
0.0029512996
0.0029193908
0.0028879007
0.0028568849
0.0028264957
0.0027966096
0.0027669966
0.0027376929
0.0027088747
0.0026804465
0.0026521551
0.0026240619
0.0025962532
0.0025687454
0.0025413568
0.0025140348
0.0024867947
0.0024597804
0.0024328955
0.0024059355
0.0023789585
0.0023520118
0.0023251576
0.0022982484
0.0022711859
0.0022439828
0.0022167523
0.0021894811
0.0021619643
0.0021342052
0.0021061884
0.0020780518
0.0020497119
0.0020209484
0.0019918121
0.0019623144
0.0019325314
0.0019023166
0.0018715194
0.0018401381
0.0018082909
0.0017759246
0.0017427758
0.0017088246
0.0016741051
0.001638647
0.0016022381
0.0015646898
0.0015260309
0.0014863049
0.0014452835
0.0014026818
0.0013585399
0.0013128328
0.0012652403
0.0012154345
0.0011635219
0.001109397
0.0010534766
0.00099755223
0.00094288139
0.00088933297
0.00083658198
0.00078476346
0.00073393621
0.00068387392
0.00063448672
0.00058588058
0.00053824017
0.00049152152
0.00044559016
0.00040062595
0.00035681309
0.00031458228
0.00027403079
0.00023636726
0.00020017065
0.0001759268
0.00014303147
0.00024823326
-0.00019839051
0.0038487124
0.0038682762
0.0039111054
0.0039653503
0.0040293283
0.0041029606
0.0041856016
0.0042765469
0.0043754653
0.0044824055
0.0045977157
0.0047220452
0.0048564251
0.005002413
0.0051622937
0.0053394912
0.005539007
0.0057691591
0.0060416967
0.0063837975
0.0068220816
0.0075120638
0.0084010276
0.012223245
0.0089364031
0.0038217142
0.0037046177
0.0041760614
0.0042969257
0.004238836
0.0041599889
0.0040907936
0.0040229296
0.0039535057
0.0038850542
0.0038197447
0.0037581025
0.0036996318
0.0036440061
0.003590961
0.0035402668
0.0034917353
0.003444978
0.0034000232
0.0033565025
0.0033144306
0.0032737426
0.0032340489
0.0031955802
0.0031582303
0.0031216594
0.0030860147
0.0030513044
0.0030173148
0.0029839127
0.0029513108
0.0029194014
0.0028879108
0.0028568946
0.0028265049
0.0027966183
0.002767005
0.0027377009
0.0027088823
0.0026804538
0.0026521621
0.0026240686
0.0025962595
0.0025687515
0.0025413627
0.0025140404
0.0024868001
0.0024597855
0.0024329004
0.0024059402
0.002378963
0.0023520161
0.0023251617
0.0022982523
0.0022711898
0.0022439865
0.0022167558
0.0021894845
0.0021619676
0.0021342083
0.0021061913
0.0020780546
0.0020497146
0.002020951
0.0019918146
0.0019623168
0.0019325337
0.0019023188
0.0018715215
0.0018401401
0.0018082928
0.0017759264
0.0017427775
0.0017088263
0.0016741067
0.0016386485
0.0016022395
0.0015646912
0.0015260322
0.0014863061
0.0014452847
0.0014026829
0.001358541
0.0013128338
0.0012652412
0.0012154353
0.0011635227
0.0011093978
0.0010534773
0.00099755292
0.00094288203
0.00088933359
0.00083658256
0.00078476401
0.00073393674
0.00068387442
0.00063448721
0.00058588104
0.00053824061
0.00049152195
0.00044559057
0.00040062634
0.00035681347
0.00031458264
0.00027403115
0.0002363676
0.00020017098
0.00017592713
0.00014303178
0.00024823365
-0.00019839026
0.0038487124
0.0038682762
0.0039111055
0.0039653503
0.0040293284
0.0041029607
0.0041856016
0.004276547
0.0043754654
0.0044824056
0.0045977158
0.0047220453
0.0048564253
0.0050024132
0.005162294
0.0053394916
0.0055390074
0.0057691597
0.0060416974
0.0063837984
0.0068220827
0.0075120648
0.0084010374
0.012207057
0.0089367069
0.0038248714
0.0037052848
0.0041763176
0.0042970851
0.0042389624
0.0041600961
0.004090886
0.0040230103
0.003953577
0.003885118
0.0038198022
0.0037581548
0.0036996795
0.0036440499
0.0035910013
0.0035403041
0.00349177
0.0034450103
0.0034000533
0.0033565307
0.003314457
0.0032737674
0.0032340722
0.0031956022
0.003158251
0.0031216789
0.0030860332
0.0030513219
0.0030173314
0.0029839284
0.0029513257
0.0029194156
0.0028879243
0.0028569074
0.0028265171
0.00279663
0.0027670161
0.0027377115
0.0027088924
0.0026804634
0.0026521713
0.0026240774
0.0025962679
0.0025687595
0.0025413703
0.0025140478
0.0024868071
0.0024597923
0.0024329069
0.0024059463
0.0023789689
0.0023520218
0.0023251671
0.0022982575
0.0022711947
0.0022439912
0.0022167604
0.0021894889
0.0021619717
0.0021342123
0.0021061951
0.0020780583
0.0020497181
0.0020209543
0.0019918178
0.0019623198
0.0019325367
0.0019023216
0.0018715242
0.0018401427
0.0018082952
0.0017759287
0.0017427798
0.0017088284
0.0016741087
0.0016386504
0.0016022413
0.0015646929
0.0015260339
0.0014863077
0.0014452862
0.0014026843
0.0013585423
0.001312835
0.0012652424
0.0012154364
0.0011635237
0.0011093988
0.0010534783
0.00099755379
0.00094288286
0.00088933437
0.0008365833
0.00078476472
0.00073393741
0.00068387506
0.00063448782
0.00058588162
0.00053824117
0.00049152248
0.00044559109
0.00040062684
0.00035681395
0.00031458311
0.0002740316
0.00023636804
0.0002001714
0.00017592755
0.00014303218
0.00024823413
-0.00019838996
0.0038487124
0.0038682762
0.0039111055
0.0039653504
0.0040293284
0.0041029607
0.0041856017
0.004276547
0.0043754655
0.0044824058
0.0045977159
0.0047220455
0.0048564255
0.0050024135
0.0051622943
0.005339492
0.0055390079
0.0057691603
0.0060416981
0.0063837993
0.0068220839
0.0075120653
0.0084010492
0.012190948
0.0089371029
0.0038292272
0.0037062821
0.0041767123
0.0042973268
0.004239151
0.0041602547
0.0040910217
0.0040231281
0.0039536806
0.0038852101
0.0038198851
0.0037582297
0.0036997478
0.0036441124
0.0035910588
0.0035403571
0.0034918191
0.0034450559
0.0034000959
0.0033565704
0.0033144941
0.0032738023
0.003234105
0.0031956329
0.00315828
0.0031217063
0.0030860591
0.0030513463
0.0030173545
0.0029839503
0.0029513464
0.0029194353
0.002887943
0.0028569252
0.002826534
0.002796646
0.0027670314
0.002737726
0.0027089063
0.0026804767
0.0026521839
0.0026240895
0.0025962795
0.0025687706
0.0025413809
0.0025140578
0.0024868167
0.0024598015
0.0024329157
0.0024059548
0.002378977
0.0023520295
0.0023251745
0.0022982646
0.0022712015
0.0022439977
0.0022167666
0.0021894948
0.0021619774
0.0021342177
0.0021062003
0.0020780632
0.0020497228
0.0020209588
0.0019918221
0.001962324
0.0019325406
0.0019023254
0.0018715278
0.0018401461
0.0018082985
0.0017759319
0.0017427827
0.0017088312
0.0016741114
0.001638653
0.0016022437
0.0015646952
0.0015260361
0.0014863098
0.0014452881
0.0014026862
0.0013585441
0.0013128367
0.0012652439
0.0012154379
0.0011635251
0.0011094001
0.0010534795
0.00099755495
0.00094288395
0.0008893354
0.00083658428
0.00078476564
0.00073393829
0.0006838759
0.00063448862
0.00058588239
0.0005382419
0.00049152319
0.00044559177
0.00040062749
0.00035681458
0.00031458371
0.00027403218
0.00023636861
0.00020017196
0.0001759281
0.0001430327
0.00024823477
-0.00019838956
0.0038487124
0.0038682762
0.0039111055
0.0039653504
0.0040293284
0.0041029608
0.0041856018
0.0042765471
0.0043754656
0.0044824059
0.0045977161
0.0047220457
0.0048564258
0.0050024138
0.0051622947
0.0053394925
0.0055390085
0.005769161
0.0060416989
0.0063838003
0.0068220849
0.0075120651
0.0084010631
0.012174865
0.0089374914
0.0038349261
0.0037077406
0.0041773217
0.0042976975
0.0042394366
0.0041604929
0.0040912246
0.0040233033
0.0039538341
0.0038853463
0.003820007
0.0037583398
0.0036998477
0.0036442036
0.0035911425
0.0035404343
0.0034918905
0.0034451221
0.0034001575
0.0033566279
0.0033145479
0.0032738526
0.0032341522
0.0031956773
0.0031583217
0.0031217456
0.0030860961
0.0030513813
0.0030173876
0.0029839816
0.0029513761
0.0029194634
0.0028879697
0.0028569505
0.002826558
0.0027966689
0.0027670531
0.0027377468
0.0027089261
0.0026804955
0.0026522019
0.0026241066
0.0025962958
0.0025687862
0.0025413958
0.0025140721
0.0024868303
0.0024598145
0.0024329281
0.0024059666
0.0023789883
0.0023520404
0.0023251849
0.0022982745
0.002271211
0.0022440068
0.0022167753
0.0021895031
0.0021619854
0.0021342253
0.0021062076
0.0020780702
0.0020497295
0.0020209652
0.0019918282
0.0019623298
0.0019325461
0.0019023307
0.0018715328
0.0018401509
0.0018083031
0.0017759362
0.0017427869
0.0017088352
0.0016741151
0.0016386565
0.0016022471
0.0015646984
0.0015260391
0.0014863126
0.0014452909
0.0014026888
0.0013585465
0.001312839
0.0012652461
0.00121544
0.0011635271
0.0011094019
0.0010534812
0.00099755654
0.00094288545
0.00088933681
0.00083658562
0.00078476691
0.0007339395
0.00068387706
0.00063448972
0.00058588344
0.00053824291
0.00049152416
0.00044559269
0.00040062838
0.00035681544
0.00031458454
0.00027403298
0.00023636938
0.00020017271
0.00017592885
0.00014303341
0.00024823564
-0.00019838901
0.0038487124
0.0038682763
0.0039111055
0.0039653504
0.0040293285
0.0041029608
0.0041856018
0.0042765472
0.0043754657
0.004482406
0.0045977163
0.0047220459
0.004856426
0.0050024141
0.0051622951
0.0053394929
0.0055390091
0.0057691617
0.0060416997
0.0063838012
0.0068220858
0.0075120637
0.0084010796
0.012158682
0.0089377717
0.003841791
0.0037097897
0.0041782409
0.0042982566
0.0042398633
0.0041608474
0.0040915256
0.0040235629
0.003954061
0.003885547
0.0038201864
0.0037585014
0.0036999943
0.0036443373
0.003591265
0.0035405471
0.0034919947
0.0034452187
0.0034002473
0.0033567116
0.003314626
0.0032739257
0.0032342207
0.0031957416
0.0031583822
0.0031218025
0.0030861498
0.003051432
0.0030174355
0.0029840269
0.002951419
0.0029195041
0.0028880082
0.0028569871
0.0028265928
0.002796702
0.0027670845
0.0027377767
0.0027089545
0.0026805226
0.0026522277
0.0026241312
0.0025963193
0.0025688086
0.0025414172
0.0025140925
0.0024868498
0.0024598331
0.0024329459
0.0024059837
0.0023790046
0.0023520559
0.0023251998
0.0022982888
0.0022712246
0.0022440198
0.0022167877
0.002189515
0.0021619967
0.0021342362
0.002106218
0.0020780801
0.0020497389
0.0020209742
0.0019918368
0.001962338
0.001932554
0.0019023382
0.0018715399
0.0018401577
0.0018083096
0.0017759424
0.0017427928
0.0017088408
0.0016741204
0.0016386616
0.0016022519
0.001564703
0.0015260434
0.0014863167
0.0014452947
0.0014026924
0.00135855
0.0013128423
0.0012652492
0.0012154428
0.0011635298
0.0011094044
0.0010534836
0.00099755877
0.00094288755
0.0008893388
0.0008365875
0.0007847687
0.0007339412
0.00068387867
0.00063449126
0.00058588492
0.00053824432
0.00049152551
0.00044559399
0.00040062963
0.00035681664
0.0003145857
0.0002740341
0.00023637047
0.00020017376
0.00017592989
0.0001430344
0.00024823685
-0.00019838825
0.0038487124
0.0038682763
0.0039111056
0.0039653505
0.0040293286
0.0041029609
0.0041856019
0.0042765473
0.0043754658
0.0044824062
0.0045977165
0.0047220461
0.0048564263
0.0050024144
0.0051622955
0.0053394935
0.0055390097
0.0057691625
0.0060417004
0.0063838019
0.0068220865
0.0075120608
0.0084010993
0.012142243
0.0089377979
0.0038496602
0.0037125533
0.0041795723
0.0042990708
0.0042404805
0.0041613588
0.0040919598
0.0040239372
0.003954388
0.0038858362
0.0038204447
0.003758734
0.0037002051
0.0036445295
0.0035914411
0.0035407091
0.0034921443
0.0034453574
0.0034003762
0.0033568316
0.0033147381
0.0032740306
0.003234319
0.0031958339
0.0031584689
0.0031218842
0.0030862268
0.0030515046
0.0030175041
0.0029840918
0.0029514804
0.0029195622
0.0028880634
0.0028570394
0.0028266425
0.0027967492
0.0027671295
0.0027378194
0.0027089952
0.0026805614
0.0026522646
0.0026241665
0.0025963529
0.0025688406
0.0025414478
0.0025141217
0.0024868778