/*--------------------------------*- C++ -*----------------------------------*\
  =========                 |
  \\      /  F ield         | OpenFOAM: The Open Source CFD Toolbox
   \\    /   O peration     | Website:  https://openfoam.org
    \\  /    A nd           | Version:  12
     \\/     M anipulation  |
\*---------------------------------------------------------------------------*/
FoamFile
{
    format      ascii;
    class       volScalarField;
    location    "200";
    object      p;
}
// * * * * * * * * * * * * * * * * * * * * * * * * * * * * * * * * * * * * * //

dimensions      [0 2 -2 0 0 0 0];

internalField   nonuniform List<scalar> 
7480
(
0.0087171323
0.0081282236
0.0070200672
0.0064119223
0.006112131
0.005866617
0.0056061305
0.0053525558
0.0051124833
0.0048746466
0.0046319333
0.0043834483
0.0041401636
0.0039218098
0.0037516699
0.0036412592
0.0035863006
0.0035506588
0.0035297501
0.0035143344
0.0035024295
0.0034936384
0.0034816342
0.0034549913
0.0034161342
0.0033732301
0.003330484
0.003290227
0.0032498306
0.003209968
0.0031715565
0.0031345786
0.0030996079
0.0030646562
0.0030263578
0.0029852452
0.0029430796
0.0029014213
0.0028616153
0.002823519
0.0027864601
0.0027504332
0.0027154944
0.0026815829
0.0026482962
0.0026150455
0.0025813735
0.0025476166
0.0025138863
0.0024788648
0.0024411543
0.00240323
0.0023675706
0.0023345599
0.0023019935
0.0022684496
0.002233131
0.002195342
0.0021561708
0.002116991
0.002077778
0.0020380721
0.0019979503
0.0019574649
0.0019163879
0.0018747466
0.0018326772
0.0017901019
0.0017469879
0.0017033942
0.001659198
0.0016143582
0.0015689325
0.0015228012
0.0014759725
0.0014284568
0.0013801157
0.0013309874
0.0012810422
0.0012300989
0.0011783749
0.0011255287
0.0010712351
0.0010158428
0.00095826165
0.00089060723
0.0008168554
0.00076182007
0.0007079869
0.00065044217
0.00059217582
0.00053531226
0.00047995549
0.00042536011
0.0003732321
0.00032045283
0.0002840584
0.00022613666
0.00038497319
-0.00027972885
0.0082807967
0.0076994651
0.0068348566
0.006308136
0.006039347
0.0058144948
0.005572302
0.0053354395
0.0051150327
0.0049028017
0.0046926768
0.0044832157
0.0042826053
0.0041022158
0.0039523386
0.003838589
0.0037553566
0.0037004049
0.0036590405
0.0036254718
0.0035935051
0.0035599043
0.0035205848
0.0034755433
0.0034285876
0.0033815474
0.0033375306
0.0032968512
0.0032569269
0.0032178088
0.0031799895
0.0031433552
0.0031081079
0.0030724327
0.0030337399
0.0029926744
0.0029508059
0.0029094974
0.0028699007
0.0028317721
0.0027944732
0.0027580955
0.0027227598
0.0026884459
0.0026546767
0.0026208639
0.0025866475
0.0025521831
0.0025175956
0.0024817765
0.0024443458
0.0024072221
0.0023723857
0.0023393566
0.0023062704
0.0022721931
0.0022365248
0.0021985656
0.0021593011
0.0021200309
0.0020807257
0.0020409317
0.0020007276
0.0019601624
0.0019190047
0.0018772825
0.0018351309
0.0017924704
0.0017492694
0.0017055888
0.001661307
0.0016163833
0.0015708759
0.0015246648
0.0014777587
0.0014301678
0.0013817555
0.0013325616
0.0012825547
0.0012315527
0.0011797725
0.0011268718
0.001072523
0.0010170657
0.00095922523
0.0008901391
0.00081949228
0.0007664273
0.00071227648
0.00065376121
0.00059482374
0.00053747304
0.00048173108
0.00042684363
0.00037451259
0.00032158406
0.00028507663
0.00022714743
0.00038602967
-0.00027896161
0.0079897577
0.0075790426
0.0069019774
0.0063869127
0.0060968862
0.0058590409
0.0056105961
0.0053668796
0.0051392957
0.004919724
0.0047018387
0.0044828744
0.0042709307
0.0040768628
0.0039126037
0.0037867399
0.0037000354
0.0036499136
0.003619969
0.0035974296
0.0035746922
0.0035484969
0.0035176705
0.0034842655
0.0034477792
0.0034080643
0.0033669802
0.0033253017
0.0032834337
0.0032417426
0.0032007575
0.0031605177
0.0031216693
0.0030833477
0.0030432856
0.0030016087
0.0029594761
0.0029180704
0.0028784406
0.0028402537
0.0028028207
0.0027662502
0.0027306744
0.0026960941
0.0026619357
0.0026276157
0.0025929024
0.0025580045
0.0025229547
0.0024868179
0.002449407
0.0024121397
0.0023769282
0.0023434358
0.0023100112
0.0022757516
0.0022399927
0.0022020067
0.0021627214
0.0021233985
0.0020840114
0.0020441182
0.0020038103
0.0019631403
0.0019218787
0.0018800588
0.001837814
0.0017950605
0.001751767
0.0017079959
0.0016636258
0.0016186168
0.0015730269
0.0015267357
0.0014797525
0.0014320871
0.001383602
0.0013343368
0.0012842605
0.0012331917
0.001181348
0.0011283864
0.0010739812
0.0010184797
0.00096049896
0.00089100008
0.00082370849
0.00077087138
0.00071626477
0.00065721627
0.00059782938
0.00054005675
0.00048393786
0.00042874627
0.00037617728
0.00032304383
0.00028637993
0.00022844913
0.00038724621
-0.00027800128
0.0077640633
0.0074468258
0.0068507396
0.0063462573
0.0060458109
0.0058103814
0.005570031
0.0053330129
0.0051112356
0.0048984388
0.0046884469
0.0044788673
0.0042775656
0.004094583
0.0039408324
0.0038235115
0.0037425028
0.0036924581
0.0036583131
0.0036282413
0.0035972689
0.0035640351
0.0035282562
0.0034909092
0.003450968
0.0034092464
0.0033667702
0.0033242414
0.0032834046
0.0032440748
0.0032060222
0.0031689198
0.003132083
0.0030943817
0.0030546197
0.0030127964
0.0029699504
0.0029274292
0.0028866647
0.0028476344
0.0028096655
0.0027727264
0.002736864
0.0027021088
0.0026678236
0.0026333285
0.0025983786
0.0025632982
0.0025279733
0.0024915367
0.0024538434
0.0024162279
0.0023806514
0.002346871
0.002313269
0.0022788897
0.0022430488
0.0022050461
0.0021657637
0.0021264084
0.0020869544
0.0020469809
0.0020065957
0.0019658475
0.0019245054
0.0018826112
0.0018402941
0.0017974641
0.001754092
0.0017102425
0.001665794
0.0016207074
0.0015750413
0.0015286744
0.001481617
0.0014338789
0.0013853208
0.0013359822
0.0012858338
0.0012346945
0.001182783
0.0011297555
0.0010752898
0.001019738
0.00096178316
0.00089337711
0.00082720574
0.00077388949
0.00071894791
0.00065965678
0.00060002924
0.00054201548
0.00048568484
0.00043030429
0.00037756244
0.00032427806
0.00028750025
0.00022945925
0.00038829296
-0.00027719267
0.0075576692
0.0072962649
0.0067812977
0.0063227188
0.0060320958
0.0058053447
0.0055736912
0.0053416791
0.0051224855
0.0049121162
0.0047050894
0.0044993706
0.0043018209
0.0041214964
0.0039678158
0.0038474062
0.0037605023
0.0037023671
0.0036609859
0.0036261785
0.0035931117
0.0035597004
0.0035247423
0.0034881504
0.0034490835
0.0034081989
0.0033662469
0.0033240956
0.0032834102
0.0032439884
0.003205786
0.0031688715
0.0031320719
0.0030943334
0.0030554105
0.0030151793
0.0029743513
0.0029337908
0.0028940922
0.0028553402
0.0028173402
0.0027799655
0.0027433533
0.0027078755
0.0026730975
0.0026382911
0.0026031063
0.0025678665
0.0025324021
0.002495813
0.0024579698
0.0024202154
0.0023844557
0.0023504508
0.0023166397
0.0022820812
0.0022461092
0.0022080579
0.0021687583
0.0021293558
0.0020898333
0.0020497885
0.0020093381
0.0019685202
0.0019271059
0.00188515
0.0018427698
0.0017998688
0.0017564235
0.0017125009
0.0016679784
0.001622818
0.0015770785
0.0015306381
0.001483508
0.0014356979
0.001387068
0.001337659
0.001287441
0.0012362329
0.0011842553
0.0011311623
0.0010766336
0.0010210197
0.00096305691
0.00089567575
0.00083020475
0.00077671613
0.00072156838
0.00066207711
0.00060222006
0.00054397559
0.00048743993
0.00043186869
0.00037895291
0.00032552672
0.00028863413
0.00023044727
0.00038931186
-0.00027629874
0.0073686991
0.007150752
0.0067134949
0.0063003996
0.0060145438
0.0057877345
0.0055593559
0.0053301382
0.0051127418
0.0049053438
0.0047013062
0.0045007849
0.0043085009
0.0041326736
0.0039819542
0.0038625046
0.0037748721
0.0037147719
0.0036718456
0.0036363443
0.003602868
0.0035689189
0.0035332206
0.0034956678
0.0034558409
0.0034143263
0.0033718537
0.003329315
0.0032880791
0.0032480602
0.0032092146
0.0031714803
0.0031337271
0.0030951619
0.0030556869
0.0030151586
0.0029743179
0.0029339492
0.0028942892
0.0028557933
0.0028186928
0.0027826557
0.0027474037
0.0027126984
0.0026781606
0.0026433539
0.0026078915
0.0025722105
0.002536373
0.0024995504
0.0024615858
0.0024237808
0.0023879287
0.0023537592
0.0023197781
0.0022850845
0.0022490206
0.0022109342
0.0021716177
0.0021321785
0.0020926079
0.0020525096
0.0020120088
0.0019711342
0.0019296605
0.001887655
0.0018452226
0.001802261
0.001758753
0.0017147672
0.00167018
0.0016249541
0.0015791492
0.0015326422
0.0014854457
0.0014375695
0.0013888732
0.0013393988
0.0012891159
0.0012378433
0.0011858035
0.0011326484
0.0010780589
0.0010223799
0.00096437975
0.00089773452
0.00083298364
0.00077959889
0.00072439103
0.00066474573
0.00060465883
0.00054616172
0.00048938539
0.00043359718
0.00038049208
0.00032690679
0.00028987381
0.00023152905
0.00039034884
-0.00027520942
0.0071961564
0.0070121989
0.0066407964
0.0062686175
0.0059899253
0.0057654357
0.0055438138
0.0053212602
0.0051085993
0.0049061393
0.0047060784
0.004511097
0.0043240556
0.0041525001
0.0040044187
0.0038854072
0.0037961459
0.0037327106
0.0036860669
0.003647199
0.0036107661
0.0035743943
0.0035369462
0.0034981918
0.0034577454
0.0034159431
0.0033734053
0.0033309152
0.0032896204
0.0032495621
0.0032106552
0.0031727768
0.0031349716
0.0030965066
0.00305718
0.0030168104
0.0029760213
0.0029354873
0.0028955018
0.0028566719
0.0028192895
0.0027830954
0.0027477901
0.0027129569
0.0026785439
0.002644398
0.0026100307
0.0025752099
0.0025397286
0.0025031169
0.0024651678
0.0024271882
0.0023910615
0.0023566209
0.0023224353
0.002287622
0.0022515154
0.0022134398
0.0021741423
0.0021347035
0.0020951209
0.0020549981
0.0020144732
0.0019735682
0.0019320578
0.0018900185
0.0018475501
0.001804546
0.0017609921
0.0017169588
0.0016723208
0.0016270426
0.0015811843
0.0015346218
0.0014873692
0.0014394361
0.0013906818
0.0013411496
0.0012908086
0.0012394772
0.001187381
0.0011341688
0.0010795227
0.001023782
0.00096575189
0.00089969042
0.00083564107
0.00078242704
0.00072723354
0.00066748682
0.00060719862
0.00054845884
0.00049143946
0.00043542888
0.00038212756
0.00032837485
0.00029118453
0.00023267369
0.00039135855
-0.00027390975
0.0070380106
0.0068802344
0.0065637625
0.0062303317
0.0059630297
0.0057428208
0.0055280723
0.0053118577
0.0051033483
0.0049040488
0.0047082474
0.0045176974
0.0043351803
0.0041674653
0.0040217838
0.003903187
0.0038124649
0.0037461205
0.0036963224
0.0036548817
0.0036165897
0.0035790174
0.0035409207
0.0035018098
0.0034612496
0.0034194287
0.0033769149
0.0033344368
0.0032930083
0.0032527688
0.0032136155
0.0031754079
0.0031373271
0.0030986549
0.0030591562
0.003018707
0.0029778651
0.0029372891
0.0028973258
0.0028585136
0.0028210663
0.0027847022
0.0027490865
0.0027138639
0.0026791017
0.0026447077
0.0026102866
0.0025753603
0.0025398101
0.0025036182
0.0024665405
0.0024293901
0.002393634
0.0023592741
0.0023249757
0.0022899376
0.0022536637
0.0022155369
0.0021762358
0.0021368055
0.0020972418
0.0020571301
0.0020166169
0.0019757174
0.0019342005
0.0018921526
0.0018496719
0.0018066475
0.0017630684
0.0017190068
0.0016743357
0.0016290216
0.0015831253
0.0015365212
0.0014892254
0.0014412474
0.0013924457
0.0013428657
0.0012924753
0.0012410932
0.0011889479
0.0011356853
0.0010809883
0.0010251911
0.00096713774
0.00090160928
0.00083821357
0.00078515009
0.00072999384
0.00067018445
0.00060972855
0.00055076925
0.0004935212
0.00043729659
0.0003838022
0.00032988374
0.00029252763
0.00023384317
0.00039229252
-0.00027238566
0.0068923295
0.0067549372
0.0064843118
0.0061870612
0.0059334739
0.0057183131
0.0055099783
0.0053002121
0.0050963757
0.0049009534
0.0047099961
0.0045242
0.0043465276
0.0041829618
0.0040399722
0.0039221404
0.0038303452
0.0037615188
0.0037088568
0.0036649397
0.0036247015
0.0035856312
0.0035464125
0.0035064202
0.0034652385
0.0034229903
0.0033801918
0.003337512
0.0032958328
0.00325534
0.0032159184
0.0031774048
0.0031390772
0.0031002437
0.0030606598
0.003020238
0.0029794613
0.0029389488
0.0028990491
0.0028602283
0.0028226935
0.002786214
0.0027504861
0.0027152025
0.0026803861
0.002645891
0.0026112844
0.0025760859
0.0025402754
0.0025039253
0.0024668668
0.0024297314
0.0023938981
0.0023596981
0.0023259292
0.0022913956
0.0022553798
0.0022174327
0.0021781582
0.0021386469
0.0020990193
0.0020588831
0.0020183759
0.001977503
0.0019360086
0.0018939821
0.001851519
0.0018085016
0.0017649222
0.0017208557
0.0016761726
0.0016308418
0.0015849256
0.0015382964
0.0014909729
0.0014429644
0.0013941284
0.0013445126
0.001294084
0.001242661
0.0011904763
0.0011371714
0.001082431
0.0010265839
0.00096850945
0.00090349744
0.00084071157
0.00078776765
0.00073265484
0.0006728099
0.00061221466
0.00055305867
0.00049559877
0.00043917196
0.00038549122
0.00033141227
0.00029388458
0.00023501938
0.00039311445
-0.00027060628
0.0067573278
0.00663614
0.0064036734
0.0061393956
0.0059008261
0.0056917751
0.0054900029
0.0052871324
0.0050886315
0.0048975455
0.0047113493
0.0045302377
0.0043571956
0.004197541
0.004057065
0.0039399461
0.0038471273
0.003775952
0.0037205058
0.0036741014
0.0036318781
0.0035912861
0.0035509685
0.0035102041
0.0034685602
0.0034260743
0.0033831748
0.003340453
0.0032986666
0.0032580257
0.0032184168
0.0031796607
0.0031411206
0.003102146
0.0030624865
0.0030220759
0.0029813332
0.0029408378
0.0029009419
0.0028620695
0.0028244326
0.002787839
0.0027519997
0.0027166219
0.002681687
0.0026470507
0.0026123171
0.0025770541
0.0025412312
0.0025048749
0.0024677971
0.0024305528
0.0023944849
0.0023600255
0.0023261152
0.0022914425
0.0022553629
0.0022177347
0.0021790295
0.0021399537
0.0021005277
0.0020604661
0.0020199208
0.0019790042
0.0019374941
0.0018954762
0.0018530408
0.0018100517
0.0017664978
0.0017224526
0.001677782
0.0016324573
0.0015865422
0.001539907
0.0014925736
0.001444551
0.0013956958
0.0013460584
0.0012956047
0.0012441528
0.0011919401
0.0011386033
0.0010838287
0.0010279399
0.00096984896
0.00090534135
0.0008431267
0.00079027704
0.00073521176
0.00067535315
0.00061464294
0.00055531162
0.00049765676
0.00044104053
0.00038718148
0.0003329486
0.00029524417
0.00023619107
0.0003937927
-0.00026853137
0.0066315679
0.006523541
0.0063227816
0.0060880845
0.0058652378
0.0056634299
0.00546843
0.0052726318
0.0050798299
0.0048933197
0.0047118272
0.0045354403
0.0043669806
0.0042112095
0.0040733119
0.0039570909
0.0038635208
0.0037903271
0.003732372
0.0036836562
0.0036395667
0.0035975366
0.0035561661
0.0035146496
0.0034725178
0.0034297332
0.0033866459
0.0033437829
0.0033018024
0.0032609303
0.0032210645
0.0031820146
0.003143217
0.0031040647
0.0030643011
0.0030238732
0.0029831475
0.0029426635
0.0029027747
0.0028638683
0.0028261503
0.0027894548
0.002753505
0.002718024
0.0026829702
0.0026482086
0.002613373
0.0025780544
0.0025421908
0.0025057971
0.0024687321
0.002431529
0.0023954398
0.002360865
0.0023267682
0.002291859
0.0022555743
0.0022178634
0.0021791629
0.0021400553
0.0021006963
0.0020610132
0.0020208731
0.0019801863
0.0019387943
0.0018967818
0.001854323
0.001811323
0.0017677804
0.0017237629
0.0016791219
0.0016338253
0.001587934
0.001541314
0.0014939907
0.0014459726
0.0013971151
0.0013474722
0.001297008
0.0012455408
0.0011933132
0.0011399562
0.0010851583
0.0010292382
0.00097113895
0.0009071212
0.0008454407
0.00079266494
0.00073765194
0.0006777994
0.00061699693
0.00055751172
0.00049967979
0.0004428882
0.00038886018
0.00033448116
0.00029659539
0.00023734663
0.00039429389
-0.00026611471
0.006513887
0.0064167451
0.0062423459
0.0060338919
0.0058269262
0.0056333143
0.0054452875
0.0052566318
0.0050698414
0.0048882145
0.0047115138
0.0045399252
0.0043760233
0.0042240946
0.00408879
0.0039735677
0.0038794182
0.0038044242
0.0037441345
0.003693192
0.0036472612
0.0036037835
0.0035613232
0.0035190122
0.0034763461
0.0034332268
0.0033899317
0.0033469236
0.0033047694
0.0032636942
0.0032236047
0.0031843012
0.0031452799
0.0031059769
0.0030661317
0.0030257004
0.0029850049
0.0029445442
0.0029046689
0.0028657332
0.0028279341
0.0027911318
0.0027550661
0.0027194782
0.0026843083
0.0026494247
0.0026144829
0.0025790932
0.0025431742
0.002506743
0.0024696997
0.0024325396
0.0023964095
0.002361695
0.0023274421
0.0022924332
0.0022561152
0.0022184036
0.0021796534
0.0021404135
0.0021009228
0.0020611997
0.0020210137
0.0019803124
0.0019391598
0.0018975059
0.0018553015
0.0018124197
0.0017688954
0.0017248655
0.0016802195
0.0016349382
0.0015890759
0.0015424854
0.0014951911
0.001447197
0.0013983554
0.0013487244
0.001298266
0.0012467981
0.00119457
0.001141206
0.0010863969
0.0010304575
0.00097236008
0.00090881503
0.0008476316
0.00079491214
0.00073995689
0.00068012945
0.00061925708
0.00055964023
0.00050165067
0.00044469949
0.00039051341
0.0003359974
0.00029792638
0.0002384739
0.00039455957
-0.00026330654
0.0064033167
0.0063153177
0.0061628857
0.00597752
0.0057861479
0.0056014639
0.005420644
0.005239181
0.0050586629
0.0048822096
0.0047103925
0.0045436192
0.0043842276
0.0042360885
0.0041033858
0.0039892659
0.0038947255
0.0038181727
0.0037557635
0.0037027326
0.0036550396
0.00361016
0.003566631
0.0035235387
0.0034803433
0.003436891
0.0033933873
0.003350229
0.0033079009
0.0032666179
0.0032262969
0.0031867347
0.0031474792
0.0031080104
0.0030680684
0.0030276149
0.0029869335
0.0029464831
0.0029066082
0.0028676343
0.0028297493
0.0027928369
0.0027566545
0.0027209583
0.0026856722
0.002650665
0.0026156135
0.0025801497
0.0025441787
0.0025077165
0.0024706939
0.002433567
0.0023973877
0.0023625357
0.002328139
0.0022930357
0.0022566674
0.0022189414
0.0021801924
0.0021409553
0.0021014656
0.0020616987
0.0020214042
0.0019805754
0.0019393573
0.0018976702
0.0018554459
0.0018127231
0.0017694984
0.001725699
0.0016811592
0.0016358982
0.0015900319
0.0015434435
0.0014961684
0.0014482049
0.0013993919
0.0013497889
0.0012993529
0.0012479
0.0011956869
0.0011423298
0.0010875226
0.0010315772
0.00097349242
0.00091040091
0.0008496764
0.00079699669
0.00074210543
0.00068232221
0.00062140247
0.00056167729
0.00050355124
0.00044645806
0.00039212642
0.00033748404
0.00029922453
0.00023955903
0.00039455434
-0.00026005693
0.0062990414
0.0062188271
0.0060847666
0.0059195937
0.005743204
0.0055679498
0.005394576
0.005220334
0.0050462715
0.0048752358
0.0047083975
0.004546451
0.0043915422
0.0042471653
0.0041170919
0.0040041881
0.0039094472
0.0038315702
0.0037672501
0.0037122662
0.0036628829
0.0036166352
0.0035720446
0.0035281646
0.0034844224
0.0034406137
0.003396877
0.0033535455
0.0033110309
0.0032695326
0.003228977
0.0031891613
0.0031496767
0.0031100452
0.0030700099
0.0030295344
0.0029888682
0.0029484315
0.0029085591
0.0028695518
0.002831587
0.0027945695
0.0027582737
0.0027224695
0.0026870674
0.0026519373
0.0026167764
0.002581238
0.0025452156
0.0025087217
0.0024717135
0.0024346133
0.0023983864
0.002363403
0.002328864
0.0022936593
0.0022572321
0.0022194911
0.0021807511
0.0021415162
0.0021020123
0.0020622138
0.0020219018
0.0019810719
0.0019398299
0.0018980651
0.0018557264
0.0018129307
0.0017696738
0.0017258541
0.001681449
0.0016364427
0.0015907679
0.0015442665
0.0014970041
0.001449042
0.0014002398
0.001350659
0.0013002524
0.0012488262
0.0011966426
0.0011433068
0.0010885151
0.0010325782
0.00097451718
0.00091185854
0.00085155289
0.00079889598
0.00074407534
0.00068435606
0.0006234117
0.00056360233
0.00050536255
0.00044814678
0.00039368368
0.00033892702
0.00030047655
0.00024058722
0.00039423095
-0.00025630498
0.0062003713
0.006126863
0.0060082331
0.0058606531
0.0056984195
0.0055328702
0.0053671523
0.0052001425
0.0050326546
0.0048672403
0.0047054847
0.0045483816
0.0043979357
0.0042573012
0.0041298842
0.0040183024
0.0039235407
0.0038445614
0.0037785351
0.0037217398
0.0036707477
0.0036231762
0.003577543
0.0035328797
0.0034885852
0.0034444095
0.0034004287
0.0033569149
0.0033142133
0.0032725028
0.0032317173
0.0031916565
0.0031519484
0.0031121551
0.003072025
0.0030315214
0.0029908642
0.0029504366
0.0029105613
0.0028715173
0.0028334714
0.0027963469
0.0027599353
0.0027240193
0.002688499
0.0026532449
0.0026179735
0.0025823579
0.0025462821
0.002509755
0.0024727568
0.0024356795
0.0023994058
0.0023642928
0.00232961
0.0022943013
0.0022578157
0.0022200613
0.002181329
0.0021420906
0.0021025679
0.0020627432
0.0020224186
0.0019815777
0.0019403111
0.0018985267
0.0018561842
0.0018133725
0.0017700512
0.0017261277
0.0016816556
0.0016366169
0.0015909298
0.0015445763
0.0014975307
0.0014497066
0.0014009711
0.0013513978
0.0013009956
0.0012495839
0.0011974293
0.001144122
0.0010893574
0.0010334432
0.00097541755
0.00091317001
0.00085324132
0.00080058873
0.00074584513
0.00068621003
0.00062526373
0.00056539453
0.00050706499
0.00044974776
0.00039516894
0.00034031153
0.00030166835
0.00024154356
0.00039353392
-0.00025198201
0.0061067184
0.0060390454
0.0059334372
0.0058011543
0.0056521241
0.0054963478
0.0053384417
0.0051786631
0.0050178175
0.0048581858
0.0047016136
0.0045493701
0.0044033684
0.0042664611
0.0041417312
0.0040315761
0.0039369699
0.0038571062
0.0037895793
0.0037311231
0.0036786133
0.0036297697
0.0035831188
0.0035376801
0.0034928289
0.003448275
0.0034040371
0.0033603284
0.0033174339
0.0032755089
0.0032344926
0.0031941899
0.0031542605
0.0031143041
0.0030740767
0.0030335399
0.0029928869
0.0029524658
0.0029125851
0.0028735043
0.0028353795
0.0027981498
0.0027616234
0.0027255955
0.0026899579
0.002654581
0.0026191995
0.0025835055
0.0025473757
0.0025108154
0.0024738241
0.0024367657
0.0024004451
0.0023652043
0.0023303779
0.0022949645
0.0022584202
0.0022206503
0.0021819228
0.0021426795
0.0021031398
0.0020632912
0.0020229505
0.0019820933
0.0019408038
0.0018990051
0.0018566541
0.0018138235
0.0017704812
0.0017265495
0.0016820604
0.0016369618
0.0015911821
0.0015447786
0.0014976999
0.0014498808
0.001401309
0.0013519197
0.0013016124
0.0012502361
0.0011980928
0.0011447945
0.0010900494
0.0010341634
0.00097618083
0.00091432057
0.00085472563
0.00080205677
0.00074739539
0.00068786518
0.00062693918
0.00056703381
0.0005086389
0.00045124267
0.00039656534
0.00034162208
0.0003027851
0.00024241178
0.00039242744
-0.00024702291
0.0060175786
0.0059550274
0.0058604632
0.0057414737
0.0056046376
0.0054585263
0.005308518
0.0051559553
0.0050017773
0.0048480448
0.0046967452
0.0045493778
0.0044078038
0.004274615
0.0041526069
0.0040439825
0.003949703
0.0038691659
0.0038003414
0.0037403781
0.0036864483
0.0036363898
0.0035887512
0.0035425487
0.0034971399
0.0034521995
0.0034076937
0.0033637802
0.0033206886
0.0032785493
0.0032373046
0.0031967659
0.0031566206
0.0031165027
0.0030761778
0.0030356043
0.0029949517
0.0029545347
0.0029146463
0.0028755277
0.0028373252
0.0027999909
0.0027633498
0.0027272086
0.0026914528
0.0026559531
0.0026204607
0.002584686
0.0025485007
0.0025119061
0.0024749178
0.0024378736
0.0024015053
0.0023661386
0.0023311692
0.0022956502
0.0022590458
0.0022212579
0.0021825331
0.0021432848
0.0021037283
0.0020638551
0.0020234964
0.0019826232
0.001941313
0.0018994988
0.0018571344
0.0018142848
0.0017709258
0.0017269833
0.0016824763
0.0016373589
0.0015915713
0.0015451466
0.0014980054
0.0014501058
0.0014014949
0.0013520806
0.0013018217
0.001250608
0.00119861
0.0011453745
0.0010906431
0.0010347661
0.00097681515
0.00091530631
0.00085599714
0.00080328711
0.00074870985
0.00068930542
0.00062842168
0.00056850219
0.00051006552
0.00045261337
0.00039785591
0.00034284286
0.00030381149
0.00024317476
0.00039084595
-0.0002413603
0.0059325171
0.0058744954
0.0057893466
0.0056819166
0.0055562595
0.0054195644
0.0052774621
0.0051320803
0.0049845601
0.0048368008
0.0046908462
0.0045483709
0.0044112102
0.0042817352
0.0041624861
0.0040554939
0.0039617065
0.0038806999
0.0038107778
0.0037494652
0.00369422
0.0036430108
0.0035944212
0.003547472
0.003501509
0.003456177
0.0034113948
0.0033672679
0.0033239756
0.0032816224
0.0032401517
0.0031993821
0.0031590255
0.0031187472
0.0030783233
0.0030377089
0.0029970519
0.002956636
0.0029167368
0.0028775794
0.0028393001
0.0028018625
0.002765107
0.0027288516
0.0026929776
0.0026573556
0.0026217523
0.0025858955
0.0025496539
0.0025130244
0.0024760357
0.0024390012
0.0024025849
0.0023670947
0.0023319833
0.0022963578
0.0022596919
0.0022218841
0.0021831604
0.0021439067
0.0021043329
0.0020644346
0.0020240575
0.0019831683
0.0019418374
0.001900006
0.0018576279
0.0018147608
0.0017713848
0.0017274276
0.0016829021
0.0016377695
0.0015919711
0.0015455285
0.0014983721
0.0014504644
0.0014018243
0.0013523437
0.0013020211
0.0012507716
0.0011987757
0.001145649
0.001091063
0.0010352709
0.00097736678
0.00091616073
0.00085707311
0.00080428289
0.00074977983
0.00069051869
0.00062969874
0.00056978517
0.00051132833
0.00045384285
0.00039902425
0.00034395831
0.00030473225
0.00024381467
0.00038873088
-0.000234925
0.0058511574
0.0057971678
0.0057200883
0.0056227258
0.0055072628
0.005379629
0.005245363
0.0051071017
0.0049661996
0.0048244481
0.0046838905
0.0045463199
0.0044135591
0.0042877955
0.0041713445
0.0040660835
0.0039729477
0.0038916691
0.003820846
0.0037583448
0.0037018953
0.0036496063
0.0036001081
0.003552434
0.003505924
0.003460198
0.0034151327
0.0033707857
0.0033272896
0.0032847234
0.0032430297
0.0032020348
0.0031614719
0.0031210351
0.0030805116
0.0030398532
0.0029991877
0.0029587701
0.002918858
0.0028796613
0.0028413065
0.0028037669
0.0027668978
0.0027305278
0.0026945354
0.0026587916
0.0026230773
0.0025871371
0.0025508378
0.0025141724
0.0024771797
0.0024401505
0.0024036855
0.0023680739
0.0023328213
0.0022970883
0.0022603597
0.0022225299
0.0021838055
0.0021445456
0.0021049539
0.0020650306
0.0020246343
0.0019837287
0.0019423767
0.0019005276
0.0018581356
0.0018152509
0.0017718568
0.0017278843
0.0016833416
0.0016381931
0.0015923806
0.0015459206
0.0014987514
0.0014508327
0.0014021752
0.0013526829
0.0013023491
0.0012510552
0.0011989973
0.0011458346
0.0010912232
0.0010354779
0.0009777211
0.00091687818
0.00085799828
0.00080508907
0.00075062448
0.00069150695
0.00063076579
0.00057087397
0.00051241462
0.00045491626
0.00040005525
0.00034495378
0.0003055327
0.0002443141
0.00038602887
-0.00022765048
0.0057731717
0.0057227922
0.0056526654
0.0055640912
0.0054578901
0.0053388891
0.0052123168
0.0050810855
0.0049467356
0.0048109911
0.0046758593
0.0045431999
0.0044148258
0.0042927729
0.0041791594
0.0040757262
0.0039833954
0.0039020351
0.0038305039
0.0037669761
0.003709439
0.0036561472
0.0036057888
0.0035574168
0.0035103711
0.0034642522
0.0034188999
0.0033743277
0.0033306259
0.0032878486
0.0032459358
0.0032047213
0.0031639577
0.0031233647
0.0030827412
0.0030420357
0.0030013579
0.0029609358
0.0029210086
0.0028817716
0.0028433426
0.0028057022
0.0027687202
0.0027322353
0.0026961244
0.0026602594
0.0026244342
0.0025884093
0.0025520511
0.0025153489
0.0024783488
0.0024413205
0.0024048061
0.0023690753
0.0023336827
0.0022978416
0.002261049
0.0022231953
0.0021844683
0.0021452013
0.0021055915
0.0020656431
0.0020252271
0.0019843045
0.0019429312
0.001901064
0.0018586576
0.001815755
0.0017723423
0.0017283542
0.0016837941
0.0016386288
0.001592802
0.0015463255
0.0014991423
0.0014512099
0.0014025364
0.0013530335
0.0013026865
0.0012513851
0.0011993099
0.0011461218
0.0010914723
0.0010356819
0.00097791057
0.00091729455
0.00085864188
0.0008056895
0.00075127761
0.00069230424
0.00063164265
0.00057177577
0.00051332114
0.00045582372
0.00040093626
0.00034581606
0.00030619901
0.00024465703
0.00038269307
-0.00021947838
0.0056982737
0.0056511431
0.0055870388
0.0055061587
0.0054083529
0.0052975098
0.0051784255
0.0050541012
0.0049262132
0.0047964429
0.0046667418
0.0045389917
0.00441499
0.004296647
0.0041859099
0.0040843977
0.0039930193
0.0039117605
0.0038397096
0.0037753181
0.003716815
0.0036626035
0.0036114388
0.0035624011
0.0035148355
0.0034683282
0.0034226875
0.0033778871
0.003333979
0.0032909932
0.0032488657
0.0032074378
0.0031664792
0.003125733
0.0030850095
0.0030442543
0.0030035606
0.0029631312
0.002923187
0.0028839093
0.0028454071
0.0028076678
0.0027705738
0.0027339739
0.0026977449
0.0026617594
0.0026258236
0.0025897128
0.0025532947
0.0025165545
0.0024795436
0.0024425119
0.0024059472
0.0023700995
0.0023345683
0.0022986184
0.0022617607
0.0022238809
0.0021851493
0.0021458745
0.0021062463
0.0020662725
0.0020258361
0.0019848961
0.0019435014
0.0019016155
0.0018591941
0.0018162733
0.0017728417
0.0017288376
0.0016842598
0.0016390773
0.0015932357
0.0015467425
0.0014995445
0.0014515984
0.0014029095
0.0013533942
0.0013030332
0.0012517256
0.0011996291
0.0011464263
0.0010917846
0.0010359832
0.00097822137
0.0009177143
0.00085913751
0.00080600003
0.00075161838
0.0006928701
0.0006323469
0.00057252431
0.00051407021
0.00045657168
0.00040166301
0.00034653586
0.00030671934
0.00024482571
0.00037869237
-0.00021036675
0.0056262123
0.0055820187
0.0055231593
0.0054490377
0.0053588324
0.0052556489
0.0051437945
0.0050262212
0.0049046815
0.0047808248
0.0046565353
0.0045336814
0.0044140352
0.0042994009
0.0041915777
0.0040920758
0.0040017904
0.0039208091
0.003848422
0.0037833294
0.0037239858
0.0036689434
0.0036170321
0.0035673659
0.0035193005
0.003472413
0.0034264855
0.0033814564
0.0033373427
0.0032941517
0.0032518149
0.0032101802
0.0031690329
0.0031281368
0.0030873139
0.003046507
0.0030057942
0.002965355
0.002925392
0.0028860729
0.002847499
0.0028096623
0.0027724575
0.0027357429
0.0026993961
0.0026632909
0.0026272449
0.0025910475
0.0025545681
0.0025177887
0.0024807638
0.0024437244
0.0024071085
0.0023711461
0.0023354779
0.0022994188
0.0022624946
0.0022245869
0.0021858488
0.0021465652
0.0021069181
0.002066919
0.0020264615
0.0019855035
0.0019440874
0.0019021824
0.0018597453
0.0018168061
0.0017733554
0.0017293347
0.0016847388
0.0016395387
0.0015936821
0.0015471719
0.0014999585
0.0014519986
0.0014032939
0.0013537655
0.0013033911
0.0012520759
0.0011999575
0.0011467419
0.0010921081
0.0010362904
0.00097859552
0.0009181994
0.00085965476
0.00080634251
0.00075185552
0.0006931804
0.00063276969
0.00057307068
0.00051467457
0.00045719012
0.00040225545
0.00034711894
0.00030709295
0.00024479213
0.00037402428
-0.00020029836
0.0055567664
0.0055152387
0.0054609714
0.0053928081
0.0053094812
0.0052134527
0.0051085305
0.0049975206
0.0048821934
0.0047641646
0.0046452446
0.0045272617
0.00441195
0.0043010212
0.0041961468
0.00409874
0.0040096814
0.0039291461
0.0038566008
0.0037909688
0.0037309133
0.0036751337
0.0036225411
0.0035722887
0.0035237482
0.0034764927
0.003430283
0.0033850267
0.0033407097
0.0032973181
0.0032547782
0.0032129438
0.0031716145
0.0031305728
0.0030896513
0.0030487912
0.0030080563
0.0029676051
0.0029276216
0.002888261
0.0028496166
0.0028116845
0.0027743703
0.0027375416
0.0027010775
0.0026648537