/*--------------------------------*- C++ -*----------------------------------*\
  =========                 |
  \\      /  F ield         | OpenFOAM: The Open Source CFD Toolbox
   \\    /   O peration     | Website:  https://openfoam.org
    \\  /    A nd           | Version:  12
     \\/     M anipulation  |
\*---------------------------------------------------------------------------*/
FoamFile
{
    format      ascii;
    class       surfaceScalarField;
    location    "200";
    object      phi;
}
// * * * * * * * * * * * * * * * * * * * * * * * * * * * * * * * * * * * * * //

dimensions      [0 3 -1 0 0 0 0];

internalField   nonuniform List<scalar> 
14782
(
0.00078635983
7.1538302e-06
-0.00079351366
0.00077670798
9.6518533e-06
0.00076587497
1.0833007e-05
0.00075456328
1.1311693e-05
0.00074278047
1.1782813e-05
0.00073057607
1.22044e-05
0.00071798915
1.2586911e-05
0.00070506722
1.292193e-05
0.00069188268
1.3184546e-05
0.00067855935
1.3323328e-05
0.00066528732
1.3272032e-05
0.00065232909
1.295823e-05
0.00064001981
1.2309277e-05
0.00062871406
1.1305752e-05
0.00061868095
1.0033108e-05
0.00061003381
8.6471451e-06
0.00060273031
7.3034951e-06
0.00059652196
6.2083459e-06
0.00059129115
5.2308145e-06
0.00058678594
4.5052087e-06
0.00058279557
3.9903726e-06
0.00057922559
3.56998e-06
0.00057590795
3.3176352e-06
0.00057273625
3.171699e-06
0.00056967312
3.0631336e-06
0.00056669777
2.9753541e-06
0.00056380113
2.8966328e-06
0.00056098663
2.8145072e-06
0.00055825728
2.7293478e-06
0.00055561873
2.638545e-06
0.0005530696
2.549138e-06
0.00055059832
2.4712736e-06
0.0005481738
2.4245255e-06
0.00054575455
2.4192423e-06
0.0005433198
2.4347509e-06
0.00054087499
2.4448105e-06
0.00053844192
2.4330762e-06
0.00053604924
2.3926752e-06
0.00053372239
2.3268562e-06
0.00053147614
2.2462429e-06
0.00052931478
2.1613641e-06
0.00052723639
2.0783864e-06
0.00052523429
2.0021025e-06
0.00052329958
1.9347072e-06
0.00052140855
1.8910282e-06
0.00051951068
1.8978754e-06
0.00051752177
1.9889133e-06
0.0005153039
2.217861e-06
0.00051269371
2.6101889e-06
0.00050969117
3.0025431e-06
0.00050656527
3.1258989e-06
0.00050362138
2.9438889e-06
0.00050099529
2.6260962e-06
0.00049867407
2.3212131e-06
0.00049657571
2.0983664e-06
0.00049462153
1.954182e-06
0.00049274833
1.873196e-06
0.00049093053
1.8177998e-06
0.00048916691
1.7636188e-06
0.00048744886
1.7180488e-06
0.00048576818
1.6806795e-06
0.0004841159
1.6522833e-06
0.00048248508
1.6308172e-06
0.00048087077
1.614317e-06
0.00047926876
1.6020047e-06
0.00047767649
1.5922727e-06
0.00047609291
1.5835828e-06
0.00047451694
1.5759718e-06
0.00047294705
1.5698804e-06
0.0004713818
1.5652576e-06
0.00046981967
1.5621248e-06
0.00046825933
1.5603403e-06
0.00046669972
1.5596116e-06
0.00046513964
1.5600833e-06
0.00046357797
1.5616728e-06
0.0004620137
1.5642617e-06
0.00046044566
1.5680457e-06
0.00045887282
1.5728343e-06
0.00045729433
1.5784983e-06
0.00045570902
1.5853061e-06
0.00045411665
1.5923692e-06
0.00045251755
1.599102e-06
0.0004509162
1.6013514e-06
0.000449371
1.545195e-06
0.00044844327
9.2773684e-07
0.00045247846
-4.0351914e-06
0.00045898519
-6.5067342e-06
0.00046251605
-3.5308608e-06
0.00046434538
-1.8293385e-06
0.00046491883
-5.7344806e-07
0.00046482536
9.3470296e-08
0.00046435943
4.6593203e-07
0.00046367788
6.8155007e-07
0.00046286359
8.1428998e-07
0.00046196351
9.0007273e-07
0.00046100716
9.5634973e-07
0.00045999918
1.0079814e-06
0.00045892881
1.070375e-06
0.0004578268
1.1020051e-06
1.3411556e-06
0.00082497977
6.7728282e-06
-0.00082459877
0.00082537694
9.2546833e-06
0.00082558676
1.062319e-05
0.00082568023
1.1218214e-05
0.00082565152
1.1811529e-05
0.00082549686
1.2359064e-05
0.00082520981
1.2873957e-05
0.00082476833
1.3363412e-05
0.00082411691
1.3835967e-05
0.00082316058
1.427965e-05
0.00082177494
1.4657679e-05
0.00081979109
1.4942082e-05
0.00081700852
1.5091847e-05
0.00081323093
1.5083343e-05
0.00080833686
1.4927174e-05
0.00080232632
1.4657684e-05
0.0007953113
1.4318517e-05
0.00078748527
1.4034373e-05
0.0007790289
1.368719e-05
0.00077018445
1.3349659e-05
0.00076119768
1.2977142e-05
0.00075230331
1.246435e-05
0.00074369864
1.1922307e-05
0.00073551268
1.1357655e-05
0.00072781337
1.0762442e-05
0.00072063202
1.0156701e-05
0.00071397103
9.5576235e-06
0.00070780095
8.9845877e-06
0.00070206468
8.4656195e-06
0.00069669424
8.008988e-06
0.00069162328
7.6200991e-06
0.00068678983
7.3047239e-06
0.00068215579
7.0585633e-06
0.00067770992
6.8651103e-06
0.00067344283
6.7018434e-06
0.00066934216
6.5454773e-06
0.00066539117
6.3840665e-06
0.00066157035
6.2134978e-06
0.00065786348
6.0337226e-06
0.00065426049
5.8492313e-06
0.00065075659
5.6652701e-06
0.00064735012
5.484858e-06
0.0006440393
5.3129168e-06
0.00064082207
5.1519427e-06
0.00063770091
5.0121803e-06
0.00063468792
4.9108724e-06
0.00063181029
4.8665376e-06
0.00062912334
4.9048196e-06
0.00062669474
5.0387825e-06
0.00062448939
5.2078955e-06
0.00062232755
5.287741e-06
0.00062005184
5.2195964e-06
0.0006176308
5.0471352e-06
0.00061511427
4.8377513e-06
0.00061257023
4.6424032e-06
0.00061004209
4.4823209e-06
0.00060754705
4.3682371e-06
0.00060509064
4.2742056e-06
0.00060267719
4.1770731e-06
0.00060030937
4.0858653e-06
0.00059798693
4.0031262e-06
0.00059570776
3.9314528e-06
0.00059346968
3.8688902e-06
0.00059127051
3.8134937e-06
0.00058910766
3.7648516e-06
0.00058697939
3.7205424e-06
0.00058488481
3.6781631e-06
0.00058282286
3.6379271e-06
0.00058079222
3.6005172e-06
0.00057879169
3.5657833e-06
0.00057682005
3.5337676e-06
0.00057487613
3.5042601e-06
0.00057295899
3.4767531e-06
0.00057106763
3.4514469e-06
0.00056920113
3.4281728e-06
0.00056735869
3.4066975e-06
0.00056553941
3.3873272e-06
0.0005637425
3.3697412e-06
0.00056196724
3.3537627e-06
0.00056021265
3.3398939e-06
0.00055847828
3.3267373e-06
0.00055676359
3.3137974e-06
0.0005550665
3.2984426e-06
0.00055337945
3.2322392e-06
0.00055163569
2.6715026e-06
0.00054885948
-1.2589843e-06
0.00054619942
-3.8466818e-06
0.00054485499
-2.1864221e-06
0.00054372903
-7.0338113e-07
0.0005425983
5.5728099e-07
0.00054136848
1.3232846e-06
0.00054005716
1.7772559e-06
0.00053869659
2.0421205e-06
0.00053731081
2.2000684e-06
0.00053591048
2.3003976e-06
0.00053450871
2.3581193e-06
0.0005330788
2.4378995e-06
0.00053166181
2.4873566e-06
0.00053001249
2.7513264e-06
2.7425238e-06
0.00085269517
6.4992223e-06
-0.00085242156
0.00085309938
8.8504698e-06
0.00085347223
1.0250343e-05
0.00085376218
1.0928264e-05
0.00085402539
1.1548316e-05
0.00085425009
1.2134369e-05
0.00085444798
1.2676066e-05
0.00085462991
1.3181477e-05
0.00085480221
1.3663669e-05
0.00085496344
1.4118423e-05
0.00085511354
1.4507578e-05
0.00085524073
1.4814886e-05
0.00085532908
1.5003501e-05
0.0008553528
1.5059623e-05
0.00085527922
1.5000757e-05
0.00085506737
1.4869528e-05
0.00085466121
1.4724678e-05
0.00085401861
1.4676973e-05
0.00085304927
1.4656535e-05
0.00085165738
1.4741544e-05
0.00084971214
1.4922384e-05
0.00084708096
1.5095532e-05
0.00084370234
1.5300921e-05
0.00083955127
1.5508728e-05
0.00083463964
1.5674073e-05
0.00082901248
1.5783859e-05
0.00082278665
1.5783449e-05
0.00081613781
1.5633427e-05
0.00080923881
1.5364624e-05
0.00080225652
1.499128e-05
0.00079533946
1.4537153e-05
0.00078860467
1.4039521e-05
0.00078213245
1.3530778e-05
0.00077596045
1.3037112e-05
0.00077008642
1.2575876e-05
0.00076448391
1.2147985e-05
0.0007591151
1.1752876e-05
0.00075394211
1.1386484e-05
0.00074893673
1.1039109e-05
0.00074408095
1.0705005e-05
0.00073936429
1.0381936e-05
0.00073477925
1.0069892e-05
0.00073031807
9.7740959e-06
0.00072597558
9.4944363e-06
0.00072175524
9.2325155e-06
0.00071766862
8.9974965e-06
0.00071373178
8.8033764e-06
0.00070996918
8.6674167e-06
0.00070640753
8.6004387e-06
0.0007030398
8.5756221e-06
0.00069980586
8.5216766e-06
0.00069663229
8.3931727e-06
0.00069347238
8.2070372e-06
0.0006903119
7.9982328e-06
0.00068716069
7.7936193e-06
0.00068403541
7.607598e-06
0.00068095021
7.4534319e-06
0.00067791415
7.3102692e-06
0.0006749321
7.1591225e-06
0.00067200592
7.0120485e-06
0.00066913548
6.8735593e-06
0.00066632029
6.7466433e-06
0.0006635598
6.6293868e-06
0.00066085273
6.52056e-06
0.00065819707
6.4205088e-06
0.00065559151
6.3261031e-06
0.00065303501
6.2346668e-06
0.00065052597
6.1469678e-06
0.00064806279
6.0636976e-06
0.00064564414
5.9844331e-06
0.00064326871
5.9091985e-06
0.00064093521
5.8377595e-06
0.00063864251
5.7694482e-06
0.00063638945
5.7045042e-06
0.00063417495
5.6426732e-06
0.00063199805
5.583605e-06
0.00062985769
5.5276854e-06
0.00062775295
5.4744813e-06
0.00062568293
5.4237772e-06
0.00062364655
5.3762773e-06
0.00062164309
5.3301966e-06
0.00061967163
5.2852622e-06
0.00061772862
5.2414509e-06
0.00061579506
5.1657921e-06
0.00061372919
4.7373765e-06
0.00061061442
1.8557835e-06
0.0006072317
-4.6396063e-07
0.00060479456
2.5072269e-07
0.00060277756
1.3136164e-06
0.00060097252
2.3623257e-06
0.00059922354
3.0722598e-06
0.00059748538
3.5154118e-06
0.00059575083
3.7766735e-06
0.00059402453
3.9263697e-06
0.00059230635
4.0185801e-06
0.00059060496
4.0595104e-06
0.00058888398
4.1588753e-06
0.00058720594
4.1653941e-06
0.00058520882
4.7484528e-06
4.2978893e-06
0.00088128054
6.2962836e-06
-0.0008810776
0.00088165818
8.4728329e-06
0.00088203223
9.8762936e-06
0.00088232619
1.0634303e-05
0.00088259682
1.1277681e-05
0.00088283556
1.1895637e-05
0.00088304955
1.2462077e-05
0.00088324942
1.2981604e-05
0.00088344319
1.3469899e-05
0.0008836318
1.3929808e-05
0.00088381813
1.4321255e-05
0.00088399681
1.4636201e-05
0.00088416208
1.4838232e-05
0.00088430423
1.4917473e-05
0.00088441656
1.4888424e-05
0.00088449645
1.4789638e-05
0.00088454212
1.4679007e-05
0.00088457178
1.4647312e-05
0.00088457697
1.465135e-05
0.00088456159
1.4756919e-05
0.00088452597
1.4958012e-05
0.0008844447
1.5176802e-05
0.00088429479
1.5450822e-05
0.00088403986
1.5763668e-05
0.00088362306
1.6090867e-05
0.00088297686
1.643006e-05
0.00088198913
1.6771179e-05
0.00088052019
1.7102368e-05
0.00087846073
1.7424086e-05
0.00087572704
1.7724964e-05
0.00087227305
1.7991151e-05
0.0008680973
1.8215266e-05
0.00086327505
1.8353026e-05
0.00085794535
1.8366815e-05
0.00085225955
1.826168e-05
0.00084636987
1.8037658e-05
0.00084041224
1.771051e-05
0.00083449336
1.7305366e-05
0.00082868307
1.68494e-05
0.00082301253
1.6375537e-05
0.00081748427
1.5910204e-05
0.00081208737
1.5466787e-05
0.00080681025
1.5051219e-05
0.00080164696
1.4657725e-05
0.00079659821
1.4281269e-05
0.00079167124
1.3924465e-05
0.00078687716
1.3597451e-05
0.00078222835
1.3316227e-05
0.00077773473
1.3094063e-05
0.00077339605
1.2914303e-05
0.0007691955
1.2722227e-05
0.00076510769
1.2480983e-05
0.00076110983
1.2204889e-05
0.00075718453
1.1923531e-05
0.00075332298
1.1655172e-05
0.00074952436
1.1406221e-05
0.00074579226
1.1185531e-05
0.00074212886
1.0973674e-05
0.00073853421
1.0753768e-05
0.00073500858
1.053768e-05
0.00073155203
1.0330104e-05
0.00072816409
1.0134587e-05
0.000724844
9.9494797e-06
0.00072159034
9.7742111e-06
0.00071840119
9.60966e-06
0.00071527525
9.4520472e-06
0.00071221097
9.2989506e-06
0.00070920617
9.151759e-06
0.00070625903
9.0108467e-06
0.00070336799
8.8754652e-06
0.00070053155
8.7456464e-06
0.00069774814
8.6211602e-06
0.00069501639
8.5012032e-06
0.00069233484
8.3860533e-06
0.00068970214
8.2753718e-06
0.00068711706
8.1686874e-06
0.0006845783
8.0664492e-06
0.00068208467
7.9681088e-06
0.00067963505
7.8733995e-06
0.00067722813
7.7831959e-06
0.00067486299
7.6953361e-06
0.00067253853
7.609723e-06
0.00067025148
7.5284987e-06
0.00066798722
7.4300523e-06
0.0006656588
7.0657979e-06
0.00066279293
4.7216534e-06
0.0006597108
2.6181635e-06
0.00065705728
2.9042481e-06
0.00065469866
3.6722408e-06
0.00065253646
4.5245196e-06
0.00065046098
5.1477417e-06
0.00064842308
5.5533117e-06
0.00064640575
5.794005e-06
0.0006444075
5.924618e-06
0.00064242506
6.001018e-06
0.0006404667
6.01787e-06
0.00063849168
6.1338982e-06
0.00063657921
6.0778652e-06
0.00063427661
7.0510545e-06
6.0198375e-06
0.00091084153
6.1334695e-06
-0.00091067871
0.00091118263
8.1317295e-06
0.00091153231
9.5266103e-06
0.00091181588
1.0350741e-05
0.00091207475
1.101881e-05
0.00091231057
1.1659811e-05
0.00091252578
1.2246866e-05
0.00091272854
1.2778844e-05
0.00091292632
1.327212e-05
0.00091311998
1.3736154e-05
0.00091331164
1.4129591e-05
0.00091349639
1.4451455e-05
0.00091366884
1.4665777e-05
0.00091382091
1.4765407e-05
0.00091394585
1.4763477e-05
0.00091404065
1.4694844e-05
0.00091410569
1.4613972e-05
0.00091415753
1.4595467e-05
0.00091419346
1.4615423e-05
0.00091422259
1.4727788e-05
0.0009142545
1.4926098e-05
0.0009142827
1.5148602e-05
0.00091431032
1.5423205e-05
0.00091433839
1.5735593e-05
0.00091436318
1.606608e-05
0.00091438111
1.6412133e-05
0.00091438525
1.6767033e-05
0.00091436283
1.7124791e-05
0.00091429543
1.7491486e-05
0.00091415228
1.7868116e-05
0.00091388635
1.8257078e-05
0.0009134363
1.866532e-05
0.00091269936
1.9089967e-05
0.00091154397
1.9522201e-05
0.00090985511
1.9950544e-05
0.00090754196
2.0350806e-05
0.00090455154
2.0700932e-05
0.00090088692
2.0969981e-05
0.00089662416
2.111216e-05
0.00089188813
2.1111568e-05
0.00088681675
2.0981585e-05
0.00088154328
2.0740253e-05
0.00087618011
2.0414393e-05
0.00087080539
2.0032439e-05
0.00086546046
1.96262e-05
0.00086016373
1.9221194e-05
0.00085492658
1.8834605e-05
0.00084976279
1.848002e-05
0.00084468878
1.816807e-05
0.00083971719
1.7885899e-05
0.00083485138
1.7588035e-05
0.00083008715
1.7245206e-05
0.00082541821
1.6873833e-05
0.00082083812
1.6503619e-05
0.00081634195
1.615134e-05
0.00081192768
1.5820491e-05
0.00080759559
1.5517622e-05
0.00080334373
1.5225538e-05
0.00079916919
1.4928308e-05
0.00079507168
1.4635184e-05
0.00079105187
1.4349922e-05
0.00078710957
1.4076883e-05
0.00078324406
1.3814984e-05
0.00077945438
1.3563898e-05
0.00077573912
1.3324915e-05
0.00077209657
1.3094595e-05
0.00076852494
1.2870589e-05
0.00076502242
1.265428e-05
0.00076158727
1.2445991e-05
0.00075821793
1.2244804e-05
0.00075491279
1.2050793e-05
0.0007516702
1.1863742e-05
0.00074848868
1.1682729e-05
0.00074536664
1.150809e-05
0.0007423026
1.1339417e-05
0.00073929515
1.117613e-05
0.00073634286
1.1018747e-05
0.00073344436
1.0866608e-05
0.00073059836
1.0719394e-05
0.00072780342
1.057814e-05
0.00072505845
1.0440303e-05
0.00072236226
1.0305912e-05
0.00071971205
1.0178712e-05
0.00071709797
1.0044134e-05
0.00071447623
9.6875376e-06
0.00071161639
7.5814926e-06
0.00070863648
5.5980725e-06
0.00070585336
5.6873744e-06
0.00070325867
6.2669227e-06
0.00070081576
6.9674322e-06
0.00069845873
7.5047739e-06
0.00069614766
7.8643852e-06
0.00069386443
8.0772362e-06
0.00069160526
8.1837876e-06
0.00068936565
8.2406282e-06
0.00068715441
8.2291102e-06
0.00068492783
8.3604748e-06
0.00068278064
8.2250545e-06
0.00068017535
9.6563444e-06
7.9199812e-06
0.00094139064
6.0020756e-06
-0.00094125925
0.00094169108
7.8312935e-06
0.00094201736
9.2003311e-06
0.00094229579
1.0072308e-05
0.00094255002
1.0764577e-05
0.00094278755
1.1422285e-05
0.00094300727
1.2027141e-05
0.00094321425
1.2571867e-05
0.00094341465
1.307172e-05
0.00094361151
1.3539299e-05
0.00094380363
1.3937465e-05
0.00094398903
1.426606e-05
0.00094416161
1.4493193e-05
0.00094431405
1.4612965e-05
0.0009444403
1.4637225e-05
0.00094453772
1.4597431e-05
0.00094460726
1.4544431e-05
0.0009446622
1.4540521e-05
0.00094470201
1.4575618e-05
0.00094473549
1.4694309e-05
0.00094477133
1.4890261e-05
0.0009448051
1.5114826e-05
0.0009448399
1.5388409e-05
0.00094487724
1.5698251e-05
0.00094491562
1.6027697e-05
0.0009449548
1.6372958e-05
0.00094499396
1.6727871e-05
0.00094503146
1.7087295e-05
0.00094506713
1.7455809e-05
0.00094509988
1.7835373e-05
0.0009451281
1.8228858e-05
0.00094514984
1.8643575e-05
0.00094515965
1.9080158e-05
0.00094514662
1.9535228e-05
0.00094509124
2.000593e-05
0.00094495893
2.0483115e-05
0.0009446981
2.0961756e-05
0.00094422853
2.1439553e-05
0.00094343089
2.1909801e-05
0.00094217461
2.2367853e-05
0.00094035065
2.2805537e-05
0.00093788385
2.320706e-05
0.0009347567
2.354154e-05
0.00093102706
2.3762083e-05
0.00092680417
2.3849085e-05
0.00092221507
2.3810296e-05
0.000917384
2.366567e-05
0.00091241563
2.3448398e-05
0.00090738457
2.3199127e-05
0.00090233448
2.2935984e-05
0.00089728745
2.2635066e-05
0.00089225698
2.2275681e-05
0.00088725638
2.187443e-05
0.00088229864
2.1461359e-05
0.00087739364
2.1056341e-05
0.00087254808
2.066605e-05
0.00086776745
2.0298256e-05
0.0008630545
1.9938482e-05
0.00085841021
1.9572599e-05
0.00085383622
1.9209174e-05
0.0008493345
1.885165e-05
0.00084490668
1.85047e-05
0.00084055396
1.8167708e-05
0.00083627729
1.7840562e-05
0.000832077
1.7525201e-05
0.00082795207
1.7219525e-05
0.00082390142
1.692124e-05
0.00081992436
1.6631341e-05
0.00081601992
1.6350429e-05
0.00081218708
1.6077646e-05
0.00080842464
1.5813232e-05
0.00080473133
1.555706e-05
0.0008011059
1.5308156e-05
0.00079754701
1.5066979e-05
0.00079405332
1.4833109e-05
0.00079062354
1.4605906e-05
0.00078725629
1.4385994e-05
0.00078395027
1.4172633e-05
0.00078070418
1.3965479e-05
0.00077751658
1.3765744e-05
0.00077438637
1.3570511e-05
0.00077131237
1.3379917e-05
0.00076829219
1.3198889e-05
0.00076531928
1.3017041e-05
0.00076237424
1.2632583e-05
0.0007593407
1.0615029e-05
0.00075625749
8.6812891e-06
0.00075328159
8.6632744e-06
0.00075043246
9.1160471e-06
0.00074770216
9.6977376e-06
0.00074505385
1.0153079e-05
0.00074245775
1.0460494e-05
0.00073989673
1.0638255e-05
0.00073736545
1.0715064e-05
0.0007348581
1.0747978e-05
0.00073238368
1.070353e-05
0.00072989552
1.0848634e-05
0.00072750319
1.0617386e-05
0.00072458618
1.2573354e-05
1.0011919e-05
0.00097295812
5.8947412e-06
-0.00097285079
0.00097322217
7.5672478e-06
0.00097352719
8.8953095e-06
0.00097379986
9.7996333e-06
0.00097404927
1.0515176e-05
0.00097428561
1.1185944e-05
0.0009745071
1.1805644e-05
0.00097471642
1.2362556e-05
0.00097491814
1.2869999e-05
0.000975118
1.3339433e-05
0.00097531093
1.3744539e-05
0.00097549784
1.4079144e-05
0.00097567177
1.4319269e-05
0.00097582609
1.4458646e-05
0.00097595513
1.4508183e-05
0.0009760562
1.4496361e-05
0.00097613067
1.4469959e-05
0.00097618946
1.448173e-05
0.00097623354
1.4531536e-05
0.00097627109
1.4656759e-05
0.0009763096
1.4851753e-05
0.00097634601
1.5078414e-05
0.00097638312
1.53513e-05
0.00097642236
1.5659009e-05
0.00097646278
1.5987279e-05
0.00097650416
1.6331581e-05
0.00097654594
1.6686095e-05
0.00097658699
1.7046243e-05
0.00097662725
1.7415549e-05
0.00097666623
1.7796386e-05
0.00097670375
1.8191345e-05
0.00097674066
1.8606657e-05
0.00097677747
1.9043353e-05
0.00097681409
1.949861e-05
0.00097685049
1.9969524e-05
0.00097688531
2.04483e-05
0.00097691621
2.093085e-05
0.00097693876
2.1417008e-05
0.00097694346
2.1905106e-05
0.00097691312
2.2398189e-05
0.00097681696
2.2901697e-05
0.00097660563
2.3418392e-05
0.00097619792
2.3949249e-05
0.00097547186
2.4488139e-05
0.00097429309
2.5027853e-05
0.00097254874
2.5554645e-05
0.00097016304
2.6051376e-05
0.00096713654
2.6474892e-05
0.00096354784
2.6787832e-05
0.00095950949
2.6974336e-05
0.00095514325
2.7001302e-05
0.0009505569
2.6862037e-05
0.00094583055
2.6600776e-05
0.00094101469
2.6277224e-05
0.00093614005
2.5930974e-05
0.0009312303
2.55758e-05
0.00092630844
2.5220124e-05
0.00092139391
2.4853004e-05
0.00091650075
2.4465761e-05
0.00091163929
2.407063e-05
0.00090681781
2.3673133e-05
0.00090204362
2.327889e-05
0.0008973231
2.288823e-05
0.0008926615
2.2502165e-05
0.00088806285
2.2123848e-05
0.00088352965
2.1752723e-05
0.00087906354
2.138735e-05
0.00087466589
2.1028994e-05
0.00087033766
2.0678659e-05
0.00086607952
2.0335783e-05
0.00086189169
2.0001061e-05
0.00085777406
1.9674692e-05
0.00085372639
1.935583e-05
0.00084974815
1.9045221e-05
0.00084583869
1.8742566e-05
0.00084199732
1.8447275e-05
0.00083822313
1.8160185e-05
0.00083451521
1.7880555e-05
0.0008308726
1.7608083e-05
0.00082729412
1.7344225e-05
0.00082377891
1.7085724e-05
0.00082032597
1.6832856e-05
0.00081693338
1.6591475e-05
0.00081359672
1.6353706e-05
0.00081030892
1.5920385e-05
0.00080700565
1.3918301e-05
0.00080369749
1.1989444e-05
0.00080046678
1.1893988e-05
0.00079733127
1.2251559e-05
0.00079429436
1.2734646e-05
0.000791337
1.3110437e-05
0.00078843819
1.3359299e-05
0.00078558273
1.3493722e-05
0.00078276415
1.3533646e-05
0.00077997514
1.3536983e-05
0.00077722446
1.3454208e-05
0.0007744622
1.3610895e-05
0.00077181233
1.3267263e-05
0.00076857162
1.5814055e-05
1.2308789e-05
0.001005578
5.8048341e-06
-0.0010054881
0.0010058105
7.3347325e-06
0.0010060941
8.6116758e-06
0.0010063588
9.5349915e-06
0.0010066029
1.0271038e-05
0.001006837
1.0951854e-05
0.0010070597
1.1582911e-05
0.0010072715
1.2150777e-05
0.0010074761
1.2665416e-05
0.0010076779
1.3137593e-05
0.0010078731
1.354937e-05
0.0010080616
1.3890646e-05
0.0010082372
1.4143672e-05
0.0010083937
1.4302192e-05
0.0010085257
1.4376159e-05
0.0010086306
1.4391435e-05
0.00100871
1.4390591e-05
0.0010087728
1.441893e-05
0.001008821
1.4483309e-05
0.0010088623
1.4615503e-05
0.0010089031
1.4810898e-05
0.0010089417
1.503981e-05
0.0010089807
1.5312327e-05
0.0010090214
1.5618315e-05
0.0010090632
1.5945492e-05
0.0010091058
1.6288945e-05
0.0010091487
1.6643163e-05
0.0010091909
1.7004056e-05
0.0010092323
1.7374184e-05
0.0010092726
1.7756046e-05
0.0010093119
1.8152063e-05
0.001009351
1.8567614e-05
0.0010093903
1.9003978e-05
0.0010094304
1.9458497e-05
0.0010094716
1.9928376e-05
0.001009513
2.0406881e-05
0.001009554
2.0889857e-05
0.0010095942
2.1376818e-05
0.0010096328
2.1866493e-05
0.0010096692
2.2361827e-05
0.0010097027
2.286822e-05
0.0010097317
2.3389304e-05
0.0010097525
2.3928493e-05
0.0010097552
2.4485485e-05
0.0010097203
2.5062654e-05
0.0010096112
2.566377e-05
0.0010093694
2.6293213e-05
0.0010088906
2.6953705e-05
0.0010080347
2.7643748e-05
0.0010066716
2.8337396e-05
0.0010046991
2.897378e-05
0.0010020839
2.9477304e-05
0.00099887743
2.9807196e-05
0.00099518157
2.9973086e-05
0.0009911148
2.9997741e-05
0.0009867851
2.9905503e-05
0.00098227308
2.973214e-05
0.00097762989
2.9496196e-05
0.00097288923
2.920642e-05
0.00096807972
2.8880142e-05
0.00096322768
2.8525174e-05
0.00095835542
2.8151153e-05
0.00095348054
2.776311e-05
0.0009486171
2.7365599e-05
0.00094377699
2.6963962e-05
0.00093897003
2.6559683e-05
0.00093420392
2.6153456e-05
0.00092948476
2.5748158e-05
0.00092481758
2.534584e-05
0.00092020662
2.4946745e-05
0.00091565511
2.4552564e-05
0.00091116554
2.4164266e-05
0.00090673987
2.3781502e-05
0.00090237945
2.3405642e-05
0.00089808523
2.303678e-05
0.0008938579
2.2674611e-05
0.00088969769
2.2320388e-05
0.00088560471
2.1973537e-05
0.00088157885
2.1633945e-05
0.00087761963
2.1303445e-05
0.00087372682
2.0978531e-05
0.00086989997
2.0659709e-05
0.00086613779
2.0353658e-05
0.0008624374
2.0054087e-05
0.00085879776
1.9560027e-05
0.0008551784
1.753766e-05
0.00085158154
1.5586307e-05
0.00084805547
1.5420057e-05
0.00084460995
1.5697082e-05
0.00084125125
1.6093346e-05
0.00083797063
1.6391057e-05
0.0008347543
1.6575628e-05
0.00083158957
1.665845e-05
0.00082846957
1.6653646e-05
0.00082538566
1.66209e-05
0.00082234611
1.6493759e-05
0.00081929753
1.6659467e-05
0.00081637806
1.6186741e-05
0.00081280127
1.9390845e-05
1.4822657e-05
0.0010392849
5.7274113e-06
-0.0010392075
0.0010394902
7.1294225e-06
0.0010397526
8.3492724e-06
0.001040008
9.2796312e-06
0.0010402471
1.0031913e-05
0.0010404787
1.0720313e-05
0.0010407019
1.1359624e-05
0.0010409157
1.193697e-05
0.0010411226
1.2458605e-05
0.0010413258
1.2934392e-05
0.0010415228
1.335234e-05
0.0010417124
1.3701016e-05
0.0010418894
1.3966715e-05
0.0010420477
1.4143825e-05
0.0010421826
1.4241339e-05
0.0010422912
1.4282752e-05
0.0010423753
1.4306492e-05
0.0010424423
1.4351977e-05
0.0010424948
1.443079e-05
0.00104254
1.4570314e-05
0.0010425837
1.476717e-05
0.0010426251
1.4998435e-05
0.0010426666
1.5270864e-05
0.0010427094
1.5575519e-05
0.0010427531
1.590177e-05
0.0010427975
1.6244538e-05
0.0010428421
1.6598593e-05
0.0010428859
1.6960251e-05
0.0010429288
1.7331303e-05
0.0010429706
1.7714225e-05
0.0010430113
1.8111319e-05
0.0010430517
1.852722e-05
0.0010430923
1.8963353e-05
0.0010431335
1.9417343e-05
0.0010431755
1.9886365e-05
0.001043218
2.0364422e-05
0.0010432604
2.0847409e-05
0.0010433026
2.133467e-05
0.0010433439
2.1825192e-05
0.0010433841
2.2321568e-05
0.0010434233
2.2829051e-05
0.0010434611
2.3351444e-05
0.0010434979
2.3891772e-05
0.0010435333
2.4450093e-05
0.0010435669
2.5029027e-05
0.0010435979
2.5632716e-05
0.0010436244
2.626671e-05
0.0010436406
2.6937586e-05
0.0010436329
2.7651442e-05
0.0010435718
2.8398475e-05
0.0010434023
2.9143296e-05
0.0010430231
2.9856494e-05
0.0010422912
3.0539082e-05
0.0010410647
3.1199545e-05
0.001039233
3.1829447e-05
0.0010367623
3.2376246e-05
0.0010337061
3.2788303e-05
0.0010301638
3.30385e-05
0.001026249
3.3121277e-05
0.0010220609
3.3068212e-05
0.0010176699
3.2916141e-05
0.0010131222
3.2698888e-05
0.0010084533
3.2432041e-05
0.0010036956
3.2123253e-05
0.00099887812
3.1781444e-05
0.00099402441
3.1413399e-05
0.00098915319
3.1024669e-05
0.00098427997
3.0621382e-05
0.00097941788
3.0207932e-05
0.00097457792
2.9786705e-05
0.00096976903
2.9361452e-05
0.00096499861
2.8934682e-05
0.00096027288
2.8507233e-05
0.00095559678
2.8081747e-05
0.00095097434
2.7659214e-05
0.00094640891
2.7240043e-05
0.000941903
2.6826298e-05
0.00093745866
2.6417875e-05
0.00093307748
2.6015126e-05
0.00092876042
2.5620509e-05
0.0009245085
2.5230451e-05
0.00092032235
2.4845863e-05
0.00091620171
2.4474297e-05
0.00091214523
2.4110565e-05
0.00090815493
2.3550324e-05
0.0009042017
2.1490895e-05
0.00090028673
1.9501268e-05
0.00089644363
1.926316e-05
0.00089267498
1.9465736e-05
0.00088898616
1.9782165e-05
0.00088537397
2.0003247e-05
0.00088183024
2.0119357e-05
0.00087834522
2.014347e-05
0.00087491243
2.0086438e-05
0.00087152234
2.0010985e-05
0.00086818285
1.9833255e-05
0.00086483699
2.0005325e-05
0.00086163694
1.9386792e-05
0.00085771223
2.331555e-05
1.7564516e-05
0.0010741149
5.6590361e-06
-0.0010740465
0.001074297
6.9473035e-06
0.0010745391
8.107232e-06
0.0010747844
9.0343634e-06
0.0010750183
9.7979377e-06
0.0010752468
1.0491827e-05
0.0010754697
1.1136737e-05
0.0010756848
1.1721877e-05
0.0010758933
1.2250111e-05
0.0010760977
1.2729945e-05
0.0010762964
1.315369e-05
0.0010764872
1.3510191e-05
0.0010766656
1.378832e-05
0.001076826
1.3983436e-05
0.0010769637
1.4103636e-05
0.0010770762
1.4170222e-05
0.001077165
1.4217681e-05
0.0010772363
1.4280689e-05
0.0010772933
1.4373857e-05
0.0010773425
1.4521103e-05
0.0010773892
1.472039e-05
0.0010774335
1.4954222e-05
0.0010774774
1.5226923e-05
0.0010775223
1.5530663e-05
0.0010775678
1.5856194e-05
0.0010776139
1.6198436e-05
0.0010776601
1.655243e-05
0.0010777055
1.6914834e-05
0.00107775
1.7286841e-05
0.0010777934
1.7670812e-05
0.0010778358
1.806895e-05
0.0010778777
1.8485249e-05
0.0010779199
1.8921201e-05
0.0010779625
1.9374716e-05
0.0010780059
1.9842987e-05
0.0010780497
2.0320641e-05
0.0010780934
2.0803687e-05
0.0010781367
2.1291313e-05
0.0010781792
2.1782758e-05
0.0010782204
2.2280313e-05
0.0010782606
2.2788863e-05
0.0010782999
2.3312165e-05
0.0010783386
2.3853119e-05
0.0010783766
2.4412048e-05
0.0010784142
2.4991408e-05
0.0010784514
2.5595511e-05
0.0010784881
2.6230003e-05
0.0010785248
2.6900948e-05
0.0010785625
2.761366e-05
0.001078602
2.8359037e-05
0.0010786401
2.9105226e-05
0.0010786685
2.9828052e-05
0.0010786718
3.0535764e-05
0.0010786188
3.1252527e-05
0.0010784538
3.199449e-05
0.0010780693
3.2760753e-05
0.0010773142
3.3543339e-05
0.0010760424
3.4310329e-05
0.0010741514
3.5012313e-05
0.0010716286
3.5590992e-05
0.0010685437
3.6001062e-05
0.0010650018
3.6240746e-05
0.0010611102
3.6323701e-05
0.0010569526
3.6280839e-05
0.0010525861
3.6147915e-05
0.0010480531
3.5946363e-05
0.0010433913
3.5686525e-05
0.0010386343
3.5378409e-05
0.00103381
3.5032152e-05
0.0010289414
3.4655327e-05
0.0010240475
3.4255366e-05
0.0010191446
3.3837592e-05
0.0010142464
3.3405418e-05
0.0010093642
3.2963907e-05
0.0010045076
3.2515813e-05
0.00099968465
3.206304e-05
0.00099490181
3.1609144e-05
0.00099016464
3.1155043e-05
0.00098547773
3.0702031e-05
0.00098084462
3.0253626e-05
0.00097626855
2.9806514e-05
0.00097175209
2.9362325e-05
0.00096729671
2.8929683e-05
0.00096290296
2.8504313e-05
0.00095857496
2.7878321e-05
0.0009542895
2.577636e-05
0.0009500494
2.3741367e-05
0.00094588292
2.3429638e-05
0.00094178808
2.3560572e-05
0.0009377682
2.3802047e-05
0.00093382267
2.3948774e-05
0.0009299475
2.399453e-05
0.000926136
2.3954974e-05
0.00092238285
2.3839582e-05
0.00091867832
2.3715519e-05
0.00091503019
2.3481388e-05
0.00091137802
2.3657489e-05
0.00090788809
2.2876723e-05
0.00090360504
2.7598599e-05
2.0544178e-05
0.0011101054
5.5973137e-06
-0.0011100437
0.001110268
6.7847493e-06
0.0011104909
7.8842874e-06
0.0011107255
8.7998118e-06
0.0011109539
9.5695007e-06
0.0011111789
1.0266813e-05
0.0011114007
1.0915002e-05
0.0011116164
1.1506103e-05
0.0011118263
1.2040293e-05
0.0011120318
1.2524379e-05
0.0011122318
1.2953705e-05
0.0011124238
1.3318224e-05
0.0011126035
1.3608576e-05
0.0011127658
1.3821112e-05
0.0011129063
1.3963147e-05
0.0011130226
1.4053942e-05
0.001113116
1.4124311e-05
0.0011131916
1.4205036e-05
0.001113253
1.4312499e-05
0.0011133062
1.4467859e-05
0.0011133562
1.4670432e-05
0.0011134033
1.4907084e-05
0.0011134498
1.5180415e-05
0.0011134969
1.5483617e-05
0.0011135445
1.5808628e-05
0.0011135924
1.615049e-05
0.0011136403
1.6504519e-05
0.0011136875
1.6867665e-05
0.0011137337
1.7240658e-05
0.0011137788
1.7625683e-05
0.0011138229
1.8024846e-05
0.0011138666
1.8441596e-05
0.0011139103
1.8877422e-05
0.0011139545
1.933051e-05
0.0011139994
1.9798108e-05
0.0011140447
2.0275387e-05
0.0011140898
2.0758513e-05
0.0011141346
2.1246539e-05
0.0011141785
2.1738908e-05
0.0011142211
2.2237665e-05
0.0011142626
2.2747332e-05
0.0011143032
2.3271591e-05
0.0011143431
2.3813243e-05
0.0011143823
2.4372884e-05
0.0011144208
2.4952844e-05
0.001114459
2.5557317e-05
0.0011144972
2.619181e-05
0.001114536
2.6862131e-05
0.001114577
2.7572652e-05
0.0011146215
2.8314573e-05
0.0011146678
2.9058905e-05
0.0011147131
2.9782779e-05
0.0011147557
3.0493132e-05
0.0011147951
3.1213162e-05
0.0011148301
3.1959516e-05
0.0011148548
3.2735996e-05
0.0011148528
3.3545327e-05
0.0011147861
3.4377057e-05
0.0011145795
3.5218888e-05
0.0011141017
3.606882e-05
0.0011131898
3.6912925e-05
0.001111703
3.772761e-05
0.0011095775
3.8449141e-05
0.0011068473
3.9011118e-05