/*--------------------------------*- C++ -*----------------------------------*\
  =========                 |
  \\      /  F ield         | OpenFOAM: The Open Source CFD Toolbox
   \\    /   O peration     | Website:  https://openfoam.org
    \\  /    A nd           | Version:  12
     \\/     M anipulation  |
\*---------------------------------------------------------------------------*/
FoamFile
{
    format      ascii;
    class       surfaceScalarField;
    location    "200";
    object      phi;
}
// * * * * * * * * * * * * * * * * * * * * * * * * * * * * * * * * * * * * * //

dimensions      [0 3 -1 0 0 0 0];

internalField   nonuniform List<scalar> 
25880
(
2.0046487e-06
5.431517e-12
2.0046359e-06
1.278371e-11
2.0046202e-06
1.5724866e-11
2.0046029e-06
1.7277621e-11
2.0045836e-06
1.9370124e-11
2.0045617e-06
2.1869227e-11
2.004537e-06
2.4648532e-11
2.0045093e-06
2.7787541e-11
2.0044778e-06
3.1424795e-11
2.0044421e-06
3.57024e-11
2.0044013e-06
4.0788092e-11
2.0043544e-06
4.6919102e-11
2.0043e-06
5.4439338e-11
2.0042361e-06
6.3898755e-11
2.00416e-06
7.6064895e-11
2.0040675e-06
9.2547254e-11
2.0039526e-06
1.1490071e-10
2.003802e-06
1.5055878e-10
2.003604e-06
1.9802842e-10
2.0032903e-06
3.1367455e-10
2.0028588e-06
4.3145831e-10
2.0016051e-06
1.2537239e-09
2.0012095e-06
3.956658e-10
1.0299093e-06
9.7130018e-07
4.3381994e-08
9.8652728e-07
2.7502286e-08
1.5879708e-08
2.5453975e-08
2.0483107e-09
2.4628221e-08
8.257538e-10
2.4039156e-08
5.890652e-10
2.3534006e-08
5.051496e-10
2.3086579e-08
4.4742725e-10
2.2686916e-08
3.9966328e-10
2.2326794e-08
3.6012205e-10
2.1998883e-08
3.2791063e-10
2.1697567e-08
3.0131604e-10
2.1418759e-08
2.7880832e-10
2.1159366e-08
2.5939316e-10
2.0916907e-08
2.4245867e-10
2.0689335e-08
2.2757217e-10
2.0474935e-08
2.143993e-10
2.0272266e-08
2.0266919e-10
2.0080106e-08
1.9216013e-10
1.9897415e-08
1.8269078e-10
1.9723317e-08
1.7409846e-10
1.9557052e-08
1.662646e-10
1.9397971e-08
1.5908098e-10
1.924551e-08
1.5246113e-10
1.9099151e-08
1.4635897e-10
1.8958445e-08
1.4070649e-10
1.8822995e-08
1.3544939e-10
1.8692426e-08
1.3056967e-10
1.8566397e-08
1.260291e-10
1.8444613e-08
1.2178313e-10
1.8326797e-08
1.1781652e-10
1.8212679e-08
1.1411839e-10
1.8102027e-08
1.1065169e-10
1.7994636e-08
1.0739058e-10
1.78903e-08
1.0433674e-10
1.7788821e-08
1.0147897e-10
1.7690034e-08
9.8786546e-11
1.7593791e-08
9.6243469e-11
1.7499936e-08
9.3854981e-11
1.740832e-08
9.1615766e-11
1.731882e-08
8.9499888e-11
1.7231326e-08
8.749351e-11
1.7145723e-08
8.5603353e-11
1.7061895e-08
8.3827692e-11
1.6979745e-08
8.2150425e-11
1.6899187e-08
8.0557584e-11
1.6820139e-08
7.9048705e-11
1.6742511e-08
7.7627634e-11
1.666622e-08
7.6290509e-11
1.6591199e-08
7.5021209e-11
1.6517387e-08
7.3812264e-11
1.6444716e-08
7.2670582e-11
1.6373119e-08
7.1597214e-11
1.6302535e-08
7.0584061e-11
1.6232915e-08
6.9620402e-11
1.616421e-08
6.8704815e-11
1.6096367e-08
6.7843261e-11
1.602933e-08
6.7037089e-11
1.5963053e-08
6.6276424e-11
1.58975e-08
6.5553254e-11
1.5832629e-08
6.487137e-11
1.5768393e-08
6.4235359e-11
1.5704748e-08
6.3645331e-11
1.5641657e-08
6.3091246e-11
1.5579089e-08
6.2567689e-11
1.5517007e-08
6.2081895e-11
1.545537e-08
6.1637521e-11
1.5394138e-08
6.1231906e-11
1.533328e-08
6.0857346e-11
1.5272769e-08
6.0511672e-11
1.5212566e-08
6.0202398e-11
1.5152633e-08
5.9933568e-11
1.5092934e-08
5.9698523e-11
1.5033443e-08
5.949149e-11
1.4974125e-08
5.9317461e-11
1.4914942e-08
5.918304e-11
1.4855854e-08
5.9087794e-11
1.479683e-08
5.9024829e-11
1.4737836e-08
5.8993163e-11
1.4678835e-08
5.9001685e-11
1.461978e-08
5.9054304e-11
1.4560636e-08
5.9144123e-11
1.4501367e-08
5.9269134e-11
1.4441928e-08
5.9439072e-11
1.4382269e-08
5.9658757e-11
1.4322347e-08
5.9922034e-11
1.4262119e-08
6.0228693e-11
1.4201527e-08
6.0591603e-11
1.4140522e-08
6.1004861e-11
1.4079037e-08
6.1484678e-11
1.4019601e-08
5.9436805e-11
1.3963505e-08
5.6095579e-11
1.3910443e-08
5.3061939e-11
1.386014e-08
5.0303448e-11
1.3812346e-08
4.7793637e-11
1.376684e-08
4.5506523e-11
1.3723429e-08
4.3410668e-11
1.3681948e-08
4.1480788e-11
1.3642246e-08
3.9701643e-11
1.3604186e-08
3.8060129e-11
1.3567646e-08
3.6539831e-11
1.3532521e-08
3.5125865e-11
1.3498711e-08
3.3809405e-11
1.3466124e-08
3.2586888e-11
1.3434673e-08
3.1451508e-11
1.340426e-08
3.0412657e-11
1.3374826e-08
2.943437e-11
1.3346175e-08
2.8650359e-11
1.3318407e-08
2.7768415e-11
1.3290647e-08
2.7759822e-11
1.3264281e-08
2.6366447e-11
1.3232173e-08
3.2108121e-11
2.0348654e-11
2.0345225e-06
1.1028191e-11
2.0345093e-06
2.5970458e-11
2.034493e-06
3.195729e-11
2.0344752e-06
3.5112985e-11
2.0344552e-06
3.9362944e-11
2.0344327e-06
4.4436963e-11
2.0344072e-06
5.007711e-11
2.0343786e-06
5.6444871e-11
2.0343462e-06
6.3821689e-11
2.0343094e-06
7.2495656e-11
2.0342674e-06
8.2806461e-11
2.034219e-06
9.5234562e-11
2.034163e-06
1.1047647e-10
2.0340973e-06
1.2964601e-10
2.034019e-06
1.5429713e-10
2.0339239e-06
1.8768925e-10
2.0338058e-06
2.3296698e-10
2.0336512e-06
3.0518486e-10
2.0334479e-06
4.0128684e-10
2.0331262e-06
6.3540072e-10
2.0326839e-06
8.737301e-10
2.0313992e-06
2.538474e-09
2.0309882e-06
8.0661336e-10
1.1016005e-06
1.9006879e-06
1.3020314e-07
1.9579246e-06
8.4152518e-08
6.193033e-08
7.7887215e-08
8.3136135e-09
7.535886e-08
3.3541084e-09
7.3554797e-08
2.3931284e-09
7.2008869e-08
2.0510775e-09
7.0639896e-08
1.8164006e-09
6.9417045e-08
1.6225138e-09
6.8315149e-08
1.4620187e-09
6.7311823e-08
1.3312359e-09
6.6389888e-08
1.2232513e-09
6.5536828e-08
1.1318686e-09
6.4743174e-08
1.0530472e-09
6.4001337e-08
9.8429497e-10
6.3305054e-08
9.2385592e-10
6.2649079e-08
8.7037401e-10
6.2028998e-08
8.2275055e-10
6.1441071e-08
7.8008643e-10
6.0882119e-08
7.4164288e-10
6.0349455e-08
7.0676267e-10
5.9840759e-08
6.7496086e-10
5.935404e-08
6.4580002e-10
5.8887571e-08
6.1892978e-10
5.8439771e-08
5.9415863e-10
5.8009263e-08
5.7121478e-10
5.7594835e-08
5.4987727e-10
5.7195335e-08
5.3006948e-10
5.6809726e-08
5.1163898e-10
5.6437103e-08
4.9440562e-10
5.6076614e-08
4.7830567e-10
5.5727438e-08
4.6329396e-10
5.5388867e-08
4.4922315e-10
5.506027e-08
4.3598762e-10
5.4741015e-08
4.2359187e-10
5.4430502e-08
4.1199143e-10
5.4128225e-08
4.0106349e-10
5.3833727e-08
3.9074221e-10
5.3546534e-08
3.8104714e-10
5.3266193e-08
3.7195739e-10
5.2992323e-08
3.6336949e-10
5.272459e-08
3.5522667e-10
5.2462639e-08
3.4755436e-10
5.220612e-08
3.403465e-10
5.1954732e-08
3.335385e-10
5.1708216e-08
3.2707393e-10
5.1466315e-08
3.2094972e-10
5.1228761e-08
3.151815e-10
5.0995298e-08
3.0975371e-10
5.0765717e-08
3.0460212e-10
5.0539833e-08
2.9969586e-10
5.0317442e-08
2.9506179e-10
5.0098334e-08
2.9070491e-10
4.9882326e-08
2.8659259e-10
4.9669264e-08
2.8268182e-10
4.9459003e-08
2.7896605e-10
4.9251377e-08
2.7546921e-10
4.9046217e-08
2.7219692e-10
4.8843384e-08
2.6910981e-10
4.8642762e-08
2.6617539e-10
4.8444225e-08
2.634081e-10
4.8247634e-08
2.608269e-10
4.8052847e-08
2.5843214e-10
4.7859754e-08
2.5618385e-10
4.7668262e-08
2.5405978e-10
4.7478256e-08
2.5208845e-10
4.7289608e-08
2.5028526e-10
4.71022e-08
2.4863939e-10
4.6915938e-08
2.4712005e-10
4.6730731e-08
2.4571801e-10
4.654647e-08
2.4446341e-10
4.6363031e-08
2.4337286e-10
4.618031e-08
2.4241979e-10
4.599822e-08
2.4158078e-10
4.5816662e-08
2.4087543e-10
4.5635515e-08
2.4033077e-10
4.5454657e-08
2.3994523e-10
4.5273991e-08
2.3969111e-10
4.509342e-08
2.3956405e-10
4.4912822e-08
2.395999e-10
4.4732061e-08
2.398148e-10
4.4551024e-08
2.4018108e-10
4.4369603e-08
2.4069033e-10
4.4187661e-08
2.4138171e-10
4.4005044e-08
2.4227515e-10
4.382162e-08
2.4334589e-10
4.3637256e-08
2.4459282e-10
4.345178e-08
2.4606789e-10
4.3265037e-08
2.4774762e-10
4.3076824e-08
2.4969817e-10
4.2894878e-08
2.4138295e-10
4.2723159e-08
2.2781437e-10
4.2560726e-08
2.1549493e-10
4.2406736e-08
2.0429283e-10
4.226043e-08
1.9410024e-10
4.2121124e-08
1.8481194e-10
4.1988235e-08
1.7630045e-10
4.1861253e-08
1.6846293e-10
4.1739717e-08
1.612374e-10
4.1623206e-08
1.5457077e-10
4.1511349e-08
1.4839654e-10
4.1403821e-08
1.4265421e-10
4.1300323e-08
1.3730767e-10
4.1200567e-08
1.323426e-10
4.1104287e-08
1.277313e-10
4.1011188e-08
1.2351205e-10
4.0921084e-08
1.1953841e-10
4.083338e-08
1.1635382e-10
4.0748381e-08
1.1276804e-10
4.0663405e-08
1.1273593e-10
4.0582754e-08
1.0701763e-10
4.0484234e-08
1.306277e-10
8.2296798e-11
2.0947152e-06
1.68856e-11
2.0947014e-06
3.9788799e-11
2.0946844e-06
4.8981642e-11
2.0946657e-06
5.3818836e-11
2.0946447e-06
6.0328539e-11
2.0946211e-06
6.8097569e-11
2.0945944e-06
7.6728856e-11
2.0945644e-06
8.6469722e-11
2.0945304e-06
9.7751332e-11
2.0944919e-06
1.1101409e-10
2.094448e-06
1.2677665e-10
2.0943974e-06
1.4577268e-10
2.0943388e-06
1.6906574e-10
2.0942701e-06
1.9835661e-10
2.0941884e-06
2.3601728e-10
2.0940891e-06
2.8702437e-10
2.0939659e-06
3.5617216e-10
2.0938046e-06
4.6644856e-10
2.0935928e-06
6.1313156e-10
2.0932577e-06
9.704563e-10
2.0927974e-06
1.3339994e-09
2.0914608e-06
3.875113e-09
2.091028e-06
1.2394258e-09
1.1909314e-06
2.8007845e-06
2.2218008e-07
2.926676e-06
1.4583643e-07
1.3827399e-07
1.3497816e-07
1.9171882e-08
1.3059435e-07
7.7379198e-09
1.2746591e-07
5.5215649e-09
1.2478665e-07
4.7303382e-09
1.2241452e-07
4.1885319e-09
1.2029558e-07
3.7414504e-09
1.1838618e-07
3.3714224e-09
1.1664758e-07
3.0698293e-09
1.1505004e-07
2.8207927e-09
1.1357186e-07
2.610053e-09
1.1219662e-07
2.4282867e-09
1.1091118e-07
2.2697359e-09
1.0970468e-07
2.1303524e-09
1.0856804e-07
2.0070129e-09
1.0749361e-07
1.8971865e-09
1.0647489e-07
1.7988013e-09
1.0550638e-07
1.7101503e-09
1.0458342e-07
1.6297216e-09
1.0370199e-07
1.5563921e-09
1.0285864e-07
1.4891552e-09
1.0205036e-07
1.4272034e-09
1.0127443e-07
1.3700889e-09
1.0052846e-07
1.3171907e-09
9.9810337e-08
1.2679984e-09
9.9118076e-08
1.2223302e-09
9.8449877e-08
1.1798383e-09
9.7804174e-08
1.1401086e-09
9.7179488e-08
1.1029912e-09
9.6574402e-08
1.0683806e-09
9.5987684e-08
1.0359414e-09
9.5418242e-08
1.0054293e-09
9.4864983e-08
9.7685077e-10
9.4326869e-08
9.5010499e-10
9.3803021e-08
9.2491179e-10
9.3292645e-08
9.0111799e-10
9.2794927e-08
8.7876583e-10
9.2309076e-08
8.5780827e-10
9.1834435e-08
8.3800976e-10
9.1370424e-08
8.1923834e-10
9.0916428e-08
8.0154976e-10
9.0471844e-08
7.8493137e-10
9.0036146e-08
7.6923573e-10
8.9608887e-08
7.5433307e-10
8.9189622e-08
7.4021448e-10
8.8777888e-08
7.269158e-10
8.837324e-08
7.1440165e-10
8.7975317e-08
7.0252569e-10
8.7583797e-08
6.9121593e-10
8.7198326e-08
6.8053248e-10
8.6818543e-08
6.7048778e-10
8.6444128e-08
6.6100731e-10
8.6074817e-08
6.5199255e-10
8.5710356e-08
6.434273e-10
8.5350459e-08
6.3536606e-10
8.4994834e-08
6.2782221e-10
8.4643238e-08
6.2070611e-10
8.429547e-08
6.1394285e-10
8.3951314e-08
6.0756428e-10
8.3610527e-08
6.016145e-10
8.3272864e-08
5.9609435e-10
8.2938135e-08
5.9091285e-10
8.2606177e-08
5.8601826e-10
8.227679e-08
5.8147507e-10
8.1949756e-08
5.7731942e-10
8.1624869e-08
5.7352669e-10
8.1301962e-08
5.7002643e-10
8.0980884e-08
5.6679677e-10
8.066144e-08
5.6390659e-10
8.0343419e-08
5.6139445e-10
8.0026639e-08
5.5919999e-10
7.971095e-08
5.5726905e-10
7.939618e-08
5.5564594e-10
7.9082118e-08
5.5439317e-10
7.8768555e-08
5.5350758e-10
7.8455321e-08
5.5292563e-10
7.8142248e-08
5.5263679e-10
7.7829125e-08
5.5272328e-10
7.7515717e-08
5.5322279e-10
7.7201826e-08
5.54072e-10
7.6887265e-08
5.5525109e-10
7.6571797e-08
5.5684991e-10
7.6255157e-08
5.5891498e-10
7.5937113e-08
5.6138948e-10
7.5617436e-08
5.6427044e-10
7.5295826e-08
5.6767739e-10
7.4972017e-08
5.7155689e-10
7.4645653e-08
5.7606196e-10
7.4330153e-08
5.5688267e-10
7.4032386e-08
5.255819e-10
7.3750718e-08
4.9716233e-10
7.3483691e-08
4.7132001e-10
7.3229986e-08
4.4780583e-10
7.298842e-08
4.2637757e-10
7.2757979e-08
4.0674143e-10
7.2537782e-08
3.8865989e-10
7.2327029e-08
3.7199002e-10
7.2124991e-08
3.5660956e-10
7.1931022e-08
3.4236525e-10
7.1744559e-08
3.291173e-10
7.1565084e-08
3.1678223e-10
7.13921e-08
3.0532715e-10
7.1225143e-08
2.9468815e-10
7.1063701e-08
2.8495351e-10
7.0907455e-08
2.7578514e-10
7.0755373e-08
2.6843592e-10
7.0607982e-08
2.6015912e-10
7.0460636e-08
2.6008103e-10
7.0320832e-08
2.4682192e-10
7.0149823e-08
3.0163702e-10
1.8947823e-10
2.186124e-06
2.31083e-11
2.1861093e-06
5.448976e-11
2.1860912e-06
6.7111133e-11
2.1860712e-06
7.3739746e-11
2.1860489e-06
8.265247e-11
2.1860237e-06
9.3285061e-11
2.1859954e-06
1.0509096e-10
2.1859634e-06
1.1840868e-10
2.1859274e-06
1.3382862e-10
2.1858864e-06
1.5195245e-10
2.1858397e-06
1.7348788e-10
2.185786e-06
1.9943595e-10
2.1857239e-06
2.3124792e-10
2.185651e-06
2.7124448e-10
2.1855643e-06
3.2266092e-10
2.1854591e-06
3.9228719e-10
2.1853286e-06
4.8665376e-10
2.1851579e-06
6.3712771e-10
2.1849339e-06
8.3718232e-10
2.1845798e-06
1.3245093e-09
2.1840938e-06
1.8199844e-09
2.182683e-06
5.2858861e-09
2.1822201e-06
1.702376e-09
1.3015392e-06
3.6814654e-06
3.2444382e-07
3.9037714e-06
2.1621918e-07
2.4649863e-07
2.0012631e-07
3.5264756e-08
1.9362235e-07
1.4241878e-08
1.889817e-07
1.0162217e-08
1.8500964e-07
8.7023909e-09
1.8149358e-07
7.7045933e-09
1.7835281e-07
6.882226e-09
1.755225e-07
6.20173e-09
1.7294536e-07
5.6469718e-09
1.705773e-07
5.1888471e-09
1.6838617e-07
4.8011804e-09
1.6634765e-07
4.4668144e-09
1.6444224e-07
4.1751416e-09
1.6265387e-07
3.9187193e-09
1.6096907e-07
3.6918117e-09
1.5937649e-07
3.4897695e-09
1.5786651e-07
3.3087837e-09
1.5643095e-07
3.1457105e-09
1.550629e-07
2.9977721e-09
1.537564e-07
2.862896e-09
1.5250632e-07
2.7392329e-09
1.5130822e-07
2.6252969e-09
1.5015806e-07
2.5202552e-09
1.4905228e-07
2.4229731e-09
1.4798776e-07
2.3325109e-09
1.4696157e-07
2.2485257e-09
1.4597102e-07
2.1703832e-09
1.4501381e-07
2.0973244e-09
1.4408773e-07
2.0290679e-09
1.4319069e-07
1.965418e-09
1.4232087e-07
1.905765e-09
1.4147664e-07
1.8496577e-09
1.4065639e-07
1.7971022e-09
1.3985858e-07
1.7479157e-09
1.390819e-07
1.7015878e-09
1.3832519e-07
1.6578345e-09
1.3758722e-07
1.6167289e-09
1.3686684e-07
1.5781865e-09
1.3616308e-07
1.5417788e-09
1.3547505e-07
1.5072614e-09
1.3480187e-07
1.4747324e-09
1.3414263e-07
1.4441702e-09
1.3349656e-07
1.4153066e-09
1.3286299e-07
1.3879032e-09
1.3224126e-07
1.3619408e-09
1.3163069e-07
1.3374847e-09
1.3103063e-07
1.314471e-09
1.3044052e-07
1.2926333e-09
1.298599e-07
1.2718378e-09
1.2928824e-07
1.2521922e-09
1.28725e-07
1.2337206e-09
1.2816972e-07
1.2162876e-09
1.27622e-07
1.1997127e-09
1.2708147e-07
1.1839644e-09
1.2654769e-07
1.1691418e-09
1.2602024e-07
1.1552703e-09
1.2549876e-07
1.1421868e-09
1.2498295e-07
1.1297536e-09
1.2447249e-07
1.118027e-09
1.2396701e-07
1.1070884e-09
1.2346617e-07
1.0969399e-09
1.2296967e-07
1.0874158e-09
1.2247726e-07
1.0784202e-09
1.2198867e-07
1.0700697e-09
1.2150356e-07
1.0624318e-09
1.2102162e-07
1.0554619e-09
1.2054262e-07
1.0490311e-09
1.2006632e-07
1.0430983e-09
1.1959243e-07
1.0377893e-09
1.1912065e-07
1.0331753e-09
1.186507e-07
1.0291469e-09
1.1818237e-07
1.025604e-09
1.1771539e-07
1.0226269e-09
1.1724945e-07
1.0203309e-09
1.1678425e-07
1.0187107e-09
1.1631952e-07
1.0176502e-09
1.1585503e-07
1.0171292e-09
1.1539046e-07
1.0172983e-09
1.1492545e-07
1.0182275e-09
1.1445972e-07
1.0198011e-09
1.1399299e-07
1.021982e-09
1.1352491e-07
1.0249349e-09
1.1305508e-07
1.0287461e-09
1.1258315e-07
1.0333115e-09
1.121088e-07
1.0386253e-09
1.1163157e-07
1.0449068e-09
1.1115107e-07
1.0520589e-09
1.1066677e-07
1.0603637e-09
1.1019858e-07
1.0250709e-09
1.097567e-07
9.6746196e-10
1.093387e-07
9.1515434e-10
1.0894244e-07
8.6758925e-10
1.0856593e-07
8.2430786e-10
1.0820745e-07
7.8486526e-10
1.0786547e-07
7.4872106e-10
1.0753869e-07
7.154379e-10
1.0722593e-07
6.8475289e-10
1.0692609e-07
6.5644134e-10
1.0663824e-07
6.3022132e-10
1.0636152e-07
6.0583517e-10
1.0609517e-07
5.8312903e-10
1.0583846e-07
5.6204263e-10
1.0559069e-07
5.4245832e-10
1.053511e-07
5.2453834e-10
1.0511923e-07
5.0766044e-10
1.0489354e-07
4.9412733e-10
1.0467481e-07
4.7888855e-10
1.0445616e-07
4.7872684e-10
1.0424873e-07
4.5425504e-10
1.0399483e-07
5.5553119e-10
3.484039e-10
2.310111e-06
2.9812587e-11
2.3100951e-06
7.0353943e-11
2.3100755e-06
8.6697096e-11
2.310054e-06
9.5262338e-11
2.3100299e-06
1.0676714e-10
2.3100027e-06
1.2048583e-10
2.3099721e-06
1.3570886e-10
2.3099376e-06
1.5287292e-10
2.3098987e-06
1.727402e-10
2.3098546e-06
1.9608552e-10
2.3098042e-06
2.2381893e-10
2.3097464e-06
2.5722777e-10
2.3096795e-06
2.9817831e-10
2.3096011e-06
3.4965493e-10
2.3095079e-06
4.1581625e-10
2.3093948e-06
5.0539315e-10
2.3092547e-06
6.267675e-10
2.3090716e-06
8.2027693e-10
2.3088313e-06
1.0774095e-09
2.3084521e-06
1.7037571e-09
2.307932e-06
2.3401003e-09
2.3064229e-06
6.7950016e-09
2.3059204e-06
2.2048282e-09
1.4373124e-06
4.5500734e-06
4.4239477e-07
4.8986889e-06
2.9945179e-07
3.8944161e-07
2.7718227e-07
5.753428e-08
2.6816575e-07
2.3258399e-08
2.6173707e-07
1.6590892e-08
2.5623806e-07
1.42014e-08
2.5137126e-07
1.2571399e-08
2.4702383e-07
1.1229651e-08
2.4310592e-07
1.011964e-08
2.3953836e-07
9.2145361e-09
2.3626019e-07
8.4670115e-09
2.3322692e-07
7.8344513e-09
2.3040488e-07
7.288854e-09
2.2776713e-07
6.8128909e-09
2.2529142e-07
6.3944286e-09
2.2295911e-07
6.0241272e-09
2.2075446e-07
5.6944149e-09
2.1866417e-07
5.3990801e-09
2.1667689e-07
5.132989e-09
2.1478305e-07
4.8916119e-09
2.1297439e-07
4.6715577e-09
2.1124381e-07
4.4698111e-09
2.0958516e-07
4.2839449e-09
2.0799283e-07
4.1125876e-09
2.064619e-07
3.9538972e-09
2.0498807e-07
3.8063395e-09
2.0356726e-07
3.6693417e-09
2.0219576e-07
3.5418767e-09
2.0087038e-07
3.4227104e-09
1.9958807e-07
3.311375e-09
1.9834594e-07
3.2075488e-09
1.9714146e-07
3.1102473e-09
1.9597238e-07
3.0187325e-09
1.9483648e-07
2.933005e-09
1.9373163e-07
2.8527705e-09
1.9265601e-07
2.7772041e-09
1.9160801e-07
2.7058391e-09
1.9058595e-07
2.6387876e-09
1.8958822e-07
2.5759146e-09
1.8861347e-07
2.5165288e-09
1.876605e-07
2.4602289e-09
1.8672807e-07
2.4071677e-09
1.8581492e-07
2.357313e-09
1.8492e-07
2.3102316e-09
1.8404237e-07
2.265535e-09
1.8318112e-07
2.2231879e-09
1.8233531e-07
2.1832952e-09
1.8150402e-07
2.145755e-09
1.8068652e-07
2.110137e-09
1.7988214e-07
2.0762206e-09
1.7909015e-07
2.0441771e-09
1.7830983e-07
2.0140478e-09
1.775405e-07
1.9856141e-09
1.7678163e-07
1.9585831e-09
1.7603269e-07
1.9329005e-09
1.7529311e-07
1.9087261e-09
1.7456228e-07
1.8861026e-09
1.738397e-07
1.8647672e-09
1.7312495e-07
1.8444946e-09
1.7241761e-07
1.8253737e-09
1.7171716e-07
1.8075374e-09
1.7102311e-07
1.79099e-09
1.7033506e-07
1.7754638e-09
1.6965268e-07
1.7608014e-09
1.6897556e-07
1.7471899e-09
1.6830325e-07
1.7347406e-09
1.6763533e-07
1.723382e-09
1.6697146e-07
1.7129052e-09
1.6631131e-07
1.7032416e-09
1.6565451e-07
1.6945945e-09
1.650006e-07
1.6870816e-09
1.6434922e-07
1.6805259e-09
1.6370006e-07
1.6747641e-09
1.6305276e-07
1.669925e-09
1.624069e-07
1.6661972e-09
1.6176204e-07
1.6635734e-09
1.6111782e-07
1.6618646e-09
1.6047391e-07
1.6610369e-09
1.5982988e-07
1.6613352e-09
1.5918523e-07
1.6628746e-09
1.5853956e-07
1.6654675e-09
1.5789249e-07
1.6690527e-09
1.5724353e-07
1.6738979e-09
1.5659213e-07
1.6801451e-09
1.5593782e-07
1.687625e-09
1.5528011e-07
1.6963275e-09
1.5461841e-07
1.7066104e-09
1.5395215e-07
1.7183163e-09
1.5328061e-07
1.7319071e-09
1.5263139e-07
1.6742865e-09
1.5201865e-07
1.5802088e-09
1.5143902e-07
1.4947845e-09
1.508895e-07
1.4171026e-09
1.503674e-07
1.3464143e-09
1.4987027e-07
1.281994e-09
1.4939603e-07
1.22296e-09
1.4894287e-07
1.1685978e-09
1.4850914e-07
1.1184786e-09
1.4809335e-07
1.0722362e-09
1.4769416e-07
1.0294101e-09
1.4731042e-07
9.8957885e-10
1.4694105e-07
9.5249115e-10
1.4658505e-07
9.1804893e-10
1.4624145e-07
8.8606012e-10
1.459092e-07
8.5678887e-10
1.4558764e-07
8.2921957e-10
1.4527466e-07
8.0710579e-10
1.4497133e-07
7.8221379e-10
1.4466815e-07
7.8191077e-10
1.4438053e-07
7.4187813e-10
1.4402834e-07
9.0771763e-10
5.6871805e-10
2.4685239e-06
3.7129833e-11
2.4685065e-06
8.7700049e-11
2.4684851e-06
1.081401e-10
2.4684615e-06
1.1882759e-10
2.4684351e-06
1.3316549e-10
2.4684053e-06
1.5025395e-10
2.4683718e-06
1.6920324e-10
2.4683342e-06
1.9055709e-10
2.4682916e-06
2.1526546e-10
2.4682434e-06
2.4429139e-10
2.4681885e-06
2.7876431e-10
2.4681254e-06
3.2028187e-10
2.4680524e-06
3.7116017e-10
2.467967e-06
4.3510293e-10
2.4678655e-06
5.1726855e-10
2.4677424e-06
6.284912e-10
2.4675901e-06
7.791507e-10
2.467391e-06
1.0193079e-09
2.4671302e-06
1.3382356e-09
2.4667189e-06
2.1150796e-09
2.4661553e-06
2.9036607e-09
2.4645211e-06
8.4291878e-09
2.4639684e-06
2.7575378e-09
1.6024978e-06
5.411544e-06
5.8190106e-07
5.9192857e-06
4.0036413e-07
5.7097854e-07
3.7063619e-07
8.726222e-08
3.5856605e-07
3.5328534e-08
3.4997328e-07
2.5183669e-08
3.4262829e-07
2.1546381e-08
3.3612891e-07
1.9070784e-08
3.3032286e-07
1.70357e-08
3.2508995e-07
1.5352552e-08
3.2032469e-07
1.3979797e-08
3.1594581e-07
1.2845888e-08
3.1189392e-07
1.1886339e-08
3.0812411e-07
1.105867e-08
3.0460043e-07
1.0336572e-08
3.0129319e-07
9.7016636e-09
2.981775e-07
9.1398141e-09
2.9523236e-07
8.6395634e-09
2.9243994e-07
8.1914976e-09
2.897851e-07
7.7878236e-09
2.8725504e-07
7.4216741e-09
2.8483871e-07
7.087887e-09
2.8252663e-07
6.7818931e-09
2.8031057e-07
6.5000048e-09
2.7818304e-07
6.2401216e-09
2.7613747e-07
5.999463e-09
2.7416811e-07
5.775699e-09
2.7226951e-07
5.5679417e-09
2.7043674e-07
5.3746435e-09
2.6866552e-07
5.1939395e-09
2.6695178e-07
5.0251065e-09
2.6529168e-07
4.8676532e-09
2.6368183e-07
4.7201017e-09
2.6211923e-07
4.5813298e-09
2.6060091e-07
4.4513245e-09
2.5912403e-07
4.3296449e-09
2.5768619e-07
4.2150524e-09
2.5628519e-07
4.1068337e-09
2.5491883e-07
4.0051478e-09
2.5358495e-07
3.909795e-09
2.5228174e-07
3.8197383e-09
2.5100761e-07
3.7343646e-09
2.4976088e-07
3.6538957e-09
2.485399e-07
3.5782862e-09
2.4734325e-07
3.506887e-09
2.4616967e-07
3.439109e-09
2.4501797e-07
3.3748921e-09
2.4388687e-07
3.3143935e-09
2.4277516e-07
3.2574626e-09
2.4168185e-07
3.2034526e-09
2.4060604e-07
3.1520257e-09
2.3954679e-07
3.1034351e-09
2.3850309e-07
3.0577461e-09
2.3747407e-07
3.0146314e-09
2.36459e-07
2.9736483e-09
2.3545719e-07
2.9347104e-09
2.3446786e-07
2.8980573e-09
2.3349021e-07
2.8637558e-09
2.3252357e-07
2.8314119e-09
2.3156738e-07
2.8006833e-09
2.3062105e-07
2.7717002e-09
2.2968392e-07
2.7446639e-09
2.2875533e-07
2.7195832e-09
2.2783474e-07
2.6960558e-09
2.269217e-07
2.6738408e-09
2.2601567e-07
2.6532181e-09
2.2511605e-07
2.6343577e-09
2.2422228e-07
2.6171537e-09
2.233339e-07
2.6012907e-09
2.2245048e-07
2.5866627e-09
2.215715e-07
2.5735755e-09
2.2069637e-07
2.5622092e-09
2.198246e-07
2.5522983e-09
2.1895577e-07
2.5435944e-09
2.180894e-07
2.5362902e-09
2.1722492e-07
2.5306724e-09
2.1636177e-07
2.5267317e-09
2.1549945e-07
2.5241825e-09
2.1463751e-07
2.5229719e-09
2.1377538e-07
2.5234699e-09
2.129124e-07
2.525853e-09
2.1204803e-07
2.529838e-09
2.1118175e-07
2.5353309e-09
2.1031291e-07
2.5427369e-09
2.0944078e-07
2.5522729e-09
2.0856473e-07
2.5636832e-09
2.076841e-07
2.5769514e-09
2.0679809e-07
2.5926207e-09
2.0590596e-07
2.6104536e-09
2.0500671e-07
2.6311535e-09
2.0413733e-07
2.5436627e-09
2.0331677e-07
2.4007705e-09
2.0254054e-07
2.2710138e-09
2.0180463e-07
2.1530123e-09
2.0110542e-07
2.0456297e-09
2.0043965e-07
1.9477657e-09
1.9980452e-07
1.858082e-09
1.9919763e-07
1.7754939e-09
1.9861675e-07
1.699351e-09
1.9805989e-07
1.6290978e-09
1.9752527e-07
1.5640347e-09
1.9701133e-07
1.5035206e-09
1.9651664e-07
1.4471739e-09
1.9603985e-07
1.3948463e-09
1.9557966e-07
1.3462461e-09
1.9513468e-07
1.301773e-09
1.9470401e-07
1.2598856e-09
1.9428484e-07
1.2262731e-09
1.938786e-07
1.1884565e-09
1.9347258e-07
1.1879272e-09
1.9308741e-07
1.1270514e-09
1.9261563e-07
1.3794941e-09
8.6375036e-10
2.6637233e-06
4.5210481e-11
2.6637041e-06
1.0689517e-10
2.6636803e-06
1.3190346e-10
2.6636542e-06
1.4494584e-10
2.663625e-06
1.6241773e-10
2.663592e-06
1.8322984e-10
2.6635549e-06
2.0629076e-10
2.6635132e-06
2.3226227e-10
2.6634662e-06
2.6230191e-10
2.6634129e-06
2.9757982e-10
2.6633522e-06
3.3946588e-10
2.6632826e-06
3.8989784e-10
2.663202e-06
4.5168483e-10
2.6631078e-06
5.2931901e-10
2.662996e-06
6.2905325e-10
2.6628605e-06
7.6402645e-10
2.6626929e-06
9.4679757e-10
2.6624741e-06
1.2380844e-09
2.6621877e-06
1.624655e-09
2.6617365e-06
2.5662182e-09
2.6611191e-06
3.5211115e-09
2.6593299e-06
1.0218337e-08
2.6587144e-06
3.3730656e-09
1.8017592e-06
6.2684993e-06
7.494396e-07
6.9716053e-06
5.2464993e-07
7.9576821e-07
4.8579496e-07
1.2611719e-07
4.6996064e-07
5.1162852e-08
4.5871407e-07
3.6430237e-08
4.4910838e-07
3.1152069e-08
4.4060991e-07
2.7569255e-08
4.330173e-07
2.4628311e-08
4.2617318e-07
2.2196671e-08
4.1994003e-07
2.0212952e-08
4.142118e-07
1.8574111e-08
4.0891095e-07
1.7187188e-08
4.0397883e-07
1.5990791e-08
3.9936854e-07
1.494687e-08
3.9504129e-07
1.4028905e-08
3.9096457e-07
1.3216537e-08
3.8711089e-07
1.2493249e-08
3.8345693e-07
1.184545e-08
3.7998289e-07
1.1261871e-08
3.7667198e-07
1.0732585e-08
3.7350975e-07
1.0250116e-08
3.7048379e-07
9.8078538e-09
3.6758333e-07
9.4004609e-09
3.6479858e-07
9.0248721e-09
3.6212096e-07
8.6770869e-09
3.5954292e-07
8.3537331e-09
3.5705736e-07
8.0534992e-09
3.5465784e-07
7.7741631e-09
3.5233874e-07
7.5130394e-09
3.5009479e-07
7.2690628e-09
3.4792092e-07
7.0415189e-09
3.4581273e-07
6.8282938e-09
3.437663e-07
6.6277616e-09
3.4177774e-07
6.4398824e-09
3.3984336e-07
6.2640287e-09
3.3795998e-07
6.0984278e-09
3.3612477e-07
5.9420408e-09
3.3433484e-07
5.7950817e-09
3.3258737e-07
5.6572695e-09
3.3087998e-07
5.5271223e-09
3.292106e-07
5.4037478e-09
3.2757704e-07
5.2874512e-09
3.2597716e-07
5.1781725e-09
3.2440906e-07
5.0749855e-09
3.2287113e-07
4.9770389e-09
3.2136178e-07
4.8842359e-09
3.1987938e-07
4.796801e-09
3.1842232e-07
4.7145226e-09
3.1698929e-07
4.6364747e-09
3.1557916e-07
4.5621638e-09
3.1419065e-07
4.4919462e-09
3.1282247e-07
4.4259204e-09
3.1147348e-07
4.3636201e-09
3.1014272e-07
4.3044072e-09
3.0882928e-07
4.2481511e-09
3.0753215e-07
4.1951933e-09
3.0625027e-07
4.1456343e-09
3.0498277e-07
4.0989114e-09
3.0372892e-07
4.0545285e-09
3.0248796e-07
4.0126669e-09
3.01259e-07
3.9736177e-09
3.0004119e-07
3.9373969e-09
2.9883382e-07
3.9034282e-09
2.976363e-07
3.8713606e-09
2.9644792e-07
3.8415922e-09
2.9526791e-07
3.8143716e-09
2.9409551e-07
3.7895489e-09
2.9293013e-07
3.7666707e-09
2.9177122e-07
3.7455802e-09
2.9061808e-07
3.7267163e-09
2.8946994e-07
3.7103418e-09
2.8832616e-07
3.6960773e-09
2.871862e-07
3.683562e-09
2.8604941e-07
3.6730716e-09
2.8491507e-07
3.665021e-09
2.837824e-07
3.6593995e-09
2.8265079e-07
3.6557958e-09
2.8151963e-07
3.6541313e-09
2.8038816e-07
3.6549393e-09
2.7925553e-07
3.6584772e-09
2.7812103e-07
3.6643377e-09
2.7698398e-07
3.6723836e-09
2.7584352e-07
3.6831996e-09
2.7469869e-07
3.6971015e-09
2.7354865e-07
3.7137207e-09
2.7239257e-07
3.7330329e-09
2.7122937e-07
3.7558243e-09
2.7005807e-07
3.7817533e-09
2.6887738e-07
3.8118411e-09
2.6773586e-07
3.6851814e-09
2.666584e-07
3.4782334e-09
2.6563912e-07
3.2902943e-09
2.6467276e-07
3.1193715e-09
2.6375457e-07
2.9638217e-09
2.6288028e-07
2.8220545e-09
2.6204623e-07
2.692133e-09
2.6124923e-07
2.5724872e-09
2.6048641e-07
2.462177e-09
2.597551e-07
2.3603997e-09
2.59053e-07
2.2661406e-09
2.5837805e-07
2.17847e-09
2.5772839e-07
2.0968359e-09
2.5710221e-07
2.0210244e-09
2.5649784e-07
1.9506132e-09
2.5591344e-07
1.8861784e-09
2.5534783e-07
1.8254896e-09
2.5479734e-07
1.7767681e-09
2.5426381e-07
1.7219853e-09
2.5373063e-07
1.7211074e-09
2.5322481e-07
1.6328651e-09
2.5260511e-07
1.999195e-09
1.251237e-09
2.8986183e-06
5.4228837e-11
2.8985968e-06
1.283673e-10
2.8985702e-06
1.585298e-10
2.8985409e-06
1.7421512e-10
2.8985081e-06
1.9519173e-10
2.8984712e-06
2.2016306e-10
2.8984297e-06
2.4780937e-10
2.898383e-06
2.789239e-10
2.8983304e-06
3.1489621e-10
2.8982709e-06
3.5712658e-10
2.8982031e-06
4.0725112e-10
2.8981254e-06
4.6758407e-10
2.8980356e-06
5.4148027e-10
2.8979306e-06
6.3430458e-10
2.8978061e-06
7.5351987e-10
2.8976553e-06
9.1481543e-10
2.897469e-06
1.1331492e-09
2.897226e-06
1.4810354e-09
2.8969083e-06
1.942376e-09
2.8964086e-06
3.0659869e-09
2.8957254e-06
4.2043061e-09
2.8937474e-06
1.2196255e-08
2.8930543e-06
4.0662548e-09
2.0401854e-06
7.1213681e-06
9.5215599e-07
8.0596347e-06
6.7900393e-07
1.0689203e-06
6.2892004e-07
1.7620109e-07
6.0842323e-07
7.1659658e-08
5.9390887e-07
5.0944596e-08
5.8152375e-07
4.3537193e-08
5.7056762e-07
3.8525385e-08
5.6077767e-07
3.4418264e-08
5.5195084e-07
3.1023496e-08
5.4391051e-07
2.8253285e-08
5.365204e-07
2.5964223e-08
5.2968075e-07
2.4026838e-08
5.2331614e-07
2.23554e-08
5.1736626e-07
2.0896743e-08
5.1178126e-07
1.9613905e-08
5.0651924e-07
1.8478562e-08
5.0154476e-07
1.7467724e-08
4.9682778e-07
1.656243e-08
4.9234272e-07
1.5746936e-08
4.8806792e-07
1.5007378e-08
4.8398476e-07
1.4333281e-08
4.8007721e-07
1.3715408e-08
4.7633138e-07
1.3146289e-08
4.7273465e-07
1.26216e-08
4.6927596e-07
1.2135777e-08
4.6594559e-07
1.1684102e-08
4.6273439e-07
1.1264704e-08
4.5963405e-07
1.0874498e-08
4.5663734e-07
1.0509748e-08
4.5373747e-07
1.0168936e-08
4.5092793e-07
9.8510598e-09
4.4820303e-07
9.5531976e-09
4.4555772e-07
9.2730718e-09
4.42987e-07
9.0105975e-09
4.4048612e-07
8.7649117e-09
4.3805098e-07
8.5335638e-09
4.3567793e-07
8.3150907e-09
4.3336324e-07
8.1097688e-09
4.311033e-07
7.9172169e-09
4.2889503e-07
7.7353894e-09
4.2673575e-07
7.5630301e-09
4.2462266e-07
7.4005442e-09
4.2255297e-07
7.2478556e-09
4.2052427e-07
7.103688e-09
4.1853446e-07
6.9668519e-09
4.1658149e-07
6.8371983e-09
4.1466326e-07
6.7150361e-09
4.127777e-07
6.6000797e-09
4.1092313e-07
6.4910476e-09
4.0909805e-07
6.3872424e-09
4.0730085e-07
6.2891485e-09
4.0552986e-07
6.1969091e-09
4.037836e-07
6.1098831e-09
4.0206082e-07
6.0271814e-09
4.0036036e-07
5.9486122e-09
3.9868091e-07
5.8746469e-09
3.9702111e-07
5.8054315e-09
3.9537983e-07
5.7401895e-09
3.9375613e-07
5.6782257e-09
3.9214902e-07
5.6197835e-09
3.9055737e-07
5.5652697e-09
3.8898005e-07
5.5147122e-09
3.8741617e-07
5.4673129e-09
3.8586495e-07
5.4225767e-09
3.8432549e-07
5.3810513e-09
3.8279677e-07
5.3430877e-09
3.8127784e-07
5.3084821e-09
3.7976791e-07
5.2766034e-09
3.7826626e-07
5.2472284e-09
3.7677201e-07
5.2209648e-09
3.7528417e-07
5.1981849e-09
3.7380188e-07
5.1783637e-09
3.7232445e-07
5.1609953e-09
3.7085106e-07
5.1464603e-09
3.6938074e-07
5.1353401e-09
3.6791252e-07
5.1276238e-09
3.6644558e-07
5.1227381e-09
3.6497914e-07
5.1205708e-09
3.6351221e-07
5.121865e-09
3.620437e-07
5.126984e-09
3.6057268e-07
5.1353616e-09
3.5909826e-07
5.1468039e-09
3.5761933e-07
5.1621277e-09
3.5613466e-07
5.1817772e-09