/*--------------------------------*- C++ -*----------------------------------*\
  =========                 |
  \\      /  F ield         | OpenFOAM: The Open Source CFD Toolbox
   \\    /   O peration     | Website:  https://openfoam.org
    \\  /    A nd           | Version:  12
     \\/     M anipulation  |
\*---------------------------------------------------------------------------*/
FoamFile
{
    format      ascii;
    class       volVectorField;
    location    "200";
    object      U;
}
// * * * * * * * * * * * * * * * * * * * * * * * * * * * * * * * * * * * * * //

dimensions      [0 1 -1 0 0 0 0];

internalField   nonuniform List<vector> 
7480
(
(0.98683293 0.00053306006 1.0343782e-16)
(0.97532645 0.0012564089 0)
(0.9625679 0.0017337924 0)
(0.94883142 0.0020078675 0)
(0.93434964 0.0021848592 0)
(0.91932623 0.0023138816 0)
(0.90383863 0.002416425 0)
(0.8879121 0.0025130534 0)
(0.87159014 0.0026184575 0)
(0.85499916 0.002740107 0)
(0.83833274 0.0028783865 0)
(0.8218712 0.003026914 0)
(0.8059955 0.0031613061 0)
(0.79116365 0.0032317918 0)
(0.77780365 0.0031634855 0)
(0.76616635 0.0028594268 0)
(0.75626677 0.0022121307 0)
(0.74790097 0.0028557099 0)
(0.74085922 0.0018655787 -5.1325578e-17)
(0.73483263 0.0010563873 7.6612119e-18)
(0.72959037 0.0014409009 -1.1404224e-16)
(0.72493125 0.00076288938 0)
(0.72067206 0.00027970566 0)
(0.7166418 0.0001044575 0)
(0.712761 -1.4890108e-05 0)
(0.70899939 -5.6340826e-05 0)
(0.70533773 -4.1561819e-05 0)
(0.70177398 -9.0643731e-06 0)
(0.69831286 2.7385225e-05 0)
(0.69496352 5.9719199e-05 0)
(0.69172971 8.4564285e-05 0)
(0.68860255 0.00010223119 0)
(0.68556449 0.00011124234 0)
(0.68255233 0.00011321338 0)
(0.67952403 0.00011533183 0)
(0.67647462 0.00011982149 0)
(0.67342226 0.00012472546 0)
(0.67040268 0.00012731211 0)
(0.66745235 0.00012607302 0)
(0.66459689 0.00012127055 0)
(0.6618473 0.00011422261 0)
(0.65920401 0.00010624469 0)
(0.65666151 9.8278915e-05 0)
(0.65420851 9.0352278e-05 0)
(0.65183383 8.1966101e-05 0)
(0.64948867 7.0426263e-05 0)
(0.64709526 4.7428927e-05 0)
(0.64452239 -2.9605893e-06 0)
(0.64155778 -7.8681044e-05 0)
(0.63800105 -0.00014923033 0)
(0.63405347 -0.00016837196 0)
(0.6301986 -0.00015216533 0)
(0.62671211 -0.00011825846 0)
(0.62365198 -9.2152883e-05 0)
(0.62092344 -7.3467816e-05 0)
(0.61841765 -5.8220744e-05 0)
(0.61604849 -4.3760077e-05 0)
(0.61374285 -3.0436602e-05 0)
(0.61151235 -1.9213858e-05 0)
(0.60934287 -1.0140454e-05 0)
(0.60722538 -2.6793286e-06 0)
(0.60514854 3.6912038e-06 0)
(0.60310202 8.9715197e-06 0)
(0.60107875 1.3170324e-05 0)
(0.59907309 1.6385389e-05 0)
(0.59708056 1.8715499e-05 0)
(0.59509928 2.0265348e-05 0)
(0.59312831 2.1169834e-05 0)
(0.59116599 2.1566458e-05 0)
(0.5892103 2.1559655e-05 0)
(0.58725938 2.1230657e-05 0)
(0.58531148 2.0637149e-05 0)
(0.5833651 1.9818894e-05 0)
(0.58141887 1.8818702e-05 0)
(0.57947135 1.7669497e-05 0)
(0.57752119 1.6397673e-05 0)
(0.57556705 1.5124904e-05 0)
(0.57360753 1.3955133e-05 0)
(0.57164146 1.2830517e-05 0)
(0.56966759 1.1710516e-05 0)
(0.56768489 1.0565697e-05 0)
(0.56569308 9.3902388e-06 0)
(0.56369318 8.1754323e-06 0)
(0.56170051 7.2711691e-06 0)
(0.55986734 1.8045532e-05 0)
(0.55934359 0.00027253778 0)
(0.57009547 0.00038255231 0)
(0.5755675 0.00035064344 0)
(0.57886054 0.00029534546 0)
(0.58009908 0.00023249793 0)
(0.58027411 0.00018248268 0)
(0.57985637 0.00014384256 0)
(0.57910566 0.00011360052 0)
(0.57815123 9.0200888e-05 0)
(0.57707221 7.2853409e-05 0)
(0.57589838 6.034731e-05 0)
(0.57469764 5.1769728e-05 0)
(0.57335783 8.2345484e-05 6.8562855e-20)
(0.57221014 3.7947159e-05 -1.4911249e-19)
(0.56992368 5.9846986e-05 -1.0537665e-17)
(0.99589766 0.0022870721 0)
(0.99632237 0.0034462363 0)
(0.99686869 0.0040221949 0)
(0.99714064 0.0040890627 0)
(0.99714519 0.0041210241 0)
(0.99699817 0.0041171002 0)
(0.99673248 0.0040954896 0)
(0.99630802 0.0040493406 0)
(0.99567155 0.0039736638 0)
(0.9947289 0.0038551227 0)
(0.99335315 0.0036767949 0)
(0.99136895 0.0034244389 0)
(0.98854798 0.00309069 0)
(0.98463264 0.0026883392 0)
(0.97940714 0.0022647283 0)
(0.97279497 0.0018961447 0)
(0.96486966 0.0016019512 0)
(0.95584565 0.0013479 0)
(0.94593914 0.0013444427 0)
(0.93542258 0.0012583067 0)
(0.92457176 0.001133716 0)
(0.9137106 0.001123252 0)
(0.9030966 0.0010909525 0)
(0.89293407 0.0010480221 0)
(0.8833337 0.0010083619 0)
(0.8743481 0.00093820819 0)
(0.86600013 0.00085146622 0)
(0.85827102 0.00076823892 0)
(0.85110547 0.00069367814 0)
(0.84442388 0.00062937356 0)
(0.83814104 0.00057695304 0)
(0.83218122 0.00053706869 0)
(0.82647187 0.00051021937 0)
(0.8209928 0.0004938373 0)
(0.81573619 0.00048083611 0)
(0.81068973 0.00046590029 0)
(0.80583527 0.00044746265 0)
(0.80114996 0.00042602377 0)
(0.79660996 0.00040260277 0)
(0.7921992 0.00037858766 0)
(0.78790954 0.00035532718 0)
(0.78373833 0.00033355106 0)
(0.77968402 0.00031361789 0)
(0.77574389 0.00029563208 0)
(0.77191534 0.00028045889 0)
(0.76820709 0.00027057173 0)
(0.76463982 0.00026999515 0)
(0.76125974 0.00028363421 0)
(0.75815669 0.00031035016 0)
(0.75540119 0.00033339286 0)
(0.75283185 0.00033148746 0)
(0.75017699 0.00030584427 0)
(0.74733271 0.00026897806 0)
(0.74432734 0.00023597202 0)
(0.74125336 0.00021164677 0)
(0.73818266 0.0001951602 0)
(0.73514831 0.00018399049 0)
(0.73215704 0.0001748287 0)
(0.72921607 0.00016579358 0)
(0.72632944 0.00015739456 0)
(0.72349832 0.00014969197 0)
(0.72072096 0.00014272068 0)
(0.71799446 0.00013637306 0)
(0.71531638 0.00013057038 0)
(0.71268363 0.00012528176 0)
(0.71009329 0.00012039944 0)
(0.70754411 0.00011580531 0)
(0.70503505 0.00011147932 0)
(0.70256463 0.00010742766 0)
(0.70013126 0.00010363178 0)
(0.69773347 0.00010007809 0)
(0.69536983 9.674532e-05 0)
(0.69303905 9.3605249e-05 0)
(0.69073999 9.0653031e-05 0)
(0.68847148 8.7874163e-05 0)
(0.68623249 8.5252772e-05 0)
(0.68402202 8.2778978e-05 0)
(0.681839 8.0414112e-05 0)
(0.67968257 7.8146472e-05 0)
(0.6775517 7.6002432e-05 0)
(0.67544541 7.3948645e-05 0)
(0.67336315 7.1964518e-05 0)
(0.67130402 6.9922077e-05 0)
(0.66926856 6.6441527e-05 0)
(0.66725519 4.365057e-05 0)
(0.66499972 -0.00013184976 0)
(0.66050382 -0.00016571891 0)
(0.65866683 -8.6203643e-05 0)
(0.65725452 -4.4098112e-05 0)
(0.65594674 -9.8230009e-06 0)
(0.65452035 8.7747584e-06 0)
(0.65297398 1.864554e-05 0)
(0.6513515 2.3681435e-05 0)
(0.64968655 2.6493716e-05 0)
(0.64800458 2.8153973e-05 0)
(0.64630135 2.8708529e-05 0)
(0.64462639 2.9139494e-05 0)
(0.6428384 3.1356884e-05 0)
(0.6413082 3.1357543e-05 0)
(0.63850156 3.3656921e-05 0)
(0.99617322 0.0021847989 0)
(0.99654094 0.0028425519 0)
(0.99711242 0.0030010049 0)
(0.99757808 0.0029795311 0)
(0.99788963 0.0029840649 0)
(0.99814083 0.0030081471 0)
(0.99837973 0.0030363028 0)
(0.99860521 0.0030652428 0)
(0.99881325 0.0030964764 0)
(0.9990067 0.0031284214 0)
(0.99918821 0.0031571506 0)
(0.99935258 0.0031799411 0)
(0.99948407 0.0031944351 0)
(0.99955789 0.0032010976 0)
(0.99954032 0.0032056651 0)
(0.99938699 0.0032084991 0)
(0.99904124 0.0032031804 0)
(0.99844744 0.0031666955 0)
(0.9975237 0.0030933041 0)
(0.99617449 0.0030205857 0)
(0.99426624 0.0029151253 0)
(0.99160949 0.0027957991 0)
(0.98810468 0.0026833703 0)
(0.98370107 0.0025556063 0)
(0.97838857 0.0024115514 0)
(0.97220786 0.0022724699 0)
(0.96522534 0.0021263217 0)
(0.95764826 0.0019653397 0)
(0.94968001 0.0018056467 0)
(0.94152121 0.0016516717 0)
(0.93336143 0.0015052776 0)
(0.92535703 0.0013678933 0)
(0.91762582 0.0012458855 0)
(0.91023606 0.0011445907 0)
(0.90320531 0.0010607082 0)
(0.89651221 0.00098983906 0)
(0.89011584 0.00092885724 0)
(0.88396826 0.00087523379 0)
(0.87802939 0.00082654828 0)
(0.87227271 0.00078077463 0)
(0.86668287 0.00073677199 0)
(0.86125147 0.00069445273 0)
(0.85596918 0.00065430845 0)
(0.85082724 0.00061640748 0)
(0.84582205 0.00058151603 0)
(0.84096556 0.00055124391 0)
(0.83627297 0.00052718228 0)
(0.83176731 0.00051241489 0)
(0.82748382 0.00050527391 0)
(0.82344791 0.00049966572 0)
(0.8196155 0.00048436726 0)
(0.81589027 0.00045916841 0)
(0.81219888 0.00042992886 0)
(0.80850502 0.00040173642 0)
(0.804812 0.00037643825 0)
(0.80114014 0.00035427609 0)
(0.79750856 0.000335675 0)
(0.79393012 0.00031897429 0)
(0.7904135 0.00030286356 0)
(0.786962 0.00028785599 0)
(0.78357564 0.00027389736 0)
(0.78025421 0.00026101907 0)
(0.77699709 0.00024913965 0)
(0.77380351 0.0002381305 0)
(0.77067111 0.00022791974 0)
(0.76759769 0.00021832085 0)
(0.76458242 0.00020918497 0)
(0.76162357 0.00020050636 0)
(0.75871918 0.00019228833 0)
(0.75586755 0.00018449754 0)
(0.75306716 0.00017711472 0)
(0.75031651 0.00017011147 0)
(0.74761415 0.00016344785 0)
(0.74495879 0.00015711535 0)
(0.74234908 0.00015109087 0)
(0.73978384 0.00014534992 0)
(0.73726192 0.00013986374 0)
(0.73478212 0.00013459786 0)
(0.73234345 0.00012956488 0)
(0.72994472 0.00012477558 0)
(0.72758478 0.00012017613 0)
(0.72526284 0.00011575366 0)
(0.7229774 0.00011150635 0)
(0.72072478 0.00010623673 0)
(0.71847373 9.0598226e-05 0)
(0.71585857 7.5588408e-06 0)
(0.71115303 -5.1236327e-05 0)
(0.70800844 -2.1895248e-05 0)
(0.70546187 1.0378727e-05 0)
(0.70329881 3.5980725e-05 0)
(0.70124388 5.0141982e-05 0)
(0.69921099 5.7001812e-05 0)
(0.69718112 5.9754033e-05 0)
(0.69515657 6.0273312e-05 0)
(0.69314691 5.9580714e-05 0)
(0.69113872 5.8011488e-05 0)
(0.68917657 5.7282198e-05 0)
(0.68710863 5.5370655e-05 0)
(0.68533662 6.0306631e-05 0)
(0.68216177 5.4889777e-05 4.0187457e-20)
(0.99636938 0.0020429006 0)
(0.99666473 0.0026450616 0)
(0.99717672 0.0029790153 0)
(0.9976301 0.0031497942 0)
(0.99794949 0.0032869408 0)
(0.99820804 0.0034021013 0)
(0.99845412 0.0034845076 0)
(0.99869054 0.0035396724 0)
(0.99891398 0.0035743089 0)
(0.99912843 0.0035927304 0)
(0.99933873 0.003582672 0)
(0.99954537 0.0035471245 0)
(0.99974201 0.0034778579 0)
(0.99991864 0.003374094 0)
(1.0000652 0.0032371003 0)
(1.0001751 0.0030766472 0)
(1.0002459 0.0029080812 0)
(1.0002873 0.0027595567 0)
(1.0003043 0.002625511 0)
(1.0002972 0.0025306328 0)
(1.0002716 0.0024767017 0)
(1.0002108 0.0024376746 0)
(1.0000883 0.0024145795 0)
(0.99987139 0.0024015073 0)
(0.99950831 0.0023923635 0)
(0.99892546 0.0023810564 0)
(0.99804244 0.0023654629 0)
(0.99668398 0.0023437657 0)
(0.99471176 0.0023117235 0)
(0.99201526 0.0022673812 0)
(0.98851703 0.0022116514 0)
(0.98419114 0.0021496313 0)
(0.97906096 0.0020732585 0)
(0.97327499 0.0019764567 0)
(0.96699915 0.0018686473 0)
(0.96041059 0.0017545689 0)
(0.95367651 0.0016378869 0)
(0.94693646 0.0015230986 0)
(0.9402921 0.0014167088 0)
(0.93379812 0.0013217591 0)
(0.92746962 0.0012371437 0)
(0.92129747 0.0011617778 0)
(0.91526588 0.0010946479 0)
(0.90936465 0.0010340361 0)
(0.9035902 0.00097818456 0)
(0.89794786 0.0009262218 0)
(0.89244889 0.0008788139 0)
(0.88710789 0.00083708689 0)
(0.88193849 0.00080271946 0)
(0.87694835 0.00077315538 0)
(0.87212808 0.00074260265 0)
(0.86744954 0.00070811209 0)
(0.86288476 0.00067132034 0)
(0.85840922 0.00063476476 0)
(0.85400795 0.00060007072 0)
(0.84967654 0.00056795615 0)
(0.84541809 0.00053914613 0)
(0.8412368 0.00051244574 0)
(0.83713376 0.00048669483 0)
(0.83310854 0.00046236668 0)
(0.82916133 0.00043963089 0)
(0.82529215 0.00041855589 0)
(0.8215002 0.00039888705 0)
(0.8177845 0.00038046567 0)
(0.81414267 0.00036323685 0)
(0.81057285 0.00034697059 0)
(0.80707401 0.00033150524 0)
(0.80364355 0.00031684655 0)
(0.80027922 0.0003029749 0)
(0.79697915 0.00028982697 0)
(0.79374167 0.00027736758 0)
(0.79056502 0.00026555371 0)
(0.78744752 0.00025432691 0)
(0.78438761 0.00024366816 0)
(0.78138366 0.0002335398 0)
(0.77843422 0.00022390271 0)
(0.7755379 0.00021475326 0)
(0.77269323 0.00020605513 0)
(0.76989898 0.00019777233 0)
(0.76715376 0.00018990694 0)
(0.7644562 0.00018238213 0)
(0.76180532 0.00017517747 0)
(0.75919953 0.00016829881 0)
(0.75663548 0.00016097643 0)
(0.75408986 0.00014632527 0)
(0.75134297 7.6593182e-05 0)
(0.74758536 1.8625466e-05 0)
(0.74440472 3.364221e-05 0)
(0.74158703 5.5259182e-05 0)
(0.73907396 7.5189021e-05 0)
(0.73669832 8.7129349e-05 0)
(0.73438044 9.3080614e-05 0)
(0.73208935 9.5120793e-05 0)
(0.72981776 9.4628834e-05 0)
(0.72757057 9.2934122e-05 0)
(0.72533242 9.0447441e-05 0)
(0.72314693 8.9441814e-05 0)
(0.72085837 8.6149278e-05 0)
(0.71889319 9.6082559e-05 0)
(0.7154054 8.1706349e-05 -3.3229129e-20)
(0.99655568 0.0019822413 0)
(0.99680341 0.0025641738 0)
(0.99724927 0.0029217633 0)
(0.99766155 0.0030774633 0)
(0.99796304 0.0031643926 0)
(0.99820934 0.0032259534 0)
(0.99844597 0.0032634223 0)
(0.99867671 0.0032823044 0)
(0.9988972 0.0032905257 0)
(0.99910996 0.0032875318 0)
(0.99931936 0.0032729341 0)
(0.99952557 0.0032394209 0)
(0.99972283 0.0031827733 0)
(0.99990275 0.0031031854 0)
(1.0000569 0.0030072005 0)
(1.0001782 0.0029051584 0)
(1.000265 0.0028101809 0)
(1.0003272 0.0027390217 0)
(1.0003719 0.0026831152 0)
(1.0004046 0.0026477027 0)
(1.0004375 0.0026258273 0)
(1.0004701 0.002602246 0)
(1.0005003 0.0025806455 0)
(1.0005311 0.0025596748 0)
(1.0005607 0.0025375533 0)
(1.0005853 0.0025148926 0)
(1.0005997 0.002491748 0)
(1.0005938 0.002467676 0)
(1.0005509 0.0024428898 0)
(1.0004452 0.0024177072 0)
(1.000236 0.0023919915 0)
(0.99986124 0.0023642101 0)
(0.99924733 0.0023342996 0)
(0.99824212 0.002302335 0)
(0.99671067 0.0022652016 0)
(0.99453586 0.0022203073 0)
(0.9916372 0.0021675025 0)
(0.98797977 0.0021050059 0)
(0.98360632 0.0020256512 0)
(0.97864159 0.0019312241 0)
(0.97323447 0.0018298829 0)
(0.96753805 0.001725261 0)
(0.96169076 0.0016215848 0)
(0.95579998 0.0015242563 0)
(0.94992815 0.0014355212 0)
(0.94410266 0.0013551358 0)
(0.93833637 0.0012831089 0)
(0.9326421 0.0012194595 0)
(0.92703732 0.0011637084 0)
(0.92153949 0.0011132904 0)
(0.91615795 0.0010638668 0)
(0.91089137 0.0010127782 0)
(0.90573294 0.0009610204 0)
(0.90067466 0.00091076466 0)
(0.89571025 0.00086338333 0)
(0.8908356 0.00081924739 0)
(0.88605083 0.00077870948 0)
(0.88135567 0.00074054501 0)
(0.87674647 0.00070373191 0)
(0.87222102 0.00066879882 0)
(0.86778019 0.00063588023 0)
(0.86342457 0.00060504098 0)
(0.85915353 0.0005760625 0)
(0.85496598 0.00054880196 0)
(0.85086074 0.00052320992 0)
(0.84683612 0.00049903065 0)
(0.84289001 0.00047606891 0)
(0.8390205 0.00045431827 0)
(0.83522563 0.00043373971 0)
(0.83150359 0.00041423739 0)
(0.82785267 0.00039575678 0)
(0.82427108 0.00037823758 0)
(0.82075711 0.00036160061 0)
(0.81730908 0.00034581368 0)
(0.81392529 0.00033082227 0)
(0.81060418 0.00031657031 0)
(0.8073442 0.00030304019 0)
(0.80414379 0.00029017891 0)
(0.80100155 0.00027794297 0)
(0.79791596 0.00026633008 0)
(0.79488554 0.00025524259 0)
(0.7919092 0.00024465588 0)
(0.78898533 0.00023462214 0)
(0.78611154 0.00022461694 0)
(0.78327358 0.00020880768 0)
(0.78035347 0.00014576834 0)
(0.77700168 9.1628017e-05 0)
(0.77385419 9.5513739e-05 0)
(0.77091181 0.00010936212 0)
(0.76817792 0.00012378496 0)
(0.76556668 0.00013265203 0)
(0.76302006 0.0001365601 0)
(0.76050898 0.00013685262 0)
(0.75802301 0.00013490357 0)
(0.75556523 0.00013201138 0)
(0.75311994 0.00012801489 0)
(0.75073086 0.00012624025 0)
(0.74823997 0.0001208461 4.9866991e-20)
(0.74609694 0.00013671645 0)
(0.74231318 0.00011088626 0)
(0.99672899 0.0019374385 0)
(0.99693663 0.0024695907 0)
(0.99732029 0.0028117351 0)
(0.99769433 0.0029724686 0)
(0.99798454 0.0030715437 0)
(0.99822689 0.0031568209 0)
(0.99845966 0.0032252854 0)
(0.9986871 0.0032754587 0)
(0.99890434 0.0033100292 0)
(0.99911339 0.0033368219 0)
(0.99931812 0.0033346602 0)
(0.99951828 0.0033175069 0)
(0.99970927 0.0032740196 0)
(0.99988351 0.0032055317 0)
(1.0000332 0.003117108 0)
(1.0001526 0.0030169684 0)
(1.0002405 0.002916045 0)
(1.000305 0.0028267261 0)
(1.0003521 0.002743998 0)
(1.0003881 0.0026758623 0)
(1.0004241 0.0026205205 0)
(1.0004605 0.0025692339 0)
(1.0004963 0.0025275952 0)
(1.0005345 0.00249371 0)
(1.0005747 0.0024642106 0)
(1.0006158 0.0024380529 0)
(1.0006576 0.0024139584 0)
(1.0006986 0.002390599 0)
(1.0007376 0.0023685851 0)
(1.0007741 0.0023482247 0)
(1.0008069 0.0023296599 0)
(1.0008342 0.0023137975 0)
(1.0008527 0.0023011552 0)
(1.0008544 0.0022907835 0)
(1.0008246 0.0022809494 0)
(1.0007359 0.0022695862 0)
(1.0005428 0.0022548555 0)
(1.0001812 0.0022351285 0)
(0.99954409 0.0022105477 0)
(0.99848563 0.0021806893 0)
(0.99687534 0.0021437541 0)
(0.99461287 0.0020999388 0)
(0.99164024 0.0020474662 0)
(0.98797965 0.0019806182 0)
(0.98373249 0.0019011313 0)
(0.97902915 0.0018151216 0)
(0.97400817 0.0017257228 0)
(0.96879499 0.0016387208 0)
(0.96348541 0.0015594647 0)
(0.95813997 0.001487071 0)
(0.9527895 0.0014182632 0)
(0.9474506 0.0013505832 0)
(0.94213628 0.0012841817 0)
(0.93686074 0.0012202414 0)
(0.93163703 0.0011596234 0)
(0.92647336 0.0011024965 0)
(0.921376 0.0010491086 0)
(0.91634955 0.00099845354 0)
(0.91139564 0.00094968555 0)
(0.90651508 0.00090323876 0)
(0.90170986 0.00085917924 0)
(0.89698218 0.00081761198 0)
(0.89233365 0.00077835508 0)
(0.88776503 0.00074127112 0)
(0.88327749 0.0007063144 0)
(0.87887068 0.00067322932 0)
(0.87454274 0.00064181302 0)
(0.87029318 0.00061203488 0)
(0.86612109 0.0005838256 0)
(0.86202535 0.00055706741 0)
(0.85800482 0.00053169264 0)
(0.85405817 0.00050762496 0)
(0.85018405 0.00048476473 0)
(0.84638112 0.0004630669 0)
(0.84264792 0.00044246015 0)
(0.83898306 0.00042287119 0)
(0.83538516 0.00040426982 0)
(0.83185274 0.00038658631 0)
(0.82838448 0.00036976635 0)
(0.82497893 0.0003538017 0)
(0.82163462 0.00033857282 0)
(0.81835049 0.00032404895 0)
(0.81512503 0.00031031287 0)
(0.81195667 0.00029698539 0)
(0.80883708 0.00027882564 0)
(0.80570284 0.00021889807 0)
(0.80240452 0.00016519396 0)
(0.79919113 0.00016180684 0)
(0.7961022 0.00016941227 0)
(0.79315863 0.00017888316 0)
(0.79032102 0.00018436217 0)
(0.78755069 0.00018583826 0)
(0.78482324 0.00018419093 0)
(0.78212691 0.00018043526 0)
(0.77946303 0.00017585477 0)
(0.77681536 0.00017005914 0)
(0.77422744 0.0001673414 0)
(0.77153897 0.00015927803 0)
(0.76922241 0.00018212873 3.55639e-20)
(0.76514829 0.00014271723 0)
(0.99688911 0.0018995591 0)
(0.99706445 0.0023817285 0)
(0.9973951 0.0027142823 0)
(0.9977345 0.0028929699 0)
(0.9980126 0.0030080635 0)
(0.99824902 0.0031031935 0)
(0.99847513 0.0031758389 0)
(0.99869656 0.0032237963 0)
(0.99890872 0.0032528579 0)
(0.9991133 0.0032653127 0)
(0.9993136 0.0032611083 0)
(0.99950861 0.0032359946 0)
(0.99969462 0.0031877363 0)
(0.99986478 0.0031171454 0)
(1.0000119 0.0030286743 0)
(1.0001307 0.0029300794 0)
(1.0002202 0.0028320687 0)
(1.0002872 0.0027459027 0)
(1.0003372 0.0026700834 0)
(1.0003765 0.002611748 0)
(1.0004146 0.0025689724 0)
(1.0004525 0.0025332793 0)
(1.0004897 0.0025065232 0)
(1.0005288 0.0024853701 0)
(1.0005696 0.0024663338 0)
(1.0006116 0.0024482635 0)
(1.0006544 0.0024300383 0)
(1.0006971 0.0024109015 0)
(1.000739 0.0023915474 0)
(1.0007796 0.002372268 0)
(1.0008189 0.0023533562 0)
(1.0008568 0.0023356914 0)
(1.0008944 0.0023192518 0)
(1.000932 0.0023033277 0)
(1.0009694 0.0022875364 0)
(1.0010063 0.0022712771 0)
(1.0010408 0.0022544373 0)
(1.0010697 0.0022376663 0)
(1.0010867 0.0022213062 0)
(1.0010791 0.0022050443 0)
(1.001024 0.0021883968 0)
(1.0008807 0.0021703881 0)
(1.0005887 0.0021499568 0)
(1.0000411 0.002126949 0)
(0.99909462 0.0021004248 0)
(0.99761728 0.0020685051 0)
(0.99550989 0.0020317762 0)
(0.9927177 0.0019850527 0)
(0.98929866 0.0019257261 0)
(0.9853557 0.0018585826 0)
(0.9810158 0.0017832826 0)
(0.97640258 0.0017022517 0)
(0.97161402 0.0016212848 0)
(0.96671475 0.001543591 0)
(0.9617429 0.0014705516 0)
(0.95672366 0.0014021904 0)
(0.95168055 0.001338002 0)
(0.94663643 0.0012764523 0)
(0.94160875 0.0012167134 0)
(0.93660907 0.0011592963 0)
(0.93164626 0.0011043455 0)
(0.92672841 0.0010520711 0)
(0.92186279 0.0010023681 0)
(0.91705503 0.00095512474 0)
(0.91231011 0.00091034 0)
(0.90763149 0.00086782221 0)
(0.90302077 0.00082737347 0)
(0.8984796 0.00078893595 0)
(0.8940092 0.00075243602 0)
(0.88961037 0.00071774685 0)
(0.88528357 0.00068479625 0)
(0.88102883 0.00065349843 0)
(0.87684594 0.00062373845 0)
(0.87273451 0.00059546277 0)
(0.86869393 0.00056858663 0)
(0.86472349 0.00054302202 0)
(0.86082238 0.00051872984 0)
(0.85698964 0.00049562564 0)
(0.85322434 0.00047364315 0)
(0.84952539 0.00045276822 0)
(0.84589161 0.00043285921 0)
(0.84232218 0.0004138783 0)
(0.83881587 0.0003959265 0)
(0.8353718 0.00037870365 0)
(0.83198509 0.0003571573 0)
(0.82861922 0.00029699198 0)
(0.82520983 0.00024186364 0)
(0.82185537 0.00023339143 0)
(0.81858852 0.00023586379 0)
(0.8154304 0.00024075275 0)
(0.81236569 0.00024260845 0)
(0.80937038 0.00024123529 0)
(0.80642537 0.0002372293 0)
(0.80351855 0.00023132012 0)
(0.80064965 0.0002247748 0)
(0.79780149 0.00021692639 0)
(0.79501713 0.00021307769 0)
(0.79213363 0.00020189534 0)
(0.7896459 0.00023270488 3.4349218e-20)
(0.7852855 0.00017764977 0)
(0.99703743 0.0018683942 0)
(0.99718728 0.002305479 0)
(0.99747285 0.0026268149 0)
(0.99777923 0.0028162657 0)
(0.99804298 0.0029391131 0)
(0.99827198 0.0030369947 0)
(0.99849111 0.0031123498 0)
(0.9987066 0.0031640948 0)
(0.99891451 0.0031971755 0)
(0.99911533 0.0032162119 0)
(0.9993114 0.0032176707 0)
(0.99950191 0.0031998021 0)
(0.99968347 0.0031604243 0)
(0.99984988 0.0030998718 0)
(0.99999466 0.0030220914 0)
(1.000113 0.0029341579 0)
(1.000204 0.0028458411 0)
(1.0002733 0.0027666541 0)
(1.000326 0.0026965075 0)
(1.000368 0.0026408225 0)
(1.0004079 0.0025973467 0)
(1.0004467 0.0025590661 0)
(1.0004847 0.002527358 0)
(1.0005241 0.0024999489 0)
(1.000565 0.0024745803 0)
(1.0006069 0.0024506121 0)
(1.0006495 0.0024272808 0)
(1.000692 0.0024040603 0)
(1.0007335 0.0023814452 0)
(1.0007741 0.0023597197 0)
(1.0008135 0.0023391597 0)
(1.0008522 0.0023204048 0)
(1.0008909 0.0023033894 0)
(1.0009301 0.0022876205 0)
(1.0009704 0.0022727498 0)
(1.0010114 0.0022579361 0)
(1.0010525 0.0022426907 0)
(1.0010929 0.0022269463 0)
(1.0011322 0.0022103838 0)
(1.0011696 0.0021931391 0)
(1.0012044 0.0021758773 0)
(1.0012359 0.0021592395 0)
(1.001262 0.0021439388 0)
(1.0012767 0.0021301201 0)
(1.0012669 0.0021172331 0)
(1.0012069 0.0021044893 0)
(1.0010489 0.0020905685 0)
(1.0007248 0.0020757125 0)
(1.0000954 0.0020599877 0)
(0.99902148 0.0020401 0)
(0.99738316 0.0020127316 0)
(0.99509907 0.0019720473 0)
(0.99218714 0.0019155154 0)
(0.98873204 0.0018483839 0)
(0.98485074 0.0017748467 0)
(0.98066194 0.0016994898 0)
(0.97626106 0.0016266624 0)
(0.97171122 0.0015563537 0)
(0.96705087 0.0014882953 0)
(0.96230869 0.0014228756 0)
(0.95751197 0.0013597721 0)
(0.95268557 0.0012989132 0)
(0.94784922 0.0012402997 0)
(0.94301787 0.0011839536 0)
(0.93820428 0.0011300229 0)
(0.93341941 0.0010784575 0)
(0.92867174 0.0010291311 0)
(0.92396793 0.00098202835 0)
(0.91931344 0.00093710634 0)
(0.91471285 0.0008942535 0)
(0.91016985 0.00085341669 0)
(0.90568722 0.00081451989 0)
(0.90126711 0.0007774476 0)
(0.89691119 0.00074215009 0)
(0.89262053 0.00070853868 0)
(0.88839594 0.00067651853 0)
(0.88423787 0.00064604845 0)
(0.88014645 0.00061703437 0)
(0.87612171 0.0005894018 0)
(0.87216334 0.00056313418 0)
(0.86827088 0.00053806991 0)
(0.8644441 0.0005141659 0)
(0.8606823 0.00049153621 0)
(0.85698538 0.00046992297 0)
(0.85335055 0.00044426668 0)
(0.84975417 0.00038180952 0)
(0.84616849 0.00032419456 0)
(0.8426356 0.00031139521 0)
(0.83917526 0.00030932033 0)
(0.83580316 0.00030982223 0)
(0.83251527 0.00030785369 0)
(0.82929794 0.00030323986 0)
(0.82613731 0.00029644512 0)
(0.823022 0.00028800339 0)
(0.81995057 0.00027917686 0)
(0.81690487 0.00026898119 0)
(0.8139273 0.00026378004 0)
(0.81085205 0.00024904199 -2.0623804e-20)
(0.80819598 0.00028874473 0)
(0.80355424 0.00021598119 1.0819699e-20)
(0.99717525 0.0018415909 0)
(0.99730487 0.002238133 0)
(0.99755204 0.0025452446 0)
(0.99782748 0.0027403236 0)
(0.99807595 0.0028699735 0)
(0.99829709 0.0029722928 0)
(0.99850932 0.0030528454 0)
(0.99871866 0.003110141 0)
(0.99892183 0.003147762 0)
(0.99911826 0.003169648 0)
(0.99930963 0.0031732715 0)
(0.99949535 0.0031575855 0)
(0.99967221 0.0031209031 0)
(0.99983467 0.0030637292 0)
(0.99997689 0.0029898827 0)
(1.0000945 0.0029059688 0)
(1.0001867 0.0028209649 0)
(1.0002581 0.0027431949 0)
(1.0003133 0.0026738625 0)
(1.0003581 0.0026176473 0)
(1.0003999 0.0025728456 0)
(1.0004401 0.0025341543 0)
(1.0004794 0.0025025636 0)
(1.0005197 0.0024760977 0)
(1.0005612 0.0024526222 0)
(1.0006035 0.0024311296 0)
(1.0006464 0.0024105983 0)
(1.000689 0.0023903185 0)
(1.0007307 0.0023704841 0)
(1.0007714 0.0023513107 0)
(1.000811 0.0023330058 0)
(1.0008498 0.0023160716 0)
(1.0008885 0.0023005081 0)
(1.0009276 0.0022858886 0)
(1.0009674 0.0022717868 0)
(1.001008 0.0022573942 0)
(1.0010488 0.0022422391 0)
(1.0010895 0.0022262776 0)
(1.0011297 0.0022094264 0)
(1.0011689 0.0021920819 0)
(1.0012071 0.0021748981 0)
(1.0012441 0.0021582475 0)
(1.0012797 0.0021423388 0)
(1.0013144 0.0021269565 0)
(1.0013476 0.0021121398 0)
(1.0013789 0.0020982822 0)
(1.001407 0.0020861057 0)
(1.0014296 0.0020765221 0)
(1.0014384 0.0020696016 0)
(1.0014152 0.0020634448 0)
(1.0013198 0.0020540432 0)
(1.0010869 0.0020389602 0)
(1.000588 0.0020186482 0)
(0.99967639 0.0019932284 0)
(0.99822593 0.0019631882 0)
(0.99615133 0.0019240208 0)
(0.99347524 0.0018729242 0)
(0.9902781 0.0018127424 0)
(0.98667075 0.0017456979 0)
(0.98276087 0.0016765131 0)
(0.9786302 0.0016083933 0)
(0.97433142 0.0015422048 0)
(0.96990064 0.0014781953 0)
(0.96536977 0.0014160885 0)
(0.96076902 0.001355751 0)
(0.9561238 0.0012972251 0)
(0.95145386 0.0012405592 0)
(0.94677523 0.0011859064 0)
(0.94210164 0.0011333479 0)
(0.9374446 0.0010828573 0)
(0.93281357 0.0010344555 0)
(0.92821629 0.00098811837 0)
(0.92365923 0.00094376325 0)
(0.91914772 0.00090137203 0)
(0.914686 0.00086087311 0)
(0.91027757 0.00082218207 0)
(0.90592523 0.00078526991 0)
(0.9016311 0.00075004398 0)
(0.89739696 0.00071643124 0)
(0.893224 0.00068442085 0)
(0.88911304 0.00065383714 0)
(0.88506499 0.00062463718 0)
(0.88108013 0.00059694858 0)
(0.87715938 0.00057053855 0)
(0.87330159 0.00054027288 0)
(0.86948944 0.00047439005 0)
(0.86571146 0.00041348165 0)
(0.86199007 0.00039638356 0)
(0.85833578 0.0003899311 0)
(0.85475812 0.00038610401 0)
(0.8512574 0.00038014452 0)
(0.84782682 0.00037196782 0)
(0.84445732 0.00036200779 0)
(0.8411391 0.00035067364 0)
(0.83787031 0.00033924637 0)
(0.83463209 0.00032640697 0)
(0.83146626 0.00031963278 0)
(0.82820395 0.00030089823 0)
(0.82538356 0.00035045098 3.4113052e-20)
(0.82046691 0.00025788595 0)
(0.99730382 0.001818189 0)
(0.99741721 0.0021785211 0)
(0.99763182 0.0024698417 0)
(0.99787888 0.0026673507 0)
(0.9981117 0.002803005 0)
(0.99832434 0.0029094209 0)
(0.99852935 0.0029938601 0)
(0.99873208 0.0030550295 0)
(0.99892991 0.0030956446 0)
(0.99912164 0.0031194515 0)
(0.99930828 0.0031255217 0)
(0.99948929 0.0031128943 0)
(0.99966162 0.0030803816 0)
(0.99982031 0.0030286521 0)
(0.99996009 0.0029612345 0)
(1.000077 0.0028841389 0)
(1.0001703 0.0028054675 0)
(1.0002437 0.0027325347 0)
(1.0003013 0.0026673667 0)
(1.0003487 0.0026139787 0)
(1.0003923 0.0025709817 0)
(1.000434 0.0025341194 0)
(1.0004745 0.0025037697 0)
(1.0005156 0.0024780174 0)
(1.0005575 0.0024548704 0)
(1.0006001 0.002433285 0)
(1.000643 0.0024123449 0)
(1.0006858 0.0023914891 0)
(1.0007276 0.0023709194 0)
(1.0007684 0.0023509408 0)
(1.0008083 0.0023318115 0)
(1.0008473 0.0023140019 0)
(1.0008862 0.0022975757 0)
(1.0009254 0.0022821528 0)
(1.0009653 0.0022673077 0)
(1.0010058 0.0022523417 0)
(1.0010465 0.0022368251 0)
(1.0010871 0.0022207234 0)
(1.001127 0.0022040024 0)
(1.001166 0.0021869643 0)
(1.0012038 0.0021700957 0)
(1.0012406 0.0021536792 0)
(1.0012767 0.0021378856 0)
(1.0013122 0.0021226331 0)
(1.0013473 0.0021081099 0)
(1.0013821 0.0020946634 0)
(1.0014163 0.0020826709 0)
(1.0014502 0.0020724026 0)
(1.001485 0.0020639532 0)
(1.0015212 0.0020565044 0)
(1.0015579 0.0020479107 0)
(1.001591 0.0020370403 0)
(1.0016105 0.0020246343 0)
(1.001597 0.002011543 0)
(1.0015109 0.0019973737 0)
(1.0012879 0.0019817206 0)
(1.0007926 0.0019640705 0)
(0.99987932 0.0019419181 0)
(0.99842235 0.001912974 0)
(0.99635863 0.0018733201 0)
(0.99372886 0.0018222072 0)
(0.99062229 0.001763099 0)
(0.98714571 0.0016997699 0)
(0.98339098 0.0016359371 0)
(0.97942131 0.0015728589 0)
(0.97527939 0.0015111097 0)
(0.97100112 0.0014506454 0)
(0.96662026 0.0013914436 0)
(0.96216569 0.0013336225 0)
(0.95766046 0.0012773212 0)
(0.95312365 0.0012227416 0)
(0.9485717 0.0011699989 0)
(0.94401845 0.001119115 0)
(0.93947538 0.0010701616 0)
(0.93495206 0.001023127 0)
(0.93045661 0.00097797254 0)
(0.92599575 0.00093471067 0)
(0.92157499 0.00089327162 0)
(0.91719903 0.0008536023 0)
(0.9128716 0.00081571334 0)
(0.90859572 0.00077942665 0)
(0.90437416 0.00074471019 0)
(0.90020888 0.00071171161 0)
(0.89610232 0.00068021734 0)
(0.89205502 0.00064499938 0)
(0.88805335 0.00057506136 0)
(0.88409348 0.00051026871 0)
(0.88019229 0.00048864927 0)
(0.87635563 0.00047776705 0)
(0.87258816 0.0004695722 0)
(0.86889109 0.00045947188 0)
(0.86526179 0.00044746719 0)
(0.86169527 0.00043401631 0)
(0.85818393 0.00041945846 0)
(0.85472629 0.00040512286 0)
(0.85130323 0.00038935025 0)
(0.84795625 0.00038078804 0)
(0.84451349 0.00035760901 0)
(0.84153434 0.0004178235 0)
(0.83635123 0.00030351445 0)
(0.99742421 0.0017973303 0)
(0.99752444 0.0021254449 0)
(0.99771154 0.0024003358 0)
(0.99793288 0.0025975151 0)
(0.99814995 0.0027376068 0)
(0.99835349 0.0028472258 0)
(0.998551 0.0029346032 0)
(0.99874685 0.0029991672 0)
(0.99893903 0.0030429702 0)
(0.99912587 0.0030694407 0)
(0.99930775 0.0030785605 0)
(0.99948402 0.0030693784 0)
(0.99965185 0.003041079 0)
(0.99980678 0.0029944462 0)
(0.99994406 0.0029327191 0)
(1.0000601 0.0028613841 0)
(1.0001542 0.0027877707 0)
(1.0002293 0.0027184222 0)
(1.0002892 0.0026559336 0)
(1.000339 0.0026038374 0)
(1.0003844 0.0025610916 0)
(1.0004274 0.002524353 0)
(1.000469 0.0024936822 0)
(1.0005109 0.0024674112 0)
(1.0005533 0.0024438338 0)
(1.0005962 0.0024219827 0)
(1.0006394 0.0024010251 0)
(1.0006823 0.0023804472 0)
(1.0007244 0.0023603514 0)
(1.0007654 0.0023409869 0)
(1.0008055 0.0023225567 0)
(1.0008448 0.0023054228 0)
(1.0008839 0.0022896266 0)
(1.0009233 0.0022747974 0)
(1.0009633 0.0022605029 0)
(1.0010038 0.0022461054 0)
(1.0010446 0.0022311721 0)
(1.0010851 0.002215632 0)