/*--------------------------------*- C++ -*----------------------------------*\
  =========                 |
  \\      /  F ield         | OpenFOAM: The Open Source CFD Toolbox
   \\    /   O peration     | Website:  https://openfoam.org
    \\  /    A nd           | Version:  12
     \\/     M anipulation  |
\*---------------------------------------------------------------------------*/
FoamFile
{
    format      ascii;
    class       volVectorField;
    location    "200";
    object      U;
}
// * * * * * * * * * * * * * * * * * * * * * * * * * * * * * * * * * * * * * //

dimensions      [0 1 -1 0 0 0 0];

internalField   nonuniform List<vector> 
13056
(
(1 6.7414548e-11 8.6575725e-25)
(0.9999949 1.7990184e-10 0)
(0.9999874 2.5106232e-10 0)
(0.99997925 3.1296471e-10 0)
(0.99997021 3.9795083e-10 0)
(0.99996 5.0937046e-10 0)
(0.99994848 6.5051857e-10 0)
(0.9999355 8.3037692e-10 0)
(0.99992085 1.0622996e-09 0)
(0.99990425 1.3636353e-09 0)
(0.99988535 1.757487e-09 0)
(0.9998637 2.2762265e-09 0)
(0.99983871 2.9662453e-09 0)
(0.99980959 3.8981197e-09 0)
(0.99977519 5.1750223e-09 0)
(0.99973397 6.9877998e-09 0)
(0.9996832 9.5707361e-09 0)
(0.99961972 1.3734439e-08 0)
(0.99953364 1.9612291e-08 0)
(0.99942261 3.3382743e-08 0)
(0.99922268 4.8758559e-08 0)
(0.99899155 1.4841195e-07 0)
(0.9979824 4.864181e-08 -2.6862679e-21)
(0.99857703 0.00011977506 2.808566e-16)
(0.028732329 0.000125461 0)
(0.014483033 4.7168547e-07 -9.8695816e-20)
(0.012949038 1.9186988e-07 1.6417974e-17)
(0.012444726 2.0208711e-08 2.1965772e-21)
(0.012124906 1.4332716e-08 0)
(0.011857156 1.2198635e-08 0)
(0.011621091 1.0714076e-08 0)
(0.011410889 9.4823997e-09 0)
(0.011222431 8.4674653e-09 0)
(0.011051664 7.6401538e-09 0)
(0.010895334 6.9518776e-09 0)
(0.010751091 6.3628895e-09 0)
(0.01061721 5.8491752e-09 0)
(0.010492332 5.3972638e-09 0)
(0.010375342 4.9980446e-09 0)
(0.010265313 4.6444571e-09 0)
(0.010161462 4.3303786e-09 0)
(0.010063133 4.0502813e-09 0)
(0.0099697646 3.7994335e-09 0)
(0.0098808819 3.573148e-09 0)
(0.0097960837 3.3680579e-09 0)
(0.0097150157 3.1809044e-09 0)
(0.0096373835 3.0090841e-09 0)
(0.0095629184 2.8511685e-09 0)
(0.0094913739 2.7050804e-09 0)
(0.0094225473 2.5693231e-09 0)
(0.0093562465 2.4432832e-09 0)
(0.0092922879 2.3258136e-09 0)
(0.0092305166 2.2157993e-09 0)
(0.0091707934 2.1127748e-09 0)
(0.0091129787 2.0163843e-09 0)
(0.0090569449 1.9256874e-09 0)
(0.0090025884 1.8400925e-09 0)
(0.0089498074 1.7595573e-09 0)
(0.0088984972 1.6837273e-09 0)
(0.0088485671 1.6119202e-09 0)
(0.0087999426 1.5437862e-09 0)
(0.0087525491 1.4793571e-09 0)
(0.0087063072 1.4184392e-09 0)
(0.0086611475 1.3604903e-09 0)
(0.0086170162 1.3052321e-09 0)
(0.0085738576 1.2527349e-09 0)
(0.0085316118 1.2028637e-09 0)
(0.0084902245 1.1553179e-09 0)
(0.0084496518 1.1098263e-09 0)
(0.0084098532 1.066336e-09 0)
(0.0083707856 1.0248402e-09 0)
(0.0083324044 9.852429e-10 0)
(0.0082946705 9.4725099e-10 0)
(0.0082575553 9.1073025e-10 0)
(0.0082210272 8.7574569e-10 0)
(0.0081850508 8.422454e-10 0)
(0.0081495931 8.1009332e-10 0)
(0.0081146272 7.7911302e-10 0)
(0.0080801306 7.492618e-10 0)
(0.0080460778 7.2057236e-10 0)
(0.0080124404 6.930238e-10 0)
(0.0079791915 6.6646772e-10 0)
(0.0079463126 6.4079032e-10 0)
(0.0079137848 6.160156e-10 0)
(0.0078815858 5.921478e-10 0)
(0.007849692 5.6916344e-10 0)
(0.0078180812 5.4693095e-10 0)
(0.0077867398 5.2538325e-10 0)
(0.0077556508 5.0456968e-10 0)
(0.0077247935 4.8448444e-10 0)
(0.0076941472 4.6508003e-10 0)
(0.0076636941 4.4626957e-10 0)
(0.0076334209 4.2802597e-10 0)
(0.0076033119 4.1038501e-10 0)
(0.0075733465 3.9335038e-10 0)
(0.0075435049 3.7684072e-10 0)
(0.0075137732 3.6080202e-10 0)
(0.0074841372 3.4526864e-10 0)
(0.0074545782 3.3025173e-10 0)
(0.0074250752 3.15714e-10 0)
(0.0073956101 3.0159873e-10 0)
(0.0073661688 2.8789771e-10 0)
(0.0073367339 2.746378e-10 0)
(0.0073072825 2.6180456e-10 0)
(0.0072777935 2.4934314e-10 0)
(0.0072482508 2.3724045e-10 0)
(0.0072186351 2.2552533e-10 0)
(0.0071889207 2.1418326e-10 0)
(0.0071590834 2.0316781e-10 0)
(0.0071291037 1.9247576e-10 0)
(0.0070989576 1.8213714e-10 0)
(0.0070686124 1.720994e-10 0)
(0.0070380506 1.6239022e-10 0)
(0.0070079137 1.5323321e-10 0)
(0.006979138 1.4479564e-10 0)
(0.0069519484 1.370797e-10 0)
(0.0069261993 1.3002787e-10 0)
(0.0069017617 1.2359615e-10 0)
(0.0068785166 1.1771945e-10 0)
(0.0068563608 1.1231653e-10 0)
(0.0068352068 1.0733419e-10 0)
(0.0068149763 1.0274446e-10 0)
(0.0067955973 9.8513879e-11 0)
(0.0067770046 9.4590188e-11 0)
(0.0067591423 9.0934904e-11 0)
(0.0067419603 8.7535382e-11 0)
(0.0067254114 8.4384855e-11 0)
(0.006709449 8.1463402e-11 0)
(0.0066940329 7.8788669e-11 0)
(0.0066791069 7.6268253e-11 0)
(0.0066646671 7.4246113e-11 0)
(0.0066505222 7.2017716e-11 0)
(0.0066369653 7.1979971e-11 0)
(0.0066228201 2.4170095e-10 0)
(0.006610695 8.2130089e-11 1.242693e-22)
(0.0065906311 1.876311e-10 0)
(1 2.0490256e-10 0)
(0.99999483 5.4762028e-10 0)
(0.99998719 7.6453132e-10 0)
(0.99997891 9.5302865e-10 0)
(0.99996971 1.2117356e-09 0)
(0.99995933 1.5508233e-09 0)
(0.99994761 1.9802351e-09 0)
(0.99993442 2.5272501e-09 0)
(0.99991954 3.2324419e-09 0)
(0.99990268 4.1484863e-09 0)
(0.9998835 5.3455022e-09 0)
(0.99986152 6.9217256e-09 0)
(0.99983617 9.0179174e-09 0)
(0.99980663 1.1848193e-08 0)
(0.99977177 1.5725469e-08 0)
(0.99973 2.1228594e-08 0)
(0.99967859 2.906753e-08 0)
(0.99961433 4.1700775e-08 0)
(0.99952724 5.9527006e-08 0)
(0.99941498 1.0128153e-07 0)
(0.99921297 1.4787783e-07 0)
(0.99897961 4.5007817e-07 0)
(0.99796056 1.4685988e-07 9.8532353e-21)
(0.99855657 0.00036099021 -3.2669899e-21)
(0.084152017 0.00036924445 0)
(0.043665218 8.2448636e-06 0)
(0.039039954 1.0809394e-06 2.2517409e-20)
(0.037520546 4.259732e-07 0)
(0.036555142 3.012328e-07 -1.9256172e-21)
(0.035747588 2.5596493e-07 0)
(0.035035867 2.2460866e-07 0)
(0.034402173 1.9871862e-07 0)
(0.033834002 1.7730099e-07 0)
(0.033319164 1.5981411e-07 0)
(0.032847862 1.4533496e-07 0)
(0.032413007 1.3305659e-07 0)
(0.032009391 1.2245215e-07 0)
(0.031632918 1.1319124e-07 0)
(0.031280228 1.0503779e-07 0)
(0.030948525 9.7808996e-08 0)
(0.030635451 9.1357535e-08 0)
(0.030339024 8.5563693e-08 0)
(0.030057553 8.0329961e-08 0)
(0.029789604 7.5570964e-08 0)
(0.029533969 7.1223184e-08 0)
(0.029289578 6.7230076e-08 0)
(0.029055544 6.3546259e-08 0)
(0.028831056 6.0144418e-08 0)
(0.028615372 5.6989519e-08 0)
(0.02840788 5.4053166e-08 0)
(0.028208001 5.1322234e-08 0)
(0.028015182 4.8776237e-08 0)
(0.027828955 4.6392955e-08 0)
(0.027648901 4.4162072e-08 0)
(0.0274746 4.2075124e-08 0)
(0.027305666 4.011448e-08 0)
(0.027141787 3.8267209e-08 0)
(0.026982657 3.6530555e-08 0)
(0.02682796 3.4897298e-08 0)
(0.026677423 3.3353879e-08 0)
(0.026530821 3.1892273e-08 0)
(0.026387929 3.0511696e-08 0)
(0.026248508 2.9207881e-08 0)
(0.026112349 2.7970245e-08 0)
(0.025979289 2.6792487e-08 0)
(0.025849161 2.5674766e-08 0)
(0.025721785 2.4614637e-08 0)
(0.025596996 2.3605519e-08 0)
(0.025474662 2.2641831e-08 0)
(0.025354661 2.1722017e-08 0)
(0.025236863 2.0845697e-08 0)
(0.025121134 2.0010344e-08 0)
(0.025007357 1.9210421e-08 0)
(0.024895444 1.8442917e-08 0)
(0.024785299 1.770849e-08 0)
(0.024676818 1.7006265e-08 0)
(0.024569901 1.6333203e-08 0)
(0.024464466 1.5685889e-08 0)
(0.024360444 1.5063186e-08 0)
(0.02425776 1.4465573e-08 0)
(0.024156328 1.3892428e-08 0)
(0.024056067 1.3340852e-08 0)
(0.023956921 1.2808541e-08 0)
(0.023858833 1.2295607e-08 0)
(0.023761736 1.1802242e-08 0)
(0.023665558 1.1327723e-08 0)
(0.023570234 1.0869601e-08 0)
(0.02347572 1.0426419e-08 0)
(0.023381967 9.9988775e-09 0)
(0.023288912 9.5869839e-09 0)
(0.023196493 9.1897119e-09 0)
(0.023104656 8.8053823e-09 0)
(0.023013361 8.433249e-09 0)
(0.02292256 8.0739229e-09 0)
(0.022832191 7.7274212e-09 0)
(0.022742196 7.392374e-09 0)
(0.022652531 7.0676545e-09 0)
(0.022563154 6.7534723e-09 0)
(0.022474008 6.4501462e-09 0)
(0.022385031 6.1571517e-09 0)
(0.022296167 5.8733375e-09 0)
(0.022207374 5.5982477e-09 0)
(0.0221186 5.3323602e-09 0)
(0.022029776 5.0755911e-09 0)
(0.021940837 4.8269209e-09 0)
(0.021851736 4.5858363e-09 0)
(0.021762414 4.352741e-09 0)
(0.021672794 4.1275748e-09 0)
(0.021582802 3.9095043e-09 0)
(0.02149238 3.6981715e-09 0)
(0.021401455 3.4940068e-09 0)
(0.02130993 3.2962828e-09 0)
(0.02121775 3.1054954e-09 0)
(0.02112685 2.9259098e-09 0)
(0.021040056 2.761298e-09 0)
(0.020958046 2.6118811e-09 0)
(0.02088038 2.4760418e-09 0)
(0.02080667 2.3524616e-09 0)
(0.020736557 2.2398576e-09 0)
(0.020669729 2.1366835e-09 0)
(0.020605922 2.0416858e-09 0)
(0.020544901 1.9541052e-09 0)
(0.020486449 1.8732965e-09 0)
(0.020430368 1.7984594e-09 0)
(0.02037649 1.7288616e-09 0)
(0.020324665 1.66406e-09 0)
(0.020274749 1.6038779e-09 0)
(0.020226602 1.5479819e-09 0)
(0.020180103 1.4968399e-09 0)
(0.020135082 1.4486802e-09 0)
(0.020091528 1.4100893e-09 0)
(0.020048866 1.3666336e-09 0)
(0.020007975 1.366244e-09 0)
(0.019965321 1.3159182e-09 0)
(0.019928748 1.5814163e-09 -1.96848e-22)
(0.019868227 1.0136036e-09 2.8611895e-23)
(1 3.4769724e-10 0)
(0.99999474 9.2963061e-10 0)
(0.99998696 1.298375e-09 0)
(0.99997853 1.6185021e-09 0)
(0.99996916 2.0577136e-09 0)
(0.99995858 2.6332554e-09 0)
(0.99994665 3.361878e-09 0)
(0.99993322 4.2897923e-09 0)
(0.99991808 5.4857573e-09 0)
(0.99990094 7.0389907e-09 0)
(0.99988144 9.0682086e-09 0)
(0.99985911 1.1739708e-08 0)
(0.99983335 1.5291741e-08 0)
(0.99980337 2.0086679e-08 0)
(0.99976798 2.6653967e-08 0)
(0.99972562 3.5973017e-08 0)
(0.99967349 4.9244103e-08 0)
(0.99960838 7.0626862e-08 0)
(0.99952018 1.0078669e-07 0)
(0.99940657 1.7141713e-07 0)
(0.99920229 2.502023e-07 0)
(0.99896651 7.6141295e-07 0)
(0.99793673 2.5032057e-07 -5.156556e-21)
(0.99853412 0.00058998328 9.7211576e-55)
(0.13835984 0.00061029004 -8.1580757e-54)
(0.073498357 2.3002183e-05 0)
(0.065711188 3.0882035e-06 -1.1901578e-20)
(0.06315417 1.2372475e-06 0)
(0.061527673 8.7515258e-07 0)
(0.060168091 7.4320447e-07 0)
(0.058970222 6.5204275e-07 0)
(0.057903744 5.7689666e-07 0)
(0.056947497 5.1474896e-07 0)
(0.056081002 4.63994e-07 0)
(0.055287786 4.2195918e-07 0)
(0.054555921 3.8630512e-07 0)
(0.053876632 3.5550254e-07 0)
(0.05324303 3.2859399e-07 0)
(0.052649458 3.0489916e-07 0)
(0.052091213 2.8389183e-07 0)
(0.051564326 2.6514691e-07 0)
(0.051065459 2.4831778e-07 0)
(0.050591761 2.3312031e-07 0)
(0.050140824 2.1930644e-07 0)
(0.049710606 2.0668978e-07 0)
(0.049299312 1.9510556e-07 0)
(0.048905444 1.8442126e-07 0)
(0.048527639 1.7455575e-07 0)
(0.048164648 1.6540788e-07 0)
(0.047815439 1.5689469e-07 0)
(0.047479039 1.4897689e-07 0)
(0.047154518 1.4159555e-07 0)
(0.046841088 1.3468629e-07 0)
(0.046538043 1.2821857e-07 0)
(0.046244677 1.2216764e-07 0)
(0.045960342 1.1648304e-07 0)
(0.045684511 1.1112707e-07 0)
(0.045416669 1.060912e-07 0)
(0.045156287 1.0135477e-07 0)
(0.044902904 9.6878914e-08 0)
(0.04465614 9.264013e-08 0)
(0.044415617 8.86358e-08 0)
(0.044180936 8.4853765e-08 0)
(0.043951743 8.1263738e-08 0)
(0.043727764 7.7847291e-08 0)
(0.043508717 7.4604535e-08 0)
(0.043294299 7.1528588e-08 0)
(0.043084235 6.860058e-08 0)
(0.042878301 6.5804358e-08 0)
(0.042676292 6.3135163e-08 0)
(0.04247799 6.0591917e-08 0)
(0.042283169 5.8167384e-08 0)
(0.042091631 5.5845698e-08 0)
(0.041903229 5.3618011e-08 0)
(0.041717803 5.1486048e-08 0)
(0.041535175 4.9447411e-08 0)
(0.041355178 4.7493354e-08 0)
(0.041177674 4.5614031e-08 0)
(0.041002548 4.3806015e-08 0)
(0.040829672 4.207066e-08 0)
(0.040658902 4.0406218e-08 0)
(0.040490103 3.8804381e-08 0)
(0.040323178 3.7258455e-08 0)
(0.040158033 3.5768637e-08 0)
(0.039994554 3.4335538e-08 0)
(0.039832622 3.295707e-08 0)
(0.039672124 3.1626214e-08 0)
(0.039512991 3.0338701e-08 0)
(0.039355136 2.9096476e-08 0)
(0.039198456 2.7899622e-08 0)
(0.039042844 2.6745174e-08 0)
(0.03888821 2.5628296e-08 0)
(0.038734487 2.4546786e-08 0)
(0.038581594 2.3502389e-08 0)
(0.038429428 2.2495184e-08 0)
(0.038277889 2.1521219e-08 0)
(0.038126905 2.0577215e-08 0)
(0.037976404 1.9663764e-08 0)
(0.03782629 1.8781809e-08 0)
(0.03767646 1.792982e-08 0)
(0.037526818 1.7104473e-08 0)
(0.037377294 1.6304442e-08 0)
(0.0372278 1.5531104e-08 0)
(0.03707822 1.4784215e-08 0)
(0.036928446 1.4060825e-08 0)
(0.036778397 1.335945e-08 0)
(0.036627973 1.2681259e-08 0)
(0.036477046 1.2026077e-08 0)
(0.036325492 1.1391481e-08 0)
(0.036173211 1.0776446e-08 0)
(0.036020082 1.018223e-08 0)
(0.035865939 9.6067046e-09 0)
(0.035710692 9.0513326e-09 0)
(0.0355576 8.5285061e-09 0)
(0.035411421 8.0491442e-09 0)
(0.035273298 7.6139031e-09 0)
(0.035142491 7.2181262e-09 0)
(0.035018345 6.8580166e-09 0)
(0.034900258 6.5298489e-09 0)
(0.034787703 6.2291242e-09 0)
(0.034680237 5.9522095e-09 0)
(0.034577463 5.6969173e-09 0)
(0.034479014 5.4613722e-09 0)
(0.03438456 5.2432248e-09 0)
(0.034293817 5.0403359e-09 0)
(0.034206529 4.8514303e-09 0)
(0.034122458 4.6760036e-09 0)
(0.034041366 4.5130763e-09 0)
(0.03396305 4.3640005e-09 0)
(0.033887225 4.2235984e-09 0)
(0.033813869 4.111076e-09 0)
(0.033742018 3.9843526e-09 0)
(0.033673147 3.9832489e-09 0)
(0.033601325 3.7749771e-09 0)
(0.033539723 4.6174834e-09 0)
(0.033437787 2.900413e-09 0)
(1 4.9835621e-10 1.8571873e-24)
(0.99999465 1.3332987e-09 0)
(0.99998671 1.8630081e-09 0)
(0.9999781 2.3223746e-09 0)
(0.99996855 2.9523682e-09 0)
(0.99995775 3.7776989e-09 0)
(0.99994559 4.8221874e-09 0)
(0.9999319 6.1519562e-09 0)
(0.99991647 7.8654332e-09 0)
(0.999899 1.0090256e-08 0)
(0.99987914 1.299619e-08 0)
(0.99985642 1.6821005e-08 0)
(0.99983022 2.1905303e-08 0)
(0.99979973 2.8767053e-08 0)
(0.99976378 3.8162819e-08 0)
(0.99972075 5.1492203e-08 0)
(0.99966783 7.0468833e-08 0)
(0.99960178 1.0103671e-07 0)
(0.99951235 1.4413202e-07 0)
(0.99939726 2.4503559e-07 0)
(0.99919048 3.5752616e-07 0)
(0.99895204 1.08783e-06 0)
(0.99791056 3.6018513e-07 0)
(0.99850933 0.00081200977 -5.0667547e-55)
(0.19204192 0.00085383116 4.2366915e-54)
(0.10441026 4.5888476e-05 0)
(0.093353841 6.3668498e-06 0)
(0.089719744 2.5494722e-06 0)
(0.087407138 1.8034746e-06 0)
(0.085475516 1.5308989e-06 0)
(0.083774182 1.3429247e-06 0)
(0.08225954 1.1881566e-06 0)
(0.08090138 1.0601807e-06 0)
(0.079670666 9.556429e-07 0)
(0.078544035 8.6906e-07 0)
(0.077504544 7.9562391e-07 0)
(0.07653973 7.3218313e-07 0)
(0.075639809 6.7676188e-07 0)
(0.074796753 6.2795887e-07 0)
(0.074003882 5.8469112e-07 0)
(0.073255555 5.4608373e-07 0)
(0.072547031 5.1142299e-07 0)
(0.071874256 4.8012295e-07 0)
(0.071233806 4.516735e-07 0)
(0.070622782 4.2568968e-07 0)
(0.070038629 4.0183273e-07 0)
(0.069479218 3.7982975e-07 0)
(0.068942616 3.5951226e-07 0)
(0.068427046 3.406733e-07 0)
(0.067931043 3.2314189e-07 0)
(0.067453224 3.0683585e-07 0)
(0.06699227 2.916347e-07 0)
(0.066547062 2.7740622e-07 0)
(0.066116596 2.6408676e-07 0)
(0.065699871 2.5162507e-07 0)
(0.065295968 2.3991827e-07 0)
(0.064904136 2.2888849e-07 0)
(0.064523646 2.185173e-07 0)
(0.064153746 2.0876259e-07 0)
(0.063793783 1.9954491e-07 0)
(0.063443216 1.9081559e-07 0)
(0.06310151 1.8256864e-07 0)
(0.062768096 1.7477927e-07 0)
(0.062442475 1.6738569e-07 0)
(0.062124255 1.6034975e-07 0)
(0.061813036 1.5367113e-07 0)
(0.06150839 1.4733589e-07 0)
(0.061209925 1.4130547e-07 0)
(0.060917323 1.3554664e-07 0)
(0.060630293 1.3004929e-07 0)
(0.060348524 1.2481115e-07 0)
(0.060071698 1.1981742e-07 0)
(0.059799533 1.1503573e-07 0)
(0.059531819 1.1044769e-07 0)
(0.059268329 1.0605657e-07 0)
(0.059008811 1.0185759e-07 0)
(0.058753028 9.7832852e-08 0)
(0.058500784 9.3962157e-08 0)
(0.058251915 9.023829e-08 0)
(0.058006239 8.6663946e-08 0)
(0.057763553 8.323559e-08 0)
(0.057523663 7.9936264e-08 0)
(0.057286434 7.675217e-08 0)
(0.057051729 7.3683546e-08 0)
(0.056819389 7.0731676e-08 0)
(0.056589244 6.789229e-08 0)
(0.056361135 6.5151057e-08 0)
(0.05613496 6.2499129e-08 0)
(0.055910599 5.994038e-08 0)
(0.055687904 5.7475048e-08 0)
(0.055466724 5.5097061e-08 0)
(0.055246931 5.2796511e-08 0)
(0.055028428 5.0568802e-08 0)
(0.054811103 4.8417474e-08 0)
(0.054594807 4.634272e-08 0)
(0.054379399 4.433647e-08 0)
(0.054164776 4.2391956e-08 0)
(0.053950836 4.051033e-08 0)
(0.053737444 3.8693546e-08 0)
(0.05352445 3.693849e-08 0)
(0.053311722 3.5238337e-08 0)
(0.053099158 3.3590319e-08 0)
(0.052886633 3.1997246e-08 0)
(0.052673981 3.0458648e-08 0)
(0.052461051 2.8968475e-08 0)
(0.052247725 2.7523641e-08 0)
(0.052033864 2.6126536e-08 0)
(0.051819283 2.4776822e-08 0)
(0.051603808 2.3469525e-08 0)
(0.051387296 2.2202512e-08 0)
(0.051169573 2.0978361e-08 0)
(0.050950406 1.9792721e-08 0)
(0.050729666 1.8648612e-08 0)
(0.050511984 1.7571519e-08 0)
(0.05030413 1.658393e-08 0)
(0.050107727 1.5687236e-08 0)
(0.049921726 1.4871854e-08 0)
(0.049745196 1.4129913e-08 0)
(0.04957728 1.3453787e-08 0)
(0.049417231 1.2834205e-08 0)
(0.049264417 1.2263672e-08 0)
(0.049118275 1.1737681e-08 0)
(0.048978283 1.1252374e-08 0)
(0.048843971 1.0802918e-08 0)
(0.048714936 1.0384899e-08 0)
(0.048590814 9.9956822e-09 0)
(0.048471266 9.6342321e-09 0)
(0.048355955 9.2985316e-09 0)
(0.048244591 8.9913649e-09 0)
(0.048136769 8.7020628e-09 0)
(0.048032459 8.4701433e-09 0)
(0.047930292 8.2089515e-09 0)
(0.047832356 8.2064157e-09 0)
(0.04773025 7.7833214e-09 0)
(0.047642648 9.5201528e-09 0)
(0.047497688 5.9722813e-09 0)
(1 6.5955448e-10 0)
(0.99999454 1.7658894e-09 0)
(0.99998643 2.4687309e-09 0)
(0.99997763 3.077506e-09 0)
(0.99996786 3.912017e-09 0)
(0.99995683 5.004974e-09 0)
(0.99994439 6.387639e-09 0)
(0.99993041 8.1473641e-09 0)
(0.99991466 1.0414244e-08 0)
(0.99989684 1.3356869e-08 0)
(0.99987658 1.7199372e-08 0)
(0.99985342 2.2255614e-08 0)
(0.99982672 2.8975121e-08 0)
(0.99979567 3.8041412e-08 0)
(0.99975908 5.0452533e-08 0)
(0.99971531 6.8054893e-08 0)
(0.99966152 9.3106878e-08 0)
(0.99959441 1.3344974e-07 0)
(0.99950363 1.9029736e-07 0)
(0.99938689 3.2337174e-07 0)
(0.99917735 4.7162972e-07 0)
(0.99893597 1.4347271e-06 0)
(0.99788167 4.7851523e-07 0)
(0.99848183 0.0010301995 0)
(0.24571973 0.0010994997 0)
(0.13683118 7.6888361e-05 0)
(0.12236119 1.1044062e-05 0)
(0.11759291 4.4234956e-06 4.3515808e-21)
(0.11456004 3.1287053e-06 0)
(0.112029 2.6547198e-06 0)
(0.10980042 2.328433e-06 0)
(0.10781646 2.060095e-06 0)
(0.10603734 1.8382543e-06 0)
(0.10442511 1.6570067e-06 0)
(0.10294919 1.506877e-06 0)
(0.10158742 1.3795455e-06 0)
(0.10032347 1.2695458e-06 0)
(0.099144523 1.1734473e-06 0)
(0.09804008 1.0888215e-06 0)
(0.097001391 1.0137933e-06 0)
(0.096021065 9.468477e-07 0)
(0.095092885 8.8674774e-07 0)
(0.094211536 8.3247652e-07 0)
(0.093372528 7.8315037e-07 0)
(0.092572059 7.3810018e-07 0)
(0.091806783 6.9673908e-07 0)
(0.091073906 6.5859369e-07 0)
(0.090370893 6.2336973e-07 0)
(0.089695421 5.9071014e-07 0)
(0.089045566 5.6031826e-07 0)
(0.088419518 5.3204958e-07 0)
(0.087815552 5.0569651e-07 0)
(0.087232199 4.810304e-07 0)
(0.086668146 4.5793963e-07 0)
(0.086122082 4.3633503e-07 0)
(0.085592807 4.1603972e-07 0)
(0.085079335 3.9691842e-07 0)
(0.084580709 3.7893785e-07 0)
(0.08409595 3.6202559e-07 0)
(0.083624201 3.4604496e-07 0)
(0.083164752 3.3091109e-07 0)
(0.082716904 3.1661267e-07 0)
(0.082279914 3.0310714e-07 0)
(0.081853127 2.9028834e-07 0)
(0.081436027 2.7808975e-07 0)
(0.081028095 2.6650999e-07 0)
(0.080628767 2.5552525e-07 0)
(0.080237534 2.4506919e-07 0)
(0.079853976 2.3508426e-07 0)
(0.079477711 2.2555243e-07 0)
(0.079108336 2.1646967e-07 0)
(0.078745432 2.0781054e-07 0)
(0.078388629 1.9951933e-07 0)
(0.078037653 1.9156396e-07 0)
(0.077692207 1.8394967e-07 0)
(0.077351961 1.7666834e-07 0)
(0.077016604 1.6968918e-07 0)
(0.076685879 1.6297729e-07 0)
(0.076359571 1.5651991e-07 0)
(0.076037443 1.5032157e-07 0)
(0.075719228 1.4437623e-07 0)
(0.075404674 1.3865476e-07 0)
(0.0750936 1.3313318e-07 0)
(0.074785828 1.2781168e-07 0)
(0.074481152 1.2269249e-07 0)
(0.074179348 1.1776829e-07 0)
(0.073880206 1.130144e-07 0)
(0.073583594 1.0841541e-07 0)
(0.073289355 1.0397783e-07 0)
(0.072997292 9.9702166e-08 0)
(0.072707212 9.5577959e-08 0)
(0.072418943 9.1588103e-08 0)
(0.072132361 8.7724539e-08 0)
(0.071847316 8.3993316e-08 0)
(0.071563615 8.0394824e-08 0)
(0.071281072 7.6915173e-08 0)
(0.070999552 7.3542607e-08 0)
(0.070718922 7.027902e-08 0)
(0.070439005 6.7127826e-08 0)
(0.070159604 6.4083676e-08 0)
(0.069880545 6.1134767e-08 0)
(0.069601694 5.8276246e-08 0)
(0.069322887 5.5512953e-08 0)
(0.06904391 5.2844112e-08 0)
(0.068764559 5.025927e-08 0)
(0.068484683 4.7753045e-08 0)
(0.068204099 4.5329546e-08 0)
(0.067922563 4.2988227e-08 0)
(0.067639847 4.0720478e-08 0)
(0.067355764 3.8522575e-08 0)
(0.067070086 3.639898e-08 0)
(0.066782506 3.4342179e-08 0)
(0.066492854 3.2357428e-08 0)
(0.066207209 3.0488876e-08 0)
(0.065934452 2.8775508e-08 0)
(0.065676719 2.7219787e-08 0)
(0.065432634 2.5805105e-08 0)
(0.065200974 2.4517806e-08 0)
(0.064980616 2.3344677e-08 0)
(0.064770582 2.2269645e-08 0)
(0.064570041 2.1279703e-08 0)
(0.064378255 2.0367034e-08 0)
(0.06419454 1.9524958e-08 0)
(0.064018278 1.8745092e-08 0)
(0.06384894 1.8019769e-08 0)
(0.063686049 1.7344411e-08 0)
(0.063529162 1.6717228e-08 0)
(0.063377835 1.6134721e-08 0)
(0.063231686 1.560171e-08 0)
(0.063090186 1.5099694e-08 0)
(0.062953295 1.4697113e-08 0)
(0.062819221 1.4243837e-08 0)
(0.062690693 1.4238789e-08 0)
(0.062556724 1.35099e-08 0)
(0.062441753 1.6526221e-08 -2.5338205e-22)
(0.062251499 1.0359006e-08 3.6829881e-23)
(1 8.3436829e-10 0)
(0.99999442 2.2358211e-09 0)
(0.99998612 3.1275265e-09 0)
(0.9999771 3.8988598e-09 0)
(0.99996709 4.9556361e-09 0)
(0.99995579 6.3392703e-09 0)
(0.99994305 8.0889517e-09 0)
(0.99992874 1.0314966e-08 0)
(0.99991263 1.3181654e-08 0)
(0.99989441 1.6901841e-08 0)
(0.99987371 2.175832e-08 0)
(0.99985004 2.8147019e-08 0)
(0.9998228 3.6634901e-08 0)
(0.99979112 4.8083913e-08 0)
(0.99975381 6.3752187e-08 0)
(0.99970921 8.5967394e-08 0)
(0.99965444 1.1757336e-07 0)
(0.99958616 1.6845474e-07 0)
(0.99949387 2.4011237e-07 0)
(0.99937531 4.0781475e-07 0)
(0.9991627 5.9451703e-07 0)
(0.99891807 1.8081241e-06 0)
(0.99784964 6.0780054e-07 0)
(0.99845122 0.001246188 0)
(0.29974047 0.00135088 0)
(0.17117797 0.00011682997 0)
(0.15312148 1.7376544e-05 0)
(0.14714416 6.9680507e-06 0)
(0.14334877 4.9261997e-06 0)
(0.14018453 4.1780024e-06 0)
(0.13739934 3.6639907e-06 0)
(0.13491991 3.2417785e-06 0)
(0.13269622 2.8928066e-06 0)
(0.13068096 2.6076307e-06 0)
(0.12883602 2.3713895e-06 0)
(0.12713371 2.1710201e-06 0)
(0.12555363 1.9979198e-06 0)
(0.12407979 1.8466855e-06 0)
(0.12269907 1.7134995e-06 0)
(0.12140056 1.5954172e-06 0)
(0.120175 1.4900584e-06 0)
(0.11901463 1.3954777e-06 0)
(0.11791279 1.3100738e-06 0)
(0.11686387 1.2324566e-06 -5.9663138e-33)
(0.1158631 1.1615704e-06 0)
(0.1149063 1.0964921e-06 0)
(0.11398999 1.0364762e-06 0)
(0.11311098 9.8105609e-07 0)
(0.11226637 9.2967241e-07 0)
(0.11145376 8.8185784e-07 0)
(0.11067089 8.3738205e-07 0)
(0.1099156 7.9592009e-07 0)
(0.10918606 7.5711319e-07 0)
(0.10848063 7.2078376e-07 0)
(0.10779766 6.8679102e-07 0)
(0.10713567 6.5485895e-07 0)
(0.10649341 6.2477422e-07 0)
(0.1058697 5.9648256e-07 0)
(0.10526331 5.698709e-07 0)
(0.10467317 5.4472581e-07 0)
(0.1040984 5.20913e-07 0)
(0.10353811 4.9841334e-07 0)
(0.10299139 4.7716052e-07 0)
(0.10245742 4.5698893e-07 0)
(0.10193555 4.3779338e-07 0)
(0.10142513 4.1957046e-07 0)
(0.10092545 4.0228322e-07 0)
(0.10043589 3.8582816e-07 0)
(0.09995592 3.7011471e-07 0)
(0.099485057 3.5511383e-07 0)
(0.099022799 3.4081895e-07 0)
(0.098568625 3.271905e-07 0)
(0.098122074 3.1414142e-07 0)
(0.097682798 3.0162088e-07 0)
(0.09725043 2.8963649e-07 0)
(0.096824557 2.7817576e-07 0)
(0.09640479 2.6719064e-07 0)
(0.095990808 2.5662634e-07 0)
(0.095582341 2.4646242e-07 0)
(0.095179094 2.3670576e-07 0)
(0.094780733 2.2734709e-07 0)
(0.094386943 2.1834089e-07 0)
(0.093997497 2.0964942e-07 0)
(0.093612173 2.0127256e-07 0)
(0.093230712 1.9321387e-07 0)
(0.092852836 1.8546197e-07 0)
(0.092478284 1.7797829e-07 0)
(0.092106885 1.7073843e-07 0)
(0.091738446 1.6375234e-07 0)
(0.091372721 1.5702095e-07 0)
(0.091009469 1.5052795e-07 0)
(0.090648473 1.4424648e-07 0)
(0.090289577 1.3816376e-07 0)
(0.089932596 1.3228915e-07 0)
(0.089577288 1.2662336e-07 0)
(0.089223419 1.211447e-07 0)
(0.08887082 1.158346e-07 0)
(0.088519325 1.1069592e-07 0)
(0.088168711 1.0573407e-07 0)
(0.087818733 1.009407e-07 0)
(0.087469173 9.6297278e-08 0)
(0.087119862 9.1796097e-08 0)
(0.086770597 8.7444721e-08 0)
(0.086421105 8.324199e-08 0)
(0.086071136 7.9171502e-08 0)
(0.085720497 7.5224744e-08 0)
(0.08536896 7.1408144e-08 0)
(0.08501622 6.7720889e-08 0)
(0.084661989 6.4149448e-08 0)
(0.084306034 6.0687934e-08 0)
(0.083948069 5.7343362e-08 0)
(0.083587709 5.410394e-08 0)
(0.08322474 5.0977977e-08 0)
(0.08286678 4.8034914e-08 0)
(0.082524961 4.5336085e-08 0)
(0.082201962 4.2885448e-08 0)
(0.081896061 4.0656884e-08 0)
(0.081605729 3.8628931e-08 0)
(0.081329558 3.6780775e-08 0)
(0.081066322 3.508713e-08 0)
(0.080814983 3.3527506e-08 0)
(0.080574616 3.2089605e-08 0)
(0.080344361 3.0762926e-08 0)
(0.080123447 2.9534259e-08 0)
(0.079911209 2.8391509e-08 0)
(0.079707053 2.7327463e-08 0)
(0.079510418 2.6339315e-08 0)
(0.079320752 2.5421555e-08 0)
(0.079137576 2.4581748e-08 0)
(0.078960226 2.379077e-08 0)
(0.078788652 2.3156214e-08 0)
(0.078620616 2.244206e-08 0)
(0.07845952 2.2432878e-08 0)
(0.078291647 2.1284118e-08 0)
(0.078147534 2.604602e-08 0)
(0.077909052 1.631363e-08 -2.0997297e-23)
(1 1.0263111e-09 0)
(0.99999429 2.7527871e-09 0)
(0.99998577 3.8532474e-09 0)
(0.9999765 4.8037416e-09 0)
(0.99996622 6.1051602e-09 0)
(0.99995461 7.8085266e-09 0)
(0.99994155 9.9615667e-09 0)
(0.99992686 1.2699639e-08 0)
(0.99991034 1.6224577e-08 0)
(0.99989167 2.079756e-08 0)
(0.99987047 2.676544e-08 0)
(0.99984625 3.4613715e-08 0)
(0.99981838 4.5037476e-08 0)
(0.999786 5.9093266e-08 0)
(0.99974789 7.8322641e-08 0)
(0.99970236 1.0557778e-07 0)
(0.99964649 1.4433894e-07 0)
(0.9995769 2.0671757e-07 0)
(0.99948292 2.9451269e-07 0)
(0.99936232 4.999255e-07 0)
(0.9991463 7.2842749e-07 0)
(0.99889807 2.2147454e-06 0)
(0.99781402 7.5091047e-07 0)
(0.99841705 0.0014608224 0)
(0.35425395 0.0016098482 0)
(0.20783342 0.00016710746 0)
(0.18599702 2.5727306e-05 0)
(0.1787223 1.0335245e-05 -1.1426001e-20)
(0.17411631 7.300354e-06 6.4869362e-21)
(0.1702808 6.1884748e-06 0)
(0.16690588 5.4263957e-06 0)
(0.16390133 4.8012362e-06 0)
(0.16120626 4.2846512e-06 0)
(0.1587635 3.8624062e-06 0)
(0.15652699 3.5125669e-06 0)
(0.15446322 3.2158354e-06 0)
(0.1525475 2.959473e-06 0)
(0.1507605 2.7354738e-06 0)
(0.14908636 2.5381918e-06 0)
(0.14751185 2.3632778e-06 0)
(0.14602576 2.2072146e-06 0)
(0.14461867 2.0671233e-06 0)
(0.14328252 1.9406307e-06 0)
(0.14201048 1.8256786e-06 6.4047675e-33)
(0.14079679 1.7206999e-06 0)
(0.13963637 1.6243273e-06 0)
(0.13852498 1.5354552e-06 0)
(0.13745877 1.453388e-06 0)
(0.13643425 1.3773003e-06 0)
(0.13544847 1.3064993e-06 0)
(0.1344987 1.2406394e-06 0)
(0.13358234 1.1792419e-06 0)
(0.13269717 1.1217771e-06 0)
(0.13184119 1.067979e-06 0)
(0.13101242 1.0176385e-06 0)
(0.13020906 9.7035021e-07 0)
(0.1294296 9.2579757e-07 0)
(0.1286726 8.8389737e-07 0)
(0.12793658 8.4448353e-07 0)
(0.12722025 8.0724243e-07 0)
(0.12652253 7.7197416e-07 0)
(0.12584236 7.3864831e-07 0)
(0.12517862 7.0716774e-07 0)
(0.12453033 6.7728937e-07 0)
(0.12389669 6.4885662e-07 0)
(0.12327692 6.2186264e-07 0)
(0.12267017 5.9625342e-07 0)
(0.12207568 5.7187706e-07 0)
(0.1214928 5.4859946e-07 0)
(0.12092095 5.2637654e-07 0)
(0.12035953 5.0519829e-07 0)
(0.1198079 4.8500675e-07 0)
(0.1192655 4.6567394e-07 0)
(0.11873192 4.4712404e-07 0)
(0.1182067 4.2936736e-07 0)
(0.11768935 4.1238584e-07 0)
(0.11717939 3.9610894e-07 0)
(0.11667644 3.8045571e-07 0)
(0.11618017 3.6539532e-07 0)
(0.11569022 3.5093758e-07 0)
(0.11520618 3.3706909e-07 0)
(0.11472768 3.23723e-07 0)
(0.11425443 3.108433e-07 0)
(0.11378617 2.9842928e-07 0)
(0.11332259 2.8648624e-07 0)
(0.11286335 2.7499753e-07 0)
(0.11240812 2.6390643e-07 0)
(0.11195671 2.5317656e-07 0)
(0.11150888 2.4282229e-07 0)
(0.11106432 2.3284511e-07 0)
(0.11062276 2.2322111e-07 0)
(0.11018392 2.1391064e-07 0)
(0.10974761 2.0489456e-07 0)
(0.10931361 1.9618654e-07 0)
(0.10888163 1.8778778e-07 0)
(0.10845138 1.7966635e-07 0)
(0.10802266 1.717947e-07 0)
(0.10759526 1.6417688e-07 0)
(0.10716891 1.5682092e-07 0)
(0.10674332 1.4971459e-07 0)
(0.10631822 1.4283048e-07 0)
(0.10589341 1.3615709e-07 0)
(0.10546863 1.2970554e-07 0)
(0.10504356 1.2347419e-07 0)
(0.10461789 1.1743883e-07 0)
(0.10419138 1.1158678e-07 0)
(0.10376377 1.0592752e-07 0)
(0.10333467 1.004599e-07 0)
(0.10290374 9.5163894e-08 0)
(0.1024707 9.003076e-08 0)
(0.10203519 8.5070885e-08 0)
(0.10159675 8.0266839e-08 0)
(0.10115511 7.563099e-08 0)
(0.10071955 7.1266185e-08 0)
(0.10030361 6.7263266e-08 0)
(0.099910565 6.362821e-08 0)
(0.099538312 6.0322395e-08 0)
(0.099184997 5.731401e-08 0)
(0.098848909 5.4572253e-08 0)
(0.098528558 5.2059644e-08 0)
(0.098222681 4.9745802e-08 0)
(0.097930154 4.761252e-08 0)
(0.097649931 4.5644251e-08 0)
(0.097381073 4.3821387e-08 0)
(0.097122772 4.212596e-08 0)
(0.096874303 4.054728e-08 0)
(0.096634988 3.9081202e-08 0)
(0.096404152 3.7719558e-08 0)
(0.096181213 3.6473519e-08 0)
(0.095965365 3.5299923e-08 0)
(0.095756543 3.4358006e-08 0)
(0.095552036 3.3298517e-08 0)
(0.095355962 3.3282834e-08 0)
(0.095151693 3.1576884e-08 -3.5924446e-23)
(0.094976278 3.8654844e-08 0)
(0.094685985 2.4197808e-08 0)
(1 1.2394152e-09 0)
(0.99999415 3.3280207e-09 0)
(0.99998537 4.6620171e-09 0)
(0.99997582 5.8123053e-09 0)
(0.99996524 7.3861218e-09 0)
(0.99995329 9.4452395e-09 0)
(0.99993984 1.2046665e-08 0)
(0.99992474 1.5353465e-08 0)
(0.99990776 1.9608969e-08 0)
(0.99988858 2.5127794e-08 0)
(0.99986681 3.2327496e-08 0)
(0.99984197 4.1792386e-08 0)
(0.99981339 5.4358835e-08 0)
(0.99978022 7.1297871e-08 0)
(0.99974121 9.4463168e-08 0)
(0.99969464 1.2728458e-07 0)
(0.99963754 1.739413e-07 0)
(0.99956649 2.48997e-07 0)
(0.99947061 3.5456134e-07 0)
(0.99934774 6.0147084e-07 0)
(0.99912791 8.7588769e-07 0)
(0.99887568 2.6621538e-06 0)
(0.99777436 9.1119365e-07 0)
(0.99837881 0.0016744387 -1.3360471e-54)
(0.40918664 0.0018778824 1.0540224e-53)
(0.24710523 0.00022878387 -5.9513108e-19)
(0.22128798 3.6559265e-05 0)
(0.2126215 1.4720953e-05 -1.3340406e-20)
(0.20715538 1.0384694e-05 0)
(0.20261012 8.7980817e-06 0)
(0.19861198 7.713685e-06 0)