/*--------------------------------*- C++ -*----------------------------------*\
  =========                 |
  \\      /  F ield         | OpenFOAM: The Open Source CFD Toolbox
   \\    /   O peration     | Website:  https://openfoam.org
    \\  /    A nd           | Version:  12
     \\/     M anipulation  |
\*---------------------------------------------------------------------------*/
FoamFile
{
    format      ascii;
    class       volScalarField;
    location    "1700";
    object      epsilon;
}
// * * * * * * * * * * * * * * * * * * * * * * * * * * * * * * * * * * * * * //

dimensions      [0 2 -3 0 0 0 0];

internalField   nonuniform List<scalar> 
7480
(
0.016630533
0.067963698
0.16533623
0.29549947
0.43375877
0.55767041
0.65391722
0.71872124
0.75494483
0.7685184
0.76583124
0.75238563
0.73238192
0.70878681
0.68358404
0.65805513
0.63303435
0.60909484
0.58661538
0.56586853
0.54706885
0.53039495
0.51598739
0.50393665
0.49426979
0.48689991
0.48152886
0.47773513
0.47495751
0.47259874
0.47017336
0.46740195
0.46421462
0.4607015
0.45700308
0.45323012
0.44942942
0.44559564
0.44170541
0.43774943
0.43374637
0.42973369
0.42574991
0.4218196
0.41795108
0.41414426
0.4103987
0.40671578
0.40309713
0.39954333
0.39605358
0.39262599
0.38925861
0.38595019
0.38269958
0.37950498
0.37636438
0.37327637
0.37024021
0.367254
0.36431597
0.36142454
0.35857826
0.35577588
0.35301639
0.35029874
0.34762187
0.34498478
0.34238641
0.33982575
0.33730185
0.33481375
0.33236052
0.32994128
0.32755517
0.32520138
0.32287909
0.32058753
0.31832594
0.3160936
0.31388978
0.31171381
0.30956501
0.30744274
0.30534634
0.30327519
0.30122868
0.29920614
0.297207
0.29523046
0.29327608
0.29134237
0.28942991
0.28753365
0.28566037
0.28378726
0.28195349
0.280031
0.27842662
0.27544676
0.00023083863
0.0010238696
0.0033398636
0.0078619564
0.014521978
0.022907013
0.032095798
0.040940917
0.048643773
0.054855954
0.05955616
0.063036224
0.065800953
0.068377324
0.071302739
0.075142538
0.080777597
0.08841436
0.096801218
0.10594954
0.116056
0.12723004
0.13937724
0.15215132
0.16513573
0.17766287
0.18886886
0.19791916
0.20420073
0.20752604
0.20818705
0.20682817
0.20422692
0.20108513
0.19788622
0.19485573
0.19202568
0.18933853
0.18673158
0.18418125
0.18170355
0.17932871
0.17707504
0.17494349
0.17291864
0.17098146
0.16911771
0.16731856
0.16557737
0.16388781
0.16224424
0.16064224
0.15907838
0.15754967
0.15605351
0.15458772
0.15315061
0.1517409
0.15035719
0.14899896
0.14766515
0.14635479
0.14506713
0.14380155
0.14255752
0.14133452
0.14013198
0.13894939
0.13778625
0.13664204
0.13551632
0.13440863
0.13331855
0.13224567
0.13118956
0.13014983
0.1291261
0.12811798
0.12712511
0.1261471
0.12518362
0.12423431
0.12329882
0.12237683
0.121468
0.120572
0.11968853
0.11881727
0.1179579
0.1171101
0.11627355
0.11544787
0.11463279
0.11382758
0.11303233
0.11224473
0.11146813
0.11068094
0.10998282
0.10879093
2.4422303e-05
6.0085798e-05
0.00012788379
0.00023324808
0.00037741989
0.00056169091
0.00078548735
0.0010444385
0.0013306118
0.0016333725
0.0019408825
0.0022426732
0.00253216
0.002808326
0.0030774656
0.0033534357
0.0036658796
0.0040547778
0.0045617228
0.0052386721
0.0061527978
0.0073887981
0.0090724253
0.011468484
0.014771644
0.019239663
0.025710626
0.033463298
0.042229439
0.051690179
0.061318725
0.070518448
0.078719451
0.085442728
0.090423121
0.093680462
0.095467921
0.096175529
0.096211361
0.095908047
0.095472132
0.09499159
0.094482944
0.09393313
0.093336324
0.092702399
0.092048956
0.091390347
0.090732746
0.090076227
0.089419292
0.088761474
0.088103324
0.087445461
0.086788194
0.086131686
0.085476164
0.084821958
0.084169343
0.08351865
0.082870396
0.082225083
0.081583154
0.080945026
0.080311097
0.079681727
0.079057217
0.078437829
0.077823795
0.077215321
0.076612589
0.076015762
0.075424983
0.074840373
0.074262031
0.073690034
0.073124441
0.072565295
0.07201262
0.071466427
0.070926715
0.070393467
0.069866657
0.069346247
0.068832191
0.068324434
0.067822913
0.067327561
0.066838297
0.066355044
0.065877696
0.065406173
0.064940294
0.064480049
0.064024973
0.063575383
0.063130669
0.062684418
0.062287091
0.061605275
1.0745681e-05
1.6519638e-05
2.5734856e-05
3.8222574e-05
5.3740465e-05
7.2118639e-05
9.3216324e-05
0.0001168384
0.0001426994
0.00017042647
0.00019957555
0.00022967057
0.00026025802
0.00029097036
0.00032159015
0.00035207388
0.00038273593
0.00041422533
0.00044776464
0.00048529077
0.00052928787
0.00058374035
0.00065399527
0.00074889992
0.00088226298
0.0010724328
0.0013658619
0.0018121598
0.0024804699
0.0034523691
0.0048946193
0.0069738817
0.0098333873
0.013933216
0.018855896
0.024337986
0.030025032
0.035561504
0.040602184
0.04486623
0.04821384
0.050664613
0.052364345
0.053519322
0.054326335
0.054923569
0.05538245
0.055728315
0.055969291
0.056115411
0.056182671
0.056188003
0.056144142
0.056058796
0.055936873
0.055782568
0.055599976
0.055392817
0.055164184
0.054916591
0.054652308
0.054373443
0.054081907
0.053779408
0.05346747
0.053147458
0.052820587
0.052487954
0.052150542
0.051809237
0.051464842
0.051118085
0.050769626
0.050420062
0.050069929
0.049719711
0.049369841
0.049020707
0.048672656
0.048325997
0.047981004
0.047637918
0.047296953
0.046958295
0.046622104
0.046288521
0.045957666
0.045629642
0.045304532
0.044982412
0.044663323
0.04434734
0.044034408
0.043724729
0.043417886
0.043114717
0.042814122
0.04251358
0.042246814
0.041785077
8.331333e-06
9.9369697e-06
1.2491807e-05
1.5854819e-05
1.9901689e-05
2.4546442e-05
2.9732494e-05
3.5417326e-05
4.156118e-05
4.8121346e-05
5.5050262e-05
6.2295704e-05
6.980273e-05
7.7517088e-05
8.5389997e-05
9.3380793e-05
0.00010146629
0.00010964527
0.00011794869
0.00012646382
0.00013531167
0.00014472118
0.0001549939
0.0001665773
0.00018016079
0.00019659647
0.00021751226
0.00024514981
0.00028272964
0.00033477424
0.00040899737
0.00051809163
0.00067983304
0.00093600339
0.0013391572
0.0019477762
0.002895355
0.0042795111
0.0062320385
0.0089093507
0.012099577
0.015597736
0.019174496
0.022600809
0.025675268
0.028276098
0.030374862
0.032025161
0.033325723
0.034375613
0.035245426
0.035973212
0.036577188
0.037070323
0.037467179
0.037782994
0.038030639
0.038219559
0.038356841
0.038448469
0.038499873
0.038515893
0.038500681
0.038457805
0.038390408
0.038301289
0.038192926
0.038067517
0.03792702
0.037773188
0.037607597
0.037431663
0.037246666
0.037053759
0.036853985
0.036648285
0.03643751
0.036222427
0.036003733
0.035782053
0.035557953
0.035331944
0.035104484
0.034875985
0.034646818
0.034417316
0.034187776
0.033958468
0.033729627
0.033501473
0.033274182
0.033047953
0.032822861
0.032599211
0.032376752
0.032156369
0.031937205
0.031717755
0.031524342
0.03118495
7.683087e-06
8.2129663e-06
9.1403427e-06
1.0422864e-05
1.1999455e-05
1.381983e-05
1.5849043e-05
1.8063606e-05
2.0446647e-05
2.2984608e-05
2.5665439e-05
2.8477381e-05
3.1408509e-05
3.4446642e-05
3.7579725e-05
4.079617e-05
4.408574e-05
4.7440402e-05
5.0855386e-05
5.4332396e-05
5.7879031e-05
6.151454e-05
6.5270647e-05
6.9195116e-05
7.3361971e-05
7.7868981e-05
8.2863957e-05
8.8571235e-05
9.528945e-05
0.00010342647
0.00011353225
0.00012648854
0.00014336066
0.00016613534
0.0001977893
0.00024234404
0.00030737892
0.00040411322
0.0005510684
0.00078407689
0.0011460525
0.0017184399
0.0025836878
0.0038339239
0.0055591824
0.0076528795
0.0099819551
0.012401398
0.014758925
0.016924855
0.018820545
0.020426982
0.021773326
0.022909631
0.023881325
0.024718068
0.025436918
0.026050289
0.026570652
0.027010424
0.027380326
0.027688866
0.027942994
0.028148818
0.028311818
0.028436794
0.028527901
0.028588792
0.028622714
0.02863255
0.028620873
0.028589976
0.02854192
0.028478554
0.028401542
0.028312386
0.028212439
0.028102926
0.027984952
0.027859518
0.027727529
0.027589803
0.027447082
0.027300035
0.027149267
0.026995326
0.02683871
0.026679865
0.026519198
0.026357077
0.026193826
0.026029767
0.025865116
0.025700257
0.025535129
0.025370571
0.025206082
0.025040431
0.024895581
0.024636574
7.472364e-06
7.6513154e-06
8.0080632e-06
8.5531362e-06
9.2682026e-06
1.0127172e-05
1.1107012e-05
1.21904e-05
1.3365122e-05
1.4622421e-05
1.5955493e-05
1.7358755e-05
1.8827329e-05
2.0356705e-05
2.1942569e-05
2.3580738e-05
2.526722e-05
2.6998334e-05
2.8770879e-05
3.0582666e-05
3.2432735e-05
3.4322122e-05
3.6254556e-05
3.8237023e-05
4.0281516e-05
4.2405857e-05
4.4635706e-05
4.7009758e-05
4.9580909e-05
5.2422482e-05
5.5623051e-05
5.9321398e-05
6.3666938e-05
6.8885758e-05
7.5306168e-05
8.3367012e-05
9.3719281e-05
0.00010729102
0.00012540773
0.00015032337
0.00018535635
0.00023648406
0.00031292814
0.00042976276
0.00061485209
0.00090161822
0.0013611025
0.0020483568
0.0030659466
0.0043773553
0.005925626
0.0076218631
0.0093621978
0.011044788
0.012593068
0.01396906
0.01517191
0.01622193
0.017142664
0.017951448
0.018659754
0.019277131
0.01981329
0.020277641
0.020678362
0.021022303
0.02131543
0.021563111
0.021770135
0.021940725
0.022078624
0.022187176
0.022269377
0.022327908
0.022365178
0.022383354
0.022384388
0.022370044
0.022341913
0.022301436
0.022249916
0.022188531
0.02211835
0.022040341
0.021955381
0.021864266
0.021767716
0.021666389
0.021560876
0.021451721
0.021339405
0.021224393
0.021107048
0.020987847
0.020866915
0.020745052
0.020622094
0.020496941
0.020388265
0.02018885
7.3855695e-06
7.4462196e-06
7.5806179e-06
7.8115592e-06
8.1444479e-06
8.5725866e-06
9.0846659e-06
9.6694789e-06
1.0317758e-05
1.1022363e-05
1.1777835e-05
1.2579947e-05
1.3425313e-05
1.4311128e-05
1.5234954e-05
1.6194595e-05
1.7188014e-05
1.8213309e-05
1.9268711e-05
2.0352673e-05
2.1463952e-05
2.2601759e-05
2.3765975e-05
2.495735e-05
2.6177876e-05
2.7431212e-05
2.8723025e-05
3.0061994e-05
3.1460411e-05
3.2935746e-05
3.4509593e-05
3.6211249e-05
3.8086122e-05
4.0190771e-05
4.2590894e-05
4.5377279e-05
4.8665929e-05
5.2615714e-05
5.7423405e-05
6.337484e-05
7.0867788e-05
8.0528438e-05
9.3268915e-05
0.00011042904
0.00013424474
0.00016798936
0.00021811472
0.00029351164
0.00041260805
0.00059867571
0.00089463876
0.0013486731
0.0020314674
0.0029393547
0.0040431807
0.0052869316
0.0065980772
0.0079013406
0.0091350339
0.010263977
0.011279366
0.012187909
0.012999943
0.013723861
0.0143664
0.014934329
0.015434746
0.015874376
0.016259162
0.016594394
0.016884897
0.017135057
0.017348813
0.017529707
0.017680938
0.017805394
0.017905685
0.01798417
0.018042982
0.018084054
0.018109136
0.018119815
0.018117531
0.018103588
0.018079173
0.018045361
0.018003131
0.017953371
0.01789689
0.017834423
0.017766634
0.017694147
0.017617484
0.017537236
0.01745371
0.017367706
0.01727934
0.01718769
0.017108514
0.016957495
7.3331788e-06
7.3553061e-06
7.4047129e-06
7.4982739e-06
7.6477544e-06
7.8573759e-06
8.1255142e-06
8.4475676e-06
8.8181455e-06
9.2322082e-06
9.685461e-06
1.0174386e-05
1.069613e-05
1.124837e-05
1.1829176e-05
1.2436906e-05
1.3070125e-05
1.3727542e-05
1.4407984e-05
1.511039e-05
1.5833824e-05
1.6577503e-05
1.7340866e-05
1.8123642e-05
1.8925962e-05
1.9748527e-05
2.0592731e-05
2.1460929e-05
2.2356668e-05
2.3285176e-05
2.4253344e-05
2.5270134e-05
2.6348529e-05
2.7506008e-05
2.8763176e-05
3.0146608e-05
3.1688806e-05
3.3430175e-05
3.5425142e-05
3.7750936e-05
4.0493209e-05
4.3771089e-05
4.7752375e-05
5.2661722e-05
5.8808149e-05
6.6629743e-05
7.6880346e-05
9.0571394e-05
0.00010950231
0.00013627407
0.00017564457
0.00023472276
0.00032742897
0.00047203368
0.00070145394
0.0010560607
0.0015829788
0.0022839762
0.0031378052
0.0041055014
0.0051328177
0.006162823
0.0071498292
0.0080679699
0.0089090531
0.0096741898
0.010366869
0.010990674
0.011549663
0.0120486
0.012492443
0.012885879
0.013233264
0.013538673
0.013805896
0.014038408
0.014239393
0.01441176
0.014558166
0.014681033
0.014782569
0.014864782
0.014929504
0.0149784
0.015012989
0.015034652
0.015044648
0.015044122
0.015034117
0.015015587
0.014989394
0.014956339
0.014917121
0.014872463
0.014822854
0.014769134
0.01471165
0.01464975
0.014596394
0.014487528
7.2872598e-06
7.2975498e-06
7.3167359e-06
7.3535386e-06
7.4172401e-06
7.5147949e-06
7.6497173e-06
7.8225219e-06
8.0317906e-06
8.2751735e-06
8.5500655e-06
8.8539758e-06
9.1846796e-06
9.5402565e-06
9.9190683e-06
1.0319715e-05
1.074099e-05
1.1181835e-05
1.164131e-05
1.2118577e-05
1.2612885e-05
1.3123576e-05
1.3650094e-05
1.4192013e-05
1.4749075e-05
1.532125e-05
1.5908797e-05
1.6512349e-05
1.7133012e-05
1.777253e-05
1.8433367e-05
1.9118804e-05
1.9833382e-05
2.0583388e-05
2.1376662e-05
2.2223148e-05
2.3135065e-05
2.4127206e-05
2.5217884e-05
2.6431912e-05
2.7798269e-05
2.9351579e-05
3.1138458e-05
3.3212776e-05
3.5666679e-05
3.8598884e-05
4.2158507e-05
4.6540057e-05
5.20455e-05
5.9066191e-05
6.8264466e-05
8.0572e-05
9.7614647e-05
0.00012179052
0.00015736584
0.00021112805
0.00029528981
0.00042593224
0.00063323213
0.00095362011
0.0014090647
0.0020006514
0.0027104952
0.0035049141
0.0043400577
0.0051729837
0.0059725624
0.0067224296
0.0074166946
0.008054213
0.0086355622
0.00916248
0.0096377416
0.010064675
0.010446721
0.01078727
0.011089621
0.011356924
0.011592137
0.011798023
0.011977142
0.012131861
0.012264361
0.012376646
0.012470554
0.012547769
0.012609835
0.012658163
0.012694043
0.012718655
0.012733074
0.012738294
0.012735201
0.012724667
0.012707367
0.012684216
0.012655749
0.012621684
0.012592187
0.012522049
7.239685e-06
7.2464322e-06
7.2557182e-06
7.271073e-06
7.2976567e-06
7.3408728e-06
7.405159e-06
7.4933871e-06
7.606855e-06
7.7456279e-06
7.9089745e-06
8.0957451e-06
8.3046318e-06
8.5343271e-06
8.7836033e-06
9.0513435e-06
9.3365468e-06
9.6383195e-06
9.9558625e-06
1.028846e-05
1.0635472e-05
1.0996324e-05
1.1370514e-05
1.1757615e-05
1.2157286e-05
1.2569305e-05
1.2993584e-05
1.3430211e-05
1.3879486e-05
1.434199e-05
1.4818632e-05
1.5310696e-05
1.5819968e-05
1.6348947e-05
1.6900899e-05
1.7480022e-05
1.8091576e-05
1.8741985e-05
1.9438987e-05
2.0192501e-05
2.1014591e-05
2.1919189e-05
2.2924023e-05
2.4048975e-05
2.5322992e-05
2.6779692e-05
2.8463175e-05
3.0428033e-05
3.2746487e-05
3.5533179e-05
3.8933675e-05
4.3142111e-05
4.8457869e-05
5.529562e-05
6.4306307e-05
7.648384e-05
9.3490345e-05
0.00011785255
0.0001540127
0.00020972182
0.00029626009
0.00043213987
0.00064489915
0.00095951044
0.0013859862
0.001919181
0.0025397334
0.0032158104
0.0039113885
0.0045965639
0.0052523822
0.0058692344
0.0064428302
0.0069714851
0.0074551986
0.0078952432
0.0082936551
0.0086528255
0.0089753015
0.0092636791
0.0095205168
0.0097482815
0.0099493199
0.010125844
0.010279922
0.010413481
0.010528304
0.010626043
0.010708218
0.010776229
0.010831362
0.010874806
0.010907636
0.010930884
0.010945409
0.010952227
0.010952036
0.010945
0.01093845
0.010905341
7.1883913e-06
7.1939638e-06
7.2001707e-06
7.2081298e-06
7.2201276e-06
7.2392267e-06
7.2687074e-06
7.3115271e-06
7.3699538e-06
7.4454362e-06
7.5386682e-06
7.6497571e-06
7.778408e-06
7.9240855e-06
8.0861309e-06
8.2638408e-06
8.4565141e-06
8.6634782e-06
8.8841009e-06
9.1177964e-06
9.3640264e-06
9.6222997e-06
9.8921722e-06
1.017325e-05
1.0465195e-05
1.0767734e-05
1.1080674e-05
1.140391e-05
1.173745e-05
1.2081439e-05
1.2436182e-05
1.2802172e-05
1.3180138e-05
1.3571126e-05
1.3976559e-05
1.4398327e-05
1.4838849e-05
1.5301155e-05
1.5788916e-05
1.6306699e-05
1.6860134e-05
1.7455794e-05
1.8101745e-05
1.8807141e-05
1.9583785e-05
2.0445811e-05
2.1410733e-05
2.2499768e-05
2.3738329e-05
2.5163026e-05
2.6820429e-05
2.8768809e-05
3.1086597e-05
3.3884472e-05
3.7327297e-05
4.1632328e-05
4.7126847e-05
5.4286354e-05
6.3834229e-05
7.6996133e-05
9.5648208e-05
0.00012290648
0.00016420226
0.0002280718
0.00032741485
0.00048379654
0.0007182192
0.0010434452
0.0014607575
0.0019590068
0.0025147636
0.0030987859
0.0036848424
0.0042545949
0.0047972886
0.0053070833
0.005780977
0.0062178743
0.0066180416
0.0069825983
0.0073131494
0.0076115766
0.0078799014
0.0081201863
0.008334471
0.0085247335
0.0086928649
0.0088406554
0.0089697868
0.0090818314
0.009178251
0.0092604064
0.0093295478
0.0093868616
0.0094333832
0.0094702428
0.009498271
0.0095181502
0.0095342941
0.0095376112
7.1330042e-06
7.1380373e-06
7.1432289e-06
7.1487923e-06
7.1555678e-06
7.1649617e-06
7.1788163e-06
7.1991895e-06
7.2280886e-06
7.2672445e-06
7.3179829e-06
7.3811954e-06
7.4573797e-06
7.5467161e-06
7.6491504e-06
7.7644676e-06
7.892352e-06
8.0324298e-06
8.1843008e-06
8.3475582e-06
8.5218031e-06
8.7066523e-06
8.9017448e-06
9.1067464e-06
9.3213552e-06
9.5453086e-06
9.7783896e-06
1.0020433e-05
1.0271338e-05
1.0531075e-05
1.0799701e-05
1.1077373e-05
1.1364369e-05
1.1661122e-05
1.1968259e-05
1.2286647e-05
1.2617437e-05
1.2962112e-05
1.3322514e-05
1.3700924e-05
1.4100166e-05
1.4523606e-05
1.4975319e-05
1.5460011e-05
1.5983404e-05
1.6552327e-05
1.7175026e-05
1.7861392e-05
1.8622871e-05
1.9474359e-05
2.0434706e-05
2.1526923e-05
2.2780041e-05
2.4231427e-05
2.5933427e-05
2.7953143e-05
3.0380903e-05
3.3340746e-05
3.7025787e-05
4.1706709e-05
4.7778731e-05
5.5840547e-05
6.6846479e-05
8.2331947e-05
0.00010473431
0.00013839934
0.00019013832
0.00027020106
0.00039616657
0.00058464671
0.00084830374
0.0011908915
0.0016052186
0.002072919
0.0025700944
0.0030745778
0.0035700598
0.0040461727
0.0044967156
0.0049181765
0.0053089266
0.0056686555
0.0059979041
0.006297744
0.0065695745
0.00681498
0.0070356307
0.007233217
0.0074094053
0.0075658097
0.0077039734
0.0078253618
0.0079313493
0.0080232441
0.0081022279
0.0081695413
0.0082261128
0.0082731939
0.0083121735
0.0083520111
7.0735639e-06
7.0782367e-06
7.0829852e-06
7.0877436e-06
7.0927614e-06
7.0985851e-06
7.1060674e-06
7.1163388e-06
7.1307146e-06
7.1505603e-06
7.1771602e-06
7.2116204e-06
7.2548169e-06
7.3073847e-06
7.3697352e-06
7.4420899e-06
7.5245189e-06
7.6169781e-06
7.7193411e-06
7.831426e-06
7.9530157e-06
8.0838738e-06
8.2237555e-06
8.3724181e-06
8.5296278e-06
8.6951677e-06
8.8688436e-06
9.0504897e-06
9.2399747e-06
9.437208e-06
9.6421465e-06
9.8548016e-06
1.007525e-05
1.0303652e-05
1.0540267e-05
1.0785487e-05
1.1039859e-05
1.1304117e-05
1.1579203e-05
1.1866303e-05
1.2166898e-05
1.2482791e-05
1.2816167e-05
1.3169599e-05
1.3546148e-05
1.3949447e-05
1.4383814e-05
1.4854399e-05
1.5367127e-05
1.5929216e-05
1.6549588e-05
1.7239013e-05
1.8010644e-05
1.8880506e-05
1.9869609e-05
2.1004531e-05
2.2318915e-05
2.3856341e-05
2.5677902e-05
2.7866595e-05
3.053397e-05
3.3837895e-05
3.8028866e-05
4.3457914e-05
5.0647122e-05
6.0443931e-05
7.4191607e-05
9.3996614e-05
0.00012369713
0.00016902394
0.00023920505
0.00034852079
0.00051100131
0.00073768122
0.0010325303
0.0013895819
0.0017932653
0.0022236482
0.0026622722
0.0030952738
0.0035134181
0.0039108742
0.004284185
0.0046316002
0.0049525575
0.0052472828
0.0055165185
0.0057613364
0.0059830051
0.006182898
0.0063624302
0.0065230164
0.0066660402
0.0067928481
0.0069047022
0.0070029166
0.0070884661
0.007163198
0.0072253369
0.0073021841
7.0101988e-06
7.014581e-06
7.0190437e-06
7.023455e-06
7.0278593e-06
7.0324382e-06
7.0375293e-06
7.0436538e-06
7.0515147e-06
7.0619581e-06
7.0759088e-06
7.0942979e-06
7.1179982e-06
7.1477764e-06
7.1842657e-06
7.2279584e-06
7.2792104e-06
7.3382566e-06
7.4052287e-06
7.480175e-06
7.5630789e-06
7.6538751e-06
7.7524629e-06
7.8587187e-06
7.9725052e-06
8.0936811e-06
8.2221076e-06
8.357655e-06
8.5002076e-06
8.6496699e-06
8.8059699e-06
8.9690645e-06
9.1389461e-06
9.3156509e-06
9.4992704e-06
9.6899673e-06
9.8879921e-06
1.0093701e-05
1.0307576e-05
1.0530238e-05
1.0762481e-05
1.1005292e-05
1.1259882e-05
1.1527705e-05
1.1810492e-05
1.2110292e-05
1.2429533e-05
1.2771093e-05
1.3138301e-05
1.3535079e-05
1.3966151e-05
1.4437155e-05
1.4954855e-05
1.5527278e-05
1.6164398e-05
1.6878627e-05
1.7685024e-05
1.86028e-05
1.9656306e-05
2.0877853e-05
2.2309328e-05
2.4005217e-05
2.6044632e-05
2.8535298e-05
3.1622222e-05
3.5531309e-05
4.0607019e-05
4.7335271e-05
5.6536227e-05
6.9448216e-05
8.8101653e-05
0.00011604279
0.00015845274
0.00022445228
0.00032560046
0.00047424935
0.00067944231
0.00094400069
0.001261532
0.0016180068
0.0019965122
0.0023818245
0.0027624941
0.0031306899
0.0034813259
0.0038113278
0.004119081
0.0044039887
0.0046661466
0.0049061154
0.0051247585
0.0053231256
0.005502374
0.0056637155
0.0058083589
0.005937602
0.0060523774
0.0061551197
0.0062407189
0.0063551786
6.9430584e-06
6.9471929e-06
6.9514236e-06
6.9556136e-06
6.9597453e-06
6.963867e-06
6.9680952e-06
6.972638e-06
6.9778161e-06
6.9840684e-06
6.9919393e-06
7.0020507e-06
7.0150645e-06
7.0316429e-06
7.0524123e-06
7.0779371e-06
7.1087022e-06
7.1451064e-06
7.1874619e-06
7.2360008e-06
7.2908833e-06
7.3522082e-06
7.4200233e-06
7.494336e-06
7.5751224e-06
7.6623366e-06
7.7559184e-06
7.8557999e-06
7.9619112e-06
8.0741856e-06
8.1925637e-06
8.3169976e-06
8.4474555e-06
8.5839272e-06
8.7264312e-06
8.8750243e-06
9.0298119e-06
9.19096e-06
9.3587073e-06
9.5333778e-06
9.715397e-06
9.9053086e-06
1.0103794e-05
1.0311687e-05
1.0529993e-05
1.0759913e-05
1.1002867e-05
1.1260544e-05
1.1534908e-05
1.1828249e-05
1.2143272e-05
1.2483173e-05
1.2851742e-05
1.3253419e-05
1.3693533e-05
1.4178583e-05
1.471628e-05
1.5316218e-05
1.5990066e-05
1.6752563e-05
1.7622584e-05
1.8623419e-05
1.9786526e-05
2.1153616e-05
2.2778136e-05
2.4734953e-05
2.7132752e-05
3.01173e-05
3.3903011e-05
3.8840287e-05
4.5422682e-05
5.4468715e-05
6.719789e-05
8.575555e-05
0.00011352181
0.00015579512
0.00022116642
0.00032007124
0.00046279735
0.00065655061
0.00090188287
0.0011913321
0.0015118382
0.0018490028
0.0021904319
0.0025268828
0.0028519555
0.0031614548
0.0034528379
0.0037247597
0.0039767184
0.0042087946
0.0044214687
0.0046154829
0.0047917392
0.004951337
0.0050950118
0.0052257188
0.0053348164
0.0054872881
6.8723039e-06
6.8762241e-06
6.880252e-06
6.8842599e-06
6.8882142e-06
6.8921199e-06
6.8960111e-06
6.8999611e-06
6.9040984e-06
6.9086204e-06
6.9138008e-06
6.9199889e-06
6.9275994e-06
6.9370945e-06
6.9489615e-06
6.9636888e-06
6.9817457e-06
7.003565e-06
7.0295319e-06
7.059978e-06
7.0951787e-06
7.1353553e-06
7.1806783e-06
7.2312729e-06
7.2872252e-06
7.3485891e-06
7.4153925e-06
7.4876433e-06
7.5653348e-06
7.648451e-06
7.7369704e-06
7.8308699e-06
7.9301288e-06
8.0347335e-06
8.1446818e-06
8.2599898e-06
8.3806988e-06
8.5068826e-06
8.6386568e-06
8.776187e-06
8.9196996e-06
9.0694933e-06
9.2259522e-06
9.3895575e-06
9.5609002e-06
9.7406947e-06
9.9297955e-06
1.0129221e-05
1.0340167e-05
1.0564027e-05
1.0802436e-05
1.1057309e-05
1.1330899e-05
1.1625833e-05
1.19452e-05
1.2292696e-05
1.2672655e-05
1.3090334e-05
1.3552016e-05
1.4065335e-05
1.4639849e-05
1.528708e-05
1.6021799e-05
1.6862968e-05
1.7834258e-05
1.896671e-05
2.0302821e-05
2.1898115e-05
2.3827233e-05
2.6202818e-05
2.9178456e-05
3.2982518e-05
3.7957258e-05
4.4656273e-05
5.3925094e-05
6.7094575e-05
8.6409848e-05
0.00011533968
0.00015972925
0.00022766603
0.00032856891
0.00047101708
0.0006596531
0.00089240018
0.0011606771
0.0014523585
0.0017553548
0.0020597507
0.0023582414
0.0026457682
0.0029190323
0.0031760529
0.0034158108
0.0036379627
0.0038426395
0.0040304011
0.0042015144
0.0043592921
0.0044913302
0.0046816033
6.7981088e-06
6.8018414e-06
6.8056885e-06
6.8095328e-06
6.8133383e-06
6.8170966e-06
6.8208146e-06
6.8245148e-06
6.8282435e-06
6.8320794e-06
6.8361434e-06
6.8406057e-06
6.8456894e-06
6.8516685e-06
6.8588603e-06
6.8676142e-06
6.878298e-06
6.8912833e-06
6.9069326e-06
6.9255881e-06
6.9475638e-06
6.97314e-06
7.0025603e-06
7.0360313e-06
7.0737241e-06
7.1157769e-06
7.1622983e-06
7.2133715e-06
7.2690577e-06
7.3294007e-06
7.3944298e-06
7.4641638e-06
7.5386138e-06
7.6177875e-06
7.7016926e-06
7.7903417e-06
7.8837573e-06
7.981977e-06
8.0850597e-06
8.1930922e-06
8.3061961e-06
8.4245362e-06
8.5483298e-06
8.6778556e-06
8.8134624e-06
8.9555794e-06
9.1047266e-06
9.2615291e-06
9.4267288e-06
9.6011959e-06
9.7859502e-06
9.9821848e-06
1.0191296e-05
1.041491e-05
1.0654918e-05
1.0913555e-05
1.1193421e-05
1.1497607e-05
1.182977e-05
1.2194244e-05
1.2596324e-05
1.304232e-05
1.3540012e-05
1.409912e-05
1.4731515e-05
1.5452247e-05
1.6280695e-05
1.7241973e-05
1.8367889e-05
1.9702973e-05
2.1306515e-05
2.3260386e-05
2.5679107e-05
2.8734188e-05
3.2674495e-05
3.7872481e-05
4.4943566e-05
5.4808292e-05
6.90151e-05
8.9989805e-05
0.00012172517
0.00017033193
0.00024363942
0.00035001173
0.00049594123
0.00068300492
0.00090660502
0.0011574414
0.0014246105
0.0016982235
0.0019705112
0.0022358339
0.0024903344
0.0027315331
0.0029579818
0.0031690954
0.0033641999
0.0035466439
0.0036999778
0.0039266601
6.7206573e-06
6.724224e-06
6.7279083e-06
6.7316023e-06
6.7352711e-06
6.7389026e-06
6.7424949e-06
6.7460533e-06
6.7495928e-06
6.7531421e-06
6.756749e-06
6.7604872e-06
6.7644619e-06
6.7688149e-06
6.7737248e-06
6.7794063e-06
6.7861045e-06
6.7940884e-06
6.8036416e-06
6.8150539e-06
6.8286125e-06
6.8445943e-06
6.8632596e-06
6.8848482e-06
6.9095761e-06
6.9376346e-06
6.9691902e-06
7.0043853e-06
7.0433402e-06
7.0861546e-06
7.1329101e-06
7.1836723e-06
7.2384935e-06
7.2974156e-06
7.3604727e-06
7.427695e-06
7.4991126e-06
7.5747588e-06
7.6546753e-06
7.7389162e-06
7.827554e-06
7.9206849e-06
8.0184359e-06
8.1209715e-06
8.2285003e-06
8.3412826e-06
8.4596381e-06
8.583955e-06
8.7146991e-06
8.852422e-06
8.9977733e-06
9.1515144e-06
9.3145363e-06
9.4878764e-06
9.6727391e-06
9.8705337e-06
1.0082894e-05
1.0311736e-05
1.0559309e-05
1.0828241e-05
1.1121675e-05
1.1443324e-05
1.179765e-05
1.2190096e-05
1.262721e-05
1.3117073e-05
1.3669648e-05
1.4297735e-05
1.5016917e-05
1.584779e-05
1.6817126e-05
1.7960212e-05
1.9323806e-05
2.0973459e-05
2.3000093e-05
2.5530566e-05
2.8758354e-05
3.2962591e-05
3.8575495e-05
4.6301958e-05
5.7244459e-05
7.3196132e-05
9.7025704e-05
0.00013331833
0.000188368
0.00026967575
0.0003842009
0.00053563532
0.00072241093
0.00093794467
0.0011729495
0.0014180831
0.0016655132
0.0019092966
0.002145203
0.0023705281
0.0025828757
0.0027850581
0.0029562114
0.0032158707
6.6401438e-06
6.6435621e-06
6.6470986e-06
6.6506533e-06
6.6541935e-06
6.6577064e-06
6.661187e-06
6.6646352e-06
6.6680551e-06
6.6714562e-06
6.6748559e-06
6.678283e-06
6.6817819e-06
6.6854177e-06
6.6892791e-06
6.6934815e-06
6.6981678e-06
6.7035066e-06
6.7096896e-06
6.7169273e-06
6.7254431e-06
6.7354677e-06
6.7472328e-06
6.7609665e-06
6.7768878e-06
6.7952038e-06
6.8161069e-06
6.8397727e-06
6.8663596e-06
6.8960087e-06
6.9288435e-06
6.9649715e-06
7.0044845e-06
7.0474611e-06
7.0939681e-06
7.1440632e-06
7.1977974e-06
7.2552178e-06
7.316371e-06
7.3813063e-06
7.4500798e-06
7.5227587e-06
7.5994261e-06
7.6801863e-06
7.7651699e-06
7.8545395e-06
7.9484956e-06
8.0472836e-06
8.1511997e-06
8.260598e-06
8.3758981e-06
8.4975947e-06
8.6262675e-06
8.7625932e-06
8.9073579e-06
9.0614781e-06
9.2260151e-06
9.4022025e-06
9.5914799e-06
9.795519e-06
1.0016286e-05
1.0256086e-05
1.051764e-05
1.0804211e-05
1.1119669e-05
1.1468703e-05
1.1856935e-05
1.2291428e-05
1.2780667e-05
1.3335352e-05
1.3969048e-05
1.4699075e-05
1.5547564e-05
1.6543936e-05
1.7727505e-05
1.91505e-05
2.0887078e-05
2.304012e-05
2.575671e-05
2.9261494e-05
3.3891165e-05
4.0165738e-05
4.8936301e-05
6.1563148e-05
8.0245325e-05
0.00010846989
0.00015128592
0.00021517375
0.00030685536
0.00043104295
0.0005882288
0.0007740973
0.00098104236
0.0012005716
0.0014250782
0.0016487135
0.0018663036
0.0020792418
0.0022617745
0.0025476532
6.5567706e-06
6.5600547e-06
6.5634558e-06
6.5668807e-06
6.5702991e-06
6.5736985e-06
6.5770729e-06
6.5804203e-06
6.5837409e-06
6.5870376e-06
6.5903161e-06
6.5935868e-06
6.5968667e-06
6.6001827e-06
6.603574e-06
6.607096e-06
6.610822e-06
6.6148455e-06
6.6192805e-06
6.6242609e-06
6.6299388e-06
6.6364814e-06
6.6440677e-06
6.6528845e-06
6.6631221e-06
6.6749709e-06
6.6886175e-06
6.7042421e-06
6.7220158e-06
6.7420987e-06
6.7646388e-06
6.7897712e-06
6.8176175e-06
6.8482866e-06
6.8818752e-06
6.918469e-06
6.958144e-06
7.0009687e-06
7.0470058e-06
7.0963145e-06
7.1489537e-06
7.2049847e-06
7.2644749e-06
7.3275018e-06
7.3941568e-06
7.4645495e-06
7.5388127e-06
7.617107e-06
7.6996261e-06
7.7866018e-06
7.8783098e-06
7.9750765e-06
8.0772855e-06
8.1853857e-06
8.2999001e-06
8.4214377e-06
8.5507041e-06
8.6885166e-06
8.8358247e-06
8.9937274e-06
9.163504e-06
9.3466445e-06
9.5448891e-06
9.7602928e-06
9.9952712e-06
1.0252703e-05
1.0535989e-05
1.0849291e-05
1.1197581e-05
1.1586931e-05
1.2024845e-05
1.2520682e-05
1.3086103e-05
1.373599e-05
1.4489621e-05
1.5371753e-05
1.6415633e-05
1.7665815e-05
1.9182489e-05
2.1051641e-05
2.3396162e-05
2.6394003e-05
3.0318227e-05
3.5588514e-05
4.2867999e-05
5.3235051e-05
6.842853e-05
9.1198803e-05
0.00012566154
0.00017734692
0.00025244629
0.00035601332
0.00048981275
0.0006512575
0.00083422963
0.0010313879
0.0012346524
0.0014432396
0.0016261355
0.0019262437
6.470746e-06
6.4739073e-06
6.4771835e-06
6.4804868e-06
6.4837896e-06
6.4870798e-06
6.4903514e-06
6.4936015e-06
6.4968289e-06
6.5000339e-06
6.5032182e-06
6.5063853e-06
6.5095411e-06
6.5126955e-06
6.5158643e-06
6.519071e-06
6.5223493e-06
6.5257452e-06
6.5293192e-06
6.5331467e-06
6.5373196e-06
6.5419453e-06
6.5471459e-06
6.5530565e-06
6.5598227e-06
6.5675979e-06
6.5765407e-06
6.5868121e-06
6.598572e-06
6.6119776e-06
6.6271807e-06
6.6443257e-06
6.6635489e-06
6.6849768e-06
6.7087264e-06
6.7349049e-06
6.7636099e-06
6.7949306e-06
6.8289485e-06
6.8657385e-06
6.9053712e-06
6.9479145e-06
6.9934362e-06
7.0420067e-06
7.0937022e-06
7.1486074e-06
7.2068199e-06
7.268453e-06
7.3336408e-06
7.402541e-06
7.4753406e-06
7.55226e-06
7.6335582e-06
7.7195385e-06
7.8105548e-06
7.907019e-06
8.0094093e-06
8.1182785e-06
8.2342676e-06
8.3581169e-06
8.4906837e-06
8.6329611e-06
8.7861011e-06
8.9514498e-06
9.1305769e-06
9.3253313e-06
9.5378747e-06
9.7707973e-06
1.0027174e-05
1.0310684e-05
1.0625777e-05
1.0977897e-05
1.1373692e-05
1.1821409e-05
1.2331441e-05
1.2916809e-05
1.35943e-05
1.4385724e-05
1.5319423e-05
1.6433736e-05
1.7781178e-05
1.9434002e-05
2.149615e-05
2.4119096e-05
2.7528549e-05
3.2072969e-05
3.8300341e-05
4.7087612e-05
5.9849271e-05
7.8837509e-05
0.00010747756
0.00015051441
0.00021353963
0.00030158089
0.00041706213
0.00055885207
0.00072100767
0.00090259936
0.0010685973
0.0013632029
6.3822827e-06
6.3853308e-06
6.3884908e-06
6.3916798e-06
6.3948724e-06
6.3980574e-06
6.401229e-06
6.4043839e-06
6.4075203e-06
6.4106375e-06
6.4137356e-06
6.4168156e-06
6.4198791e-06
6.4229295e-06
6.4259724e-06
6.4290166e-06
6.4320759e-06
6.4351705e-06
6.4383288e-06
6.4415888e-06
6.4450002e-06
6.4486245e-06
6.4525364e-06
6.4568229e-06
6.4615836e-06
6.4669291e-06
6.4729794e-06
6.4798624e-06
6.4877114e-06
6.4966631e-06
6.5068552e-06
6.5184247e-06