/*--------------------------------*- C++ -*----------------------------------*\
  =========                 |
  \\      /  F ield         | OpenFOAM: The Open Source CFD Toolbox
   \\    /   O peration     | Website:  https://openfoam.org
    \\  /    A nd           | Version:  12
     \\/     M anipulation  |
\*---------------------------------------------------------------------------*/
FoamFile
{
    format      ascii;
    class       volScalarField;
    location    "1700";
    object      k;
}
// * * * * * * * * * * * * * * * * * * * * * * * * * * * * * * * * * * * * * //

dimensions      [0 2 -2 0 0 0 0];

internalField   nonuniform List<scalar> 
7480
(
0.00065141943
0.0016651015
0.0030118581
0.0044356797
0.0057291188
0.0067739296
0.0075324703
0.0080222443
0.008289577
0.0083886434
0.0083690778
0.0082708323
0.0081235769
0.0079481485
0.0077586025
0.0075642129
0.0073712376
0.0071842071
0.0070063397
0.0068401546
0.0066878042
0.0065512144
0.0064320333
0.0063314938
0.0062502626
0.0061879768
0.0061423859
0.0061100815
0.0060863752
0.0060662074
0.0060454351
0.0060216554
0.0059942487
0.005963968
0.0059320066
0.0058993123
0.0058662856
0.0058328772
0.0057988786
0.005764203
0.0057290081
0.0056936199
0.0056583773
0.0056235
0.005589065
0.0055550754
0.005521531
0.0054884478
0.0054558446
0.0054237306
0.0053921026
0.0053609474
0.0053302511
0.0053000059
0.0052702049
0.0052408351
0.0052118813
0.0051833338
0.0051551887
0.0051274315
0.0051000485
0.0050730281
0.0050463589
0.0050200322
0.0049940408
0.0049683771
0.0049430336
0.004918003
0.0048932775
0.0048688496
0.0048447122
0.0048208582
0.0047972806
0.0047739727
0.0047509282
0.004728141
0.0047056047
0.0046833137
0.0046612621
0.0046394443
0.0046178549
0.0045964886
0.0045753404
0.004554405
0.0045336777
0.0045131533
0.0044928271
0.0044726937
0.0044527486
0.004432985
0.0044133996
0.0043939784
0.0043747284
0.0043555994
0.004336661
0.004317683
0.0042990629
0.0042794986
0.0042631373
0.0042326653
0.00015560958
0.00017530779
0.00021718351
0.00028829382
0.00039358276
0.00052385714
0.00066488867
0.00080435351
0.00093380011
0.001048997
0.0011497555
0.0012390485
0.0013217609
0.0014043772
0.0014952475
0.0016046135
0.0017492974
0.0019375825
0.0021481933
0.0023805006
0.0026376972
0.002921756
0.0032311313
0.0035619779
0.0039054563
0.0042466314
0.0045670507
0.0048480257
0.0050740729
0.0052389787
0.0053471797
0.0054105947
0.0054440211
0.005460624
0.0054691604
0.0054733797
0.0054736324
0.0054691863
0.0054598752
0.0054466772
0.0054312756
0.0054152074
0.0053993656
0.0053838816
0.0053685076
0.0053530272
0.0053374038
0.0053216937
0.0053059185
0.0052900314
0.0052739693
0.0052577036
0.0052412383
0.0052245784
0.0052077155
0.0051906422
0.0051733642
0.0051558964
0.0051382313
0.0051204154
0.0051024494
0.0050843381
0.0050660953
0.0050477388
0.0050292849
0.0050107478
0.0049921409
0.0049734751
0.0049547611
0.0049360093
0.0049172292
0.0048984302
0.0048796213
0.0048608108
0.0048420068
0.0048232164
0.0048044464
0.0047857032
0.0047669927
0.0047483202
0.0047296909
0.0047111093
0.0046925797
0.0046741059
0.0046556913
0.0046373393
0.0046190525
0.0046008335
0.0045826844
0.0045646071
0.0045466023
0.0045286713
0.004510812
0.0044930249
0.004475299
0.0044576393
0.0044400284
0.0044221621
0.0044062274
0.0043780407
0.00014857048
0.00014977078
0.00015133779
0.00015316615
0.00015527046
0.00015760855
0.00016008721
0.00016261105
0.00016510057
0.0001674944
0.00016977007
0.00017196881
0.00017420616
0.00017668852
0.00017977
0.00018393718
0.00019025471
0.00019936236
0.00021597447
0.00024286233
0.0002823331
0.00033711398
0.00041105883
0.00050861119
0.00063715093
0.00080683228
0.0010452198
0.0013338517
0.0016624965
0.0020191113
0.0023874914
0.0027486077
0.0030824947
0.003372662
0.0036097756
0.0037936427
0.0039315225
0.0040348935
0.0041154987
0.0041824458
0.004240909
0.0042927524
0.0043381414
0.0043770987
0.0044102495
0.0044387055
0.0044635704
0.0044855675
0.0045050197
0.0045220675
0.0045368653
0.0045496215
0.0045605362
0.0045697542
0.0045773791
0.0045835062
0.0045882344
0.0045916576
0.0045938519
0.0045948685
0.0045947945
0.0045937094
0.0045916822
0.0045887759
0.0045850489
0.0045805553
0.0045753452
0.0045694644
0.004562956
0.0045558606
0.0045482163
0.0045400591
0.0045314234
0.0045223414
0.0045128434
0.004502958
0.0044927123
0.0044821313
0.0044712392
0.0044600583
0.0044486098
0.0044369136
0.0044249885
0.0044128519
0.0044005205
0.0043880096
0.004375334
0.0043625075
0.0043495427
0.0043364522
0.0043232462
0.0043099375
0.0042965294
0.0042830452
0.0042694592
0.0042558481
0.0042420792
0.004228247
0.0042154817
0.004193231
0.0001479934
0.00014825792
0.00014852908
0.00014877808
0.00014899568
0.00014917282
0.00014929665
0.00014935277
0.00014932526
0.00014920078
0.00014896785
0.00014861676
0.00014813957
0.0001475403
0.00014682544
0.0001460043
0.00014510391
0.00014414431
0.00014319363
0.00014243026
0.00014176281
0.00014190779
0.0001426298
0.00014451349
0.0001481559
0.0001544221
0.00016566662
0.0001840274
0.00021681308
0.00027086314
0.00035239912
0.00046834006
0.00062675512
0.0008493873
0.0011176301
0.0014150057
0.0017257893
0.0020327144
0.0023186954
0.0025708727
0.0027834394
0.0029578762
0.0031008596
0.003220944
0.0033255533
0.0034192911
0.003504126
0.0035806283
0.003649215
0.0037106988
0.0037661416
0.0038164738
0.0038623097
0.0039040329
0.0039419623
0.0039764236
0.0040077246
0.0040361235
0.0040618334
0.0040850359
0.0041059077
0.0041246155
0.0041413099
0.0041561279
0.0041691953
0.0041806273
0.0041905294
0.0041989987
0.0042061251
0.0042119923
0.0042166781
0.0042202552
0.0042227921
0.0042243525
0.0042249965
0.0042247803
0.0042237565
0.0042219747
0.0042194815
0.0042163207
0.0042125335
0.0042081586
0.0042032324
0.0041977893
0.0041918614
0.0041854793
0.0041786714
0.004171465
0.0041638854
0.0041559572
0.0041477018
0.0041391436
0.0041302954
0.0041211937
0.0041118163
0.004102272
0.0040923871
0.0040824653
0.0040729581
0.0040563545
0.00014785998
0.00014797488
0.00014807784
0.00014815845
0.00014821534
0.00014824756
0.00014825269
0.00014822791
0.00014816984
0.0001480747
0.00014793901
0.00014775999
0.00014753375
0.00014725195
0.00014691114
0.00014650953
0.00014604703
0.00014552453
0.00014494698
0.00014432754
0.00014367348
0.00014301881
0.00014238004
0.00014178333
0.00014124827
0.00014082476
0.00014050409
0.00014060688
0.00014110656
0.0001425201
0.0001453593
0.00015042138
0.00015893757
0.00017372051
0.00019916223
0.00024379907
0.0003144147
0.00041768337
0.00056316991
0.00076089205
0.0009939188
0.0012481382
0.0015087371
0.001760658
0.0019919369
0.0021962232
0.0023729795
0.0025259837
0.0026607057
0.0027818408
0.002892195
0.0029930007
0.0030848809
0.0031685591
0.0032449691
0.0033150114
0.0033793719
0.0034385463
0.0034929525
0.0035429818
0.0035889933
0.0036313018
0.0036701827
0.003705885
0.0037386359
0.0037686412
0.0037960869
0.0038211429
0.0038439651
0.0038646965
0.0038834694
0.0039004063
0.0039156209
0.0039292188
0.0039412986
0.0039519522
0.0039612654
0.0039693186
0.003976187
0.0039819412
0.0039866474
0.0039903676
0.0039931602
0.00399508
0.0039961783
0.0039965037
0.0039961019
0.003995016
0.0039932864
0.003990952
0.0039880477
0.0039846108
0.0039806662
0.0039762626
0.0039713882
0.0039661696
0.0039604204
0.0039545859
0.0039485477
0.0039377864
0.00014780334
0.00014787337
0.00014792991
0.00014796757
0.00014798862
0.00014799468
0.00014798563
0.00014796053
0.00014791823
0.00014785734
0.00014777634
0.00014767261
0.00014754554
0.00014739296
0.00014721246
0.00014700185
0.00014675933
0.00014648341
0.00014617305
0.00014582822
0.00014544966
0.00014503905
0.0001446
0.00014413465
0.00014365192
0.00014316679
0.00014268355
0.00014222809
0.00014180626
0.00014147797
0.00014117969
0.00014119603
0.00014136856
0.00014192318
0.0001430668
0.00014531531
0.00014934382
0.0001560944
0.00016739736
0.00018614658
0.00021946138
0.00027442544
0.00035765548
0.0004776683
0.00064182228
0.00083706005
0.0010523399
0.0012750522
0.0014929069
0.0016964857
0.0018810417
0.002046329
0.0021949682
0.0023302076
0.0024544163
0.0025688346
0.0026741475
0.0027710389
0.002860321
0.0029427736
0.0030190239
0.0030895714
0.0031548588
0.0032152986
0.0032712646
0.0033230866
0.0033710591
0.0034154509
0.0034565066
0.0034944489
0.0035294818
0.0035617928
0.0035915547
0.0036189274
0.0036440587
0.0036670861
0.0036881372
0.0037073313
0.0037247793
0.0037405852
0.003754846
0.0037676527
0.0037790903
0.0037892387
0.0037981728
0.0038059631
0.0038126757
0.0038183731
0.0038231138
0.0038269536
0.0038299437
0.0038321363
0.0038335711
0.0038343096
0.0038343544
0.0038338455
0.0038325951
0.0038311674
0.0038288901
0.0038243641
0.00014776986
0.00014781955
0.00014785656
0.00014787782
0.0001478865
0.00014788482
0.00014787315
0.00014785114
0.00014781835
0.00014777419
0.00014771794
0.00014764853
0.00014756511
0.00014746671
0.00014735216
0.00014722021
0.00014706959
0.00014689909
0.00014670757
0.00014649409
0.00014625798
0.0001459988
0.00014571669
0.00014541182
0.00014508527
0.0001447401
0.00014437871
0.00014400589
0.0001436244
0.00014324446
0.00014286274
0.00014251904
0.00014221178
0.00014197089
0.00014175347
0.00014176079
0.00014188813
0.00014229214
0.00014311472
0.00014453946
0.00014704489
0.00015137787
0.00015855109
0.00017045335
0.00018993413
0.00022406005
0.00027927702
0.0003616372
0.00048246952
0.00063517821
0.00081218954
0.0010038596
0.0011994578
0.0013894807
0.001567782
0.0017321146
0.0018831491
0.0020226464
0.0021520768
0.0022722761
0.0023837906
0.0024872139
0.002583217
0.0026724276
0.0027553724
0.002832507
0.0029042516
0.0029709956
0.0030330904
0.0030908532
0.0031445747
0.0031945216
0.0032409389
0.0032840518
0.0033240684
0.0033611815
0.0033955696
0.0034273988
0.0034568235
0.0034839879
0.0035090261
0.0035320638
0.0035532182
0.0035725993
0.0035903099
0.0036064467
0.0036211003
0.0036343562
0.0036462943
0.0036569906
0.0036665151
0.0036749377
0.0036823155
0.0036887244
0.0036941849
0.0036988493
0.0037025332
0.0037059168
0.0037077492
0.0037099733
0.00014774736
0.0001477844
0.00014781043
0.00014782344
0.00014782637
0.0001478214
0.00014780908
0.00014778936
0.00014776208
0.000147727
0.00014768372
0.00014763171
0.00014757036
0.00014749907
0.00014741715
0.00014732382
0.00014721826
0.00014709961
0.000146967
0.00014681962
0.0001466567
0.00014647758
0.00014628175
0.00014606885
0.00014583869
0.00014559166
0.0001453284
0.00014505018
0.0001447581
0.00014445505
0.00014414135
0.00014382437
0.00014350856
0.00014320191
0.00014289747
0.00014263112
0.00014240192
0.00014223062
0.00014211447
0.00014214143
0.00014228309
0.00014266707
0.0001434141
0.00014470944
0.00014677312
0.00015024749
0.00015605317
0.0001654908
0.00018103387
0.00020735292
0.00025062608
0.00031669239
0.00041509191
0.00054284844
0.00069473808
0.00086315428
0.001038936
0.00121352
0.0013808948
0.0015383603
0.0016856871
0.0018236056
0.0019527732
0.0020735947
0.002186448
0.0022918111
0.0023902023
0.0024820981
0.002567923
0.002648073
0.0027229216
0.0027928146
0.0028580698
0.0029189814
0.0029758225
0.0030288464
0.0030782881
0.0031243662
0.0031672843
0.0032072321
0.0032443865
0.0032789127
0.0033109651
0.0033406883
0.0033682176
0.00339368
0.0034171946
0.0034388732
0.0034588208
0.0034771366
0.0034939129
0.0035092397
0.0035231942
0.003535869
0.003547305
0.0035576682
0.0035667797
0.0035754413
0.0035817791
0.0035913587
0.00014773161
0.00014775904
0.00014777752
0.00014778536
0.00014778493
0.00014777811
0.00014776555
0.00014774732
0.00014772344
0.00014769377
0.00014765811
0.00014761612
0.00014756742
0.00014751157
0.00014744813
0.00014737656
0.0001472963
0.00014720674
0.00014710725
0.00014699718
0.0001468759
0.0001467428
0.00014659732
0.00014643898
0.00014626733
0.00014608215
0.00014588335
0.00014567113
0.00014544578
0.00014520814
0.00014495861
0.00014469903
0.00014443145
0.00014415937
0.00014388227
0.00014360752
0.00014333967
0.00014308431
0.00014284356
0.00014263741
0.00014247024
0.00014233946
0.00014232517
0.00014239248
0.00014260743
0.0001430529
0.00014385955
0.0001451953
0.00014731542
0.00015074236
0.00015635887
0.00016540488
0.0001801518
0.0002047298
0.00024466821
0.0003058809
0.00039562896
0.00051136398
0.00064926942
0.00080282173
0.00096390817
0.0011250763
0.0012812705
0.0014301851
0.0015712995
0.0017046966
0.0018304949
0.0019488379
0.0020599909
0.0021643134
0.0022621793
0.0023539458
0.0024399592
0.002520556
0.0025960562
0.0026667614
0.0027329558
0.0027949069
0.0028528655
0.002907067
0.0029577319
0.003005067
0.0030492664
0.0030905118
0.0031289741
0.0031648134
0.0031981804
0.0032292165
0.0032580547
0.0032848202
0.0033096302
0.0033325976
0.0033538225
0.0033734165
0.0033914428
0.0034080839
0.0034231663
0.0034376245
0.0034489061
0.0034665225
0.00014772006
0.00014773994
0.00014775275
0.00014775689
0.00014775411
0.00014774598
0.00014773315
0.0001477158
0.00014769401
0.00014766775
0.00014763687
0.00014760116
0.00014756035
0.00014751413
0.00014746217
0.00014740408
0.00014733947
0.00014726786
0.0001471888
0.00014710177
0.00014700628
0.00014690183
0.0001467879
0.00014666405
0.00014652981
0.00014638481
0.00014622874
0.00014606144
0.00014588281
0.00014569298
0.00014549206
0.00014528054
0.00014505913
0.00014482933
0.00014459162
0.0001443481
0.00014410118
0.00014385372
0.00014360725
0.00014336741
0.00014313895
0.00014291996
0.00014273249
0.00014257725
0.00014246521
0.00014240738
0.00014244813
0.00014260212
0.00014293264
0.00014352211
0.000144504
0.00014607054
0.00014850938
0.00015238179
0.0001586103
0.00016859834
0.00018463342
0.00021124059
0.00025330656
0.00031755093
0.00040651951
0.00051878233
0.0006505195
0.0007953177
0.00094587675
0.0010961083
0.0012422981
0.0013827757
0.0015169188
0.0016444501
0.0017652504
0.0018793728
0.0019870075
0.0020884052
0.0021838369
0.0022735855
0.0023579391
0.0024371813
0.0025115875
0.0025814224
0.0026469396
0.0027083802
0.0027659729
0.0028199345
0.0028704697
0.0029177719
0.0029620237
0.0030033972
0.0030420547
0.0030781496
0.0031118256
0.0031432205
0.0031724592
0.0031996744
0.0032249538
0.0032484986
0.0032701402
0.0032909588
0.003307662
0.003334064
0.00014771243
0.00014772605
0.00014773427
0.00014773548
0.00014773083
0.00014772158
0.00014770833
0.00014769136
0.00014767079
0.00014764664
0.00014761884
0.00014758723
0.0001475516
0.00014751172
0.00014746734
0.00014741817
0.00014736388
0.00014730413
0.00014723854
0.00014716673
0.00014708828
0.0001470028
0.00014690985
0.00014680904
0.00014669995
0.0001465822
0.00014645544
0.00014631938
0.00014617379
0.00014601851
0.00014585345
0.00014567865
0.00014549426
0.00014530081
0.00014509867
0.00014488861
0.0001446717
0.00014444942
0.00014422287
0.00014399414
0.00014376602
0.00014353865
0.00014331821
0.00014310829
0.00014291272
0.0001427358
0.00014259075
0.00014248631
0.00014242999
0.00014246146
0.00014258731
0.00014287141
0.00014337136
0.00014418407
0.00014547128
0.00014747755
0.00015053578
0.00015538633
0.00016308267
0.00017538263
0.00019527034
0.00022715061
0.00027650348
0.0003478348
0.00044145085
0.00055563624
0.00068567394
0.00082504718
0.00096754173
0.0011087745
0.001246309
0.0013789274
0.0015059663
0.0016270537
0.0017420525
0.0018509988
0.0019540246
0.0020513136
0.0021430831
0.0022295693
0.0023110159
0.0023876677
0.0024597663
0.002527547
0.0025912375
0.0026510563
0.0027072125
0.0027599053
0.0028093241
0.0028556493
0.0028990508
0.0029396917
0.0029777223
0.0030132976
0.0030465304
0.003077643
0.0031064705
0.0031342525
0.00315689
0.0031928862
0.00014770926
0.00014771738
0.00014772154
0.00014772017
0.00014771387
0.00014770354
0.00014768973
0.00014767274
0.00014765276
0.00014762984
0.00014760396
0.00014757501
0.00014754283
0.00014750724
0.00014746802
0.00014742496
0.00014737778
0.00014732621
0.00014726994
0.00014720866
0.00014714203
0.00014706972
0.00014699139
0.00014690667
0.00014681521
0.00014671667
0.00014661071
0.00014649703
0.00014637533
0.00014624538
0.00014610697
0.00014595995
0.00014580425
0.00014563994
0.00014546717
0.00014528619
0.00014509743
0.00014490161
0.00014469939
0.00014449172
0.00014428007
0.00014406506
0.00014384887
0.00014363374
0.00014342194
0.00014321541
0.00014301883
0.00014283706
0.00014267351
0.00014254146
0.00014244657
0.00014240068
0.00014243407
0.00014255805
0.00014282647
0.00014329735
0.00014404061
0.00014520318
0.00014699402
0.00014972534
0.00015393627
0.00016053733
0.00017096877
0.00018756636
0.00021414556
0.00025551808
0.00031611924
0.00039748505
0.00049922226
0.00061779847
0.00074750372
0.00088243068
0.00101806
0.0011515853
0.0012814036
0.0014065605
0.0015264853
0.0016408911
0.0017496894
0.0018529128
0.001950669
0.0020431162
0.0021304432
0.0022128566
0.0022905714
0.0023638055
0.0024327756
0.0024976941
0.0025587677
0.002616196
0.0026701704
0.0027208759
0.0027684856
0.0028131758
0.0028550836
0.0028944529
0.0029311202
0.0029664985
0.0029956107
0.0030420608
0.00014771061
0.00014771393
0.00014771441
0.00014771059
0.0001477027
0.0001476913
0.00014767681
0.00014765954
0.00014763969
0.00014761736
0.00014759258
0.00014756528
0.00014753534
0.00014750262
0.00014746695
0.00014742813
0.00014738594
0.00014734015
0.00014729051
0.00014723675
0.00014717859
0.00014711574
0.00014704793
0.00014697483
0.00014689616
0.0001468116
0.00014672086
0.00014662363
0.00014651963
0.0001464086
0.00014629029
0.00014616448
0.00014603098
0.00014588969
0.00014574055
0.00014558358
0.00014541891
0.00014524681
0.00014506761
0.00014488177
0.00014469002
0.00014449291
0.00014429138
0.00014408665
0.0001438801
0.00014367294
0.00014346716
0.00014326539
0.00014306953
0.00014288451
0.00014271453
0.00014256437
0.00014244542
0.00014236316
0.00014233377
0.00014237583
0.00014251233
0.00014279296
0.0001432651
0.00014400881
0.00014514709
0.00014687701
0.0001494976
0.00015347099
0.000159632
0.00016928352
0.00018449809
0.00020862742
0.00024617786
0.00030089837
0.00037510058
0.00046898325
0.00057963956
0.00070194838
0.00083044098
0.0009607669
0.0010900462
0.0012164962
0.0013389949
0.0014568488
0.0015696722
0.0016772903
0.0017796632
0.0018768418
0.001968937
0.0020560992
0.0021385033
0.0022163383
0.0022898008
0.0023590898
0.0024244032
0.0024859363
0.0025438774
0.0025984179
0.002649715
0.0026980322
0.0027432025
0.0027868248
0.0028229679
0.0028807689
0.00014771613
0.00014771538
0.00014771258
0.00014770647
0.000147697
0.00014768451
0.00014766928
0.00014765156
0.00014763155
0.00014760939
0.00014758513
0.00014755876
0.00014753019
0.00014749932
0.00014746602
0.00014743012
0.00014739143
0.00014734975
0.00014730487
0.00014725656
0.00014720457
0.00014714867
0.0001470886
0.00014702411
0.00014695493
0.00014688079
0.00014680143
0.00014671657
0.00014662596
0.00014652933
0.00014642642
0.00014631699
0.00014620082
0.00014607771
0.00014594751
0.0001458101
0.00014566545
0.00014551358
0.00014535462
0.00014518873
0.00014501625
0.00014483752
0.000144653
0.00014446334
0.00014426935
0.0001440718
0.00014387172
0.00014367053
0.00014346947
0.00014327073
0.00014307679
0.00014289002
0.00014271535
0.00014255632
0.00014242002
0.00014231564
0.00014223896
0.00014224351
0.00014230194
0.00014246689
0.00014277568
0.00014328175
0.00014406837
0.00014525131
0.00014702528
0.00014969249
0.00015371254
0.00015988185
0.00016947931
0.00018450763
0.00020809715
0.00024435457
0.00029667835
0.00036764202
0.0004574373
0.00056330572
0.00068048127
0.00080394629
0.00092967466
0.0010549037
0.0011778323
0.0012972869
0.0014125271
0.0015231201
0.0016288425
0.001729611
0.0018254387
0.0019164041
0.0020026291
0.0020842644
0.0021614785
0.0022344507
0.0023033642
0.0023684109
0.0024297564
0.0024876761
0.0025419911
0.0025944958
0.0026382216
0.002708285
0.00014772529
0.0001477212
0.00014771558
0.00014770737
0.00014769641
0.00014768284
0.00014766684
0.00014764859
0.00014762827
0.00014760603
0.00014758193
0.00014755599
0.00014752818
0.00014749843
0.00014746664
0.00014743268
0.00014739638
0.00014735759
0.00014731611
0.00014727174
0.00014722428
0.00014717351
0.00014711922
0.00014706117
0.00014699914
0.00014693289
0.00014686219
0.00014678679
0.00014670646
0.00014662094
0.00014653
0.00014643339
0.00014633087
0.00014622221
0.00014610722
0.0001459857
0.00014585754
0.00014572263
0.00014558094
0.00014543249
0.00014527737
0.00014511575
0.00014494784
0.00014477395
0.00014459453
0.00014441006
0.00014422111
0.00014402848
0.00014383297
0.0001436357
0.0001434381
0.00014324158
0.00014304853
0.00014286119
0.00014268275
0.00014251844
0.0001423669
0.0001422482
0.00014215934
0.00014210885
0.00014212766
0.00014222253
0.00014243009
0.00014278834
0.00014335547
0.00014422202
0.00014551185
0.00014742779
0.00015028425
0.0001545804
0.000161137
0.00017123594
0.00018698046
0.00021151774
0.00024837952
0.00030100768
0.00037172599
0.00046033044
0.00056386763
0.00067778092
0.00079749295
0.00091937832
0.0010409004
0.0011603498
0.0012765914
0.0013889
0.0014968391
0.0016001705
0.0016987929
0.0017927002
0.0018819517
0.0019666519
0.0020469348
0.0021229596
0.0021948753
0.0022629514
0.0023269798
0.0023889541
0.0024407789
0.0025239933
0.00014773761
0.00014773082
0.00014772283
0.0001477128
0.00014770047
0.00014768589
0.00014766914
0.00014765035
0.00014762966
0.0001476072
0.00014758306
0.00014755726
0.00014752981
0.00014750068
0.00014746979
0.00014743705
0.00014740234
0.00014736552
0.00014732641
0.00014728487
0.00014724069
0.0001471937
0.00014714371
0.00014709051
0.0001470339
0.00014697367
0.00014690961
0.00014684152
0.00014676916
0.00014669232
0.00014661077
0.00014652427
0.00014643259
0.0001463355
0.00014623277
0.0001461242
0.00014600959
0.00014588879
0.00014576169
0.00014562818
0.00014548825
0.0001453419
0.0001451892
0.00014503028
0.00014486533
0.00014469463
0.00014451849
0.00014433736
0.00014415172
0.00014396221
0.00014376967
0.00014357495
0.00014337935
0.00014318427
0.00014299136
0.00014280362
0.00014262101
0.00014245128
0.00014229681
0.0001421608
0.00014205534
0.0001419835
0.00014196689
0.00014201512
0.00014215121
0.00014241371
0.00014284182
0.0001435031
0.0001444939
0.00014595676
0.00014811785
0.00015131233
0.00015610159
0.00016341184
0.00017461024
0.00019197864
0.00021854235
0.00025776881
0.00031294256
0.00038575707
0.00047530227
0.00057827673
0.00069028787
0.00080721477
0.00092587074
0.001044002
0.0011600617
0.0012730147
0.0013821942
0.0014871927
0.0015877837
0.0016838682
0.0017754363
0.001862545
0.0019452743
0.0020238492
0.0020980002
0.0021699125
0.002230266
0.0023274353
0.00014775269
0.00014774373
0.00014773379
0.0001477222
0.00014770868
0.00014769318
0.00014767575
0.00014765645
0.0001476354
0.0001476127
0.00014758842
0.00014756262
0.0001475353
0.00014750648
0.00014747609
0.00014744409
0.00014741038
0.00014737484
0.00014733736
0.00014729777
0.00014725594
0.0001472117
0.00014716488
0.0001471153
0.00014706278
0.00014700715
0.0001469482
0.00014688576
0.00014681963
0.00014674959
0.00014667545
0.00014659698
0.00014651396
0.00014642617
0.00014633337
0.00014623535
0.0001461319
0.00014602282
0.00014590796
0.00014578715
0.0001456603
0.00014552731
0.00014538816
0.00014524284
0.00014509141
0.00014493397
0.00014477069
0.00014460179
0.00014442754
0.0001442483
0.00014406455
0.00014387683
0.00014368587
0.00014349254
0.00014329781
0.00014310337
0.00014290969
0.00014272002
0.00014253679
0.00014236178
0.00014220046
0.00014205589
0.00014193751
0.00014185148
0.00014180284
0.00014182115
0.00014190901
0.00014210428
0.00014243921
0.00014296457
0.00014375691
0.0001449247
0.00014663406
0.00014915237
0.00015286774
0.0001584418
0.00016686625
0.00017980967
0.00019967164
0.00022956242
0.00027293997
0.00033256858
0.00040922061
0.00050111926
0.00060461922
0.0007155561
0.00083030375
0.00094612411
0.001061071
0.0011738002
0.0012834111
0.0013893212
0.0014911748
0.0015887797
0.0016820383
0.0017710524
0.0018554283
0.0019375126
0.0020066528
0.0021183965
0.00014777019
0.00014775949
0.00014774796
0.00014773507
0.00014772052
0.00014770424
0.00014768621
0.00014766648
0.00014764511
0.00014762218
0.00014759776
0.0001475719
0.00014754462
0.00014751593
0.00014748582
0.00014745425
0.00014742115
0.00014738644
0.00014735002
0.00014731178
0.00014727158
0.0001472293
0.00014718478
0.00014713787
0.00014708842
0.00014703626
0.00014698123
0.00014692315
0.00014686186
0.00014679717
0.00014672888
0.00014665679
0.00014658071
0.0001465004
0.00014641566
0.00014632626
0.00014623198
0.00014613264
0.00014602802
0.00014591795
0.00014580226
0.00014568083
0.00014555355
0.00014542033
0.00014528114
0.00014513597
0.00014498487
0.00014482791
0.00014466522
0.000144497
0.00014432349
0.00014414501
0.00014396198
0.00014377494
0.00014358445
0.00014339152
0.00014319667
0.00014300139
0.0001428074
0.00014261595
0.00014242978
0.00014225106
0.00014208431
0.00014193387
0.00014180313
0.00014170413
0.0001416354
0.00014163044
0.00014168638
0.00014183203
0.00014209904
0.00014252977
0.00014318431
0.00014415467
0.00014556693
0.00014762991
0.00015064085
0.00015509971
0.00016176989
0.00017189909
0.00018738285
0.00021087015
0.00024563129
0.00029486423
0.00036047393
0.0004420789
0.00053704679
0.00064154426
0.00075176467
0.00086460379
0.00097776146
0.0010896041
0.0011990068
0.00130522
0.0014077444
0.0015063969
0.0016005357
0.0016925949
0.0017704631
0.0018970512
0.00014778985
0.00014777774
0.00014776493
0.00014775095
0.00014773555
0.0001477186
0.00014770008
0.00014767999
0.00014765836
0.00014763526
0.00014761073
0.00014758482
0.00014755756
0.00014752895
0.00014749901
0.00014746769
0.00014743497
0.00014740079
0.00014736507
0.00014732773
0.00014728866
0.00014724775
0.00014720488
0.00014715992
0.00014711273
0.00014706318
0.00014701111
0.00014695639
0.00014689884
0.00014683832
0.00014677464
0.00014670762
0.00014663707
0.00014656279
0.00014648458
0.00014640221
0.00014631549
0.0001462242
0.00014612813
0.0001460271
0.00014592091
0.00014580939
0.0001456924
0.00014556981
0.00014544151
0.00014530742
0.0001451675
0.00014502173
0.00014487014
0.0001447128
0.00014454982
0.00014438135
0.00014420763
0.00014402896
0.00014384568
0.00014365837
0.00014346746
0.00014327372
0.00014307822
0.00014288187
0.00014268618
0.00014249261
0.00014230357
0.00014212188
0.00014194965
0.00014179296
0.00014165301
0.00014154313
0.00014146694
0.00014143582
0.00014146605
0.00014157695
0.00014179478
0.0001421577
0.00014271565
0.00014354585
0.00014475294
0.00014650168
0.00014903581
0.00015274985
0.00015825809
0.0001665398
0.00017911478
0.00019821672
0.00022680171
0.00026812526
0.0003247409
0.00039735216
0.00048435248
0.00058246211
0.00068792526
0.0007974149
0.00090834826
0.0010188425
0.0011275519
0.0012336818
0.0013360967
0.0014371573
0.0015231258
0.0016641996
0.00014781141
0.00014779819
0.00014778433
0.00014776946
0.00014775335
0.00014773587
0.00014771694
0.00014769657
0.00014767476
0.00014765154
0.00014762696
0.00014760105
0.00014757382
0.0001475453
0.00014751548
0.00014748436
0.00014745192
0.0001474181
0.00014738286
0.00014734614
0.00014730785
0.0001472679
0.0001472262
0.00014718264
0.00014713711
0.00014708949
0.00014703966
0.00014698748
0.00014693282
0.00014687553
0.00014681545
0.00014675244
0.0001466863
0.00014661685
0.00014654391
0.00014646727
0.00014638673
0.00014630208
0.00014621313
0.00014611968
0.00014602151
0.00014591846
0.00014581033
0.00014569698
0.00014557824
0.00014545401
0.00014532417
0.00014518864
0.00014504738
0.00014490036
0.0001447476
0.00014458915
0.0001444251
0.00014425561
0.00014408087
0.00014390119
0.00014371687
0.00014352834
0.00014333624
0.00014314119
0.0001429441
0.00014274593
0.00014254806
0.00014235228
0.00014216006
0.00014197468
0.00014179754
0.00014163482
0.00014149052
0.00014137036
0.00014128204
0.00014123586
0.000141246
0.0001413302
0.00014151173
0.00014182427
0.00014231204
0.00014303976
0.0001440988
0.0001456277
0.00014783464
0.00015104299
0.00015576209
0.00016279434
0.00017339982
0.00018947951
0.00021366745
0.00024909866
0.00029863723
0.00036374154
0.00044369429
0.00053584302
0.000636643
0.00074268395
0.00085116335
0.00096011756
0.0010674577
0.0011751495
0.0012675763
0.0014216682
0.00014783467
0.00014782056
0.00014780586
0.00014779028
0.0001477736
0.00014775567
0.00014773643
0.00014771585
0.00014769392
0.00014767065
0.00014764607
0.0001476202
0.00014759306
0.00014756466
0.00014753499
0.00014750406
0.00014747185
0.00014743833
0.00014740346
0.0001473672
0.00014732948
0.00014729023
0.00014724938
0.00014720685
0.00014716254
0.00014711635
0.00014706819
0.00014701793
0.00014696547
0.00014691067
0.0001468534
0.00014679352
0.00014673087
0.00014666528
0.00014659657
0.00014652456
0.00014644907
0.00014636989
0.00014628683
0.0001461997
0.00014610828
0.0001460124
0.00014591185
0.00014580647
0.00014569607
0.0001455805
0.00014545963
0.00014533332
0.00014520147
0.000145064
0.00014492085
0.000144772
0.00014461746
0.00014445726
0.00014429149
0.00014412029
0.00014394385
0.0001437624
0.00014357629
0.00014338595
0.00014319192
0.00014299483
0.0001427955
0.00014259508
0.00014239459
0.0001421959
0.00014200024
0.00014181073
0.00014163032
0.00014146244
0.00014131145
0.00014118359
0.0001410857
0.00014102751
0.00014102208
0.00014108565
0.00014123977
0.00014151408
0.00014194882
0.00014260137
0.00014355393
0.00014492767
0.00014690457
0.00014976233
0.00015393524
0.00016010852
0.00016936176
0.0001833455
0.00020441361
0.00023551951
0.00027963274
0.00033869365
0.00041268161
0.0004995452
0.00059600712
0.00069881573
0.00080441234
0.00091386486
0.0010093001
0.0011729881
0.00014785945
0.00014784465
0.00014782928
0.00014781312
0.00014779597
0.0001477777
0.00014775822
0.0001477375
0.00014771551
0.00014769224
0.00014766772
0.00014764195
0.00014761494
0.0001475867
0.00014755723
0.00014752651
0.00014749455
0.00014746132
0.00014742678
0.0001473909
0.00014735364
0.00014731495
0.00014727475
0.000147233
0.00014718961
0.00014714451
0.0001470976
0.00014704881
0.00014699802
0.00014694514
0.00014689005
0.00014683262
0.00014677271
0.00014671017
0.00014664485
0.00014657658
0.00014650517
0.00014643046
0.00014635226
0.00014627036
0.00014618459
0.00014609475
0.00014600064
0.00014590208
0.00014579889
0.00014569088
0.00014557789
0.00014545977
0.00014533638
0.00014520759
0.00014507331
0.00014493343
0.00014478792
0.00014463672
0.00014447985
0.00014431734
0.00014414927
0.00014397574
0.00014379695
0.00014361314
0.00014342463
0.00014323182
0.00014303522
0.00014283553
0.00014263347
0.00014243017
0.00014222655
0.00014202435
0.00014182555