/*--------------------------------*- C++ -*----------------------------------*\
  =========                 |
  \\      /  F ield         | OpenFOAM: The Open Source CFD Toolbox
   \\    /   O peration     | Website:  https://openfoam.org
    \\  /    A nd           | Version:  12
     \\/     M anipulation  |
\*---------------------------------------------------------------------------*/
FoamFile
{
    format      ascii;
    class       volScalarField;
    location    "1700";
    object      k;
}
// * * * * * * * * * * * * * * * * * * * * * * * * * * * * * * * * * * * * * //

dimensions      [0 2 -2 0 0 0 0];

internalField   nonuniform List<scalar> 
13056
(
0.00011751673
8.1480123e-05
6.6275111e-05
5.94051e-05
5.5509029e-05
5.2877538e-05
5.0950403e-05
4.9484016e-05
4.8340164e-05
4.7430171e-05
4.6694214e-05
4.6090655e-05
4.5589717e-05
4.5169551e-05
4.4813778e-05
4.4509774e-05
4.4247982e-05
4.4019697e-05
4.3822443e-05
4.3636821e-05
4.3511522e-05
4.3264905e-05
4.3406928e-05
4.217978e-05
0.00016652733
0.00020618903
0.00019119133
0.0001760962
0.0001648607
0.00015572906
0.00014797459
0.00014135009
0.0001356625
0.00013072252
0.00012637734
0.00012251603
0.00011905863
0.00011593878
0.00011309864
0.00011049578
0.00010809795
0.00010587688
0.00010380975
0.00010187775
0.00010006512
9.8358769e-05
9.6747117e-05
9.5220604e-05
9.3771116e-05
9.2391368e-05
9.1075506e-05
8.9818128e-05
8.8613946e-05
8.7458596e-05
8.6348215e-05
8.5279044e-05
8.4247787e-05
8.3251792e-05
8.228856e-05
8.1355595e-05
8.045082e-05
7.9572502e-05
7.8718882e-05
7.7888178e-05
7.7078906e-05
7.6289833e-05
7.5519709e-05
7.4767221e-05
7.4031221e-05
7.3310818e-05
7.2605155e-05
7.1913232e-05
7.123408e-05
7.0567029e-05
6.9911452e-05
6.9266608e-05
6.8631737e-05
6.800618e-05
6.7389459e-05
6.6781084e-05
6.6180436e-05
6.5586874e-05
6.4999968e-05
6.4419343e-05
6.3844538e-05
6.3275034e-05
6.2710326e-05
6.2150103e-05
6.1594055e-05
6.1041743e-05
6.0492697e-05
5.9946547e-05
5.9403018e-05
5.8861777e-05
5.8322379e-05
5.7784375e-05
5.7247484e-05
5.6711435e-05
5.6175797e-05
5.5640117e-05
5.5104096e-05
5.4567461e-05
5.4029774e-05
5.3490552e-05
5.2949425e-05
5.2406068e-05
5.1859985e-05
5.131062e-05
5.0757578e-05
5.0200413e-05
4.9638508e-05
4.9071221e-05
4.8498144e-05
4.7931065e-05
4.738774e-05
4.6872918e-05
4.6384213e-05
4.5919396e-05
4.5476516e-05
4.5053898e-05
4.4650008e-05
4.426337e-05
4.3892656e-05
4.3536769e-05
4.3194682e-05
4.2865385e-05
4.2547938e-05
4.2241406e-05
4.1945103e-05
4.1657838e-05
4.1379498e-05
4.1106474e-05
4.0842941e-05
4.057169e-05
4.033084e-05
3.9941639e-05
0.00011752632
8.1492898e-05
6.6284786e-05
5.9411917e-05
5.5514018e-05
5.2881291e-05
5.0953231e-05
4.948611e-05
4.8341661e-05
4.7431174e-05
4.6694803e-05
4.6090894e-05
4.5589656e-05
4.5169231e-05
4.4813231e-05
4.4509026e-05
4.4247055e-05
4.4018607e-05
4.3821204e-05
4.3635441e-05
4.3510016e-05
4.3263261e-05
4.3405351e-05
4.2170248e-05
0.0018130071
0.0022323808
0.0020727109
0.0019119134
0.0017919701
0.0016943084
0.0016112444
0.0015401864
0.0014791047
0.0014259963
0.0013792392
0.0013376545
0.0013003922
0.0012667453
0.0012360963
0.0012079921
0.0011820884
0.0011580828
0.001135731
0.0011148316
0.0010952158
0.0010767432
0.0010592898
0.0010427529
0.0010270455
0.0010120893
0.00099782161
0.00098418428
0.00097112046
0.00095858325
0.00094653111
0.00093492353
0.00092372506
0.00091290712
0.00090244285
0.00089230531
0.00088247213
0.00087292464
0.00086364389
0.00085461064
0.00084580887
0.0008372253
0.00082884642
0.00082065808
0.00081264785
0.00080480612
0.00079712364
0.0007895896
0.0007821935
0.00077492811
0.00076778665
0.00076076111
0.00075384326
0.00074702594
0.000740304
0.00073367212
0.00072712359
0.00072065148
0.0007142511
0.00070791839
0.00070164836
0.00069543536
0.00068927389
0.00068316061
0.00067709212
0.00067106367
0.00066507011
0.00065910745
0.00065317266
0.00064726216
0.00064137105
0.00063549445
0.0006296293
0.00062377264
0.00061791977
0.00061206573
0.00060620725
0.00060034134
0.00059446322
0.00058856759
0.00058265041
0.00057670811
0.00057073525
0.00056472575
0.00055867524
0.00055257886
0.00054642984
0.00054022111
0.00053394818
0.00052774009
0.00052179128
0.00051615387
0.00051080182
0.00050571082
0.00050085957
0.00049622981
0.00049180479
0.00048756838
0.00048350611
0.00047960598
0.00047585677
0.00047224746
0.00046876777
0.00046540748
0.0004621591
0.00045900957
0.0004559577
0.00045296393
0.00045007404
0.00044709933
0.00044445785
0.00044018906
0.00011755555
8.1528801e-05
6.6309529e-05
5.9427455e-05
5.5523817e-05
5.2887203e-05
5.0956215e-05
4.9486769e-05
4.8340427e-05
4.7428375e-05
4.6690694e-05
4.6085675e-05
4.5583487e-05
4.5162238e-05
4.4805518e-05
4.4500676e-05
4.4238133e-05
4.4009165e-05
4.3811285e-05
4.3625064e-05
4.3499235e-05
4.3251989e-05
4.339396e-05
4.2143698e-05
0.0039027327
0.0047318244
0.0044088681
0.004085299
0.0038428563
0.0036445528
0.0034751675
0.0033296948
0.0032042059
0.0030947559
0.0029981247
0.0029119655
0.0028345841
0.0027645645
0.0027006603
0.0026419575
0.0025877612
0.0025374582
0.0024905526
0.0024466348
0.002405361
0.0023664451
0.0023296332
0.0022947157
0.0022615144
0.0022298689
0.0021996506
0.0021707404
0.002143021
0.0021163958
0.0020907794
0.0020660878
0.0020422477
0.0020192002
0.0019968896
0.0019752601
0.0019542652
0.0019338664
0.0019140243
0.0018946987
0.0018758564
0.0018574697
0.0018395106
0.0018219493
0.0018047599
0.0017879225
0.0017714176
0.0017552226
0.0017393154
0.0017236809
0.0017083049
0.0016931705
0.0016782603
0.0016635593
0.0016490567
0.0016347411
0.0016205985
0.001606614
0.0015927777
0.0015790811
0.0015655136
0.001552063
0.0015387177
0.0015254705
0.0015123142
0.0014992385
0.0014862325
0.0014732875
0.0014603971
0.0014475534
0.0014347459
0.0014219641
0.0014092013
0.001396451
0.001383703
0.0013709466
0.0013581745
0.0013453802
0.0013325532
0.001319682
0.0013067575
0.0012937719
0.0012807132
0.001267568
0.0012543265
0.0012409781
0.0012275076
0.0012138993
0.0012001432
0.0011865223
0.0011734637
0.0011610826
0.0011493228
0.0011381317
0.0011274632
0.0011172777
0.0011075388
0.0010982117
0.0010892648
0.0010806721
0.0010724092
0.0010644521
0.0010567785
0.001049366
0.0010421982
0.0010352468
0.001028509
0.0010218978
0.0010155144
0.0010089418
0.0010031041
0.00099366734
0.00011760532
8.158914e-05
6.6350424e-05
5.9452548e-05
5.55391e-05
5.2895835e-05
5.0959834e-05
4.9486404e-05
4.8336819e-05
4.7422086e-05
4.6682159e-05
4.6075238e-05
4.557142e-05
4.5148761e-05
4.4790806e-05
4.448487e-05
4.4221346e-05
4.3991485e-05
4.3792786e-05
4.3605778e-05
4.3479252e-05
4.3231126e-05
4.337283e-05
4.2102116e-05
0.0057835052
0.0069374877
0.0064923687
0.0060490244
0.0057159345
0.005442436
0.0052078742
0.0050056305
0.0048305316
0.0046773049
0.0045416132
0.0044202882
0.0043110422
0.0042119534
0.0041213179
0.0040378858
0.0039607073
0.0038889405
0.0038219032
0.0037590313
0.0036998504
0.0036439652
0.0035910245
0.0035407377
0.003492858
0.0034471624
0.0034034728
0.0033616235
0.0033214508
0.0032828197
0.0032456109
0.0032097067
0.0031750042
0.0031414209
0.0031088788
0.0030772991
0.0030466166
0.0030167772
0.0029877253
0.0029594041
0.0029317665
0.0029047737
0.0028783859
0.0028525608
0.0028272615
0.0028024597
0.0027781281
0.0027542341
0.002730746
0.0027076425
0.0026849033
0.0026625041
0.00264042
0.0026186292
0.0025971162
0.0025758649
0.0025548547
0.002534064
0.0025134786
0.0024930861
0.002472871
0.0024528156
0.0024329026
0.0024131217
0.0023934623
0.0023739093
0.0023544463
0.0023350605
0.0023157424
0.0022964804
0.0022772587
0.0022580613
0.0022388784
0.0022197001
0.0022005111
0.0021812949
0.0021620406
0.0021427381
0.0021233715
0.002103923
0.0020843787
0.0020647265
0.0020449479
0.002025022
0.0020049338
0.0019846663
0.0019641962
0.0019434989
0.0019225585
0.0019018055
0.001881892
0.0018629959
0.0018450338
0.0018279273
0.0018116077
0.0017960161
0.0017810982
0.0017668017
0.0017530795
0.0017398926
0.0017272045
0.0017149791
0.0017031828
0.0016917819
0.001680752
0.0016700494
0.0016596709
0.0016494824
0.0016396405
0.001629502
0.0016204933
0.0016059225
0.00011767704
8.1675942e-05
6.6409164e-05
5.9488515e-05
5.556093e-05
5.290808e-05
5.0964852e-05
4.9485677e-05
4.8331415e-05
4.7412814e-05
4.6669648e-05
4.6059982e-05
4.5553814e-05
4.5129117e-05
4.4769379e-05
4.4461863e-05
4.4196924e-05
4.3965773e-05
4.3765889e-05
4.3577744e-05
4.3450209e-05
4.320078e-05
4.334209e-05
4.2046686e-05
0.0072356436
0.0086689586
0.0081396153
0.0076143349
0.0072198383
0.0068954438
0.0066166529
0.0063757324
0.0061666949
0.0059834021
0.005820783
0.0056751284
0.0055437609
0.0054244263
0.0053151169
0.0052143587
0.0051210332
0.0050341458
0.0049528898
0.0048765974
0.004804707
0.0047367501
0.0046723096
0.0046110405
0.0045526498
0.0044968724
0.0044434964
0.0043923253
0.0043431632
0.0042958494
0.0042502413
0.0042061984
0.0041635972
0.0041223393
0.0040823315
0.0040434791
0.0040057038
0.0039689411
0.0039331242
0.0038981847
0.003864066
0.0038307214
0.0037981031
0.00376616
0.0037348474
0.0037041313
0.0036739789
0.0036443505
0.0036152078
0.0035865246
0.0035582769
0.0035304349
0.0035029681
0.00347585
0.0034490617
0.0034225837
0.0033963908
0.0033704563
0.0033447628
0.0033192952
0.0032940343
0.0032689582
0.0032440456
0.0032192836
0.0031946592
0.0031701536
0.0031457462
0.0031214212
0.0030971664
0.0030729675
0.0030488045
0.0030246574
0.0030005134
0.0029763603
0.0029521784
0.0029279468
0.0029036516
0.0028792798
0.0028548108
0.0028302219
0.0028054952
0.0027806148
0.0027555569
0.0027302945
0.0027048078
0.0026790747
0.0026530647
0.0026267458
0.0026000968
0.0025736653
0.002548283
0.0025241794
0.0025012504
0.0024793984
0.0024585376
0.0024385943
0.002419501
0.0024011919
0.0023836081
0.0023667006
0.0023504238
0.0023347323
0.0023195837
0.0023049356
0.0022907571
0.0022769929
0.0022636393
0.0022505241
0.0022378496
0.0022247868
0.002213175
0.0021943839
0.00011777256
8.179196e-05
6.6488088e-05
5.9537199e-05
5.5590818e-05
5.2925223e-05
5.0972384e-05
4.948557e-05
4.8325084e-05
4.7401336e-05
4.6653859e-05
4.6040539e-05
4.5531239e-05
4.510383e-05
4.4741716e-05
4.4432095e-05
4.4165269e-05
4.3932398e-05
4.3730936e-05
4.3541274e-05
4.3412395e-05
4.3161201e-05
4.3302014e-05
4.197833e-05
0.0082934125
0.010021135
0.0094344497
0.0088500567
0.0084117131
0.0080511093
0.0077408638
0.0074724111
0.0072391829
0.0070344346
0.0068525792
0.0066895252
0.0065423194
0.0064084744
0.0062857695
0.0061725711
0.0060676412
0.0059698782
0.0058783865
0.0057924255
0.0057113715
0.0056347041
0.0055619596
0.0054927543
0.0054267626
0.0053636894
0.005303299
0.0052453726
0.0051896919
0.0051360776
0.0050843708
0.0050344145
0.0049860708
0.0049392296
0.004893787
0.0048496371
0.0048066923
0.0047648803
0.0047241267
0.0046843547
0.0046455007
0.0046075125
0.0045703366
0.0045339156
0.0044981991
0.0044631491
0.0044287286
0.0043948932
0.0043615993
0.0043288179
0.0042965215
0.0042646768
0.0042332493
0.0042022089
0.0041715343
0.0041412036
0.0041111879
0.0040814571
0.0040519914
0.0040227735
0.0039937817
0.0039649912
0.0039363773
0.0039079255
0.0038796207
0.0038514416
0.0038233645
0.003795371
0.0037674474
0.003739577
0.0037117366
0.0036839033
0.0036560622
0.0036281989
0.0036002907
0.0035723133
0.0035442503
0.0035160865
0.0034877979
0.0034593578
0.0034307453
0.0034019416
0.0033729185
0.0033436444
0.0033140958
0.0032842464
0.0032540604
0.0032234997
0.003192539
0.0031618139
0.0031322925
0.0031042435
0.0030775479
0.0030520938
0.0030277828
0.0030045306
0.0029822595
0.0029608941
0.0029403665
0.0029206208
0.0029016041
0.0028832644
0.0028655527
0.00284842
0.0028318309
0.002815721
0.0028000865
0.002784726
0.0027698769
0.0027545675
0.0027409548
0.002718917
0.0001178942
8.1940677e-05
6.659022e-05
5.9601033e-05
5.5630792e-05
5.2949018e-05
5.098398e-05
4.9487465e-05
4.8319076e-05
4.7388788e-05
4.663583e-05
4.6017865e-05
4.5504583e-05
4.5073724e-05
4.4708588e-05
4.4396288e-05
4.412706e-05
4.3892001e-05
4.368853e-05
4.3496937e-05
4.3366347e-05
4.3112878e-05
4.3253126e-05
4.1898069e-05
0.0090304185
0.011098167
0.010475601
0.0098467843
0.0093755043
0.0089877265
0.0086538531
0.0083646891
0.0081132367
0.0078923073
0.0076959326
0.0075197359
0.0073605563
0.0072157339
0.0070828902
0.006960271
0.0068465486
0.0067405419
0.0066412886
0.0065479929
0.0064599849
0.0063767049
0.0062976545
0.0062224208
0.0061506534
0.006082035
0.0060163116
0.0059532479
0.0058926087
0.0058342005
0.0057778521
0.0057233942
0.0056706779
0.0056195844
0.0055700016
0.0055218153
0.0054749306
0.0054292697
0.005384752
0.0053412946
0.0052988285
0.0052572976
0.0052166437
0.0051768048
0.0051377263
0.0050993669
0.0050616868
0.0050246376
0.0049881721
0.0049522586
0.0049168676
0.0048819628
0.0048475067
0.0048134663
0.0047798187
0.00474654
0.0047135986
0.0046809619
0.0046486081
0.0046165182
0.0045846688
0.0045530325
0.0045215823
0.0044903023
0.0044591761
0.0044281801
0.0043972883
0.0043664807
0.0043357418
0.0043050533
0.0042743899
0.0042437259
0.004213045
0.0041823312
0.0041515594
0.0041207026
0.0040897425
0.0040586623
0.0040274352
0.0039960314
0.0039644277
0.0039326028
0.0039005255
0.0038681603
0.0038354809
0.0038024579
0.0037690508
0.0037352171
0.0037009282
0.0036668878
0.0036341689
0.0036030711
0.0035734637
0.0035452239
0.0035182439
0.003492431
0.0034676999
0.0034439679
0.0034211601
0.003399215
0.0033780748
0.0033576819
0.0033379825
0.0033189224
0.0033004627
0.0032825322
0.0032651269
0.0032480227
0.0032314845
0.0032144299
0.003199262
0.0031746998
0.00011804467
8.212631e-05
6.6719327e-05
5.9683118e-05
5.5683488e-05
5.2981785e-05
5.1001722e-05
4.9493258e-05
4.8315129e-05
4.7376778e-05
4.661706e-05
4.5993362e-05
4.5475165e-05
4.5040046e-05
4.4671178e-05
4.435557e-05
4.4083375e-05
4.3845613e-05
4.3639658e-05
4.3445681e-05
4.3312976e-05
4.3056664e-05
4.3196343e-05
4.1807291e-05
0.0095064844
0.011972178
0.011332752
0.010670142
0.010173385
0.0097645083
0.0094122243
0.0091068738
0.0088411423
0.0086075117
0.0083997252
0.0082131868
0.0080445738
0.0078910941
0.0077502496
0.007620191
0.0074995204
0.007386996
0.007281603
0.0071825028
0.0070889892
0.007000472
0.0069164257
0.0068364143
0.0067600681
0.0066870525
0.0066170991
0.0065499595
0.0064853856
0.0064231723
0.0063631389
0.0063051065
0.0062489175
0.0061944462
0.0061415741
0.0060901803
0.0060401645
0.005991444
0.0059439339
0.0058975462
0.0058522079
0.0058078592
0.0057644387
0.0057218808
0.0056801273
0.0056391345
0.0055988601
0.0055592529
0.0055202627
0.0054818557
0.0054440006
0.0054066589
0.0053697907
0.0053333609
0.005297345
0.0052617175
0.0052264451
0.0051914927
0.0051568371
0.0051224582
0.0050883308
0.0050544257
0.0050207142
0.004987179
0.0049538026
0.0049205599
0.004887423
0.0048543702
0.0048213851
0.0047884479
0.0047555315
0.0047226083
0.0046896606
0.0046566712
0.004623613
0.0045904569
0.0045571831
0.0045237734
0.0044901988
0.0044564272
0.0044224334
0.0043881941
0.0043536756
0.0043188395
0.0042836571
0.0042480961
0.004212113
0.0041756614
0.0041387098
0.0041020166
0.0040667389
0.0040332007
0.0040012623
0.0039707922
0.0039416748
0.0039138111
0.0038871097
0.0038614817
0.003836847
0.0038131396
0.0037902975
0.003768259
0.0037469662
0.0037263611
0.0037064016
0.0036870112
0.0036681858
0.0036496834
0.0036317903
0.0036133364
0.0035969208
0.0035703327
0.00011822704
8.2353817e-05
6.6879978e-05
5.9787312e-05
5.5752251e-05
5.3026522e-05
5.1028351e-05
4.9505481e-05
4.8315602e-05
4.736752e-05
4.659964e-05
4.5969017e-05
4.544488e-05
4.5004612e-05
4.4631231e-05
4.4311622e-05
4.4035838e-05
4.3794805e-05
4.3585846e-05
4.3388987e-05
4.3253721e-05
4.2993926e-05
4.313313e-05
4.1707975e-05
0.0097640599
0.012689507
0.012051689
0.011363811
0.010847137
0.010421598
0.010054669
0.0097363771
0.0094591828
0.0092153263
0.0089983326
0.0088034358
0.0086271848
0.0084666846
0.0083193456
0.008183242
0.0080569198
0.0079390899
0.0078286955
0.0077248638
0.0076268598
0.0075340688
0.0074459437
0.0073620298
0.007281942
0.007205332
0.0071319197
0.007061446
0.0069936525
0.006928325
0.0068652745
0.0068043149
0.0067452815
0.0066880427
0.006632475
0.0065784524
0.0065258696
0.0064746405
0.0064246762
0.0063758849
0.0063281902
0.0062815294
0.0062358386
0.0061910488
0.0061470995
0.0061039446
0.0060615399
0.006019832
0.0059787681
0.0059383128
0.0058984332
0.0058590892
0.0058202387
0.0057818452
0.0057438826
0.0057063243
0.0056691354
0.005632279
0.0055957305
0.005559469
0.0055234679
0.0054876964
0.0054521245
0.0054167338
0.0053815058
0.0053464141
0.0053114293
0.0052765284
0.0052416942
0.0052069057
0.0051721342
0.0051373505
0.0051025359
0.0050676721
0.0050327305
0.0049976801
0.0049625001
0.0049271708
0.0048916617
0.0048559385
0.0048199744
0.0047837448
0.0047472136
0.00471034
0.0046730933
0.0046354393
0.0045973312
0.0045587199
0.0045195715
0.0044806892
0.0044432997
0.0044077473
0.0043738847
0.0043415734
0.0043106913
0.0042811342
0.0042528056
0.0042256118
0.0041994682
0.0041743052
0.0041500572
0.0041266592
0.00410405
0.0040821682
0.0040609695
0.0040403728
0.0040203739
0.0040007162
0.0039817033
0.0039620939
0.003944647
0.0039163834
0.00011844472
8.2628894e-05
6.7077608e-05
5.9918328e-05
5.5841255e-05
5.3087033e-05
5.1067396e-05
4.9527445e-05
4.8323626e-05
4.7363989e-05
4.6586413e-05
4.594756e-05
4.5416361e-05
4.4969968e-05
4.4591216e-05
4.4266846e-05
4.3986789e-05
4.3741864e-05
4.3529327e-05
4.3329038e-05
4.3190723e-05
4.2926725e-05
4.3065692e-05
4.1602907e-05
0.0098327623
0.013279289
0.012662515
0.011956842
0.011424725
0.010985995
0.010607331
0.010278584
0.0099920727
0.0097398675
0.0095153331
0.0093135729
0.0091310337
0.0089647409
0.0088120354
0.0086709293
0.0085399234
0.0084176919
0.008303144
0.0081953791
0.0080936393
0.00799729
0.0079057666
0.0078185993
0.0077353904
0.0076557808
0.0075794803
0.0075062215
0.0074357375
0.0073678064
0.0073022326
0.007238824
0.0071774101
0.0071178546
0.0070600295
0.0070038047
0.0069490713
0.0068957396
0.006843718
0.0067929114
0.0067432405
0.0066946403
0.0066470445
0.0066003819
0.0065545896
0.0065096196
0.0064654261
0.0064219539
0.0063791484
0.0063369723
0.0062953917
0.006254365
0.0062138485
0.0061738042
0.0061342049
0.0060950231
0.0060562224
0.0060177645
0.0059796238
0.0059417782
0.0059042005
0.0058668584
0.0058297206
0.0057927679
0.005755981
0.0057193324
0.0056827914
0.0056463341
0.0056099423
0.0055735941
0.0055372595
0.0055009081
0.0054645201
0.0054280765
0.0053915471
0.0053548998
0.0053181123
0.0052811642
0.0052440235
0.0052066541
0.0051690279
0.0051311189
0.0050928892
0.0050542961
0.005015307
0.0049758859
0.0049359838
0.0048955487
0.0048545449
0.0048138135
0.00477464
0.0047373858
0.0047018974
0.00466803
0.0046356565
0.004604668
0.0045749639
0.0045464464
0.004519027
0.0044926331
0.0044671964
0.0044426486
0.0044189261
0.0043959645
0.0043737177
0.0043521006
0.004331109
0.0043104743
0.0042905139
0.0042699285
0.004251609
0.004221927
0.00011870136
8.295797e-05
6.7318585e-05
6.0081839e-05
5.595562e-05
5.3168065e-05
5.1123327e-05
4.9563396e-05
4.834326e-05
4.7370091e-05
4.658115e-05
4.5932644e-05
4.5393158e-05
4.4939574e-05
4.4554517e-05
4.4224553e-05
4.3939477e-05
4.3689978e-05
4.3473236e-05
4.3268918e-05
4.3127019e-05
4.2858003e-05
4.2997192e-05
4.1495865e-05
0.0097337841
0.013759088
0.013185452
0.012468884
0.011925179
0.011476155
0.011088139
0.010750955
0.010456855
0.010197805
0.0099670589
0.0097596238
0.0095718662
0.009400751
0.0092435684
0.0090982804
0.0089633508
0.0088374264
0.0087193887
0.0086083149
0.0085034287
0.0084040791
0.008309688
0.0082197727
0.0081339255
0.0080517786
0.0079730335
0.0078974157
0.0078246519
0.0077545133
0.007686799
0.0076213119
0.0075578769
0.0074963533
0.0074366099
0.0073785133
0.007321951
0.0072668308
0.0072130585
0.0071605365
0.0071091831
0.007058931
0.0070097123
0.0069614538
0.0069140906
0.0068675732
0.0068218543
0.0067768773
0.0067325858
0.0066889414
0.0066459089
0.0066034457
0.0065615067
0.0065200526
0.0064790553
0.0064384863
0.0063983083
0.0063584818
0.0063189799
0.0062797801
0.006240854
0.0062021687
0.0061636914
0.0061254023
0.0060872815
0.0060493004
0.0060114274
0.0059736376
0.0059359121
0.0058982281
0.0058605547
0.0058228603
0.0057851242
0.0057473267
0.0057094365
0.0056714202
0.0056332546
0.0055949184
0.0055563783
0.0055175969
0.0054785447
0.0054391947
0.0053995075
0.0053594384
0.0053189535
0.0052780152
0.0052365724
0.0051945709
0.0051519732
0.0051096531
0.0050689466
0.0050302298
0.0049933437
0.0049581386
0.0049244828
0.0048922635
0.0048613765
0.0048317204
0.0048032036
0.0047757509
0.0047492913
0.0047237544
0.0046990738
0.0046751831
0.0046520342
0.0046295391
0.0046076931
0.004586218
0.0045654419
0.0045440182
0.0045249475
0.0044940434
0.00011900082
8.3348177e-05
6.7610259e-05
6.0284573e-05
5.610154e-05
5.3275446e-05
5.1201705e-05
4.9618681e-05
4.8379673e-05
4.7390837e-05
4.6588731e-05
4.5929035e-05
4.5379936e-05
4.4918008e-05
4.452563e-05
4.418917e-05
4.3898263e-05
4.3643449e-05
4.3421821e-05
4.3212825e-05
4.306676e-05
4.2791809e-05
4.2932006e-05
4.1391748e-05
0.0094830672
0.014138706
0.013634117
0.012913464
0.012361718
0.011904953
0.011509645
0.011165746
0.010865521
0.010600891
0.010365046
0.010152925
0.0099608367
0.0097857012
0.0096247745
0.0094759789
0.0093377492
0.009208712
0.0090877269
0.0089738534
0.0088663007
0.0087644049
0.008667577
0.0085753238
0.0084872296
0.0084029199
0.0083220891
0.008244457
0.0081697451
0.0080977188
0.0080281727
0.0079609059
0.0078957394
0.0078325288
0.0077711401
0.0077114372
0.0076533049
0.0075966485
0.0075413719
0.0074873755
0.0074345753
0.0073829023
0.0073322869
0.0072826547
0.0072339389
0.0071860885
0.0071390552
0.0070927811
0.0070472087
0.007002298
0.0069580131
0.0069143103
0.0068711436
0.0068284725
0.006786268
0.0067445009
0.0067031331
0.0066621239
0.0066214456
0.006581075
0.0065409831
0.0065011359
0.0064615
0.0064220546
0.0063827793
0.0063436447
0.0063046186
0.0062656749
0.0062267941
0.006187953
0.0061491196
0.0061102612
0.0060713566
0.0060323852
0.005993315
0.0059541113
0.0059147502
0.0058752095
0.0058354549
0.0057954479
0.0057551577
0.0057145563
0.0056736031
0.0056322518
0.0055904673
0.0055482104
0.0055054283
0.005462065
0.0054180813
0.0053743793
0.005332339
0.0052923496
0.0052542472
0.0052178778
0.0051831058
0.0051498148
0.0051178977
0.0050872501
0.0050577775
0.0050294025
0.0050020518
0.004975653
0.0049501377
0.0049254373
0.0049015023
0.0048782421
0.0048556514
0.0048334443
0.0048119571
0.0047898049
0.0047700795
0.0047381088
0.00011934705
8.38073e-05
6.7960997e-05
6.0534406e-05
5.6286395e-05
5.3416219e-05
5.1309329e-05
4.9699905e-05
4.8439304e-05
4.7432529e-05
4.6615333e-05
4.5942802e-05
4.5382671e-05
4.4911161e-05
4.4510372e-05
4.4166446e-05
4.3868836e-05
4.3607911e-05
4.3380662e-05
4.3166291e-05
4.3015429e-05
4.2733516e-05
4.2876005e-05
4.1296594e-05
0.0090946632
0.014421719
0.014017625
0.013299997
0.012743682
0.012281549
0.011880819
0.011531746
0.011226692
0.010957593
0.010717618
0.010501671
0.010306018
0.010127553
0.00996351
0.0098117834
0.0096707848
0.0095391277
0.0094156552
0.0092994128
0.0091895991
0.0090855399
0.008986638
0.0088923918
0.0088023791
0.0087162207
0.0086336049
0.0085542469
0.0084778643
0.0084042175
0.0083330973
0.0082643
0.0081976433
0.0081329797
0.0080701728
0.0080090846
0.0079495976
0.0078916147
0.0078350384
0.0077797675
0.0077257161
0.0076728136
0.0076209892
0.0075701672
0.0075202795
0.0074712738
0.0074231007
0.0073757015
0.0073290175
0.0072830076
0.0072376351
0.0071928556
0.007148622
0.0071048931
0.007061639
0.0070188297
0.0069764266
0.0069343882
0.0068926858
0.0068512957
0.0068101882
0.0067693287
0.0067286831
0.0066882297
0.0066479476
0.0066078071
0.0065677749
0.0065278243
0.0064879351
0.0064480836
0.0064082371
0.0063683621
0.0063284365
0.0062884391
0.0062483373
0.0062080955
0.0061676888
0.0061270944
0.0060862772
0.0060451974
0.0060038234
0.0059621263
0.0059200643
0.0058775897
0.0058346663
0.0057912537
0.0057472976
0.00570274
0.0056575405
0.005612626
0.0055694154
0.0055283089
0.0054891387
0.0054517469
0.0054159945
0.0053817622
0.0053489401
0.0053174213
0.0052871088
0.0052579231
0.0052297892
0.0052026327
0.0051763834
0.0051509712
0.0051263449
0.0051024119
0.0050791664
0.0050563161
0.0050342033
0.0050114129
0.0049911115
0.0049582015
0.00011974402
8.4343694e-05
6.8380183e-05
6.084041e-05
5.651884e-05
5.3598751e-05
5.1454366e-05
4.9815075e-05
4.8530027e-05
4.7502921e-05
4.6668608e-05
4.5981506e-05
4.5408841e-05
4.4926437e-05
4.4516082e-05
4.4163661e-05
4.3858422e-05
4.3590541e-05
4.3356889e-05
4.3136404e-05
4.2980072e-05
4.2690051e-05
4.2836871e-05
4.1217439e-05
0.0085820538
0.014606964
0.014341888
0.013635029
0.013077744
0.012612563
0.012208182
0.011855375
0.011546688
0.011274136
0.01103091
0.010811912
0.010613382
0.010432202
0.010265601
0.010111454
0.0099681545
0.009834311
0.009708754
0.0095905196
0.0094787984
0.009372909
0.0092722483
0.0091763082
0.0090846615
0.0089969258
0.0089127846
0.0088319494
0.008754135
0.0086790977
0.0086066249
0.008536511
0.0084685711
0.0084026551
0.0083386245
0.0082763401
0.0082156823
0.0081565522
0.0080988509
0.0080424761
0.0079873402
0.0079333714
0.0078804978
0.0078286427
0.0077777369
0.0077277269
0.0076785625
0.0076301843
0.0075825327
0.0075355655
0.0074892452
0.0074435269
0.007398363
0.0073537112
0.0073095409
0.0072658216
0.0072225142
0.0071795763
0.0071369788
0.0070946971
0.0070527011
0.0070109558
0.0069694263
0.0069280902
0.0068869262
0.0068459042
0.0068049901
0.0067641566
0.006723383
0.006682645
0.0066419094
0.0066011419
0.0065603197
0.006519421
0.0064784128
0.0064372584
0.0063959324
0.0063544113
0.0063126592
0.0062706354
0.0062283074
0.0061856454
0.0061426067
0.0060991426
0.0060552155
0.006010784
0.0059657925
0.0059201816
0.0058739093
0.0058279247
0.0057836807
0.0057415878
0.0057014744
0.0056631793
0.0056265606
0.0055914964
0.0055578743
0.0055255851
0.00549453
0.0054646273
0.0054358006
0.0054079737
0.0053810751
0.0053550329
0.005329795
0.0053052667
0.0052814417
0.0052580227
0.005235356
0.0052120034
0.0051911925
0.0051574495
0.0001201956
8.4966154e-05
6.8878168e-05
6.1212874e-05
5.6808855e-05
5.3832806e-05
5.1646438e-05
4.9973708e-05
4.8661265e-05
4.7611355e-05
4.6757823e-05
4.6054347e-05
4.5467587e-05
4.4972924e-05
4.4551798e-05
4.4189807e-05
4.3875969e-05
4.3600248e-05
4.3359375e-05
4.3132003e-05
4.296949e-05
4.2670303e-05
4.2824258e-05
4.1161886e-05
0.0079585378
0.014689622
0.014610397
0.013922994
0.01336868
0.012902817
0.01249654
0.012141396
0.011830224
0.011555181
0.011309532
0.011088205
0.010887437
0.010704109
0.010535463
0.01037936
0.010234186
0.010098549
0.0099712716
0.0098513843
0.0097380733
0.0096306522
0.0095285143
0.0094311468
0.0093381192
0.0092490475
0.0091636112
0.009081519
0.009002484
0.0089262591
0.0088526291
0.0087813869
0.0087123461
0.0086453538
0.0085802703
0.0085169555
0.0084552881
0.0083951675
0.008336494
0.0082791644
0.0082230898
0.0081681971
0.0081144135
0.0080616618
0.008009872
0.0079589892
0.0079089625
0.0078597322
0.007811238
0.0077634367
0.00771629
0.0076697528
0.0076237767
0.007578319
0.0075333481
0.0074888333
0.0074447348
0.0074010099
0.0073576286
0.0073145659
0.0072717914
0.0072292694
0.0071869646
0.007144854
0.0071029158
0.0070611195
0.0070194307
0.0069778213
0.00693627
0.0068947522
0.0068532342
0.0068116811
0.0067700693
0.0067283766
0.0066865695
0.0066446107
0.006602474
0.0065601352
0.006517558
0.0064747008
0.0064315302
0.0063880157
0.0063441138
0.0062997748
0.0062549599
0.006209627
0.0061637191
0.0061171755
0.0060699531
0.0060230201
0.0059778602
0.0059348927
0.0058939429
0.0058548466
0.0058174592
0.0057816566
0.0057473244
0.0057143513
0.0056826366
0.005652097
0.0056226548
0.0055942324
0.0055667568
0.0055401548
0.0055143733
0.005489316
0.0054649758
0.0054410521
0.0054178929
0.0053940436
0.0053727799
0.0053382949
0.00012070538
8.5683737e-05
6.9466157e-05
6.1663251e-05
5.7167726e-05
5.4129551e-05
5.1896654e-05
5.0186873e-05
4.8844055e-05
4.7768833e-05
4.6893948e-05
4.6172264e-05
4.5569815e-05
4.50615e-05
4.4628369e-05
4.4255709e-05
4.3932281e-05
4.3647813e-05
4.3398877e-05
4.316383e-05
4.2994394e-05
4.2685382e-05
4.2849874e-05
4.1137612e-05
0.0072383063
0.014661487
0.014824633
0.014166664
0.013619848
0.013155823
0.012749451
0.012393377
0.01208086
0.011804273
0.011557005
0.011334046
0.01113165
0.010946715
0.010776507
0.010618886
0.010472237
0.010335173
0.010206513
0.010085287
0.009970679
0.0098620005
0.0097586437
0.0096600927
0.0095659152
0.009475727
0.0093892047
0.0093060553
0.009225991
0.009148762
0.009074151
0.0090019503
0.0089319723
0.0088640621
0.0087980789
0.0087338822
0.0086713495
0.0086103787
0.0085508695
0.0084927181
0.0084358347
0.0083801448
0.0083255753
0.0082720484
0.0082194934
0.0081678545
0.0081170801
0.0080671103
0.0080178844
0.0079693579
0.0079214922
0.0078742418
0.0078275582
0.0077813978
0.0077357284
0.0076905188
0.0076457291
0.0076013162
0.0075572493
0.0075135029
0.0074700464
0.0074268438
0.0073838593
0.0073410691
0.0072984513
0.007255975
0.0072136053
0.0071713137
0.0071290785
0.0070868744
0.0070446674
0.0070024223
0.0069601145
0.0069177218
0.0068752099
0.0068325411
0.0067896884
0.0067466274
0.0067033209
0.0066597268
0.0066158109
0.006571542
0.0065268759
0.0064817619
0.0064361604
0.0063900283
0.0063433077
0.0062959367
0.0062478708
0.0062000957
0.0061541221
0.0061103774
0.0060686839
0.006028875
0.0059908039
0.0059543443
0.0059193801
0.0058857981
0.0058534961
0.0058223895
0.005792399
0.005763446
0.0057354562
0.0057083555
0.0056820894
0.0056565607
0.0056317614
0.0056073887
0.0055837902
0.0055595015
0.0055378345
0.0055026864
0.00012127658
8.6505519e-05
7.0156021e-05
6.2204021e-05
5.7607946e-05
5.4501478e-05
5.2217543e-05
5.0467145e-05
4.909101e-05
4.7987998e-05
4.7089648e-05
4.6347934e-05
4.5728214e-05
4.5204858e-05
4.4758495e-05
4.4374066e-05
4.4040056e-05
4.3745936e-05
4.3488094e-05
4.3244586e-05
4.306747e-05
4.2747833e-05
4.2926978e-05
4.1154442e-05
0.0064377467
0.014512297
0.014983514
0.014367375
0.013833483
0.013374083
0.012969533
0.012613995
0.012301301
0.012024128
0.011776048
0.01155215
0.011348728
0.011162715
0.010991416
0.010832703
0.010684963
0.010546821
0.010417102
0.010294835
0.010179207
0.01006953
0.0099651969
0.009865691
0.0097705793
0.0096794792
0.0095920655
0.009508044
0.0094271274
0.0093490637
0.0092736341
0.0092006311
0.0091298664
0.0090611834
0.0089944408
0.0089294981
0.0088662318
0.0088045387