/*--------------------------------*- C++ -*----------------------------------*\
  =========                 |
  \\      /  F ield         | OpenFOAM: The Open Source CFD Toolbox
   \\    /   O peration     | Website:  https://openfoam.org
    \\  /    A nd           | Version:  12
     \\/     M anipulation  |
\*---------------------------------------------------------------------------*/
FoamFile
{
    format      ascii;
    class       volScalarField;
    location    "1700";
    object      nut;
}
// * * * * * * * * * * * * * * * * * * * * * * * * * * * * * * * * * * * * * //

dimensions      [0 2 -1 0 0 0 0];

internalField   nonuniform List<scalar> 
7480
(
2.296454e-06
3.6715287e-06
4.9379138e-06
5.9924742e-06
6.8103572e-06
7.4053614e-06
7.8089852e-06
8.0588635e-06
8.1920394e-06
8.2408443e-06
8.2312282e-06
8.1827719e-06
8.109601e-06
8.0215599e-06
7.9253344e-06
7.8254211e-06
7.7249567e-06
7.6263243e-06
7.531326e-06
7.4414713e-06
7.3581328e-06
7.282605e-06
7.2160575e-06
7.1594381e-06
7.113363e-06
7.0778308e-06
7.051709e-06
7.0331411e-06
7.0194841e-06
7.0078446e-06
6.9958359e-06
6.9820633e-06
6.9661563e-06
6.9485388e-06
6.9298949e-06
6.9107713e-06
6.8913995e-06
6.8717482e-06
6.8516919e-06
6.8311756e-06
6.8102888e-06
6.7892225e-06
6.7681778e-06
6.7472865e-06
6.7265966e-06
6.7061116e-06
6.6858334e-06
6.6657737e-06
6.6459456e-06
6.6263572e-06
6.6070084e-06
6.5878933e-06
6.5690053e-06
6.5503417e-06
6.5319e-06
6.5136741e-06
6.4956562e-06
6.4778421e-06
6.4602311e-06
6.4428156e-06
6.4255887e-06
6.4085444e-06
6.3916772e-06
6.3749828e-06
6.358458e-06
6.3420993e-06
6.3259032e-06
6.3098663e-06
6.2939847e-06
6.2782548e-06
6.2626732e-06
6.2472363e-06
6.2319408e-06
6.2167832e-06
6.2017605e-06
6.1868696e-06
6.1721074e-06
6.1574711e-06
6.1429575e-06
6.1285641e-06
6.114288e-06
6.1001266e-06
6.0860772e-06
6.0721372e-06
6.0583041e-06
6.0445753e-06
6.0309482e-06
6.01742e-06
6.0039882e-06
5.990649e-06
5.9774007e-06
5.9642343e-06
5.9511554e-06
5.93813e-06
5.9252063e-06
5.9122271e-06
5.899465e-06
5.8860259e-06
5.8747636e-06
5.8537301e-06
9.4407537e-06
2.7014708e-06
1.2710642e-06
9.5144248e-07
9.6003903e-07
1.0782012e-06
1.2396303e-06
1.4222596e-06
1.6133296e-06
1.8053743e-06
1.9976841e-06
2.1919413e-06
2.3895502e-06
2.5959598e-06
2.8220354e-06
3.0838805e-06
3.4094074e-06
3.8215549e-06
4.290505e-06
4.8137115e-06
5.3954141e-06
6.038662e-06
6.7415515e-06
7.5049746e-06
8.3127559e-06
9.1355556e-06
9.9392545e-06
1.0687706e-05
1.1347459e-05
1.1903185e-05
1.2360566e-05
1.2738633e-05
1.306078e-05
1.3345876e-05
1.3604052e-05
1.3836954e-05
1.4042177e-05
1.4218342e-05
1.4367797e-05
1.4496407e-05
1.4611095e-05
1.4717121e-05
1.4817353e-05
1.4911994e-05
1.5000573e-05
1.5083162e-05
1.51605e-05
1.5233445e-05
1.530251e-05
1.5367823e-05
1.5429377e-05
1.5487273e-05
1.5541723e-05
1.5592922e-05
1.5640962e-05
1.568591e-05
1.5727869e-05
1.5766969e-05
1.5803221e-05
1.5836882e-05
1.586799e-05
1.5896606e-05
1.5922828e-05
1.5946769e-05
1.5968526e-05
1.5988193e-05
1.6005856e-05
1.6021595e-05
1.6035485e-05
1.6047601e-05
1.6058014e-05
1.6066793e-05
1.6074007e-05
1.6079721e-05
1.6083999e-05
1.6086901e-05
1.6088486e-05
1.6088811e-05
1.6087929e-05
1.6085895e-05
1.6082758e-05
1.6078567e-05
1.6073368e-05
1.6067208e-05
1.6060128e-05
1.6052171e-05
1.6043375e-05
1.6033782e-05
1.6023426e-05
1.6012346e-05
1.6000572e-05
1.5988149e-05
1.5975082e-05
1.5961462e-05
1.5947182e-05
1.593259e-05
1.5917076e-05
1.5901533e-05
1.588735e-05
1.5856576e-05
8.1343138e-05
3.3598885e-05
1.6118394e-05
9.0521138e-06
5.7490407e-06
3.980198e-06
2.9364091e-06
2.2785562e-06
1.8436917e-06
1.5458161e-06
1.3364894e-06
1.1867955e-06
1.0786446e-06
1.0004875e-06
9.4511303e-07
9.0801194e-07
8.8865896e-07
8.8218931e-07
9.2027671e-07
1.0133083e-06
1.1659863e-06
1.3842746e-06
1.6762047e-06
2.0300575e-06
2.4734225e-06
3.0451703e-06
3.8242401e-06
4.7850763e-06
5.8904526e-06
7.0983105e-06
8.3662924e-06
9.641959e-06
1.0863384e-05
1.1981551e-05
1.2969506e-05
1.3826312e-05
1.4571578e-05
1.5234986e-05
1.5843864e-05
1.6415273e-05
1.6954454e-05
1.7459389e-05
1.7926541e-05
1.8356775e-05
1.8755046e-05
1.9127764e-05
1.9479976e-05
1.981422e-05
2.0131301e-05
2.0431789e-05
2.0716818e-05
2.0987879e-05
2.1246237e-05
2.1492697e-05
2.1727793e-05
2.1952057e-05
2.2166069e-05
2.2370372e-05
2.2565375e-05
2.2751248e-05
2.2928481e-05
2.3097513e-05
2.3258712e-05
2.3412406e-05
2.3558893e-05
2.3698455e-05
2.3831354e-05
2.3957834e-05
2.4078125e-05
2.4192452e-05
2.4301025e-05
2.4404048e-05
2.450172e-05
2.4594231e-05
2.4681765e-05
2.4764499e-05
2.4842606e-05
2.4916251e-05
2.4985595e-05
2.5050794e-05
2.5111999e-05
2.5169356e-05
2.5223006e-05
2.5273085e-05
2.5319726e-05
2.5363058e-05
2.5403204e-05
2.5440287e-05
2.5474421e-05
2.5505726e-05
2.5534305e-05
2.5560287e-05
2.5583729e-05
2.5604864e-05
2.5623523e-05
2.5640457e-05
2.565427e-05
2.5668685e-05
2.567668e-05
2.568752e-05
0.00018343965
0.00011975062
7.7151386e-05
5.2119527e-05
3.7178205e-05
2.7769904e-05
2.1520417e-05
1.7182387e-05
1.406329e-05
1.1755676e-05
1.0007378e-05
8.6551125e-06
7.5889301e-06
6.7331006e-06
6.0331259e-06
5.4492911e-06
4.951098e-06
4.5144086e-06
4.1213556e-06
3.7622273e-06
3.4172378e-06
3.1048115e-06
2.7995516e-06
2.509779e-06
2.2391457e-06
2.0012039e-06
1.8084469e-06
1.6819419e-06
1.7056092e-06
1.9126042e-06
2.2834591e-06
2.8306786e-06
3.5953001e-06
4.6601797e-06
5.9619936e-06
7.404134e-06
8.9275968e-06
1.0457193e-05
1.1917372e-05
1.3258185e-05
1.4462198e-05
1.5541673e-05
1.6526125e-05
1.7446096e-05
1.8321454e-05
1.9158254e-05
1.9953992e-05
2.0705469e-05
2.1413695e-05
2.2083697e-05
2.2721312e-05
2.3330469e-05
2.3912901e-05
2.4469533e-05
2.5001683e-05
2.5511106e-05
2.5999419e-05
2.6467806e-05
2.6917178e-05
2.7348322e-05
2.7762103e-05
2.8159349e-05
2.8540789e-05
2.8907086e-05
2.9258857e-05
2.9596675e-05
2.9921066e-05
3.023252e-05
3.0531494e-05
3.0818426e-05
3.1093725e-05
3.1357784e-05
3.1610978e-05
3.1853667e-05
3.2086197e-05
3.23089e-05
3.2522096e-05
3.2726096e-05
3.2921199e-05
3.3107696e-05
3.328587e-05
3.3455993e-05
3.3618331e-05
3.3773142e-05
3.3920674e-05
3.4061172e-05
3.4194872e-05
3.4322006e-05
3.4442796e-05
3.4557467e-05
3.4666223e-05
3.4769298e-05
3.4866838e-05
3.4959197e-05
3.5046225e-05
3.5129006e-05
3.5205368e-05
3.528254e-05
3.5340154e-05
3.543995e-05
0.00023617248
0.00019831911
0.00015797827
0.00012460459
9.9343371e-05
8.0580337e-05
6.6529815e-05
5.5832449e-05
4.7541653e-05
4.1007799e-05
3.5780675e-05
3.1542645e-05
2.8064214e-05
2.5174865e-05
2.2748092e-05
2.0687915e-05
1.891935e-05
1.7383011e-05
1.6031263e-05
1.4824315e-05
1.3729682e-05
1.2720281e-05
1.1771345e-05
1.0861181e-05
9.9666337e-06
9.0787243e-06
8.1683939e-06
7.2581192e-06
6.3381951e-06
5.4606295e-06
4.6495147e-06
3.9305659e-06
3.3442089e-06
2.9017986e-06
2.6657839e-06
2.7464236e-06
3.0728855e-06
3.6689578e-06
4.5802719e-06
5.8484738e-06
7.3480841e-06
8.988895e-06
1.068429e-05
1.2344358e-05
1.3908448e-05
1.5352389e-05
1.6684615e-05
1.7931321e-05
1.9118624e-05
2.0260801e-05
2.1359688e-05
2.241181e-05
2.34158e-05
2.4374728e-05
2.5293716e-05
2.6176778e-05
2.7025944e-05
2.7842395e-05
2.8627607e-05
2.9383349e-05
3.0111231e-05
3.0812521e-05
3.1488319e-05
3.2139705e-05
3.2767712e-05
3.3373265e-05
3.3957201e-05
3.4520298e-05
3.5063289e-05
3.5586859e-05
3.6091648e-05
3.6578264e-05
3.7047284e-05
3.7499257e-05
3.7934707e-05
3.8354137e-05
3.8758031e-05
3.9146855e-05
3.952106e-05
3.9881083e-05
4.0227348e-05
4.0560266e-05
4.0880236e-05
4.1187647e-05
4.1482877e-05
4.1766296e-05
4.2038263e-05
4.2299133e-05
4.2549247e-05
4.2788948e-05
4.3018553e-05
4.3238415e-05
4.344878e-05
4.3650131e-05
4.3842359e-05
4.4026896e-05
4.4200602e-05
4.4375382e-05
4.4511399e-05
4.47509e-05
0.00025590294
0.00023961964
0.0002154726
0.00018905514
0.00016426219
0.00014263694
0.00012435938
0.00010907616
9.6308328e-05
8.5603435e-05
7.657793e-05
6.8919541e-05
6.2380285e-05
5.6760878e-05
5.1901275e-05
4.7672587e-05
4.3969936e-05
4.070718e-05
3.7812915e-05
3.5226284e-05
3.289627e-05
3.0777589e-05
2.8831096e-05
2.7021152e-05
2.5315959e-05
2.3689867e-05
2.2111827e-05
2.0555147e-05
1.8992779e-05
1.7417605e-05
1.5800386e-05
1.4185229e-05
1.2546373e-05
1.0911567e-05
9.3135977e-06
7.8421092e-06
6.5304473e-06
5.4264289e-06
4.5765078e-06
3.9773515e-06
3.7822847e-06
3.9441817e-06
4.4558674e-06
5.3561392e-06
6.6690069e-06
8.2400693e-06
9.9847905e-06
1.1798528e-05
1.3591057e-05
1.5304459e-05
1.6920264e-05
1.8449696e-05
1.991472e-05
2.1331119e-05
2.2702858e-05
2.4027041e-05
2.5301643e-05
2.6528654e-05
2.7712127e-05
2.8855248e-05
2.9959668e-05
3.1026574e-05
3.2057484e-05
3.3054072e-05
3.401779e-05
3.494984e-05
3.5851344e-05
3.6723392e-05
3.7566997e-05
3.8383084e-05
3.9172521e-05
3.9936133e-05
4.0674695e-05
4.1388941e-05
4.2079573e-05
4.2747256e-05
4.3392634e-05
4.4016323e-05
4.4618918e-05
4.5200997e-05
4.5763118e-05
4.6305825e-05
4.6829645e-05
4.7335094e-05
4.7822674e-05
4.8292876e-05
4.8746182e-05
4.9183065e-05
4.9603986e-05
5.0009402e-05
5.0399748e-05
5.0775491e-05
5.1136986e-05
5.1484842e-05
5.1818991e-05
5.2141257e-05
5.2447287e-05
5.2754919e-05
5.2998801e-05
5.3429446e-05
0.00026300029
0.0002570219
0.00024569495
0.00023010349
0.00021237532
0.0001943576
0.00017718377
0.00016138899
0.00014713848
0.00013440653
0.0001230832
0.000113027
0.00010409291
9.6144178e-05
8.9057001e-05
8.2721802e-05
7.7042583e-05
7.1935581e-05
6.7327801e-05
6.3154948e-05
5.9360572e-05
5.5894222e-05
5.2710666e-05
4.976888e-05
4.7030906e-05
4.4462551e-05
4.2030683e-05
3.9702241e-05
3.7444191e-05
3.5227399e-05
3.3023696e-05
3.0816047e-05
2.8589047e-05
2.6333686e-05
2.4014821e-05
2.1695044e-05
1.9333287e-05
1.6984038e-05
1.4698968e-05
1.2508028e-05
1.0498686e-05
8.7209825e-06
7.2299673e-06
6.084499e-06
5.2805344e-06
5.01128e-06
5.1572963e-06
5.7462313e-06
6.8330988e-06
8.2951052e-06
1.001897e-05
1.1899462e-05
1.3830396e-05
1.5732226e-05
1.7566382e-05
1.9329852e-05
2.1036412e-05
2.2697599e-05
2.4315304e-05
2.5886018e-05
2.7407715e-05
2.888194e-05
3.0311517e-05
3.1698373e-05
3.3043572e-05
3.4348216e-05
3.5613683e-05
3.6841314e-05
3.8032255e-05
3.9187566e-05
4.0308287e-05
4.1395406e-05
4.2449847e-05
4.3472484e-05
4.4464156e-05
4.5425662e-05
4.6357772e-05
4.7261223e-05
4.8136729e-05
4.8984982e-05
4.9806652e-05
5.0602392e-05
5.1372837e-05
5.2118609e-05
5.2840316e-05
5.3538555e-05
5.4213913e-05
5.4866967e-05
5.5498282e-05
5.6108422e-05
5.6697925e-05
5.7267363e-05
5.7817193e-05
5.8348141e-05
5.8860171e-05
5.9355538e-05
5.9828439e-05
6.0303816e-05
6.0685221e-05
6.1358183e-05
0.00026601002
0.00026397566
0.00025938691
0.0002517627
0.00024148196
0.00022940626
0.00021643913
0.00020329456
0.00019045096
0.00017819175
0.0001666642
0.0001559276
0.00014598773
0.00013681926
0.00012838
0.00012061974
0.00011348545
0.00010692437
0.00010088568
9.5321142e-05
9.0185484e-05
8.5436326e-05
8.1033984e-05
7.694126e-05
7.3122936e-05
6.954574e-05
6.6177948e-05
6.2988501e-05
5.9946508e-05
5.7021738e-05
5.4185099e-05
5.1411941e-05
4.8666643e-05
4.592126e-05
4.3149406e-05
4.0348987e-05
3.7501549e-05
3.4602962e-05
3.1654113e-05
2.8692408e-05
2.570989e-05
2.2747869e-05
1.9846745e-05
1.7066833e-05
1.4442364e-05
1.2094146e-05
1.0048534e-05
8.3977882e-06
7.1486576e-06
6.463551e-06
6.3189849e-06
6.6928494e-06
7.6334554e-06
9.0229326e-06
1.074389e-05
1.2682816e-05
1.4723216e-05
1.6773959e-05
1.8786832e-05
2.0751187e-05
2.2673144e-05
2.4556992e-05
2.6400045e-05
2.8197716e-05
2.9948347e-05
3.1652966e-05
3.3312891e-05
3.4928804e-05
3.6501302e-05
3.8031286e-05
3.9519766e-05
4.0967661e-05
4.2375848e-05
4.374521e-05
4.5076612e-05
4.6370888e-05
4.7628849e-05
4.8851284e-05
5.0038964e-05
5.1192639e-05
5.231304e-05
5.3400884e-05
5.4456874e-05
5.5481699e-05
5.647604e-05
5.7440567e-05
5.8375939e-05
5.9282813e-05
6.0161833e-05
6.1013643e-05
6.1838863e-05
6.2638152e-05
6.3412047e-05
6.4161379e-05
6.488612e-05
6.5588989e-05
6.6262519e-05
6.6939786e-05
6.7488194e-05
6.845393e-05
0.00026785334
0.00026714673
0.00026543062
0.00026214649
0.00025702115
0.00025014119
0.00024184551
0.00023256807
0.00022272248
0.00021264799
0.00020259877
0.00019275332
0.00018323008
0.00017410254
0.00016541182
0.00015717626
0.00014939857
0.0001420709
0.00013517844
0.00012870186
0.000122619
0.00011690605
0.00011153824
0.00010649039
0.00010173707
9.7252794e-05
9.3012215e-05
8.8989957e-05
8.5160395e-05
8.1497615e-05
7.7975634e-05
7.4570355e-05
7.1254067e-05
6.7998712e-05
6.4776909e-05
6.1568477e-05
5.835384e-05
5.5117298e-05
5.1838476e-05
4.8504462e-05
4.511372e-05
4.1658705e-05
3.8177805e-05
3.4651464e-05
3.1123562e-05
2.7641887e-05
2.4227276e-05
2.0948676e-05
1.7836745e-05
1.5007208e-05
1.2527165e-05
1.0490204e-05
8.9207754e-06
7.9915617e-06
7.6806585e-06
7.9736719e-06
8.899048e-06
1.0304127e-05
1.2091117e-05
1.4129102e-05
1.6291384e-05
1.8485312e-05
2.0664672e-05
2.2817221e-05
2.4941863e-05
2.7034735e-05
2.9089211e-05
3.1100662e-05
3.3067687e-05
3.4990181e-05
3.6867965e-05
3.8700927e-05
4.0489339e-05
4.2233698e-05
4.3934541e-05
4.5592453e-05
4.7208072e-05
4.8782067e-05
5.0315113e-05
5.1807898e-05
5.326111e-05
5.4675441e-05
5.6051581e-05
5.739022e-05
5.8692048e-05
5.9957753e-05
6.1188021e-05
6.2383539e-05
6.354499e-05
6.4673059e-05
6.5768417e-05
6.6831771e-05
6.7863717e-05
6.8865158e-05
6.9836052e-05
7.0779589e-05
7.168646e-05
7.2598754e-05
7.3343166e-05
7.4651112e-05
0.00026949905
0.00026919145
0.00026853215
0.00026720319
0.00026489839
0.00026143079
0.00025677517
0.00025104388
0.00024443079
0.00023715741
0.00022943661
0.0002214541
0.00021336239
0.00020528146
0.00019730263
0.00018949329
0.00018190154
0.00017456027
0.0001674905
0.00016070401
0.0001542055
0.00014799421
0.0001420651
0.00013640988
0.00013101761
0.00012587524
0.00012096804
0.00011627994
0.00011179362
0.00010749061
0.00010335141
9.9356582e-05
9.548516e-05
9.171464e-05
8.802152e-05
8.4383803e-05
8.0780556e-05
7.7192953e-05
7.3601491e-05
6.9986584e-05
6.633464e-05
6.2632072e-05
5.8883156e-05
5.5085564e-05
5.1215034e-05
4.7286016e-05
4.331824e-05
3.9324896e-05
3.5328252e-05
3.1386376e-05
2.7530085e-05
2.3833269e-05
2.0334584e-05
1.7159126e-05
1.4387815e-05
1.2117225e-05
1.0389979e-05
9.4288066e-06
9.1195294e-06
9.5168648e-06
1.0555392e-05
1.2107136e-05
1.4051235e-05
1.6242259e-05
1.8553084e-05
2.0902988e-05
2.3255917e-05
2.5598807e-05
2.7922658e-05
3.0217658e-05
3.2476149e-05
3.4694078e-05
3.6869413e-05
3.9000687e-05
4.1086856e-05
4.3127429e-05
4.5122274e-05
4.7071441e-05
4.8975131e-05
5.0833667e-05
5.2647457e-05
5.4416968e-05
5.6142717e-05
5.7825258e-05
5.9465174e-05
6.1063072e-05
6.2619578e-05
6.4135334e-05
6.5610992e-05
6.7047222e-05
6.8444687e-05
6.9804098e-05
7.1126063e-05
7.2411518e-05
7.3660373e-05
7.487628e-05
7.6047928e-05
7.722717e-05
7.8195833e-05
7.9894145e-05
0.000271242
0.00027103942
0.00027072265
0.00027015537
0.00026915433
0.00026753627
0.00026516616
0.00026198384
0.00025800407
0.00025329874
0.00024797386
0.00024214931
0.00023594456
0.0002294702
0.00022282377
0.00021608841
0.0002093333
0.00020261473
0.00019597768
0.00018945732
0.00018308042
0.00017686674
0.00017083004
0.00016497908
0.00015931834
0.00015384866
0.00014856776
0.00014347076
0.0001385505
0.00013379778
0.00012920158
0.00012474966
0.00012042831
0.00011622211
0.00011211393
0.00010808589
0.00010411979
0.00010019787
9.6302404e-05
9.2414902e-05
8.8518507e-05
8.4597154e-05
8.0640726e-05
7.6643531e-05
7.2588742e-05
6.8470388e-05
6.4289768e-05
6.0050261e-05
5.5754596e-05
5.1404744e-05
4.6997942e-05
4.2582562e-05
3.8177106e-05
3.3836571e-05
2.9617161e-05
2.5593202e-05
2.1815001e-05
1.8438652e-05
1.554181e-05
1.3199942e-05
1.1583556e-05
1.0745979e-05
1.0669692e-05
1.1348511e-05
1.2654597e-05
1.4477971e-05
1.6660562e-05
1.9050643e-05
2.1540261e-05
2.4071087e-05
2.6615687e-05
2.9157067e-05
3.1680813e-05
3.4175978e-05
3.6635807e-05
3.9056135e-05
4.1433973e-05
4.3767193e-05
4.6054438e-05
4.8294863e-05
5.0487962e-05
5.2633496e-05
5.4731431e-05
5.6781882e-05
5.8785083e-05
6.0741359e-05
6.2651108e-05
6.4514789e-05
6.6332906e-05
6.8106009e-05
6.9834667e-05
7.1519514e-05
7.3161106e-05
7.4760346e-05
7.6317048e-05
7.7835293e-05
7.9301628e-05
8.0778299e-05
8.1998444e-05
8.4133724e-05
0.00027316574
0.00027298417
0.00027276421
0.00027245795
0.000271982
0.00027122651
0.00027007596
0.0002684325
0.00026623237
0.00026345149
0.00026010212
0.0002562244
0.0002518767
0.00024712689
0.00024204575
0.00023670237
0.00023116132
0.00022548116
0.00021971376
0.00021390421
0.00020809104
0.00020230666
0.00019657786
0.00019092632
0.00018536908
0.00017991903
0.00017458534
0.00016937386
0.0001642875
0.00015932655
0.00015448891
0.00014977049
0.00014516532
0.00014066551
0.0001362612
0.00013194081
0.00012769143
0.00012349936
0.00011935032
0.00011522915
0.00011112049
0.00010700899
0.00010288095
9.872626e-05
9.4531607e-05
9.0285432e-05
8.5979991e-05
8.1610544e-05
7.7175428e-05
7.2671155e-05
6.8089598e-05
6.3437312e-05
5.8735016e-05
5.3979057e-05
4.9185076e-05
4.4390306e-05
3.9622696e-05
3.4954583e-05
3.0464089e-05
2.6203795e-05
2.229706e-05
1.887208e-05
1.6021271e-05
1.3882921e-05
1.2605564e-05
1.2145713e-05
1.2522393e-05
1.3627445e-05
1.5355087e-05
1.7534775e-05
1.9997332e-05
2.2615809e-05
2.5314559e-05
2.8052821e-05
3.0804809e-05
3.3550843e-05
3.6276595e-05
3.8972664e-05
4.1632737e-05
4.4252254e-05
4.6827959e-05
4.9357597e-05
5.1839603e-05
5.4272904e-05
5.6656811e-05
5.8990921e-05
6.127505e-05
6.3509186e-05
6.5693455e-05
6.7828094e-05
6.991342e-05
7.1949856e-05
7.3937789e-05
7.5877994e-05
7.7770105e-05
7.9618571e-05
8.1407647e-05
8.3210517e-05
8.4708054e-05
8.7325018e-05
0.0002752919
0.00027511015
0.00027491198
0.00027468384
0.00027439441
0.00027399235
0.00027340993
0.00027257243
0.00027140964
0.00026986566
0.0002679046
0.000265512
0.00026269292
0.00025946809
0.0002558696
0.00025193675
0.00024771265
0.00024324158
0.00023856705
0.00023373055
0.00022877063
0.00022372247
0.00021861763
0.00021348395
0.0002083456
0.0002032232
0.00019813394
0.00019309184
0.00018810794
0.00018319053
0.00017834535
0.0001735759
0.00016888348
0.00016426738
0.00015972478
0.00015525083
0.00015083883
0.00014648054
0.00014216649
0.000137886
0.00013362738
0.0001293782
0.00012512589
0.00012085933
0.00011656675
0.00011223631
0.00010785744
0.00010342125
9.8921378e-05
9.4351679e-05
8.9703731e-05
8.4973315e-05
8.0165032e-05
7.5276381e-05
7.0306986e-05
6.5265612e-05
6.016539e-05
5.5040301e-05
4.9890637e-05
4.4752232e-05
3.9684833e-05
3.4769665e-05
3.0090707e-05
2.5747004e-05
2.1897445e-05
1.8635363e-05
1.6112265e-05
1.4497671e-05
1.3767741e-05
1.3937622e-05
1.4927484e-05
1.6622066e-05
1.8837548e-05
2.1392943e-05
2.4149658e-05
2.7020482e-05
2.9954138e-05
3.2916949e-05
3.588434e-05
3.8838937e-05
4.1768968e-05
4.4666189e-05
4.752462e-05
5.0339955e-05
5.3109095e-05
5.58298e-05
5.8500464e-05
6.1119968e-05
6.3687553e-05
6.6202754e-05
6.8665317e-05
7.1075198e-05
7.3432411e-05
7.5737421e-05
7.7989545e-05
8.0193484e-05
8.2331034e-05
8.4486759e-05
8.6285893e-05
8.9426925e-05
0.00027762595
0.00027743987
0.00027724335
0.00027703429
0.00027680283
0.00027652894
0.0002761808
0.00027571599
0.00027508557
0.00027423975
0.00027313358
0.00027173128
0.00027000877
0.00026795422
0.00026556727
0.00026285728
0.00025984132
0.00025654209
0.000252986
0.00024920166
0.00024521851
0.00024106584
0.00023677201
0.00023236394
0.00022786663
0.00022330299
0.0002186936
0.00021405668
0.00020940809
0.0002047614
0.00020012791
0.00019551684
0.00019093533
0.00018638856
0.00018187971
0.00017740995
0.00017297848
0.00016858267
0.00016421828
0.00015987954
0.0001555593
0.00015124916
0.00014693973
0.0001426216
0.00013828492
0.0001339194
0.00012951477
0.00012506127
0.00012055045
0.00011597465
0.00011132525
0.00010659428
0.00010177817
9.6872788e-05
9.1874568e-05
8.678303e-05
8.1584295e-05
7.633146e-05
7.0974872e-05
6.5552078e-05
6.0085229e-05
5.4603556e-05
4.9120914e-05
4.369319e-05
3.8412428e-05
3.3364902e-05
2.866199e-05
2.4475335e-05
2.0898554e-05
1.8126875e-05
1.6293127e-05
1.5418948e-05
1.550216e-05
1.649013e-05
1.8239077e-05
2.0551649e-05
2.323969e-05
2.6159563e-05
2.9218104e-05
3.2357062e-05
3.5536905e-05
3.87294e-05
4.1914846e-05
4.507957e-05
4.8213777e-05
5.1310342e-05
5.4364068e-05
5.7371137e-05
6.0328732e-05
6.3234788e-05
6.6087803e-05
6.8886733e-05
7.1630801e-05
7.4319829e-05
7.695255e-05
7.9533708e-05
8.204239e-05
8.4574898e-05
8.6697574e-05
9.0402085e-05
0.00028017016
0.00027997963
0.00027978031
0.00027957353
0.00027935687
0.00027912367
0.0002788613
0.00027854997
0.00027816288
0.00027766782
0.00027702989
0.00027621469
0.00027519124
0.00027393427
0.00027242546
0.00027065394
0.000268616
0.00026631439
0.00026375731
0.00026095739
0.00025793053
0.00025469502
0.00025127057
0.00024767764
0.00024393678
0.00024006811
0.00023609095
0.00023202353
0.00022788275
0.00022368404
0.00021944133
0.00021516697
0.0002108717
0.00020656465
0.00020225329
0.00019794332
0.0001936387
0.0001893416
0.00018505252
0.00018077035
0.00017649243
0.00017221464
0.00016793149
0.00016363662
0.00015932292
0.00015498254
0.00015060707
0.00014618783
0.00014171642
0.00013718495
0.00013258513
0.00012790841
0.00012314793
0.00011829754
0.00011335115
0.00010830475
0.0001031466
9.7894382e-05
9.2531878e-05
8.7056045e-05
8.149167e-05
7.5835691e-05
7.0101574e-05
6.4305124e-05
5.8489604e-05
5.2685906e-05
4.6928656e-05
4.1325335e-05
3.5953621e-05
3.0966367e-05
2.6524611e-05
2.2741242e-05
1.9857986e-05
1.7939571e-05
1.7052539e-05
1.7194555e-05
1.8303569e-05
2.0202708e-05
2.26829e-05
2.5552939e-05
2.8669772e-05
3.1938997e-05
3.5298764e-05
3.8706179e-05
4.2130989e-05
4.5552075e-05
4.8954479e-05
5.2327363e-05
5.5662795e-05
5.8954921e-05
6.219938e-05
6.5392931e-05
6.8533106e-05
7.1618387e-05
7.4646384e-05
7.7621474e-05
8.0519623e-05
8.3449096e-05
8.5914163e-05
9.0217571e-05
0.00028292664
0.00028273226
0.00028252963
0.00028232108
0.0002821064
0.00028188375
0.0002816488
0.00028139368
0.00028110608
0.00028076899
0.00028036117
0.00027985845
0.00027923537
0.00027846702
0.00027753066
0.00027640704
0.00027508123
0.00027354296
0.00027178669
0.00026981131
0.00026761969
0.00026521811
0.00026261567
0.00025982363
0.00025685486
0.0002537233
0.00025044347
0.00024703007
0.00024349767
0.0002398604
0.00023613178
0.00023232454
0.0002284505
0.00022452044
0.00022054401
0.00021652958
0.00021248416
0.00020841333
0.00020432119
0.00020021036
0.00019608203
0.00019193588
0.0001877702
0.00018358202
0.00017936733
0.00017512115
0.00017083761
0.00016651012
0.00016213174
0.00015769542
0.00015319385
0.00014861918
0.00014396395
0.00013922114
0.00013438371
0.00012944585
0.00012439745
0.00011924048
0.00011396791
0.00010857278
0.0001030595
9.7422405e-05
9.1674189e-05
8.5807862e-05
7.9840909e-05
7.3796374e-05
6.7679851e-05
6.1538799e-05
5.5424686e-05
4.9363788e-05
4.3469491e-05
3.7830669e-05
3.2636346e-05
2.802511e-05
2.4171446e-05
2.1290923e-05
1.9435447e-05
1.8683429e-05
1.9044997e-05
2.0398681e-05
2.254406e-05
2.5262778e-05
2.8365972e-05
3.1716346e-05
3.5221955e-05
3.8820405e-05
4.2468015e-05
4.6134134e-05
4.9797148e-05
5.344151e-05
5.7055872e-05
6.0631869e-05
6.4163216e-05
6.76455e-05
7.1074043e-05
7.4451993e-05
7.7751427e-05
8.1092542e-05
8.3914372e-05
8.8846433e-05
0.00028589789
0.00028570022
0.00028549457
0.00028528358
0.00028506762
0.00028484629
0.00028461836
0.0002843811
0.00028412966
0.00028385636
0.00028355037
0.00028319776
0.00028278193
0.00028228453
0.00028168638
0.00028096867
0.00028011386
0.00027910657
0.00027793411
0.00027658686
0.00027505836
0.00027334528
0.00027144722
0.00026936642
0.00026710738
0.00026467654
0.00026208184
0.00025933239
0.00025643812
0.00025340946
0.00025025711
0.00024699181
0.00024362413
0.00024016428
0.000236622
0.00023300633
0.00022932548
0.00022558673
0.00022179627
0.00021795917
0.00021407929
0.00021015924
0.00020620034
0.00020220264
0.00019816507
0.00019408545
0.00018996059
0.00018578635
0.00018155784
0.00017726966
0.00017291597
0.00016849027
0.00016398582
0.00015939588
0.00015471349
0.00014993226
0.0001450435
0.00014004305
0.00013492503
0.00012968186
0.00012431054
0.00011880548
0.00011316851
0.00010739306
0.0001014746
9.5440452e-05
8.9270105e-05
8.2994645e-05
7.6635147e-05
7.0202303e-05
6.3743758e-05
5.7311732e-05
5.0982059e-05
4.483533e-05
3.9001677e-05
3.3673995e-05
2.9001221e-05
2.5228407e-05
2.2464194e-05
2.0832715e-05
2.0405645e-05
2.1133347e-05
2.2847669e-05
2.532591e-05
2.8346209e-05
3.1728976e-05
3.5346921e-05
3.9113265e-05
4.2967804e-05
4.686829e-05
5.0784966e-05
5.4696571e-05
5.8587617e-05
6.244701e-05
6.6265064e-05
7.0041762e-05
7.3743713e-05
7.7502478e-05
8.0688569e-05
8.6270517e-05
0.00028908669
0.00028888618
0.00028867784
0.0002884645
0.00028824662
0.0002880242
0.00028779693
0.00028756402
0.00028732382
0.00028707332
0.00028680775
0.00028652022
0.00028620161
0.00028584068
0.00028542441
0.00028493854
0.00028436824
0.00028369876
0.00028291611
0.00028200758
0.00028096217
0.00027977094
0.00027842706
0.00027692597
0.00027526523
0.00027344443
0.000271465
0.00026932998
0.00026704377
0.00026461191
0.00026204085
0.00025933774
0.00025651019
0.00025356615
0.00025051363
0.0002473606
0.00024411474
0.00024078337
0.00023737318
0.00023389023
0.00023033973
0.00022672601
0.00022305236
0.00021932107
0.00021553333
0.00021168933
0.00020778824
0.00020382823
0.00019980658
0.00019571983
0.00019156384
0.00018733379
0.00018302429
0.00017862958
0.00017414349
0.00016955992
0.00016487146
0.00016007208
0.00015515566
0.0001501149
0.00014494402
0.00013963641
0.00013418862
0.00012859457
0.00012284761
0.00011695422
0.00011089532
0.00010470532
9.8364741e-05
9.1888119e-05
8.5292806e-05
7.8602572e-05
7.1854417e-05
6.5088013e-05
5.8365886e-05
5.1792567e-05
4.5442323e-05
3.9501923e-05
3.4126659e-05
2.9552646e-05
2.5961022e-05
2.3495066e-05
2.2287549e-05
2.2356514e-05
2.358088e-05
2.5752433e-05
2.8631799e-05
3.2003447e-05
3.5703451e-05
3.9617033e-05
4.3664594e-05
4.7790376e-05
5.1955091e-05
5.6131088e-05
6.0296852e-05
6.4444521e-05
6.853169e-05
7.2699426e-05
7.624601e-05
8.2485439e-05
0.00029249602
0.00029229298
0.00029208225
0.00029186674
0.00029164695
0.00029142293
0.00029119462
0.00029096183
0.00029072409
0.00029048038
0.00029022886
0.00028996656
0.00028968912
0.00028939059
0.00028906343
0.00028869856
0.00028828563
0.00028781336
0.00028726996
0.00028664357
0.00028592271
0.00028509666
0.00028415577
0.00028309174
0.00028189775
0.00028056854
0.00027910044
0.00027749132
0.00027574052
0.0002738487
0.00027181773
0.00026965057
0.00026735104
0.00026492376
0.00026237389
0.00025970705
0.00025692907
0.0002540459
0.00025106339
0.00024798719
0.00024482258
0.00024157433
0.00023824658
0.00023484275
0.00023136547
0.00022781653
0.00022419684
0.00022050642
0.00021674441
0.00021290914
0.00020899821
0.00020500845
0.000200936
0.00019677645
0.00019252481
0.0001881758
0.00018372325
0.00017916113
0.00017448338
0.0001696832
0.00016475407
0.000159689
0.00015448224
0.00014912734
0.00014361632
0.00013794785
0.00013211034
0.00012611096
0.00011994211
0.00011360373
0.0001071014
0.00010044219
9.364192e-05
8.6718793e-05
7.9699596e-05
7.2637916e-05
6.5574238e-05
5.8601186e-05
5.1821776e-05
4.5352867e-05
3.9376842e-05
3.4102831e-05
2.9759014e-05
2.6523646e-05
2.4576952e-05
2.3992532e-05
2.4703479e-05
2.6529218e-05
2.92268e-05
3.2553722e-05
3.6311626e-05
4.0356133e-05
4.4586072e-05
4.8930902e-05
5.3339286e-05
5.7783485e-05
6.2203491e-05
6.6744714e-05
7.0628269e-05
7.7509466e-05
0.00029612899
0.00029592368
0.00029571077
0.00029549326
0.00029527167
0.00029504603
0.00029481631
0.00029458249
0.00029434445
0.00029410191
0.00029385425
0.00029360035
0.00029333835
0.00029306551
0.00029277798
0.00029247072
0.00029213751
0.00029177098
0.00029136277
0.00029090378
0.00029038445
0.00028979503
0.00028912591
0.00028836791
0.00028751247
0.00028655193
0.00028547961
0.00028428996
0.00028297859
0.00028154225
0.0002799789
0.00027828757
0.00027646835
0.00027452228
0.00027245125
0.00027025789
0.00026794539
0.00026551746
0.00026297809
0.00026033148
0.00025758186
0.00025473337
0.00025178991
0.00024875501
0.00024563175
0.00024242264
0.00023912955
0.00023575368
0.00023229547
0.00022875466
0.00022513025
0.00022142053
0.00021762308
0.00021373483
0.00020975207
0.00020567061
0.00020148553
0.00019719152
0.00019278306
0.00018825404
0.00018359814
0.00017880858
0.00017387886
0.0001688023
0.00016357083
0.00015817942
0.00015261859
0.00014688594
0.0001409755
0.00013488223
0.00012860256
0.00012213565
0.00011548683
0.00010866098
0.00010166694
9.4528665e-05
8.7266613e-05
7.992291e-05
7.2555921e-05
6.5227987e-05
5.8037464e-05
5.1119658e-05
4.4620548e-05
3.8743629e-05
3.3722523e-05
2.9789131e-05
2.7159437e-05
2.5953504e-05
2.6157528e-05
2.7625348e-05
3.012062e-05
3.338275e-05
3.7183194e-05
4.1348763e-05
4.575406e-05
5.0320637e-05
5.4949218e-05
5.9775575e-05
6.3935409e-05
7.1400081e-05
0.00029998886
0.00029978145
0.00029956652
0.00029934715
0.00029912385
0.00029889665
0.00029866551
0.0002984304
0.00029819131
0.00029794819
0.00029770084
0.00029744891
0.0002971917
0.00029692807
0.00029665627
0.00029637384
0.00029607744
0.00029576285
0.0002954249
0.00029505755
0.00029465396
0.00029420667
0.00029370776
0.0002931491
0.00029252251
0.00029181999
0.00029103394
0.00029015726
0.00028918355
0.00028810718
0.00028692337
0.00028562824
0.00028421883
0.00028269309
0.00028104983
0.00027928871
0.00027741013
0.00027541518
0.00027330549
0.0002710832
0.00026875076
0.00026631089
0.00026376638
0.00026112001
0.00025837443
0.00025553203
0.00025259485
0.00024956451
0.00024644209
0.00024322814
0.00023992263
0.00023652488
0.00023303359
0.00022944686
0.00022576212
0.00022197627
0.00021808554
0.00021408561
0.00020997176
0.00020573871
0.00020138076
0.00019689172
0.0001922652
0.0001874946
0.0001825723
0.00017749179
0.00017224451
0.00016682433
0.0001612244
0.0001554377
0.0001494575
0.00014327914
0.00013689835
0.00013031374
0.00012352639
0.00011654262
0.00010937017
0.00010202536
9.453685e-05
8.6936862e-05
7.9273502e-05
7.1620918e-05
6.4063302e-05
5.6720213e-05
4.9749121e-05
4.3338484e-05
3.7725586e-05
3.3173698e-05
2.9926763e-05
2.8149627e-05
2.7877227e-05
2.8999492e-05
3.1292674e-05
3.4485724e-05
3.8323026e-05
4.2613364e-05
4.7168848e-05
5.2079647e-05
5.6380174e-05
6.4286314e-05
0.00030407894
0.00030386958
0.00030365275
0.00030343161
0.00030320669
0.00030297799
0.00030274545
0.00030250904
0.00030226875
0.00030202456
0.00030177644