/*--------------------------------*- C++ -*----------------------------------*\
  =========                 |
  \\      /  F ield         | OpenFOAM: The Open Source CFD Toolbox
   \\    /   O peration     | Website:  https://openfoam.org
    \\  /    A nd           | Version:  12
     \\/     M anipulation  |
\*---------------------------------------------------------------------------*/
FoamFile
{
    format      ascii;
    class       volScalarField;
    location    "1700";
    object      p;
}
// * * * * * * * * * * * * * * * * * * * * * * * * * * * * * * * * * * * * * //

dimensions      [0 2 -2 0 0 0 0];

internalField   nonuniform List<scalar> 
7480
(
0.0087647959
0.0080259309
0.0069049571
0.0063281459
0.0060151612
0.0057305018
0.0054623178
0.005233537
0.0050344174
0.0048547747
0.0046879971
0.0045319126
0.0043868208
0.0042475068
0.0041142158
0.0039853855
0.0038608509
0.0037432963
0.0036337774
0.0035317587
0.0034379621
0.0033531937
0.0032782273
0.0032138608
0.0031604825
0.0031170283
0.0030833771
0.0030578712
0.0030361776
0.0030151793
0.0029923305
0.0029665337
0.0029377048
0.002907714
0.002877435
0.0028458518
0.0028129647
0.0027785918
0.0027428995
0.0027068947
0.002670764
0.0026340423
0.0025969505
0.0025597622
0.0025230016
0.0024864965
0.002449754
0.002412787
0.0023761423
0.0023398473
0.0023033296
0.0022666099
0.0022300582
0.0021936721
0.0021570245
0.0021201727
0.0020833522
0.002046483
0.0020092674
0.001971894
0.0019344031
0.0018965767
0.001858456
0.0018201134
0.0017814173
0.0017423471
0.0017029693
0.0016631704
0.0016229517
0.0015823382
0.0015412341
0.0014996632
0.0014575959
0.001415012
0.0013719063
0.0013282286
0.0012839848
0.0012391528
0.0011937202
0.0011476768
0.0011010142
0.001053727
0.0010058148
0.00095728209
0.00090814243
0.00085841633
0.00080814585
0.00075737388
0.00070621562
0.00065471742
0.00060324795
0.00055163156
0.00050137227
0.00045051852
0.00040642214
0.00035609756
0.00033813227
0.00025594388
0.00056120572
-0.00046864417
0.0082854437
0.0076223892
0.0067904254
0.0063276719
0.0060658988
0.005813266
0.0055629007
0.0053396344
0.0051422036
0.0049591208
0.0047869735
0.0046246138
0.0044733568
0.0043282448
0.004189743
0.0040568022
0.0039289813
0.0038072869
0.003693038
0.0035868962
0.003489247
0.0034005874
0.0033216268
0.0032530301
0.0031948417
0.0031458101
0.0031061771
0.0030750343
0.0030485619
0.003023961
0.0029989404
0.0029723089
0.0029435905
0.002914254
0.0028847257
0.0028536212
0.0028208776
0.0027864133
0.0027505351
0.002714343
0.0026780338
0.0026411331
0.002603857
0.0025664652
0.0025294855
0.0024927511
0.0024557778
0.0024185835
0.0023817149
0.0023451966
0.0023084567
0.0022715208
0.0022347608
0.0021981734
0.0021613299
0.0021242897
0.002087289
0.0020502466
0.0020128646
0.0019753328
0.0019376901
0.001899718
0.0018614586
0.0018229835
0.0017841607
0.0017449696
0.0017054764
0.0016655671
0.0016252432
0.0015845292
0.0015433293
0.001501667
0.0014595124
0.0014168453
0.0013736603
0.0013299068
0.0012855908
0.0012406899
0.0011951915
0.0011490854
0.0011023628
0.0010550185
0.0010070517
0.00095846698
0.00090927762
0.00085950408
0.00080918832
0.00075837314
0.00070717367
0.00065563614
0.0006041293
0.0005524772
0.00050218443
0.00045129832
0.00040717352
0.0003568203
0.00033881629
0.00025673266
0.00056204622
-0.00046798668
0.0080009317
0.0075304072
0.0068540084
0.0063765129
0.0060723108
0.0057927473
0.0055249457
0.0052893838
0.0050844711
0.0048978522
0.0047254364
0.0045656577
0.0044169952
0.0042768537
0.0041438483
0.0040171025
0.0038960634
0.0037810164
0.0036734345
0.0035744347
0.0034842193
0.0034031004
0.0033315619
0.0032700141
0.0032184019
0.0031756313
0.0031400818
0.0031100253
0.0030829834
0.0030562072
0.0030277853
0.0029969533
0.0029634845
0.002929443
0.0028959992
0.0028620986
0.0028276151
0.0027923147
0.0027562599
0.0027202859
0.0026842642
0.0026474921
0.0026101567
0.0025725836
0.0025353828
0.0024984219
0.0024612317
0.0024238369
0.0023867806
0.0023500768
0.0023131527
0.0022760423
0.0022391174
0.0022023706
0.0021653694
0.0021281767
0.0020910296
0.002053845
0.0020163237
0.0019786588
0.0019408874
0.0019027905
0.0018644112
0.001825821
0.0017868868
0.0017475886
0.0017079925
0.0016679838
0.0016275645
0.0015867589
0.0015454707
0.0015037237
0.0014614878
0.0014187425
0.0013754825
0.001331657
0.0012872719
0.0012423047
0.0011967427
0.0011505755
0.0011037944
0.001056394
0.0010083733
0.0009597369
0.00091049801
0.00086067698
0.00081031569
0.00075945687
0.00070821561
0.00065663802
0.00060509295
0.00055340408
0.00050307683
0.00045215675
0.00040800271
0.00035761627
0.00033959447
0.00025759367
0.000562934
-0.00046733967
0.0077528639
0.0073643567
0.0067723337
0.0063192828
0.0060237831
0.0057637157
0.005515715
0.0052962318
0.0051031148
0.0049253819
0.0047590283
0.0046035457
0.0044556589
0.0043163054
0.0041827222
0.0040545565
0.0039314614
0.0038137389
0.0037029309
0.0036001611
0.0035056873
0.003419941
0.0033435636
0.0032772503
0.003221433
0.0031757291
0.0031379958
0.0031066963
0.0030804552
0.0030562115
0.0030315737
0.003005247
0.0029768194
0.0029464203
0.0029142888
0.0028804776
0.0028448871
0.0028074835
0.0027686928
0.0027300113
0.0026918456
0.002653677
0.0026155912
0.002577769
0.0025406357
0.0025038082
0.0024666503
0.0024291707
0.0023919718
0.0023550973
0.0023179905
0.0022807074
0.0022436188
0.0022067093
0.002169545
0.0021321969
0.0020949024
0.0020575751
0.002019913
0.0019821134
0.0019442122
0.001905989
0.0018674884
0.0018287814
0.0017897337
0.001750326
0.0017106247
0.001670514
0.0016299964
0.0015890963
0.0015477166
0.0015058818
0.0014635612
0.0014207345
0.0013773962
0.0013334953
0.0012890377
0.0012440009
0.001198372
0.0011521406
0.0011052978
0.0010578382
0.0010097606
0.00096106965
0.00091177839
0.0008619071
0.00081149762
0.00076059256
0.00070930698
0.00065768688
0.00060610117
0.00055437321
0.00050400902
0.00045305268
0.00040886633
0.00035844358
0.00034040547
0.00025834955
0.00056381071
-0.00046675959
0.0075257271
0.0071906152
0.0066889308
0.0062865149
0.0060058081
0.0057558
0.0055131951
0.0052951121
0.005100355
0.0049204556
0.0047519313
0.0045943264
0.0044452859
0.0043053508
0.0041718163
0.0040442873
0.0039224254
0.0038064332
0.0036975817
0.0035968221
0.0035044489
0.0034208872
0.0033466541
0.0032822521
0.0032279103
0.0031830167
0.0031453361
0.0031133708
0.0030856749
0.0030592641
0.0030321065
0.0030035175
0.0029738763
0.0029428214
0.0029107993
0.0028786738
0.0028458687
0.0028119917
0.0027769182
0.0027407138
0.0027034796
0.0026653366
0.0026263626
0.0025869775
0.0025481676
0.0025099658
0.002471896
0.002433909
0.0023965512
0.002359697
0.0023225989
0.0022852657
0.0022480867
0.0022110597
0.0021737615
0.002136283
0.0020988612
0.0020614046
0.0020236111
0.0019856863
0.0019476635
0.0019093201
0.0018707033
0.0018318838
0.0017927259
0.0017532114
0.0017134066
0.0016731948
0.0016325794
0.0015915845
0.0015501127
0.0015081888
0.0014657818
0.0014228717
0.0013794527
0.0013354738
0.001290941
0.0012458315
0.0012001326
0.0011538337
0.0011069258
0.0010594034
0.0010112655
0.00096251641
0.00091316923
0.00086324415
0.00081278294
0.00076182815
0.00071049478
0.00065882874
0.00060719895
0.00055542854
0.00050502381
0.00045402795
0.00040980492
0.00035934227
0.00034128059
0.00025913301
0.00056471757
-0.00046607564
0.0073243646
0.0070372748
0.0066113386
0.0062492823
0.0059774459
0.0057332765
0.0054979581
0.0052849085
0.0050935368
0.0049167849
0.0047512666
0.0045963387
0.00444992
0.004311904
0.0041801296
0.0040541117
0.0039335881
0.0038187449
0.0037106777
0.0036102785
0.0035179407
0.0034341657
0.0033594313
0.0032941637
0.0032385359
0.0031920192
0.0031527483
0.0031192722
0.0030901837
0.0030627947
0.0030351811
0.0030066078
0.0029769996
0.0029457319
0.0029132336
0.0028801931
0.0028460825
0.0028109925
0.0027752204
0.0027386303
0.0027017663
0.0026651711
0.002628592
0.0025918936
0.0025549488
0.0025175736
0.0024796974
0.0024411878
0.0024028824
0.0023650936
0.0023272628
0.002289436
0.0022520303
0.0022149499
0.0021776274
0.0021401061
0.0021026211
0.0020650828
0.0020271954
0.0019891788
0.0019510612
0.0019126186
0.0018739036
0.0018349876
0.0017957333
0.0017561239
0.0017162265
0.0016759228
0.0016352178
0.0015941353
0.0015525773
0.0015105695
0.0014680806
0.0014250906
0.0013815939
0.0013375392
0.0012929328
0.0012477518
0.0012019835
0.0011556174
0.0011086443
0.0010610589
0.0010128599
0.00096405182
0.00091464761
0.00086466744
0.00081415304
0.00076314692
0.00071176404
0.00066005024
0.00060837439
0.00055655952
0.00050611191
0.00045507438
0.0004108112
0.0003603059
0.0003422147
0.00025997614
0.00056563276
-0.00046523693
0.0071437026
0.0068996011
0.006535887
0.0062075811
0.0059456091
0.0057089074
0.005482112
0.0052748885
0.0050872671
0.0049133648
0.0047502013
0.0045970268
0.0044520495
0.0043149598
0.0041840896
0.0040589008
0.0039392055
0.0038251877
0.003717806
0.0036179197
0.0035259577
0.0034423892
0.0033676611
0.0033021743
0.0032460333
0.0031987941
0.0031588176
0.0031245707
0.0030946224
0.0030665199
0.0030383787
0.0030093317
0.0029792211
0.002947587
0.0029148493
0.0028816182
0.0028474946
0.0028125489
0.0027768424
0.0027401539
0.0027030083
0.00266585
0.0026286118
0.0025914061
0.0025540459
0.0025168456
0.0024800708
0.002443446
0.0024067877
0.0023699093
0.0023326311
0.0022947971
0.0022569614
0.0022193418
0.0021815291
0.002143644
0.0021059724
0.0020683679
0.0020304438
0.0019923909
0.0019542251
0.0019157218
0.0018769434
0.0018379614
0.0017986357
0.0017589525
0.0017189812
0.0016786019
0.0016378216
0.0015966644
0.0015550315
0.00151295
0.0014703879
0.0014273259
0.0013837584
0.001339634
0.0012949593
0.0012497113
0.0012038774
0.0011574473
0.0011104117
0.0010627654
0.0010145071
0.00096564135
0.00091618109
0.00086614649
0.00081557928
0.00076452194
0.00071308941
0.0006613275
0.00060960499
0.00055774495
0.00050725325
0.00045617301
0.00041186714
0.00036131727
0.00034319224
0.00026085886
0.00056651977
-0.00046423221
0.006978868
0.0067713806
0.0064606781
0.0061637396
0.0059134444
0.0056849004
0.0054661678
0.0052644303
0.0050802978
0.0049090555
0.0047480661
0.0045965777
0.0044530705
0.0043171189
0.0041873629
0.0040632388
0.0039445956
0.0038316105
0.0037251189
0.0036259271
0.0035344742
0.0034512078
0.0033765608
0.0033109024
0.0032543116
0.0032063584
0.0031655309
0.0031303291
0.0030993396
0.0030703289
0.0030414887
0.0030118921
0.0029813664
0.002949505
0.0029166291
0.0028832712
0.0028490806
0.0028140588
0.0027782457
0.0027415089
0.0027043388
0.0026671507
0.0026299167
0.0025926574
0.0025551871
0.0025178098
0.0024807022
0.0024437913
0.0024066875
0.0023695262
0.0023327513
0.0022961264
0.0022594706
0.0022226046
0.0021853348
0.0021475969
0.0021097595
0.0020718554
0.0020336249
0.0019953449
0.0019570624
0.001918505
0.001879696
0.001840684
0.0018013207
0.0017615956
0.0017215794
0.0016811497
0.0016403159
0.0015991029
0.0015574118
0.0015152714
0.0014726493
0.001429527
0.0013858992
0.0013417143
0.0012969795
0.0012516718
0.0012057789
0.0011592903
0.0011121973
0.0010644943
0.0010161804
0.00096726012
0.00091774646
0.00086765965
0.00081704142
0.00076593431
0.00071445322
0.00066264401
0.0006108753
0.00055897032
0.00050843421
0.00045731105
0.00041296055
0.00036236485
0.00034420211
0.00026176588
0.00056734919
-0.00046304105
0.0068273604
0.0066504442
0.0063849865
0.006117551
0.005880246
0.0056604051
0.005449582
0.0052533564
0.0050728156
0.0049043231
0.0047455899
0.004595895
0.0044539481
0.0043192479
0.0041906643
0.0040676505
0.0039500811
0.0038381291
0.0037325262
0.0036340222
0.0035430635
0.003460086
0.0033855065
0.0033196616
0.0032626068
0.003213919
0.0031722172
0.0031360618
0.0031040783
0.003074187
0.0030446473
0.0030145308
0.0029836179
0.002951507
0.0029184437
0.0028849031
0.0028505692
0.0028154237
0.0027795271
0.0027427823
0.0027056199
0.0026684329
0.002631198
0.0025939181
0.0025564543
0.0025190634
0.0024819045
0.0024448839
0.0024076557
0.002370416
0.0023335011
0.0022967217
0.0022597128
0.0022225577
0.0021856066
0.0021486877
0.0021116469
0.0020743037
0.002036497
0.001998364
0.0019600237
0.0019212916
0.0018822974
0.0018431596
0.0018037308
0.0017639742
0.0017239364
0.0016834826
0.0016426224
0.0016013797
0.0015596539
0.0015174753
0.0014748115
0.0014316452
0.0013879714
0.0013437387
0.0012989553
0.0012535981
0.0012076553
0.0011611165
0.0011139731
0.00106622
0.0010178562
0.00096888629
0.00091932358
0.00086918831
0.00081852233
0.00076736821
0.00071584087
0.00066398627
0.00061217282
0.00056022411
0.00050964408
0.00045847857
0.00041408209
0.00036343992
0.00034523585
0.00026268832
0.00056809408
-0.00046163468
0.0066876241
0.0065359268
0.006308672
0.0060685515
0.0058451378
0.0056346895
0.0054319877
0.005241547
0.0050648636
0.0048992944
0.004742928
0.00459511
0.0044547612
0.0043213553
0.0041939555
0.004072056
0.003955552
0.0038446146
0.0037398881
0.003642068
0.0035516035
0.0034689186
0.0033944111
0.0033283876
0.0032708822
0.0032214831
0.0031789314
0.003141849
0.0031088969
0.0030781332
0.0030478938
0.0030172515
0.0029859331
0.0029535507
0.0029202837
0.0028865461
0.0028520657
0.0028168118
0.0027808459
0.0027440846
0.0027069107
0.0026696956
0.0026324234
0.0025951052
0.0025576296
0.0025202232
0.0024830414
0.0024459945
0.0024087781
0.0023715498
0.0023345859
0.0022976886
0.0022605603
0.0022233508
0.0021863341
0.0021492946
0.0021119676
0.0020744678
0.0020370131
0.0019994371
0.0019615941
0.0019233096
0.0018846127
0.0018455846
0.001806107
0.0017662383
0.0017260997
0.0016855842
0.0016446947
0.0016034357
0.0015616948
0.0015195005
0.0014768175
0.001433628
0.0013899272
0.0013456637
0.0013008468
0.0012554536
0.0012094728
0.0011628945
0.0011157106
0.0010679158
0.0010195099
0.00097049733
0.00092089169
0.00087071341
0.00082000443
0.00076880747
0.00071723751
0.00066534063
0.000613485
0.00056149473
0.00051087219
0.00045966572
0.00041522255
0.00036453391
0.00034628523
0.00026361793
0.00056872673
-0.00045998055
0.0065581453
0.006427231
0.0062320124
0.0060168313
0.0058077889
0.0056073321
0.0054130285
0.0052287065
0.0050562091
0.0048937957
0.0047399525
0.0045941271
0.0044554452
0.0043233996
0.0041972211
0.0040764585
0.0039610275
0.0038510996
0.0037472468
0.0036501132
0.0035601465
0.0034777581
0.0034033265
0.0033371316
0.0032791894
0.0032291011
0.0031857168
0.0031477208
0.0031138121
0.0030821784
0.0030512338
0.0030200527
0.0029883154
0.0029556473
0.0029221676
0.002888231
0.0028536029
0.0028182395
0.002782197
0.0027454067
0.0027082121
0.0026709619
0.0026336533
0.0025963009
0.002558809
0.0025213819
0.002484167
0.0024470839
0.0024098486
0.0023725958
0.0023355924
0.002298662
0.002261545
0.002224347
0.0021872788
0.0021501339
0.0021127179
0.0020751873
0.0020377086
0.0019999583
0.0019618804
0.0019236677
0.0018853024
0.0018466589
0.0018075563
0.0017680159
0.0017280692
0.0016875894
0.0016466503
0.0016053251
0.0015635366
0.0015213194
0.0014786251
0.0014354278
0.0013917186
0.0013474436
0.0013026116
0.0012571991
0.0012111956
0.0011645916
0.0011173793
0.001069554
0.0010211157
0.00097206947
0.00092242891
0.00087221475
0.00082146915
0.00077023503
0.0007186274
0.00066669262
0.00061479853
0.00056276996
0.00051210726
0.00046086211
0.00041637222
0.00036563775
0.00034734167
0.00026454554
0.0005692184
-0.0004580425
0.0064376034
0.0063238852
0.0061554506
0.0059627974
0.0057681943
0.0055781111
0.00539242
0.0052145346
0.0050465732
0.0048875917
0.0047364772
0.004592807
0.004455906
0.0043253206
0.00420043
0.0040808479
0.0039665134
0.0038576016
0.003754626
0.0036581839
0.003568718
0.0034866281
0.003412274
0.0033459119
0.0032875433
0.0032367832
0.0031925794
0.0031536806
0.0031188279
0.0030863288
0.0030546741
0.0030229436
0.0029907781
0.0029578114
0.0029241087
0.0028899685
0.0028551863
0.0028197075
0.0027835828
0.0027467576
0.0027095393
0.0026722537
0.0026349086
0.0025975204
0.0025600075
0.0025225545
0.0024852989
0.00244817
0.0024109087
0.0023736335
0.0023365941
0.0022996325
0.0022625022
0.0022252783
0.0021881649
0.0021509913
0.0021135866
0.0020760585
0.0020385117
0.0020006729
0.0019625565
0.0019243421
0.0018858813
0.0018470438
0.0018079083
0.0017685469
0.0017288653
0.0016886936
0.0016480615
0.0016069485
0.0015652376
0.0015230096
0.0014802771
0.0014370502
0.001393327
0.0013490465
0.0013042122
0.0012587965
0.0012127869
0.0011661732
0.0011189473
0.0010711051
0.0010226467
0.00097357766
0.00092391208
0.00087367098
0.00082289679
0.0007716327
0.00071999384
0.00066802686
0.00061609927
0.00056403678
0.00051333727
0.00046205667
0.0004175208
0.00036674182
0.00034839607
0.00026546113
0.00056952881
-0.00045578042
0.0063248958
0.0062254776
0.0060794143
0.0059069414
0.0057265157
0.0055469759
0.0053700194
0.0051988329
0.0050357375
0.0048804727
0.0047323159
0.0045909921
0.0044560174
0.0043270165
0.0042035037
0.0040851648
0.0039719668
0.0038640917
0.0037620064
0.0036662671
0.0035773099
0.0034955235
0.003421251
0.0033547273
0.0032959432
0.0032445285
0.0031995194
0.0031597307
0.0031239479
0.0030905895
0.0030582215
0.0030259327
0.00299333
0.0029600515
0.0029261146
0.0028917646
0.0028568215
0.0028212222
0.0027850112
0.002748146
0.0027109006
0.0026735779
0.0026361947
0.0025987686
0.0025612321
0.0025237511
0.0024864535
0.0024492773
0.0024119877
0.0023746879
0.0023376068
0.0023006018
0.0022634412
0.0022261907
0.0021890444
0.0021518471
0.0021144319
0.0020768789
0.002039288
0.0020014348
0.0019633313
0.001925091
0.0018865621
0.0018476765
0.0018085475
0.0017691163
0.0017292765
0.0016890656
0.0016485239
0.0016075868
0.001566144
0.0015241905
0.0014816525
0.0014385117
0.0013947984
0.0013504999
0.0013056509
0.00126023
0.0012142209
0.0011676089
0.0011203834
0.0010725386
0.0010240742
0.00097499542
0.00092531673
0.00087505949
0.00082426645
0.00077298118
0.00072131898
0.00066932689
0.00061737201
0.00056528118
0.00051454933
0.0004632375
0.00041865717
0.00036783572
0.00034943864
0.00026635442
0.00056961839
-0.0004531524
0.0062190908
0.0061316232
0.006004254
0.0058497426
0.0056829959
0.0055139941
0.0053458038
0.0051815063
0.0050235614
0.00487228
0.0047273096
0.0045885324
0.0044556456
0.0043283688
0.0042063413
0.0040893251
0.0039773192
0.0038705154
0.0037693454
0.0036743295
0.0035858966
0.0035044254
0.0034302435
0.0033635681
0.0033043823
0.0032523323
0.0032065347
0.0031658708
0.0031291732
0.0030949632
0.00306188
0.0030290254
0.0029959764
0.0029623735
0.0029281915
0.0028936254
0.0028585148
0.0028227901
0.0027864887
0.0027495777
0.0027123011
0.0026749389
0.0026375155
0.0026000503
0.0025624878
0.0025249772
0.002487637
0.0024504133
0.0024130935
0.0023757665
0.0023386412
0.0023015896
0.0022643962
0.0022271183
0.0021899342
0.0021527001
0.0021152566
0.0020776757
0.0020400562
0.0020021902
0.0019640758
0.0019258073
0.0018872523
0.0018483639
0.001809228
0.0017697544
0.0017298739
0.0016896702
0.0016490528
0.0016079824
0.0015665112
0.0015246121
0.0014822179
0.0014393122
0.0013958375
0.0013517031
0.001306929
0.0012615244
0.0012155114
0.0011688963
0.0011216727
0.0010738326
0.0010253728
0.00097629677
0.0009266177
0.00087635655
0.00082555604
0.00077425998
0.00072258384
0.00067057513
0.00061860052
0.00056648813
0.00051572951
0.00046439169
0.00041976931
0.00036890815
0.0003504588
0.00026721333
0.00056944875
-0.00045010942
0.0061193933
0.0060419595
0.005930237
0.0057916347
0.0056379058
0.0054792966
0.0053198247
0.0051625348
0.0050099709
0.0048629096
0.00472134
0.0045853054
0.0044546725
0.0043292661
0.0042088417
0.0040932391
0.0039824927
0.0038768076
0.0037765888
0.0036823265
0.0035944418
0.0035133045
0.0034392288
0.003372417
0.0033128476
0.0032601847
0.0032136186
0.0031720969
0.0031345014
0.0030994493
0.003065651
0.003032224
0.0029987207
0.0029647817
0.0029303439
0.0028955554
0.0028602711
0.0028244159
0.0027880195
0.0027510571
0.0027137448
0.0026763406
0.0026388751
0.0026013693
0.0025637785
0.0025262367
0.0024888531
0.0024515812
0.0024142291
0.0023768729
0.0023397027
0.0023026039
0.0022653767
0.0022280691
0.0021908438
0.0021535691
0.0021160944
0.0020784842
0.0020408304
0.0020029373
0.001964797
0.0019265009
0.0018879291
0.0018490314
0.0018098797
0.0017703893
0.0017304987
0.0016902824
0.0016496412
0.0016085527
0.0015670659
0.0015250818
0.0014825999
0.0014396616
0.0013962268
0.0013522445
0.0013076809
0.0012624708
0.0012165868
0.0011700319
0.0011228269
0.0010749915
0.0010265361
0.00097746683
0.00092779521
0.00087754037
0.00082674362
0.00077544798
0.00072376852
0.00067175301
0.0006197675
0.00056764156
0.00051686288
0.00046550536
0.00042084425
0.00036994684
0.0003514451
0.00026802415
0.00056897983
-0.00044659621
0.0060251235
0.00595615
0.0058575571
0.0057329948
0.0055915172
0.005443043
0.0052921743
0.0051419458
0.0049949408
0.0048523024
0.0047143277
0.0045812204
0.0044530041
0.0043296138
0.004210914
0.0040968221
0.003987411
0.0038829007
0.0037836778
0.0036902072
0.0036029022
0.0035221247
0.0034481774
0.0033812503
0.0033213204
0.0032680708
0.0032207598
0.0031784009
0.0031399267
0.0031040442
0.0030695329
0.0030355288
0.0030015642
0.0029672784
0.0029325749
0.0028975579
0.0028620938
0.0028261029
0.002789607
0.0027525875
0.002715235
0.0026777862
0.0026402767
0.0026027288
0.0025651073
0.0025275324
0.0024901045
0.0024527838
0.0024153976
0.0023780103
0.0023407945
0.0023036478
0.0022663852
0.002229046
0.0021917782
0.0021544618
0.0021169551
0.0020793136
0.0020416215
0.002003697
0.0019655285
0.0019272018
0.0018886044
0.0018496842
0.0018105079
0.0017709998
0.0017310989
0.0016908685
0.0016502232
0.0016091297
0.0015676236
0.001525623
0.0014831435
0.0014401586
0.0013966319
0.0013525885
0.0013080083
0.001262867
0.001217132
0.0011707583
0.0011237081
0.0010759702
0.0010275609
0.00097850965
0.00092884756
0.00087860167
0.00082781427
0.00077652723
0.00072485408
0.00067284178
0.00062085502
0.00056872458
0.00051793364
0.0004665637
0.00042186809
0.00037093854
0.0003523852
0.00026877276
0.00056816781
-0.00044255674
0.0059356981
0.0058738851
0.0057863464
0.0056741434
0.0055440891
0.0054054039
0.0052629657
0.0051197957
0.0049784775
0.0048404312
0.0047062239
0.0045762136
0.0044505692
0.0043293363
0.0042124822
0.0041000004
0.0039920041
0.0038887306
0.0037905544
0.0036979196
0.003611232
0.0035308465
0.0034570557
0.0033900401
0.0033297778
0.0032759719
0.0032279437
0.0031847715
0.0031454403
0.0031087416
0.0030735217
0.0030389377
0.0030045061
0.0029698641
0.0029348856
0.0028996343
0.0028639847
0.0028278532
0.0027912534
0.0027541712
0.0027167741
0.0026792781
0.0026417226
0.002604131
0.0025664764
0.0025288666
0.0024913934
0.0024540233
0.0024166011
0.0023791811
0.002341919
0.0023047235
0.0022674238
0.0022300514
0.0021927403
0.0021553814
0.0021178411
0.0020801665
0.0020424348
0.0020044776
0.0019662798
0.0019279201
0.001889293
0.0018503465
0.0018111424
0.0017716101
0.0017316891
0.0016914374
0.0016507763
0.0016096709
0.0015681535
0.0015261526
0.0014836734
0.0014406759
0.0013971369
0.0013530689
0.0013084313
0.0012632282
0.0012174512
0.0011710892
0.0011241253
0.0010765309
0.0010282744
0.00097934192
0.00092974995
0.00087953791
0.00082876726
0.00077749199
0.00072582944
0.00067382682
0.00062184683
0.00056972059
0.00051892561
0.00046755125
0.00042282621
0.0003718691
0.000353266
0.00026944358
0.00056695608
-0.00043793064
0.005850615
0.0057948827
0.0057166872
0.0056153476
0.0054958633
0.0053665525
0.0052323229
0.005096158
0.0049606079
0.0048272902
0.0046970005
0.0045702418
0.0044473153
0.0043283746
0.0042134843
0.0041027116
0.0039962113
0.0038942399
0.003797165
0.0037054143
0.0036193863
0.0035394297
0.0034658289
0.0033987567
0.0033381947
0.0032838667
0.0032351528
0.0031911948
0.0031510312
0.003113533
0.0030776114
0.0030424467
0.0030075437
0.0029725376
0.0029372757
0.0029017846
0.0028659443
0.0028296676
0.0027929596
0.0027558095
0.0027183635
0.0026808176
0.0026432142
0.0026055773
0.0025678875
0.002530241
0.0024927217
0.0024553014
0.0024178416
0.0023803871
0.0023430779
0.0023058329
0.0022684947
0.0022310875
0.0021937323
0.0021563297
0.0021187543
0.0020810453
0.0020432731
0.0020052819
0.0019670535
0.0019286592
0.0018900008
0.0018510269
0.0018117933
0.0017722338
0.0017322888
0.0016920119
0.0016513285
0.0016102038
0.0015686686
0.0015266548
0.0014841626
0.0014411581
0.00139762
0.0013535499
0.0013089061
0.0012636864
0.001217874
0.0011714624
0.0011244507
0.0010768376
0.0010286202
0.00097978877
0.00093033036
0.00088024177
0.00082955712
0.00077832988
0.00072669183
0.00067470396
0.00062273452
0.00057061761
0.0005198248
0.00046845318
0.00042370389
0.00037272385
0.00035407384
0.00027001952
0.00056528968
-0.00043265434
0.0057694401
0.0057188875
0.005648623
0.0055568263
0.0054470606
0.0053266601
0.0052003753
0.005071117
0.0049413728
0.0048128881
0.0046866441
0.0045632757
0.0044432028
0.0043266823
0.0042138699
0.0041049036
0.0039999807
0.0038993783
0.0038034616
0.0037126458
0.0036273228
0.003547836
0.0034744624
0.0034073699
0.0033465446
0.0032917325
0.0032423681
0.0031976552
0.0031566865
0.0031184081
0.0030817941
0.00304605
0.003010673
0.0029752959
0.0029397433
0.0029040077
0.002867972
0.0028315457
0.0027947256
0.0027575027
0.0027200036
0.0026824054
0.0026447523
0.0026070686
0.0025693414
0.0025316565
0.0024940903
0.0024566192
0.0024191201
0.0023816296
0.0023442726
0.0023069774
0.0022695992
0.0022321557
0.0021947556
0.0021573084
0.0021196965
0.0020819518
0.0020441382
0.0020061119
0.0019678513
0.0019294214
0.0018907306
0.0018517279
0.0018124636
0.0017728752
0.0017329048
0.001692601
0.0016518931
0.0016107462
0.0015691888
0.001527155
0.001484644
0.0014416249
0.0013980758
0.0013539967
0.0013093495
0.0012641283
0.0012183134
0.0011718935
0.0011248602
0.0010772103
0.0010289494
0.00098008728
0.00093063816
0.0008806143
0.00083003739
0.00077892645
0.00072738085
0.00067545081
0.00062351161
0.00057141146
0.00052062444
0.00046925935
0.00042448895
0.00037348891
0.00035479535
0.00027048245
0.00056311438
-0.00042666373
0.0056917957
0.005645669
0.0055821678
0.0054987559
0.0053978805
0.0052858926
0.0051672544
0.0050447647
0.0049208233
0.0047972442
0.0046751517
0.0045552959
0.0044382017
0.0043242218
0.0042135968
0.0041065321
0.0040032673
0.0039041016
0.0038094015
0.0037195732
0.0036350028
0.003556029
0.0034829233
0.0034158499
0.0033548016
0.0032995462
0.0032495698
0.0032041358
0.0031623918
0.0031233551
0.0030860605
0.0030497405
0.0030138884
0.0029781352
0.0029422856
0.0029063013
0.002870066
0.0028334861
0.0027965504
0.0027592501
0.0027216941
0.0026840414
0.0026463368
0.0026086051
0.0025708386
0.0025331137
0.0024954998
0.0024579775
0.0024204376
0.0023829094
0.0023455041
0.0023081579
0.0022707384
0.0022332573
0.0021958115
0.0021583188
0.0021206691
0.0020828875
0.0020450317
0.0020069689
0.001968675
0.0019302085
0.0018914841
0.0018524514
0.0018131552
0.0017735369
0.0017335398
0.0016932077
0.001652474
0.0016113034
0.0015697218
0.001527666
0.0014851339
0.0014420956
0.0013985289
0.0013544338
0.0013097741
0.0012645434
0.001218723
0.0011723005
0.0011252656
0.0010776117
0.0010293381
0.00098044993
0.00093096465
0.00088090768
0.00083032329
0.00077925007
0.00072778677
0.00067595926
0.0006241103
0.00057207182
0.00052131397
0.00046996458
0.00042517544
0.00037415479
0.00035541993
0.00027081475
0.00056037821
-0.00041989805
0.0056173521
0.0055750198
0.0055173131
0.0054412752
0.0053485001
0.0052444087
0.0051330914
0.005017198
0.0048990186
0.0047803866
0.0046625286
0.0045462908
0.0044322889
0.0043209619
0.0042126289
0.0041075582
0.0040060314
0.0039083703
0.003814946
0.0037261589
0.0036423902
0.003563975
0.0034911803
0.0034241684
0.0033629397
0.0033072848
0.0032567374
0.0032106193
0.0031681323
0.0031283615
0.0030904004
0.0030535102
0.0030171837
0.0029810506
0.0029448988
0.0029086622
0.0028722237
0.0028354869
0.0027984322
0.0027610503
0.0027234339
0.0026857245
0.002647967
0.0026101861
0.0025723786
0.0025346124
0.0024969502
0.0024593764
0.0024217944
0.0023842271
0.0023467727
0.0023093752
0.0022719131
0.002234393
0.0021969007
0.0021593617
0.0021216729
0.0020838534
0.0020459545
0.0020078541
0.0019695259
0.0019310218
0.0018922627
0.0018531989
0.0018138698
0.0017742204
0.0017341956
0.0016938341
0.0016530733
0.0016118779
0.0015702707
0.0015281917
0.001485637
0.0014425776
0.0013989911
0.001354877
0.0013102002
0.0012649539
0.0012191203
0.0011726874
0.0011256456
0.001077988
0.0010297126
0.00098082196
0.00093132879
0.00088125366
0.00083064041
0.00077953571
0.00072805608
0.00067624731
0.0006244578
0.00057250483
0.00052182505
0.00047053362
0.00042574959
0.00037471427
0.00035594228
0.00027100263
0.00055703959
-0.00041230712
0.00554582
0.0055067528
0.0054540347
0.0053844918
0.0052990747
0.0052023579
0.0050980155
0.004988517
0.0048760249
0.0047623512
0.0046487874
0.0045362553
0.0044254465
0.0043168763
0.004210934
0.0041079469
0.0040082366
0.0039121481
0.0038200597
0.0037323683
0.0036494519
0.0035716424
0.0034992039
0.0034322981
0.0033709342
0.0033149255
0.0032638509
0.0032170879
0.0031738925
0.0031334141
0.0030948029
0.0030573502
0.0030205516
0.0029840364
0.0029475784
0.0029110867
0.0028744421
0.0028375452
0.0028003686
0.0027629014
0.0027252213
0.0026874534
0.0026496418
0.0026118108
0.0025739608
0.0025361521
0.0024984412
0.0024608156
0.0024231903
0.0023855826
0.0023480788
0.0023106294
0.0022731236
0.0022355633
0.0021980239
0.0021604378
0.0021227087
0.0020848502
0.0020469075
0.0020087684
0.0019704047
0.0019318622
0.0018930675
0.0018539714
0.0018146085
0.0017749272
0.0017348734
0.0016944817
0.0016536928
0.0016124714
0.0015708377
0.0015287342
0.0014861557
0.0014430739
0.0013994664
0.0013553317
0.0013106358
0.0012653715
0.0012195212
0.0011730731
0.001126018
0.0010783495
0.001030066
0.00098117048
0.0009316748
0.00088159751
0.00083097876
0.00077986071
0.00072835756
0.00067651963
0.0006247083
0.00057275983
0.00052211604
0.00047088952
0.00042614762
0.00037512969
0.00035634734
0.00027102924
0.00055308503
-0.00040386484
0.0054769447
0.0054406995
0.0053922969
0.005328486
0.0052497386
0.0051598793
0.0050621524
0.0049588236
0.0048519132
0.0047431804
0.0046339473
0.0045251904
0.0044176623
0.0043119427
0.0042084839
0.0041076661
0.004009849
0.0039154009
0.0038247086
0.0037381684
0.0036561559
0.0035790009
0.0035069655
0.0034402125
0.0033787607
0.0033224461
0.00327089
0.0032235238
0.0031796565
0.0031384993
0.0030992568
0.0030612515
0.0030239848
0.0029870868
0.0029503196
0.0029135707
0.0028767175
0.0028396579
0.0028023568
0.0027648009
0.0027270542
0.0026892261
0.0026513594
0.0026134775