/*--------------------------------*- C++ -*----------------------------------*\
  =========                 |
  \\      /  F ield         | OpenFOAM: The Open Source CFD Toolbox
   \\    /   O peration     | Website:  https://openfoam.org
    \\  /    A nd           | Version:  12
     \\/     M anipulation  |
\*---------------------------------------------------------------------------*/
FoamFile
{
    format      ascii;
    class       volScalarField;
    location    "1700";
    object      p;
}
// * * * * * * * * * * * * * * * * * * * * * * * * * * * * * * * * * * * * * //

dimensions      [0 2 -2 0 0 0 0];

internalField   nonuniform List<scalar> 
13056
(
0.0074531805
0.0074940564
0.0075767658
0.007679131
0.0078024633
0.0079448141
0.0081039062
0.008278468
0.0084679377
0.0086722414
0.0088917728
0.0091274722
0.0093809074
0.0096545767
0.0099519647
0.010278832
0.010642127
0.011057105
0.011535343
0.012133259
0.012843683
0.014002999
0.015242846
0.02117852
0.01748042
0.011306199
0.010014157
0.0095159588
0.0090126228
0.0085950461
0.008277967
0.0080340598
0.0078153893
0.0076145883
0.0074352021
0.0072805685
0.007143756
0.0070109515
0.0068879081
0.0067783709
0.0066730689
0.0065741452
0.0064816258
0.0063932802
0.0063096619
0.006229476
0.0061525463
0.0060792609
0.0060077701
0.0059390168
0.0058730363
0.0058082339
0.0057455444
0.0056849813
0.0056254341
0.0055670323
0.0055102032
0.0054547096
0.0053997311
0.0053457091
0.0052928933
0.0052407991
0.0051890453
0.0051379439
0.005087741
0.0050379819
0.0049884039
0.0049390913
0.0048904133
0.0048421178
0.0047938077
0.0047454194
0.0046974252
0.0046498024
0.0046019065
0.0045538864
0.004505732
0.0044577563
0.0044097049
0.004361245
0.0043123386
0.004263303
0.0042142029
0.0041645058
0.0041142586
0.0040633479
0.0040121393
0.0039605072
0.0039079417
0.0038545114
0.0038002995
0.0037454662
0.0036896453
0.0036326246
0.0035743193
0.0035150499
0.0034546586
0.0033925997
0.0033288338
0.0032636021
0.0031968228
0.003127905
0.0030567159
0.0029834052
0.0029078778
0.0028295364
0.0027480707
0.0026637008
0.00257615
0.0024845518
0.0023888799
0.0022889982
0.0021846629
0.0020767533
0.0019688444
0.0018630553
0.001758999
0.0016566856
0.001556283
0.0014575453
0.0013602357
0.0012644554
0.0011705507
0.0010784629
0.00098798828
0.00089945698
0.00081318066
0.00072962571
0.00064959949
0.00057266892
0.0005034868
0.00043574054
0.0003968271
0.0003351978
0.00055779085
-0.00049443135
0.0074531805
0.0074940564
0.0075767658
0.007679131
0.0078024633
0.0079448141
0.0081039062
0.008278468
0.0084679378
0.0086722415
0.0088917728
0.0091274722
0.0093809074
0.0096545767
0.0099519647
0.010278832
0.010642128
0.011057105
0.011535343
0.012133259
0.012843683
0.014002998
0.015242846
0.02117616
0.017483159
0.011306825
0.010014377
0.0095161047
0.0090127306
0.0085951336
0.0082780407
0.0080341226
0.0078154433
0.0076146353
0.0074352435
0.0072806053
0.0071437889
0.0070109811
0.006887935
0.0067783955
0.0066730914
0.006574166
0.0064816451
0.0063932981
0.0063096786
0.0062294915
0.0061525609
0.0060792745
0.006007783
0.0059390289
0.0058730477
0.0058082448
0.0057455547
0.005684991
0.0056254433
0.0055670411
0.0055102116
0.0054547176
0.0053997387
0.0053457164
0.0052929002
0.0052408058
0.0051890516
0.00513795
0.0050877468
0.0050379875
0.0049884093
0.0049390964
0.0048904182
0.0048421226
0.0047938122
0.0047454237
0.0046974294
0.0046498064
0.0046019103
0.0045538901
0.0045057356
0.0044577597
0.0044097083
0.0043612482
0.0043123417
0.004263306
0.0042142057
0.0041645085
0.0041142612
0.0040633505
0.0040121418
0.0039605096
0.0039079439
0.0038545136
0.0038003016
0.0037454682
0.0036896472
0.0036326265
0.0035743211
0.0035150516
0.0034546603
0.0033926013
0.0033288353
0.0032636035
0.0031968242
0.0031279064
0.0030567172
0.0029834064
0.002907879
0.0028295375
0.0027480718
0.0026637018
0.002576151
0.0024845527
0.0023888807
0.0022889991
0.0021846637
0.002076754
0.0019688452
0.001863056
0.0017589996
0.0016566862
0.0015562836
0.0014575459
0.0013602362
0.001264456
0.0011705512
0.0010784634
0.00098798875
0.00089945744
0.00081318111
0.00072962614
0.0006495999
0.00057266932
0.0005034872
0.00043574093
0.00039682749
0.00033519821
0.0005577913
-0.00049443103
0.0074531805
0.0074940564
0.0075767659
0.007679131
0.0078024633
0.0079448141
0.0081039062
0.008278468
0.0084679378
0.0086722415
0.0088917728
0.0091274722
0.0093809075
0.0096545767
0.0099519647
0.010278832
0.010642128
0.011057105
0.011535343
0.012133259
0.012843683
0.014002998
0.015242847
0.021174231
0.017487561
0.011307957
0.010014721
0.0095163194
0.0090128866
0.0085952591
0.0082781459
0.0080342118
0.0078155197
0.0076147017
0.0074353019
0.007280657
0.0071438351
0.0070110227
0.0068879727
0.0067784299
0.0066731229
0.006574195
0.0064816719
0.0063933229
0.0063097017
0.0062295131
0.0061525811
0.0060792935
0.0060078008
0.0059390457
0.0058730636
0.0058082597
0.0057455688
0.0056850044
0.005625456
0.0055670532
0.0055102231
0.0054547286
0.0053997492
0.0053457263
0.0052929097
0.0052408148
0.0051890603
0.0051379583
0.0050877547
0.0050379951
0.0049884166
0.0049391034
0.0048904249
0.004842129
0.0047938184
0.0047454297
0.0046974351
0.0046498119
0.0046019156
0.0045538952
0.0045057405
0.0044577644
0.0044097128
0.0043612525
0.0043123458
0.00426331
0.0042142096
0.0041645122
0.0041142648
0.0040633539
0.0040121451
0.0039605128
0.003907947
0.0038545165
0.0038003044
0.003745471
0.0036896498
0.003632629
0.0035743235
0.0035150539
0.0034546625
0.0033926035
0.0033288373
0.0032636055
0.0031968261
0.0031279082
0.003056719
0.0029834081
0.0029078806
0.002829539
0.0027480732
0.0026637032
0.0025761523
0.0024845539
0.0023888819
0.0022890002
0.0021846648
0.002076755
0.0019688461
0.0018630569
0.0017590005
0.001656687
0.0015562844
0.0014575467
0.0013602369
0.0012644567
0.0011705518
0.001078464
0.00098798938
0.00089945805
0.00081318169
0.00072962671
0.00064960045
0.00057266986
0.00050348772
0.00043574144
0.00039682799
0.00033519872
0.0005577919
-0.00049443065
0.0074531805
0.0074940564
0.0075767659
0.007679131
0.0078024634
0.0079448141
0.0081039062
0.008278468
0.0084679378
0.0086722415
0.0088917728
0.0091274723
0.0093809075
0.0096545768
0.0099519648
0.010278832
0.010642128
0.011057105
0.011535344
0.012133259
0.012843683
0.014002998
0.015242847
0.021172852
0.017493637
0.011309821
0.010015222
0.0095166109
0.0090130941
0.008595424
0.0082782831
0.0080343276
0.0078156186
0.0076147874
0.007435377
0.0072807235
0.0071438943
0.0070110759
0.0068880209
0.0067784737
0.006673163
0.0065742318
0.0064817059
0.0063933544
0.006309731
0.0062295404
0.0061526067
0.0060793174
0.0060078232
0.0059390668
0.0058730835
0.0058082785
0.0057455866
0.0056850213
0.005625472
0.0055670684
0.0055102375
0.0054547423
0.0053997622
0.0053457388
0.0052929216
0.0052408262
0.0051890711
0.0051379687
0.0050877647
0.0050380046
0.0049884257
0.0049391121
0.0048904333
0.004842137
0.0047938261
0.0047454371
0.0046974422
0.0046498187
0.0046019222
0.0045539015
0.0045057465
0.0044577702
0.0044097184
0.0043612579
0.004312351
0.004263315
0.0042142144
0.0041645168
0.0041142692
0.0040633582
0.0040121492
0.0039605167
0.0039079508
0.0038545201
0.0038003079
0.0037454743
0.0036896531
0.0036326321
0.0035743264
0.0035150568
0.0034546652
0.0033926061
0.0033288399
0.0032636079
0.0031968284
0.0031279104
0.0030567211
0.0029834101
0.0029078825
0.0028295409
0.002748075
0.0026637049
0.0025761539
0.0024845555
0.0023888834
0.0022890016
0.0021846661
0.0020767563
0.0019688473
0.001863058
0.0017590015
0.001656688
0.0015562854
0.0014575476
0.0013602378
0.0012644575
0.0011705527
0.0010784648
0.00098799013
0.00089945877
0.00081318239
0.00072962739
0.00064960111
0.00057267049
0.00050348834
0.00043574204
0.0003968286
0.0003351993
0.00055779262
-0.00049443021
0.0074531805
0.0074940564
0.0075767659
0.007679131
0.0078024634
0.0079448141
0.0081039062
0.008278468
0.0084679378
0.0086722415
0.0088917729
0.0091274723
0.0093809076
0.0096545768
0.0099519648
0.010278832
0.010642128
0.011057105
0.011535344
0.012133259
0.012843684
0.014002998
0.015242849
0.021171754
0.017501272
0.01131255
0.010015925
0.0095170029
0.0090133691
0.0085956411
0.0082784631
0.0080344793
0.0078157481
0.0076148995
0.0074354753
0.0072808104
0.0071439717
0.0070111454
0.0068880838
0.0067785309
0.0066732153
0.0065742799
0.0064817503
0.0063933956
0.0063097692
0.0062295761
0.00615264
0.0060793486
0.0060078526
0.0059390944
0.0058731095
0.0058083031
0.0057456098
0.0056850432
0.0056254928
0.0055670881
0.0055102563
0.0054547602
0.0053997793
0.005345755
0.0052929371
0.005240841
0.0051890852
0.0051379822
0.0050877776
0.005038017
0.0049884375
0.0049391235
0.0048904441
0.0048421475
0.0047938361
0.0047454467
0.0046974514
0.0046498276
0.0046019307
0.0045539096
0.0045057543
0.0044577778
0.0044097256
0.0043612649
0.0043123577
0.0042633214
0.0042142206
0.0041645228
0.004114275
0.0040633637
0.0040121545
0.0039605218
0.0039079557
0.0038545248
0.0038003124
0.0037454787
0.0036896572
0.0036326361
0.0035743303
0.0035150605
0.0034546688
0.0033926095
0.0033288431
0.003263611
0.0031968313
0.0031279133
0.0030567238
0.0029834127
0.002907885
0.0028295433
0.0027480772
0.002663707
0.002576156
0.0024845574
0.0023888852
0.0022890033
0.0021846678
0.0020767578
0.0019688488
0.0018630594
0.0017590029
0.0016566893
0.0015562866
0.0014575488
0.0013602389
0.0012644586
0.0011705537
0.0010784658
0.0009879911
0.0008994597
0.00081318329
0.00072962826
0.00064960195
0.00057267131
0.00050348915
0.00043574283
0.00039682938
0.00033520005
0.00055779354
-0.00049442964
0.0074531805
0.0074940565
0.0075767659
0.0076791311
0.0078024634
0.0079448141
0.0081039062
0.0082784681
0.0084679379
0.0086722416
0.0088917729
0.0091274724
0.0093809076
0.0096545769
0.0099519649
0.010278832
0.010642128
0.011057106
0.011535344
0.012133259
0.012843684
0.014002997
0.01524285
0.021170765
0.017509506
0.011316047
0.010016826
0.0095174928
0.0090137089
0.0085959082
0.0082786843
0.0080346657
0.0078159073
0.0076150374
0.0074355963
0.0072809175
0.0071440671
0.0070112311
0.0068881615
0.0067786016
0.0066732801
0.0065743395
0.0064818053
0.0063934465
0.0063098166
0.0062296203
0.0061526813
0.0060793874
0.006007889
0.0059391287
0.0058731418
0.0058083335
0.0057456386
0.0056850705
0.0056255187
0.0055671127
0.0055102797
0.0054547824
0.0053998005
0.0053457752
0.0052929564
0.0052408594
0.0051891029
0.005137999
0.0050877937
0.0050380324
0.0049884523
0.0049391377
0.0048904577
0.0048421605
0.0047938486
0.0047454587
0.004697463
0.0046498386
0.0046019413
0.0045539199
0.0045057642
0.0044577872
0.0044097347
0.0043612736
0.0043123661
0.0042633295
0.0042142283
0.0041645303
0.0041142822
0.0040633706
0.0040121611
0.0039605282
0.0039079618
0.0038545307
0.0038003181
0.0037454841
0.0036896625
0.0036326411
0.0035743351
0.0035150651
0.0034546732
0.0033926138
0.0033288472
0.003263615
0.0031968351
0.0031279169
0.0030567272
0.002983416
0.0029078881
0.0028295463
0.0027480801
0.0026637097
0.0025761585
0.0024845599
0.0023888876
0.0022890055
0.0021846699
0.0020767598
0.0019688507
0.0018630612
0.0017590046
0.001656691
0.0015562882
0.0014575502
0.0013602404
0.00126446
0.001170555
0.0010784671
0.00098799232
0.00089946088
0.00081318443
0.00072962936
0.00064960302
0.00057267235
0.00050349016
0.00043574381
0.00039683038
0.000335201
0.0005577947
-0.00049442892
0.0074531805
0.0074940565
0.0075767659
0.0076791311
0.0078024634
0.0079448142
0.0081039063
0.0082784681
0.0084679379
0.0086722416
0.008891773
0.0091274725
0.0093809077
0.009654577
0.009951965
0.010278832
0.010642128
0.011057106
0.011535344
0.01213326
0.012843684
0.014002996
0.015242852
0.021169793
0.017517526
0.011319957
0.010017928
0.0095180777
0.0090141098
0.0085962218
0.0082789434
0.0080348841
0.0078160938
0.0076151991
0.0074357382
0.0072810431
0.0071441791
0.0070113318
0.0068882527
0.0067786847
0.0066733561
0.0065744095
0.0064818699
0.0063935065
0.0063098724
0.0062296723
0.00615273
0.0060794331
0.0060079319
0.0059391691
0.0058731799
0.0058083696
0.0057456727
0.0056851028
0.0056255493
0.0055671418
0.0055103073
0.0054548088
0.0053998256
0.0053457992
0.0052929792
0.0052408812
0.0051891237
0.005138019
0.0050878128
0.0050380507
0.0049884699
0.0049391545
0.0048904739
0.004842176
0.0047938635
0.004745473
0.0046974767
0.0046498518
0.004601954
0.004553932
0.0045057759
0.0044577985
0.0044097455
0.004361284
0.0043123761
0.0042633391
0.0042142376
0.0041645392
0.0041142907
0.0040633789
0.0040121691
0.0039605359
0.0039079692
0.0038545378
0.0038003249
0.0037454906
0.0036896688
0.0036326471
0.0035743409
0.0035150707
0.0034546786
0.0033926189
0.0033288521
0.0032636197
0.0031968396
0.0031279212
0.0030567314
0.00298342
0.0029078919
0.0028295499
0.0027480835
0.002663713
0.0025761617
0.0024845628
0.0023888904
0.0022890082
0.0021846724
0.0020767622
0.001968853
0.0018630634
0.0017590067
0.0016566929
0.00155629
0.001457552
0.0013602421
0.0012644616
0.0011705566
0.0010784686
0.0009879938
0.00089946231
0.00081318581
0.0007296307
0.00064960432
0.00057267361
0.00050349139
0.00043574501
0.00039683158
0.00033520216
0.00055779611
-0.00049442805
0.0074531805
0.0074940565
0.0075767659
0.0076791311
0.0078024635
0.0079448142
0.0081039063
0.0082784682
0.008467938
0.0086722417
0.0088917731
0.0091274726
0.0093809078
0.0096545772
0.0099519652
0.010278832
0.010642128
0.011057106
0.011535344
0.01213326
0.012843684
0.014002995
0.015242855
0.021168764
0.017525179
0.011324188
0.01001925
0.0095187659
0.0090145756
0.0085965839
0.0082792419
0.0080351353
0.0078163082
0.0076153849
0.0074359013
0.0072811875
0.0071443078
0.0070114476
0.0068883576
0.0067787803
0.0066734437
0.00657449
0.0064819444
0.0063935755
0.0063099366
0.0062297323
0.0061527861
0.0060794857
0.0060079813
0.0059392157
0.0058732238
0.0058084111
0.005745712
0.00568514
0.0056255847
0.0055671754
0.0055103393
0.0054548392
0.0053998545
0.0053458268
0.0052930056
0.0052409065
0.0051891479
0.0051380421
0.0050878349
0.0050380719
0.0049884901
0.0049391739
0.0048904925
0.0048421939
0.0047938807
0.0047454895
0.0046974925
0.0046498671
0.0046019686
0.0045539461
0.0045057894
0.0044578115
0.004409758
0.0043612961
0.0043123877
0.0042633503
0.0042142483
0.0041645495
0.0041143007
0.0040633884
0.0040121783
0.0039605447
0.0039079777
0.003854546
0.0038003328
0.0037454982
0.003689676
0.0036326541
0.0035743476
0.0035150771
0.0034546848
0.0033926248
0.0033288578
0.0032636251
0.0031968449
0.0031279262
0.0030567362
0.0029834245
0.0029078963
0.0028295541
0.0027480875
0.0026637168
0.0025761653
0.0024845663
0.0023888937
0.0022890113
0.0021846754
0.002076765
0.0019688556
0.0018630659
0.0017590091
0.0016566952
0.0015562922
0.0014575542
0.0013602441
0.0012644636
0.0011705585
0.0010784704
0.00098799553
0.00089946398
0.00081318743
0.00072963226
0.00064960583
0.00057267508
0.00050349283
0.00043574642
0.00039683299
0.00033520351
0.00055779777
-0.00049442704
0.0074531805
0.0074940565
0.007576766
0.0076791312
0.0078024635
0.0079448143
0.0081039064
0.0082784682
0.0084679381
0.0086722418
0.0088917732
0.0091274727
0.009380908
0.0096545773
0.0099519654
0.010278833
0.010642128
0.011057106
0.011535344
0.01213326
0.012843685
0.014002993
0.015242858
0.02116761
0.017532524
0.011329374
0.010020829
0.0095195733
0.0090151152
0.0085970008
0.0082795845
0.0080354233
0.0078165539
0.0076155977
0.0074360881
0.0072813528
0.0071444551
0.00701158
0.0068884777
0.0067788897
0.0066735438
0.0065745822
0.0064820295
0.0063936545
0.0063100101
0.0062298008
0.0061528502
0.0060795458
0.0060080379
0.0059392689
0.005873274
0.0058084585
0.0057457569
0.0056851826
0.0056256251
0.0055672138
0.0055103758
0.0054548739
0.0053998877
0.0053458585
0.0052930359
0.0052409353
0.0051891755
0.0051380685
0.0050878602
0.0050380961
0.0049885134
0.0049391962
0.0048905139
0.0048422144
0.0047939004
0.0047455084
0.0046975107
0.0046498845
0.0046019854
0.0045539623
0.004505805
0.0044578265
0.0044097724
0.0043613099
0.004312401
0.0042633631
0.0042142607
0.0041645614
0.0041143121
0.0040633994
0.0040121889
0.0039605549
0.0039079875
0.0038545554
0.0038003418
0.0037455069
0.0036896844
0.0036326622
0.0035743554
0.0035150845
0.0034546919
0.0033926317
0.0033288644
0.0032636314
0.0031968509
0.003127932
0.0030567417
0.0029834298
0.0029079013
0.0028295589
0.0027480921
0.0026637212
0.0025761695
0.0024845703
0.0023888974
0.0022890149
0.0021846788
0.0020767683
0.0019688587
0.0018630688
0.0017590119
0.0016566979
0.0015562948
0.0014575566
0.0013602464
0.0012644658
0.0011705606
0.0010784724
0.00098799752
0.0008994659
0.00081318929
0.00072963406
0.00064960758
0.00057267678
0.00050349449
0.00043574803
0.00039683462
0.00033520507
0.00055779967
-0.00049442586
0.0074531805
0.0074940565
0.007576766
0.0076791312
0.0078024636
0.0079448143
0.0081039065
0.0082784683
0.0084679382
0.0086722419
0.0088917733
0.0091274728
0.0093809082
0.0096545775
0.0099519656
0.010278833
0.010642129
0.011057106
0.011535345
0.01213326
0.012843685
0.01400299
0.015242863
0.021166255
0.017539586
0.011335849
0.01002271
0.0095205218
0.0090157409
0.0085974811
0.008279978
0.0080357536
0.0078168354
0.0076158414
0.0074363018
0.007281542
0.0071446237
0.0070117315
0.006888615
0.0067790147
0.0066736582
0.0065746875
0.0064821268
0.0063937447
0.006310094
0.0062298791
0.0061529235
0.0060796146
0.0060081025
0.0059393298
0.0058733314
0.0058085128
0.0057458082
0.0056852312
0.0056256712
0.0055672577
0.0055104175
0.0054549137
0.0053999256
0.0053458946
0.0052930704
0.0052409683
0.005189207
0.0051380987
0.0050878891
0.0050381238
0.0049885399
0.0049392217
0.0048905383
0.0048422378
0.0047939229
0.00474553
0.0046975315
0.0046499045
0.0046020046
0.0045539807
0.0045058227
0.0044578435
0.0044097888
0.0043613257
0.0043124162
0.0042633777
0.0042142747
0.0041645749
0.0041143251
0.0040634119
0.0040122009
0.0039605665
0.0039079986
0.0038545662
0.0038003522
0.0037455169
0.003689694
0.0036326714
0.0035743642
0.003515093
0.0034547
0.0033926395
0.0033288719
0.0032636386
0.0031968578
0.0031279386
0.003056748
0.0029834359
0.0029079071
0.0028295644
0.0027480974
0.0026637262
0.0025761742
0.0024845748
0.0023889018
0.002289019
0.0021846826
0.002076772
0.0019688622
0.0018630721
0.001759015
0.0016567009
0.0015562977
0.0014575594
0.0013602491
0.0012644684
0.0011705631
0.0010784748
0.0009879998
0.00089946811
0.00081319142
0.00072963612
0.00064960958
0.00057267872
0.00050349639
0.00043574989
0.00039683648
0.00033520686
0.00055780186
-0.00049442451
0.0074531805
0.0074940566
0.007576766
0.0076791313
0.0078024636
0.0079448144
0.0081039066
0.0082784684
0.0084679383
0.0086722421
0.0088917735
0.009127473
0.0093809084
0.0096545778
0.0099519659
0.010278833
0.010642129
0.011057107
0.011535345
0.012133261
0.012843686
0.014002987
0.015242868
0.021164597
0.017546066
0.011343475
0.010024953
0.0095216389
0.0090164682
0.0085980355
0.0082804307
0.008036133
0.0078171584
0.0076161208
0.0074365468
0.0072817587
0.0071448167
0.0070119049
0.0068887721
0.0067791578
0.0066737892
0.0065748079
0.006482238
0.0063938478
0.00631019
0.0062299687
0.0061530073
0.0060796931
0.0060081764
0.0059393994
0.005873397
0.0058085747
0.0057458669
0.0056852868
0.0056257239
0.0055673078
0.0055104652
0.0054549591
0.0053999689
0.0053459359
0.0052931098
0.005241006
0.005189243
0.0051381332
0.0050879221
0.0050381554
0.0049885702
0.0049392507
0.0048905662
0.0048422646
0.0047939486
0.0047455547
0.0046975552
0.0046499273
0.0046020265
0.0045540018
0.004505843
0.004457863
0.0044098076
0.0043613437
0.0043124336
0.0042633945
0.0042142908
0.0041645904
0.00411434
0.0040634263
0.0040122147
0.0039605798
0.0039080114
0.0038545784
0.003800364
0.0037455282
0.0036897049
0.0036326818
0.0035743743
0.0035151027
0.0034547093
0.0033926484
0.0033288804
0.0032636468
0.0031968656
0.0031279461
0.0030567552
0.0029834428
0.0029079137
0.0028295707
0.0027481034
0.002663732
0.0025761797
0.00248458
0.0023889067
0.0022890237
0.0021846871
0.0020767762
0.0019688662
0.001863076
0.0017590187
0.0016567044
0.001556301
0.0014575625
0.0013602521
0.0012644713
0.0011705659
0.0010784775
0.00098800241
0.00089947063
0.00081319385
0.00072963848
0.00064961187
0.00057268095
0.00050349857
0.00043575201
0.00039683862
0.00033520891
0.00055780436
-0.00049442297
0.0074531805
0.0074940566
0.0075767661
0.0076791313
0.0078024637
0.0079448145
0.0081039067
0.0082784686
0.0084679384
0.0086722422
0.0088917737
0.0091274733
0.0093809086
0.0096545781
0.0099519662
0.010278834
0.010642129
0.011057107
0.011535346
0.012133261
0.012843686
0.014002983
0.015242875
0.021162509
0.017550966
0.0113523
0.01002763
0.0095229584
0.0090173159
0.0085986771
0.0082809526
0.0080365697
0.0078175299
0.0076164419
0.0074368282
0.0072820075
0.0071450383
0.0070121039
0.0068889523
0.0067793219
0.0066739393
0.006574946
0.0064823656
0.0063939661
0.0063102999
0.0062300713
0.0061531033
0.0060797831
0.0060082609
0.005939479
0.0058734721
0.0058086457
0.0057459341
0.0056853504
0.0056257843
0.0055673651
0.0055105198
0.005455011
0.0054000184
0.0053459832
0.0052931549
0.0052410491
0.0051892842
0.0051381726
0.0050879599
0.0050381916
0.0049886049
0.004939284
0.0048905981
0.0048422952
0.004793978
0.0047455829
0.0046975823
0.0046499534
0.0046020516
0.0045540259
0.0045058661
0.0044578853
0.004409829
0.0043613644
0.0043124534
0.0042634136
0.0042143092
0.0041646081
0.004114357
0.0040634427
0.0040122305
0.0039605949
0.003908026
0.0038545925
0.0038003775
0.0037455412
0.0036897173
0.0036326938
0.0035743858
0.0035151138
0.0034547199
0.0033926586
0.0033288902
0.0032636562
0.0031968746
0.0031279547
0.0030567634
0.0029834506
0.0029079212
0.0028295779
0.0027481103
0.0026637385
0.0025761859
0.0024845859
0.0023889123
0.002289029
0.0021846922
0.002076781
0.0019688708
0.0018630803
0.0017590228
0.0016567083
0.0015563048
0.0014575661
0.0013602556
0.0012644746
0.0011705691
0.0010784806
0.00098800539
0.00089947351
0.00081319664
0.00072964118
0.00064961449
0.00057268349
0.00050350106
0.00043575444
0.00039684106
0.00033521126
0.00055780722
-0.0004944212
0.0074531805
0.0074940567
0.0075767662
0.0076791314
0.0078024638
0.0079448146
0.0081039068
0.0082784687
0.0084679386
0.0086722424
0.0088917739
0.0091274735
0.0093809089
0.0096545784
0.0099519666
0.010278834
0.01064213
0.011057108
0.011535346
0.012133261
0.012843687
0.014002977
0.015242884
0.021159849
0.017553647
0.01136247
0.010030827
0.0095245217
0.009018307
0.0085994213
0.0082815558
0.0080370734
0.007817958
0.0076168116
0.007437152
0.0072822938
0.007145293
0.0070123327
0.0068891594
0.0067795104
0.0066741117
0.0065751046
0.006482512
0.0063941017
0.0063104261
0.006230189
0.0061532134
0.0060798863
0.0060083579
0.0059395704
0.0058735583
0.0058087271
0.0057460111
0.0056854234
0.0056258535
0.0055674309
0.0055105823
0.0054550706
0.0054000751
0.0053460373
0.0052932066
0.0052410985
0.0051893315
0.0051382178
0.0050880032
0.005038233
0.0049886446
0.0049393221
0.0048906347
0.0048423303
0.0047940116
0.0047456153
0.0046976134
0.0046499832
0.0046020802
0.0045540535
0.0045058927
0.0044579108
0.0044098536
0.004361388
0.0043124762
0.0042634354
0.0042143303
0.0041646283
0.0041143765
0.0040634614
0.0040122485
0.0039606123
0.0039080427
0.0038546085
0.0038003929
0.0037455561
0.0036897316
0.0036327076
0.003574399
0.0035151264
0.0034547321
0.0033926703
0.0033289014
0.0032636669
0.0031968849
0.0031279646
0.0030567729
0.0029834597
0.0029079299
0.0028295861
0.0027481181
0.002663746
0.0025761931
0.0024845927
0.0023889188
0.0022890352
0.002184698
0.0020767865
0.001968876
0.0018630853
0.0017590276
0.0016567129
0.0015563091
0.0014575703
0.0013602596
0.0012644784
0.0011705728
0.0010784842
0.0009880088
0.0008994768
0.00081319982
0.00072964426
0.00064961748
0.0005726864
0.00050350391
0.00043575721
0.00039684385
0.00033521394
0.00055781049
-0.00049441918
0.0074531805
0.0074940567
0.0075767662
0.0076791315
0.0078024639
0.0079448148
0.008103907
0.0082784689
0.0084679388
0.0086722427
0.0088917742
0.0091274739
0.0093809093
0.0096545788
0.0099519671
0.010278835
0.01064213
0.011057108
0.011535346
0.012133261
0.012843687
0.014002969
0.015242894
0.021156446
0.017554844
0.011374139
0.010034644
0.009526379
0.0090194693
0.008600287
0.0082822545
0.0080376559
0.0078184523
0.0076172382
0.0074375254
0.0072826237
0.0071455866
0.0070125962
0.0068893979
0.0067797273
0.0066743101
0.006575287
0.0064826804
0.0063942578
0.0063105712
0.0062303243
0.00615334
0.006080005
0.0060084694
0.0059396753
0.0058736572
0.0058088205
0.0057460995
0.0056855071
0.005625933
0.0055675064
0.0055106541
0.0054551389
0.0054001403
0.0053460995
0.005293266
0.0052411552
0.0051893857
0.0051382697
0.0050880528
0.0050382806
0.0049886902
0.0049393658
0.0048906766
0.0048423705
0.0047940502
0.0047456524
0.0046976491
0.0046500175
0.0046021132
0.0045540851
0.0045059231
0.0044579401
0.0044098817
0.0043614151
0.0043125022
0.0042634605
0.0042143544
0.0041646516
0.0041143989
0.0040634829
0.0040122692
0.0039606322
0.0039080618
0.003854627
0.0038004106
0.0037455731
0.003689748
0.0036327233
0.0035744141
0.003515141
0.003454746
0.0033926836
0.0033289142
0.0032636792
0.0031968967
0.0031279758
0.0030567837
0.00298347
0.0029079397
0.0028295955
0.0027481271
0.0026637546
0.0025762013
0.0024846005
0.0023889262
0.0022890422
0.0021847046
0.0020767928
0.001968882
0.001863091
0.001759033
0.0016567181
0.0015563141
0.001457575
0.0013602642
0.0012644828
0.001170577
0.0010784882
0.00098801271
0.00089948057
0.00081320347
0.00072964779
0.00064962091
0.00057268973
0.00050350717
0.00043576039
0.00039684705
0.00033521702
0.00055781423
-0.00049441687
0.0074531805
0.0074940568
0.0075767663
0.0076791316
0.0078024641
0.0079448149
0.0081039072
0.0082784691
0.0084679391
0.008672243
0.0088917746
0.0091274742
0.0093809097
0.0096545793
0.0099519676
0.010278835
0.010642131
0.011057109
0.011535347
0.012133261
0.012843688
0.014002959
0.015242907
0.02115209
0.017555254
0.011387455
0.010039194
0.0095285905
0.0090208366
0.0086012964
0.0082830656
0.0080383306
0.0078190244
0.0076177315
0.0074379568
0.0072830047
0.0071459254
0.0070129002
0.006889673
0.0067799775
0.0066745389
0.0065754972
0.0064828744
0.0063944375
0.0063107383
0.0062304801
0.0061534857
0.0060801415
0.0060085977
0.0059397961
0.0058737711
0.005808928
0.0057462012
0.0056856035
0.0056260243
0.0055675932
0.0055107367
0.0054552175
0.0054002152
0.005346171
0.0052933342
0.0052412203
0.005189448
0.0051383293
0.0050881099
0.0050383352
0.0049887425
0.004939416
0.0048907248
0.0048424167
0.0047940946
0.004745695
0.00469769
0.0046500568
0.004602151
0.0045541215
0.0045059581
0.0044579737
0.0044099141
0.0043614462
0.0043125322
0.0042634893
0.0042143821
0.0041646782
0.0041144245
0.0040635076
0.004012293
0.003960655
0.0039080838
0.0038546481
0.003800431
0.0037455926
0.0036897668
0.0036327413
0.0035744314
0.0035151576
0.003454762
0.003392699
0.0033289289
0.0032636933
0.0031969102
0.0031279888
0.0030567961
0.0029834819
0.0029079511
0.0028296064
0.0027481375
0.0026637644
0.0025762106
0.0024846094
0.0023889347
0.0022890502
0.0021847123
0.0020768
0.0019688889
0.0018630975
0.0017590392
0.001656724
0.0015563197
0.0014575805
0.0013602694
0.0012644878
0.0011705818
0.0010784929
0.00098801719
0.0008994849
0.00081320765
0.00072965184
0.00064962484
0.00057269355
0.00050351091
0.00043576404
0.00039685072
0.00033522055
0.00055781852
-0.00049441422
0.0074531805
0.0074940568
0.0075767664
0.0076791318
0.0078024642
0.0079448151
0.0081039074
0.0082784694
0.0084679394
0.0086722433
0.008891775
0.0091274747
0.0093809103
0.0096545799
0.0099519683
0.010278836
0.010642132
0.01105711
0.011535348
0.012133261
0.012843688
0.014002945
0.015242923
0.021146527
0.017554851
0.011402438
0.010044606
0.0095312281
0.0090224498
0.0086024761
0.008284009
0.0080391137
0.0078196875
0.0076183027
0.0074384561
0.0072834455
0.0071463173
0.0070132516
0.0068899908
0.0067802665
0.006674803
0.0065757399
0.0064830983
0.006394645
0.006310931
0.0062306598
0.0061536537
0.006080299
0.0060087456
0.0059399353
0.0058739023
0.0058090519
0.0057463184
0.0056857145
0.0056261296
0.0055676932
0.0055108318
0.0054553081
0.0054003014
0.0053462532
0.0052934127
0.0052412953
0.0051895197
0.0051383979
0.0050881755
0.0050383981
0.0049888028
0.0049394738
0.0048907802
0.0048424699
0.0047941456
0.004745744
0.0046977371
0.0046501021
0.0046021944
0.0045541633
0.0045059983
0.0044580124
0.0044099512
0.0043614819
0.0043125666
0.0042635224
0.004214414
0.0041647089
0.004114454
0.004063536
0.0040123203
0.0039606813
0.0039081091
0.0038546724
0.0038004543
0.0037456151
0.0036897884
0.0036327621
0.0035744514
0.0035151768
0.0034547804
0.0033927166
0.0033289459
0.0032637096
0.0031969257
0.0031280037
0.0030568103
0.0029834955
0.0029079641
0.0028296188
0.0027481493
0.0026637757
0.0025762214
0.0024846197
0.0023889444
0.0022890595
0.002184721
0.0020768084
0.0019688968
0.001863105
0.0017590464
0.0016567308
0.0015563263
0.0014575867
0.0013602754
0.0012644936
0.0011705874
0.0010784982
0.00098802233
0.00089948986
0.00081321245
0.00072965649
0.00064962935
0.00057269793
0.0005035152
0.00043576822
0.00039685494
0.0003352246
0.00055782344
-0.00049441117
0.0074531806
0.0074940569
0.0075767666
0.0076791319
0.0078024644
0.0079448154
0.0081039077
0.0082784697
0.0084679398
0.0086722438
0.0088917754
0.0091274753
0.0093809109
0.0096545806
0.009951969
0.010278837
0.010642133
0.011057111
0.011535348
0.012133261
0.012843688
0.014002927
0.015242943
0.021139442
0.017553582
0.011418652
0.010051017
0.0095343765
0.0090243587
0.0086038581
0.0082851083
0.008040024
0.0078204573
0.0076189653
0.0074390348
0.0072839561
0.0071467711
0.0070136584
0.0068903586
0.0067806008
0.0066751085
0.0065760205
0.0064833572
0.0063948846
0.0063111537
0.0062308674
0.0061538477
0.0060804807
0.0060089163
0.0059400959
0.0058740537
0.0058091949
0.0057464537
0.0056858426
0.0056262511
0.0055678086
0.0055109415
0.0054554124
0.0054004009
0.0053463481
0.0052935033
0.0052413818
0.0051896023
0.005138477
0.0050882512
0.0050384705
0.0049888722
0.0049395403
0.0048908441
0.0048425312
0.0047942044
0.0047458004
0.0046977914
0.0046501542
0.0046022445
0.0045542114
0.0045060446
0.0044580569
0.0044099941
0.0043615231
0.0043126062
0.0042635605
0.0042144506
0.0041647441
0.0041144879
0.0040635686
0.0040123517
0.0039607115
0.0039081381
0.0038547003
0.0038004812
0.0037456409
0.0036898132
0.0036327859
0.0035744743
0.0035151988
0.0034548015
0.0033927369
0.0033289653
0.0032637282