/*--------------------------------*- C++ -*----------------------------------*\
  =========                 |
  \\      /  F ield         | OpenFOAM: The Open Source CFD Toolbox
   \\    /   O peration     | Website:  https://openfoam.org
    \\  /    A nd           | Version:  12
     \\/     M anipulation  |
\*---------------------------------------------------------------------------*/
FoamFile
{
    format      ascii;
    class       volVectorField;
    location    "1700";
    object      U;
}
// * * * * * * * * * * * * * * * * * * * * * * * * * * * * * * * * * * * * * //

dimensions      [0 1 -1 0 0 0 0];

internalField   nonuniform List<vector> 
13056
(
(1 4.4438538e-10 2.2990684e-24)
(0.99996659 1.4811117e-09 0)
(0.99989787 2.5078834e-09 0)
(0.99981194 3.4127743e-09 0)
(0.99971195 4.4250145e-09 0)
(0.99959917 5.5964953e-09 0)
(0.99947441 6.9730592e-09 0)
(0.99933784 8.6163965e-09 0)
(0.99918912 1.0598103e-08 0)
(0.99902755 1.3004179e-08 0)
(0.99885207 1.5942313e-08 0)
(0.99866119 1.9556731e-08 0)
(0.99845283 2.4031641e-08 0)
(0.99822429 2.9654902e-08 0)
(0.99797122 3.6744959e-08 0)
(0.99768903 4.6089266e-08 0)
(0.99736631 5.7977846e-08 0)
(0.99699872 7.5964825e-08 0)
(0.99654133 9.6834345e-08 0)
(0.99602714 1.4462715e-07 0)
(0.99519737 1.8197555e-07 0)
(0.99442023 4.7755401e-07 0)
(0.99122065 3.8413063e-07 -1.3810605e-20)
(0.99125101 0.00012022082 1.8418375e-16)
(0.03888132 0.00012393785 0)
(0.029736548 1.1550043e-07 -3.6659622e-20)
(0.027395621 4.3327105e-08 0)
(0.025852053 3.5577304e-08 0)
(0.02475129 2.7573023e-08 0)
(0.023866332 2.3061657e-08 0)
(0.023113622 1.9835562e-08 0)
(0.022465504 1.7143753e-08 0)
(0.021903619 1.4928439e-08 0)
(0.021410367 1.3145381e-08 0)
(0.020971803 1.1693777e-08 0)
(0.020578089 1.0476493e-08 0)
(0.020222443 9.441826e-09 0)
(0.019898822 8.576617e-09 0)
(0.0196016 7.8442347e-09 0)
(0.019327065 7.2055372e-09 0)
(0.019072338 6.6507717e-09 0)
(0.018834652 6.1655094e-09 0)
(0.018611921 5.7359941e-09 0)
(0.018402385 5.354571e-09 0)
(0.018204544 5.012724e-09 0)
(0.018017171 4.7055468e-09 0)
(0.017839137 4.4281055e-09 0)
(0.01766955 4.1750252e-09 0)
(0.017507633 3.9446137e-09 0)
(0.017352649 3.7328287e-09 0)
(0.017204072 3.5366931e-09 0)
(0.017061378 3.3566238e-09 0)
(0.01692402 3.190364e-09 0)
(0.016791599 3.0356243e-09 0)
(0.016663743 2.8923251e-09 0)
(0.016540055 2.7595603e-09 0)
(0.016420204 2.6353124e-09 0)
(0.016303946 2.5185322e-09 0)
(0.01619103 2.4094822e-09 0)
(0.016081183 2.3072528e-09 0)
(0.015974204 2.2105036e-09 0)
(0.015869934 2.1190078e-09 0)
(0.015768185 2.0329964e-09 0)
(0.015668762 1.9518495e-09 0)
(0.01557152 1.8746238e-09 0)
(0.015476343 1.8011686e-09 0)
(0.015383098 1.7316617e-09 0)
(0.015291636 1.665858e-09 0)
(0.015201837 1.6029975e-09 0)
(0.01511362 1.5427535e-09 0)
(0.015026896 1.4853769e-09 0)
(0.014941547 1.4309612e-09 0)
(0.014857462 1.3788637e-09 0)
(0.014774583 1.3286478e-09 0)
(0.014692847 1.2805659e-09 0)
(0.014612163 1.2346629e-09 0)
(0.014532443 1.1907735e-09 0)
(0.014453616 1.1484691e-09 0)
(0.014375635 1.1075923e-09 0)
(0.014298447 1.0683349e-09 0)
(0.014221973 1.0307926e-09 0)
(0.014146136 9.9464356e-10 0)
(0.014070893 9.5959046e-10 0)
(0.013996203 9.2573089e-10 0)
(0.01392201 8.9314315e-10 0)
(0.013848245 8.6182746e-10 0)
(0.013774845 8.3149519e-10 0)
(0.013701782 8.0197321e-10 0)
(0.013629016 7.7341473e-10 0)
(0.013556488 7.4588546e-10 0)
(0.013484135 7.1926484e-10 0)
(0.013411912 6.933575e-10 0)
(0.013339787 6.6814662e-10 0)
(0.013267714 6.4373863e-10 0)
(0.013195631 6.2016815e-10 0)
(0.013123473 5.9725111e-10 0)
(0.01305121 5.7486337e-10 0)
(0.012978801 5.5311256e-10 0)
(0.012906181 5.3205899e-10 0)
(0.012833284 5.1156624e-10 0)
(0.012760071 4.9151708e-10 0)
(0.012686498 4.7198519e-10 0)
(0.012612499 4.5303629e-10 0)
(0.012537998 4.3458569e-10 0)
(0.012462942 4.1653492e-10 0)
(0.012387277 3.9892878e-10 0)
(0.012310924 3.8182659e-10 0)
(0.012233794 3.6513901e-10 0)
(0.012155822 3.4879923e-10 0)
(0.012076936 3.3286916e-10 0)
(0.011997029 3.1736953e-10 0)
(0.011915996 3.0219493e-10 0)
(0.011833765 2.8744879e-10 0)
(0.011752025 2.7350399e-10 0)
(0.011673348 2.6054549e-10 0)
(0.011598468 2.4856254e-10 0)
(0.011527086 2.3751974e-10 0)
(0.011458916 2.2734084e-10 0)
(0.011393708 2.1790809e-10 0)
(0.01133125 2.0914048e-10 0)
(0.011271342 2.0101259e-10 0)
(0.01121379 1.934868e-10 0)
(0.01115842 1.864749e-10 0)
(0.01110509 1.7991536e-10 0)
(0.011053663 1.738029e-10 0)
(0.011004004 1.6812329e-10 0)
(0.010955986 1.6286798e-10 0)
(0.010909478 1.5797431e-10 0)
(0.010864393 1.5353197e-10 0)
(0.010820546 1.4938321e-10 0)
(0.010777951 1.4624672e-10 0)
(0.010735982 1.428761e-10 0)
(0.010695453 1.4317542e-10 0)
(0.010653286 6.8419895e-10 0)
(0.010616033 1.6618489e-10 2.3416451e-22)
(0.010555739 5.2496554e-10 0)
(1 1.3397803e-09 0)
(0.99996658 4.4670934e-09 0)
(0.99989782 7.5648353e-09 0)
(0.99981181 1.0295258e-08 0)
(0.99971172 1.3349381e-08 0)
(0.99959882 1.688371e-08 0)
(0.99947393 2.1036526e-08 0)
(0.99933721 2.5993874e-08 0)
(0.99918834 3.1971652e-08 0)
(0.99902661 3.9229179e-08 0)
(0.99885096 4.8091169e-08 0)
(0.99865992 5.8992494e-08 0)
(0.99845138 7.2488569e-08 0)
(0.99822266 8.9447322e-08 0)
(0.99796941 1.1082888e-07 0)
(0.99768704 1.3900748e-07 0)
(0.99736413 1.7485752e-07 0)
(0.99699634 2.2909453e-07 0)
(0.99653875 2.9202328e-07 0)
(0.99602436 4.3612086e-07 0)
(0.99519436 5.48726e-07 0)
(0.99441706 1.4398458e-06 0)
(0.99121717 1.1588494e-06 4.9294947e-20)
(0.99124716 0.00035352915 -7.6496325e-20)
(0.11336474 0.00035889812 0)
(0.088173638 5.576361e-06 0)
(0.081312696 1.9462744e-06 0)
(0.076816299 1.3275068e-06 0)
(0.073606898 9.9043365e-07 0)
(0.071024399 8.1027416e-07 0)
(0.068825442 6.8704496e-07 0)
(0.066929854 5.8796436e-07 0)
(0.065284727 5.0778177e-07 0)
(0.063839238 4.4396674e-07 0)
(0.062552977 3.9247579e-07 0)
(0.0613974 3.4965662e-07 0)
(0.060352836 3.1352669e-07 0)
(0.059401746 2.8338552e-07 0)
(0.058527777 2.5801403e-07 0)
(0.057720094 2.3605392e-07 0)
(0.056970327 2.1700155e-07 0)
(0.056270412 2.0042191e-07 0)
(0.055614264 1.8581318e-07 0)
(0.05499675 1.728727e-07 0)
(0.054413489 1.613261e-07 0)
(0.053860896 1.5098047e-07 0)
(0.053335674 1.4166329e-07 0)
(0.052835217 1.3320092e-07 0)
(0.052357254 1.2550905e-07 0)
(0.051899628 1.1846521e-07 0)
(0.051460799 1.1196717e-07 0)
(0.051039237 1.0600766e-07 0)
(0.050633342 1.0052301e-07 0)
(0.05024194 9.5434232e-08 0)
(0.049863944 9.0728368e-08 0)
(0.049498189 8.6378203e-08 0)
(0.049143704 8.2318446e-08 0)
(0.048799778 7.8512954e-08 0)
(0.048465667 7.4963526e-08 0)
(0.048140577 7.1644256e-08 0)
(0.047823915 6.8511528e-08 0)
(0.047515213 6.5554668e-08 0)
(0.047213922 6.2779044e-08 0)
(0.046919468 6.0165841e-08 0)
(0.046631423 5.7685331e-08 0)
(0.046349449 5.5329885e-08 0)
(0.046073152 5.3104625e-08 0)
(0.045802097 5.1001263e-08 0)
(0.045535929 4.8996881e-08 0)
(0.045274409 4.7079587e-08 0)
(0.045017277 4.5256259e-08 0)
(0.044764184 4.3529142e-08 0)
(0.044514804 4.1879238e-08 0)
(0.044268969 4.029262e-08 0)
(0.044026485 3.8774781e-08 0)
(0.043787092 3.7328501e-08 0)
(0.043550529 3.5947429e-08 0)
(0.04331658 3.4619172e-08 0)
(0.043085115 3.3337943e-08 0)
(0.042855972 3.2109169e-08 0)
(0.042628921 3.0935544e-08 0)
(0.042403731 2.9807484e-08 0)
(0.042180278 2.8715983e-08 0)
(0.041958441 2.7662792e-08 0)
(0.041738049 2.6650956e-08 0)
(0.041518904 2.5679694e-08 0)
(0.041300818 2.4740793e-08 0)
(0.041083704 2.3828742e-08 0)
(0.040867449 2.2947493e-08 0)
(0.040651874 2.2099332e-08 0)
(0.040436794 2.1280373e-08 0)
(0.040222076 2.0484937e-08 0)
(0.040007623 1.9712064e-08 0)
(0.039793302 1.8964939e-08 0)
(0.039578922 1.8244374e-08 0)
(0.039364298 1.7545086e-08 0)
(0.039149333 1.6863236e-08 0)
(0.03893391 1.6201711e-08 0)
(0.038717835 1.556232e-08 0)
(0.038500911 1.4941078e-08 0)
(0.038283017 1.433449e-08 0)
(0.038064031 1.3744452e-08 0)
(0.037843747 1.3172899e-08 0)
(0.037621946 1.261737e-08 0)
(0.037398463 1.2074951e-08 0)
(0.037173143 1.1546787e-08 0)
(0.036945744 1.1034544e-08 0)
(0.036716002 1.0535683e-08 0)
(0.036483729 1.0048208e-08 0)
(0.036248699 9.5737495e-09 0)
(0.036010601 9.1129726e-09 0)
(0.035769116 8.6627545e-09 0)
(0.035524032 8.2259945e-09 0)
(0.035280376 7.8135647e-09 0)
(0.035045825 7.4312126e-09 0)
(0.034822566 7.078519e-09 0)
(0.034609713 6.7540606e-09 0)
(0.034406416 6.4555001e-09 0)
(0.034211934 6.1793119e-09 0)
(0.034025633 5.9230125e-09 0)
(0.033846924 5.6857345e-09 0)
(0.033675227 5.4663014e-09 0)
(0.033510025 5.2621367e-09 0)
(0.033350895 5.0713969e-09 0)
(0.033197435 4.8938249e-09 0)
(0.033049238 4.728977e-09 0)
(0.032905927 4.5765471e-09 0)
(0.032767115 4.4346888e-09 0)
(0.032632539 4.3059871e-09 0)
(0.03250165 4.1855188e-09 0)
(0.032374494 4.0945563e-09 0)
(0.032249198 3.9949447e-09 0)
(0.032128191 4.0037464e-09 0)
(0.032002303 3.864234e-09 0)
(0.031891063 4.7126815e-09 -3.54536e-22)
(0.031711009 2.9505596e-09 2.708462e-23)
(1 2.2555703e-09 0)
(0.99996656 7.5216791e-09 0)
(0.99989775 1.2739329e-08 0)
(0.99981165 1.7338998e-08 0)
(0.99971143 2.2483619e-08 0)
(0.99959838 2.8436711e-08 0)
(0.99947333 3.5431143e-08 0)
(0.99933643 4.3780152e-08 0)
(0.99918736 5.3847208e-08 0)
(0.99902543 6.6068864e-08 0)
(0.99884957 8.0991739e-08 0)
(0.99865831 9.9347885e-08 0)
(0.99844955 1.2207225e-07 0)
(0.99822061 1.5062583e-07 0)
(0.99796713 1.866248e-07 0)
(0.99768452 2.3406567e-07 0)
(0.99736138 2.9442029e-07 0)
(0.99699335 3.857254e-07 0)
(0.9965355 4.9166241e-07 0)
(0.99602087 7.3422013e-07 0)
(0.99519057 9.2377922e-07 0)
(0.99441309 2.4236521e-06 0)
(0.99121284 1.9520218e-06 -2.6072131e-20)
(0.99124242 0.00057070587 8.0577206e-54)
(0.18084853 0.00058338533 -9.535493e-54)
(0.14100217 1.6316051e-05 0)
(0.13020401 5.6862703e-06 0)
(0.1233005 3.8246301e-06 0)
(0.11838209 2.8496919e-06 0)
(0.11442296 2.3312517e-06 0)
(0.11104723 1.9778361e-06 0)
(0.10813193 1.6939818e-06 0)
(0.10559718 1.4641444e-06 0)
(0.10336617 1.2811018e-06 0)
(0.10137769 1.1333113e-06 0)
(0.099588546 1.0103136e-06 0)
(0.097969037 9.064432e-07 0)
(0.096492578 8.1972536e-07 0)
(0.095134209 7.4669616e-07 0)
(0.093877455 6.8345408e-07 0)
(0.092709596 6.2854824e-07 0)
(0.091618305 5.8074941e-07 0)
(0.090594293 5.3861443e-07 0)
(0.089629715 5.0127314e-07 0)
(0.088717868 4.6794169e-07 0)
(0.087853268 4.3806526e-07 0)
(0.087030854 4.1114885e-07 0)
(0.086246636 3.8669404e-07 0)
(0.085497133 3.6445745e-07 0)
(0.084779024 3.4408838e-07 0)
(0.084089954 3.2529171e-07 0)
(0.083427574 3.0804661e-07 0)
(0.082789415 2.9217181e-07 0)
(0.082173674 2.774386e-07 0)
(0.08157868 2.6380983e-07 0)
(0.081002629 2.5120852e-07 0)
(0.080444024 2.3944575e-07 0)
(0.079901767 2.2841687e-07 0)
(0.079374714 2.1812744e-07 0)
(0.07886163 2.085035e-07 0)
(0.078361602 1.9941845e-07 0)
(0.077873906 1.9084129e-07 0)
(0.077397695 1.8278819e-07 0)
(0.076932075 1.7520506e-07 0)
(0.076476382 1.6800559e-07 0)
(0.076030095 1.6116754e-07 0)
(0.075592604 1.5470627e-07 0)
(0.075163228 1.4859799e-07 0)
(0.074741415 1.4277622e-07 0)
(0.074326796 1.3720623e-07 0)
(0.073918968 1.3190828e-07 0)
(0.073517384 1.2688916e-07 0)
(0.073121535 1.2209378e-07 0)
(0.072731158 1.1748154e-07 0)
(0.072345955 1.1306833e-07 0)
(0.071965516 1.0886272e-07 0)
(0.071589432 1.0484615e-07 0)
(0.071217364 1.0098267e-07 0)
(0.07084911 9.7255317e-08 0)
(0.070484417 9.3680029e-08 0)
(0.070122921 9.0264797e-08 0)
(0.069764257 8.6981763e-08 0)
(0.069408233 8.3804684e-08 0)
(0.069054656 8.073859e-08 0)
(0.068703258 7.7792572e-08 0)
(0.068353724 7.4964339e-08 0)
(0.068005758 7.2230026e-08 0)
(0.067659221 6.9573524e-08 0)
(0.067313934 6.7006357e-08 0)
(0.066969612 6.4535329e-08 0)
(0.066625962 6.2149098e-08 0)
(0.06628277 5.9831133e-08 0)
(0.065939884 5.7578591e-08 0)
(0.065597088 5.5400842e-08 0)
(0.065254079 5.3300279e-08 0)
(0.064910561 5.1261522e-08 0)
(0.064566375 4.9273347e-08 0)
(0.064221337 4.7344188e-08 0)
(0.063875132 4.5479383e-08 0)
(0.063527444 4.3667315e-08 0)
(0.063178078 4.1897779e-08 0)
(0.062826835 4.0176306e-08 0)
(0.062473385 3.850858e-08 0)
(0.062117371 3.6887438e-08 0)
(0.061758526 3.5304373e-08 0)
(0.061396599 3.3762719e-08 0)
(0.061031198 3.2267375e-08 0)
(0.060661894 3.0810937e-08 0)
(0.060288379 2.9387578e-08 0)
(0.059910285 2.8002057e-08 0)
(0.059527109 2.665635e-08 0)
(0.059138327 2.5341323e-08 0)
(0.058743594 2.4065429e-08 0)
(0.058351005 2.2860469e-08 0)
(0.057972937 2.1743312e-08 0)
(0.057612934 2.0712729e-08 0)
(0.057269587 1.9764546e-08 0)
(0.056941543 1.8891969e-08 0)
(0.056627619 1.8084706e-08 0)
(0.056326807 1.733551e-08 0)
(0.056038166 1.6641861e-08 0)
(0.055760771 1.6000334e-08 0)
(0.055493794 1.5403408e-08 0)
(0.055236564 1.4845697e-08 0)
(0.054988433 1.4326454e-08 0)
(0.054748753 1.3844395e-08 0)
(0.054516919 1.3398632e-08 0)
(0.054292311 1.2983764e-08 0)
(0.054074507 1.2607389e-08 0)
(0.053862626 1.2255025e-08 0)
(0.053656742 1.1989161e-08 0)
(0.053453825 1.1697576e-08 0)
(0.053257818 1.1724308e-08 0)
(0.05305385 1.1243404e-08 0)
(0.052873587 1.3812487e-08 0)
(0.052581754 8.5684789e-09 0)
(1 3.2053335e-09 4.7218556e-24)
(0.99996655 1.0690585e-08 0)
(0.99989767 1.8109388e-08 0)
(0.99981146 2.4650763e-08 0)
(0.99971108 3.1966581e-08 0)
(0.99959785 4.0431359e-08 0)
(0.99947259 5.0376127e-08 0)
(0.99933547 6.2246063e-08 0)
(0.99918617 7.6557684e-08 0)
(0.99902399 9.3931325e-08 0)
(0.99884787 1.1514371e-07 0)
(0.99865635 1.4123502e-07 0)
(0.99844732 1.735337e-07 0)
(0.9982181 2.1411568e-07 0)
(0.99796434 2.6527724e-07 0)
(0.99768145 3.3269692e-07 0)
(0.99735802 4.1846567e-07 0)
(0.99698969 5.4821123e-07 0)
(0.99653154 6.9874578e-07 0)
(0.99601661 1.0433943e-06 0)
(0.99518595 1.3127652e-06 0)
(0.99440823 3.4436634e-06 0)
(0.9912076 2.7746869e-06 0)
(0.99123672 0.00077851812 -4.1940241e-54)
(0.23882747 0.00080450142 4.2360671e-54)
(0.18495002 3.2309971e-05 0)
(0.17081565 1.1120181e-05 0)
(0.1621137 7.3807639e-06 0)
(0.15595689 5.4916982e-06 0)
(0.15101305 4.4935961e-06 0)
(0.14679967 3.8158774e-06 0)
(0.1431588 3.2721076e-06 0)
(0.13999024 2.8315255e-06 0)
(0.13719849 2.4803668e-06 0)
(0.13470755 2.1965975e-06 0)
(0.13246392 1.9601677e-06 0)
(0.13043102 1.7602661e-06 0)
(0.12857597 1.5932345e-06 0)
(0.12686769 1.4524781e-06 0)
(0.1252858 1.3304774e-06 0)
(0.12381458 1.2244693e-06 0)
(0.1224387 1.1321274e-06 0)
(0.12114663 1.0506712e-06 0)
(0.11992864 9.7843386e-07 0)
(0.11877639 9.1391467e-07 0)
(0.11768306 8.5604919e-07 0)
(0.11664237 8.038871e-07 0)
(0.11564935 7.5646804e-07 0)
(0.11469967 7.1332755e-07 0)
(0.11378919 6.7378987e-07 0)
(0.11291498 6.3728267e-07 0)
(0.11207414 6.0377235e-07 0)
(0.11126355 5.7291099e-07 0)
(0.110481 5.4425332e-07 0)
(0.10972439 5.1773176e-07 0)
(0.10899147 4.9320094e-07 0)
(0.10828036 4.7029211e-07 0)
(0.1075897 4.4880207e-07 0)
(0.10691806 4.2874528e-07 0)
(0.10626389 4.0997925e-07 0)
(0.10562604 3.9225583e-07 0)
(0.10500361 3.755157e-07 0)
(0.10439556 3.5979319e-07 0)
(0.10380073 3.4498335e-07 0)
(0.10321832 3.3091678e-07 0)
(0.10264766 3.1755066e-07 0)
(0.10208799 3.0491711e-07 0)
(0.10153846 2.9297027e-07 0)
(0.10099836 2.8157948e-07 0)
(0.10046724 2.7067664e-07 0)
(0.099944584 2.6030295e-07 0)
(0.099429708 2.5047286e-07 0)
(0.098921963 2.4107777e-07 0)
(0.098421023 2.320377e-07 0)
(0.097926514 2.2338479e-07 0)
(0.097437915 2.1513687e-07 0)
(0.096954703 2.0725749e-07 0)
(0.096476451 1.9967576e-07 0)
(0.096002904 1.9235835e-07 0)
(0.095533744 1.8533741e-07 0)
(0.095068503 1.7862924e-07 0)
(0.094606717 1.7217879e-07 0)
(0.094148139 1.6593421e-07 0)
(0.093692529 1.5990576e-07 0)
(0.093239541 1.5411194e-07 0)
(0.092788771 1.4854837e-07 0)
(0.092339837 1.4316785e-07 0)
(0.091892563 1.379385e-07 0)
(0.091446721 1.328835e-07 0)
(0.091001942 1.2801664e-07 0)
(0.090557846 1.2331545e-07 0)
(0.090114158 1.1874722e-07 0)
(0.08967068 1.143064e-07 0)
(0.089227136 1.1001186e-07 0)
(0.088783127 1.0586849e-07 0)
(0.08833827 1.0184577e-07 0)
(0.08789236 9.7921443e-08 0)
(0.087445155 9.4112474e-08 0)
(0.086996242 9.0429615e-08 0)
(0.086545209 8.6849787e-08 0)
(0.0860918 8.3352746e-08 0)
(0.085635752 7.9949598e-08 0)
(0.085176631 7.6651774e-08 0)
(0.084713968 7.3445061e-08 0)
(0.084247412 7.0312556e-08 0)
(0.083776629 6.7260986e-08 0)
(0.083301101 6.4300196e-08 0)
(0.082820261 6.1415468e-08 0)
(0.0823337 5.8595229e-08 0)
(0.08184093 5.5849034e-08 0)
(0.081341283 5.3180903e-08 0)
(0.080834062 5.057261e-08 0)
(0.080318806 4.8040979e-08 0)
(0.079806076 4.5649369e-08 0)
(0.079312052 4.3431341e-08 0)
(0.078841394 4.1384455e-08 0)
(0.078392293 3.9500586e-08 0)
(0.077963009 3.7766368e-08 0)
(0.077552019 3.6161475e-08 0)
(0.077158026 3.4671566e-08 0)
(0.076779817 3.3291768e-08 0)
(0.076416199 3.201536e-08 0)
(0.076066103 3.0827402e-08 0)
(0.075728661 2.9717217e-08 0)
(0.075403039 2.8683402e-08 0)
(0.075088397 2.7723469e-08 0)
(0.074783952 2.683572e-08 0)
(0.074488898 2.6009383e-08 0)
(0.07420269 2.5259809e-08 0)
(0.073924174 2.4557884e-08 0)
(0.073653462 2.4029392e-08 0)
(0.073386552 2.3448363e-08 0)
(0.073128679 2.3507247e-08 0)
(0.072860168 2.2581641e-08 0)
(0.072622861 2.7712629e-08 0)
(0.072238579 1.7195912e-08 0)
(1 4.2033417e-09 0)
(0.99996653 1.402181e-08 0)
(0.99989757 2.3756863e-08 0)
(0.99981122 3.2342491e-08 0)
(0.99971067 4.1943751e-08 0)
(0.99959722 5.3051811e-08 0)
(0.99947171 6.6100934e-08 0)
(0.99933432 8.1674973e-08 0)
(0.99918474 1.0045126e-07 0)
(0.99902226 1.2324324e-07 0)
(0.99884583 1.5106936e-07 0)
(0.99865399 1.8529351e-07 0)
(0.99844464 2.2765749e-07 0)
(0.99821509 2.8088317e-07 0)
(0.997961 3.4798118e-07 0)
(0.99767777 4.3639701e-07 0)
(0.99735399 5.4887147e-07 0)
(0.99698531 7.1900667e-07 0)
(0.9965268 9.1639636e-07 0)
(0.9960115 1.3682938e-06 0)
(0.99518042 1.7214771e-06 0)
(0.99440242 4.515163e-06 0)
(0.99120136 3.6392439e-06 0)
(0.99123 0.00098181121 0)
(0.28892623 0.0010249365 0)
(0.22154467 5.3647052e-05 0)
(0.20437064 1.8067449e-05 0)
(0.19419417 1.1804615e-05 0)
(0.18706488 8.7569537e-06 0)
(0.18136546 7.1595593e-06 0)
(0.17651787 6.0806626e-06 0)
(0.17233177 5.2171672e-06 0)
(0.16868927 4.5178359e-06 0)
(0.16547966 3.9604299e-06 0)
(0.16261523 3.5098869e-06 0)
(0.1600344 3.1342756e-06 0)
(0.15769533 2.8164549e-06 0)
(0.1555603 2.5507854e-06 0)
(0.1535935 2.326839e-06 0)
(0.15177161 2.1326116e-06 0)
(0.15007666 1.9637569e-06 0)
(0.14849101 1.816621e-06 0)
(0.14700145 1.6867688e-06 0)
(0.14559684 1.5715619e-06 0)
(0.1442676 1.4686224e-06 0)
(0.14300594 1.3762624e-06 0)
(0.14180461 1.2929733e-06 0)
(0.14065796 1.2172251e-06 0)
(0.13956101 1.1482883e-06 0)
(0.13850899 1.0850855e-06 0)
(0.13749857 1.0266996e-06 0)
(0.13652641 9.7308829e-07 0)
(0.13558895 9.2369857e-07 0)
(0.13468363 8.7781452e-07 0)
(0.13380808 8.3533638e-07 0)
(0.13295968 7.9603748e-07 0)
(0.13213629 7.5932343e-07 0)
(0.13133635 7.2486899e-07 0)
(0.13055822 6.9270395e-07 0)
(0.12980011 6.6260141e-07 0)
(0.1290607 6.3415986e-07 0)
(0.12833898 6.0728612e-07 0)
(0.12763372 5.8204017e-07 0)
(0.12694362 5.5825364e-07 0)
(0.12626773 5.3565222e-07 0)
(0.12560531 5.1416839e-07 0)
(0.12495547 4.9385738e-07 0)
(0.12431723 4.7464626e-07 0)
(0.12368977 4.56323e-07 0)
(0.12307258 4.387778e-07 0)
(0.12246507 4.220799e-07 0)
(0.12186644 4.0625439e-07 0)
(0.12127595 3.9112456e-07 0)
(0.12069322 3.7656063e-07 0)
(0.12011782 3.6261647e-07 0)
(0.11954915 3.4932248e-07 0)
(0.1189866 3.3661958e-07 0)
(0.11842968 3.243925e-07 0)
(0.11787809 3.1258742e-07 0)
(0.11733147 3.012579e-07 0)
(0.11678928 2.9043122e-07 0)
(0.11625097 2.800176e-07 0)
(0.11571626 2.6993271e-07 0)
(0.11518487 2.6019398e-07 0)
(0.1146564 2.5083234e-07 0)
(0.11413037 2.418409e-07 0)
(0.11360635 2.3314262e-07 0)
(0.11308412 2.2468567e-07 0)
(0.11256343 2.1650854e-07 0)
(0.11204384 2.0863418e-07 0)
(0.1115249 2.010259e-07 0)
(0.11100629 1.9363032e-07 0)
(0.11048779 1.8643867e-07 0)
(0.10996906 1.7948223e-07 0)
(0.10944964 1.727692e-07 0)
(0.10892907 1.6624963e-07 0)
(0.10840713 1.5988724e-07 0)
(0.10788351 1.5371021e-07 0)
(0.10735774 1.4773632e-07 0)
(0.10682932 1.4192777e-07 0)
(0.10629795 1.3625153e-07 0)
(0.10576333 1.3072601e-07 0)
(0.10522493 1.2537011e-07 0)
(0.10468221 1.2016056e-07 0)
(0.10413473 1.1506975e-07 0)
(0.10358212 1.1010886e-07 0)
(0.10302374 1.0529419e-07 0)
(0.10245893 1.0060161e-07 0)
(0.10188719 9.6012211e-08 0)
(0.10130795 9.1541823e-08 0)
(0.10072041 8.7197142e-08 0)
(0.10012372 8.2948225e-08 0)
(0.099517356 7.8822578e-08 0)
(0.098913721 7.492397e-08 0)
(0.098331877 7.1307191e-08 0)
(0.097777339 6.7968186e-08 0)
(0.097248004 6.4893974e-08 0)
(0.096741846 6.2063072e-08 0)
(0.09625709 5.9442404e-08 0)
(0.095792228 5.7008701e-08 0)
(0.095345847 5.4754256e-08 0)
(0.094916551 5.2668253e-08 0)
(0.094503094 5.0726286e-08 0)
(0.094104465 4.8910978e-08 0)
(0.09371969 4.7220208e-08 0)
(0.093347785 4.5650021e-08 0)
(0.092987836 4.4197772e-08 0)
(0.092638895 4.2845795e-08 0)
(0.09230033 4.1619655e-08 0)
(0.091970773 4.0471167e-08 0)
(0.091650376 3.9608852e-08 0)
(0.091334363 3.8658008e-08 0)
(0.091029021 3.8766068e-08 0)
(0.090710843 3.7256447e-08 0)
(0.090429704 4.57246e-08 -3.1961574e-22)
(0.08997437 2.8360527e-08 2.4460527e-23)
(1 5.2646157e-09 0)
(0.99996651 1.756593e-08 0)
(0.99989746 2.976823e-08 0)
(0.99981095 4.0532671e-08 0)
(0.99971017 5.2569282e-08 0)
(0.99959647 6.6493289e-08 0)
(0.99947067 8.2848832e-08 0)
(0.99933296 1.0236728e-07 0)
(0.99918304 1.2589697e-07 0)
(0.99902021 1.5445666e-07 0)
(0.99884342 1.8932179e-07 0)
(0.99865121 2.3220036e-07 0)
(0.99844147 2.8527355e-07 0)
(0.99821154 3.5194987e-07 0)
(0.99795705 4.359992e-07 0)
(0.99767342 5.4674525e-07 0)
(0.99734923 6.8761915e-07 0)
(0.99698014 9.0069977e-07 0)
(0.99652118 1.1479053e-06 0)
(0.99600546 1.7138133e-06 0)
(0.99517387 2.1560805e-06 0)
(0.99439555 5.654127e-06 0)
(0.99119401 4.5588592e-06 0)
(0.9912222 0.0011839733 0)
(0.33361694 0.0012484338 0)
(0.25327832 8.1175121e-05 0)
(0.23316897 2.6708256e-05 0)
(0.22165696 1.715507e-05 0)
(0.21367967 1.267207e-05 0)
(0.20733506 1.0343187e-05 0)
(0.20195285 8.7799274e-06 0)
(0.19731071 7.53325e-06 0)
(0.19327397 6.5248602e-06 0)
(0.18971831 5.7215627e-06 0)
(0.18654566 5.0724353e-06 0)
(0.18368739 4.5311839e-06 0)
(0.18109706 4.0730466e-06 0)
(0.17873284 3.6900646e-06 0)
(0.17655486 3.3672283e-06 0)
(0.17453729 3.0871383e-06 0)
(0.17266027 2.8435823e-06 0)
(0.17090417 2.6313357e-06 0)
(0.16925439 2.4439771e-06 0)
(0.16769857 2.2777148e-06 -3.9914635e-33)
(0.16622612 2.129128e-06 0)
(0.16482841 1.9957877e-06 0)
(0.1634974 1.8755199e-06 0)
(0.16222685 1.7661146e-06 0)
(0.16101125 1.6665331e-06 0)
(0.15984529 1.5752185e-06 0)
(0.15872532 1.4908376e-06 0)
(0.15764764 1.4133444e-06 0)
(0.15660829 1.3419405e-06 0)
(0.15560445 1.2755837e-06 0)
(0.15463352 1.2141411e-06 0)
(0.15369259 1.1572918e-06 0)
(0.15277928 1.1041692e-06 0)
(0.15189188 1.0543021e-06 0)
(0.15102858 1.0077427e-06 0)
(0.15018737 9.6416372e-07 0)
(0.14936682 9.2297765e-07 0)
(0.14856581 8.8405211e-07 0)
(0.14778297 8.4748049e-07 0)
(0.14701686 8.130182e-07 0)
(0.14626643 7.8026383e-07 0)
(0.14553087 7.4912122e-07 0)
(0.1448092 7.1967536e-07 0)
(0.1441003 6.9182109e-07 0)
(0.14340331 6.6524768e-07 0)
(0.14271763 6.3979526e-07 0)
(0.14204263 6.1556851e-07 0)
(0.14137742 5.9260614e-07 0)
(0.14072115 5.7064846e-07 0)
(0.14007344 5.4950553e-07 0)
(0.13943379 5.2925874e-07 0)
(0.13880155 5.0995431e-07 0)
(0.13817603 4.9150565e-07 0)
(0.13755669 4.7374371e-07 0)
(0.13694321 4.5659015e-07 0)
(0.13633517 4.4012525e-07 0)
(0.13573198 4.2438988e-07 0)
(0.13513303 4.0925189e-07 0)
(0.134538 3.9458769e-07 0)
(0.1339466 3.8042397e-07 0)
(0.13335836 3.668071e-07 0)
(0.13277277 3.5372718e-07 0)
(0.13218933 3.4107085e-07 0)
(0.13160781 3.2876221e-07 0)
(0.13102791 3.1685888e-07 0)
(0.13044916 3.05395e-07 0)
(0.12987106 2.9431652e-07 0)
(0.12929324 2.8354505e-07 0)
(0.12871545 2.7306809e-07 0)
(0.12813734 2.6293224e-07 0)
(0.12755836 2.5314977e-07 0)
(0.12697802 2.43647e-07 0)
(0.12639604 2.3437079e-07 0)
(0.12581212 2.2536322e-07 0)
(0.1252257 2.1665066e-07 0)
(0.12463623 2.0817732e-07 0)
(0.12404337 1.9989475e-07 0)
(0.12344679 1.918304e-07 0)
(0.12284588 1.8401224e-07 0)
(0.12224004 1.7640601e-07 0)
(0.12162879 1.6897112e-07 0)
(0.12101168 1.6172431e-07 0)
(0.12038803 1.5468972e-07 0)
(0.11975706 1.4783177e-07 0)
(0.11911824 1.4112271e-07 0)
(0.1184709 1.3458608e-07 0)
(0.11781413 1.2823184e-07 0)
(0.11714702 1.2201579e-07 0)
(0.11646892 1.1597822e-07 0)
(0.11579373 1.1027174e-07 0)
(0.11514276 1.0497668e-07 0)
(0.11452221 1.0008683e-07 0)
(0.11392973 9.5583476e-08 0)
(0.11336308 9.1435573e-08 0)
(0.11282028 8.7594711e-08 0)
(0.11229965 8.4026958e-08 0)
(0.11179962 8.0721339e-08 0)
(0.11131865 7.7662178e-08 0)
(0.11085533 7.4813651e-08 0)
(0.11040856 7.215036e-08 0)
(0.10997724 6.9669428e-08 0)
(0.10956027 6.7365182e-08 0)
(0.10915665 6.5233906e-08 0)
(0.1087653 6.3249579e-08 0)
(0.10838553 6.1450384e-08 0)
(0.1080158 5.9764736e-08 0)
(0.10765629 5.8502733e-08 0)
(0.1073016 5.7106859e-08 0)
(0.1069589 5.7282458e-08 0)
(0.10660152 5.5058495e-08 0)
(0.10628587 6.7586829e-08 0)
(0.10577462 4.19004e-08 -1.1708335e-23)
(1 6.4051507e-09 0)
(0.99996649 2.1376912e-08 0)
(0.99989733 3.6235991e-08 0)
(0.99981063 4.9348281e-08 0)
(0.9997096 6.4008529e-08 0)
(0.99959559 8.0965286e-08 0)
(0.99946945 1.008809e-07 0)
(0.99933138 1.2464533e-07 0)
(0.99918106 1.532907e-07 0)
(0.99901782 1.8805635e-07 0)
(0.9988406 2.3049384e-07 0)
(0.99864795 2.8268085e-07 0)
(0.99843776 3.4727054e-07 0)
(0.99820737 4.2840898e-07 0)
(0.99795242 5.3068154e-07 0)
(0.99766832 6.6542953e-07 0)
(0.99734365 8.3682502e-07 0)
(0.99697407 1.0960527e-06 0)
(0.99651462 1.396783e-06 0)
(0.9959984 2.0851691e-06 0)
(0.99516622 2.6230946e-06 0)
(0.99438751 6.877592e-06 0)
(0.99118546 5.5475377e-06 0)
(0.99121322 0.0013875054 0)
(0.3747364 0.0014793534 0)
(0.28192499 0.00011515953 0)
(0.25888529 3.7322803e-05 0)
(0.24609076 2.3562403e-05 0)
(0.23732548 1.7318171e-05 0)
(0.23039173 1.4104975e-05 0)
(0.22452652 1.1962404e-05 0)
(0.21947497 1.026084e-05 0)
(0.21508586 8.8868404e-06 0)
(0.21122197 7.7932191e-06 0)
(0.20777558 6.909941e-06 0)
(0.20467147 6.1735261e-06 0)
(0.20185901 5.5501138e-06 0)
(0.19929255 5.0290329e-06 0)
(0.19692857 4.5898542e-06 0)
(0.19473891 4.2087595e-06 0)
(0.192702 3.8773501e-06 0)
(0.19079644 3.5885589e-06 0)
(0.18900633 3.3336055e-06 0)
(0.18731824 3.1073416e-06 3.5970046e-33)
(0.18572065 2.905118e-06 0)
(0.18420418 2.7236327e-06 0)
(0.1827601 2.5599272e-06 0)
(0.1813816 2.4109878e-06 0)
(0.18006271 2.2754183e-06 0)
(0.17879766 2.1510949e-06 0)
(0.17758248 2.0361892e-06 0)
(0.17641316 1.9306558e-06 0)
(0.17528538 1.8334063e-06 0)
(0.17419612 1.7430102e-06 0)
(0.17314253 1.6593e-06 0)
(0.17212146 1.5818474e-06 0)
(0.17113032 1.5094609e-06 0)
(0.17016727 1.4414972e-06 0)
(0.16923033 1.378039e-06 0)
(0.16831734 1.3186405e-06 0)
(0.16742672 1.2624923e-06 0)
(0.16655727 1.2094166e-06 0)
(0.16570752 1.1595489e-06 0)
(0.16487588 1.1125545e-06 0)
(0.16406121 1.0678798e-06 0)
(0.16326266 1.0253959e-06 0)
(0.16247914 9.8522488e-07 0)
(0.16170946 9.4722378e-07 0)
(0.16095265 9.109638e-07 0)
(0.1602081 8.7622578e-07 0)
(0.15947511 8.4315806e-07 0)
(0.1587527 8.1181638e-07 0)
(0.15803997 7.8184147e-07 0)
(0.15733649 7.5297177e-07 0)
(0.15664174 7.2532269e-07 0)
(0.15595499 6.9895986e-07 0)
(0.1552755 6.7376383e-07 0)
(0.15460268 6.4950127e-07 0)
(0.15393619 6.2606494e-07 0)
(0.15327558 6.0356771e-07 0)
(0.1526202 5.8206694e-07 0)
(0.15196937 5.6137961e-07 0)
(0.15132278 5.4133544e-07 0)
(0.15068008 5.2197273e-07 0)
(0.15004079 5.0335657e-07 0)
(0.14940433 4.8547353e-07 0)
(0.14877016 4.6816673e-07 0)
(0.14813804 4.5133174e-07 0)
(0.14750765 4.350495e-07 0)
(0.14687846 4.1936761e-07 0)
(0.14624993 4.0421114e-07 0)
(0.14562166 3.8947192e-07 0)
(0.14499339 3.7513319e-07 0)
(0.1443647 3.612601e-07 0)
(0.14373504 3.4786977e-07 0)
(0.14310385 3.3486007e-07 0)
(0.14247083 3.2215787e-07 0)
(0.14183564 3.0982221e-07 0)
(0.14119769 2.9788967e-07 0)
(0.14055636 2.8628288e-07 0)
(0.1399113 2.7493513e-07 0)
(0.13926213 2.6388482e-07 0)
(0.1386082 2.5317074e-07 0)
(0.13794883 2.4274544e-07 0)
(0.13728352 2.3255295e-07 0)
(0.13661177 2.2261677e-07 0)
(0.13593283 2.1297038e-07 0)
(0.13524585 2.0356449e-07 0)
(0.13455025 1.9436092e-07 0)
(0.1338453 1.8539248e-07 0)
(0.13313001 1.7667303e-07 0)
(0.13240336 1.681413e-07 0)
(0.13166466 1.5985264e-07 0)
(0.13092905 1.5201752e-07 0)
(0.13021974 1.4474637e-07 0)
(0.12954348 1.3803025e-07 0)
(0.12889775 1.318437e-07 0)
(0.12828009 1.2614451e-07 0)
(0.12768836 1.208662e-07 0)
(0.12712074 1.1596231e-07 0)
(0.12657553 1.1141811e-07 0)
(0.12605104 1.0721223e-07 0)
(0.12554575 1.0329534e-07 0)
(0.12505845 9.9632595e-08 0)
(0.12458797 9.6220336e-08 0)
(0.1241331 9.3050879e-08 0)
(0.12369274 9.0119302e-08 0)
(0.12326574 8.7389656e-08 0)
(0.12285133 8.4915325e-08 0)
(0.12244782 8.2596635e-08 0)
(0.12205545 8.0865482e-08 0)
(0.12166825 7.8944802e-08 0)
(0.12129417 7.9207958e-08 0)
(0.12090378 7.6140391e-08 -2.9067006e-23)
(0.12055913 9.3472666e-08 0)
(0.12000096 5.7928169e-08 0)
(1 7.6421715e-09 0)
(0.99996646 2.5513024e-08 0)
(0.99989718 4.32603e-08 0)
(0.99981026 5.8927077e-08 0)
(0.99970894 7.6441058e-08 0)
(0.99959457 9.6695396e-08 0)
(0.99946804 1.2048081e-07 0)
(0.99932953 1.4885932e-07 0)
(0.99917876 1.8306239e-07 0)
(0.99901504 2.2456857e-07 0)
(0.99883732 2.7522876e-07 0)
(0.99864416 3.3752144e-07 0)
(0.99843345 4.146114e-07 0)
(0.99820253 5.1144429e-07 0)
(0.99794704 6.3348931e-07 0)
(0.9976624 7.9427491e-07 0)
(0.99733717 9.9877572e-07 0)
(0.99696704 1.3080472e-06 0)
(0.99650699 1.6668166e-06 0)
(0.9959902 2.4879822e-06 0)
(0.99515734 3.1296085e-06 0)
(0.99437818 8.2037917e-06 0)
(0.99117559 6.6203951e-06 0)
(0.99120297 0.001594329 -1.0931834e-53)
(0.41351249 0.001720355 6.9058294e-54)
(0.30862966 0.00015762356 -6.9918795e-20)
(0.28259855 5.0272551e-05 0)
(0.26852696 3.1200329e-05 0)
(0.25900064 2.2804906e-05 0)
(0.25150679 1.8527823e-05 0)
(0.24518668 1.5695634e-05 0)
(0.23975162 1.3456593e-05 0)
(0.23503364 1.1652125e-05 0)
(0.23088289 1.021733e-05 0)
(0.22718233 9.0592709e-06 0)
(0.22385041 8.0940161e-06 0)
(0.22083242 7.2768849e-06 0)
(0.21807916 6.59403e-06 0)
(0.21554359 6.0186469e-06 0)
(0.21319538 5.5193273e-06 0)
(0.21101134 5.0851146e-06 0)
(0.20896838 4.7067891e-06 0)
(0.20704939 4.3727856e-06 0)
(0.20523994 4.0763658e-06 0)