/*--------------------------------*- C++ -*----------------------------------*\
  =========                 |
  \\      /  F ield         | OpenFOAM: The Open Source CFD Toolbox
   \\    /   O peration     | Website:  https://openfoam.org
    \\  /    A nd           | Version:  12
     \\/     M anipulation  |
\*---------------------------------------------------------------------------*/
FoamFile
{
    format      ascii;
    class       volVectorField;
    location    "1700";
    object      U;
}
// * * * * * * * * * * * * * * * * * * * * * * * * * * * * * * * * * * * * * //

dimensions      [0 1 -1 0 0 0 0];

internalField   nonuniform List<vector> 
7480
(
(0.98710604 0.0006729851 8.5988734e-17)
(0.97585414 0.0015346337 0)
(0.96341175 0.0021548814 0)
(0.95022626 0.0025534966 0)
(0.93669859 0.0028204792 0)
(0.92310274 0.0029849289 0)
(0.90953923 0.0030644896 0)
(0.89605206 0.0030661232 0)
(0.88268203 0.0030264775 0)
(0.86946357 0.0029388746 0)
(0.85642445 0.0028179174 0)
(0.84358694 0.0026733217 0)
(0.83097565 0.0025113322 0)
(0.81861797 0.0023362428 0)
(0.80654652 0.0021512259 0)
(0.7948047 0.0019578438 0)
(0.7834562 0.0017563869 0)
(0.77259415 0.001551172 0)
(0.76229711 0.0013479979 0)
(0.75263322 0.0011493332 0)
(0.74366266 0.00095580802 0)
(0.73543573 0.00077028206 0)
(0.72798835 0.00059675002 0)
(0.7213448 0.00043961572 0)
(0.71550328 0.00030286535 0)
(0.71042131 0.00019265398 0)
(0.70601971 0.00011385547 0)
(0.70219239 6.6874374e-05 0)
(0.69881215 4.7647321e-05 0)
(0.69574829 4.9348188e-05 0)
(0.69288811 6.3347138e-05 0)
(0.69014971 8.1195111e-05 0)
(0.68748186 9.6882975e-05 0)
(0.68485701 0.00010721166 0)
(0.68226262 0.00011182016 0)
(0.67968952 0.00011277017 0)
(0.67712583 0.00011265812 0)
(0.6745585 0.00011323136 0)
(0.67197734 0.00011494169 0)
(0.66937959 0.00011700249 0)
(0.66677152 0.00011848262 0)
(0.66416402 0.00011886069 0)
(0.66156778 0.00011800527 0)
(0.65898954 0.00011617586 0)
(0.65643245 0.00011370411 0)
(0.65389868 0.0001108561 0)
(0.65139053 0.00010778081 0)
(0.64891012 0.00010454994 0)
(0.6464591 0.00010119606 0)
(0.64403903 9.7774249e-05 0)
(0.64165069 9.4380415e-05 0)
(0.63929381 9.1067243e-05 0)
(0.63696797 8.7834748e-05 0)
(0.63467336 8.4670248e-05 0)
(0.63241002 8.1600915e-05 0)
(0.63017728 7.8641882e-05 0)
(0.62797434 7.5784709e-05 0)
(0.62580084 7.3024252e-05 0)
(0.62365614 7.0374151e-05 0)
(0.62153951 6.7819751e-05 0)
(0.61945031 6.5355283e-05 0)
(0.61738793 6.2989416e-05 0)
(0.61535154 6.0717323e-05 0)
(0.61334052 5.852771e-05 0)
(0.61135435 5.6420103e-05 0)
(0.60939238 5.4392661e-05 0)
(0.60745403 5.2437931e-05 0)
(0.60553878 5.0557639e-05 0)
(0.60364599 4.8749174e-05 0)
(0.60177509 4.7007415e-05 0)
(0.59992554 4.5332989e-05 0)
(0.59809674 4.3721625e-05 0)
(0.59628816 4.2171448e-05 0)
(0.59449924 4.0679976e-05 0)
(0.59272949 3.9243889e-05 0)
(0.59097839 3.7862187e-05 0)
(0.58924546 3.6532026e-05 0)
(0.58753021 3.525162e-05 0)
(0.58583217 3.4018899e-05 0)
(0.5841509 3.2831941e-05 0)
(0.58248594 3.168893e-05 0)
(0.58083688 3.0588141e-05 0)
(0.57920329 2.9527954e-05 0)
(0.57758477 2.8506856e-05 0)
(0.5759809 2.7523408e-05 0)
(0.57439129 2.6576335e-05 0)
(0.57281553 2.5664351e-05 0)
(0.5712532 2.4786645e-05 0)
(0.56970392 2.3941879e-05 0)
(0.56816709 2.3130723e-05 0)
(0.5666425 2.2350381e-05 0)
(0.56512879 2.1607843e-05 0)
(0.5636269 2.0890362e-05 0)
(0.5621316 2.0236972e-05 0)
(0.56065075 1.9572824e-05 0)
(0.55915969 1.9138813e-05 0)
(0.55770119 1.7924808e-05 -1.1005635e-20)
(0.55614774 3.1424214e-05 8.3284391e-20)
(0.55486932 1.7808169e-05 -2.5589938e-19)
(0.55244985 3.3233958e-05 -4.1991278e-18)
(0.99614869 0.0023877719 0)
(0.99649395 0.0034396952 0)
(0.99676022 0.0037440733 0)
(0.9965209 0.0036323691 0)
(0.99575481 0.0034616274 0)
(0.99450787 0.003275211 0)
(0.99275837 0.0030889858 0)
(0.99047296 0.0029210328 0)
(0.98764057 0.002772407 0)
(0.98426261 0.0026462667 0)
(0.98034145 0.0025412463 0)
(0.9758776 0.0024520186 0)
(0.97087392 0.0023781759 0)
(0.96533457 0.0023136173 0)
(0.95926095 0.0022550294 0)
(0.95265485 0.0021993702 0)
(0.94550915 0.002138978 0)
(0.93784155 0.0020614659 0)
(0.92972669 0.001967151 0)
(0.92122627 0.001862924 0)
(0.91241252 0.0017501351 0)
(0.90337364 0.001628706 0)
(0.89421824 0.0014985607 0)
(0.88505975 0.0013599186 0)
(0.87602639 0.0012145776 0)
(0.8672562 0.0010632485 0)
(0.85891078 0.00091360856 0)
(0.85112116 0.00077589302 0)
(0.84395745 0.00065516978 0)
(0.83742177 0.00055655667 0)
(0.8314627 0.00048291566 0)
(0.82599513 0.00043347353 0)
(0.82091655 0.00040499287 0)
(0.81613227 0.00039161751 0)
(0.8115726 0.00038589697 0)
(0.80719305 0.00038159826 0)
(0.80296829 0.00037532111 0)
(0.79888482 0.0003659723 0)
(0.79493212 0.0003538862 0)
(0.79109834 0.00033990017 0)
(0.78736998 0.00032515183 0)
(0.78373246 0.00031079521 0)
(0.78017185 0.00029740682 0)
(0.77667775 0.00028505637 0)
(0.77324471 0.00027341935 0)
(0.76987144 0.00026223821 0)
(0.76655798 0.00025142453 0)
(0.76330312 0.00024097327 0)
(0.76010434 0.00023085179 0)
(0.75695958 0.00022106292 0)
(0.75386757 0.00021167184 0)
(0.75082719 0.0002026723 0)
(0.7478373 0.00019402068 0)
(0.74489701 0.00018569148 0)
(0.7420053 0.00017772967 0)
(0.73916074 0.0001701354 0)
(0.73636193 0.00016287251 0)
(0.7336079 0.00015591785 0)
(0.73089762 0.00014929749 0)
(0.72822953 0.00014298086 0)
(0.72560245 0.00013694242 0)
(0.72301536 0.00013118658 0)
(0.7204671 0.00012569635 0)
(0.71795657 0.00012044837 0)
(0.71548279 0.00011543955 0)
(0.71304469 0.00011066029 0)
(0.71064123 0.0001060912 0)
(0.70827149 0.00010173088 0)
(0.70593446 9.756834e-05 0)
(0.70362919 9.3589808e-05 0)
(0.70135479 8.979256e-05 0)
(0.69911035 8.6164322e-05 0)
(0.69689498 8.2698436e-05 0)
(0.69470784 7.9386855e-05 0)
(0.6925481 7.6220468e-05 0)
(0.69041498 7.3194521e-05 0)
(0.68830769 7.0300864e-05 0)
(0.68622549 6.7533752e-05 0)
(0.68416764 6.4886931e-05 0)
(0.68213344 6.2354639e-05 0)
(0.68012221 5.993144e-05 0)
(0.67813329 5.7612196e-05 0)
(0.67616602 5.5392089e-05 0)
(0.67421978 5.3266606e-05 0)
(0.67229396 5.1231503e-05 0)
(0.67038795 4.928291e-05 0)
(0.66850115 4.7417112e-05 0)
(0.66663293 4.5631172e-05 0)
(0.66478273 4.3921714e-05 0)
(0.66294977 4.2288037e-05 0)
(0.66113365 4.0725663e-05 0)
(0.65933279 3.9242165e-05 0)
(0.65754799 3.7822642e-05 0)
(0.65577362 3.6514874e-05 0)
(0.65401768 3.523494e-05 0)
(0.65225413 3.4249474e-05 0)
(0.65052759 3.3177657e-05 1.1151668e-20)
(0.64870213 3.4541792e-05 0)
(0.64717537 2.9505587e-05 0)
(0.64436134 3.8504627e-05 0)
(0.99642388 0.0021308925 0)
(0.99687554 0.0027546042 0)
(0.99743909 0.00295483 0)
(0.99786464 0.0030259219 0)
(0.99816136 0.003118766 0)
(0.99840503 0.0032242969 0)
(0.99861093 0.0033218571 0)
(0.99876926 0.0034057012 0)
(0.9988762 0.0034760237 0)
(0.99893182 0.0035307086 0)
(0.99893101 0.0035672082 0)
(0.9988646 0.0035906144 0)
(0.99872124 0.0035892739 0)
(0.99848714 0.0035773478 0)
(0.99814438 0.003549074 0)
(0.99766799 0.0035057725 0)
(0.99702897 0.0034467608 0)
(0.99615761 0.0033719324 0)
(0.99494708 0.0032816866 0)
(0.99331392 0.0031757374 0)
(0.99117287 0.0030543722 0)
(0.98843293 0.0029189087 0)
(0.98499712 0.0027713959 0)
(0.98077398 0.0026151861 0)
(0.9756794 0.0024548653 0)
(0.96965589 0.0022970528 0)
(0.96265986 0.0021323209 0)
(0.95481536 0.0019580465 0)
(0.94629302 0.0017881559 0)
(0.93734188 0.0016253376 0)
(0.92824905 0.0014695256 0)
(0.91929821 0.0013203839 0)
(0.91072949 0.0011767776 0)
(0.90272905 0.0010449893 0)
(0.89538101 0.00093327656 0)
(0.88865881 0.00084367759 0)
(0.88247431 0.00077614136 0)
(0.87671717 0.00072832557 0)
(0.87128325 0.00069563886 0)
(0.86609715 0.00067157425 0)
(0.86111455 0.0006500301 0)
(0.8563121 0.00062730833 0)
(0.85167608 0.00060253395 0)
(0.84719433 0.00057642028 0)
(0.84285379 0.00054987331 0)
(0.83864087 0.00052385211 0)
(0.83454233 0.00049910419 0)
(0.83054625 0.00047591323 0)
(0.82664343 0.00045404586 0)
(0.82282824 0.00043324746 0)
(0.81909704 0.00041348731 0)
(0.81544608 0.00039470065 0)
(0.81187112 0.00037679329 0)
(0.80836841 0.00035970192 0)
(0.80493488 0.0003434542 0)
(0.80156778 0.00032800968 0)
(0.79826457 0.00031329351 0)
(0.79502313 0.00029926016 0)
(0.79184132 0.00028593306 0)
(0.78871681 0.0002732533 0)
(0.78564764 0.000261173 0)
(0.78263208 0.00024968539 0)
(0.77966827 0.00023875449 0)
(0.77675449 0.00022833617 0)
(0.7738892 0.00021841672 0)
(0.77107078 0.00020897365 0)
(0.76829775 0.00019997033 0)
(0.76556869 0.00019139704 0)
(0.76288219 0.00018323046 0)
(0.76023693 0.00017544368 0)
(0.75763163 0.00016802639 0)
(0.75506502 0.00016095482 0)
(0.75253592 0.00015421376 0)
(0.75004314 0.00014778613 0)
(0.74758556 0.00014165366 0)
(0.74516212 0.00013580477 0)
(0.74277175 0.00013022323 0)
(0.74041344 0.00012489653 0)
(0.7380862 0.00011981164 0)
(0.7357891 0.00011495651 0)
(0.7335212 0.00011031974 0)
(0.73128162 0.0001058906 0)
(0.7290695 0.00010165903 0)
(0.72688401 9.7615584e-05 0)
(0.72472432 9.3751415e-05 0)
(0.72258963 9.0058354e-05 0)
(0.72047916 8.6528767e-05 0)
(0.71839211 8.3156034e-05 0)
(0.71632773 7.9933834e-05 0)
(0.71428506 7.6858275e-05 0)
(0.71226354 7.3924284e-05 0)
(0.71026142 7.1135442e-05 0)
(0.70827933 6.8484869e-05 0)
(0.70631145 6.6008868e-05 0)
(0.70436561 6.3664811e-05 0)
(0.7024155 6.1688525e-05 0)
(0.70050578 5.9867259e-05 7.7783969e-21)
(0.69849755 5.8710404e-05 0)
(0.69680416 5.7383066e-05 0)
(0.69372251 6.1388709e-05 -2.6414814e-20)
(0.99653623 0.0020296798 0)
(0.99694385 0.0026510694 0)
(0.99746398 0.0029800991 0)
(0.99788052 0.0031314176 0)
(0.99818529 0.0032248283 0)
(0.9984447 0.0032811797 0)
(0.99867921 0.0032939096 0)
(0.99888488 0.0032829508 0)
(0.99906613 0.0032575076 0)
(0.99923025 0.0032234646 0)
(0.99937973 0.0031839816 0)
(0.99951627 0.0031404064 0)
(0.99964085 0.0030978618 0)
(0.99975333 0.0030551828 0)
(0.99985413 0.0030128174 0)
(0.99994247 0.0029708908 0)
(1.0000163 0.0029287777 0)
(1.0000726 0.0028856591 0)
(1.0001057 0.002841461 0)
(1.0001089 0.002796873 0)
(1.000074 0.0027526001 0)
(0.9999896 0.0027089418 0)
(0.99984031 0.0026662117 0)
(0.99960594 0.0026246999 0)
(0.99925851 0.0025839684 0)
(0.99875482 0.0025429417 0)
(0.99803575 0.0025006009 0)
(0.99692843 0.0024552299 0)
(0.99527935 0.0024024643 0)
(0.9929254 0.0023391297 0)
(0.98971107 0.0022643953 0)
(0.98550871 0.0021790831 0)
(0.9802503 0.0020885348 0)
(0.97392796 0.0019831355 0)
(0.96673457 0.0018594653 0)
(0.95894247 0.0017299739 0)
(0.95086367 0.0015985315 0)
(0.94280678 0.0014676102 0)
(0.93502846 0.001340208 0)
(0.92770686 0.0012240922 0)
(0.92089761 0.0011248278 0)
(0.91456261 0.0010430605 0)
(0.90861839 0.00097770143 0)
(0.90297508 0.00092582757 0)
(0.89756656 0.00088253862 0)
(0.89235517 0.00084318521 0)
(0.88732267 0.00080496456 0)
(0.88245794 0.00076728993 0)
(0.87774999 0.00073029704 0)
(0.87318676 0.00069445145 0)
(0.86875564 0.00066043523 0)
(0.86444453 0.00062849382 0)
(0.86024345 0.00059842761 0)
(0.85614531 0.00056998544 0)
(0.85214473 0.00054310632 0)
(0.84823659 0.00051768143 0)
(0.84441583 0.00049357774 0)
(0.84067801 0.00047070282 0)
(0.83701926 0.0004490504 0)
(0.83343606 0.00042851004 0)
(0.8299253 0.00040899446 0)
(0.82648408 0.00039047842 0)
(0.82310951 0.0003728998 0)
(0.819799 0.00035618501 0)
(0.81655022 0.00034030168 0)
(0.81336087 0.00032520852 0)
(0.8102288 0.00031084653 0)
(0.80715202 0.00029719202 0)
(0.8041286 0.0002842052 0)
(0.8011567 0.00027184233 0)
(0.79823462 0.00026008162 0)
(0.79536066 0.00024888509 0)
(0.79253325 0.00023822596 0)
(0.78975083 0.00022807562 0)
(0.78701194 0.00021840439 0)
(0.78431519 0.00020919149 0)
(0.7816592 0.00020041083 0)
(0.77904266 0.00019204113 0)
(0.77646431 0.00018406094 0)
(0.77392294 0.00017645029 0)
(0.77141737 0.00016919037 0)
(0.76894646 0.00016226348 0)
(0.76650912 0.000155653 0)
(0.7641043 0.00014934337 0)
(0.76173094 0.00014332003 0)
(0.75938805 0.00013756946 0)
(0.75707464 0.00013207919 0)
(0.75478972 0.00012683794 0)
(0.75253234 0.00012183586 0)
(0.75030139 0.00011706466 0)
(0.74809611 0.00011251922 0)
(0.7459146 0.00010819596 0)
(0.74375728 0.00010410186 0)
(0.74161828 0.00010024765 0)
(0.73950501 9.6665175e-05 0)
(0.73739147 9.348415e-05 0)
(0.73532157 9.0872113e-05 6.2359127e-21)
(0.73315545 8.8291564e-05 0)
(0.73131876 9.07187e-05 0)
(0.72800587 8.7759952e-05 2.1365324e-20)
(0.99665825 0.001967593 0)
(0.99700064 0.0025472456 0)
(0.99745569 0.0028735455 0)
(0.99783805 0.0030198681 0)
(0.99813341 0.0031070696 0)
(0.99839124 0.0031669589 0)
(0.99862755 0.0032023822 0)
(0.99883883 0.0032208028 0)
(0.99902796 0.0032302358 0)
(0.99920142 0.0032335013 0)
(0.99936261 0.0032308793 0)
(0.99951278 0.0032238228 0)
(0.99965279 0.0032110823 0)
(0.99978354 0.0031933807 0)
(0.99990652 0.0031703664 0)
(1.0000222 0.0031417145 0)
(1.000131 0.003106798 0)
(1.0002323 0.0030648632 0)
(1.0003246 0.0030160604 0)
(1.0004064 0.0029610093 0)
(1.0004769 0.0029004784 0)
(1.0005347 0.0028358169 0)
(1.0005776 0.0027681788 0)
(1.0006033 0.0026988671 0)
(1.0006095 0.0026300688 0)
(1.0005942 0.0025645176 0)
(1.000556 0.0025045337 0)
(1.0004889 0.0024518694 0)
(1.0003842 0.0024083723 0)
(1.0002284 0.0023747378 0)
(1.0000015 0.0023499133 0)
(0.99967218 0.0023313813 0)
(0.99918793 0.0023136422 0)
(0.99846836 0.0022927519 0)
(0.99731432 0.0022650941 0)
(0.995536 0.0022255248 0)
(0.99295592 0.0021720958 0)
(0.9894285 0.0021064406 0)
(0.98487078 0.0020296803 0)
(0.9793114 0.0019350073 0)
(0.97295954 0.0018247598 0)
(0.96609069 0.0017084247 0)
(0.95900684 0.0015897406 0)
(0.95198153 0.0014724848 0)
(0.94521795 0.0013638262 0)
(0.93880026 0.0012680793 0)
(0.93272478 0.0011857799 0)
(0.92693955 0.0011163737 0)
(0.92138696 0.0010573052 0)
(0.91602707 0.0010047297 0)
(0.91083903 0.00095573473 0)
(0.90581224 0.00090906548 0)
(0.90093832 0.00086425146 0)
(0.89620803 0.00082133354 0)
(0.89161094 0.00078072197 0)
(0.88713666 0.00074252917 0)
(0.88277636 0.00070655289 0)
(0.87852344 0.00067257744 0)
(0.87437239 0.00064053145 0)
(0.87031793 0.00061023766 0)
(0.8663552 0.00058156009 0)
(0.8624798 0.00055443654 0)
(0.85868764 0.00052875664 0)
(0.85497511 0.00050440258 0)
(0.85133892 0.00048131332 0)
(0.84777588 0.00045941905 0)
(0.84428306 0.00043862909 0)
(0.84085779 0.00041889783 0)
(0.83749749 0.0004001626 0)
(0.83419977 0.00038235724 0)
(0.83096239 0.0003654433 0)
(0.82778319 0.00034936415 0)
(0.82466012 0.00033407749 0)
(0.82159124 0.00031953963 0)
(0.81857469 0.00030570628 0)
(0.81560872 0.00029254456 0)
(0.81269161 0.00028001579 0)
(0.80982174 0.00026808753 0)
(0.80699753 0.00025672764 0)
(0.80421748 0.00024590617 0)
(0.80148015 0.00023559501 0)
(0.79878414 0.00022576768 0)
(0.79612809 0.00021639942 0)
(0.79351072 0.000207467 0)
(0.79093075 0.00019894875 0)
(0.78838697 0.00019082448 0)
(0.78587817 0.00018307568 0)
(0.78340315 0.00017568528 0)
(0.7809608 0.00016863892 0)
(0.77854979 0.00016192278 0)
(0.77616919 0.00015553126 0)
(0.77381694 0.00014945179 0)
(0.77149325 0.00014370706 0)
(0.7691922 0.00013827593 0)
(0.76692079 0.00013327808 0)
(0.7646534 0.00012870198 0)
(0.76243312 0.00012522752 5.3882586e-21)
(0.76011948 0.00012070702 4.0261934e-20)
(0.75815002 0.00012798288 0)
(0.75462264 0.00011566622 0)
(0.99678193 0.0019161683 0)
(0.99706403 0.0024433238 0)
(0.99745944 0.0027655213 0)
(0.99781258 0.0029306122 0)
(0.99810004 0.0030358562 0)
(0.99835441 0.0031110203 0)
(0.99858791 0.0031571835 0)
(0.99879793 0.0031822231 0)
(0.99898711 0.0031942019 0)
(0.99916088 0.0031963797 0)
(0.99932236 0.0031904811 0)
(0.99947339 0.0031780996 0)
(0.99961521 0.0031592722 0)
(0.99974884 0.0031358099 0)
(0.99987564 0.0031076525 0)
(0.99999617 0.0030747837 0)
(1.0001107 0.0030369395 0)
(1.0002187 0.0029936913 0)
(1.0003194 0.0029453479 0)
(1.000412 0.0028927523 0)
(1.0004953 0.0028366499 0)
(1.0005688 0.0027778357 0)
(1.0006319 0.0027173832 0)
(1.0006842 0.0026568117 0)
(1.0007251 0.002597736 0)
(1.0007551 0.0025425477 0)
(1.000775 0.0024925984 0)
(1.0007854 0.0024482591 0)
(1.0007867 0.0024103197 0)
(1.0007798 0.00237822 0)
(1.0007639 0.0023504814 0)
(1.000737 0.0023253641 0)
(1.0006952 0.0023024865 0)
(1.0006335 0.0022817612 0)
(1.0005402 0.0022628832 0)
(1.0003958 0.002246332 0)
(1.0001755 0.0022322228 0)
(0.99984112 0.0022192801 0)
(0.99933452 0.0022041624 0)
(0.99853906 0.0021842177 0)
(0.99725927 0.0021559257 0)
(0.99531064 0.0021154018 0)
(0.99252988 0.0020624515 0)
(0.9888059 0.0019968473 0)
(0.98413596 0.001913426 0)
(0.97868997 0.0018154993 0)
(0.97270512 0.0017113479 0)
(0.96645208 0.0016039899 0)
(0.96018202 0.0014994649 0)
(0.95406181 0.0014033704 0)
(0.94816102 0.0013167686 0)
(0.94247989 0.0012404508 0)
(0.93698981 0.0011734846 0)
(0.93166381 0.0011133261 0)
(0.92648673 0.0010576993 0)
(0.92145169 0.001005316 0)
(0.91655401 0.0009555091 0)
(0.91178782 0.00090815602 0)
(0.9071456 0.00086345404 0)
(0.90261959 0.00082132176 0)
(0.8982034 0.00078156465 0)
(0.89389181 0.00074405611 0)
(0.88968001 0.00070862753 0)
(0.8855634 0.00067511387 0)
(0.8815377 0.00064341678 0)
(0.87759892 0.00061342461 0)
(0.87374344 0.00058500349 0)
(0.86996793 0.00055807785 0)
(0.86626921 0.00053255481 0)
(0.86264431 0.0005083385 0)
(0.85909047 0.00048536741 0)
(0.85560508 0.00046356103 0)
(0.85218563 0.00044285683 0)
(0.84882978 0.0004231918 0)
(0.84553529 0.00040450334 0)
(0.84230002 0.00038674302 0)
(0.83912194 0.0003698566 0)
(0.83599909 0.00035379765 0)
(0.8329296 0.0003385208 0)
(0.82991167 0.00032398382 0)
(0.82694358 0.00031014709 0)
(0.82402367 0.00029697345 0)
(0.82115035 0.00028442812 0)
(0.81832205 0.0002724785 0)
(0.8155373 0.00026109424 0)
(0.81279465 0.000250247 0)
(0.81009267 0.00023991088 0)
(0.80742998 0.00023006174 0)
(0.80480525 0.00022067959 0)
(0.80221697 0.00021174391 0)
(0.79966401 0.00020324782 0)
(0.79714417 0.00019516846 0)
(0.79465743 0.00018754446 0)
(0.79219784 0.0001803195 0)
(0.78977199 0.00017370752 0)
(0.78735463 0.00016753645 0)
(0.78498811 0.00016306902 0)
(0.78253119 0.00015609559 0)
(0.78043394 0.00016923453 5.6058009e-20)
(0.77669954 0.0001455691 0)
(0.99690758 0.001873906 0)
(0.99714033 0.0023506282 0)
(0.99748138 0.0026657754 0)
(0.99780493 0.0028460135 0)
(0.99808147 0.0029644516 0)
(0.99833005 0.0030484484 0)
(0.9985593 0.003101721 0)
(0.99876712 0.003132698 0)
(0.99895551 0.0031494457 0)
(0.99912903 0.0031558997 0)
(0.99929049 0.0031538348 0)
(0.99944166 0.0031450657 0)
(0.99958386 0.0031300994 0)
(0.99971813 0.003110315 0)
(0.9998457 0.0030856987 0)
(0.99996716 0.0030562011 0)
(1.0000827 0.0030215814 0)
(1.0001921 0.0029814797 0)
(1.0002945 0.0029361224 0)
(1.0003891 0.0028861941 0)
(1.0004756 0.0028324144 0)
(1.0005532 0.0027756699 0)
(1.0006216 0.0027170379 0)
(1.0006803 0.0026578761 0)
(1.0007293 0.0025999179 0)
(1.0007689 0.0025451168 0)
(1.0008006 0.00249458 0)
(1.0008255 0.0024492683 0)
(1.0008452 0.0024100673 0)
(1.0008615 0.0023769076 0)
(1.0008754 0.0023489289 0)
(1.0008872 0.0023248394 0)
(1.0008964 0.0023040637 0)
(1.0009025 0.0022854341 0)
(1.0009037 0.002268011 0)
(1.0008975 0.002251762 0)
(1.000881 0.0022361517 0)
(1.0008501 0.0022205949 0)
(1.0007991 0.0022051334 0)
(1.0007191 0.002189694 0)
(1.0005916 0.0021740747 0)
(1.00039 0.0021585119 0)
(1.0000764 0.0021426208 0)
(0.99959358 0.0021247422 0)
(0.9988288 0.0021032149 0)
(0.99760121 0.0020748854 0)
(0.9957375 0.0020360609 0)
(0.99308846 0.0019872735 0)
(0.98954855 0.0019225005 0)
(0.98518518 0.0018405782 0)
(0.98015639 0.0017502651 0)
(0.9746871 0.0016546783 0)
(0.96901949 0.0015590818 0)
(0.96334334 0.0014684283 0)
(0.95776517 0.001384205 0)
(0.95232096 0.0013077352 0)
(0.94700971 0.0012387945 0)
(0.94182194 0.0011758665 0)
(0.93675266 0.001117397 0)
(0.93180118 0.0010622995 0)
(0.9269671 0.0010100256 0)
(0.92224775 0.00096053435 0)
(0.91763855 0.00091378208 0)
(0.91313484 0.00086961594 0)
(0.90873262 0.0008278984 0)
(0.90442815 0.0007884739 0)
(0.90021778 0.00075116954 0)
(0.89609796 0.00071587936 0)
(0.89206524 0.00068247494 0)
(0.88811643 0.00065082468 0)
(0.88424851 0.00062083935 0)
(0.88045856 0.00059241003 0)
(0.87674381 0.00056544934 0)
(0.8731016 0.00053987061 0)
(0.86952942 0.00051558912 0)
(0.86602488 0.00049253755 0)
(0.86258564 0.00047064293 0)
(0.8592095 0.00044984202 0)
(0.85589432 0.00043007365 0)
(0.85263807 0.00041128094 0)
(0.84943877 0.00039341062 0)
(0.84629453 0.00037641275 0)
(0.84320353 0.00036024065 0)
(0.84016398 0.00034485062 0)
(0.8371742 0.00033020197 0)
(0.8342325 0.00031625668 0)
(0.8313373 0.00030298006 0)
(0.82848698 0.00029033954 0)
(0.82568002 0.00027830829 0)
(0.82291476 0.00026685796 0)
(0.82018986 0.00025597937 0)
(0.81750298 0.00024563821 0)
(0.81485389 0.00023588876 0)
(0.81223657 0.00022663733 0)
(0.80965725 0.00021819585 0)
(0.80709099 0.00021021787 0)
(0.80457959 0.00020460117 0)
(0.80198066 0.00019480359 0)
(0.79975766 0.00021463178 5.2495798e-20)
(0.79581903 0.00017785291 0)
(0.99703532 0.0018391117 0)
(0.99722852 0.0022704869 0)
(0.99752079 0.0025745717 0)
(0.9978137 0.0027636483 0)
(0.99807598 0.0028919358 0)
(0.99831645 0.0029837431 0)
(0.99854017 0.0030444528 0)
(0.9987449 0.0030821253 0)
(0.99893182 0.0031044833 0)
(0.99910459 0.0031156164 0)
(0.99926567 0.0031175834 0)
(0.99941667 0.0031122272 0)
(0.99955884 0.003100291 0)
(0.99969323 0.0030829819 0)
(0.99982093 0.0030605107 0)
(0.99994254 0.003032911 0)
(1.0000583 0.0030000548 0)
(1.0001679 0.002961706 0)
(1.0002706 0.0029180969 0)
(1.0003659 0.002869889 0)
(1.0004533 0.0028178281 0)
(1.0005324 0.0027628046 0)
(1.0006026 0.0027058688 0)
(1.0006638 0.0026483457 0)
(1.0007158 0.0025918562 0)
(1.0007593 0.0025382952 0)
(1.0007956 0.0024889425 0)
(1.000826 0.0024447042 0)
(1.000852 0.0024064629 0)
(1.0008754 0.0023740531 0)
(1.0008978 0.0023465748 0)
(1.0009197 0.0023229438 0)
(1.0009413 0.0023023633 0)
(1.0009625 0.0022836634 0)
(1.0009827 0.002266177 0)
(1.0010012 0.0022499446 0)
(1.0010173 0.0022345376 0)
(1.0010303 0.002219745 0)
(1.001039 0.0022054924 0)
(1.0010422 0.0021912173 0)
(1.0010369 0.0021766316 0)
(1.0010193 0.0021618443 0)
(1.0009842 0.0021467732 0)
(1.0009248 0.0021315523 0)
(1.0008305 0.0021160064 0)
(1.0006789 0.0020997911 0)
(1.0004392 0.002082984 0)
(1.0000646 0.0020646835 0)
(0.9994882 0.0020444822 0)
(0.99855361 0.0020204559 0)
(0.9971008 0.0019884221 0)
(0.99497625 0.0019475222 0)
(0.99205246 0.001892274 0)
(0.98834303 0.0018212543 0)
(0.98395522 0.0017412595 0)
(0.97907415 0.001655539 0)
(0.97391742 0.0015688902 0)
(0.96866366 0.0014850171 0)
(0.96342494 0.0014056653 0)
(0.95825137 0.0013322008 0)
(0.95315832 0.0012645714 0)
(0.94815042 0.0012019036 0)
(0.94323241 0.0011431399 0)
(0.93840945 0.0010875245 0)
(0.93368435 0.0010347952 0)
(0.92905687 0.00098486187 0)
(0.92452534 0.00093759532 0)
(0.92008787 0.00089288208 0)
(0.91574237 0.00085056658 0)
(0.91148657 0.00081049257 0)
(0.907318 0.00077254987 0)
(0.90323411 0.0007366023 0)
(0.8992324 0.00070253722 0)
(0.89531034 0.00067024328 0)
(0.8914655 0.00063961199 0)
(0.88769546 0.00061055492 0)
(0.88399787 0.00058297813 0)
(0.88037043 0.00055679942 0)
(0.87681091 0.00053193976 0)
(0.87331715 0.00050832564 0)
(0.86988703 0.00048588822 0)
(0.86651853 0.00046456306 0)
(0.86320965 0.00044428986 0)
(0.85995847 0.00042501221 0)
(0.85676311 0.00040667752 0)
(0.85362176 0.00038923669 0)
(0.85053263 0.00037264482 0)
(0.84749395 0.00035685963 0)
(0.84450406 0.00034184626 0)
(0.8415611 0.00032756733 0)
(0.8386636 0.0003140104 0)
(0.83580905 0.00030112862 0)
(0.83299704 0.00028899128 0)
(0.83022151 0.00027746573 0)
(0.82748835 0.00026696432 0)
(0.82477286 0.00025695476 0)
(0.82211646 0.00025001847 0)
(0.81937523 0.00023704298 -1.6405755e-20)
(0.81702692 0.00026432204 0)
(0.81288432 0.00021273243 -7.7214253e-21)
(0.99716388 0.0018101916 0)
(0.99732496 0.0022009665 0)
(0.99757475 0.0024916215 0)
(0.99783744 0.002684925 0)
(0.99808304 0.0028205051 0)
(0.99831313 0.0029191074 0)
(0.99852971 0.0029866991 0)
(0.9987301 0.0030307438 0)
(0.9989146 0.0030585193 0)
(0.99908593 0.0030741925 0)
(0.99924613 0.0030800352 0)
(0.99939659 0.0030779547 0)
(0.99953846 0.0030689098 0)
(0.99967269 0.0030540577 0)
(0.99980027 0.0030337766 0)
(0.99992178 0.003008177 0)
(1.0000374 0.002977225 0)
(1.0001469 0.0029407914 0)
(1.0002498 0.0028991229 0)
(1.0003453 0.0028528557 0)
(1.0004331 0.0028027303 0)
(1.0005128 0.0027496187 0)
(1.000584 0.0026945552 0)
(1.0006465 0.0026388334 0)
(1.0007002 0.0025840088 0)
(1.0007459 0.0025318827 0)
(1.0007846 0.0024837302 0)
(1.0008178 0.0024404216 0)
(1.0008469 0.0024027475 0)
(1.0008738 0.0023706473 0)
(1.0008999 0.0023433494 0)
(1.000926 0.0023197924 0)
(1.0009524 0.0022991981 0)
(1.0009791 0.0022805891 0)
(1.0010057 0.0022632974 0)
(1.001032 0.002247269 0)
(1.0010577 0.0022321931 0)
(1.0010827 0.0022178094 0)
(1.0011065 0.0022038922 0)
(1.0011287 0.0021899257 0)
(1.0011484 0.0021757073 0)
(1.0011646 0.0021613331 0)
(1.0011759 0.0021468095 0)
(1.001181 0.0021322604 0)
(1.0011781 0.0021174749 0)
(1.0011636 0.0021024285 0)
(1.0011327 0.0020872726 0)
(1.0010781 0.0020722133 0)
(1.0009917 0.0020570635 0)
(1.0008538 0.0020411573 0)
(1.000635 0.0020243042 0)
(1.0002919 0.0020059718 0)
(0.99976333 0.0019860916 0)
(0.99891321 0.0019631103 0)
(0.99759456 0.0019335174 0)
(0.99565922 0.0018951038 0)
(0.99299085 0.0018432062 0)
(0.98959351 0.0017780594 0)
(0.98555563 0.0017045694 0)
(0.98104399 0.0016263122 0)
(0.97624991 0.0015472339 0)
(0.97132974 0.0014696388 0)
(0.96638183 0.0013955948 0)
(0.96145517 0.0013261792 0)
(0.95657202 0.0012614088 0)
(0.95174612 0.0012005851 0)
(0.94698894 0.001143013 0)
(0.94230882 0.0010883659 0)
(0.93771014 0.0010364919 0)
(0.93319476 0.00098727971 0)
(0.92876335 0.00094063407 0)
(0.92441582 0.00089640921 0)
(0.92015148 0.00085448403 0)
(0.91596914 0.00081473498 0)
(0.9118673 0.00077703646 0)
(0.9078443 0.00074128285 0)
(0.90389832 0.00070736153 0)
(0.90002746 0.00067517242 0)
(0.89622975 0.00064461864 0)
(0.89250322 0.00061560962 0)
(0.88884588 0.00058806032 0)
(0.88525574 0.00056189089 0)
(0.88173084 0.00053702649 0)
(0.87826923 0.00051339694 0)
(0.874869 0.00049093672 0)
(0.87152826 0.00046958453 0)
(0.86824515 0.00044928421 0)
(0.86501781 0.00042998272 0)
(0.86184445 0.00041163609 0)
(0.85872312 0.00039419695 0)
(0.85565222 0.00037764857 0)
(0.85262914 0.00036193071 0)
(0.84965329 0.00034712688 0)
(0.84671861 0.00033306435 0)
(0.84383067 0.00032025734 0)
(0.840965 0.00030797811 0)
(0.83816278 0.00029953818 2.1832756e-21)
(0.83527826 0.00028301606 0)
(0.8328042 0.00031849374 4.9573569e-20)
(0.82845653 0.00025039983 0)
(0.99728957 0.0017854078 0)
(0.99742523 0.0021402023 0)
(0.99763918 0.0024164422 0)
(0.99787369 0.0026107168 0)
(0.99810153 0.0027512602 0)
(0.99831956 0.0028552973 0)
(0.99852749 0.0029288353 0)
(0.99872222 0.0029786814 0)
(0.99890322 0.0030115781 0)
(0.9990723 0.003031664 0)
(0.99923102 0.0030413427 0)
(0.9993805 0.0030425715 0)
(0.99952173 0.0030364743 0)
(0.99965553 0.0030241854 0)
(0.99978279 0.0030061998 0)
(0.99990402 0.0029827071 0)
(1.0000194 0.002953759 0)
(1.0001287 0.002919321 0)
(1.0002314 0.002879659 0)
(1.000327 0.0028353862 0)
(1.0004151 0.0027872324 0)
(1.0004952 0.0027360561 0)
(1.000567 0.0026828779 0)
(1.0006304 0.0026289573 0)
(1.0006854 0.0025757891 0)
(1.0007325 0.0025250736 0)
(1.000773 0.0024780661 0)
(1.000808 0.0024356322 0)
(1.0008392 0.0023985232 0)
(1.0008681 0.0023667403 0)
(1.0008964 0.0023395999 0)
(1.0009246 0.0023161215 0)
(1.0009534 0.0022955677 0)
(1.0009827 0.00227703 0)
(1.0010123 0.0022598571 0)
(1.001042 0.0022439541 0)
(1.0010717 0.0022290138 0)
(1.0011014 0.0022147544 0)
(1.0011309 0.0022009519 0)
(1.00116 0.0021871644 0)
(1.0011882 0.0021731993 0)
(1.0012148 0.0021591443 0)
(1.0012396 0.0021450399 0)
(1.001262 0.0021309449 0)
(1.0012814 0.0021166753 0)
(1.001297 0.0021022257 0)
(1.0013074 0.0020877227 0)
(1.001311 0.0020733212 0)
(1.0013062 0.0020587453 0)
(1.0012894 0.0020438362 0)
(1.0012555 0.0020288832 0)
(1.0011968 0.0020140691 0)
(1.0011044 0.0019991904 0)
(1.0009577 0.0019835787 0)
(1.0007261 0.0019668586 0)
(1.0003653 0.0019486367 0)
(0.99980357 0.0019286926 0)
(0.99891225 0.0019052611 0)
(0.99755371 0.0018757056 0)
(0.99558563 0.0018358773 0)
(0.99293239 0.0017832997 0)
(0.98960541 0.0017207956 0)
(0.98570413 0.0016514993 0)
(0.98139095 0.0015787929 0)
(0.97683102 0.0015052417 0)
(0.97215132 0.0014331406 0)
(0.96742893 0.0013641991 0)
(0.96270504 0.0012991299 0)
(0.95800446 0.0012376751 0)
(0.9533457 0.001179345 0)
(0.94874235 0.0011238567 0)
(0.94420321 0.0010710521 0)
(0.93973359 0.0010208525 0)
(0.93533678 0.00097316114 0)
(0.93101477 0.00092786142 0)
(0.92676848 0.0008848522 0)
(0.92259805 0.00084401831 0)
(0.91850307 0.00080525274 0)
(0.91448273 0.00076844804 0)
(0.91053591 0.00073350149 0)
(0.9066613 0.00070031489 0)
(0.90285743 0.00066879484 0)
(0.89912271 0.000638853 0)
(0.89545548 0.00061040596 0)
(0.89185401 0.00058337546 0)
(0.88831657 0.00055768786 0)
(0.88484138 0.00053327545 0)
(0.88142662 0.00051007398 0)
(0.87807052 0.0004880298 0)
(0.87477111 0.00046708497 0)
(0.87152675 0.00044721777 0)
(0.8683348 0.000428354 0)
(0.86519457 0.00041059055 0)
(0.8621 0.00039371411 0)
(0.85905645 0.00037834154 0)
(0.85603962 0.00036354149 0)
(0.85309061 0.00035340033 0)
(0.85006159 0.00033294851 0)
(0.847461 0.00037737699 0)
(0.84290659 0.00029105949 0)
(0.99740994 0.0017636644 0)
(0.99752566 0.0020866686 0)
(0.99770995 0.0023482152 0)
(0.99791922 0.0025410758 0)
(0.9981295 0.0026845991 0)
(0.99833474 0.0027927505 0)
(0.99853298 0.0028712791 0)
(0.99872094 0.0029263018 0)
(0.99889741 0.0029639658 0)
(0.99906339 0.002988287 0)
(0.99921996 0.0030017271 0)
(0.99936794 0.0030062614 0)
(0.99950812 0.0030031291 0)
(0.99964119 0.0029934528 0)
(0.99976787 0.0029778164 0)
(0.99988863 0.0029564886 0)
(1.0000036 0.0029295992 0)
(1.0001126 0.002897199 0)
(1.0002151 0.0028595771 0)
(1.0003107 0.0028173286 0)
(1.0003988 0.0027711729 0)
(1.0004792 0.002721956 0)
(1.0005516 0.0026706825 0)
(1.0006157 0.0026185767 0)
(1.0006717 0.0025670739 0)
(1.00072 0.0025177819 0)
(1.0007618 0.0024719357 0)
(1.0007983 0.0024303985 0)
(1.000831 0.0023938896 0)
(1.0008615 0.0023624537 0)
(1.0008912 0.0023354911 0)
(1.0009209 0.0023121088 0)
(1.000951 0.0022916002 0)
(1.0009818 0.0022731178 0)
(1.001013 0.0022560309 0)
(1.0010445 0.0022402076 0)
(1.0010763 0.0022253527 0)