/*--------------------------------*- C++ -*----------------------------------*\
  =========                 |
  \\      /  F ield         | OpenFOAM: The Open Source CFD Toolbox
   \\    /   O peration     | Website:  https://openfoam.org
    \\  /    A nd           | Version:  12
     \\/     M anipulation  |
\*---------------------------------------------------------------------------*/
FoamFile
{
    format      ascii;
    class       volVectorField;
    location    "1700";
    object      wallShearStress;
}
// * * * * * * * * * * * * * * * * * * * * * * * * * * * * * * * * * * * * * //

dimensions      [0 2 -2 0 0 0 0];

internalField   uniform (0 0 0);

boundaryField
{
    bottom
    {
        type            calculated;
        value           nonuniform List<vector> 
112
(
(-0.0077582903 -3.555815e-05 0)
(-0.0059335442 -2.2050751e-07 -1.4329743e-17)
(-0.0054664379 -7.5081396e-08 9.9579874e-18)
(-0.0051584364 -5.235494e-08 -3.3462375e-18)
(-0.0049387918 -3.9253126e-08 0)
(-0.0047622088 -3.2218135e-08 0)
(-0.0046120144 -2.7380497e-08 0)
(-0.0044826902 -2.3471313e-08 0)
(-0.0043705728 -2.0299882e-08 0)
(-0.0042721504 -1.777185e-08 -2.2175847e-18)
(-0.0041846403 -1.5729093e-08 0)
(-0.0041060795 -1.4027806e-08 -1.7444687e-18)
(-0.0040351147 -1.2590416e-08 1.5634216e-18)
(-0.0039705401 -1.1390719e-08 -1.4124179e-18)
(-0.0039112332 -1.0379957e-08 0)
(-0.0038564531 -9.5039426e-09 1.1754976e-18)
(-0.0038056255 -8.7435988e-09 0)
(-0.0037581983 -8.0814046e-09 -4.9863502e-19)
(-0.0037137551 -7.4974614e-09 0)
(-0.0036719448 -6.9799078e-09 -8.5958477e-19)
(-0.0036324681 -6.5177424e-09 8.0190968e-19)
(-0.0035950802 -6.1034015e-09 0)
(-0.0035595558 -5.7300503e-09 0)
(-0.0035257169 -5.3907111e-09 0)
(-0.0034934084 -5.082134e-09 -6.2313168e-19)
(-0.0034624833 -4.7993596e-09 0)
(-0.0034328367 -4.5383176e-09 0)
(-0.0034043639 -4.2988503e-09 0)
(-0.0033769559 -4.0783326e-09 0)
(-0.003350533 -3.8735992e-09 -4.7321602e-19)
(-0.0033250209 -3.6842088e-09 4.4977609e-19)
(-0.0033003406 -3.5090641e-09 0)
(-0.0032764259 -3.3455361e-09 0)
(-0.0032532281 -3.1921587e-09 0)
(-0.0032306971 -3.0490583e-09 3.7129741e-19)
(-0.0032087786 -2.9151947e-09 0)
(-0.0031874323 -2.7887702e-09 0)
(-0.0031666266 -2.6693977e-09 -3.244974e-19)
(-0.0031463239 -2.55732e-09 0)
(-0.0031264853 -2.4517499e-09 0)
(-0.0031070819 -2.3514917e-09 0)
(-0.0030880906 -2.2562508e-09 2.7367492e-19)
(-0.0030694848 -2.166248e-09 -1.3130987e-19)
(-0.0030512347 -2.0811531e-09 2.521719e-19)
(-0.0030333165 -2.0000184e-09 0)
(-0.003015714 -1.9223784e-09 0)
(-0.0029984093 -1.8485219e-09 -3.3547142e-19)
(-0.002981379 -1.7785477e-09 0)
(-0.002964601 -1.711682e-09 2.068875e-19)
(-0.0029480636 -1.6473364e-09 0)
(-0.0029317542 -1.5857672e-09 0)
(-0.0029156548 -1.5270953e-09 -9.2156647e-20)
(-0.0028997477 -1.4710369e-09 -8.8732251e-20)
(-0.0028840188 -1.4171045e-09 0)
(-0.0028684587 -1.365069e-09 -1.6452815e-19)
(-0.0028530569 -1.3151446e-09 0)
(-0.0028377975 -1.2674483e-09 0)
(-0.0028226652 -1.2215888e-09 0)
(-0.0028076515 -1.1772026e-09 0)
(-0.0027927481 -1.1343522e-09 0)
(-0.0027779438 -1.093174e-09 0)
(-0.002763225 -1.053648e-09 0)
(-0.002748579 -1.0154137e-09 0)
(-0.0027340002 -9.7825891e-10 0)
(-0.0027194807 -9.4235251e-10 -1.1306725e-19)
(-0.0027050087 -9.0778181e-10 0)
(-0.0026905717 -8.7439537e-10 -5.2409644e-20)
(-0.0026761605 -8.4195279e-10 0)
(-0.0026617689 -8.1042162e-10 -4.8531562e-20)
(-0.0026473877 -7.7992699e-10 9.3369097e-20)
(-0.0026330045 -7.5051278e-10 8.980689e-20)
(-0.0026186063 -7.2195694e-10 -4.3175286e-20)
(-0.0026041872 -6.9409843e-10 0)
(-0.002589739 -6.6706838e-10 0)
(-0.0025752486 -6.409334e-10 7.6554029e-20)
(-0.002560703 -6.1552714e-10 -7.348567e-20)
(-0.0025460943 -5.9071378e-10 0)
(-0.0025314138 -5.6657044e-10 0)
(-0.0025166483 -5.4317448e-10 -6.4755872e-20)
(-0.0025017826 -5.2042688e-10 0)
(-0.0024868062 -4.9820736e-10 0)
(-0.0024717083 -4.7656497e-10 0)
(-0.002456473 -4.555645e-10 0)
(-0.0024410828 -4.351102e-10 0)
(-0.0024255245 -4.1511219e-10 0)
(-0.0024097839 -3.9564062e-10 0)
(-0.0023938395 -3.7672531e-10 0)
(-0.0023776704 -3.5823481e-10 4.2514117e-20)
(-0.0023612624 -3.4029024e-10 -4.0362532e-20)
(-0.0023449522 -3.2334051e-10 0)
(-0.0023292533 -3.0762106e-10 0)
(-0.002314312 -2.9311198e-10 0)
(-0.0023000687 -2.7976088e-10 0)
(-0.0022864663 -2.6747144e-10 0)
(-0.0022734549 -2.5609748e-10 0)
(-0.0022609923 -2.4553986e-10 0)
(-0.0022490384 -2.3576388e-10 0)
(-0.0022375547 -2.2671919e-10 -2.6780642e-20)
(-0.0022265064 -2.183016e-10 0)
(-0.0022158651 -2.1043735e-10 0)
(-0.0022056035 -2.0311416e-10 0)
(-0.0021956947 -1.9631272e-10 0)
(-0.0021861134 -1.9002455e-10 0)
(-0.0021768334 -1.8417091e-10 0)
(-0.0021678373 -1.7885945e-10 0)
(-0.0021590882 -1.7389148e-10 0)
(-0.0021505889 -1.7014257e-10 0)
(-0.0021422146 -1.6603962e-10 0)
(-0.0021341276 -1.6642653e-10 0)
(-0.0021257137 -3.0528074e-10 0)
(-0.0021182804 -1.9559525e-10 -2.314557e-20)
(-0.0021062495 -2.3323559e-10 0)
)
;
    }
    back
    {
        type            empty;
    }
    front
    {
        type            empty;
    }
    inlet
    {
        type            calculated;
        value           uniform (0 0 0);
    }
    outlet
    {
        type            calculated;
        value           uniform (0 0 0);
    }
    top
    {
        type            calculated;
        value           uniform (0 0 0);
    }
    slipsurface
    {
        type            calculated;
        value           uniform (0 0 0);
    }
}


// ************************************************************************* //
