/*--------------------------------*- C++ -*----------------------------------*\
  =========                 |
  \\      /  F ield         | OpenFOAM: The Open Source CFD Toolbox
   \\    /   O peration     | Website:  https://openfoam.org
    \\  /    A nd           | Version:  12
     \\/     M anipulation  |
\*---------------------------------------------------------------------------*/
FoamFile
{
    format      ascii;
    class       volScalarField;
    location    "1300";
    object      omega;
}
// * * * * * * * * * * * * * * * * * * * * * * * * * * * * * * * * * * * * * //

dimensions      [0 0 -1 0 0 0 0];

internalField   nonuniform List<scalar> 
13056
(
414.27482
167.6204
95.563021
73.471813
65.52102
62.015891
60.124591
58.946207
58.144866
57.570014
57.142728
56.81684
56.563289
56.362824
56.202158
56.071907
55.964956
55.877078
55.80073
55.747817
55.656985
55.745904
55.20735
120.49308
15925793
15925793
15925793
15925793
15925793
15925793
15925793
15925793
15925793
15925793
15925793
15925793
15925793
15925793
15925793
15925793
15925793
15925793
15925793
15925793
15925793
15925793
15925793
15925793
15925793
15925793
15925793
15925793
15925793
15925793
15925793
15925793
15925793
15925793
15925793
15925793
15925793
15925793
15925793
15925793
15925793
15925793
15925793
15925793
15925793
15925793
15925793
15925793
15925793
15925793
15925793
15925793
15925793
15925793
15925793
15925793
15925793
15925793
15925793
15925793
15925793
15925793
15925793
15925793
15925793
15925793
15925793
15925793
15925793
15925793
15925793
15925793
15925793
15925793
15925793
15925793
15925793
15925793
15925793
15925793
15925793
15925793
15925793
15925793
15925793
15925793
15925793
15925793
15925793
15925793
15925793
15925793
15925793
15925793
15925793
15925793
15925793
15925793
15925793
15925793
15925793
15925793
15925793
15925793
15925793
15925793
15925793
15925793
15925793
15925793
15925793
15925793
414.27465
167.62256
95.563385
73.468295
65.515465
62.009059
60.116895
58.937896
58.136101
57.560904
57.133351
56.807251
56.55353
56.352925
56.192143
56.061795
55.95476
55.86681
55.790398
55.737428
55.64654
55.735788
55.195342
117.26682
2727967.8
2723730.7
2723622.8
2723622.7
2723615
2723603.4
2723592.3
2723582.8
2723574.8
2723567.9
2723561.9
2723556.6
2723551.8
2723547.4
2723543.3
2723539.6
2723536.1
2723532.9
2723530
2723527.2
2723524.6
2723522.1
2723519.8
2723517.6
2723515.6
2723513.6
2723511.7
2723509.9
2723508.2
2723506.5
2723505
2723503.4
2723502
2723500.6
2723499.2
2723497.9
2723496.6
2723495.3
2723494.1
2723492.9
2723491.8
2723490.7
2723489.6
2723488.5
2723487.5
2723486.4
2723485.4
2723484.4
2723483.5
2723482.5
2723481.6
2723480.7
2723479.8
2723478.9
2723478
2723477.1
2723476.3
2723475.4
2723474.6
2723473.8
2723473
2723472.2
2723471.4
2723470.6
2723469.8
2723469
2723468.2
2723467.4
2723466.7
2723465.9
2723465.2
2723464.4
2723463.6
2723462.9
2723462.1
2723461.4
2723460.6
2723459.9
2723459.1
2723458.3
2723457.6
2723456.8
2723456.1
2723455.3
2723454.5
2723453.7
2723452.9
2723452.1
2723451.3
2723450.5
2723449.8
2723449.1
2723448.4
2723447.7
2723447.1
2723446.5
2723445.9
2723445.4
2723444.9
2723444.4
2723443.9
2723443.4
2723443
2723442.5
2723442.1
2723441.7
2723441.3
2723440.9
2723440.6
2723440.2
2723439.9
2723439.3
414.2741
167.6302
95.563953
73.455457
65.496013
61.985554
60.09066
58.909715
58.106484
57.530198
57.1018
56.775033
56.520774
56.319729
56.15858
56.027922
55.920622
55.832441
55.755828
55.702672
55.611624
55.701401
55.157354
113.62898
912023.52
910425.17
910282.84
910281.55
910254.35
910219
910186.51
910159.04
910135.73
910115.6
910097.96
910082.32
910068.08
910055.05
910043.07
910032.04
910021.87
910012.44
910003.65
909995.43
909987.71
909980.44
909973.56
909967.05
909960.88
909955
909949.4
909944.05
909938.91
909934
909929.27
909924.72
909920.34
909916.11
909912.01
909908.04
909904.2
909900.47
909896.84
909893.31
909889.87
909886.5
909883.21
909879.99
909876.85
909873.77
909870.76
909867.8
909864.9
909862.06
909859.26
909856.5
909853.79
909851.12
909848.48
909845.88
909843.31
909840.78
909838.27
909835.79
909833.33
909830.89
909828.48
909826.09
909823.71
909821.36
909819.01
909816.68
909814.36
909812.06
909809.76
909807.47
909805.18
909802.9
909800.62
909798.34
909796.06
909793.78
909791.49
909789.2
909786.91
909784.6
909782.28
909779.95
909777.61
909775.24
909772.86
909770.45
909768.02
909765.62
909763.31
909761.12
909759.04
909757.05
909755.16
909753.36
909751.63
909749.98
909748.39
909746.87
909745.41
909744
909742.65
909741.34
909740.07
909738.85
909737.66
909736.5
909735.39
909734.24
909733.23
909731.58
414.27314
167.64349
95.56478
73.433005
65.462165
61.944747
60.045165
58.86088
58.055182
57.477027
57.04718
56.719266
56.464084
56.262282
56.100504
55.969312
55.861556
55.772978
55.69602
55.642543
55.551226
55.641689
55.092362
109.92047
424450.4
421871.14
421640.24
421632.4
421574.03
421500.69
421433.85
421377.37
421329.39
421287.91
421251.54
421219.27
421189.86
421162.93
421138.17
421115.36
421094.32
421074.79
421056.58
421039.55
421023.54
421008.45
420994.19
420980.68
420967.86
420955.64
420944
420932.88
420922.21
420911.98
420902.15
420892.68
420883.55
420874.74
420866.21
420857.95
420849.94
420842.17
420834.6
420827.24
420820.05
420813.02
420806.15
420799.44
420792.89
420786.47
420780.17
420774
420767.94
420761.99
420756.14
420750.38
420744.71
420739.12
420733.61
420728.17
420722.8
420717.5
420712.25
420707.05
420701.91
420696.81
420691.76
420686.75
420681.77
420676.83
420671.92
420667.03
420662.18
420657.34
420652.52
420647.71
420642.92
420638.14
420633.35
420628.56
420623.78
420618.99
420614.2
420609.38
420604.56
420599.72
420594.85
420589.95
420585.02
420580.05
420575.04
420569.98
420564.87
420559.8
420554.95
420550.34
420545.95
420541.77
420537.79
420534
420530.36
420526.88
420523.54
420520.34
420517.26
420514.29
420511.43
420508.67
420506.01
420503.42
420500.92
420498.48
420496.13
420493.7
420491.57
420488.1
414.27175
167.66273
95.56595
73.400483
65.413144
61.885654
59.979286
58.790164
57.980895
57.400031
56.968085
56.63851
56.38199
56.179091
56.016399
55.884436
55.776018
55.686864
55.609404
55.555461
55.463757
55.555018
54.998705
106.20074
238258.33
234345.33
233976.1
233950.09
233848.93
233725.08
233612.67
233517.63
233436.8
233366.86
233305.48
233250.97
233201.27
233155.73
233113.83
233075.21
233039.55
233006.43
232975.54
232946.64
232919.45
232893.81
232869.56
232846.58
232824.76
232803.96
232784.14
232765.18
232747
232729.56
232712.79
232696.63
232681.04
232666
232651.43
232637.3
232623.62
232610.33
232597.38
232584.78
232572.48
232560.45
232548.7
232537.21
232525.97
232514.97
232504.18
232493.6
232483.22
232473.01
232462.97
232453.09
232443.35
232433.76
232424.29
232414.95
232405.72
232396.6
232387.57
232378.64
232369.8
232361.03
232352.33
232343.71
232335.14
232326.64
232318.18
232309.76
232301.39
232293.06
232284.75
232276.46
232268.19
232259.94
232251.69
232243.43
232235.17
232226.9
232218.62
232210.31
232201.97
232193.61
232185.19
232176.71
232168.19
232159.6
232150.92
232142.16
232133.31
232124.54
232116.13
232108.16
232100.55
232093.31
232086.41
232079.82
232073.52
232067.48
232061.69
232056.13
232050.78
232045.63
232040.66
232035.87
232031.25
232026.76
232022.42
232018.17
232014.08
232009.87
232006.16
232000.13
414.26991
167.68831
95.567587
73.357297
65.347926
61.806968
59.891523
58.69593
57.88188
57.29739
56.862633
56.530834
56.272521
56.068152
55.904236
55.771237
55.661933
55.572007
55.493874
55.439307
55.347084
55.439198
54.87414
102.47317
151053.79
146087.96
145517.54
145452.7
145298.98
145116.3
144951.02
144811.09
144691.91
144588.67
144497.97
144417.34
144343.79
144276.34
144214.21
144156.89
144103.92
144054.68
144008.72
143965.68
143925.17
143886.94
143850.75
143816.43
143783.82
143752.73
143723.07
143694.7
143667.47
143641.34
143616.21
143591.96
143568.58
143545.99
143524.11
143502.88
143482.31
143462.31
143442.84
143423.87
143405.35
143387.24
143369.52
143352.2
143335.27
143318.67
143302.4
143286.42
143270.74
143255.32
143240.15
143225.21
143210.49
143195.98
143181.66
143167.52
143153.55
143139.73
143126.06
143112.52
143099.12
143085.82
143072.63
143059.54
143046.54
143033.62
143020.77
143007.99
142995.27
142982.59
142969.95
142957.34
142944.77
142932.2
142919.63
142907.05
142894.47
142881.87
142869.24
142856.56
142843.85
142831.08
142818.22
142805.28
142792.26
142779.12
142765.86
142752.47
142738.93
142725.5
142712.63
142700.41
142688.76
142677.66
142667.08
142656.99
142647.32
142638.05
142629.17
142620.64
142612.43
142604.52
142596.89
142589.53
142582.42
142575.53
142568.85
142562.32
142556.04
142549.56
142543.86
142534.58
414.26756
167.7207
95.569852
73.302755
65.265274
61.707098
59.780043
58.576168
57.755997
57.166864
56.728503
56.393853
56.133242
55.926989
55.761502
55.627177
55.516735
55.425819
55.346824
55.291456
55.198568
55.291497
54.71589
98.728577
104640.17
99036.108
98184.277
98048.196
97835.423
97592.376
97373.206
97187.301
97028.675
96891.086
96770.053
96662.31
96563.968
96473.673
96390.399
96313.482
96242.3
96176.071
96114.177
96056.156
96001.49
95949.847
95900.923
95854.491
95810.329
95768.183
95727.958
95689.446
95652.45
95616.925
95582.735
95549.73
95517.872
95487.085
95457.232
95428.266
95400.168
95372.848
95346.223
95320.279
95294.933
95270.134
95245.872
95222.139
95198.917
95176.155
95153.815
95131.882
95110.337
95089.146
95068.284
95047.733
95027.472
95007.487
94987.757
94968.266
94949
94929.939
94911.066
94892.379
94873.86
94855.484
94837.246
94819.14
94801.154
94783.271
94765.475
94747.761
94730.128
94712.557
94695.022
94677.518
94660.053
94642.604
94625.131
94607.638
94590.137
94572.608
94555.02
94537.364
94519.647
94501.842
94483.914
94465.862
94447.681
94429.334
94410.799
94392.077
94373.137
94354.346
94336.322
94319.215
94302.883
94287.326
94272.498
94258.331
94244.763
94231.755
94219.28
94207.299
94195.763
94184.641
94173.915
94163.565
94153.562
94143.864
94134.462
94125.264
94116.413
94107.296
94099.254
94086.179
414.26468
167.76042
95.572957
73.236102
65.163787
61.584216
59.642721
58.428541
57.60075
57.005832
56.562982
56.224777
55.9613
55.752696
55.585252
55.44927
55.33741
55.245258
55.165188
55.10882
55.0151
55.108799
54.520586
94.95686
77662.134
71895.364
70657.263
70404.234
70130.319
69834.16
69568.274
69342.235
69148.999
68981.151
68833.282
68701.439
68581.039
68470.342
68368.085
68273.481
68185.793
68104.086
68027.621
67955.844
67888.13
67824.082
67763.334
67705.614
67650.653
67598.146
67547.978
67499.899
67453.669
67409.233
67366.429
67325.071
67285.116
67246.47
67208.967
67172.55
67137.193
67102.792
67069.239
67036.52
67004.539
66973.236
66942.589
66912.589
66883.215
66854.404
66826.108
66798.31
66770.985
66744.092
66717.599
66691.486
66665.724
66640.299
66615.182
66590.354
66565.798
66541.489
66517.406
66493.545
66469.886
66446.396
66423.067
66399.894
66376.862
66353.948
66331.133
66308.409
66285.777
66263.21
66240.677
66218.172
66195.702
66173.241
66150.735
66128.191
66105.622
66083.004
66060.297
66037.488
66014.586
65991.557
65968.354
65944.976
65921.416
65897.626
65873.576
65849.267
65824.659
65800.228
65776.78
65754.51
65733.244
65712.974
65693.644
65675.166
65657.46
65640.476
65624.18
65608.522
65593.441
65578.894
65564.859
65551.31
65538.21
65525.507
65513.185
65501.127
65489.519
65477.561
65467.007
65449.841
414.2612
167.80802
95.577165
73.156573
65.041953
61.436306
59.477196
58.250437
57.413339
56.81135
56.36301
56.020456
55.753471
55.541989
55.372147
55.234138
55.12054
55.026875
54.945487
54.887897
54.793154
54.887589
54.284378
91.150994
60845.834
55393.698
53645.754
53219.165
52885.997
52552.216
52254.754
52001.354
51784.402
51595.755
51429.342
51280.728
51145.026
51020.088
50904.465
50797.291
50697.767
50604.874
50517.797
50435.927
50358.574
50285.299
50215.699
50149.473
50086.328
50025.923
49968.132
49912.68
49859.298
49807.924
49758.382
49710.462
49664.114
49619.238
49575.645
49533.271
49492.088
49451.98
49412.825
49374.605
49337.23
49300.627
49264.762
49229.621
49195.183
49161.378
49128.148
49095.475
49063.331
49031.67
49000.456
48969.662
48939.26
48909.231
48879.542
48850.173
48821.102
48792.301
48763.747
48735.434
48707.338
48679.423
48651.678
48624.098
48596.665
48569.352
48542.136
48515.009
48487.971
48460.991
48434.031
48407.083
48380.158
48353.223
48326.214
48299.138
48272.011
48244.804
48217.469
48189.989
48162.376
48134.587
48106.565
48078.309
48049.809
48021.007
47991.864
47962.383
47932.513
47902.832
47874.319
47847.219
47821.331
47796.637
47773.07
47750.527
47728.91
47708.162
47688.243
47669.091
47650.635
47632.821
47615.626
47599.017
47582.952
47567.363
47552.237
47537.427
47523.164
47508.464
47495.483
47474.36
414.25709
167.86408
95.582797
73.063452
64.898209
61.261233
59.280935
58.039033
57.190719
56.580206
56.125241
55.777437
55.506215
55.291256
55.118516
54.978057
54.862359
54.766865
54.683884
54.624819
54.528835
54.62398
54.003031
87.31692
49648.253
44930.871
42557.235
41898.445
41509.095
41156.667
40846.681
40582.419
40356.115
40159.363
39985.717
39830.489
39688.972
39558.564
39437.679
39325.421
39220.982
39123.336
39031.652
38945.306
38863.596
38786.071
38712.32
38642.037
38574.924
38510.632
38449.031
38389.845
38332.792
38277.812
38224.725
38173.312
38123.522
38075.256
38028.317
37982.635
37938.185
37894.849
37852.497
37811.108
37770.619
37730.95
37692.042
37653.879
37616.44
37579.654
37543.458
37507.832
37472.747
37438.158
37404.023
37370.316
37337.005
37304.072
37271.482
37239.212
37207.24
37175.535
37144.073
37112.848
37081.835
37050.991
37020.309
36989.78
36959.386
36929.097
36898.888
36868.751
36838.684
36808.654
36778.619
36748.571
36718.518
36688.427
36658.225
36627.919
36597.528
36567.017
36536.333
36505.457
36474.4
36443.113
36411.533
36379.657
36347.471
36314.911
36281.931
36248.531
36214.653
36180.952
36148.542
36117.71
36088.245
36060.114
36033.241
36007.514
35982.823
35959.104
35936.315
35914.387
35893.24
35872.815
35853.085
35834.015
35815.558
35797.637
35780.236
35763.19
35746.764
35729.823
35714.856
35690.48
414.25228
167.92912
95.590229
72.956144
64.731015
61.056807
59.051297
57.791356
56.929672
56.308985
55.846108
55.49203
55.215741
54.996624
54.820417
54.677024
54.558813
54.461131
54.376244
54.315413
54.217939
54.313768
53.672018
83.467284
41657.448
37994.084
34932.371
33993.441
33548.259
33192.376
32886.187
32625.684
32403.052
32209.937
32039.717
31887.61
31749.547
31622.361
31504.361
31394.644
31292.43
31196.745
31106.788
31021.957
30941.577
30865.214
30792.472
30723.057
30656.686
30593.021
30531.939
30473.179
30416.468
30361.746
30308.844
30257.551
30207.815
30159.545
30112.551
30066.76
30022.152
29978.616
29936.024
29894.348
29853.585
29813.642
29774.428
29735.922
29698.106
29660.913
29624.279
29588.181
29552.597
29517.48
29482.79
29448.499
29414.575
29381.003
29347.75
29314.788
29282.097
29249.648
29217.416
29185.394
29153.557
29121.862
29090.302
29058.87
29027.543
28996.293
28965.094
28933.938
28902.824
28871.715
28840.569
28809.378
28778.149
28746.848
28715.398
28683.807
28652.094
28620.22
28588.13
28555.804
28523.252
28490.422
28457.247
28423.72
28389.829
28355.501
28320.688
28285.388
28249.537
28213.827
28179.441
28146.696
28115.399
28085.487
28056.881
28029.466
28003.129
27977.806
27953.452
27929.997
27907.357
27885.473
27864.317
27843.852
27824.028
27804.767
27786.051
27767.702
27750.01
27731.745
27715.603
27689.284
414.24672
168.00364
95.599888
72.834258
64.538942
60.820878
58.785622
57.504377
56.626882
55.994151
55.5219
55.160382
54.878082
54.654028
54.473703
54.326828
54.205631
54.105349
54.018198
53.955271
53.856022
53.952492
53.286635
79.621471
35521.635
33134.876
29416.754
28168.615
27662.874
27310.057
27016.44
26768.095
26556.872
26374.574
26214.48
26071.763
25943.328
25825.267
25715.788
25613.981
25519.098
25430.247
25346.68
25267.828
25193.072
25122.002
25054.252
24989.549
24927.63
24868.187
24811.101
24756.139
24703.05
24651.772
24602.158
24554.011
24507.279
24461.884
24417.655
24374.515
24332.45
24291.362
24251.13
24211.722
24173.219
24135.517
24098.474
24062.064
24026.276
23991.048
23956.318
23922.064
23888.267
23854.886
23821.882
23789.225
23756.888
23724.86
23693.108
23661.604
23630.329
23599.258
23568.368
23537.651
23507.08
23476.618
23446.259
23415.995
23385.802
23355.654
23325.527
23295.414
23265.31
23235.182
23204.988
23174.721
23144.387
23113.95
23083.339
23052.559
23021.626
22990.503
22959.136
22927.504
22895.615
22863.417
22830.842
22797.885
22764.529
22730.702
22696.354
22661.481
22626.017
22590.647
22556.543
22524.036
22492.982
22463.268
22434.821
22407.527
22381.281
22356.019
22331.7
22308.256
22285.607
22263.694
22242.492
22221.965
22202.065
22182.714
22163.897
22145.433
22127.619
22109.204
22092.929
22066.354
414.24038
168.08801
95.612237
72.697711
64.320771
60.55143
58.481333
57.1751
56.279035
55.632144
55.148857
54.778572
54.489185
54.259306
54.074122
53.923134
53.798413
53.695059
53.605235
53.539835
53.43849
53.535514
52.842166
75.806653
30469.131
29482.027
25246.662
23699.738
23125.015
22773.119
22492.992
22258.46
22060.452
21890.856
21742.823
21611.45
21494.852
21388.12
21289.36
21197.639
21112.225
21032.305
20957.187
20886.335
20819.187
20755.362
20694.523
20636.415
20580.8
20527.398
20476.096
20426.691
20378.958
20332.833
20288.188
20244.849
20202.76
20161.858
20121.992
20083.086
20045.127
20008.036
19971.7
19936.083
19901.377
19867.457
19834.12
19801.33
19769.081
19737.323
19705.996
19675.075
19644.549
19614.383
19584.539
19554.988
19525.707
19496.689
19467.904
19439.323
19410.929
19382.702
19354.623
19326.681
19298.85
19271.099
19243.424
19215.815
19188.249
19160.703
19133.158
19105.604
19078.036
19050.423
19022.73
18994.948
18967.082
18939.096
18910.928
18882.582
18854.069
18825.355
18796.39
18767.155
18737.654
18707.837
18677.643
18647.065
18616.083
18584.632
18552.662
18520.167
18487.083
18454.049
18422.162
18391.749
18362.743
18334.964
18308.341
18282.774
18258.164
18234.456
18211.613
18189.573
18168.262
18147.628
18127.647
18108.288
18089.505
18071.226
18053.44
18035.972
18019.112
18001.653
17986.231
17961.004
414.2332
168.18247
95.627739
72.546854
64.07561
60.246706
58.136055
56.800688
55.882941
55.21949
54.723283
54.342723
54.045021
53.808305
53.617415
53.461596
53.332732
53.225771
53.132805
53.064498
52.960696
53.058096
52.334108
72.058231
26066.831
26494.197
21967.415
20167.288
19519.316
19164.348
18896.605
18675.791
18491.097
18334.381
18198.677
18078.99
17973.499
17877.493
17788.99
17707.014
17630.824
17559.668
17492.898
17430.004
17370.472
17313.946
17260.11
17208.727
17159.573
17112.399
17067.091
17023.476
16981.351
16940.648
16901.26
16863.029
16825.9
16789.819
16754.657
16720.337
16686.848
16654.127
16622.07
16590.636
16560.16
16530.482
16501.318
16472.623
16444.397
16416.599
16389.171
16362.09
16335.346
16308.915
16282.759
16256.85
16231.168
16205.711
16180.452
16155.361
16130.423
16105.624
16080.948
16056.382
16031.902
16007.482
15983.12
15958.808
15934.52
15910.238
15885.947
15861.637
15837.303
15812.915
15788.444
15763.885
15739.236
15714.468
15689.526
15664.414
15639.139
15613.669
15587.961
15561.999
15535.782
15509.267
15482.399
15455.169
15427.561
15399.512
15370.979
15341.954
15312.379
15282.824
15254.27
15227.036
15201.156
15176.355
15152.568
15129.708
15107.689
15086.462
15065.996
15046.236
15027.118
15008.595
14990.648
14973.249
14956.357
14939.91
14923.896
14908.158
14892.964
14877.199
14863.289
14840.491
414.22517
168.28706
95.646806
72.382616
63.803034
59.905351
57.747759
56.378608
55.435672
54.752952
54.241688
53.84914
53.541728
53.297021
53.099457
52.937986
52.804274
52.693089
52.596445
52.524734
52.418076
52.515511
51.758475
68.417036
22086.054
23831.451
19301.244
17311.004
16590.814
16228.798
15971.826
15764.204
15592.429
15448.173
15324.4
15216.052
15120.484
15034.092
14954.859
14881.753
14814.008
14750.907
14691.845
14636.329
14583.884
14534.178
14486.91
14441.853
14398.802
14357.527
14317.915
14279.818
14243.053
14207.55
14173.214
14139.91
14107.578
14076.171
14045.583
14015.736
13986.616
13958.178
13930.327
13903.017
13876.568
13850.85
13825.589
13800.735
13776.29
13752.223
13728.479
13705.033
13681.88
13659.002
13636.364
13613.936
13591.703
13569.665
13547.801
13526.079
13504.485
13483.012
13461.645
13440.369
13419.164
13398.007
13376.9
13355.833
13334.782
13313.73
13292.668
13271.588
13250.479
13229.319
13208.082
13186.765
13165.364
13143.852
13122.186
13100.367
13078.401
13056.256
13033.898
13011.312
12988.496
12965.411
12942.011
12918.287
12894.222
12869.762
12844.87
12819.535
12793.707
12767.885
12742.923
12719.136
12696.677
12675.149
12654.492
12634.63
12615.491
12597.033
12579.229
12562.032
12545.386
12529.254
12513.616
12498.449
12483.72
12469.371
12455.396
12441.653
12428.386
12414.591
12402.441
12382.481
414.21626
168.40155
95.669919
72.206447
63.503235
59.526582
57.314938
55.906802
54.93474
54.229697
53.700961
53.294482
52.975773
52.721761
52.51642
52.348359
52.208993
52.092881
51.991947
51.91626
51.806316
51.903164
51.11222
64.925272
18420.611
21278.396
17076.711
14971.476
14182.558
13808.002
13558.26
13361.663
13201.013
13067.533
12954.123
12855.667
12768.942
12691.109
12620.173
12555.046
12494.921
12439.103
12387.022
12338.201
12292.2
12248.71
12207.439
12168.17
12130.708
12094.846
12060.471
12027.452
11995.63
11964.928
11935.265
11906.523
11878.64
11851.576
11825.241
11799.561
11774.519
11750.08
11726.164
11702.72
11679.937
11657.754
11635.984
11614.571
11593.518
11572.801
11552.371
11532.201
11512.287
11492.618
11473.163
11453.891
11434.788
11415.859
11397.084
11378.433
11359.893
11341.46
11323.123
11304.866
11286.668
11268.514
11250.406
11232.334
11214.275
11196.216
11178.149
11160.067
11141.961
11123.809
11105.593
11087.309
11068.952
11050.498
11031.913
11013.2
10994.359
10975.362
10956.181
10936.804
10917.227
10897.416
10877.333
10856.971
10836.312
10815.31
10793.933
10772.172
10749.983
10727.794
10706.34
10685.896
10666.626
10648.154
10630.425
10613.374
10596.941
10581.091
10565.797
10551.022
10536.717
10522.851
10509.408
10496.366
10483.696
10471.352
10459.327
10447.495
10436.077
10424.176
10413.72
10396.497
414.20649
168.52539
95.697755
72.020239
63.177194
59.110383
56.836814
55.383899
54.378306
53.647508
53.098576
52.675969
52.344164
52.079353
51.864981
51.689261
51.543321
51.421478
51.315554
51.235232
51.121548
51.216743
50.393816
61.622904
15031.276
18726.711
15176.808
13043.218
12192.431
11799.789
11552.895
11364.457
11212.636
11087.838
10982.847
10892.481
10813.133
10742.449
10678.492
10620.113
10566.452
10516.821
10470.676
10427.558
10387.057
10348.88
10312.744
10278.433
10245.765
10214.548
10184.672
10156.018
10128.447
10101.879
10076.242
10051.434
10027.391
10004.077
9981.4181
9959.3432
9937.8311
9916.8571
9896.3527
9876.2646
9856.6959
9837.6275
9818.9338
9800.5572
9782.4976
9764.7402
9747.2409
9729.9706
9712.9271
9696.1031
9679.4711
9663.0018
9646.6819
9630.5175
9614.4937
9598.5808
9582.7654
9567.0469
9551.4171
9535.86
9520.3568
9504.8945
9489.4768
9474.0944
9458.7257
9443.3589
9427.99
9412.6131
9397.2173
9381.7847
9366.3007
9350.7637
9335.167
9319.4886
9303.7078
9287.8234
9271.8312
9255.7088
9239.4327
9222.9932
9206.3853
9189.5803
9172.5464
9155.2776
9137.7579
9119.9486
9101.8232
9083.3718
9064.558
9045.7461
9027.5571
9010.2085
8993.7873
8978.049
8962.943
8948.4143
8934.4114
8920.9046
8907.8716
8895.2791
8883.0875
8871.2688
8859.81
8848.692
8837.8904
8827.3645
8817.1116
8807.0184
8797.2833
8787.1131
8778.2014
8763.4786
414.19589
168.65766
95.73101
71.826559
62.826854
58.657723
56.313565
54.809456
53.765427
53.005034
52.432846
51.991632
51.644696
51.367394
51.142563
50.957969
50.804407
50.675916
50.564205
50.478487
50.360605
50.452403
49.604056
58.543075
11918.425
16166.159
13514.579
11447.666
10546.71
10131.727
9883.2285
9699.9456
9554.6569
9436.4993
9338.0461
9254.0256
9180.5717
9115.6373
9057.3554
9004.5001
8956.1471
8911.6008
8870.3397
8831.9166
8795.956
8762.1758
8730.2876
8700.0783
8671.3775
8644.0059
8617.8543
8592.8145
8568.762
8545.6184
8523.3161
8501.7665
8480.9068
8460.7006
8441.0886
8422.0039
8403.4207
8385.3208
8367.6471
8350.3468
8333.4677
8317.0141
8300.9022
8285.0755
8269.5311
8254.2595
8239.2226
8224.3909
8209.7614
8195.3303
8181.0741
8166.965
8152.9899
8139.155
8125.4494
8111.8454
8098.3296
8084.9027
8071.5588
8058.2829
8045.0577
8031.8722
8018.7306
8005.6249
7992.5352
7979.451
7966.37
7953.2873
7940.1927
7927.0704
7913.909
7900.7079
7887.46
7874.1459
7860.7578
7847.2893
7833.7332
7820.07
7806.2808
7792.3578
7778.2955
7764.0697
7749.6546
7735.0448
7720.2259
7705.1656
7689.8422
7674.246
7658.3472
7642.4542
7627.0902
7612.4284
7598.5073
7585.1696
7572.3694
7560.0597
7548.1971
7536.7564
7525.7176
7515.0525
7504.728
7494.7202
7485.018
7475.6043
7466.4588
7457.5468
7448.8669
7440.3198
7432.0809
7423.4566
7415.9223
7403.4268
414.18452
168.79698
95.770357
71.628683
62.455299
58.170795
55.746594
54.184235
53.096338
52.302078
51.703211
51.240608
50.876248
50.584542
50.347638
50.152791
49.990416
49.854234
49.735826
49.643836
49.521314
49.607007
48.747164
55.707566
9108.6641
13648.418
12022.702
10119.638
9186.7198
8747.5688
8493.4192
8312.4174
8171.566
8058.2525
7964.6975
7885.5109
7816.6688
7756.3001
7702.6066
7654.2454
7610.2228
7569.8272
7532.5526
7497.9622
7465.7245
7435.554
7407.1501
7380.3022
7354.849
7330.6225
7307.5165
7285.4289
7264.2485
7243.8987
7224.3152
7205.4204
7187.1537
7169.4782
7152.3446
7135.6924
7119.4917
7103.7276
7088.3535
7073.319
7058.6374
7044.323
7030.3211
7016.5789
7003.0899
6989.8482
6976.8221
6963.9824
6951.3244
6938.8465
6926.5294
6914.3474
6902.2871
6890.3537
6878.5399
6866.821
6855.1832
6843.6271
6832.1491
6820.7359
6809.3714
6798.0459
6786.7631
6775.517
6764.2896
6753.0712
6741.8601
6730.6528
6719.4398
6708.2073
6696.9459
6685.6553
6674.3292
6662.9504
6651.5269
6640.0431
6628.4892
6616.8481
6605.1044
6593.2517
6581.2848
6569.183
6556.9251
6544.5064
6531.9144
6519.1218
6506.1107
6492.8722
6479.3817
6465.9015
6452.874
6440.4391
6428.6071
6417.2756
6406.4034
6395.9502
6385.8792
6376.1684
6366.8005
6357.7511
6348.9924
6340.504
6332.276
6324.2936
6316.5395
6308.9843
6301.6273
6294.3819
6287.4022
6280.0854
6273.7132
6263.0945
414.1725
168.9415
95.816395
71.430588
62.066903
57.653256
55.138808
53.510504
52.372775
51.539924
50.910573
50.423474
50.039121
49.73086
49.480063
49.273404
49.100868
48.955811
48.829677
48.730404
48.602841
48.678455
47.832302
53.122133
6549.1913
11279.281
10645.679
9000.9787
8062.9726
7601.0138
7337.8696
7156.5002
7018.2207
6908.2225
6818.1985
6742.6003
6677.3702
6620.6748
6570.7689
6526.1308
6485.7002
6448.7471
6414.7746
6383.3547
6354.2101
6327.0383
6301.5218
6277.4534
6254.6807
6233.0449
6212.4441
6192.7807
6173.954
6155.8908
6138.5294
6121.8007
6105.6478
6090.0331
6074.9142
6060.2376
6045.9708
6032.0999
6018.5872
6005.3864
5992.4901
5979.9136
5967.6224
5955.5697
5943.7454
5932.1457
5920.7446
5909.5149
5898.4496
5887.5476
5876.794
5866.1658
5855.6491
5845.2474
5834.9559
5824.754
5814.6276
5804.5764
5794.598
5784.6815
5774.8123
5764.9812
5755.1909
5745.4372
5735.7047
5725.9838
5716.2731
5706.5697
5696.8656
5687.1489
5677.411
5667.6514
5657.8651
5648.0373
5638.194
5628.3071
5618.3641
5608.3501
5598.2523
5588.0652
5577.7839
5567.3913
5556.8692
5546.2135
5535.4135
5524.446
5513.2959
5501.9554
5490.4039
5478.8664
5467.7205
5457.0813
5446.9425
5437.2366
5427.9269
5418.9787
5410.3602
5402.0523
5394.0394
5386.3007
5378.8125
5371.5571
5364.5257
5357.7054
5351.0813
5344.6284
5338.3463
5332.1598
5326.2033
5319.9555
5314.5306
5305.438
414.15998
169.08885
95.869569
71.236871
61.667432
57.110454
54.494903
52.792359
51.598311
50.721691
50.057663
49.542625
49.135418
48.808199
48.541467
48.321245
48.13703
47.981762
47.84674
47.739022
47.606078
47.666201
46.875605
50.77071
4476.0988
9132.805
9352.5818
8039.1807
7132.666
6652.8184
6378.3282
6194.2273
6056.8444
5948.8515
5861.2231
5788.2061
5725.8779
5672.2475
5625.5839
5584.1259
5546.7634
5512.7489
5481.5875
5452.8598
5426.333
5401.6865
5378.5941
5356.8546
5336.3229
5316.849
5298.3352
5280.6878
5263.8137
5247.6448
5232.1215
5217.1809
5202.7709
5188.8533
5175.3901
5162.335
5149.6545
5137.3339
5125.3425
5113.6398
5102.2062
5091.0531
5080.1595
5069.4861
5059.0199
5048.7572
5038.678
5028.7575
5018.9864
5009.3634
4999.8771
4990.508
4981.2416
4972.0793
4963.0183
4954.0419
4945.1364
4936.2998
4927.5304
4918.8199
4910.1555
4901.5278
4892.9382
4884.3843
4875.8533
4867.3359
4858.8299
4850.3333
4841.8397
4833.3386
4824.8218
4816.2885
4807.7352
4799.1492
4790.5701
4781.9593
4773.3032
4764.5891
4755.8055
4746.9474
4738.0111
4728.9817
4719.8437
4710.593
4701.2207
4691.7073
4682.0392
4672.2096
4662.2015
4652.2097
4642.5607
4633.351
4624.5645
4616.1557
4608.0928
4600.3453
4592.8855
4585.6965
4578.7643
4572.0711
4565.5961
4559.324
4553.2467
4547.3531
4541.6303
4536.0566
4530.6319
4525.2909
4520.1505
4514.7613
4510.0946
4502.2194
414.14716
169.23616
95.930079
71.052596
61.264069
56.549605
53.821628
52.036033
50.778699
49.852704
49.149422
48.602664
48.169447
47.820607
47.535673
47.299934
47.102342
46.935366
46.790151
46.672666
46.534045
46.572184
45.879662
48.62749
2897.3733
7315.7229
8149.1299
7198.7471
6360.9136
5869.7923
5582.5916
5393.6741
5255.6302
5148.4769
5062.2774
4991.0215
4931.1146
4880.1346
4836.2665
4797.5384
4762.8155
4731.3339
4702.5924
4676.1789
4651.8228
4629.2375
4608.1282
4588.2995
4569.6108
4551.9179
4535.1271
4519.1458
4503.8874
4489.288
4475.2888
4461.832
4448.8694
4436.3622
4424.2753
4412.5689
4401.2086
4390.1785
4379.4536
4368.9986
4358.7861
4348.8227
4339.0971
4329.5764
4320.2454
4311.1004
4302.126
4293.2997
4284.6108
4276.0569
4267.6298
4259.3129
4251.0917
4242.9653
4234.9323
4226.9799
4219.0944
4211.2725
4203.5128
4195.8094
4188.1509
4180.5279
4172.9405
4165.3878
4157.8593
4150.3457
4142.8444
4135.3539
4127.8693
4120.3812
4112.8818
4105.3698
4097.8432
4090.2911
4082.7385
4075.1591
4067.5425
4059.8779
4052.1546
4044.3681
4036.5155
4028.5842
4020.5601
4012.4395
4004.2152
3995.87
3987.3919
3978.7751
3970.0051
3961.2524
3952.8027
3944.7387
3937.0381
3929.6698
3922.6067
3915.8219
3909.2907