/*--------------------------------*- C++ -*----------------------------------*\
  =========                 |
  \\      /  F ield         | OpenFOAM: The Open Source CFD Toolbox
   \\    /   O peration     | Website:  https://openfoam.org
    \\  /    A nd           | Version:  12
     \\/     M anipulation  |
\*---------------------------------------------------------------------------*/
FoamFile
{
    format      ascii;
    class       volScalarField;
    location    "1300";
    object      omega;
}
// * * * * * * * * * * * * * * * * * * * * * * * * * * * * * * * * * * * * * //

dimensions      [0 0 -1 0 0 0 0];

internalField   nonuniform List<scalar> 
7480
(
99.668428
99.668428
99.668428
99.668428
99.668428
99.668428
99.668428
99.668428
99.668428
99.668428
99.668428
99.668428
99.668428
425.17458
681.4129
848.44865
946.61966
996.85076
1022.6638
1021.7516
1016.2802
1006.0569
993.35095
979.75745
965.81486
951.79728
937.96955
924.70836
912.40402
900.9159
890.25856
880.4991
871.68191
863.80536
856.82292
850.65964
845.21739
840.40125
836.14803
832.41048
829.1215
826.19906
823.5701
821.16091
818.94022
816.81169
814.75607
812.74046
810.73238
808.71034
806.65077
804.52538
802.31551
800.0199
797.65112
795.22665
792.76348
790.27908
787.7891
785.30387
782.82844
780.36542
777.91824
775.49277
773.0948
770.72754
768.39413
766.09697
763.83385
761.59884
759.38756
757.19956
755.03609
752.89789
750.78684
748.70501
746.65053
744.6192
742.60833
740.61792
738.64905
736.70344
734.78243
732.88419
731.00513
729.14406
727.30107
725.47755
723.67492
721.89123
720.12359
718.37119
716.63467
714.91317
713.20875
711.50507
709.83575
708.06721
706.56738
703.81882
24.72962
24.769894
24.830879
24.899592
24.972721
25.049547
25.129434
25.212567
25.298092
25.39295
25.467063
25.679907
25.298555
27.771499
39.05322
67.464868
115.63707
179.13799
251.76815
316.42404
363.37563
394.72617
415.47177
429.71317
438.53512
441.28426
439.30779
434.22297
429.55115
428.32096
429.82819
432.58162
435.26479
436.99679
437.32135
436.11233
433.48089
429.71072
425.27583
420.41987
414.94492
408.90165
402.61153
396.27986
390.01699
383.91765
378.06103
372.50345
367.26879
362.3498
357.79816
353.60445
349.74673
346.20288
342.94937
339.95499
337.18601
334.60791
332.17281
329.85787
327.65505
325.55857
323.55786
321.64195
319.80334
318.03567
316.33325
314.68506
313.08042
311.51591
309.99277
308.51283
307.07669
305.68303
304.33007
303.01414
301.73002
300.47451
299.24781
298.05094
296.88405
295.74667
294.63606
293.54923
292.48426
291.44118
290.42073
289.42275
288.44559
287.48731
286.54639
285.62281
284.71726
283.82843
282.95592
282.09513
281.25594
280.40799
279.6665
278.40849
24.644347
24.494647
24.34358
24.190466
24.035121
23.877518
23.717669
23.555599
23.391332
23.224927
23.056351
22.88592
22.713328
22.53869
22.395588
22.573207
23.51758
25.952451
30.628009
38.730435
50.896976
66.748901
85.595196
106.44045
129.01737
149.51023
167.0602
181.95692
195.10333
208.06484
222.72207
237.04053
248.93072
258.23338
265.12939
269.75767
272.12817
272.06402
269.65616
265.68369
261.70144
258.24758
255.00434
251.73751
248.38802
245.10169
241.70728
238.14121
234.47817
230.77802
227.11397
223.58759
220.25548
217.13369
214.2099
211.46189
208.87501
206.44109
204.17768
202.07462
200.11386
198.27593
196.54249
194.90111
193.34369
191.86242
190.44862
189.08865
187.77489
186.5081
185.28941
184.11725
182.98896
181.90198
180.85438
179.84095
178.85599
177.89815
176.96857
176.06792
175.19555
174.35079
173.53016
172.7302
171.94985
171.18965
170.45013
169.73138
169.03119
168.34724
167.67863
167.02559
166.38875
165.76709
165.15939
164.56323
163.98365
163.40257
162.91088
162.0443
24.638759
24.480101
24.318871
24.15493
23.988295
23.81898
23.647001
23.472376
23.295128
23.11528
22.93286
22.747915
22.560468
22.370753
22.178593
21.985571
21.7921
21.60561
21.446542
21.361924
21.413663
21.666861
22.18154
23.047073
24.281829
26.364276
29.467298
33.709957
39.219424
46.153395
54.849989
65.561504
78.791044
93.078813
107.96819
123.28879
138.99624
155.08326
168.34314
177.82416
184.17962
188.17687
190.25423
190.67718
189.69111
187.54532
185.15807
182.81249
180.43742
177.91067
175.24229
172.59602
169.86907
167.11559
164.37382
161.67056
159.04692
156.53125
154.15097
151.91295
149.80564
147.81744
145.94316
144.17941
142.51646
140.94138
139.43976
138.01277
136.6617
135.38138
134.16417
133.00266
131.89184
130.82839
129.80891
128.82734
127.88014
126.96774
126.09033
125.24652
124.43418
123.65186
122.8952
122.1613
121.45002
120.76188
120.09662
119.4538
118.83038
118.22415
117.63475
117.06244
116.50756
115.9687
115.44424
114.93254
114.43767
113.94395
113.5358
112.80637
24.638341
24.479118
24.317339
24.152856
23.98564
23.81569
23.643011
23.467617
23.289521
23.108739
22.92529
22.739194
22.550477
22.35911
22.165276
21.967949
21.767418
21.564486
21.361238
21.156693
20.95132
20.746499
20.541782
20.338779
20.139905
19.950572
19.7784
19.636516
19.541758
19.516297
19.590285
19.81532
20.233085
21.157769
22.794673
25.371885
29.19639
34.731769
42.431269
53.07155
66.333123
80.939586
96.395887
112.73848
126.2826
135.82317
141.92323
145.36221
146.82736
146.86008
145.85221
144.28235
142.57091
140.73193
138.71418
136.54538
134.37747
132.15751
129.91198
127.6695
125.46502
123.33707
121.31422
119.39545
117.56451
115.81139
114.13384
112.54068
111.0371
109.61701
108.26949
106.98796
105.7688
104.6078
103.4978
102.43884
101.43206
100.47373
99.559245
98.68438
97.846012
97.041653
96.26753
95.522368
94.806074
94.117823
93.456072
92.81946
92.204517
91.609744
91.035097
90.480424
89.945392
89.427986
88.926619
88.440019
87.972188
87.506799
87.128039
86.448623
24.638307
24.479022
24.317176
24.152627
23.985345
23.815331
23.642593
23.467143
23.288996
23.108171
22.924687
22.73857
22.54985
22.358564
22.164761
21.968478
21.76975
21.568601
21.36504
21.158906
20.949771
20.736907
20.521786
20.30491
20.086664
19.867421
19.648305
19.428558
19.208106
18.987296
18.76732
18.547599
18.328478
18.111968
17.902336
17.707152
17.541409
17.430583
17.424586
17.574072
18.099535
19.345021
21.651312
25.565258
31.721319
41.241349
54.043094
68.44746
84.011191
97.772151
107.84162
114.18602
117.66166
119.07792
119.14855
118.35805
117.15749
115.78178
114.25456
112.57011
110.79697
109.00796
107.19613
105.36466
103.52811
101.72268
99.98106
98.308116
96.69605
95.142913
93.65349
92.23354
90.881762
89.592155
88.357856
87.180666
86.06438
85.005657
83.99814
83.037122
82.119729
81.241752
80.405219
79.608834
78.849269
78.12318
77.427798
76.760779
76.119718
75.504007
74.913005
74.345511
73.800251
73.274849
72.768149
72.279056
71.811382
71.347264
70.972456
70.302976
24.638313
24.479021
24.317165
24.152604
23.985312
23.815286
23.642535
23.467071
23.288911
23.108071
22.924573
22.738441
22.549707
22.358417
22.16462
21.968373
21.769733
21.568759
21.365499
21.159999
20.952296
20.742401
20.530348
20.316186
20.099971
19.881743
19.66155
19.439379
19.215115
18.988652
18.759307
18.528368
18.296442
18.063874
17.831019
17.598673
17.367314
17.136248
16.905885
16.678069
16.45237
16.231943
16.026143
15.852992
15.765777
15.830825
16.30499
17.60858
20.266161
24.946462
32.862627
44.457183
57.822943
72.324504
84.034582
92.10559
96.831451
99.056119
99.685568
99.380175
98.548045
97.504075
96.286567
94.946832
93.517907
92.084904
90.623803
89.127068
87.597105
86.066291
84.570351
83.120814
81.713268
80.346604
79.027841
77.761195
76.54698
75.384308
74.272484
73.211155
72.198683
71.230409
70.307638
69.43125
68.59813
67.803908
67.045542
66.319699
65.62889
64.97091
64.342786
63.741984
63.166267
62.613814
62.084182
61.575795
61.091843
60.612675
60.226711
59.543756
24.638328
24.479036
24.317179
24.152618
23.985323
23.815296
23.642543
23.467077
23.288915
23.108074
22.924576
22.738445
22.549716
22.358427
22.164631
21.968381
21.769732
21.568742
21.365466
21.159963
20.952288
20.742506
20.53068
20.316871
20.101142
19.883558
19.664181
19.443073
19.2203
18.995928
18.769995
18.542566
18.313728
18.083573
17.852186
17.61964
17.385973
17.15108
16.914776
16.675973
16.436621
16.197512
15.959351
15.723987
15.49006
15.25847
15.031173
14.811417
14.610902
14.470082
14.461126
14.821994
16.011602
18.651083
23.414313
32.213822
43.527665
56.499498
68.159354
76.609272
81.764325
84.273657
85.032107
84.881261
84.259909
83.442112
82.467192
81.380388
80.21533
79.037114
77.822773
76.565351
75.273368
73.976026
72.702629
71.453873
70.22459
69.021267
67.8551
66.731225
65.649523
64.609146
63.609975
62.654403
61.742035
60.870963
60.039847
59.245499
58.489285
57.770463
57.086197
56.433437
55.809188
55.214306
54.648285
54.107599
53.594489
53.087681
52.679639
51.966536
24.638345
24.479055
24.3172
24.15264
23.985346
23.815319
23.642566
23.467101
23.28894
23.1081
22.924603
22.738476
22.549749
22.358466
22.164675
21.96843
21.769786
21.568799
21.365524
21.160017
20.952334
20.742535
20.530681
20.316837
20.101073
19.88346
19.664073
19.442988
19.220285
18.996048
18.770366
18.543325
18.315011
18.085511
17.854912
17.623299
17.390758
17.157373
16.923231
16.688369
16.452865
16.216815
15.980289
15.743353
15.505842
15.267095
15.026726
14.786828
14.54941
14.315487
14.08402
13.858242
13.64082
13.443184
13.321994
13.353703
13.952174
15.65702
19.099801
25.866816
35.800368
47.557693
58.430728
66.265457
70.958764
73.125328
73.71389
73.544361
73.016783
72.334442
71.507491
70.583469
69.603966
68.608555
67.580909
66.509419
65.405363
64.294604
63.191839
62.098859
61.020183
59.966255
58.941014
57.945662
56.982532
56.055321
55.165978
54.313152
53.495028
52.713406
51.967952
51.256805
50.577582
49.930724
49.315997
48.730203
48.175283
47.628941
47.189598
46.432248
24.638364
24.479076
24.317223
24.152665
23.985373
23.815346
23.642595
23.467131
23.288971
23.108133
22.92464
22.738516
22.549795
22.358518
22.164733
21.968494
21.769855
21.56887
21.365597
21.16009
20.952406
20.742603
20.530745
20.316894
20.10112
19.883494
19.66409
19.442984
19.220256
18.995989
18.770268
18.54318
18.314818
18.085272
17.854639
17.623013
17.390495
17.157185
16.923185
16.688605
16.45355
16.218117
15.982406
15.746502
15.510495
15.274452
15.038407
14.802415
14.56657
14.33078
14.094855
13.856642
13.619099
13.385176
13.155316
12.928852
12.709876
12.502907
12.341086
12.293959
12.680976
14.041461
16.993078
23.243383
32.482296
43.548611
53.048872
59.522022
63.046467
64.486449
64.725258
64.449439
63.941794
63.319476
62.5791
61.775648
60.944825
60.086954
59.186119
58.244834
57.284059
56.323192
55.362722
54.403079
53.45387
52.524197
51.617839
50.737299
49.883647
49.059784
48.267368
47.507393
46.780003
46.083836
45.418961
44.784435
44.183228
43.592869
43.114662
42.299118
24.638385
24.479099
24.317248
24.152692
23.985401
23.815376
23.642627
23.467165
23.289006
23.108171
22.924681
22.738562
22.549847
22.358577
22.164799
21.968566
21.769932
21.568952
21.365681
21.160175
20.952491
20.742688
20.530828
20.316976
20.1012
19.883571
19.664164
19.443054
19.220322
18.996049
18.77032
18.543223
18.314848
18.085285
17.854631
17.622981
17.390434
17.157091
16.923054
16.688426
16.453315
16.217825
15.982065
15.746143
15.510168
15.274249
15.038502
14.803032
14.567932
14.333278
14.09916
13.865567
13.632518
13.400124
13.168239
12.936311
12.702814
12.471199
12.24537
12.022667
11.808022
11.603261
11.436588
11.376004
11.764186
13.178716
16.272944
23.16862
32.399374
42.345607
50.002702
54.660976
56.759159
57.390918
57.298162
56.922075
56.422768
55.831592
55.167056
54.462935
53.738474
52.976382
52.172662
51.340818
50.49919
49.650306
48.796088
47.94669
47.108872
46.285467
45.480157
44.698086
43.942585
43.213138
42.510682
41.836193
41.1945
40.563867
40.048017
39.170144
24.638406
24.479123
24.317275
24.15272
23.985432
23.815409
23.64266
23.4672
23.289044
23.108212
22.924725
22.738612
22.549903
22.35864
22.164869
21.968643
21.770014
21.569038
21.36577
21.160265
20.952581
20.742777
20.530916
20.317062
20.101283
19.883652
19.664242
19.443129
19.220393
18.996117
18.770385
18.543285
18.314906
18.085341
17.854684
17.623031
17.39048
17.157133
16.92309
16.688455
16.453333
16.217829
15.982051
15.746105
15.510099
15.274142
15.038343
14.802811
14.567654
14.332981
14.098896
13.865519
13.632952
13.401279
13.170566
12.94088
12.712178
12.484501
12.257792
12.032117
11.804199
11.577957
11.358278
11.1419
10.934484
10.737156
10.588377
10.567621
11.181211
12.945057
17.195396
24.771847
34.428526
42.544313
47.871294
50.324913
51.218155
51.276674
50.997309
50.582854
50.092382
49.527861
48.926708
48.307581
47.653054
46.956232
46.227822
45.486245
44.734155
43.972313
43.209367
42.45302
41.70771
40.9763
40.262516
39.568831
38.902271
38.242647
37.699446
36.768355
24.63843
24.479149
24.317303
24.152751
23.985464
23.815443
23.642696
23.467238
23.289085
23.108255
22.924773
22.738665
22.549963
22.358707
22.164944
21.968724
21.770102
21.56913
21.365864
21.160361
20.952677
20.742873
20.53101
20.317154
20.101373
19.883739
19.664325
19.443209
19.22047
18.99619
18.770455
18.543352
18.31497
18.085402
17.854741
17.623086
17.390533
17.157183
16.923138
16.688501
16.453378
16.217873
15.982093
15.746145
15.510137
15.274177
15.038372
14.80283
14.567658
14.332964
14.098852
13.865428
13.632799
13.401068
13.170336
12.940705
12.712284
12.485166
12.259396
12.035068
11.812089
11.590471
11.370174
11.151392
10.930344
10.711723
10.499774
10.291979
10.093454
9.9138242
9.7978007
10.005099
11.121976
13.931552
20.291285
28.978148
37.020517
42.503754
45.083766
46.067637
46.187297
45.950187
45.586431
45.16178
44.67182
44.151182
43.611249
43.039865
42.429201
41.7877
41.130444
40.458671
39.775552
39.089361
38.405861
37.728012
37.065524
36.399893
35.847472
34.884551
24.638455
24.479176
24.317333
24.152782
23.985498
23.815479
23.642734
23.467279
23.289128
23.108302
22.924824
22.738721
22.550026
22.358777
22.165022
21.968809
21.770192
21.569225
21.365963
21.160461
20.952777
20.742972
20.531108
20.31725
20.101467
19.88383
19.664413
19.443294
19.220551
18.996268
18.770529
18.543422
18.315037
18.085465
17.854802
17.623143
17.390587
17.157234
16.923187
16.688548
16.453422
16.217915
15.982133
15.746184
15.510175
15.274214
15.038408
14.802866
14.567693
14.332998
14.098884
13.865458
13.632822
13.401078
13.170326
12.940667
12.712197
12.485013
12.259211
12.034878
11.81212
11.591027
11.371626
11.15401
10.938045
10.723744
10.511048
10.299768
10.086841
9.8780681
9.6749347
9.4792534
9.2950077
9.1495058
9.1801982
9.9576559
12.091766
17.669938
25.675343
33.318697
38.517196
40.874805
41.741136
41.829863
41.601738
41.268755
40.887314
40.456045
39.999426
39.524804
39.020174
38.477078
37.905338
37.316218
36.711026
36.093424
35.475998
34.839835
34.30636
33.348318
24.638481
24.479205
24.317364
24.152816
23.985533
23.815516
23.642775
23.467321
23.289173
23.108351
22.924877
22.73878
22.550092
22.358851
22.165103
21.968898
21.770287
21.569324
21.366065
21.160564
20.952881
20.743076
20.53121
20.317351
20.101565
19.883925
19.664505
19.443383
19.220637
18.99635
18.770607
18.543497
18.315108
18.085533
17.854866
17.623203
17.390645
17.157289
16.923239
16.688597
16.453469
16.21796
15.982176
15.746225
15.510214
15.274251
15.038444
14.8029
14.567727
14.33303
14.098916
13.865489
13.632852
13.401107
13.170355
12.940694
12.712221
12.485029
12.259211
12.034857
11.812056
11.590895
11.371459
11.153825
10.93809
10.724328
10.512559
10.302837
10.095032
9.8890515
9.6852143
9.480676
9.2771499
9.0808862
8.8885656
8.7121898
8.541323
8.5186274
9.1526094
11.067529
16.306392
23.975631
31.012556
35.510305
37.41908
38.046405
38.053293
37.820078
37.508586
37.161347
36.77609
36.371067
35.948878
35.493556
35.002933
34.487092
33.957365
33.390832
32.911427
32.008528
24.638509
24.479235
24.317397
24.152851
23.985571
23.815556
23.642817
23.467366
23.289221
23.108403
22.924934
22.738842
22.550161
22.358928
22.165188
21.968989
21.770385
21.569427
21.36617
21.160672
20.952989
20.743183
20.531317
20.317455
20.101667
19.884025
19.664602
19.443476
19.220726
18.996436
18.770689
18.543575
18.315182
18.085604
17.854933
17.623268
17.390706
17.157347
16.923294
16.68865
16.45352
16.218008
15.982222
15.746269
15.510256
15.274291
15.038483
14.802937
14.567762
14.333064
14.098948
13.86552
13.632882
13.401136
13.170383
12.940721
12.712247
12.485054
12.259236
12.034881
11.812077
11.590909
11.371458
11.153804
10.938025
10.724197
10.512393
10.302679
10.095143
9.8898226
9.6867661
9.4858875
9.2870546
9.0903552
8.8950873
8.69802
8.5093251
8.3211723
8.1611606
7.9541451
7.9562557
8.5901062
10.620424
15.909333
23.50065
29.709463
33.091082
34.451784
34.817167
34.74201
34.506895
34.216111
33.897172
33.54819
33.181915
32.79713
32.383909
31.919645
31.527405
30.732493
24.638539
24.479268
24.317431
24.152888
23.98561
23.815598
23.642861
23.467414
23.289272
23.108457
22.924993
22.738908
22.550233
22.359008
22.165275
21.969084
21.770486
21.569532
21.366279
21.160783
20.953101
20.743295
20.531427
20.317564
20.101773
19.884128
19.664702
19.443572
19.220819
18.996525
18.770775
18.543657
18.31526
18.085678
17.855004
17.623335
17.39077
17.157408
16.923352
16.688706
16.453572
16.218059
15.98227
15.746315
15.5103
15.274334
15.038523
14.802976
14.567799
14.3331
14.098982
13.865552
13.632913
13.401166
13.170412
12.940749
12.712273
12.48508
12.25926
12.034905
11.8121
11.590931
11.37148
11.153826
10.938044
10.724208
10.512388
10.302652
10.095065
9.8896916
9.6865883
9.485824
9.2874623
9.0914953
8.8979783
8.7065793
8.5175431
8.3307753
8.140642
7.9582824
7.7806273
7.615198
7.4684464
7.4961085
8.2332009
10.783601
16.51948
23.519553
28.640748
30.987821
31.867656
31.990779
31.83557
31.588905
31.310621
31.01205
30.69808
30.350769
30.064221
29.418773
24.63857
24.479302
24.317468
24.152927
23.985652
23.815642
23.642908
23.467464
23.289326
23.108515
22.925056
22.738976
22.550308
22.35909
22.165366
21.969182
21.770589
21.569641
21.366391
21.160897
20.953216
20.743409
20.531541
20.317676
20.101883
19.884235
19.664806
19.443673
19.220916
18.996618
18.770864
18.543742
18.315342
18.085755
17.855078
17.623405
17.390837
17.157472
16.923413
16.688764
16.453628
16.218111
15.982321
15.746364
15.510347
15.274378
15.038566
14.803017
14.567838
14.333137
14.099018
13.865587
13.632946
13.401198
13.170442
12.940778
12.712301
12.485106
12.259285
12.034929
11.812123
11.590953
11.371501
11.153846
10.938063
10.724227
10.512407
10.30267
10.095079
9.8896965
9.6865782
9.4857797
9.2873555
9.0913553
8.8978227
8.7068374
8.5183525
8.3325421
8.1487565
7.9677936
7.7888744
7.6079396
7.4345028
7.2652812
7.1117261
6.971735
7.1572277
8.1230681
11.860086
18.173223
24.159081
27.672136
29.06018
29.460523
29.425215
29.236959
28.999582
28.724873
28.502268
28.012775
24.638604
24.479338
24.317506
24.152968
23.985696
23.815689
23.642958
23.467516
23.289382
23.108575
22.925121
22.739047
22.550387
22.359176
22.165459
21.969282
21.770696
21.569752
21.366506
21.161014
20.953334
20.743527
20.531658
20.317791
20.101996
19.884345
19.664913
19.443777
19.221016
18.996714
18.770957
18.543831
18.315426
18.085836
17.855155
17.623479
17.390907
17.157539
16.923477
16.688824
16.453686
16.218167
15.982374
15.746414
15.510395
15.274425
15.03861
14.803059
14.567879
14.333176
14.099056
13.865623
13.632981
13.401231
13.170474
12.940808
12.71233
12.485134
12.259312
12.034954
11.812147
11.590976
11.371523
11.153866
10.938083
10.724246
10.512425
10.302687
10.095096
9.8897131
9.6865947
9.4857949
9.2873643
9.0913508
8.8977978
8.7067509
8.5182485
8.3323244
8.149044
7.9683976
7.7904381
7.6148025
7.4417544
7.2702808
7.0978796
6.9322336
6.7737523
6.6309377
6.5326356
6.9553085
8.6813822
13.529122
19.833635
24.453025
26.476538
27.185858
27.269243
27.116973
26.954463
26.560107
24.63864
24.479376
24.317547
24.153012
23.985742
23.815738
23.643009
23.467571
23.289441
23.108639
22.92519
22.739122
22.550468
22.359265
22.165555
21.969386
21.770805
21.569866
21.366624
21.161134
20.953455
20.743649
20.531778
20.31791
20.102113
19.884459
19.665024
19.443884
19.22112
18.996814
18.771052
18.543922
18.315514
18.08592
17.855235
17.623555
17.390979
17.157608
16.923543
16.688887
16.453746
16.218225
15.982429
15.746467
15.510446
15.274473
15.038657
14.803104
14.567922
14.333217
14.099095
13.865661
13.633017
13.401266
13.170507
12.94084
12.71236
12.485163
12.259339
12.03498
11.812172
11.591
11.371545
11.153888
10.938103
10.724265
10.512443
10.302704
10.095113
9.8897287
9.6866096
9.4858094
9.2873788
9.091365
8.897812
8.7067602
8.5182478
8.3323072
8.1489757
7.9682812
7.7902467
7.614931
7.4423021
7.2724054
7.1047428
6.9401675
6.774971
6.6124823
6.4542954
6.3120589
6.1677753
6.2705431
7.0323421
10.479226
16.327989
21.44661
24.081267
25.044069
25.329095
25.125301
24.638677
24.479416
24.31759
24.153057
23.98579
23.815789
23.643064
23.467629
23.289503
23.108705
22.925261
22.739199
22.550552
22.359356
22.165654
21.969491
21.770917
21.569983
21.366744
21.161257
20.953579
20.743773
20.531902
20.318032
20.102233
19.884576
19.665138
19.443994
19.221227
18.996917
18.771151
18.544017
18.315605
18.086007
17.855318
17.623634
17.391055
17.15768
16.923612
16.688953
16.453809
16.218284
15.982487
15.746522
15.510498
15.274524
15.038705
14.80315
14.567967
14.33326
14.099136
13.8657
13.633055
13.401302
13.170541
12.940873
12.712392
12.485193
12.259368
12.035007
11.812198
11.591024
11.371569
11.15391
10.938124
10.724285
10.512462
10.302722
10.09513
9.8897449
9.6866249
9.4858238
9.2873924
9.091378
8.8978245
8.7067727
8.5182599
8.3323202
8.1489843
7.9682803
7.7902316
7.6148647
7.4421975
7.2722548
7.1050587
6.9406306
6.7788379
6.6193083
6.4629631
6.303831
6.1515755
6.0061167
5.8707511
5.7882154
6.2012266
8.1529577
13.034115
18.384093
21.853431
23.262244
24.638717
24.479459
24.317635
24.153105
23.985841
23.815843
23.643121
23.46769
23.289567
23.108774
22.925336
22.73928
22.550639
22.359451
22.165756
21.9696
21.771031
21.570103
21.366867
21.161382
20.953706
20.7439
20.532028
20.318157
20.102356
19.884697
19.665255
19.444108
19.221337
18.997023
18.771253
18.544115
18.315699
18.086097
17.855404
17.623716
17.391133
17.157755
16.923683
16.689021
16.453874
16.218347
15.982546
15.746579
15.510553
15.274576
15.038755
14.803198
14.568013
14.333304
14.099179
13.865741
13.633094
13.401339
13.170577
12.940907
12.712424
12.485224
12.259398
12.035036
11.812225
11.59105
11.371593
11.153933
10.938146
10.724306
10.512482
10.302741
10.095147
9.8897616
9.6866407
9.4858387
9.2874065
9.0913912
8.8978369
8.7067844
8.518271
8.3323309
8.1489949
7.9682907
7.7902428
7.6148724
7.4421982
7.2722345
7.1050013
6.9404996
6.7787731
6.6197783
6.4636483
6.309788
6.1589542
6.0084934
5.8599389
5.7155843
5.5861945
5.459535
5.6354922
7.0325224
10.277295
17.275775
24.63876
24.479504
24.317683
24.153155
23.985894
23.815899
23.643181
23.467753
23.289635
23.108847
22.925413
22.739364
22.55073
22.359548
22.16586
21.969711
21.771148
21.570224
21.366993
21.16151
20.953836
20.74403
20.532157
20.318285
20.102481
19.88482
19.665375
19.444225
19.22145
18.997132
18.771358
18.544216
18.315795
18.086189
17.855492
17.623801
17.391214
17.157832
16.923757
16.689092
16.453941
16.218411
15.982608
15.746638
15.51061
15.27463
15.038807
14.803248
14.56806
14.33335
14.099223
13.865783
13.633134
13.401378
13.170614
12.940942
12.712458
12.485256
12.259428
12.035065
11.812253
11.591077
11.371618
11.153957
10.938169
10.724327
10.512502
10.30276
10.095166
9.8897788
9.686657
9.4858541
9.287421
9.0914049
8.8978498
8.7067965
8.5182824
8.3323415
8.1490049
7.9683002
7.7902519
7.6148814
7.4422072
7.2722443
7.1050054
6.9404996
6.7787351
6.6197211
6.4634557
6.309967
6.1592546
6.0112054
5.8654966
5.7228354
5.5776466
5.4397571
5.3050225
5.204651
5.1618021
8.3135813
24.638805
24.479551
24.317733
24.153208
23.98595
23.815958
23.643243
23.46782
23.289706
23.108922
22.925494
22.73945
22.550823
22.359648
22.165967
21.969824
21.771268
21.570349
21.367121
21.161641
20.953968
20.744163
20.53229
20.318416
20.10261
19.884946
19.665499
19.444345
19.221566
18.997245
18.771467
18.54432
18.315895
18.086285
17.855584
17.623888
17.391298
17.157912
16.923833
16.689165
16.454011
16.218478
15.982672
15.746699
15.510668
15.274686
15.038861
14.8033
14.56811
14.333397
14.099268
13.865826
13.633176
13.401417
13.170652
12.940979
12.712493
12.485289
12.25946
12.035095
11.812281
11.591104
11.371644
11.153982
10.938192
10.72435
10.512523
10.30278
10.095185
9.8897966
9.6866737
9.4858699
9.2874359
9.0914189
8.897863
8.7068089
8.518294
8.3323524
8.1490151
7.9683098
7.7902608
7.6148898
7.442215
7.2722519
7.1050129
6.9405076
6.7787425
6.6197225
6.4634468
6.3099216
6.159137
6.0111182
5.865805
5.7233881
5.582927
5.4467262
5.3048564
5.1877706
4.984924
5.0145128
24.638852
24.479601
24.317785
24.153264
23.986009
23.81602
23.643309
23.467889
23.289779
23.109001
22.925578
22.73954
22.550919
22.359751
22.166077
21.96994
21.77139
21.570476
21.367252
21.161774
20.954103
20.744298
20.532424
20.318549
20.102742
19.885076
19.665625
19.444468
19.221685
18.99736
18.771578
18.544427
18.315998
18.086383
17.855678
17.623978
17.391384
17.157994
16.923912
16.68924
16.454083
16.218547
15.982737
15.746762
15.510728
15.274744
15.038916
14.803353
14.568161
14.333446
14.099315
13.865871
13.633219
13.401459
13.170692
12.941016
12.712529
12.485324
12.259493
12.035126
11.812311
11.591132
11.371671
11.154007
10.938217
10.724372
10.512545
10.302801
10.095204
9.8898148
9.6866909
9.4858861
9.2874511
9.0914332
8.8978765
8.7068216
8.5183059
8.3323636
8.1490256
7.9683195
7.79027
7.6148983
7.442223
7.2722593
7.1050198
6.9405141
6.7787489
6.6197286
6.4634543
6.3099254
6.1591375
6.0110866
5.8657665
5.7231724
5.583299
5.4461643
5.3118012
5.1777159
5.0594265
4.8591102
24.638902
24.479653
24.317841
24.153322
23.98607
23.816085
23.643377
23.467962
23.289856
23.109082
22.925665
22.739633
22.551018
22.359857
22.166189
21.970059
21.771514
21.570605
21.367385
21.16191
20.95424
20.744436
20.532562
20.318686
20.102877
19.885208
19.665754
19.444594
19.221807
18.997478
18.771692
18.544537
18.316103
18.086484
17.855775
17.624071
17.391473
17.158079
16.923993
16.689318
16.454157
16.218618
15.982805
15.746827
15.510791
15.274804
15.038974
14.803408
14.568213
14.333497
14.099363
13.865918
13.633263
13.401501
13.170732
12.941055
12.712566
12.485359
12.259526
12.035158
11.812342
11.591161
11.371699
11.154033
10.938241
10.724396
10.512567
10.302822
10.095224
9.8898335
9.6867085
9.4859027
9.2874667
9.0914479
8.8978903
8.7068345
8.518318
8.332375
8.1490362
7.9683295
7.7902793
7.614907
7.4422311
7.2722668
7.1050268
6.9405205
6.7787549
6.6197341
6.4634596
6.3099305
6.1591434
6.0110914
5.8657706
5.7231534
5.5833014
5.4458946
5.3122797
5.1765302
5.0644441
4.8640914
24.638954
24.479709
24.317899
24.153383
23.986134
23.816153
23.643449
23.468037
23.289936
23.109167
22.925755
22.739729
22.55112
22.359965
22.166304
21.97018
21.771641
21.570736
21.36752
21.162048
20.954379
20.744576
20.532702
20.318825
20.103015
19.885343
19.665887
19.444723
19.221933
18.997599
18.771809
18.544649
18.316212
18.086588
17.855874
17.624167
17.391564
17.158167
16.924077
16.689397
16.454234
16.218691
15.982875
15.746894
15.510855
15.274865
15.039032
14.803464
14.568267
14.333549
14.099413
13.865965
13.633308
13.401545
13.170774
12.941095
12.712604
12.485395
12.259561
12.035191
11.812373
11.591191
11.371727
11.15406
10.938267
10.72442
10.51259
10.302843
10.095244
9.8898525
9.6867265
9.4859196
9.2874826
9.0914629
8.8979043
8.7068477
8.5183304
8.3323865
8.149047
7.9683396
7.7902887
7.6149158
7.4422392
7.2722744
7.1050338
6.940527
6.7787609
6.6197396
6.4634647
6.3099352
6.1591477
6.0110958
5.8657746
5.7231594
5.5833013
5.4459039
5.3122006
5.1766349
5.0638566
4.8637912
24.63901
24.479767
24.31796
24.153447
23.986202
23.816224
23.643523
23.468116
23.290019
23.109255
22.925849
22.739828
22.551225
22.360077
22.166422
21.970304
21.77177
21.57087
21.367657
21.162188
20.954522
20.744719
20.532845
20.318967
20.103155
19.885481
19.666022
19.444854
19.222061
18.997723
18.771929
18.544765
18.316323
18.086695
17.855977
17.624265
17.391658
17.158256
16.924163
16.68948
16.454312
16.218766
15.982947
15.746963
15.510921
15.274928
15.039093
14.803522
14.568323
14.333602
14.099464
13.866014
13.633355
13.401589
13.170817
12.941136
12.712643
12.485432
12.259596
12.035225
11.812405
11.591221
11.371756
11.154087
10.938292
10.724444
10.512613
10.302865
10.095264
9.889872
9.6867448
9.4859369
9.2874989
9.0914781
8.8979186
8.7068611
8.5183429
8.3323982
8.149058
7.9683497
7.7902981
7.6149246
7.4422474
7.272282
7.1050408
6.9405335
6.7787669
6.6197451
6.4634698
6.3099398
6.1591519
6.0110997
5.865778
5.7231631
5.5833033
5.4459121
5.3121917
5.1766583
5.0638048
4.8636281
24.639068
24.479828
24.318024
24.153514
23.986272
23.816298
23.643601
23.468198
23.290106
23.109347
22.925945
22.73993
22.551333
22.360191
22.166542
21.97043
21.771901
21.571006
21.367797
21.162331
20.954666
20.744864
20.53299
20.319111
20.103297
19.885622
19.666159
19.444989
19.222191
18.99785
18.772051
18.544883
18.316437
18.086805
17.856082
17.624366
17.391754
17.158349
16.924251
16.689564
16.454393
16.218844
15.983021
15.747034
15.510989
15.274994
15.039155
14.803582
14.56838
14.333657
14.099516
13.866064
13.633403
13.401635
13.170861
12.941178
12.712683
12.48547
12.259633
12.035259
11.812438
11.591252
11.371785
11.154115
10.938319
10.724469
10.512636
10.302887
10.095285
9.8898918
9.6867635
9.4859544
9.2875153
9.0914935
8.8979331
8.7068746
8.5183556
8.3324101
8.149069
7.96836
7.7903077
7.6149334
7.4422556
7.2722896
7.1050478
6.94054
6.7787728
6.6197506
6.4634748
6.3099444
6.1591561
6.0111034
5.8657814
5.7231662
5.583306
5.4459147
5.3121952
5.1766616
5.0638112
4.8636293
24.63913
24.479892
24.318091
24.153585
23.986346
23.816375
23.643682
23.468283
23.290195
23.109441
22.926045
22.740035
22.551444
22.360308
22.166665
21.970558
21.772035
21.571144
21.367939
21.162475
20.954813
20.745012
20.533138
20.319258
20.103443
19.885765
19.6663
19.445126
19.222325
18.99798
18.772177
18.545004
18.316554
18.086917
17.85619
17.624469
17.391853
17.158444
16.924342
16.689651
16.454476
16.218923
15.983098
15.747107
15.511059
15.27506
15.039219
14.803643
14.568439
14.333713
14.09957
13.866116
13.633453
13.401682
13.170906
12.941221
12.712724
12.485509
12.25967
12.035295
11.812471
11.591284
11.371815
11.154144
10.938346
10.724495