/*--------------------------------*- C++ -*----------------------------------*\
  =========                 |
  \\      /  F ield         | OpenFOAM: The Open Source CFD Toolbox
   \\    /   O peration     | Website:  https://openfoam.org
    \\  /    A nd           | Version:  12
     \\/     M anipulation  |
\*---------------------------------------------------------------------------*/
FoamFile
{
    format      ascii;
    class       volScalarField;
    location    "1300";
    object      p;
}
// * * * * * * * * * * * * * * * * * * * * * * * * * * * * * * * * * * * * * //

dimensions      [0 2 -2 0 0 0 0];

internalField   nonuniform List<scalar> 
13056
(
0.0040417027
0.0040613911
0.0041048994
0.0041600393
0.0042248513
0.0042993921
0.0043830943
0.0044752336
0.0045754533
0.0046838018
0.0048006371
0.0049266172
0.0050627812
0.0052106965
0.0053726697
0.005552143
0.0057542106
0.0059871724
0.0062634585
0.0066095486
0.0070593336
0.0077599019
0.0087357108
0.012111098
0.0090547055
0.0041460668
0.0041769473
0.0046288323
0.0046731976
0.0044761448
0.0042980487
0.0042042834
0.0041330772
0.0040587812
0.0039868573
0.0039213196
0.0038599196
0.0038022584
0.00374754
0.0036966126
0.0036487073
0.0036032954
0.0035601987
0.0035186441
0.0034792098
0.0034406568
0.003404117
0.0033689526
0.0033337505
0.0033008682
0.0032688691
0.0032363998
0.0032060158
0.0031763561
0.0031460755
0.0031171199
0.003089222
0.0030609806
0.0030326504
0.0030060012
0.0029797089
0.0029524376
0.0029255074
0.0029000805
0.0028747175
0.0028482516
0.0028221656
0.0027973283
0.0027726419
0.0027468553
0.0027211479
0.0026962413
0.0026717017
0.0026463523
0.0026205192
0.0025949163
0.0025701872
0.0025451439
0.0025187926
0.0024925499
0.0024667917
0.0024410962
0.0024144393
0.0023871656
0.0023598275
0.0023330981
0.0023058984
0.0022771802
0.0022482924
0.0022195514
0.0021906199
0.0021605323
0.0021295109
0.0020981923
0.0020670095
0.0020348214
0.0020009557
0.0019664983
0.001932019
0.0018964888
0.0018589894
0.0018204701
0.0017815979
0.0017413185
0.0016987253
0.0016546251
0.0016098392
0.001562945
0.0015129832
0.0014614775
0.0014079698
0.0013511421
0.0012913557
0.0012304136
0.0011687985
0.0011073366
0.0010476517
0.00098891847
0.00093018373
0.0008721672
0.00081560276
0.00075973272
0.00070385947
0.00064868563
0.00059466731
0.00054199077
0.00048994828
0.0004384069
0.00038850304
0.00034045242
0.00029618892
0.00025314756
0.00022353151
0.00018195945
0.00030359693
-0.00023097712
0.0040417027
0.0040613911
0.0041048993
0.0041600393
0.0042248513
0.0042993921
0.0043830943
0.0044752336
0.0045754533
0.0046838018
0.0048006371
0.0049266172
0.0050627812
0.0052106965
0.0053726697
0.005552143
0.0057542106
0.0059871724
0.0062634585
0.0066095486
0.0070593335
0.0077599016
0.0087357109
0.012109912
0.0090554707
0.00414667
0.0041769613
0.0046288428
0.0046732234
0.0044761725
0.0042980734
0.0042043045
0.0041330955
0.0040587972
0.0039868715
0.0039213324
0.0038599313
0.0038022692
0.00374755
0.0036966217
0.0036487157
0.0036033033
0.003560206
0.0035186509
0.0034792162
0.0034406628
0.0034041227
0.0033689579
0.0033337555
0.003300873
0.0032688736
0.003236404
0.0032060198
0.00317636
0.0031460792
0.0031171234
0.0030892253
0.0030609838
0.0030326535
0.0030060041
0.0029797117
0.0029524403
0.00292551
0.0029000829
0.0028747199
0.0028482539
0.0028221678
0.0027973305
0.0027726439
0.0027468572
0.0027211497
0.0026962431
0.0026717034
0.002646354
0.0026205209
0.0025949179
0.0025701887
0.0025451453
0.002518794
0.0024925512
0.002466793
0.0024410975
0.0024144405
0.0023871667
0.0023598286
0.0023330992
0.0023058994
0.0022771812
0.0022482933
0.0022195524
0.0021906208
0.0021605331
0.0021295117
0.0020981931
0.0020670103
0.0020348221
0.0020009564
0.001966499
0.0019320196
0.0018964894
0.00185899
0.0018204707
0.0017815984
0.0017413191
0.0016987258
0.0016546256
0.0016098396
0.0015629455
0.0015129836
0.0014614779
0.0014079702
0.0013511424
0.001291356
0.001230414
0.0011687988
0.0011073369
0.001047652
0.00098891875
0.000930184
0.00087216746
0.00081560301
0.00075973296
0.0007038597
0.00064868585
0.00059466753
0.00054199097
0.00048994848
0.00043840709
0.00038850323
0.00034045261
0.0002961891
0.00025314773
0.00022353169
0.00018195963
0.00030359713
-0.00023097698
0.0040417027
0.0040613911
0.0041048993
0.0041600393
0.0042248513
0.0042993921
0.0043830943
0.0044752336
0.0045754533
0.0046838018
0.0048006371
0.0049266172
0.0050627812
0.0052106965
0.0053726697
0.005552143
0.0057542106
0.0059871724
0.0062634585
0.0066095485
0.0070593334
0.0077599012
0.0087357108
0.012108685
0.0090563051
0.0041473547
0.0041769782
0.0046288553
0.0046732541
0.0044762057
0.004298103
0.0042043298
0.0041331174
0.0040588164
0.0039868886
0.0039213478
0.0038599454
0.0038022822
0.0037475619
0.0036966327
0.0036487259
0.0036033127
0.0035602148
0.0035186591
0.0034792238
0.00344067
0.0034041294
0.0033689643
0.0033337615
0.0033008787
0.003268879
0.0032364091
0.0032060247
0.0031763646
0.0031460835
0.0031171275
0.0030892293
0.0030609876
0.0030326571
0.0030060076
0.002979715
0.0029524435
0.002925513
0.0029000859
0.0028747227
0.0028482566
0.0028221704
0.002797333
0.0027726463
0.0027468596
0.002721152
0.0026962453
0.0026717055
0.002646356
0.0026205228
0.0025949198
0.0025701905
0.0025451471
0.0025187957
0.0024925528
0.0024667945
0.002441099
0.002414442
0.0023871681
0.00235983
0.0023331005
0.0023059007
0.0022771824
0.0022482945
0.0022195535
0.0021906219
0.0021605342
0.0021295127
0.0020981941
0.0020670112
0.002034823
0.0020009573
0.0019664999
0.0019320204
0.0018964902
0.0018589907
0.0018204714
0.0017815991
0.0017413197
0.0016987264
0.0016546262
0.0016098402
0.001562946
0.0015129842
0.0014614784
0.0014079707
0.0013511429
0.0012913565
0.0012304144
0.0011687992
0.0011073373
0.0010476523
0.00098891909
0.00093018432
0.00087216777
0.00081560331
0.00075973325
0.00070385998
0.00064868611
0.00059466778
0.00054199122
0.00048994872
0.00043840732
0.00038850346
0.00034045283
0.00029618932
0.00025314794
0.0002235319
0.00018195984
0.00030359738
-0.00023097682
0.0040417027
0.0040613911
0.0041048993
0.0041600393
0.0042248513
0.0042993921
0.0043830943
0.0044752336
0.0045754533
0.0046838018
0.0048006371
0.0049266172
0.0050627812
0.0052106965
0.0053726697
0.005552143
0.0057542105
0.0059871724
0.0062634585
0.0066095484
0.0070593332
0.0077599004
0.0087357108
0.012107382
0.0090571716
0.0041479529
0.0041769946
0.0046288678
0.0046732843
0.0044762382
0.0042981319
0.0042043546
0.0041331388
0.0040588352
0.0039869052
0.0039213629
0.0038599592
0.0038022949
0.0037475735
0.0036966435
0.0036487358
0.0036033219
0.0035602233
0.0035186671
0.0034792313
0.003440677
0.003404136
0.0033689705
0.0033337674
0.0033008842
0.0032688843
0.0032364141
0.0032060294
0.0031763691
0.0031460878
0.0031171316
0.0030892332
0.0030609913
0.0030326607
0.003006011
0.0029797183
0.0029524466
0.002925516
0.0029000888
0.0028747255
0.0028482593
0.002822173
0.0027973354
0.0027726487
0.0027468618
0.0027211542
0.0026962474
0.0026717076
0.0026463579
0.0026205247
0.0025949216
0.0025701922
0.0025451488
0.0025187973
0.0024925544
0.0024667961
0.0024411005
0.0024144434
0.0023871695
0.0023598313
0.0023331018
0.0023059019
0.0022771836
0.0022482956
0.0022195546
0.002190623
0.0021605352
0.0021295137
0.002098195
0.0020670121
0.0020348239
0.0020009581
0.0019665007
0.0019320212
0.0018964909
0.0018589914
0.0018204721
0.0017815998
0.0017413203
0.001698727
0.0016546268
0.0016098408
0.0015629465
0.0015129847
0.0014614789
0.0014079711
0.0013511433
0.0012913569
0.0012304148
0.0011687996
0.0011073376
0.0010476527
0.00098891942
0.00093018464
0.00087216807
0.0008156036
0.00075973353
0.00070386025
0.00064868637
0.00059466803
0.00054199146
0.00048994895
0.00043840755
0.00038850368
0.00034045304
0.00029618953
0.00025314814
0.0002235321
0.00018196003
0.00030359762
-0.00023097667
0.0040417027
0.0040613911
0.0041048993
0.0041600393
0.0042248513
0.0042993921
0.0043830943
0.0044752336
0.0045754533
0.0046838018
0.0048006371
0.0049266172
0.0050627812
0.0052106965
0.0053726697
0.0055521429
0.0057542105
0.0059871723
0.0062634584
0.0066095483
0.007059333
0.0077598993
0.008735711
0.012105864
0.0090580639
0.0041485113
0.0041770119
0.0046288808
0.0046733154
0.0044762717
0.0042981617
0.0042043801
0.0041331608
0.0040588545
0.0039869224
0.0039213783
0.0038599734
0.0038023079
0.0037475855
0.0036966545
0.003648746
0.0036033314
0.0035602322
0.0035186753
0.003479239
0.0034406843
0.0034041428
0.0033689769
0.0033337735
0.00330089
0.0032688897
0.0032364193
0.0032060343
0.0031763737
0.0031460923
0.0031171358
0.0030892373
0.0030609952
0.0030326644
0.0030060145
0.0029797217
0.0029524499
0.0029255191
0.0029000917
0.0028747283
0.002848262
0.0028221756
0.002797338
0.0027726511
0.0027468642
0.0027211564
0.0026962496
0.0026717096
0.00264636
0.0026205266
0.0025949234
0.002570194
0.0025451505
0.002518799
0.002492556
0.0024667976
0.002441102
0.0024144448
0.0023871709
0.0023598326
0.0023331031
0.0023059032
0.0022771848
0.0022482968
0.0022195557
0.002190624
0.0021605362
0.0021295147
0.002098196
0.002067013
0.0020348248
0.002000959
0.0019665015
0.001932022
0.0018964917
0.0018589922
0.0018204728
0.0017816004
0.001741321
0.0016987276
0.0016546274
0.0016098413
0.0015629471
0.0015129852
0.0014614794
0.0014079716
0.0013511438
0.0012913573
0.0012304152
0.0011688
0.001107338
0.001047653
0.00098891975
0.00093018496
0.00087216838
0.0008156039
0.00075973381
0.00070386052
0.00064868664
0.00059466829
0.00054199171
0.00048994919
0.00043840778
0.0003885039
0.00034045326
0.00029618974
0.00025314835
0.00022353231
0.00018196023
0.00030359786
-0.00023097652
0.0040417027
0.0040613911
0.0041048993
0.0041600393
0.0042248512
0.0042993921
0.0043830943
0.0044752336
0.0045754533
0.0046838018
0.0048006371
0.0049266172
0.0050627812
0.0052106964
0.0053726697
0.0055521429
0.0057542105
0.0059871723
0.0062634583
0.0066095481
0.0070593328
0.0077598978
0.0087357113
0.012104075
0.0090587922
0.0041490427
0.0041770319
0.0046288957
0.004673349
0.0044763079
0.0042981938
0.0042044075
0.0041331846
0.0040588753
0.0039869408
0.003921395
0.0038599886
0.0038023219
0.0037475984
0.0036966663
0.0036487569
0.0036033415
0.0035602416
0.0035186841
0.0034792473
0.003440692
0.0034041501
0.0033689838
0.0033337799
0.0033008961
0.0032688955
0.0032364248
0.0032060395
0.0031763787
0.003146097
0.0031171403
0.0030892415
0.0030609993
0.0030326683
0.0030060182
0.0029797253
0.0029524533
0.0029255224
0.0029000949
0.0028747314
0.002848265
0.0028221784
0.0027973407
0.0027726537
0.0027468667
0.0027211589
0.0026962519
0.0026717119
0.0026463621
0.0026205287
0.0025949254
0.002570196
0.0025451524
0.0025188008
0.0024925578
0.0024667993
0.0024411036
0.0024144464
0.0023871724
0.0023598341
0.0023331045
0.0023059045
0.0022771861
0.002248298
0.0022195569
0.0021906252
0.0021605373
0.0021295157
0.002098197
0.002067014
0.0020348257
0.0020009599
0.0019665024
0.0019320228
0.0018964925
0.001858993
0.0018204735
0.0017816011
0.0017413217
0.0016987283
0.001654628
0.0016098419
0.0015629476
0.0015129857
0.0014614799
0.0014079721
0.0013511442
0.0012913578
0.0012304156
0.0011688004
0.0011073384
0.0010476534
0.00098892011
0.0009301853
0.00087216871
0.00081560421
0.00075973412
0.00070386082
0.00064868692
0.00059466856
0.00054199198
0.00048994945
0.00043840803
0.00038850414
0.00034045349
0.00029618997
0.00025314857
0.00022353253
0.00018196044
0.00030359812
-0.00023097636
0.0040417027
0.0040613911
0.0041048993
0.0041600393
0.0042248512
0.0042993921
0.0043830943
0.0044752336
0.0045754533
0.0046838018
0.0048006371
0.0049266172
0.0050627811
0.0052106964
0.0053726697
0.0055521429
0.0057542104
0.0059871722
0.0062634582
0.0066095479
0.0070593325
0.0077598957
0.0087357118
0.012101982
0.0090593185
0.0041495764
0.0041770598
0.0046289144
0.0046733872
0.0044763487
0.0042982298
0.0042044383
0.0041332111
0.0040588986
0.0039869614
0.0039214135
0.0038600056
0.0038023374
0.0037476127
0.0036966795
0.0036487691
0.0036033527
0.003560252
0.0035186939
0.0034792564
0.0034407006
0.0034041582
0.0033689914
0.0033337871
0.0033009028
0.0032689018
0.0032364308
0.0032060453
0.0031763841
0.0031461022
0.0031171453
0.0030892463
0.0030610038
0.0030326726
0.0030060224
0.0029797292
0.0029524571
0.002925526
0.0029000984
0.0028747347
0.0028482682
0.0028221815
0.0027973436
0.0027726566
0.0027468694
0.0027211615
0.0026962545
0.0026717143
0.0026463645
0.002620531
0.0025949276
0.0025701981
0.0025451544
0.0025188028
0.0024925596
0.0024668011
0.0024411053
0.0024144481
0.002387174
0.0023598356
0.002333106
0.002305906
0.0022771875
0.0022482994
0.0022195582
0.0021906265
0.0021605386
0.0021295169
0.0020981981
0.0020670151
0.0020348268
0.0020009609
0.0019665033
0.0019320238
0.0018964934
0.0018589938
0.0018204744
0.0017816019
0.0017413224
0.001698729
0.0016546287
0.0016098426
0.0015629483
0.0015129863
0.0014614805
0.0014079726
0.0013511448
0.0012913582
0.0012304161
0.0011688008
0.0011073388
0.0010476538
0.0009889205
0.00093018568
0.00087216906
0.00081560456
0.00075973445
0.00070386114
0.00064868723
0.00059466886
0.00054199226
0.00048994972
0.0004384083
0.0003885044
0.00034045375
0.00029619022
0.00025314881
0.00022353277
0.00018196067
0.00030359841
-0.00023097618
0.0040417027
0.0040613911
0.0041048993
0.0041600393
0.0042248512
0.0042993921
0.0043830943
0.0044752336
0.0045754533
0.0046838018
0.0048006371
0.0049266172
0.0050627811
0.0052106964
0.0053726697
0.0055521429
0.0057542104
0.0059871721
0.006263458
0.0066095476
0.007059332
0.0077598931
0.0087357124
0.012099543
0.0090596545
0.0041502319
0.0041771081
0.0046289411
0.0046734331
0.0044763973
0.0042982726
0.0042044747
0.0041332424
0.0040589258
0.0039869854
0.0039214351
0.0038600253
0.0038023555
0.0037476292
0.0036966947
0.0036487831
0.0036033657
0.0035602641
0.0035187051
0.0034792669
0.0034407104
0.0034041674
0.003369
0.0033337953
0.0033009106
0.0032689091
0.0032364377
0.0032060518
0.0031763904
0.0031461081
0.0031171509
0.0030892516
0.0030610089
0.0030326775
0.003006027
0.0029797337
0.0029524614
0.0029255302
0.0029001023
0.0028747385
0.0028482718
0.002822185
0.002797347
0.0027726598
0.0027468725
0.0027211645
0.0026962573
0.0026717171
0.0026463671
0.0026205335
0.0025949301
0.0025702004
0.0025451567
0.002518805
0.0024925618
0.0024668032
0.0024411073
0.00241445
0.0023871758
0.0023598374
0.0023331077
0.0023059076
0.0022771891
0.0022483009
0.0022195597
0.0021906279
0.0021605399
0.0021295182
0.0020981994
0.0020670163
0.0020348279
0.002000962
0.0019665044
0.0019320248
0.0018964944
0.0018589948
0.0018204753
0.0017816028
0.0017413232
0.0016987298
0.0016546294
0.0016098433
0.001562949
0.001512987
0.0014614811
0.0014079732
0.0013511453
0.0012913588
0.0012304166
0.0011688013
0.0011073393
0.0010476542
0.00098892093
0.00093018609
0.00087216946
0.00081560494
0.00075973482
0.00070386149
0.00064868757
0.00059466919
0.00054199258
0.00048995003
0.0004384086
0.00038850469
0.00034045403
0.00029619049
0.00025314908
0.00022353304
0.00018196093
0.00030359872
-0.00023097599
0.0040417027
0.0040613911
0.0041048993
0.0041600393
0.0042248512
0.0042993921
0.0043830943
0.0044752336
0.0045754533
0.0046838018
0.0048006371
0.0049266171
0.0050627811
0.0052106964
0.0053726696
0.0055521428
0.0057542103
0.005987172
0.0062634578
0.0066095472
0.0070593315
0.0077598896
0.0087357133
0.012096699
0.009059752
0.0041511542
0.0041772039
0.0046289844
0.0046734927
0.004476459
0.0042983265
0.0042045204
0.0041332815
0.0040589598
0.0039870153
0.0039214618
0.0038600496
0.0038023776
0.0037476496
0.0036967133
0.0036488002
0.0036033815
0.0035602787
0.0035187187
0.0034792796
0.0034407223
0.0034041786
0.0033690105
0.0033338051
0.0033009199
0.0032689179
0.0032364461
0.0032060597
0.0031763978
0.0031461152
0.0031171577
0.0030892581
0.003061015
0.0030326833
0.0030060326
0.002979739
0.0029524665
0.002925535
0.002900107
0.002874743
0.0028482761
0.0028221892
0.002797351
0.0027726636
0.0027468762
0.002721168
0.0026962607
0.0026717203
0.0026463702
0.0026205365
0.002594933
0.0025702032
0.0025451594
0.0025188076
0.0024925643
0.0024668056
0.0024411096
0.0024144522
0.002387178
0.0023598395
0.0023331097
0.0023059095
0.0022771909
0.0022483027
0.0022195614
0.0021906295
0.0021605415
0.0021295197
0.0020982008
0.0020670177
0.0020348293
0.0020009633
0.0019665056
0.001932026
0.0018964955
0.0018589959
0.0018204763
0.0017816038
0.0017413242
0.0016987307
0.0016546303
0.0016098442
0.0015629498
0.0015129878
0.0014614819
0.0014079739
0.001351146
0.0012913594
0.0012304172
0.0011688019
0.0011073398
0.0010476548
0.00098892143
0.00093018657
0.00087216992
0.00081560538
0.00075973524
0.00070386189
0.00064868796
0.00059466957
0.00054199295
0.00048995038
0.00043840894
0.00038850502
0.00034045435
0.0002961908
0.00025314938
0.00022353334
0.00018196122
0.00030359908
-0.00023097576
0.0040417027
0.0040613911
0.0041048993
0.0041600393
0.0042248512
0.0042993921
0.0043830943
0.0044752335
0.0045754533
0.0046838018
0.0048006371
0.0049266171
0.0050627811
0.0052106964
0.0053726696
0.0055521427
0.0057542102
0.0059871718
0.0062634575
0.0066095466
0.0070593308
0.0077598852
0.0087357146
0.012093371
0.0090592772
0.0041524709
0.0041773967
0.004629059
0.0046735746
0.0044765413
0.0042983983
0.0042045809
0.004133333
0.0040590044
0.0039870544
0.0039214967
0.0038600811
0.0038024064
0.0037476758
0.0036967373
0.0036488223
0.0036034019
0.0035602975
0.0035187362
0.0034792959
0.0034407375
0.0034041928
0.0033690239
0.0033338177
0.0033009317
0.0032689291
0.0032364566
0.0032060697
0.0031764073
0.0031461242
0.0031171662
0.0030892662
0.0030610227
0.0030326907
0.0030060396
0.0029797457
0.0029524729
0.0029255412
0.0029001129
0.0028747486
0.0028482815
0.0028221943
0.0027973559
0.0027726684
0.0027468808
0.0027211724
0.0026962649
0.0026717244
0.0026463741
0.0026205403
0.0025949366
0.0025702067
0.0025451627
0.0025188108
0.0024925673
0.0024668085
0.0024411125
0.0024144549
0.0023871806
0.002359842
0.0023331121
0.0023059119
0.0022771932
0.0022483049
0.0022195635
0.0021906315
0.0021605434
0.0021295216
0.0020982026
0.0020670194
0.0020348309
0.0020009649
0.0019665072
0.0019320274
0.0018964969
0.0018589972
0.0018204776
0.001781605
0.0017413254
0.0016987318
0.0016546314
0.0016098452
0.0015629507
0.0015129887
0.0014614828
0.0014079748
0.0013511468
0.0012913602
0.0012304179
0.0011688026
0.0011073405
0.0010476554
0.00098892203
0.00093018714
0.00087217046
0.0008156059
0.00075973574
0.00070386238
0.00064868843
0.00059467002
0.00054199338
0.0004899508
0.00043840934
0.00038850542
0.00034045473
0.00029619118
0.00025314975
0.0002235337
0.00018196156
0.0003035995
-0.0002309755
0.0040417027
0.0040613911
0.0041048993
0.0041600393
0.0042248512
0.0042993921
0.0043830943
0.0044752335
0.0045754533
0.0046838018
0.0048006371
0.0049266171
0.0050627811
0.0052106963
0.0053726695
0.0055521427
0.0057542101
0.0059871716
0.0062634572
0.006609546
0.0070593299
0.0077598795
0.0087357162
0.012089468
0.0090579709
0.0041542959
0.0041777638
0.0046291887
0.0046736902
0.004476654
0.0042984961
0.0042046631
0.0041334027
0.0040590645
0.0039871069
0.0039215434
0.0038601234
0.0038024448
0.0037477108
0.0036967693
0.0036488516
0.0036034289
0.0035603225
0.0035187594
0.0034793175
0.0034407577
0.0034042117
0.0033690415
0.0033338343
0.0033009473
0.0032689438
0.0032364705
0.0032060828
0.0031764197
0.0031461359
0.0031171774
0.0030892768
0.0030610328
0.0030327003
0.0030060488
0.0029797544
0.0029524812
0.0029255492
0.0029001205
0.002874756
0.0028482886
0.0028222011
0.0027973624
0.0027726745
0.0027468867
0.0027211781
0.0026962704
0.0026717296
0.0026463792
0.0026205451
0.0025949412
0.0025702112
0.002545167
0.0025188149
0.0024925713
0.0024668123
0.0024411161
0.0024144585
0.002387184
0.0023598453
0.0023331153
0.0023059149
0.0022771961
0.0022483077
0.0022195662
0.0021906341
0.0021605459
0.002129524
0.0020982049
0.0020670216
0.002034833
0.0020009669
0.0019665091
0.0019320293
0.0018964987
0.0018589989
0.0018204792
0.0017816066
0.0017413269
0.0016987333
0.0016546328
0.0016098465
0.001562952
0.0015129899
0.0014614839
0.0014079759
0.0013511478
0.0012913611
0.0012304188
0.0011688035
0.0011073413
0.0010476562
0.00098892277
0.00093018785
0.00087217115
0.00081560656
0.00075973637
0.00070386298
0.00064868901
0.00059467058
0.00054199392
0.00048995133
0.00043840985
0.00038850591
0.00034045521
0.00029619164
0.0002531502
0.00022353415
0.000181962
0.00030360003
-0.00023097517
0.0040417027
0.0040613911
0.0041048993
0.0041600392
0.0042248512
0.0042993921
0.0043830943
0.0044752335
0.0045754533
0.0046838018
0.0048006371
0.0049266171
0.005062781
0.0052106963
0.0053726695
0.0055521425
0.0057542099
0.0059871714
0.0062634567
0.0066095451
0.0070593287
0.0077598723
0.0087357184
0.012084899
0.0090561986
0.0041567147
0.0041784101
0.0046294098
0.0046738533
0.0044768074
0.0042986289
0.0042047747
0.0041334972
0.0040591458
0.0039871779
0.0039216065
0.0038601803
0.0038024965
0.003747758
0.0036968124
0.003648891
0.0036034652
0.003560356
0.0035187904
0.0034793464
0.0034407847
0.0034042369
0.0033690652
0.0033338565
0.0033009682
0.0032689634
0.003236489
0.0032061003
0.0031764363
0.0031461517
0.0031171923
0.003089291
0.0030610463
0.0030327132
0.0030060611
0.0029797661
0.0029524924
0.0029255598
0.0029001307
0.0028747657
0.0028482979
0.00282221
0.002797371
0.0027726828
0.0027468946
0.0027211856
0.0026962776
0.0026717366
0.0026463859
0.0026205515
0.0025949474
0.0025702171
0.0025451727
0.0025188204
0.0024925766
0.0024668174
0.002441121
0.0024144632
0.0023871885
0.0023598496
0.0023331194
0.0023059189
0.0022772
0.0022483114
0.0022195697
0.0021906375
0.0021605492
0.0021295271
0.0020982079
0.0020670245
0.0020348358
0.0020009696
0.0019665117
0.0019320318
0.0018965011
0.0018590012
0.0018204814
0.0017816087
0.0017413288
0.0016987351
0.0016546345
0.0016098482
0.0015629536
0.0015129914
0.0014614853
0.0014079772
0.0013511491
0.0012913624
0.00123042
0.0011688046
0.0011073424
0.0010476572
0.00098892375
0.00093018878
0.00087217204
0.00081560741
0.00075973719
0.00070386377
0.00064868977
0.00059467131
0.00054199463
0.00048995201
0.00043841051
0.00038850655
0.00034045583
0.00029619225
0.00025315078
0.00022353473
0.00018196255
0.00030360072
-0.00023097474
0.0040417027
0.0040613911
0.0041048993
0.0041600392
0.0042248512
0.0042993921
0.0043830943
0.0044752335
0.0045754532
0.0046838017
0.004800637
0.0049266171
0.005062781
0.0052106962
0.0053726694
0.0055521424
0.0057542097
0.005987171
0.0062634562
0.006609544
0.0070593272
0.007759863
0.0087357212
0.012079562
0.009054371
0.0041598175
0.0041794592
0.0046297799
0.0046740792
0.0044770111
0.0042988049
0.004204923
0.0041336228
0.0040592541
0.0039872726
0.0039216905
0.0038602557
0.003802565
0.0037478204
0.0036968694
0.0036489433
0.0036035133
0.0035604005
0.0035188317
0.0034793848
0.0034408205
0.0034042704
0.0033690966
0.003333886
0.0033009959
0.0032689895
0.0032365137
0.0032061237
0.0031764584
0.0031461726
0.0031172122
0.0030893098
0.0030610643
0.0030327303
0.0030060774
0.0029797817
0.0029525072
0.002925574
0.0029001443
0.0028747787
0.0028483104
0.002822222
0.0027973824
0.0027726937
0.0027469051
0.0027211957
0.0026962873
0.0026717459
0.0026463948
0.0026205601
0.0025949557
0.002570225
0.0025451803
0.0025188277
0.0024925836
0.0024668242
0.0024411275
0.0024144694
0.0023871945
0.0023598554
0.002333125
0.0023059242
0.0022772051
0.0022483163
0.0022195745
0.0021906421
0.0021605536
0.0021295313
0.002098212
0.0020670284
0.0020348395
0.0020009731
0.0019665151
0.001932035
0.0018965042
0.0018590041
0.0018204843
0.0017816114
0.0017413315
0.0016987376
0.0016546369
0.0016098505
0.0015629558
0.0015129935
0.0014614873
0.0014079791
0.0013511509
0.0012913641
0.0012304216
0.0011688061
0.0011073438
0.0010476586
0.00098892505
0.00093019002
0.00087217323
0.00081560855
0.00075973828
0.00070386482
0.00064869078
0.00059467228
0.00054199557
0.00048995291
0.00043841138
0.00038850739
0.00034045665
0.00029619304
0.00025315156
0.00022353551
0.00018196329
0.00030360163
-0.00023097418
0.0040417027
0.0040613911
0.0041048993
0.0041600392
0.0042248512
0.004299392
0.0043830943
0.0044752335
0.0045754532
0.0046838017
0.004800637
0.004926617
0.0050627809
0.0052106961
0.0053726692
0.0055521422
0.0057542094
0.0059871706
0.0062634554
0.0066095426
0.0070593253
0.0077598511
0.0087357249
0.012073339
0.0090525437
0.0041638022
0.0041810246
0.0046303676
0.0046743932
0.0044772782
0.0042990346
0.0042051166
0.0041337869
0.0040593954
0.0039873962
0.003921799
0.0038603522
0.0038026527
0.0037479005
0.0036969428
0.0036490106
0.0036035753
0.0035604579
0.0035188849
0.0034794344
0.0034408668
0.0034043138
0.0033691373
0.0033339242
0.0033010319
0.0032690235
0.0032365458
0.003206154
0.0031764871
0.0031461999
0.0031172382
0.0030893345
0.0030610878
0.0030327527
0.0030060987
0.0029798021
0.0029525267
0.0029255927
0.0029001621
0.0028747958
0.0028483267
0.0028222376
0.0027973974
0.0027727081
0.0027469188
0.0027212089
0.0026963
0.0026717581
0.0026464065
0.0026205713
0.0025949665
0.0025702354
0.0025451903
0.0025188373
0.0024925929
0.0024668331
0.002441136
0.0024144776
0.0023872024
0.002359863
0.0023331323
0.0023059313
0.0022772118
0.0022483228
0.0022195807
0.0021906481
0.0021605593
0.0021295368
0.0020982173
0.0020670335
0.0020348444
0.0020009778
0.0019665196
0.0019320393
0.0018965083
0.0018590081
0.001820488
0.001781615
0.0017413349
0.0016987409
0.0016546401
0.0016098534
0.0015629586
0.0015129962
0.0014614899
0.0014079816
0.0013511532
0.0012913663
0.0012304237
0.0011688081
0.0011073457
0.0010476604
0.00098892676
0.00093019166
0.00087217479
0.00081561005
0.00075973973
0.0007038662
0.00064869211
0.00059467357
0.00054199681
0.00048995411
0.00043841254
0.00038850851
0.00034045773
0.0002961941
0.00025315259
0.00022353653
0.00018196427
0.00030360283
-0.00023097343
0.0040417027
0.0040613911
0.0041048993
0.0041600392
0.0042248512
0.004299392
0.0043830943
0.0044752335
0.0045754532
0.0046838017
0.004800637
0.004926617
0.0050627809
0.005210696
0.0053726691
0.005552142
0.0057542091
0.00598717
0.0062634545
0.0066095408
0.0070593228
0.0077598359
0.0087357297
0.01206609
0.0090507199
0.0041691047
0.0041832117
0.0046312477
0.0046748302
0.004477627
0.0042993304
0.004205365
0.0041339965
0.0040595751
0.0039875528
0.0039219362
0.0038604741
0.0038027634
0.0037480017
0.0036970353
0.0036490956
0.0036036537
0.0035605304
0.0035189523
0.0034794973
0.0034409256
0.0034043689
0.0033691889
0.0033339728
0.0033010777
0.0032690667
0.0032365866
0.0032061927
0.0031765238
0.0031462347
0.0031172713
0.003089366
0.0030611178
0.0030327813
0.0030061261
0.0029798281
0.0029525517
0.0029256166
0.0029001849
0.0028748173
0.0028483473
0.0028222574
0.0027974163
0.0027727262
0.0027469363
0.0027212257
0.0026963161
0.0026717735
0.0026464213
0.0026205856
0.0025949802
0.0025702486
0.002545203
0.0025188495
0.0024926046
0.0024668444
0.0024411469
0.0024144881
0.0023872125
0.0023598727
0.0023331416
0.0023059403
0.0022772205
0.0022483311
0.0022195887
0.0021906558
0.0021605667
0.0021295439
0.0020982241
0.00206704
0.0020348507
0.0020009839
0.0019665254
0.0019320449
0.0018965136
0.0018590132
0.0018204929
0.0017816197
0.0017413394
0.0016987452
0.0016546441
0.0016098573
0.0015629623
0.0015129997
0.0014614932
0.0014079847
0.0013511562
0.0012913691
0.0012304264
0.0011688107
0.0011073482
0.0010476627
0.000988929
0.00093019379
0.00087217684
0.00081561201
0.00075974161
0.00070386801
0.00064869385
0.00059467524
0.00054199842
0.00048995567
0.00043841405
0.00038850998
0.00034045915
0.00029619549
0.00025315393
0.00022353787
0.00018196555
0.00030360441
-0.00023097245
0.0040417027
0.0040613911
0.0041048993
0.0041600392
0.0042248512
0.004299392
0.0043830943
0.0044752335
0.0045754532
0.0046838017
0.0048006369
0.0049266169
0.0050627808
0.0052106959
0.0053726689
0.0055521417
0.0057542086
0.0059871693
0.0062634533
0.0066095386
0.0070593196
0.0077598165
0.0087357357
0.012057642
0.0090489403
0.0041759309
0.0041861065
0.0046325164
0.0046754334
0.0044780802
0.0042997082
0.0042056809
0.0041342619
0.0040598017
0.0039877496
0.0039221091
0.0038606285
0.0038029034
0.0037481293
0.0036971521
0.0036492027
0.0036037523
0.0035606216
0.003519037
0.0034795761
0.0034409993
0.0034044379
0.0033692536
0.0033340336
0.003301135
0.0032691207
0.0032366377
0.0032062411
0.0031765696
0.0031462782
0.0031173126
0.0030894053
0.0030611552
0.003032817
0.0030061601
0.0029798606
0.0029525827
0.0029256463
0.0029002132
0.0028748442
0.0028483729
0.002822282
0.0027974399
0.0027727488
0.002746958
0.0027212466
0.0026963361
0.0026717928
0.0026464398
0.0026206035
0.0025949974
0.0025702651
0.0025452189
0.0025188648
0.0024926193
0.0024668585
0.0024411606
0.0024145012
0.0023872252
0.0023598849
0.0023331534
0.0023059515
0.0022772313
0.0022483416
0.0022195987
0.0021906654
0.002160576
0.0021295529
0.0020982327
0.0020670483
0.0020348586
0.0020009915
0.0019665327
0.0019320519
0.0018965204
0.0018590196
0.0018204991
0.0017816256
0.001741345
0.0016987506
0.0016546493
0.0016098623
0.001562967
0.0015130042
0.0014614975
0.0014079888
0.0013511601
0.0012913728
0.0012304299
0.001168814
0.0011073513
0.0010476656
0.00098893181
0.00093019649
0.00087217942
0.00081561449
0.00075974398
0.00070387029
0.00064869605
0.00059467736
0.00054200047
0.00048995765
0.00043841596
0.00038851183
0.00034046095
0.00029619724
0.00025315564
0.00022353958
0.00018196718
0.00030360641
-0.00023097121
0.0040417027
0.0040613911
0.0041048993
0.0041600392
0.0042248512
0.004299392
0.0043830942
0.0044752335
0.0045754532
0.0046838016
0.0048006369
0.0049266168
0.0050627806
0.0052106957
0.0053726686
0.0055521413
0.005754208
0.0059871684
0.0062634518
0.0066095356
0.0070593156
0.0077597917
0.0087357435
0.012047814
0.0090472681
0.0041840131
0.0041897112
0.0046342823
0.0046762626
0.0044786694
0.0043001905
0.0042060826
0.0041345987
0.0040600887
0.0039879982
0.0039223277
0.0038608236
0.0038030799
0.0037482901
0.0036972989
0.0036493372
0.0036038761
0.0035607359
0.003519143
0.0034796748
0.0034410914
0.003404524
0.0033693344
0.0033341095
0.0033012064
0.0032691879
0.0032367012
0.0032063012
0.0031766265
0.0031463322
0.0031173639
0.003089454
0.0030612015
0.0030328612
0.0030062023
0.0029799009
0.0029526212
0.0029256831
0.0029002483
0.0028748777
0.0028484049
0.0028223127
0.0027974693
0.0027727771
0.0027469851
0.0027212726
0.0026963612
0.0026718168
0.002646463
0.0026206257