/*--------------------------------*- C++ -*----------------------------------*\
  =========                 |
  \\      /  F ield         | OpenFOAM: The Open Source CFD Toolbox
   \\    /   O peration     | Website:  https://openfoam.org
    \\  /    A nd           | Version:  12
     \\/     M anipulation  |
\*---------------------------------------------------------------------------*/
FoamFile
{
    format      ascii;
    class       surfaceScalarField;
    location    "1300";
    object      phi;
}
// * * * * * * * * * * * * * * * * * * * * * * * * * * * * * * * * * * * * * //

dimensions      [0 3 -1 0 0 0 0];

internalField   nonuniform List<scalar> 
14782
(
0.0007983908
1.0682376e-06
-0.00079945903
0.0007969552
1.4355936e-06
0.00079532299
1.6322158e-06
0.00079361474
1.7082484e-06
0.00079183088
1.7838563e-06
0.00078997009
1.8607916e-06
0.00078803496
1.9351319e-06
0.00078602216
2.012802e-06
0.00078392141
2.100748e-06
0.00078173279
2.1886176e-06
0.00077938205
2.3507395e-06
0.00077698326
2.3987875e-06
0.00077340256
3.5807013e-06
0.00076706218
6.3403782e-06
0.00075812784
8.9343483e-06
0.00074740546
1.0722379e-05
0.00073575288
1.1652582e-05
0.00072356099
1.2191881e-05
0.00071111438
1.2446612e-05
0.00069865993
1.2454448e-05
0.00068634767
1.2312265e-05
0.00067425714
1.2090527e-05
0.00066233415
1.1922996e-05
0.00065052504
1.1809105e-05
0.00063892403
1.1601011e-05
0.00062767611
1.1247917e-05
0.00061698727
1.0688841e-05
0.00060693601
1.0051264e-05
0.0005974693
9.4667114e-06
0.00058861919
8.8501042e-06
0.00058043613
8.1830598e-06
0.00057295097
7.485158e-06
0.00056616735
6.7836197e-06
0.0005600664
6.1009556e-06
0.00055461075
5.4556461e-06
0.00054974926
4.8614953e-06
0.00054542347
4.3257869e-06
0.00054158249
3.8409846e-06
0.00053818262
3.3998671e-06
0.00053517605
3.0065726e-06
0.00053250966
2.6663832e-06
0.0005301285
2.3811617e-06
0.00052798274
2.1457632e-06
0.0005260332
1.9495348e-06
0.00052423693
1.796274e-06
0.00052255151
1.6854159e-06
0.00052094498
1.606533e-06
0.0005193886
1.5563756e-06
0.00051785964
1.5289595e-06
0.00051633622
1.5234221e-06
0.00051479274
1.5434828e-06
0.00051320525
1.5874932e-06
0.0005115617
1.6435498e-06
0.00050986141
1.700288e-06
0.00050810983
1.75158e-06
0.00050631648
1.7933488e-06
0.00050449226
1.8242167e-06
0.00050265183
1.8404347e-06
0.00050080794
1.8438844e-06
0.00049896572
1.8422261e-06
0.00049712786
1.8378627e-06
0.00049529641
1.8314481e-06
0.00049347652
1.8198842e-06
0.00049167325
1.8032726e-06
0.00048988913
1.7841163e-06
0.00048812679
1.7623422e-06
0.00048639038
1.7364117e-06
0.00048468241
1.7079713e-06
0.0004830005
1.6819124e-06
0.00048134081
1.6596917e-06
0.00047970157
1.6392308e-06
0.00047808218
1.6193992e-06
0.00047648194
1.6002357e-06
0.00047490137
1.5805742e-06
0.00047334253
1.5588324e-06
0.00047180642
1.53611e-06
0.00047029111
1.5153088e-06
0.00046879467
1.4964431e-06
0.00046731536
1.4793129e-06
0.00046585291
1.4624456e-06
0.00046440748
1.4454289e-06
0.00046298018
1.427302e-06
0.00046157208
1.4081031e-06
0.00046018098
1.3910989e-06
0.00045880547
1.3755055e-06
0.00045744498
1.3604933e-06
0.00045609853
1.3464535e-06
0.00045476765
1.3308756e-06
0.00045345272
1.3149364e-06
0.00045215156
1.3011566e-06
0.00045086353
1.2880283e-06
0.00044958787
1.2756589e-06
0.00044832378
1.2640929e-06
0.00044707169
1.2520901e-06
0.00044582866
1.2430242e-06
0.00044459224
1.2364264e-06
0.0004433525
1.2397409e-06
0.00044207921
1.2732883e-06
0.00044084925
1.2299561e-06
1.4789428e-06
0.00082684524
1.0459816e-06
-0.00082682299
0.00082687814
1.4026967e-06
0.00082688526
1.6250943e-06
0.0008268696
1.7239047e-06
0.00082684196
1.8115034e-06
0.0008267979
1.9048542e-06
0.00082673677
1.9962555e-06
0.00082665619
2.0933878e-06
0.00082655096
2.2059778e-06
0.00082640914
2.3304351e-06
0.00082621989
2.5399849e-06
0.00082585558
2.7630969e-06
0.00082543193
4.0043576e-06
0.00082494363
6.8286751e-06
0.000823991
9.8869838e-06
0.00082232466
1.2388709e-05
0.00081987493
1.4102322e-05
0.00081671516
1.5351645e-05
0.0008129193
1.6242477e-05
0.00080854102
1.6832721e-05
0.00080360088
1.7252408e-05
0.00079812683
1.7564583e-05
0.00079224934
1.7800476e-05
0.00078606876
1.7989685e-05
0.00077960352
1.8066252e-05
0.00077287643
1.7975016e-05
0.00076586856
1.7696707e-05
0.00075863586
1.7283965e-05
0.00075129066
1.6811909e-05
0.00074389167
1.6249093e-05
0.00073649304
1.5581688e-05
0.00072914582
1.483238e-05
0.0007219031
1.4026342e-05
0.00071481908
1.3184981e-05
0.00070794452
1.2330203e-05
0.00070132462
1.1481397e-05
0.00069500717
1.0643238e-05
0.00068900907
9.839079e-06
0.00068330597
9.1029709e-06
0.00067788484
8.4277043e-06
0.00067274796
7.8032557e-06
0.00066789518
7.233948e-06
0.00066331708
6.7238595e-06
0.00065899178
6.2748373e-06
0.00065489866
5.8893899e-06
0.00065102022
5.5638612e-06
0.0006473334
5.2933523e-06
0.00064381927
5.0705018e-06
0.00064046647
4.8817592e-06
0.00063723418
4.7557162e-06
0.00063407865
4.6990147e-06
0.00063099335
4.6727857e-06
0.00062798015
4.6567504e-06
0.00062504118
4.6392632e-06
0.0006221747
4.6180556e-06
0.00061937627
4.5917767e-06
0.00061664038
4.5601124e-06
0.00061395752
4.5232949e-06
0.00061131616
4.4852399e-06
0.00060871076
4.4476242e-06
0.0006061416
4.4070304e-06
0.00060361017
4.362879e-06
0.00060111935
4.3107017e-06
0.00059867146
4.2511632e-06
0.00059626682
4.1887523e-06
0.00059390601
4.1231582e-06
0.00059158956
4.0528616e-06
0.00058931475
3.9827753e-06
0.00058707649
3.9201791e-06
0.00058487174
3.8644333e-06
0.00058270077
3.8102068e-06
0.00058056447
3.7556997e-06
0.00057846269
3.7020132e-06
0.00057639549
3.6477724e-06
0.00057436346
3.5908671e-06
0.0005723652
3.5343717e-06
0.00057039731
3.4831984e-06
0.00056845781
3.435941e-06
0.00056654604
3.3910816e-06
0.00056466221
3.3462699e-06
0.00056280645
3.3011956e-06
0.00056097886
3.2548857e-06
0.00055917874
3.2082301e-06
0.00055740339
3.1664455e-06
0.0005556515
3.1273913e-06
0.00055392288
3.0891173e-06
0.00055221704
3.0522912e-06
0.00055053456
3.0133589e-06
0.00054887465
2.9748445e-06
0.00054723498
2.9408279e-06
0.00054561472
2.9082914e-06
0.00054401352
2.8768541e-06
0.00054243043
2.847188e-06
0.00054086528
2.817238e-06
0.00053931305
2.7952529e-06
0.00053777646
2.7730119e-06
0.00053622846
2.7877408e-06
0.00053470419
2.7975607e-06
0.00053296671
2.9674432e-06
2.9621087e-06
0.00085447077
1.042291e-06
-0.00085446708
0.00085448557
1.3878901e-06
0.00085449734
1.6133292e-06
0.00085449116
1.730084e-06
0.00085447152
1.8311403e-06
0.00085443862
1.9377538e-06
0.00085439
2.0448834e-06
0.00085432386
2.1595211e-06
0.00085423575
2.2940917e-06
0.00085411315
2.4530347e-06
0.00085394589
2.7072479e-06
0.00085364078
3.0682036e-06
0.00085337267
4.2724678e-06
0.00085335895
6.8423969e-06
0.00085349849
9.7474389e-06
0.0008536961
1.2191099e-05
0.00085384361
1.3954818e-05
0.00085389481
1.5300443e-05
0.00085379496
1.6342325e-05
0.000853504
1.7123685e-05
0.00085300675
1.7749652e-05
0.00085228666
1.8284676e-05
0.00085132887
1.8758269e-05
0.00085011686
1.920169e-05
0.00084859376
1.9589351e-05
0.00084667297
1.9895813e-05
0.00084425634
2.0113335e-05
0.00084128994
2.0250363e-05
0.00083777245
2.0329395e-05
0.00083367497
2.0346581e-05
0.00082900337
2.025328e-05
0.00082380076
2.0034997e-05
0.00081810982
1.9717279e-05
0.00081199073
1.9304073e-05
0.00080552182
1.8799112e-05
0.00079879639
1.8206827e-05
0.00079191499
1.7524632e-05
0.00078498432
1.6769753e-05
0.00077810601
1.5981281e-05
0.00077136194
1.5171773e-05
0.00076481774
1.4347453e-05
0.00075852156
1.3530127e-05
0.00075246723
1.2778188e-05
0.00074662743
1.2114642e-05
0.00074101106
1.150576e-05
0.00073563426
1.0940662e-05
0.00073050884
1.0418767e-05
0.00072563515
9.9442003e-06
0.00072099423
9.5226721e-06
0.00071656506
9.1848878e-06
0.00071233179
8.93229e-06
0.00070827625
8.7283213e-06
0.00070438352
8.5494821e-06
0.00070064376
8.3790212e-06
0.00069704371
8.2181024e-06
0.0006935679
8.0675884e-06
0.00069019998
7.928034e-06
0.00068691192
7.8113603e-06
0.00068368576
7.7113924e-06
0.00068052559
7.6077971e-06
0.00067743388
7.4987413e-06
0.00067440869
7.3880726e-06
0.00067144811
7.2712781e-06
0.00066855127
7.1480063e-06
0.00066571659
7.0234245e-06
0.00066294302
6.8967342e-06
0.00066022699
6.7688933e-06
0.0006575608
6.6489605e-06
0.00065493895
6.54203e-06
0.00065236085
6.4425326e-06
0.00064982815
6.3429069e-06
0.00064734178
6.2420724e-06
0.00064490108
6.1427161e-06
0.00064250558
6.0432665e-06
0.00064015457
5.9418812e-06
0.0006378445
5.844443e-06
0.00063557112
5.7565708e-06
0.00063333311
5.6739553e-06
0.0006311306
5.5935878e-06
0.00062896394
5.5129369e-06
0.00062683305
5.4320858e-06
0.00062473724
5.3506938e-06
0.00062267444
5.2710283e-06
0.00062064162
5.1992616e-06
0.00061863777
5.131244e-06
0.00061666299
5.063896e-06
0.00061471699
4.9982887e-06
0.00061279974
4.9306159e-06
0.00061090959
4.8649924e-06
0.00060904402
4.8063993e-06
0.00060720225
4.7500549e-06
0.0006053842
4.6949106e-06
0.00060358871
4.6426765e-06
0.00060181517
4.5907825e-06
0.00060005755
4.5528657e-06
0.00059832052
4.510041e-06
0.00059657016
4.538106e-06
0.00059486788
4.4998368e-06
0.00059284638
4.9889479e-06
4.5283838e-06
0.00088301903
1.0500119e-06
-0.00088302675
0.00088303031
1.3766025e-06
0.00088304003
1.6036136e-06
0.00088303183
1.738279e-06
0.00088301054
1.8524343e-06
0.00088297624
1.9720551e-06
0.00088292598
2.0951434e-06
0.00088285782
2.2276794e-06
0.00088276751
2.3843992e-06
0.00088264331
2.5772374e-06
0.00088247408
2.8764739e-06
0.00088220432
3.3379698e-06
0.00088195804
4.5187494e-06
0.00088193413
6.8663059e-06
0.00088208456
9.5970049e-06
0.000882328
1.194766e-05
0.00088258835
1.3694469e-05
0.00088284944
1.5039348e-05
0.00088309001
1.6101762e-05
0.00088329506
1.6918628e-05
0.00088346671
1.7578001e-05
0.00088360632
1.8145075e-05
0.00088371202
1.8652568e-05
0.00088378406
1.9129644e-05
0.00088381519
1.9558219e-05
0.00088379047
1.9920543e-05
0.0008836894
2.0214406e-05
0.00088348552
2.0454237e-05
0.00088314741
2.0667503e-05
0.00088263708
2.0856912e-05
0.00088188284
2.1007524e-05
0.00088079397
2.1123862e-05
0.00087929251
2.1218743e-05
0.00087729931
2.1297271e-05
0.00087473708
2.1361349e-05
0.00087153561
2.1408296e-05
0.00086763563
2.1424611e-05
0.0008630368
2.1368577e-05
0.0008577979
2.1220188e-05
0.00085198683
2.0982844e-05
0.00084569486
2.0639419e-05
0.00083905071
2.0174277e-05
0.00083221124
1.9617654e-05
0.00082532394
1.9001947e-05
0.00081850365
1.8326051e-05
0.0008118406
1.7603707e-05
0.00080541163
1.6847742e-05
0.00079921665
1.6139179e-05
0.0007932157
1.5523621e-05
0.00078743921
1.4961382e-05
0.00078192721
1.4444282e-05
0.00077668968
1.3965859e-05
0.00077171767
1.3521486e-05
0.00076698183
1.3114859e-05
0.00076244758
1.2752352e-05
0.00075809122
1.2423953e-05
0.00075389659
1.2122668e-05
0.00074985318
1.185477e-05
0.00074595315
1.1611414e-05
0.00074218291
1.1378038e-05
0.00073852713
1.1154527e-05
0.00073497128
1.0943921e-05
0.00073150728
1.0735276e-05
0.00072813287
1.0522414e-05
0.00072484492
1.0311376e-05
0.00072163911
1.010255e-05
0.00071850346
9.904543e-06
0.00071542488
9.7275387e-06
0.0007124031
9.5638113e-06
0.00070944203
9.4035972e-06
0.00070654263
9.2423135e-06
0.00070370381
9.080885e-06
0.00070092363
8.9229003e-06
0.00069820094
8.7659596e-06
0.00069553271
8.6101107e-06
0.00069291233
8.4648157e-06
0.00069033574
8.3331617e-06
0.00068780342
8.2062788e-06
0.00068531616
8.0808503e-06
0.00068287386
7.9552306e-06
0.000680476
7.8299439e-06
0.00067812056
7.7061348e-06
0.00067580377
7.5878225e-06
0.00067352258
7.4804474e-06
0.0006712767
7.3771231e-06
0.00066906654
7.2740597e-06
0.00066689178
7.1730501e-06
0.00066475153
7.0708667e-06
0.00066264308
6.973443e-06
0.00066056382
6.8856608e-06
0.00065851327
6.8006044e-06
0.00065649155
6.7166254e-06
0.00065449722
6.6370077e-06
0.000652529
6.5590077e-06
0.00065058017
6.5016909e-06
0.00064865656
6.4336528e-06
0.00064672017
6.474499e-06
0.00064484905
6.3709521e-06
0.00064258921
7.2487857e-06
6.2033381e-06
0.00091252407
1.0646949e-06
-0.00091253875
0.0009125296
1.371077e-06
0.00091253358
1.5996287e-06
0.00091252212
1.7497424e-06
0.00091249794
1.876612e-06
0.00091246132
2.0086739e-06
0.00091240936
2.1471035e-06
0.00091233954
2.2975017e-06
0.00091224765
2.4762916e-06
0.00091212292
2.7019627e-06
0.00091195647
3.0429287e-06
0.00091171346
3.5809773e-06
0.00091148915
4.7430551e-06
0.00091145755
6.8979091e-06
0.0009115981
9.4564545e-06
0.00091183065
1.1715113e-05
0.00091208673
1.3438388e-05
0.00091234845
1.477763e-05
0.00091259957
1.5850636e-05
0.00091282597
1.6692228e-05
0.00091302824
1.7375736e-05
0.00091321057
1.7962738e-05
0.00091337562
1.848752e-05
0.00091352978
1.8975482e-05
0.00091367355
1.9414455e-05
0.00091380501
1.9789083e-05
0.00091392247
2.0096939e-05
0.0009140248
2.0351913e-05
0.00091411318
2.0579119e-05
0.00091418647
2.0783618e-05
0.00091423898
2.0955014e-05
0.00091426368
2.109917e-05
0.00091425056
2.1231857e-05
0.0009141831
2.1364731e-05
0.00091403597
2.1508482e-05
0.00091377227
2.1671992e-05
0.00091333543
2.1861455e-05
0.00091262866
2.2075352e-05
0.00091153445
2.2314394e-05
0.00090993866
2.2578632e-05
0.00090772053
2.2857548e-05
0.0009047592
2.3135615e-05
0.00090098763
2.3389218e-05
0.00089643071
2.3558871e-05
0.00089115918
2.3597574e-05
0.00088526188
2.3501009e-05
0.00087886657
2.3243052e-05
0.00087215095
2.28548e-05
0.00086529314
2.2381434e-05
0.00085844181
2.1812711e-05
0.0008517212
2.1164888e-05
0.0008452352
2.0451863e-05
0.00083900329
1.9753398e-05
0.00083297797
1.9140181e-05
0.00082715602
1.8574301e-05
0.00082155892
1.8021053e-05
0.00081620746
1.7474128e-05
0.00081111787
1.694436e-05
0.0008062732
1.6456081e-05
0.00080163049
1.6020743e-05
0.0007971594
1.5625619e-05
0.00079284252
1.5260803e-05
0.00078867342
1.4904377e-05
0.000784646
1.4549835e-05
0.00078074661
1.4210764e-05
0.00077695982
1.3889342e-05
0.0007732753
1.358906e-05
0.0007696895
1.3313345e-05
0.00076619895
1.3054358e-05
0.00076279774
1.2804802e-05
0.00075947946
1.2560597e-05
0.00075623952
1.2320822e-05
0.00075307489
1.2087535e-05
0.00074998351
1.1857335e-05
0.00074695771
1.1635915e-05
0.0007439871
1.1435424e-05
0.00074107087
1.1249397e-05
0.00073821253
1.1064618e-05
0.0007354122
1.0881176e-05
0.00073266838
1.0699054e-05
0.00072997969
1.0518635e-05
0.00072734178
1.0344042e-05
0.00072474879
1.0180813e-05
0.00072219874
1.0030491e-05
0.00071969256
9.8833113e-06
0.00071723063
9.7359865e-06
0.00071481226
9.5914222e-06
0.00071243508
9.4480406e-06
0.000710095
9.3135238e-06
0.00070778978
9.1908883e-06
0.00070551949
9.0708914e-06
0.0007032844
8.9517145e-06
0.00070108241
8.8389953e-06
0.00069891128
8.7301397e-06
0.0006967638
8.6491683e-06
0.00069464681
8.5506441e-06
0.00069251927
8.6020406e-06
0.0006904723
8.4179247e-06
0.00068797953
9.741547e-06
8.0043944e-06
0.00094301477
1.0851084e-06
-0.00094303518
0.00094301362
1.3722316e-06
0.00094301241
1.6008377e-06
0.00094299862
1.7635256e-06
0.00094297254
1.9026994e-06
0.0009429344
2.0468147e-06
0.00094288142
2.2000818e-06
0.00094281057
2.3683493e-06
0.00094271773
2.5691325e-06
0.00094259368
2.8260135e-06
0.00094243136
3.2052521e-06
0.00094221085
3.8014801e-06
0.00094200874
4.9451708e-06
0.00094197341
6.9332319e-06
0.00094210393
9.3259362e-06
0.00094232587
1.1493176e-05
0.00094257531
1.3188945e-05
0.00094283121
1.4521729e-05
0.00094307875
1.5603103e-05
0.00094330443
1.6466548e-05
0.00094350825
1.7171918e-05
0.00094369412
1.7776864e-05
0.00094386452
1.8317115e-05
0.00094402509
1.8814921e-05
0.00094417677
1.9262771e-05
0.00094431835
1.9647502e-05
0.00094444788
1.9967411e-05
0.0009445646
2.0235191e-05
0.00094467066
2.0473055e-05
0.0009447671
2.0687186e-05
0.00094485293
2.0869179e-05
0.00094492823
2.1023869e-05
0.00094499368
2.1166408e-05
0.00094504987
2.1308542e-05
0.00094509752
2.1460835e-05
0.00094513676
2.1632753e-05
0.00094516666
2.1831557e-05
0.00094518297
2.2059037e-05
0.00094517775
2.2319619e-05
0.00094513737
2.2619008e-05
0.00094503737
2.2957544e-05
0.00094483527
2.3337718e-05
0.00094446384
2.3760643e-05
0.00094380078
2.4221935e-05
0.00094268545
2.4712907e-05
0.00094096564
2.5220817e-05
0.00093848332
2.5725369e-05
0.00093513716
2.6200966e-05
0.00093093348
2.6585108e-05
0.00092593721
2.6808981e-05
0.00092024509
2.6857015e-05
0.00091399623
2.6700724e-05
0.00090738556
2.6364063e-05
0.00090061515
2.5910593e-05
0.00089384879
2.5340659e-05
0.00088720632
2.4663525e-05
0.00088078339
2.3897059e-05
0.00087458875
2.3138994e-05
0.00086856932
2.2475513e-05
0.00086273313
2.1856936e-05
0.0008571153
2.1243448e-05
0.00085174289
2.0633208e-05
0.00084661041
2.0036865e-05
0.00084167973
1.9480512e-05
0.00083692083
1.8969665e-05
0.0008323181
1.849207e-05
0.00082787442
1.803274e-05
0.00082359697
1.759079e-05
0.00081947207
1.7179258e-05
0.0008154773
1.6799575e-05
0.00081159802
1.6439876e-05
0.00080782887
1.608997e-05
0.00080416523
1.5751184e-05
0.00080059956
1.5423003e-05
0.00079712427
1.5111205e-05
0.0007937344
1.4825291e-05
0.00079042642
1.4557377e-05
0.00078719684
1.4294198e-05
0.00078404143
1.403659e-05
0.0007809565
1.3783978e-05
0.00077793974
1.3535403e-05
0.00077498291
1.3300867e-05
0.00077207842
1.3085307e-05
0.00076922759
1.2881317e-05
0.0007664324
1.2678505e-05
0.00076369227
1.247611e-05
0.00076100558
1.2278112e-05
0.00075836762
1.2086002e-05
0.00075577286
1.1908287e-05
0.0007532204
1.1743347e-05
0.00075071097
1.1580321e-05
0.00074824462
1.1418068e-05
0.00074581806
1.1265555e-05
0.00074342778
1.112042e-05
0.00074106643
1.1010514e-05
0.00073874198
1.0875098e-05
0.00073641055
1.0933471e-05
0.00073417488
1.0653595e-05
0.00073144095
1.2475479e-05
9.9475371e-06
0.00097452375
1.1101379e-06
-0.00097454878
0.00097451641
1.3795735e-06
0.00097451056
1.6066832e-06
0.0009744943
1.7797834e-06
0.00097446608
1.9309239e-06
0.00097442602
2.086874e-06
0.0009743716
2.2545065e-06
0.00097429953
2.4404125e-06
0.0009742059
2.6627615e-06
0.00097408308
2.9488372e-06
0.00097392583
3.3625009e-06
0.00097372515
4.0021597e-06
0.00097354397
5.1263539e-06
0.00097350717
6.9700325e-06
0.00097362766
9.2054418e-06
0.00097383988
1.128096e-05
0.00097408341
1.2945419e-05
0.00097433505
1.4270087e-05
0.00097458103
1.535712e-05
0.00097480802
1.6239556e-05
0.00097501465
1.6965285e-05
0.00097520349
1.7588033e-05
0.0009753773
1.8143302e-05
0.0009755406
1.8651616e-05
0.00097569438
1.9108993e-05
0.00097583763
1.9504251e-05
0.00097596899
1.9836055e-05
0.00097608812
2.0116064e-05
0.00097619701
2.0364165e-05
0.00097629682
2.0587368e-05
0.00097638669
2.0779309e-05
0.00097646656
2.0943999e-05
0.0009765373
2.1095672e-05
0.00097659944
2.1246406e-05
0.00097665374
2.1406531e-05
0.00097670133
2.1585162e-05
0.00097674339
2.17895e-05
0.00097678064
2.2021784e-05
0.00097681399
2.2286271e-05
0.00097684438
2.2588616e-05
0.00097687216
2.2929766e-05
0.00097689732
2.3312557e-05
0.00097691868
2.373928e-05
0.00097693152
2.4209093e-05
0.0009769244
2.4720028e-05
0.00097687668
2.5268545e-05
0.00097674928
2.5852761e-05
0.00097647918
2.647107e-05
0.00097594339
2.7120902e-05
0.0009749577
2.7794671e-05
0.00097333781
2.84769e-05
0.00097089853
2.9140002e-05
0.00096752019
2.9742408e-05
0.00096323528
3.0195507e-05
0.00095814832
3.0427613e-05
0.00095238165
3.04302e-05
0.0009461031
3.0175601e-05
0.00093952382
2.9718281e-05
0.00093284148
2.9157851e-05
0.00092619881
2.8499609e-05
0.00091969793
2.7744326e-05
0.00091341592
2.6915213e-05
0.00090731235
2.6140433e-05
0.0009013268
2.5466068e-05
0.00089550431
2.4792153e-05
0.0008898947
2.4101683e-05
0.00088451486
2.3412574e-05
0.00087934281
2.2762839e-05
0.00087435459
2.2167484e-05
0.00086953735
2.1616817e-05
0.00086488834
2.1088887e-05
0.00086040415
2.0574157e-05
0.00085607093
2.0084403e-05
0.00085187069
1.9623243e-05
0.0008477978
1.9184098e-05
0.00084385635
1.8766735e-05
0.00084003864
1.8375084e-05
0.00083633016
1.8002685e-05
0.00083272045
1.7646299e-05
0.00082920382
1.730061e-05
0.00082577549
1.6963734e-05
0.00082243009
1.6646262e-05
0.00081916287
1.6352528e-05
0.00081596978
1.6074405e-05
0.00081284794
1.5800351e-05
0.00080979422
1.5529828e-05
0.00080680563
1.5266702e-05
0.00080387398
1.501765e-05
0.00080099301
1.4789262e-05
0.00079816476
1.4571596e-05
0.00079539
1.4355078e-05
0.00079266789
1.4140173e-05
0.00078999324
1.3940214e-05
0.00078736109
1.3752561e-05
0.00078476466
1.3606952e-05
0.00078221314
1.3426612e-05
0.00077965954
1.3487068e-05
0.0007772176
1.3095537e-05
0.0007742258
1.5467283e-05
1.2049855e-05
0.001007085
1.1388152e-06
-0.0010071137
0.0010070721
1.3924927e-06
0.0010070617
1.6170659e-06
0.0010070427
1.7988174e-06
0.0010070123
1.961322e-06
0.0010069704
2.1287776e-06
0.0010069147
2.310207e-06
0.0010068419
2.5132581e-06
0.0010067482
2.7564696e-06
0.0010066275
3.0695395e-06
0.0010064764
3.5135896e-06
0.0010062935
4.1850086e-06
0.0010061317
5.2881968e-06
0.0010060954
7.0063369e-06
0.0010062064
9.0943834e-06
0.0010064091
1.1078236e-05
0.0010066465
1.2708118e-05
0.0010068937
1.4022856e-05
0.0010071378
1.5113021e-05
0.001007366
1.6011307e-05
0.0010075754
1.675595e-05
0.0010077676
1.7395806e-05
0.0010079453
1.7965579e-05
0.0010081122
1.8484708e-05
0.0010082694
1.8951817e-05
0.0010084159
1.9357747e-05
0.0010085504
1.9701522e-05
0.0010086727
1.9993824e-05
0.0010087843
2.0252504e-05
0.0010088866
2.0485116e-05
0.0010089787
2.0687163e-05
0.0010090606
2.086215e-05
0.0010091329
2.1023368e-05
0.0010091964
2.1182863e-05
0.0010092522
2.1350716e-05
0.0010093016
2.1535845e-05
0.0010093457
2.1745398e-05
0.0010093853
2.1982158e-05
0.0010094214
2.2250177e-05
0.001009455
2.2555014e-05
0.0010094865
2.2898261e-05
0.0010095165
2.3282512e-05
0.0010095457
2.3710095e-05
0.0010095746
2.4180259e-05
0.0010096035
2.4691111e-05
0.0010096324
2.523959e-05
0.0010096612
2.5824017e-05
0.0010096886
2.6443671e-05
0.0010097106
2.7098855e-05
0.0010097157
2.7789609e-05
0.0010096805
2.8512053e-05
0.0010095598
2.926073e-05
0.0010092746
3.0027626e-05
0.001008667
3.0803081e-05
0.0010075195
3.1575075e-05
0.0010056289
3.2320838e-05
0.001002791
3.3013479e-05
0.00099893846
3.3570847e-05
0.00099419317
3.3903144e-05
0.00098870986
3.3982922e-05
0.00098265434
3.3799837e-05
0.00097622967
3.3339892e-05
0.00096964581
3.2724286e-05
0.00096305629
3.2055592e-05
0.00095655379
3.1294651e-05
0.00095022416
3.0431316e-05
0.0009440467
2.9590033e-05
0.00093795603
2.8853505e-05
0.00093199546
2.8128058e-05
0.0009262327
2.7379573e-05
0.00092069262
2.662897e-05
0.00091534993
2.5916846e-05
0.000910181
2.5253339e-05
0.00090517886
2.4625382e-05
0.00090034829
2.4014664e-05
0.00089569195
2.3423075e-05
0.00089119754
2.2869495e-05
0.0008868492
2.2351023e-05
0.00088263739
2.1858106e-05
0.00087855575
2.1382251e-05
0.0008745939
2.0925588e-05
0.00087074768
2.049248e-05
0.00086701655
2.0083659e-05
0.00086339073
1.9700227e-05
0.00085985999
1.9331091e-05
0.00085641704
1.8972773e-05
0.0008530564
1.8627343e-05
0.00084977393
1.8300124e-05
0.00084656516
1.799803e-05
0.00084342575
1.7711007e-05
0.00084035283
1.7428003e-05
0.00083734386
1.7149142e-05
0.00083439087
1.6893198e-05
0.0008314878
1.6655636e-05
0.00082862947
1.6465275e-05
0.00082582623
1.6229855e-05
0.00082302712
1.6286178e-05
0.00082035674
1.5765922e-05
0.00081708365
1.8740371e-05
1.4330669e-05
0.0010407338
1.1704207e-06
-0.0010407654
0.0010407158
1.410412e-06
0.001040701
1.6318634e-06
0.0010406792
1.8207105e-06
0.0010406467
1.9937948e-06
0.0010406031
2.1723944e-06
0.0010405462
2.3670747e-06
0.0010404728
2.5866521e-06
0.0010403794
2.849836e-06
0.0010402614
3.1876015e-06
0.001040117
3.6579801e-06
0.0010399501
4.3518928e-06
0.0010398059
5.4324412e-06
0.0010397715
7.0406481e-06
0.0010398739
8.99199e-06
0.0010400673
1.088492e-05
0.0010402981
1.2477274e-05
0.0010405409
1.3780099e-05
0.0010407828
1.4871049e-05
0.0010410119
1.5782206e-05
0.0010412237
1.6544172e-05
0.0010414192
1.7200289e-05
0.0010416008
1.778405e-05
0.0010417714
1.8314107e-05
0.0010419321
1.8791053e-05
0.0010420822
1.9207677e-05
0.0010422203
1.9563374e-05
0.0010423462
1.9867926e-05
0.0010424613
2.0137402e-05
0.0010425668
2.0379687e-05
0.001042662
2.0591957e-05
0.0010427467
2.0777411e-05
0.0010428217
2.0948407e-05
0.0010428877
2.111687e-05
0.0010429457
2.1292677e-05
0.001042997
2.1484543e-05
0.0010430428
2.1699563e-05
0.001043084
2.194101e-05
0.0010431213
2.2212869e-05
0.0010431558
2.2520502e-05
0.0010431882
2.286591e-05
0.0010432191
2.3251553e-05
0.0010432495
2.3679721e-05
0.0010432799
2.4149895e-05
0.0010433107
2.4660234e-05
0.0010433424
2.5207955e-05
0.0010433748
2.5791601e-05
0.0010434079
2.6410599e-05
0.0010434416
2.7065084e-05
0.0010434764
2.7754824e-05
0.0010435121
2.8476342e-05
0.0010435483
2.922458e-05
0.0010435833
2.9992574e-05
0.0010436108
3.0775584e-05
0.0010436139
3.1571969e-05
0.0010435571
3.2377621e-05
0.0010433769
3.3193694e-05
0.001042931
3.4016759e-05
0.0010419936
3.4840605e-05
0.0010403275
3.5648978e-05
0.0010377164
3.6410901e-05
0.0010340185
3.7037873e-05
0.0010293297
3.741309e-05
0.001023884
3.7501277e-05
0.0010178715
3.7307069e-05
0.001011496
3.6806871e-05
0.0010049589
3.6127087e-05
0.00099840291
3.5409533e-05
0.0009919105
3.4620467e-05
0.00098556209
3.3727989e-05
0.00097933488
3.2856177e-05
0.00097316929
3.2082437e-05
0.00096712094
3.1301687e-05
0.00096126067
3.0485656e-05
0.00095560484
2.9670487e-05
0.00095012825
2.8899672e-05
0.00094482176
2.8175984e-05
0.00093969139
2.748139e-05
0.00093474029
2.6809205e-05
0.00092995987
2.616267e-05
0.00092533408
2.5551379e-05
0.00092085587
2.497069e-05
0.0009165267
2.4412828e-05
0.00091233837
2.3888557e-05
0.00090827762
2.3391848e-05
0.00090433488
2.2915507e-05
0.00090050179
2.246044e-05
0.00089677719
2.2024721e-05
0.00089315842
2.1616799e-05
0.00088963396
2.1235466e-05
0.0008861957
2.086626e-05
0.00088283761
2.0507232e-05
0.00087955363
2.0177182e-05
0.00087634013
1.9869135e-05
0.00087318751
1.9617893e-05
0.00087010261
1.9314759e-05
0.00086702926
1.9359529e-05
0.00086410327
1.8691907e-05
0.0008605192
2.2324447e-05
1.6812284e-05
0.0010755062
1.2044389e-06
-0.0010755403
0.0010754839
1.4327638e-06
0.0010754649
1.6508656e-06
0.0010754401
1.8454717e-06
0.0010754056
2.0282895e-06
0.0010753604
2.2176369e-06
0.0010753024
2.4250129e-06
0.0010752287
2.6603574e-06
0.0010751362
2.9424101e-06
0.0010750213
3.3024855e-06
0.001074884
3.7952167e-06
0.0010747317
4.5042021e-06
0.0010746036
5.5605895e-06
0.0010745724
7.0717843e-06
0.0010746672
8.8972819e-06
0.0010748513
1.0700817e-05
0.0010750755
1.2253003e-05
0.0010753138
1.3541857e-05
0.0010755534
1.4631437e-05
0.0010757829
1.5552683e-05
0.0010759969
1.6330226e-05
0.0010761955
1.7001681e-05
0.0010763806
1.7598901e-05
0.0010765548
1.8139891e-05
0.0010767191
1.8626757e-05
0.0010768727
1.9054087e-05
0.0010770144
1.9421649e-05
0.001077144
1.9738404e-05
0.0010772625
2.0018859e-05
0.0010773711
2.027106e-05
0.0010774694
2.0493654e-05
0.0010775572
2.0689689e-05
0.0010776349
2.0870629e-05
0.0010777036
2.1048206e-05
0.0010777641
2.1232128e-05
0.0010778178
2.1430912e-05
0.0010778657
2.1651601e-05
0.0010779089
2.1897887e-05
0.001077948
2.217374e-05
0.0010779842
2.248434e-05
0.001078018
2.2832029e-05
0.0010780504
2.3219192e-05
0.001078082
2.3648072e-05
0.0010781136
2.4118377e-05
0.0010781454
2.4628411e-05
0.0010781777
2.5175619e-05
0.0010782107
2.5758568e-05
0.0010782446
2.6376702e-05
0.0010782797
2.7030061e-05
0.0010783162
2.7718277e-05
0.0010783546
2.843791e-05
0.001078395
2.9184254e-05
0.0010784365
2.9951062e-05
0.0010784786
3.0733464e-05
0.0010785211
3.1529457e-05
0.0010785632
3.2335531e-05
0.001078604
3.3152892e-05
0.0010786397
3.3981084e-05
0.0010786568
3.4823507e-05
0.0010786219
3.5683901e-05
0.0010784741
3.6558664e-05
0.0010780663
3.7445693e-05
0.0010771482
3.8331205e-05
0.0010754532
3.9196217e-05
0.0010727477
4.0012564e-05
0.0010688963
4.0658281e-05
0.0010640168
4.1006606e-05
0.0010583893
4.1037057e-05
0.0010522528
4.0756929e-05
0.001045821
4.0159811e-05
0.0010392754
3.9401803e-05
0.001032729
3.8628833e-05
0.0010262492
3.7781507e-05
0.0010198955
3.6839326e-05
0.0010136214
3.5944536e-05
0.001007386
3.5135093e-05
0.0010012765
3.4285447e-05
0.00099535095
3.3406986e-05
0.00098960883
3.2551327e-05
0.00098403714
3.1734362e-05
0.00097863724
3.0951282e-05
0.00097341623
3.01917e-05
0.00096837526
2.9453792e-05
0.0009635035
2.8760323e-05
0.00095879149
2.8103856e-05
0.00095423485
2.7472147e-05
0.00094982302
2.6872266e-05
0.00094554816
2.6299584e-05
0.00094140728
2.5757683e-05
0.00093739183
2.525091e-05
0.00093349118
2.4766915e-05
0.00092969522
2.4303187e-05
0.00092599989
2.3872518e-05
0.00092240404
2.3464986e-05
0.00091889249
2.3129438e-05
0.00091546695
2.2740296e-05
0.00091206488
2.2761607e-05
0.0009088405
2.1916284e-05
0.00090490835
2.6256594e-05
1.9520816e-05
0.00111144
1.2404928e-06
-0.0011114761
0.0011114138
1.4590128e-06
0.0011113908
1.673812e-06
0.0011113632
1.873075e-06
0.0011113267
2.0647604e-06
0.00111128
2.26439e-06
0.0011112211
2.4838676e-06
0.0011111474
2.7341039e-06
0.001111056
3.0337533e-06
0.0011109448
3.4137337e-06
0.001110815
3.9250322e-06
0.0011106761
4.6431252e-06
0.0011105625
5.6740986e-06
0.0011105353
7.0989983e-06
0.0011106233
8.8092676e-06
0.0011107985
1.0525687e-05
0.0011110161
1.2035428e-05
0.0011112497
1.330822e-05
0.0011114867
1.4394424e-05
0.0011117162
1.532315e-05
0.0011119321
1.6114403e-05
0.0011121335
1.6800194e-05
0.0011123221
1.7410299e-05
0.0011124999
1.7962129e-05
0.0011126677
1.8458961e-05
0.0011128248
1.8896977e-05
0.0011129701
1.927633e-05
0.0011131033
1.9605233e-05
0.0011132253
1.9896819e-05
0.0011133372
2.0159161e-05
0.0011134387
2.039218e-05
0.0011135295
2.0598896e-05
0.0011136102
2.0789938e-05
0.0011136816
2.097678e-05
0.0011137448
2.1168978e-05
0.0011138008
2.1374863e-05
0.001113851
2.1601417e-05
0.0011138962
2.1852694e-05
0.0011139373
2.2132682e-05
0.0011139752
2.2446393e-05
0.0011140108
2.2796465e-05
0.0011140447
2.3185244e-05
0.0011140779
2.3614928e-05
0.0011141108
2.4085433e-05
0.001114144
2.4595227e-05
0.0011141776
2.5141972e-05
0.0011142119
2.5724275e-05
0.0011142471
2.6341586e-05
0.0011142832
2.6993871e-05
0.0011143208
2.7680678e-05
0.00111436
2.8398734e-05
0.0011144008
2.9143424e-05
0.0011144431
2.9908772e-05
0.0011144866
3.0689974e-05
0.0011145313
3.1484833e-05
0.0011145768
3.228999e-05
0.001114623
3.3106721e-05
0.0011146688
3.3935239e-05
0.0011147142
3.4778149e-05
0.001114759
3.5639091e-05
0.0011148024
3.6515257e-05
0.0011148415
3.7406621e-05
0.0011148619
3.831072e-05
0.0011148253
3.9232884e-05
0.0011146617
4.0176162e-05