/*--------------------------------*- C++ -*----------------------------------*\
  =========                 |
  \\      /  F ield         | OpenFOAM: The Open Source CFD Toolbox
   \\    /   O peration     | Website:  https://openfoam.org
    \\  /    A nd           | Version:  12
     \\/     M anipulation  |
\*---------------------------------------------------------------------------*/
FoamFile
{
    format      ascii;
    class       volVectorField;
    location    "1300";
    object      U;
}
// * * * * * * * * * * * * * * * * * * * * * * * * * * * * * * * * * * * * * //

dimensions      [0 1 -1 0 0 0 0];

internalField   nonuniform List<vector> 
7480
(
(0.99717945 8.1008422e-05 1.4989765e-17)
(0.99545432 0.0001854819 0)
(0.99352815 0.00025519281 1.7965743e-19)
(0.99145697 0.00029809619 0)
(0.98927024 0.00032999324 0)
(0.98699008 0.00035201054 0)
(0.98462112 0.000367788 0)
(0.98215777 0.00038026982 0)
(0.97959584 0.00039202646 0)
(0.97690683 0.00040065178 0)
(0.97413427 0.00042251641 0)
(0.97096933 0.00040427598 0)
(0.96835475 0.00063375492 0)
(0.96221039 0.00086043296 1.1769385e-16)
(0.95210825 0.0014577796 -2.6591118e-18)
(0.93960145 0.0019806539 0)
(0.92554184 0.0023183365 0)
(0.91058317 0.0025039088 0)
(0.89509422 0.0025823727 0)
(0.87950548 0.0025508039 0)
(0.86401312 0.0024702452 0)
(0.84878089 0.0023369829 0)
(0.83385009 0.0021313101 0)
(0.81901895 0.0018956663 0)
(0.80437128 0.0016871566 0)
(0.79007036 0.0015032205 0)
(0.77630167 0.001324478 0)
(0.76341433 0.0011579357 0)
(0.75123111 0.0010172075 0)
(0.73978896 0.00089410669 0)
(0.72915512 0.00078231383 0)
(0.71938051 0.00067977014 0)
(0.71048657 0.00058587347 0)
(0.70246307 0.00050140325 0)
(0.69527218 0.00042706451 0)
(0.68885817 0.0003628706 0)
(0.68314833 0.00030819149 0)
(0.67807191 0.00026163469 0)
(0.67357124 0.00022150496 0)
(0.669593 0.00018648301 0)
(0.66607394 0.00015658107 0)
(0.66294397 0.00013212968 0)
(0.66013654 0.00011270805 0)
(0.65759263 9.7059675e-05 0)
(0.6552733 8.5001963e-05 0)
(0.65311147 7.6605875e-05 0)
(0.65106818 7.1163724e-05 0)
(0.64910396 6.8014059e-05 0)
(0.64718461 6.6436735e-05 0)
(0.64528792 6.6509315e-05 0)
(0.64338215 6.8237652e-05 0)
(0.64143392 7.0840084e-05 0)
(0.63941966 7.3818001e-05 0)
(0.63733158 7.6664201e-05 0)
(0.63517424 7.9035674e-05 0)
(0.63295859 8.0661927e-05 0)
(0.63069737 8.1438508e-05 0)
(0.62840629 8.1216212e-05 0)
(0.62610439 8.009962e-05 0)
(0.62380302 7.8522701e-05 0)
(0.62150631 7.6758566e-05 0)
(0.61921611 7.4900068e-05 0)
(0.61693645 7.2857959e-05 0)
(0.6146742 7.0629573e-05 0)
(0.61243502 6.8312981e-05 0)
(0.61022172 6.593969e-05 0)
(0.60803789 6.3464302e-05 0)
(0.6058886 6.092689e-05 0)
(0.60377463 5.8504731e-05 0)
(0.60169114 5.6287936e-05 0)
(0.59963344 5.4224103e-05 0)
(0.59760022 5.2259309e-05 0)
(0.5955914 5.0379152e-05 0)
(0.59360667 4.8546951e-05 0)
(0.59164745 4.6710128e-05 0)
(0.58971648 4.4886308e-05 0)
(0.58781343 4.3156653e-05 0)
(0.58593518 4.1535707e-05 0)
(0.58407885 4.0017248e-05 0)
(0.58224339 3.8561468e-05 0)
(0.5804289 3.7149663e-05 0)
(0.57863624 3.5755939e-05 0)
(0.57686732 3.4375402e-05 0)
(0.57512156 3.3078226e-05 0)
(0.57339592 3.1858338e-05 0)
(0.57168902 3.069387e-05 0)
(0.56999999 2.9587836e-05 0)
(0.56832926 2.8490363e-05 0)
(0.56667868 2.7414556e-05 0)
(0.56504708 2.6409833e-05 0)
(0.563432 2.5454497e-05 0)
(0.56183242 2.4543906e-05 0)
(0.56024806 2.3677648e-05 0)
(0.55867764 2.2831664e-05 0)
(0.55712425 2.2057837e-05 0)
(0.55557024 2.1373658e-05 0)
(0.5540531 2.0236512e-05 0)
(0.5524273 3.3336193e-05 3.8778219e-20)
(0.55106533 2.2114559e-05 -2.1940947e-19)
(0.54855507 3.3067806e-05 -5.101713e-18)
(0.99846853 0.00034770422 0)
(0.99849085 0.00051626465 0)
(0.99854974 0.00061644364 -2.3237803e-19)
(0.99854882 0.00061385287 -2.9377332e-18)
(0.99852178 0.00062362636 0)
(0.99847426 0.00062985721 0)
(0.99841006 0.00063288099 0)
(0.99832533 0.00063562769 0)
(0.99821517 0.00064098206 0)
(0.99806542 0.00064674694 0)
(0.9978736 0.00067124167 0)
(0.99755965 0.00067977832 0)
(0.99715789 0.00088027422 0)
(0.99657977 0.0014057377 0)
(0.99574461 0.0020269122 0)
(0.99422825 0.0024020477 0)
(0.99176688 0.0025371438 0)
(0.98836026 0.0025551975 0)
(0.98411927 0.0025103852 0)
(0.97917007 0.0024353544 0)
(0.97353973 0.0023488144 0)
(0.96723015 0.0022654859 0)
(0.96031105 0.0022160049 0)
(0.95302529 0.0022010278 0)
(0.94537652 0.0021782213 0)
(0.93740466 0.002123492 0)
(0.92912305 0.0020394507 0)
(0.92047818 0.0019260018 0)
(0.91165389 0.0017975982 0)
(0.9027319 0.0016631333 0)
(0.89378333 0.0015234487 0)
(0.88486473 0.0013841501 0)
(0.87603968 0.0012466948 0)
(0.86737458 0.0011131602 0)
(0.85893373 0.00098677644 0)
(0.85077527 0.00087020183 0)
(0.84294959 0.00076425882 0)
(0.83552392 0.00067122726 0)
(0.8284692 0.00059225464 0)
(0.82175398 0.00052422378 0)
(0.81538092 0.00046482481 0)
(0.80935252 0.00041378289 0)
(0.8036662 0.00037060317 0)
(0.79830054 0.00033388622 0)
(0.79322335 0.00030230364 0)
(0.78841869 0.00027600271 0)
(0.78385964 0.00025498422 0)
(0.77951823 0.00023805847 0)
(0.77537545 0.00022374248 0)
(0.77142316 0.00021347176 0)
(0.76757027 0.00020721505 0)
(0.76380248 0.0002026165 0)
(0.76012038 0.00019854958 0)
(0.75652688 0.00019437924 0)
(0.75302303 0.00019000485 0)
(0.74960477 0.00018531925 0)
(0.74626528 0.00018027447 0)
(0.74299887 0.00017488195 0)
(0.73978685 0.00016926096 0)
(0.73661933 0.00016358148 0)
(0.73349479 0.00015792644 0)
(0.73041496 0.00015229689 0)
(0.72738221 0.00014651173 0)
(0.72439987 0.0001406206 0)
(0.72147018 0.0001348108 0)
(0.71859299 0.00012907886 0)
(0.71576973 0.00012335095 0)
(0.7129992 0.00011776409 0)
(0.71027575 0.00011257893 0)
(0.70759388 0.00010781647 0)
(0.7049519 0.00010331106 0)
(0.70235115 9.8985558e-05 0)
(0.69979257 9.4851092e-05 0)
(0.69727557 9.0856394e-05 0)
(0.69480081 8.6926239e-05 0)
(0.69236843 8.3121902e-05 0)
(0.68997488 7.9572484e-05 0)
(0.68761628 7.6252246e-05 0)
(0.68529109 7.3124286e-05 0)
(0.68299949 7.012199e-05 0)
(0.68074165 6.7227971e-05 0)
(0.67851801 6.4408477e-05 0)
(0.6763284 6.1669474e-05 0)
(0.67417047 5.9121546e-05 0)
(0.67204115 5.6722473e-05 0)
(0.66993986 5.4431058e-05 0)
(0.66786626 5.2256074e-05 0)
(0.66582061 5.0120003e-05 0)
(0.66380317 4.805993e-05 0)
(0.66181167 4.6146761e-05 0)
(0.65984368 4.4326918e-05 0)
(0.65789866 4.2593562e-05 0)
(0.65597665 4.0950602e-05 0)
(0.65407547 3.9359005e-05 0)
(0.65219734 3.7926568e-05 0)
(0.65032404 3.6556793e-05 0)
(0.64849408 3.5719011e-05 0)
(0.64655946 3.6773859e-05 0)
(0.64491126 3.4834931e-05 0)
(0.64194826 3.7422479e-05 0)
(0.99850257 0.00034301247 0)
(0.99850923 0.00043731689 0)
(0.99854077 0.00045981805 0)
(0.9985551 0.00046016313 0)
(0.99854025 0.00046305438 0)
(0.99850538 0.00046794962 0)
(0.99845646 0.0004743817 0)
(0.99839036 0.00048344892 0)
(0.99830186 0.00049709765 0)
(0.99817969 0.00051501663 0)
(0.99801536 0.00055115172 0)
(0.99776281 0.00060766407 0)
(0.9974183 0.00084915606 0)
(0.99717922 0.0014284932 0)
(0.99721835 0.0020441252 0)
(0.99745916 0.0024942777 0)
(0.9977184 0.0027848446 0)
(0.99786229 0.0029912402 0)
(0.99783913 0.0031354322 0)
(0.99761536 0.0032217034 0)
(0.99715959 0.0032658068 0)
(0.9964513 0.0032847628 0)
(0.99547245 0.0032787479 0)
(0.99420726 0.0032531921 0)
(0.99263351 0.0031963371 0)
(0.99063891 0.0031118741 0)
(0.98813699 0.0030001501 0)
(0.98498304 0.0028762599 0)
(0.98119537 0.0027555389 0)
(0.97675058 0.0026322249 0)
(0.97160735 0.0024939473 0)
(0.96582332 0.0023389502 0)
(0.95943938 0.0021793957 0)
(0.95251456 0.0020194881 0)
(0.94513111 0.0018610738 0)
(0.9373901 0.0017055719 0)
(0.92940853 0.0015539006 0)
(0.9213057 0.001408298 0)
(0.91321084 0.0012719165 0)
(0.90523111 0.0011464534 0)
(0.89745162 0.0010320637 0)
(0.88994013 0.00092900797 0)
(0.88274167 0.00084080972 0)
(0.87579424 0.00076717594 0)
(0.86909621 0.00070383544 0)
(0.8626717 0.00064821477 0)
(0.85653389 0.00059906705 0)
(0.85069792 0.00055615537 0)
(0.84514784 0.00051867206 0)
(0.83985484 0.00048643736 0)
(0.83479965 0.00046064722 0)
(0.82996386 0.0004403115 0)
(0.8253245 0.00042259119 0)
(0.82086915 0.00040550235 0)
(0.81658626 0.00038878254 0)
(0.81245735 0.00037266251 0)
(0.80846465 0.00035731218 0)
(0.80458834 0.00034324589 0)
(0.80078126 0.00032998984 0)
(0.79704876 0.00031682345 0)
(0.79339652 0.00030377887 0)
(0.78982416 0.00029102149 0)
(0.7863278 0.00027837337 0)
(0.78290591 0.00026588258 0)
(0.77955799 0.00025379206 0)
(0.77628191 0.00024204037 0)
(0.77307723 0.00023062803 0)
(0.76993513 0.00021986549 0)
(0.76684627 0.00020995101 0)
(0.76380815 0.00020072084 0)
(0.76082196 0.00019188683 0)
(0.75788961 0.00018336692 0)
(0.75501144 0.00017521834 0)
(0.75218611 0.00016737891 0)
(0.74941381 0.00015976067 0)
(0.74669216 0.00015249979 0)
(0.74401524 0.00014576626 0)
(0.74137967 0.00013945614 0)
(0.73878525 0.0001334718 0)
(0.7362327 0.0001277162 0)
(0.73372193 0.00012217606 0)
(0.73125313 0.00011681937 0)
(0.72882445 0.00011168 0)
(0.72643234 0.00010690841 0)
(0.72407404 0.00010240967 0)
(0.72174961 9.8104779e-05 0)
(0.71945893 9.4003699e-05 0)
(0.7172022 9.0008212e-05 0)
(0.7149785 8.6188263e-05 0)
(0.71278485 8.2639667e-05 0)
(0.71061898 7.9267245e-05 0)
(0.7084807 7.6047251e-05 0)
(0.70637019 7.2994118e-05 0)
(0.70428472 7.0053113e-05 0)
(0.70222588 6.7422753e-05 0)
(0.70017523 6.4842356e-05 0)
(0.69817191 6.3330466e-05 0)
(0.69606592 6.0976744e-05 0)
(0.69426324 6.4404853e-05 0)
(0.69104717 5.9079494e-05 -4.117951e-20)
(0.99853107 0.00033360637 0)
(0.99852831 0.00042234794 0)
(0.99855209 0.00047740362 0)
(0.99856392 0.00050945542 0)
(0.99854877 0.0005342404 0)
(0.99851363 0.00055697946 0)
(0.99846439 0.00057785462 0)
(0.99839836 0.00059827815 0)
(0.99831023 0.00062166526 0)
(0.9981904 0.00064951871 0)
(0.99802908 0.00069928256 0)
(0.99779664 0.00077052396 0)
(0.99749647 0.0010221072 0)
(0.99728431 0.0015264536 0)
(0.99731757 0.0020616262 0)
(0.9975672 0.0024751216 0)
(0.99789628 0.0027438372 0)
(0.99821174 0.002916875 0)
(0.99849474 0.0030178195 0)
(0.99874543 0.0030587297 0)
(0.99895979 0.0030640017 0)
(0.99913593 0.0030496118 0)
(0.9992744 0.0030266597 0)
(0.99937453 0.002996776 0)
(0.99943432 0.0029628816 0)
(0.999442 0.0029248337 0)
(0.99937778 0.0028824639 0)
(0.99921324 0.0028388154 0)
(0.99891619 0.0027931285 0)
(0.99844523 0.0027403269 0)
(0.99775705 0.0026805649 0)
(0.99673463 0.0026164813 0)
(0.99528894 0.002547137 0)
(0.99333124 0.0024716165 0)
(0.99077187 0.0023897642 0)
(0.98752586 0.0023017689 0)
(0.98351969 0.0022060108 0)
(0.97869299 0.0020975104 0)
(0.9731072 0.0019796701 0)
(0.96683396 0.0018582152 0)
(0.9599553 0.0017335013 0)
(0.95259636 0.0016061505 0)
(0.94492396 0.0014783819 0)
(0.93712614 0.0013575934 0)
(0.9293474 0.0012482882 0)
(0.92170276 0.0011478969 0)
(0.91428101 0.0010553133 0)
(0.90716797 0.00097499207 0)
(0.90027386 0.00090720695 0)
(0.89359873 0.00084901268 0)
(0.88721373 0.00079879469 0)
(0.88113691 0.00075351243 0)
(0.8753733 0.00071202632 0)
(0.86989682 0.00067393848 0)
(0.86466579 0.00063874837 0)
(0.85964491 0.00060623933 0)
(0.85481604 0.00057632587 0)
(0.85016131 0.00054876573 0)
(0.84567411 0.00052329768 0)
(0.84134262 0.00049942718 0)
(0.83714913 0.00047668804 0)
(0.83307638 0.00045513759 0)
(0.82910913 0.00043426205 0)
(0.82524355 0.0004138168 0)
(0.82147844 0.00039412991 0)
(0.81780883 0.00037517774 0)
(0.81422981 0.00035726254 0)
(0.81071819 0.00034072244 0)
(0.80726768 0.00032529807 0)
(0.80388497 0.00031060555 0)
(0.80057216 0.00029642883 0)
(0.79732858 0.00028278664 0)
(0.79415255 0.0002697819 0)
(0.79104179 0.00025730856 0)
(0.78799597 0.0002453243 0)
(0.78500807 0.00023407839 0)
(0.78207017 0.00022365549 0)
(0.77918159 0.00021380029 0)
(0.77634371 0.00020438909 0)
(0.77355707 0.00019533576 0)
(0.77082079 0.00018663881 0)
(0.76813476 0.00017828934 0)
(0.76549444 0.00017035933 0)
(0.76289541 0.00016299222 0)
(0.7603359 0.00015601932 0)
(0.75781671 0.00014932992 0)
(0.7553377 0.00014294391 0)
(0.75289894 0.00013676075 0)
(0.75049779 0.00013088768 0)
(0.7481307 0.00012542609 0)
(0.7457959 0.00012022941 0)
(0.74349352 0.00011525515 0)
(0.7412239 0.00011053976 0)
(0.73898349 0.00010601771 0)
(0.7367732 0.00010198657 0)
(0.73457469 9.7965443e-05 0)
(0.73242748 9.5657638e-05 0)
(0.73018032 9.1422169e-05 0)
(0.72825248 9.9935553e-05 0)
(0.72482994 8.5155509e-05 3.3089634e-20)
(0.99855874 0.00033731024 0)
(0.99854956 0.00042464821 0)
(0.99856419 0.00048249568 0)
(0.99856969 0.00051102517 0)
(0.99855195 0.00052790109 0)
(0.99851577 0.00054309529 0)
(0.99846602 0.00055788299 0)
(0.99840024 0.00057391297 0)
(0.9983132 0.00059505709 0)
(0.99819634 0.00062482991 0)
(0.99804081 0.0006782323 0)
(0.99782751 0.00077043704 0)
(0.99756459 0.0010088887 0)
(0.99737686 0.0014592604 0)
(0.99740135 0.0019620098 0)
(0.99762451 0.0023703372 0)
(0.99793118 0.0026436207 0)
(0.99823412 0.0028222091 0)
(0.99851465 0.0029360166 0)
(0.99877469 0.0029992473 0)
(0.99901024 0.0030308234 0)
(0.99922038 0.0030450277 0)
(0.99940875 0.0030459747 0)
(0.99958159 0.0030400495 0)
(0.9997435 0.0030244619 0)
(0.99989428 0.0029969211 0)
(1.0000314 0.0029572074 0)
(1.0001524 0.0029076601 0)
(1.0002566 0.0028518572 0)
(1.0003448 0.0027921206 0)
(1.000415 0.0027294208 0)
(1.0004597 0.0026648595 0)
(1.0004695 0.0026002 0)
(1.0004304 0.0025371559 0)
(1.0003207 0.0024770801 0)
(1.0001067 0.0024204772 0)
(0.99974126 0.0023670177 0)
(0.99914681 0.0023168554 0)
(0.9981889 0.0022684036 0)
(0.9967449 0.0022177225 0)
(0.99468693 0.0021620983 0)
(0.99187906 0.0021001616 0)
(0.98819251 0.0020335177 0)
(0.98361107 0.0019563277 0)
(0.97820687 0.0018636029 0)
(0.97206258 0.0017620904 0)
(0.9652906 0.0016540076 0)
(0.95805929 0.0015413413 0)
(0.95058954 0.0014321552 0)
(0.94304933 0.0013328588 0)
(0.93559613 0.0012414174 0)
(0.92834345 0.0011559603 0)
(0.92140612 0.0010801366 0)
(0.91470869 0.0010151937 0)
(0.90822203 0.00095691095 0)
(0.90197026 0.00090239852 0)
(0.89597618 0.00085121028 0)
(0.89026299 0.00080413335 0)
(0.88484206 0.00076146395 0)
(0.87966321 0.00072191293 0)
(0.87468405 0.00068523266 0)
(0.8698806 0.00065132708 0)
(0.8652392 0.00061894704 0)
(0.86075864 0.00058760821 0)
(0.85642667 0.00055788674 0)
(0.85222661 0.00052995807 0)
(0.84814116 0.00050372278 0)
(0.84416448 0.00047933771 0)
(0.84029462 0.0004567218 0)
(0.83652669 0.0004353629 0)
(0.83285256 0.00041491466 0)
(0.82926571 0.00039534237 0)
(0.82576278 0.0003767183 0)
(0.82234094 0.00035887355 0)
(0.81899849 0.00034194169 0)
(0.81571971 0.00032624376 0)
(0.81249779 0.00031157342 0)
(0.80933839 0.00029752368 0)
(0.80624308 0.00028405565 0)
(0.80321065 0.00027113672 0)
(0.80023888 0.00025876134 0)
(0.79732721 0.00024698842 0)
(0.79446654 0.00023592228 0)
(0.7916528 0.00022560048 0)
(0.78888639 0.00021577418 0)
(0.78616864 0.00020633181 0)
(0.78349885 0.00019731442 0)
(0.78087673 0.00018864243 0)
(0.77829689 0.00018045974 0)
(0.77575573 0.00017283492 0)
(0.77325247 0.00016556473 0)
(0.77078759 0.00015859352 0)
(0.76836133 0.0001519923 0)
(0.7659689 0.00014569055 0)
(0.76361042 0.00014008067 0)
(0.76126801 0.0001344261 0)
(0.75898157 0.00013123424 0)
(0.7565987 0.00012491079 1.7993556e-20)
(0.75455145 0.00013917742 0)
(0.75093322 0.00011309649 0)
(0.99858485 0.00034324467 0)
(0.99857018 0.00042451445 0)
(0.99857619 0.00048056307 0)
(0.99857615 0.00051127053 0)
(0.99855703 0.00053305197 0)
(0.99852106 0.00055527475 0)
(0.99847176 0.00057866194 0)
(0.99840694 0.00060419786 0)
(0.99832164 0.00063565583 0)
(0.99820844 0.00067744818 0)
(0.99805989 0.0007442867 0)
(0.99786431 0.0008547793 0)
(0.99763372 0.0010885524 0)
(0.99746956 0.0015026115 0)
(0.99748892 0.001975025 0)
(0.99768896 0.0023667568 0)
(0.99797261 0.0026337195 0)
(0.99825929 0.0028102987 0)
(0.99852703 0.0029260165 0)
(0.99877624 0.0029923262 0)
(0.99900446 0.0030252043 0)
(0.99921073 0.0030341632 0)
(0.99939809 0.0030295538 0)
(0.9995716 0.0030149977 0)
(0.99973568 0.0029905646 0)
(0.99989119 0.0029547426 0)
(1.0000356 0.0029084362 0)
(1.0001664 0.0028548108 0)
(1.0002839 0.0027983107 0)
(1.0003903 0.0027406855 0)
(1.0004865 0.0026808445 0)
(1.0005721 0.0026191938 0)
(1.0006467 0.002557702 0)
(1.0007107 0.0024979521 0)
(1.0007655 0.0024410896 0)
(1.0008115 0.0023878833 0)
(1.0008484 0.0023390265 0)
(1.0008743 0.0022945864 0)
(1.0008827 0.0022540304 0)
(1.0008629 0.0022176542 0)
(1.0007963 0.0021856764 0)
(1.0006499 0.0021577925 0)
(1.0003662 0.0021328596 0)
(0.99985982 0.002109216 0)
(0.99895577 0.00208418 0)
(0.9974891 0.0020540541 0)
(0.99530266 0.0020155635 0)
(0.99221835 0.0019709369 0)
(0.98820183 0.0019168079 0)
(0.98330234 0.0018448007 0)
(0.97760836 0.0017595531 0)
(0.97123674 0.0016645328 0)
(0.96436669 0.0015622373 0)
(0.95723264 0.0014613136 0)
(0.95002674 0.0013680807 0)
(0.94290357 0.0012809821 0)
(0.93596148 0.0011985426 0)
(0.92930567 0.0011247543 0)
(0.92284559 0.0010604579 0)
(0.91655942 0.0010013927 0)
(0.91048845 0.00094545541 0)
(0.90466544 0.00089265887 0)
(0.8991152 0.00084304897 0)
(0.89379914 0.00079699369 0)
(0.8886751 0.00075413009 0)
(0.88372315 0.0007144292 0)
(0.87893003 0.00067732308 0)
(0.87431483 0.00064264196 0)
(0.86987329 0.00061030091 0)
(0.86558114 0.0005801771 0)
(0.86141516 0.00055179546 0)
(0.85736717 0.00052473896 0)
(0.85343417 0.00049906377 0)
(0.84960978 0.00047467895 0)
(0.8458843 0.00045163871 0)
(0.84225101 0.00043024994 0)
(0.83870624 0.00041033768 0)
(0.8352466 0.00039135506 0)
(0.83186769 0.00037321352 0)
(0.82856507 0.00035588054 0)
(0.82533531 0.00033930652 0)
(0.82217713 0.00032370101 0)
(0.81907414 0.00030912381 0)
(0.8160265 0.00029539893 0)
(0.81303749 0.0002822445 0)
(0.81010765 0.0002696053 0)
(0.80723502 0.00025754986 0)
(0.80441863 0.00024606043 0)
(0.80164893 0.00023529471 0)
(0.79892384 0.00022521239 0)
(0.79624403 0.00021556871 0)
(0.79360989 0.00020631386 0)
(0.79102127 0.00019757261 0)
(0.78847139 0.00018927319 0)
(0.78595982 0.00018188172 0)
(0.78346961 0.0001743795 0)
(0.78104108 0.00017015813 0)
(0.77852005 0.0001612159 0)
(0.77635216 0.00018214173 4.7348789e-20)
(0.77253686 0.00014294635 0)
(0.99860938 0.00035050677 0)
(0.99859035 0.00042574432 0)
(0.99858912 0.0004812877 0)
(0.99858423 0.00051597101 0)
(0.99856362 0.00054206611 0)
(0.99852745 0.00056751127 0)
(0.99847815 0.00059352647 0)
(0.99841394 0.00062146262 0)
(0.9983303 0.00065550339 0)
(0.99822093 0.0007012849 0)
(0.99807986 0.00077308082 0)
(0.99790089 0.00089096013 0)
(0.99769871 0.0011161009 0)
(0.99755609 0.0014939856 0)
(0.99757201 0.0019305865 0)
(0.99775136 0.0023016013 0)
(0.99801388 0.0025622479 0)
(0.9982859 0.0027386372 0)
(0.99854327 0.0028573015 0)
(0.9987846 0.0029288639 0)
(0.9990075 0.0029656542 0)
(0.99921032 0.0029810522 0)
(0.99939513 0.002982025 0)
(0.99956631 0.0029733787 0)
(0.99972771 0.0029552472 0)
(0.99987994 0.0029265174 0)
(1.0000213 0.0028879489 0)
(1.00015 0.0028421412 0)
(1.0002664 0.0027925747 0)
(1.0003725 0.0027402804 0)
(1.0004695 0.0026842775 0)
(1.0005567 0.002625383 0)
(1.0006338 0.0025657982 0)
(1.0007017 0.0025071367 0)
(1.000761 0.0024505681 0)
(1.0008128 0.0023970237 0)
(1.0008584 0.0023471611 0)
(1.0008986 0.0023008737 0)
(1.0009346 0.0022584019 0)
(1.000967 0.0022202846 0)
(1.0009967 0.0021863986 0)
(1.0010239 0.0021566206 0)
(1.0010482 0.0021307919 0)
(1.0010675 0.0021084154 0)
(1.0010742 0.002089186 0)
(1.0010524 0.0020727304 0)
(1.0009756 0.0020588258 0)
(1.0007897 0.0020466104 0)
(1.0004193 0.0020338476 0)
(0.99968616 0.0020180998 0)
(0.99839061 0.0019963278 0)
(0.99635509 0.0019652186 0)
(0.99337717 0.0019253732 0)
(0.98941654 0.001873133 0)
(0.98458243 0.0018035018 0)
(0.97897957 0.0017211037 0)
(0.97275451 0.0016279953 0)
(0.9661062 0.0015289511 0)
(0.95926817 0.0014333207 0)
(0.95241062 0.0013451642 0)
(0.94565593 0.001263245 0)
(0.93909037 0.0011864615 0)
(0.93278612 0.0011183991 0)
(0.92658311 0.001057255 0)
(0.9205207 0.0009986344 0)
(0.91465336 0.00094230402 0)
(0.90902841 0.00088906291 0)
(0.90363136 0.00083991576 0)
(0.89843126 0.00079455887 0)
(0.89341108 0.00075281934 0)
(0.88856163 0.00071370029 0)
(0.88388592 0.00067659695 0)
(0.87937387 0.00064173025 0)
(0.87500759 0.00060914207 0)
(0.87076793 0.00057860888 0)
(0.86666252 0.00055011837 0)
(0.86269213 0.00052349108 0)
(0.85884036 0.00049830532 0)
(0.85509346 0.00047445864 0)
(0.85144404 0.00045179014 0)
(0.84788775 0.00043020059 0)
(0.84441931 0.00040986843 0)
(0.84103299 0.00039092078 0)
(0.83772441 0.00037316205 0)
(0.83449022 0.00035617728 0)
(0.83132759 0.00033990121 0)
(0.82823274 0.00032440326 0)
(0.82520385 0.00030978081 0)
(0.82222534 0.00029611714 0)
(0.81930019 0.0002832086 0)
(0.81643004 0.00027082377 0)
(0.81361433 0.00025894406 0)
(0.81085205 0.00024777726 0)
(0.8081335 0.00023724198 0)
(0.80545856 0.00022783022 0)
(0.80281167 0.00021822468 0)
(0.80023348 0.00021277859 0)
(0.79756699 0.00020079945 0)
(0.7952727 0.00022917623 4.4501082e-20)
(0.79125164 0.00017515566 0)
(0.99863257 0.00035911428 0)
(0.99861018 0.00042897886 0)
(0.99860286 0.00048387801 0)
(0.99859346 0.00052135115 0)
(0.99857114 0.00055038907 0)
(0.99853468 0.00057835909 0)
(0.99848559 0.00060747153 0)
(0.99842234 0.0006395188 0)
(0.9983409 0.00067880109 0)
(0.99823597 0.0007315778 0)
(0.99810305 0.00081130796 0)
(0.99793995 0.00093798596 0)
(0.99776283 0.0011586814 0)
(0.99763965 0.0015080352 0)
(0.99765356 0.0019139123 0)
(0.99781455 0.0022681261 0)
(0.99805713 0.002525013 0)
(0.99831465 0.0027023968 0)
(0.99856161 0.0028240936 0)
(0.99879514 0.0029004447 0)
(0.99901278 0.0029426035 0)
(0.9992123 0.0029621664 0)
(0.99939495 0.0029665222 0)
(0.99956447 0.0029601696 0)
(0.9997242 0.002943504 0)
(0.99987477 0.0029158152 0)
(1.0000146 0.002877883 0)
(1.0001423 0.0028321609 0)
(1.0002579 0.0027819071 0)
(1.0003633 0.0027285082 0)
(1.0004594 0.0026716749 0)
(1.0005459 0.0026123951 0)
(1.0006223 0.0025527238 0)
(1.0006893 0.0024942189 0)
(1.0007481 0.0024380355 0)
(1.0007999 0.0023850727 0)
(1.0008458 0.0023358981 0)
(1.000887 0.0022904956 0)
(1.0009243 0.0022490469 0)
(1.0009586 0.0022118028 0)
(1.0009907 0.0021784675 0)
(1.0010211 0.0021489021 0)
(1.0010503 0.0021229932 0)
(1.0010788 0.0021004735 0)
(1.0011074 0.0020809833 0)
(1.0011361 0.002064067 0)
(1.0011648 0.0020494156 0)
(1.0011931 0.0020365752 0)
(1.0012192 0.002025313 0)
(1.0012367 0.0020158199 0)
(1.0012287 0.0020079109 0)
(1.0011661 0.0020009468 0)
(1.0009874 0.0019937826 0)
(1.0005972 0.0019841124 0)
(0.99977608 0.0019684026 0)
(0.99831183 0.0019432866 0)
(0.99601407 0.0019075362 0)
(0.99266802 0.0018585707 0)
(0.98835906 0.001796354 0)
(0.98324497 0.0017223005 0)
(0.97747448 0.0016375004 0)
(0.97122845 0.0015450503 0)
(0.96472971 0.0014515274 0)
(0.95817031 0.0013641708 0)
(0.95166182 0.0012843269 0)
(0.94527633 0.0012088935 0)
(0.93911283 0.0011406162 0)
(0.93302645 0.001078833 0)
(0.92703478 0.0010197664 0)
(0.92120786 0.00096289836 0)
(0.91560995 0.00090907566 0)
(0.91022401 0.00085918048 0)
(0.90501674 0.00081278925 0)
(0.89997554 0.00076965329 0)
(0.89509922 0.00072904552 0)
(0.89039819 0.00069084072 0)
(0.88586716 0.00065534033 0)
(0.88148731 0.00062227438 0)
(0.87724562 0.00059119266 0)
(0.87313648 0.00056178205 0)
(0.86915275 0.00053400034 0)
(0.86528106 0.00050799896 0)
(0.86152683 0.00048374396 0)
(0.85788299 0.00046097002 0)
(0.85433768 0.00043932136 0)
(0.85088225 0.00041871854 0)
(0.84751075 0.00039917516 0)
(0.84421877 0.00038072211 0)
(0.8410021 0.00036351847 0)
(0.83785608 0.00034733718 0)
(0.83477718 0.00033184144 0)
(0.8317628 0.00031700138 0)
(0.82881067 0.00030313678 0)
(0.82590719 0.00029010722 0)
(0.82305427 0.00027838606 0)
(0.82023809 0.00026637213 0)
(0.81749899 0.00025946991 0)
(0.81467593 0.00024406259 -7.367925e-21)
(0.81224598 0.00028064606 0)
(0.80800503 0.00021006647 -1.1979757e-20)
(0.99865462 0.00036872863 0)
(0.99862965 0.00043382551 0)
(0.99861722 0.00048772764 0)
(0.99860375 0.00052729936 0)
(0.99857973 0.0005591696 0)
(0.99854304 0.00059001583 0)
(0.99849434 0.00062253513 0)
(0.99843225 0.00065867112 0)
(0.99835325 0.00070262267 0)
(0.99825299 0.00076094674 0)
(0.99812838 0.00084629226 0)
(0.9979801 0.00097768395 0)
(0.99782493 0.0011915949 0)
(0.99771908 0.0015139472 0)
(0.99773207 0.0018893677 0)
(0.99787684 0.0022250449 0)
(0.99810062 0.0024753589 0)
(0.99834389 0.0026512492 0)
(0.99858055 0.0027739165 0)
(0.99880628 0.0028535518 0)
(0.99901846 0.0028996667 0)
(0.99921445 0.0029226519 0)
(0.99939481 0.0029299446 0)
(0.99956259 0.0029259022 0)
(0.99972072 0.0029113569 0)
(0.99986982 0.0028859971 0)
(1.0000086 0.0028506681 0)
(1.0001355 0.0028077069 0)
(1.0002509 0.0027601425 0)
(1.0003561 0.0027094651 0)
(1.0004521 0.0026555758 0)
(1.0005386 0.0025992501 0)
(1.0006152 0.0025422824 0)
(1.0006825 0.002486174 0)
(1.0007417 0.0024320492 0)
(1.0007938 0.0023807734 0)
(1.00084 0.0023329178 0)
(1.0008814 0.0022885592 0)
(1.0009189 0.0022478563 0)
(1.0009531 0.0022110516 0)
(1.0009849 0.0021780058 0)
(1.0010151 0.0021486807 0)
(1.0010443 0.0021230159 0)
(1.0010733 0.0021006717 0)
(1.0011025 0.002081178 0)
(1.0011325 0.0020640028 0)
(1.0011632 0.0020487512 0)
(1.0011947 0.0020351777 0)
(1.0012268 0.0020232482 0)
(1.0012596 0.0020129205 0)
(1.0012934 0.0020038251 0)
(1.001328 0.0019955106 0)
(1.0013627 0.001987293 0)
(1.0013952 0.0019787534 0)
(1.0014154 0.001969988 0)
(1.0014006 0.0019610667 0)
(1.0013053 0.0019514754 0)
(1.0010523 0.0019410543 0)
(1.0004442 0.0019268207 0)
(0.99924444 0.0019039474 0)
(0.99723447 0.0018711328 0)
(0.99421837 0.0018236402 0)
(0.99012125 0.0017612583 0)
(0.98520755 0.0016907883 0)
(0.97966076 0.0016107697 0)
(0.97366208 0.0015235423 0)
(0.96742209 0.0014346354 0)
(0.96111561 0.001350739 0)
(0.95484053 0.0012742346 0)
(0.94865718 0.0012021602 0)
(0.94266045 0.001136471 0)
(0.93670709 0.0010761381 0)
(0.93082875 0.0010177255 0)
(0.9251019 0.00096117817 0)
(0.91958565 0.00090771705 0)
(0.91425045 0.00085813948 0)
(0.90907765 0.00081201303 0)
(0.90406932 0.00076896851 0)
(0.89923449 0.00072853693 0)
(0.89457018 0.00069052887 0)
(0.89006261 0.00065502274 0)
(0.88569489 0.00062180019 0)
(0.88147069 0.00059055934 0)
(0.87738867 0.0005613881 0)
(0.87343483 0.00053397549 0)
(0.86959743 0.00050806436 0)
(0.86586976 0.00048360426 0)
(0.86224294 0.00046059261 0)
(0.85872345 0.00043914794 0)
(0.85529941 0.00041898906 0)
(0.85196104 0.00039978613 0)
(0.84870215 0.00038149065 0)
(0.84551753 0.00036440364 0)
(0.84240083 0.00034836371 0)
(0.83935168 0.00033395085 0)
(0.83635027 0.00031921864 0)
(0.83343564 0.00031064161 0)
(0.83044127 0.00029141177 0)
(0.82786329 0.00033697907 4.2733011e-20)
(0.82338362 0.00024800157 0)
(0.99867572 0.00037919139 0)
(0.99864879 0.00044012014 0)
(0.99863214 0.00049286289 0)
(0.99861508 0.00053411237 0)
(0.99858944 0.00056864719 0)
(0.99855255 0.00060225858 0)
(0.99850436 0.00063788462 0)
(0.99844358 0.00067769434 0)
(0.99836724 0.00072587572 0)
(0.99827189 0.00078915108 0)
(0.99815569 0.00087936849 0)
(0.99802135 0.001014046 0)
(0.99788559 0.0012216207 0)
(0.99779523 0.0015210303 0)
(0.99780818 0.0018692802 0)
(0.99793874 0.0021876048 0)
(0.99814498 0.0024316792 0)
(0.99837436 0.0026067332 0)
(0.99860085 0.0027310921 0)
(0.99881878 0.0028145213 0)
(0.99902532 0.0028650965 0)
(0.99921754 0.0028921842 0)
(0.99939537 0.0029030485 0)
(0.99956124 0.0029019363 0)
(0.99971764 0.002890008 0)
(0.99986518 0.0028672379 0)
(1.0000027 0.0028344938 0)
(1.0001289 0.0027939635 0)
(1.0002438 0.0027484318 0)
(1.0003488 0.0026994197 0)
(1.0004446 0.0026470161 0)
(1.0005311 0.002591961 0)
(1.0006079 0.0025359839 0)
(1.0006756 0.0024806398 0)
(1.0007353 0.0024270867 0)
(1.0007879 0.0023762083 0)
(1.0008347 0.0023286101 0)
(1.0008767 0.0022844439 0)
(1.0009147 0.0022438762 0)
(1.0009494 0.0022071597 0)
(1.0009817 0.0021742156 0)
(1.0010123 0.0021449808 0)
(1.0010418 0.0021193532 0)
(1.0010709 0.0020969823 0)
(1.0011002 0.0020774256 0)
(1.0011299 0.0020602144 0)
(1.0011603 0.0020450314 0)
(1.0011913 0.0020316743 0)
(1.0012233 0.0020199949 0)
(1.0012564 0.0020097703 0)
(1.0012911 0.0020005444 0)
(1.0013277 0.0019918191 0)
(1.0013659 0.0019831007 0)
(1.0014048 0.0019741056 0)
(1.0014442 0.0019648817 0)
(1.0014837 0.001955303 0)
(1.0015225 0.0019455613 0)
(1.0015594 0.0019355377 0)
(1.0015887 0.0019250417 0)
(1.0015909 0.0019144373 0)
(1.0015226 0.0019034735 0)
(1.0013144 0.0018917081 0)
(1.0007599 0.0018774848 0)
(0.99960037 0.0018551341 0)
(0.99759956 0.001822654 0)
(0.99456019 0.001773829 0)
(0.99043064 0.001709383 0)
(0.98548597 0.0016388721 0)
(0.97997111 0.0015612699 0)
(0.97408421 0.0014781683 0)
(0.9680242 0.0013940069 0)
(0.96192757 0.0013152025 0)
(0.95586727 0.0012432135 0)
(0.94989517 0.0011751424 0)
(0.94407036 0.0011126754 0)
(0.93824354 0.0010541063 0)
(0.93249138 0.00099677859 0)
(0.92690021 0.00094174183 0)
(0.92148966 0.00089026004 0)
(0.91623892 0.00084215311 0)
(0.91114471 0.00079717369 0)
(0.90621323 0.0007549089 0)
(0.90145145 0.00071510339 0)
(0.89685389 0.00067813471 0)
(0.89240645 0.00064361434 0)
(0.88810548 0.00061106673 0)
(0.88394624 0.00058053538 0)
(0.87991433 0.00055185385 0)
(0.87600929 0.00052500461 0)
(0.87222597 0.00049990397 0)
(0.86855403 0.00047619335 0)
(0.86498353 0.00045375811 0)
(0.86150587 0.0004328494 0)
(0.85812232 0.00041323211 0)
(0.85482959 0.00039558564 0)
(0.85160091 0.00037765629 0)
(0.84847253 0.00036705369 0)
(0.84527189 0.00034335837 0)
(0.84252867 0.0003985788 0)
(0.83778697 0.00028927833 0)
(0.99869605 0.00039036769 0)
(0.99866765 0.00044769262 0)
(0.99864756 0.00049922017 0)
(0.99862739 0.00054177105 0)
(0.99860025 0.00057869307 0)
(0.9985632 0.00061489088 0)
(0.99851564 0.00065342976 0)
(0.99845636 0.00069672167 0)
(0.9983829 0.00074891589 0)
(0.99829265 0.00081667094 0)
(0.99818482 0.00091093838 0)
(0.9980635 0.0010474322 0)
(0.99794492 0.0012484031 0)
(0.9978683 0.001527299 0)
(0.99788176 0.0018502944 0)
(0.99799989 0.0021512106 0)
(0.99818981 0.0023880651 0)
(0.9984057 0.0025613922 0)
(0.99862213 0.0026865133 0)
(0.99883226 0.0027726521 0)
(0.99903299 0.0028267965 0)
(0.99922124 0.0028573134 0)
(0.99939634 0.0028711595 0)
(0.99956014 0.0028725052 0)
(0.99971473 0.0028627683 0)
(0.99986063 0.0028421881 0)
(0.99999685 0.0028116859 0)
(1.0001222 0.0027733378 0)
(1.0002367 0.0027297371 0)
(1.0003413 0.0026824455 0)
(1.000437 0.0026317553 0)