#      distance             U_x             U_y             U_z wallShearStr... wallShearStr... wallShearStr...               p         epsilon               k             nut
  5.5511169e-17      0.99958121   2.5040381e-22               0               0               0               0    0.0041780792   1.4299835e-05   0.00014662063   0.00013530174
   0.0021021021      0.99956952   2.5040381e-22               0               0               0               0    0.0041896933    1.429901e-05   0.00014658828   0.00013524984
   0.0042042042      0.99955784   2.5040381e-22               0               0               0               0    0.0042013073   1.4298185e-05   0.00014655593   0.00013519794
   0.0063063063      0.99954616   2.5040381e-22               0               0               0               0    0.0042129214    1.429736e-05   0.00014652358   0.00013514605
   0.0084084084      0.99953447   2.5040381e-22               0               0               0               0    0.0042245354   1.4296535e-05   0.00014649123   0.00013509415
    0.010510511      0.99952279   2.5040381e-22               0               0               0               0    0.0042361495    1.429571e-05   0.00014645888   0.00013504225
    0.012612613       0.9995111   2.5040381e-22               0               0               0               0    0.0042477635   1.4294885e-05   0.00014642652   0.00013499035
    0.014714715      0.99949942   2.5040381e-22               0               0               0               0    0.0042593776    1.429406e-05   0.00014639417   0.00013493845
    0.016816817      0.99948774   2.5040381e-22               0               0               0               0    0.0042709917   1.4293235e-05   0.00014636182   0.00013488655
    0.018918919      0.99947605   2.5040381e-22               0               0               0               0    0.0042826057    1.429241e-05   0.00014632947   0.00013483465
    0.021021021      0.99946437   2.5040381e-22               0               0               0               0    0.0042942198   1.4291585e-05   0.00014629712   0.00013478275
    0.023123123      0.99944665   3.8206339e-22               0               0               0               0    0.0043120075   1.4291038e-05   0.00014626453   0.00013472793
    0.025225225      0.99942873   3.8206339e-22               0               0               0               0    0.0043299971   1.4290499e-05   0.00014623194     0.000134673
    0.027327327      0.99941081   3.8206339e-22               0               0               0               0    0.0043479868   1.4289961e-05   0.00014619935   0.00013461808
    0.029429429      0.99939289   3.8206339e-22               0               0               0               0    0.0043659764   1.4289423e-05   0.00014616676   0.00013456316
    0.031531532      0.99937497   3.8206339e-22               0               0               0               0     0.004383966   1.4288885e-05   0.00014613417   0.00013450824
    0.033633634      0.99935705   3.8206339e-22               0               0               0               0    0.0044019557   1.4288347e-05   0.00014610158   0.00013445331
    0.035735736      0.99933913   3.8206339e-22               0               0               0               0    0.0044199453   1.4287809e-05   0.00014606899   0.00013439839
    0.037837838      0.99932121   3.8206339e-22               0               0               0               0    0.0044379349   1.4287271e-05    0.0001460364   0.00013434347
     0.03993994      0.99930329   3.8206339e-22               0               0               0               0    0.0044559245   1.4286732e-05   0.00014600381   0.00013428855
    0.042042042      0.99928537   3.8206339e-22               0               0               0               0    0.0044739142   1.4286194e-05   0.00014597122   0.00013423362
    0.044144144      0.99926746   3.8206339e-22               0               0               0               0    0.0044919038   1.4285656e-05   0.00014593863    0.0001341787
    0.046246246      0.99924954   3.8206339e-22               0               0               0               0    0.0045098934   1.4285118e-05   0.00014590604   0.00013412378
    0.048348348      0.99922547   5.7879389e-22               0               0               0               0    0.0045337378   1.4284884e-05   0.00014587326   0.00013406572
     0.05045045      0.99919838   5.7879389e-22               0               0               0               0    0.0045604568   1.4284799e-05   0.00014584038   0.00013400613
    0.052552553      0.99917129   5.7879389e-22               0               0               0               0    0.0045871758   1.4284714e-05   0.00014580751   0.00013394655
    0.054654655       0.9991442   5.7879389e-22               0               0               0               0    0.0046138948   1.4284629e-05   0.00014577463   0.00013388696
    0.056756757      0.99911711   5.7879389e-22               0               0               0               0    0.0046406138   1.4284544e-05   0.00014574176   0.00013382737
    0.058858859      0.99909002   5.7879389e-22               0               0               0               0    0.0046673328    1.428446e-05   0.00014570888   0.00013376778
    0.060960961      0.99906293   5.7879389e-22               0               0               0               0    0.0046940518   1.4284375e-05     0.000145676   0.00013370819
    0.063063063      0.99903584   5.7879389e-22               0               0               0               0    0.0047207708    1.428429e-05   0.00014564313    0.0001336486
    0.065165165      0.99900876   5.7879389e-22               0               0               0               0    0.0047474898   1.4284205e-05   0.00014561025   0.00013358901
    0.067267267       0.9989713   8.3214907e-22               0               0               0               0    0.0047855279   1.4284662e-05   0.00014557769   0.00013352502
    0.069369369      0.99893208   8.3214907e-22               0               0               0               0    0.0048254874   1.4285211e-05   0.00014554517   0.00013346029
    0.071471471      0.99889286   8.3214907e-22               0               0               0               0     0.004865447   1.4285759e-05   0.00014551266   0.00013339555
    0.073573574      0.99885364   8.3214907e-22               0               0               0               0    0.0049054066   1.4286308e-05   0.00014548015   0.00013333082
    0.075675676      0.99881442   8.3214907e-22               0               0               0               0    0.0049453661   1.4286857e-05   0.00014544764   0.00013326609
    0.077777778      0.99877521   8.3214907e-22               0               0               0               0    0.0049853257   1.4287406e-05   0.00014541513   0.00013320135
     0.07987988      0.99872159   1.4314357e-21               0               0               0               0    0.0050357935   1.4290559e-05   0.00014538088   0.00013310939
    0.081981982      0.99865545   1.4314357e-21               0               0               0               0    0.0050953921   1.4295974e-05   0.00014534512   0.00013299375
    0.084084084      0.99858932   1.4314357e-21               0               0               0               0    0.0051549906    1.430139e-05   0.00014530937   0.00013287812
    0.086186186      0.99852318   1.4314357e-21               0               0               0               0    0.0052145892   1.4306805e-05   0.00014527361   0.00013276249
    0.088288288      0.99845693   1.9655902e-21               0               0               0               0    0.0052744211   1.4317389e-05   0.00014523798   0.00013261544
     0.09039039      0.99836504   1.9655902e-21               0               0               0               0    0.0053849183   1.5450148e-05   0.00014522995    0.0001256467
    0.092492492      0.99827315   1.9655902e-21               0               0               0               0    0.0054954155   1.6582906e-05   0.00014522193   0.00011867795
    0.094594595      0.99818127   1.9655902e-21               0               0               0               0    0.0056059128   1.7715664e-05    0.0001452139   0.00011170921
    0.096696697       0.8359096   1.1251472e-20               0  -0.00010102294  -5.7474163e-08   2.0267836e-22    0.0057430595   0.00045342697   0.00015307805   8.8519983e-05
    0.098798799      0.62152336   1.1251472e-20               0  -0.00023450843  -1.3341697e-07   4.7048502e-22    0.0058887698     0.001028785   0.00016347183   6.0118496e-05
      0.1009009       0.3555066   3.4123592e-20               0  -0.00041436251  -2.4660404e-07   6.2930594e-22    0.0060105407    0.0020318984   0.00018892793   3.1287364e-05
       0.103003     0.020649159   3.4123592e-20               0  -0.00065604139  -4.0945011e-07   6.4281251e-22    0.0061003923    0.0036053523   0.00023446714   1.8833728e-06
     0.10510511   1.1034963e-16   3.7196812e-20  -6.1677522e-36  -0.00073754915  -5.5531703e-07   2.6274824e-22    0.0061041611    0.0054452483   0.00030434684   9.7506001e-08
     0.10720721    1.100139e-16   5.5992406e-20               0  -0.00081221958  -7.3334967e-07   1.0075413e-21    0.0060968403    0.0078231623   0.00038756271   1.2826227e-07
     0.10930931    1.100139e-16   5.5992406e-20               0  -0.00089237019  -9.6082608e-07   3.4618719e-21    0.0060814489     0.010974354   0.00048821465   1.6141564e-07
     0.11141141   1.0960228e-16   7.5257788e-20               0  -0.00097770816  -1.2365819e-06   1.5527562e-20    0.0060806861      0.01570709   0.00061719756   1.9700329e-07
     0.11351351   1.0910562e-16   9.5684962e-20               0   -0.0010650573  -1.5291001e-06   2.4078018e-20    0.0060846042     0.021309872   0.00076005797   2.3357749e-07
     0.11561562   1.0910562e-16   9.5684962e-20               0   -0.0011561632  -1.8480943e-06   8.1578557e-21     0.006094817      0.02917298   0.00093599507   2.7210028e-07
     0.11771772   1.0851625e-16   1.0961036e-19  -1.9128759e-33   -0.0012485428  -2.1659194e-06  -6.3971437e-21    0.0061023477     0.038935835    0.0011347448   3.1146794e-07
     0.11981982   1.0851625e-16   1.0961036e-19  -1.9128759e-33   -0.0013421694     -2.4826e-06   -1.961544e-20    0.0061072521     0.050558833    0.0013558316   3.5166285e-07
     0.12192192   1.0782282e-16   1.1849252e-19   -3.536737e-35   -0.0014356838  -2.8813384e-06    1.673798e-20    0.0061016039      0.06580047    0.0016124028   3.9240262e-07
     0.12402402   1.0782282e-16   1.1849252e-19   -3.536737e-35   -0.0015291651  -3.3043657e-06   6.7764469e-20    0.0060928322     0.082113214    0.0018794773   4.3330368e-07
     0.12612613   1.0702275e-16   1.4416485e-19               0   -0.0016194661  -3.8684629e-06    6.841914e-20    0.0060641653      0.10364157     0.002187511   4.7375824e-07
     0.12822823   1.0610985e-16   1.7130282e-19               0    -0.001708794  -4.4421086e-06   7.7810936e-20    0.0060331577      0.12600217    0.0025006172   5.1396077e-07
     0.13033033   1.0610985e-16   1.7130282e-19               0   -0.0017925804  -5.0598773e-06   1.4432303e-19    0.0059899634      0.15286927    0.0028403351   5.5269287e-07
     0.13243243   1.0508194e-16   1.9748059e-19               0   -0.0018740474  -5.6807948e-06   1.9457571e-19    0.0059443091      0.18079127    0.0031836306    5.907007e-07
     0.13453453   1.0508194e-16   1.9748059e-19               0   -0.0019483459  -6.3114439e-06   1.9457576e-19    0.0058910514      0.21197362    0.0035379831   6.2647004e-07
     0.13663664   1.0394282e-16   2.2194578e-19               0   -0.0020192353  -6.9353579e-06   1.2287309e-19    0.0058344834      0.24386858    0.0038908186   6.6108367e-07
     0.13873874   1.0394282e-16   2.2194578e-19               0   -0.0020816853  -7.5425991e-06  -1.2632938e-19    0.0057697204      0.27752759    0.0042398988   6.9283632e-07
     0.14084084   1.0270067e-16    2.436968e-19               0   -0.0021405551  -8.1332154e-06  -3.0802696e-19    0.0057023936      0.31120128    0.0045821755   7.2330679e-07
     0.14294294   1.0270067e-16    2.436968e-19               0   -0.0021897884  -8.6790837e-06  -3.0802704e-19     0.005628166      0.34491446    0.0049061399    7.503261e-07
     0.14504505   1.0136719e-16   2.6174067e-19               0   -0.0022364243  -9.2060785e-06  -2.2690399e-19    0.0055527542      0.37815594    0.0052221137   7.7637239e-07
     0.14714715   1.0136719e-16   2.6174067e-19               0   -0.0022721349  -9.6536869e-06   1.9544375e-19    0.0054723618      0.40941331    0.0055044773   7.9832591e-07
     0.14924925   9.9957369e-17   2.7473676e-19               0   -0.0023072094  -1.0095912e-05   5.9692385e-19     0.005391802      0.44044619    0.0057842502   8.2003088e-07
     0.15135135   9.9957369e-17   2.7473676e-19               0   -0.0023300442  -1.0434554e-05   5.9687902e-19    0.0053080225      0.46715941    0.0060141736   8.3695362e-07
     0.15345345   9.9957369e-17   2.7473676e-19               0    -0.002352879  -1.0773196e-05    5.968342e-19     0.005224243      0.49387262    0.0062440971   8.5387636e-07
     0.15555556    9.848779e-17   2.8435216e-19               0   -0.0023660959  -1.0990707e-05   6.3094043e-19    0.0051405803      0.51569828    0.0064265663   8.6687467e-07
     0.15765766    9.848779e-17   2.8435216e-19               0    -0.002377493    -1.11853e-05   6.7150799e-19    0.0050569397      0.53659921    0.0066000572   8.7913049e-07
     0.15975976   9.6975749e-17   2.8477548e-19               0   -0.0023833677  -1.1301508e-05   6.8919716e-19    0.0049745149      0.55388466    0.0067418388   8.8901429e-07
     0.16186186   9.6975749e-17   2.8477548e-19               0   -0.0023849829  -1.1357256e-05   6.8923973e-19    0.0048930278      0.56838143    0.0068591624    8.970685e-07
     0.16396396   9.5440236e-17   2.8209094e-19               0   -0.0023851401  -1.1391624e-05   6.2706447e-19    0.0048121445      0.58176989     0.006967226   9.0446497e-07
     0.16606607   9.5440236e-17   2.8209094e-19               0   -0.0023800751  -1.1349411e-05   3.4204897e-19    0.0047334237      0.59118882    0.0070421241   9.0950572e-07
     0.16816817   9.5440236e-17   2.8209094e-19               0   -0.0023750102  -1.1307199e-05   5.7033475e-20    0.0046547029      0.60060774    0.0071170222   9.1454647e-07
     0.17027027   9.3893924e-17   2.7409558e-19               0   -0.0023648311  -1.1179545e-05   6.3058118e-20    0.0045793046      0.60540796     0.007155021   9.1709093e-07
     0.17237237   9.3893924e-17   2.7409558e-19               0   -0.0023533726  -1.1030516e-05   1.4189127e-19    0.0045047375      0.60905273    0.0071837888    9.190109e-07
     0.17447447   9.2356971e-17   2.6114987e-19               0   -0.0023404671  -1.0856276e-05   2.1804823e-19    0.0044318674      0.61123056    0.0072009882   9.2015955e-07
     0.17657658   9.2356971e-17   2.6114987e-19               0   -0.0023242987  -1.0625186e-05   2.8817055e-19    0.0043628238      0.61010053    0.0071921011   9.1956892e-07
     0.17867868   9.2356971e-17   2.6114987e-19               0   -0.0023081303  -1.0394097e-05   3.5829287e-19    0.0042937802       0.6089705     0.007183214   9.1897829e-07
     0.18078078   9.0842239e-17   2.4461637e-19               0   -0.0022909369  -1.0125656e-05   4.1232735e-19    0.0042289602      0.60635588    0.0071625918    9.176032e-07
     0.18288288   9.0842239e-17   2.4461637e-19               0   -0.0022733795  -9.8439527e-06   4.6064972e-19    0.0041656398      0.60321415    0.0071378028   9.1594958e-07
     0.18498498   8.9363384e-17   2.2471347e-19               0   -0.0022557263  -9.5585565e-06   4.9870636e-19    0.0041027635      0.59990731    0.0071116905   9.1420611e-07
     0.18708709   8.9363384e-17   2.2471347e-19               0   -0.0022371017  -9.2357243e-06   4.3270209e-19    0.0040443883      0.59492688    0.0070721633   9.1155188e-07
     0.18918919   8.9363384e-17   2.2471347e-19               0    -0.002218477  -8.9128921e-06   3.6669782e-19    0.0039860131      0.58994645    0.0070326362   9.0889765e-07
     0.19129129    8.793543e-17   2.0187584e-19               0   -0.0021998024  -8.5817074e-06   2.5653518e-19     0.003929564      0.58458226     0.006989916   9.0601779e-07
     0.19339339    8.793543e-17   2.0187584e-19               0   -0.0021810391  -8.2356903e-06   6.7954484e-20    0.0038765352      0.57853657    0.0069415257   9.0273728e-07
      0.1954955    8.793543e-17   2.0187584e-19               0   -0.0021622759  -7.8896732e-06  -1.2062621e-19    0.0038235065      0.57249088    0.0068931354   8.9945676e-07
      0.1975976   8.6575836e-17   1.7734998e-19               0   -0.0021438439  -7.5422893e-06  -2.0608117e-19    0.0037737569      0.56621066    0.0068425751   8.9600658e-07
      0.1996997   8.6575836e-17   1.7734998e-19               0   -0.0021256864  -7.1937727e-06  -2.0608125e-19    0.0037267245      0.55973609    0.0067902165   8.9241581e-07
      0.2018018   8.6575836e-17   1.7734998e-19               0   -0.0021075289  -6.8452562e-06  -2.0608133e-19    0.0036796921      0.55326152     0.006737858   8.8882505e-07
      0.2039039   8.5298891e-17   1.5234501e-19               0   -0.0020901176  -6.5044984e-06  -1.5029987e-19    0.0036365177      0.54682382    0.0066854156   8.8519877e-07
     0.20600601   8.5298891e-17   1.5234501e-19               0   -0.0020731133  -6.1679733e-06  -6.4086746e-20    0.0035954478      0.54040625    0.0066329276   8.8155313e-07
     0.20810811   8.5298891e-17   1.5234501e-19               0   -0.0020561091  -5.8314483e-06   2.2126375e-20     0.003554378      0.53398867    0.0065804396   8.7790748e-07
     0.21021021   8.4115894e-17    1.275011e-19               0   -0.0020401206  -5.5086817e-06   5.1603097e-20     0.003517082      0.52784332    0.0065297994    8.743603e-07
     0.21231231   8.4115894e-17    1.275011e-19               0   -0.0020246599  -5.1930631e-06   5.1603118e-20    0.0034817465      0.52183939    0.0064801193   8.7086427e-07
     0.21441441   8.4115894e-17    1.275011e-19               0   -0.0020091991  -4.8774446e-06    5.160314e-20    0.0034464111      0.51583547    0.0064304391   8.6736824e-07
     0.21651652   8.3035745e-17   1.0348897e-19               0   -0.0019947814  -4.5776031e-06   4.2220772e-20    0.0034143183       0.5102157    0.0063836463   8.6405211e-07
     0.21861862   8.3035745e-17   1.0348897e-19               0   -0.0019811274  -4.2893113e-06   2.5969853e-20    0.0033845994      0.50487716    0.0063389672   8.6086768e-07
     0.22072072   8.3035745e-17   1.0348897e-19               0   -0.0019674733  -4.0010195e-06    9.718933e-21    0.0033548805      0.49953862     0.006294288   8.5768324e-07
     0.22282282   8.2063983e-17   8.0829289e-20               0   -0.0019546065  -3.7258418e-06               0    0.0033273373      0.49453348    0.0062522389   8.5467329e-07
     0.22492492   8.2063983e-17   8.0829289e-20               0   -0.0019429113  -3.4701764e-06               0    0.0033030312      0.49002442    0.0062141028   8.5192296e-07
     0.22702703   8.2063983e-17   8.0829289e-20               0   -0.0019312161  -3.2145111e-06               0    0.0032787252      0.48551535    0.0061759668   8.4917262e-07
     0.22912913   8.1202993e-17   6.0269005e-20               0   -0.0019197801  -2.9637763e-06  -9.5571987e-23    0.0032550688      0.48112466    0.0061387957   8.4648892e-07
     0.23123123   8.1202993e-17   6.0269005e-20               0   -0.0019100943  -2.7463358e-06  -8.3649104e-22    0.0032357994      0.47753327    0.0061081404   8.4425517e-07
     0.23333333   8.1202993e-17   6.0269005e-20               0   -0.0019004084  -2.5288953e-06  -1.5774101e-21    0.0032165299      0.47394187    0.0060774851   8.4202143e-07
     0.23543544   8.1202993e-17   6.0269005e-20               0   -0.0018907226  -2.3114548e-06  -2.3183291e-21    0.0031972605      0.47035047    0.0060468298   8.3978769e-07
     0.23753754   8.0451248e-17   4.2620012e-20               0   -0.0018825092  -2.1263714e-06  -7.4833538e-21    0.0031812861      0.46746413    0.0060220633   8.3797238e-07
     0.23963964   8.0451248e-17   4.2620012e-20               0   -0.0018747724  -1.9517605e-06  -1.4080265e-20     0.003166378      0.46480598    0.0059992027    8.362925e-07
     0.24174174   8.0451248e-17   4.2620012e-20               0   -0.0018670356  -1.7771497e-06  -2.0677176e-20      0.00315147      0.46214782    0.0059763421   8.3461262e-07
     0.24384384   7.9801161e-17   2.8586983e-20               0    -0.001859789  -1.6152801e-06  -2.5243835e-20    0.0031375623      0.45973119    0.0059555343   8.3308156e-07
     0.24594595   7.9801161e-17   2.8586983e-20               0   -0.0018538134  -1.4864463e-06  -2.4546436e-20    0.0031262483      0.45794079    0.0059400489   8.3193638e-07
     0.24804805   7.9801161e-17   2.8586983e-20               0   -0.0018478378  -1.3576125e-06  -2.3849037e-20    0.0031149343      0.45615039    0.0059245635   8.3079119e-07
     0.25015015   7.9801161e-17   2.8586983e-20               0   -0.0018418622  -1.2287787e-06  -2.3151639e-20    0.0031036203      0.45435999    0.0059090781     8.29646e-07
     0.25225225   7.9239368e-17   1.8778791e-20               0   -0.0018368941  -1.1311553e-06  -1.2029117e-20    0.0030941821      0.45306769    0.0058978757   8.2881546e-07
     0.25435435   7.9239368e-17   1.8778791e-20               0   -0.0018323695  -1.0472702e-06   3.6823396e-21    0.0030855696      0.45199465    0.0058885587   8.2812343e-07
     0.25645646   7.9239368e-17   1.8778791e-20               0   -0.0018278449  -9.6338514e-07   1.9393796e-20    0.0030769571      0.45092161    0.0058792417    8.274314e-07
     0.25855856   7.8748881e-17   1.3156017e-20               0   -0.0018233206  -8.7951058e-07   3.5098807e-20     0.003068345       0.4498487    0.0058699258   8.2673945e-07
     0.26066066   7.8748881e-17   1.3156017e-20               0   -0.0018198499  -8.3425007e-07   2.7182674e-20     0.003061116      0.44927451    0.0058649281   8.2636723e-07
     0.26276276   7.8748881e-17   1.3156017e-20               0   -0.0018163793  -7.8898955e-07   1.9266541e-20     0.003053887      0.44870031    0.0058599304   8.2599501e-07
     0.26486486   7.8748881e-17   1.3156017e-20               0   -0.0018129087  -7.4372904e-07   1.1350408e-20     0.003046658      0.44812611    0.0058549327   8.2562279e-07
     0.26696697   7.8311021e-17   1.1023024e-20               0   -0.0018095609  -7.0395428e-07   3.2362137e-21    0.0030394623      0.44760095    0.0058503611   8.2528224e-07
     0.26906907   7.8311021e-17   1.1023024e-20               0   -0.0018067279  -6.8716203e-07  -5.7077578e-21    0.0030324057      0.44728127    0.0058475746   8.2507438e-07
     0.27117117   7.8311021e-17   1.1023024e-20               0   -0.0018038948  -6.7036979e-07  -1.4651729e-20    0.0030253491      0.44696159    0.0058447881   8.2486651e-07
     0.27327327   7.8311021e-17   1.1023024e-20               0   -0.0018010618  -6.5357754e-07  -2.3595701e-20    0.0030182925       0.4466419    0.0058420017   8.2465864e-07
     0.27537538   7.7908289e-17   1.1295239e-20               0   -0.0017983056  -6.4130761e-07  -2.8143393e-20    0.0030111045      0.44633356    0.0058393133   8.2445803e-07
     0.27747748   7.7908289e-17   1.1295239e-20               0   -0.0017957594  -6.4138064e-07  -2.0692102e-20    0.0030035576      0.44605616    0.0058368929   8.2427727e-07
     0.27957958   7.7908289e-17   1.1295239e-20               0   -0.0017932131  -6.4145367e-07  -1.3240811e-20    0.0029960108      0.44577876    0.0058344725    8.240965e-07
     0.28168168   7.7908289e-17   1.1295239e-20               0   -0.0017906668   -6.415267e-07  -5.7895198e-21    0.0029884639      0.44550136    0.0058320521   8.2391573e-07
     0.28378378   7.7527401e-17   1.2733228e-20               0   -0.0017881342   -6.430255e-07   2.6218463e-22    0.0029807657      0.44520328    0.0058294505   8.2372137e-07
     0.28588589   7.7527401e-17   1.2733228e-20               0   -0.0017856494  -6.4949159e-07   1.4378062e-21      0.00297254      0.44483317    0.0058262176   8.2347964e-07
     0.28798799   7.7527401e-17   1.2733228e-20               0   -0.0017831646  -6.5595768e-07   2.6134277e-21    0.0029643143      0.44446306    0.0058229848    8.232379e-07
     0.29009009   7.7527401e-17   1.2733228e-20               0   -0.0017806798  -6.6242377e-07   3.7890492e-21    0.0029560887      0.44409295     0.005819752   8.2299617e-07
     0.29219219   7.7160197e-17    1.429306e-20               0   -0.0017781933  -6.6884801e-07   4.9016382e-21    0.0029478409      0.44371534    0.0058164532   8.2274948e-07
     0.29429429   7.7160197e-17    1.429306e-20               0   -0.0017756764  -6.7453346e-07    4.901641e-21    0.0029392037      0.44320523    0.0058119913   8.2241531e-07
      0.2963964   7.7160197e-17    1.429306e-20               0   -0.0017731594  -6.8021891e-07   4.9016438e-21    0.0029305666      0.44269513    0.0058075293   8.2208114e-07
      0.2984985   7.7160197e-17    1.429306e-20               0   -0.0017706425  -6.8590437e-07   4.9016466e-21    0.0029219294      0.44218503    0.0058030674   8.2174697e-07
      0.3006006   7.7160197e-17    1.429306e-20               0   -0.0017681256  -6.9158982e-07   4.9016495e-21    0.0029132922      0.44167492    0.0057986054   8.2141279e-07
      0.3027027   7.6802685e-17   1.5338141e-20               0   -0.0017655857  -6.9415314e-07   4.0649372e-21    0.0029047046      0.44107297    0.0057933322   8.2101721e-07
      0.3048048   7.6802685e-17   1.5338141e-20               0   -0.0017630384  -6.9570944e-07   2.9583512e-21     0.002896133      0.44044139    0.0057877974   8.2060183e-07
     0.30690691   7.6802685e-17   1.5338141e-20               0    -0.001760491  -6.9726575e-07   1.8517653e-21    0.0028875614      0.43980981    0.0057822626   8.2018644e-07
     0.30900901   7.6802685e-17   1.5338141e-20               0   -0.0017579437  -6.9882206e-07   7.4517928e-22    0.0028789898      0.43917823    0.0057767278   8.1977105e-07
     0.31111111   7.6453414e-17   1.5649075e-20               0   -0.0017554006  -6.9903279e-07               0    0.0028705134      0.43852249    0.0057709767   8.1933905e-07
     0.31321321   7.6453414e-17   1.5649075e-20               0   -0.0017528665   -6.964691e-07               0    0.0028622333      0.43781692    0.0057647795   8.1887278e-07
     0.31531532   7.6453414e-17   1.5649075e-20               0   -0.0017503324  -6.9390542e-07               0    0.0028539533      0.43711134    0.0057585824    8.184065e-07
     0.31741742   7.6453414e-17   1.5649075e-20               0   -0.0017477982  -6.9134173e-07               0    0.0028456732      0.43640577    0.0057523852   8.1794023e-07
     0.31951952   7.6453414e-17   1.5649075e-20               0   -0.0017452641  -6.8877804e-07               0    0.0028373931      0.43570019     0.005746188   8.1747396e-07
     0.32162162   7.6111636e-17   1.5410981e-20               0   -0.0017427712  -6.8459759e-07               0    0.0028292811      0.43497199    0.0057397797   8.1699074e-07
     0.32372372   7.6111636e-17   1.5410981e-20               0   -0.0017402912  -6.7990933e-07               0    0.0028212218      0.43423668     0.005733305    8.165022e-07
     0.32582583   7.6111636e-17   1.5410981e-20               0   -0.0017378112  -6.7522107e-07               0    0.0028131625      0.43350137    0.0057268303   8.1601366e-07
     0.32792793   7.6111636e-17   1.5410981e-20               0   -0.0017353312  -6.7053282e-07               0    0.0028051031      0.43276607    0.0057203556   8.1552512e-07
     0.33003003   7.5776094e-17   1.4964765e-20               0   -0.0017328552  -6.6584226e-07               0    0.0027970504      0.43203054     0.005713878   8.1503628e-07
     0.33213213   7.5776094e-17   1.4964765e-20               0   -0.0017304473  -6.6111224e-07               0    0.0027891095      0.43129122    0.0057073504   8.1454225e-07
     0.33423423   7.5776094e-17   1.4964765e-20               0   -0.0017280395  -6.5638223e-07               0    0.0027811687       0.4305519    0.0057008228   8.1404822e-07
     0.33633634   7.5776094e-17   1.4964765e-20               0   -0.0017256317  -6.5165221e-07               0    0.0027732278      0.42981259    0.0056942952   8.1355419e-07
     0.33843844   7.5776094e-17   1.4964765e-20               0   -0.0017232239   -6.469222e-07               0     0.002765287      0.42907327    0.0056877676   8.1306016e-07
     0.34054054   7.5445004e-17   1.4577112e-20               0   -0.0017208305   -6.424024e-07               0    0.0027573631      0.42833489    0.0056812445   8.1256615e-07
     0.34264264   7.5445004e-17   1.4577112e-20               0   -0.0017184933  -6.3869955e-07               0    0.0027495051       0.4276001    0.0056747385   8.1207219e-07
     0.34474474   7.5445004e-17   1.4577112e-20               0   -0.0017161561   -6.349967e-07               0    0.0027416471      0.42686532    0.0056682326   8.1157824e-07
     0.34684685   7.5445004e-17   1.4577112e-20               0   -0.0017138188  -6.3129385e-07               0    0.0027337891      0.42613054    0.0056617267   8.1108429e-07
     0.34894895   7.5445004e-17   1.4577112e-20               0   -0.0017114816    -6.27591e-07               0     0.002725931      0.42539576    0.0056552208   8.1059034e-07
     0.35105105   7.5116695e-17   1.4341969e-20               0   -0.0017091574  -6.2408706e-07               0    0.0027181083       0.4246621     0.005648721   8.1009652e-07
     0.35315315   7.5116695e-17   1.4341969e-20               0   -0.0017068838  -6.2135364e-07               0    0.0027104223      0.42393281    0.0056422448   8.0960321e-07