/*--------------------------------*- C++ -*----------------------------------*\
  =========                 |
  \\      /  F ield         | OpenFOAM: The Open Source CFD Toolbox
   \\    /   O peration     | Website:  https://openfoam.org
    \\  /    A nd           | Version:  12
     \\/     M anipulation  |
\*---------------------------------------------------------------------------*/
FoamFile
{
    format      ascii;
    class       volScalarField;
    location    "1700";
    object      nut;
}
// * * * * * * * * * * * * * * * * * * * * * * * * * * * * * * * * * * * * * //

dimensions      [0 2 -1 0 0 0 0];

internalField   nonuniform List<scalar> 
13056
(
1.4725917e-06
1.4726185e-06
1.4727475e-06
1.4730453e-06
1.4734951e-06
1.4740705e-06
1.4747465e-06
1.475502e-06
1.4763193e-06
1.4771837e-06
1.4780832e-06
1.4790079e-06
1.4799508e-06
1.4809066e-06
1.4818724e-06
1.4828472e-06
1.4838328e-06
1.4848328e-06
1.4858524e-06
1.4869138e-06
1.4879662e-06
1.4892923e-06
1.4897388e-06
1.4888077e-06
2.8090529e-13
8.1237679e-14
6.5703208e-14
6.0771985e-14
5.7735056e-14
5.5264055e-14
5.3136799e-14
5.1275317e-14
4.9626856e-14
4.8149639e-14
4.681308e-14
4.5594832e-14
4.4477705e-14
4.3447886e-14
4.2494056e-14
4.1606911e-14
4.0778695e-14
4.0002863e-14
3.927377e-14
3.8586572e-14
3.7937095e-14
3.7321668e-14
3.6737178e-14
3.6180841e-14
3.5650146e-14
3.5142978e-14
3.4657401e-14
3.419163e-14
3.3744134e-14
3.3313556e-14
3.2898601e-14
3.2498097e-14
3.2111059e-14
3.1736566e-14
3.137371e-14
3.1021693e-14
3.0679841e-14
3.0347509e-14
3.0024047e-14
2.9708869e-14
2.9401503e-14
2.9101484e-14
2.8808335e-14
2.8521619e-14
2.8240963e-14
2.7966033e-14
2.7696488e-14
2.7431983e-14
2.7172205e-14
2.6916909e-14
2.6665846e-14
2.6418746e-14
2.6175355e-14
2.5935451e-14
2.5698848e-14
2.546535e-14
2.5234743e-14
2.5006821e-14
2.4781426e-14
2.4558406e-14
2.4337592e-14
2.4118804e-14
2.3901872e-14
2.3686673e-14
2.3473074e-14
2.3260919e-14
2.3050047e-14
2.2840317e-14
2.2631616e-14
2.2423818e-14
2.2216765e-14
2.2010301e-14
2.1804313e-14
2.1598683e-14
2.1393257e-14
2.1187872e-14
2.0982387e-14
2.0776678e-14
2.0570595e-14
2.0363958e-14
2.0156606e-14
1.9948397e-14
1.9739157e-14
1.9528673e-14
1.9316763e-14
1.9103247e-14
1.8887896e-14
1.8670444e-14
1.8450726e-14
1.8233248e-14
1.8024811e-14
1.7827249e-14
1.7639664e-14
1.7461216e-14
1.7291149e-14
1.7128817e-14
1.697364e-14
1.6825066e-14
1.6682595e-14
1.6545806e-14
1.6414315e-14
1.6287756e-14
1.6165781e-14
1.604805e-14
1.59343e-14
1.5824145e-14
1.5717511e-14
1.5613159e-14
1.5512767e-14
1.5408744e-14
1.531866e-14
1.5168934e-14
1.4725917e-06
1.4726185e-06
1.4727474e-06
1.4730451e-06
1.473495e-06
1.4740703e-06
1.4747462e-06
1.4755016e-06
1.4763189e-06
1.4771833e-06
1.4780826e-06
1.4790074e-06
1.4799501e-06
1.4809058e-06
1.4818716e-06
1.4828463e-06
1.4838318e-06
1.4848317e-06
1.4858512e-06
1.4869125e-06
1.4879648e-06
1.4892906e-06
1.4897374e-06
1.4888142e-06
2.0687598e-11
6.6987468e-12
5.4248084e-12
5.0180284e-12
4.7674375e-12
4.5636567e-12
4.3882145e-12
4.2346596e-12
4.0986471e-12
3.976745e-12
3.8664381e-12
3.7658865e-12
3.6736742e-12
3.5886631e-12
3.5099203e-12
3.4366792e-12
3.3683003e-12
3.304244e-12
3.2440446e-12
3.1873028e-12
3.1336742e-12
3.082856e-12
3.0345914e-12
2.9886506e-12
2.9448266e-12
2.9029445e-12
2.8628449e-12
2.8243805e-12
2.7874247e-12
2.7518656e-12
2.7175963e-12
2.6845202e-12
2.6525558e-12
2.6216272e-12
2.5916595e-12
2.5625867e-12
2.5343531e-12
2.5069057e-12
2.4801906e-12
2.4541596e-12
2.4287735e-12
2.4039942e-12
2.3797822e-12
2.3561013e-12
2.3329208e-12
2.3102131e-12
2.2879501e-12
2.2661033e-12
2.2446468e-12
2.2235604e-12
2.2028235e-12
2.1824139e-12
2.1623106e-12
2.1424952e-12
2.1229524e-12
2.103666e-12
2.0846183e-12
2.0657924e-12
2.047175e-12
2.0287538e-12
2.0105147e-12
1.9924431e-12
1.9745246e-12
1.9567492e-12
1.9391059e-12
1.9215818e-12
1.9041637e-12
1.8868399e-12
1.8696009e-12
1.8524365e-12
1.8353337e-12
1.8182795e-12
1.8012645e-12
1.7842791e-12
1.7673104e-12
1.7503451e-12
1.7333715e-12
1.7163794e-12
1.6993564e-12
1.6822875e-12
1.6651595e-12
1.6479608e-12
1.6306767e-12
1.61329e-12
1.5957854e-12
1.578148e-12
1.5603591e-12
1.5423966e-12
1.5242469e-12
1.5062821e-12
1.4890641e-12
1.4727445e-12
1.457249e-12
1.4425082e-12
1.4284597e-12
1.4150501e-12
1.4022316e-12
1.3899585e-12
1.3781895e-12
1.3668899e-12
1.3560279e-12
1.3455734e-12
1.3354974e-12
1.3257721e-12
1.3163756e-12
1.3072761e-12
1.2984676e-12
1.2898476e-12
1.2815546e-12
1.2729627e-12
1.2655212e-12
1.2531526e-12
1.4725915e-06
1.4726183e-06
1.4727472e-06
1.4730447e-06
1.4734944e-06
1.4740695e-06
1.4747453e-06
1.4755005e-06
1.4763176e-06
1.4771818e-06
1.4780809e-06
1.4790054e-06
1.479948e-06
1.4809035e-06
1.4818689e-06
1.4828434e-06
1.4838286e-06
1.4848282e-06
1.4858473e-06
1.4869082e-06
1.4879601e-06
1.4892851e-06
1.4897319e-06
1.4888151e-06
1.4980226e-10
5.3560568e-11
4.3481889e-11
4.0226641e-11
3.822162e-11
3.6592206e-11
3.5189095e-11
3.3960503e-11
3.2871808e-11
3.1895762e-11
3.1012361e-11
3.0206943e-11
2.9468211e-11
2.878708e-11
2.8156103e-11
2.7569155e-11
2.7021128e-11
2.6507708e-11
2.602517e-11
2.557032e-11
2.5140404e-11
2.4732999e-11
2.4346049e-11
2.3977715e-11
2.362634e-11
2.3290525e-11
2.2968991e-11
2.2660561e-11
2.236422e-11
2.2079072e-11
2.1804261e-11
2.1539013e-11
2.1282674e-11
2.1034637e-11
2.0794303e-11
2.0561142e-11
2.0334707e-11
2.0114573e-11
1.9900311e-11
1.9691533e-11
1.9487923e-11
1.9289178e-11
1.9094981e-11
1.8905041e-11
1.8719114e-11
1.8536976e-11
1.8358404e-11
1.8183168e-11
1.8011062e-11
1.7841922e-11
1.7675585e-11
1.7511871e-11
1.7350613e-11
1.7191663e-11
1.7034899e-11
1.688019e-11
1.6727395e-11
1.6576378e-11
1.6427033e-11
1.627926e-11
1.6132947e-11
1.5987977e-11
1.5844234e-11
1.5701638e-11
1.5560101e-11
1.5419519e-11
1.5279787e-11
1.5140811e-11
1.5002515e-11
1.4864816e-11
1.472761e-11
1.4590793e-11
1.4454291e-11
1.4318024e-11
1.4181891e-11
1.4045785e-11
1.3909611e-11
1.3773289e-11
1.3636716e-11
1.3499777e-11
1.3362362e-11
1.3224378e-11
1.308571e-11
1.2946217e-11
1.2805777e-11
1.2664272e-11
1.252155e-11
1.2377434e-11
1.2231816e-11
1.2087681e-11
1.1949537e-11
1.18186e-11
1.1694275e-11
1.1576005e-11
1.1463288e-11
1.1355698e-11
1.1252849e-11
1.1154377e-11
1.1059949e-11
1.0969286e-11
1.0882135e-11
1.0798253e-11
1.0717408e-11
1.0639377e-11
1.0563983e-11
1.0490973e-11
1.0420297e-11
1.0351137e-11
1.0284598e-11
1.0215674e-11
1.0155967e-11
1.0056722e-11
1.4725913e-06
1.472618e-06
1.4727467e-06
1.473044e-06
1.4734933e-06
1.4740682e-06
1.4747436e-06
1.4754985e-06
1.4763153e-06
1.4771792e-06
1.478078e-06
1.4790021e-06
1.4799443e-06
1.4808994e-06
1.4818644e-06
1.4828384e-06
1.4838231e-06
1.4848221e-06
1.4858406e-06
1.4869008e-06
1.4879519e-06
1.4892755e-06
1.4897222e-06
1.4888105e-06
5.4917194e-10
2.1687956e-10
1.7674748e-10
1.6355276e-10
1.5542955e-10
1.4883227e-10
1.4314871e-10
1.381686e-10
1.3375271e-10
1.2979188e-10
1.2620573e-10
1.2293524e-10
1.1993483e-10
1.171678e-10
1.1460407e-10
1.1221888e-10
1.0999156e-10
1.0790466e-10
1.0594309e-10
1.040939e-10
1.0234594e-10
1.0068938e-10
9.9115887e-11
9.7618001e-11
9.6189009e-11
9.4823217e-11
9.351545e-11
9.2260924e-11
9.105552e-11
8.9895595e-11
8.8777683e-11
8.7698637e-11
8.6655799e-11
8.5646701e-11
8.4668916e-11
8.3720291e-11
8.2799003e-11
8.1903331e-11
8.103153e-11
8.0182027e-11
7.9353535e-11
7.8544815e-11
7.775459e-11
7.6981679e-11
7.6225078e-11
7.5483884e-11
7.4757187e-11
7.4044059e-11
7.3343656e-11
7.2655314e-11
7.1978364e-11
7.1312086e-11
7.0655791e-11
7.0008884e-11
6.937086e-11
6.8741193e-11
6.8119311e-11
6.7504658e-11
6.6896803e-11
6.6295336e-11
6.5699809e-11
6.5109737e-11
6.4524659e-11
6.394424e-11
6.3368124e-11
6.2795892e-11
6.2227113e-11
6.1661405e-11
6.1098458e-11
6.0537936e-11
5.9979418e-11
5.9422479e-11
5.8866812e-11
5.83121e-11
5.7757929e-11
5.7203861e-11
5.6649514e-11
5.6094553e-11
5.5538573e-11
5.4981092e-11
5.442167e-11
5.3859928e-11
5.3295393e-11
5.2727497e-11
5.2155742e-11
5.1579642e-11
5.0998585e-11
5.0411849e-11
4.981899e-11
4.9232162e-11
4.8669723e-11
4.8136621e-11
4.7630435e-11
4.7148898e-11
4.6689971e-11
4.6251911e-11
4.5833156e-11
4.5432216e-11
4.504774e-11
4.4678595e-11
4.4323746e-11
4.3982204e-11
4.3653029e-11
4.3335309e-11
4.3028329e-11
4.2731055e-11
4.2443283e-11
4.2161694e-11
4.1890764e-11
4.1610193e-11
4.1367083e-11
4.096296e-11
1.472591e-06
1.4726176e-06
1.4727461e-06
1.4730429e-06
1.4734918e-06
1.4740662e-06
1.4747412e-06
1.4754957e-06
1.476312e-06
1.4771754e-06
1.4780737e-06
1.4789973e-06
1.479939e-06
1.4808934e-06
1.4818578e-06
1.4828311e-06
1.4838151e-06
1.4848133e-06
1.4858308e-06
1.48689e-06
1.48794e-06
1.4892615e-06
1.489708e-06
1.4888003e-06
1.4508806e-09
6.3466913e-10
5.2012933e-10
4.8150351e-10
4.5773125e-10
4.3843251e-10
4.217928e-10
4.0719708e-10
3.9424267e-10
3.8261507e-10
3.7208187e-10
3.6247176e-10
3.5365215e-10
3.455161e-10
3.3797587e-10
3.3095922e-10
3.2440574e-10
3.1826434e-10
3.124909e-10
3.0704751e-10
3.0190145e-10
2.9702398e-10
2.9239059e-10
2.8797943e-10
2.8377083e-10
2.7974803e-10
2.7589585e-10
2.7220028e-10
2.6864918e-10
2.6523185e-10
2.6193812e-10
2.5875876e-10
2.5568592e-10
2.5271235e-10
2.4983095e-10
2.4703536e-10
2.4432022e-10
2.4168047e-10
2.3911099e-10
2.3660716e-10
2.3416516e-10
2.3178136e-10
2.2945202e-10
2.2717365e-10
2.2494329e-10
2.2275829e-10
2.2061597e-10
2.185136e-10
2.164487e-10
2.1441931e-10
2.1242345e-10
2.1045902e-10
2.0852399e-10
2.0661659e-10
2.0473534e-10
2.0287869e-10
2.0104497e-10
1.9923253e-10
1.974401e-10
1.9566648e-10
1.9391033e-10
1.9217025e-10
1.9044487e-10
1.8873319e-10
1.8703417e-10
1.8534658e-10
1.8366915e-10
1.8200075e-10
1.8034046e-10
1.786873e-10
1.7704002e-10
1.7539738e-10
1.7375847e-10
1.7212234e-10
1.7048778e-10
1.6885351e-10
1.6721839e-10
1.6558143e-10
1.6394145e-10
1.6229701e-10
1.6064682e-10
1.5898977e-10
1.5732445e-10
1.5564919e-10
1.5396253e-10
1.5226302e-10
1.5054886e-10
1.4881793e-10
1.4706891e-10
1.4533765e-10
1.4367832e-10
1.4210552e-10
1.4061211e-10
1.3919141e-10
1.378374e-10
1.3654494e-10
1.3530943e-10
1.3412646e-10
1.3299207e-10
1.319029e-10
1.308559e-10
1.2984815e-10
1.2887689e-10
1.2793943e-10
1.2703365e-10
1.261565e-10
1.2530739e-10
1.2447656e-10
1.2367714e-10
1.2284951e-10
1.2213218e-10
1.2093964e-10
1.4725905e-06
1.4726171e-06
1.4727452e-06
1.4730415e-06
1.4734898e-06
1.4740636e-06
1.474738e-06
1.4754919e-06
1.4763076e-06
1.4771703e-06
1.478068e-06
1.4789909e-06
1.4799318e-06
1.4808854e-06
1.4818489e-06
1.4828213e-06
1.4838043e-06
1.4848014e-06
1.4858177e-06
1.4868755e-06
1.4879241e-06
1.4892428e-06
1.4896888e-06
1.4887845e-06
3.1622862e-09
1.5381812e-09
1.2706403e-09
1.1772141e-09
1.1196581e-09
1.0729279e-09
1.032578e-09
9.9712773e-10
9.6562052e-10
9.373112e-10
9.116464e-10
8.8821622e-10
8.6670217e-10
8.4684678e-10
8.2843854e-10
8.1130297e-10
7.9529406e-10
7.8028804e-10
7.6617801e-10
7.5287195e-10
7.4029048e-10
7.2836376e-10
7.1703219e-10
7.062427e-10
6.9594739e-10
6.8610546e-10
6.7667997e-10
6.6763679e-10
6.5894634e-10
6.5058252e-10
6.425206e-10
6.3473802e-10
6.2721563e-10
6.1993576e-10
6.128811e-10
6.0603615e-10
5.9938776e-10
5.9292361e-10
5.8663124e-10
5.8049931e-10
5.7451851e-10
5.6867998e-10
5.6297458e-10
5.5739381e-10
5.5193041e-10
5.4657788e-10
5.413297e-10
5.3617923e-10
5.3112037e-10
5.261483e-10
5.2125823e-10
5.16445e-10
5.1170366e-10
5.0702988e-10
5.0242003e-10
4.9787033e-10
4.9337667e-10
4.8893506e-10
4.8454234e-10
4.8019558e-10
4.7589155e-10
4.7162679e-10
4.6739794e-10
4.6320255e-10
4.590381e-10
4.5490155e-10
4.5078981e-10
4.467001e-10
4.4263018e-10
4.3857762e-10
4.3453941e-10
4.3051247e-10
4.2649455e-10
4.2248338e-10
4.1847597e-10
4.1446918e-10
4.1046021e-10
4.0644664e-10
4.0242555e-10
3.9839346e-10
3.9434719e-10
3.9028398e-10
3.8620041e-10
3.8209239e-10
3.779563e-10
3.7378862e-10
3.6958492e-10
3.6533998e-10
3.6105058e-10
3.5680464e-10
3.5273502e-10
3.4887756e-10
3.4521473e-10
3.4173016e-10
3.384091e-10
3.3523896e-10
3.3220844e-10
3.2930679e-10
3.2652422e-10
3.2385254e-10
3.2128428e-10
3.1881227e-10
3.1642975e-10
3.1413009e-10
3.1190814e-10
3.0975644e-10
3.0767349e-10
3.0563547e-10
3.0367438e-10
3.0164472e-10
2.9988503e-10
2.9695923e-10
1.4725899e-06
1.4726164e-06
1.4727441e-06
1.4730397e-06
1.4734873e-06
1.4740603e-06
1.4747339e-06
1.475487e-06
1.4763019e-06
1.4771638e-06
1.4780606e-06
1.4789826e-06
1.4799225e-06
1.4808751e-06
1.4818376e-06
1.4828087e-06
1.4837904e-06
1.4847861e-06
1.4858009e-06
1.4868569e-06
1.4879036e-06
1.4892188e-06
1.4896641e-06
1.4887629e-06
6.0701593e-09
3.2966039e-09
2.7539211e-09
2.5551359e-09
2.4321529e-09
2.3321844e-09
2.2456555e-09
2.1694484e-09
2.1015809e-09
2.0405093e-09
1.9850789e-09
1.9344283e-09
1.8878844e-09
1.8449012e-09
1.8050289e-09
1.7678957e-09
1.7331897e-09
1.7006463e-09
1.6700361e-09
1.6411617e-09
1.6138526e-09
1.5879588e-09
1.5633517e-09
1.5399172e-09
1.5175522e-09
1.4961685e-09
1.4756863e-09
1.4560323e-09
1.4371423e-09
1.41896e-09
1.401432e-09
1.3845095e-09
1.3681511e-09
1.3523184e-09
1.3369742e-09
1.3220848e-09
1.3076217e-09
1.2935582e-09
1.2798675e-09
1.2665249e-09
1.2535102e-09
1.2408042e-09
1.2283871e-09
1.2162406e-09
1.2043488e-09
1.1926976e-09
1.1812729e-09
1.1700603e-09
1.1590466e-09
1.1482212e-09
1.1375738e-09
1.1270933e-09
1.1167688e-09
1.106591e-09
1.0965519e-09
1.0866433e-09
1.0768564e-09
1.0671824e-09
1.0576146e-09
1.0481464e-09
1.0387709e-09
1.0294806e-09
1.0202682e-09
1.0111284e-09
1.0020555e-09
9.9304318e-10
9.8408457e-10
9.7517364e-10
9.6630546e-10
9.5747481e-10
9.4867513e-10
9.3989971e-10
9.3114365e-10
9.2240196e-10
9.136682e-10
9.0493548e-10
8.9619772e-10
8.8744962e-10
8.7868485e-10
8.6989583e-10
8.6107558e-10
8.522181e-10
8.4331594e-10
8.343602e-10
8.2534294e-10
8.162565e-10
8.0709122e-10
7.9783574e-10
7.8848297e-10
7.7922463e-10
7.7035047e-10
7.6193867e-10
7.5395107e-10
7.4635199e-10
7.391093e-10
7.3219555e-10
7.2558614e-10
7.1925763e-10
7.1318873e-10
7.0736154e-10
7.017598e-10
6.9636791e-10
6.9117111e-10
6.86155e-10
6.813083e-10
6.7661479e-10
6.7207119e-10
6.6762582e-10
6.6334795e-10
6.5892201e-10
6.5508353e-10
6.4870022e-10
1.4725892e-06
1.4726155e-06
1.4727427e-06
1.4730375e-06
1.4734841e-06
1.4740562e-06
1.4747288e-06
1.4754809e-06
1.4762948e-06
1.4771556e-06
1.4780513e-06
1.4789722e-06
1.4799109e-06
1.4808623e-06
1.4818233e-06
1.482793e-06
1.4837731e-06
1.4847671e-06
1.4857798e-06
1.4868337e-06
1.4878781e-06
1.4891888e-06
1.4896332e-06
1.4887354e-06
1.0637345e-08
6.4711e-09
5.4918703e-09
5.1083446e-09
4.8685655e-09
4.6730339e-09
4.5031048e-09
4.3528882e-09
4.218709e-09
4.0976936e-09
3.9876672e-09
3.886991e-09
3.7943733e-09
3.7087595e-09
3.6292778e-09
3.5552052e-09
3.485933e-09
3.4209426e-09
3.3597844e-09
3.3020703e-09
3.2474642e-09
3.1956704e-09
3.1464352e-09
3.0995329e-09
3.0547596e-09
3.0119403e-09
2.9709174e-09
2.931545e-09
2.893696e-09
2.8572582e-09
2.8221258e-09
2.7882018e-09
2.7554034e-09
2.7236547e-09
2.6928814e-09
2.6630166e-09
2.6340032e-09
2.6057882e-09
2.578318e-09
2.5515437e-09
2.5254245e-09
2.4999222e-09
2.4749977e-09
2.4506141e-09
2.4267397e-09
2.4033462e-09
2.3804057e-09
2.3578895e-09
2.3357709e-09
2.3140289e-09
2.2926428e-09
2.2715903e-09
2.25085e-09
2.2304028e-09
2.210233e-09
2.1903242e-09
2.1706586e-09
2.1512189e-09
2.1319911e-09
2.1129626e-09
2.0941192e-09
2.075446e-09
2.0569284e-09
2.0385555e-09
2.0203163e-09
2.0021978e-09
1.9841864e-09
1.9662699e-09
1.9484384e-09
1.9306814e-09
1.9129858e-09
1.8953382e-09
1.8777286e-09
1.8601469e-09
1.8425804e-09
1.8250151e-09
1.8074388e-09
1.7898408e-09
1.7722084e-09
1.7545264e-09
1.7367807e-09
1.7189592e-09
1.7010469e-09
1.6830259e-09
1.6648803e-09
1.6465945e-09
1.6281491e-09
1.6095213e-09
1.5906968e-09
1.5720613e-09
1.5541982e-09
1.5372651e-09
1.5211852e-09
1.5058868e-09
1.4913053e-09
1.4773855e-09
1.4640779e-09
1.4513355e-09
1.4391155e-09
1.4273817e-09
1.4161016e-09
1.4052438e-09
1.3947785e-09
1.3846769e-09
1.3749162e-09
1.365464e-09
1.3563134e-09
1.347361e-09
1.3387452e-09
1.3298346e-09
1.322104e-09
1.3092451e-09
1.4725883e-06
1.4726144e-06
1.4727409e-06
1.4730348e-06
1.4734802e-06
1.4740511e-06
1.4747225e-06
1.4754734e-06
1.476286e-06
1.4771457e-06
1.47804e-06
1.4789595e-06
1.4798967e-06
1.4808465e-06
1.4818059e-06
1.4827738e-06
1.4837519e-06
1.4847437e-06
1.4857541e-06
1.4868052e-06
1.4878468e-06
1.4891521e-06
1.4895954e-06
1.4887022e-06
1.7386346e-08
1.186242e-08
1.0291639e-08
9.6133263e-09
9.1799677e-09
8.824116e-09
8.5127735e-09
8.235956e-09
7.9875708e-09
7.7627899e-09
7.5578889e-09
7.3700149e-09
7.1968871e-09
7.0366247e-09
6.8876629e-09
6.7486965e-09
6.618621e-09
6.4964906e-09
6.3814828e-09
6.2728848e-09
6.1700785e-09
6.0725187e-09
5.9797362e-09
5.8913137e-09
5.8068734e-09
5.7260898e-09
5.6486704e-09
5.5743442e-09
5.5028737e-09
5.4340498e-09
5.3676758e-09
5.3035703e-09
5.2415782e-09
5.1815576e-09
5.1233704e-09
5.0668906e-09
5.0120111e-09
4.9586327e-09
4.9066556e-09
4.8559876e-09
4.8065519e-09
4.758277e-09
4.7110896e-09
4.6649204e-09
4.6197096e-09
4.5754042e-09
4.5319516e-09
4.4892978e-09
4.4473931e-09
4.4061971e-09
4.3656711e-09
4.3257735e-09
4.2864637e-09
4.247706e-09
4.2094701e-09
4.1717256e-09
4.134439e-09
4.0975776e-09
4.0611148e-09
4.0250266e-09
3.9892868e-09
3.9538669e-09
3.9187394e-09
3.8838836e-09
3.8492786e-09
3.8149e-09
3.7807221e-09
3.7467218e-09
3.7128801e-09
3.6791775e-09
3.645589e-09
3.6120891e-09
3.5786589e-09
3.5452793e-09
3.5119262e-09
3.4785731e-09
3.4451967e-09
3.4117768e-09
3.3782891e-09
3.344705e-09
3.3109975e-09
3.2771436e-09
3.2431149e-09
3.2088774e-09
3.1744005e-09
3.1396548e-09
3.1046036e-09
3.0692031e-09
3.0334261e-09
2.9980057e-09
2.9640512e-09
2.9318623e-09
2.9012932e-09
2.8722082e-09
2.8444845e-09
2.8180175e-09
2.7927133e-09
2.7684825e-09
2.7452439e-09
2.7229292e-09
2.7014762e-09
2.6808254e-09
2.6609206e-09
2.6417067e-09
2.6231407e-09
2.6051608e-09
2.5877543e-09
2.5707255e-09
2.5543355e-09
2.5373911e-09
2.5226854e-09
2.4982168e-09
1.4725872e-06
1.4726132e-06
1.4727389e-06
1.4730315e-06
1.4734755e-06
1.4740449e-06
1.4747149e-06
1.4754643e-06
1.4762755e-06
1.4771336e-06
1.4780264e-06
1.4789441e-06
1.4798796e-06
1.4808275e-06
1.4817848e-06
1.4827505e-06
1.4837262e-06
1.4847154e-06
1.485723e-06
1.4867708e-06
1.4878091e-06
1.4891078e-06
1.4895497e-06
1.4886636e-06
2.6867492e-08
2.0518556e-08
1.8343192e-08
1.7249914e-08
1.652189e-08
1.5915737e-08
1.5379386e-08
1.4898151e-08
1.4463321e-08
1.406775e-08
1.3705724e-08
1.3372736e-08
1.3065098e-08
1.2779711e-08
1.2513969e-08
1.2265678e-08
1.2032965e-08
1.1814212e-08
1.1608007e-08
1.1413117e-08
1.122847e-08
1.1053119e-08
1.0886244e-08
1.0727114e-08
1.0575068e-08
1.0429532e-08
1.0289991e-08
1.0155968e-08
1.0027043e-08
9.902844e-09
9.7830245e-09
9.6672625e-09
9.5552814e-09
9.4468297e-09
9.3416619e-09
9.2395537e-09
9.1403134e-09
9.0437644e-09
8.9497291e-09
8.8580425e-09
8.768567e-09
8.6811747e-09
8.5957352e-09
8.5121242e-09
8.4302342e-09
8.34997e-09
8.2712376e-09
8.1939409e-09
8.1179897e-09
8.0433117e-09
7.9698372e-09
7.897492e-09
7.826203e-09
7.7559056e-09
7.6865453e-09
7.6180675e-09
7.5504124e-09
7.4835203e-09
7.4173437e-09
7.3518389e-09
7.2869589e-09
7.2226526e-09
7.1588701e-09
7.0955735e-09
7.0327255e-09
6.9702819e-09
6.9081966e-09
6.8464272e-09
6.7849396e-09
6.723698e-09
6.6626579e-09
6.6017727e-09
6.5410078e-09
6.4803289e-09
6.419692e-09
6.3590494e-09
6.2983583e-09
6.2375819e-09
6.1766765e-09
6.1155896e-09
6.0542724e-09
5.9926826e-09
5.9307689e-09
5.8684691e-09
5.8057275e-09
5.7424904e-09
5.6786909e-09
5.6142493e-09
5.5491154e-09
5.4846243e-09
5.4227961e-09
5.3641773e-09
5.3085036e-09
5.2555281e-09
5.2050284e-09
5.1568138e-09
5.1107141e-09
5.0665671e-09
5.024225e-09
4.9835634e-09
4.9444697e-09
4.9068358e-09
4.8705594e-09
4.8355405e-09
4.8017006e-09
4.7689279e-09
4.7371987e-09
4.7061591e-09
4.6762807e-09
4.6454044e-09
4.6185977e-09
4.5739759e-09
1.472586e-06
1.4726116e-06
1.4727365e-06
1.4730276e-06
1.4734699e-06
1.4740376e-06
1.4747059e-06
1.4754535e-06
1.4762629e-06
1.4771191e-06
1.47801e-06
1.4789257e-06
1.479859e-06
1.4808046e-06
1.4817595e-06
1.4827226e-06
1.4836955e-06
1.4846816e-06
1.4856857e-06
1.4867298e-06
1.487764e-06
1.4890549e-06
1.4894952e-06
1.4886199e-06
3.9606165e-08
3.3670959e-08
3.1285628e-08
2.9723605e-08
2.8599043e-08
2.763743e-08
2.6770075e-08
2.5980354e-08
2.5258905e-08
2.4597197e-08
2.3987818e-08
2.3424576e-08
2.2902146e-08
2.2415909e-08
2.1961893e-08
2.1536698e-08
2.1137376e-08
2.0761352e-08
2.0406349e-08
2.0070369e-08
1.975166e-08
1.9448666e-08
1.9160031e-08
1.8884547e-08
1.8621112e-08
1.8368767e-08
1.812665e-08
1.7893959e-08
1.7669986e-08
1.7454105e-08
1.724573e-08
1.7044316e-08
1.684939e-08
1.6660528e-08
1.6477312e-08
1.6299359e-08
1.6126341e-08
1.5957957e-08
1.5793904e-08
1.56339e-08
1.5477707e-08
1.5325107e-08
1.5175877e-08
1.5029802e-08
1.4886698e-08
1.4746401e-08
1.4608748e-08
1.4473576e-08
1.4340727e-08
1.4210078e-08
1.4081506e-08
1.3954886e-08
1.3830091e-08
1.3707008e-08
1.3585543e-08
1.3465601e-08
1.334708e-08
1.3229876e-08
1.3113905e-08
1.2999092e-08
1.2885356e-08
1.2772608e-08
1.2660761e-08
1.2549748e-08
1.2439505e-08
1.2329955e-08
1.2221018e-08
1.2112619e-08
1.2004699e-08
1.1897195e-08
1.179003e-08
1.1683122e-08
1.157641e-08
1.1469833e-08
1.1363316e-08
1.1256775e-08
1.1150134e-08
1.1043328e-08
1.0936281e-08
1.08289e-08
1.07211e-08
1.0612806e-08
1.0503927e-08
1.0394355e-08
1.0283991e-08
1.0172739e-08
1.0060483e-08
9.9470812e-09
9.8324449e-09
9.7189237e-09
9.6100754e-09
9.5068639e-09
9.4088257e-09
9.3155283e-09
9.226581e-09
9.1416497e-09
9.0604355e-09
8.982654e-09
8.9080457e-09
8.8363922e-09
8.7674957e-09
8.7011666e-09
8.6372251e-09
8.5754959e-09
8.5158407e-09
8.4580635e-09
8.4021225e-09
8.3473987e-09
8.2947149e-09
8.2402957e-09
8.1930313e-09
8.1143134e-09
1.4725844e-06
1.4726098e-06
1.4727336e-06
1.4730229e-06
1.4734633e-06
1.474029e-06
1.4746951e-06
1.4754407e-06
1.4762479e-06
1.477102e-06
1.4779905e-06
1.4789039e-06
1.4798346e-06
1.4807775e-06
1.4817295e-06
1.4826895e-06
1.483659e-06
1.4846415e-06
1.4856416e-06
1.4866811e-06
1.4877105e-06
1.4889923e-06
1.4894307e-06
1.4885721e-06
5.6025894e-08
5.2589493e-08
5.1168807e-08
4.9327415e-08
4.7778525e-08
4.6384053e-08
4.5083598e-08
4.3870603e-08
4.2742732e-08
4.1694656e-08
4.071988e-08
3.9811927e-08
3.8964514e-08
3.8171751e-08
3.7428339e-08
3.6729587e-08
3.6071312e-08
3.5449767e-08
3.486158e-08
3.4303745e-08
3.3773603e-08
3.3268764e-08
3.2787129e-08
3.2326817e-08
3.1886099e-08
3.1463455e-08
3.1057522e-08
3.0667025e-08
3.0290825e-08
2.9927919e-08
2.9577366e-08
2.9238283e-08
2.8909904e-08
2.8591538e-08
2.8282511e-08
2.7982195e-08
2.7690051e-08
2.7405589e-08
2.7128315e-08
2.6857763e-08
2.6593539e-08
2.6335286e-08
2.6082637e-08
2.5835239e-08
2.5592783e-08
2.5354997e-08
2.5121617e-08
2.4892368e-08
2.466699e-08
2.4445274e-08
2.422702e-08
2.4012018e-08
2.3800057e-08
2.3590947e-08
2.3384531e-08
2.3180652e-08
2.2979137e-08
2.2779814e-08
2.2582541e-08
2.2387191e-08
2.2193629e-08
2.2001706e-08
2.1811276e-08
2.1622224e-08
2.1434442e-08
2.1247803e-08
2.1062169e-08
2.0877415e-08
2.0693439e-08
2.0510136e-08
2.0327374e-08
2.0145016e-08
1.9962957e-08
1.9781094e-08
1.9599298e-08
1.9417426e-08
1.9235349e-08
1.9052955e-08
1.8870116e-08
1.8686674e-08
1.850248e-08
1.8317407e-08
1.81313e-08
1.7943973e-08
1.7755256e-08
1.7564986e-08
1.7372961e-08
1.7178941e-08
1.698277e-08
1.6788469e-08
1.6602132e-08
1.6425414e-08
1.6257524e-08
1.6097728e-08
1.594536e-08
1.579985e-08
1.5660689e-08
1.5527393e-08
1.5399518e-08
1.5276693e-08
1.515858e-08
1.5044857e-08
1.4935215e-08
1.4829356e-08
1.4727045e-08
1.4627946e-08
1.4531988e-08
1.4438118e-08
1.4347734e-08
1.4254415e-08
1.4173335e-08
1.4038203e-08
1.4725827e-06
1.4726077e-06
1.4727302e-06
1.4730175e-06
1.4734555e-06
1.4740188e-06
1.4746825e-06
1.4754256e-06
1.4762303e-06
1.4770817e-06
1.4779675e-06
1.478878e-06
1.4798058e-06
1.4807455e-06
1.4816941e-06
1.4826504e-06
1.483616e-06
1.4845942e-06
1.4855895e-06
1.4866237e-06
1.4876476e-06
1.4889187e-06
1.4893552e-06
1.4885216e-06
7.6361993e-08
7.8360554e-08
8.0236723e-08
7.8836443e-08
7.7066994e-08
7.529336e-08
7.3535264e-08
7.1826585e-08
7.0190992e-08
6.8638623e-08
6.7171738e-08
6.5788512e-08
6.4484735e-08
6.3255132e-08
6.2094273e-08
6.0996931e-08
5.995812e-08
5.8973136e-08
5.8037583e-08
5.7147428e-08
5.6299029e-08
5.5489052e-08
5.471452e-08
5.3972738e-08
5.3261193e-08
5.2577651e-08
5.1920099e-08
5.1286637e-08
5.0675551e-08
5.0085325e-08
4.9514535e-08
4.896183e-08
4.8426034e-08
4.7906085e-08
4.7400945e-08
4.6909637e-08
4.643132e-08
4.5965233e-08
4.5510605e-08
4.5066703e-08
4.4632905e-08
4.420865e-08
4.3793362e-08
4.3386481e-08
4.2987514e-08
4.259603e-08
4.2211609e-08
4.1833816e-08
4.1462234e-08
4.1096525e-08
4.0736373e-08
4.0381441e-08
4.0031389e-08
3.9685913e-08
3.9344756e-08
3.9007667e-08
3.867437e-08
3.8344583e-08
3.8018076e-08
3.7694642e-08
3.7374064e-08
3.7056101e-08
3.6740511e-08
3.6427108e-08
3.6115717e-08
3.5806127e-08
3.5498117e-08
3.5191478e-08
3.4886041e-08
3.4581636e-08
3.4278048e-08
3.3975047e-08
3.3672458e-08
3.3370114e-08
3.3067801e-08
3.2765282e-08
3.2462342e-08
3.2158795e-08
3.1854427e-08
3.1548975e-08
3.1242193e-08
3.0933865e-08
3.0623736e-08
3.0311493e-08
2.999685e-08
2.9679535e-08
2.935921e-08
2.9035471e-08
2.8708057e-08
2.8383678e-08
2.8072514e-08
2.7777341e-08
2.7496851e-08
2.7229824e-08
2.6975156e-08
2.6731902e-08
2.6499218e-08
2.62763e-08
2.6062414e-08
2.5856938e-08
2.5659314e-08
2.5469005e-08
2.5285501e-08
2.5108305e-08
2.4937023e-08
2.4771101e-08
2.4610418e-08
2.445323e-08
2.4301849e-08
2.4145627e-08
2.4009842e-08
2.3783334e-08
1.4725806e-06
1.4726052e-06
1.4727263e-06
1.4730112e-06
1.4734465e-06
1.4740069e-06
1.4746677e-06
1.4754079e-06
1.4762096e-06
1.4770579e-06
1.4779406e-06
1.4788477e-06
1.4797719e-06
1.4807079e-06
1.4816525e-06
1.4826046e-06
1.4835655e-06
1.4845388e-06
1.4855285e-06
1.4865565e-06
1.487574e-06
1.4888325e-06
1.4892679e-06
1.4884704e-06
1.0058006e-07
1.1162596e-07
1.2053674e-07
1.2114768e-07
1.1982507e-07
1.1802949e-07
1.1600415e-07
1.1388056e-07
1.1174362e-07
1.0964301e-07
1.0760632e-07
1.0564767e-07
1.037725e-07
1.0198139e-07
1.0027247e-07
9.8642659e-08
9.7088076e-08
9.5604388e-08
9.4187107e-08
9.2831823e-08
9.1534367e-08
9.0290762e-08
8.9097346e-08
8.7950728e-08
8.684766e-08
8.5785196e-08
8.4760654e-08
8.3771459e-08
8.2815248e-08
8.1889925e-08
8.09935e-08
8.0124063e-08
7.9279931e-08
7.8459591e-08
7.7661551e-08
7.6884386e-08
7.6126867e-08
7.5387881e-08
7.4666302e-08
7.3961038e-08
7.327116e-08
7.2595837e-08
7.1934214e-08
7.1285446e-08
7.0648788e-08
7.0023589e-08
6.9409217e-08
6.8805015e-08
6.8210344e-08
6.7624682e-08
6.7047551e-08
6.6478438e-08
6.5916821e-08
6.5362224e-08
6.4814252e-08
6.427252e-08
6.3736601e-08
6.3206055e-08
6.2680519e-08
6.2159674e-08
6.1643181e-08
6.1130663e-08
6.0621738e-08
6.0116112e-08
5.9613506e-08
5.9113595e-08
5.8616023e-08
5.812046e-08
5.7626633e-08
5.7134274e-08
5.6643041e-08
5.6152565e-08
5.5662563e-08
5.5172766e-08
5.4682831e-08
5.4192378e-08
5.3701055e-08
5.3208562e-08
5.2714552e-08
5.2218602e-08
5.1720306e-08
5.1219313e-08
5.0715208e-08
5.0207481e-08
4.9695664e-08
4.9179307e-08
4.8657862e-08
4.8130664e-08
4.759728e-08
4.7068643e-08
4.6561361e-08
4.6079984e-08
4.5622405e-08
4.5186655e-08
4.4770954e-08
4.4373774e-08
4.3993751e-08
4.3629587e-08
4.3280094e-08
4.2944266e-08
4.26212e-08
4.2310026e-08
4.2009919e-08
4.1720073e-08
4.1439849e-08
4.116835e-08
4.0905379e-08
4.0648115e-08
4.0400293e-08
4.0144674e-08
3.9922404e-08
3.9551218e-08
1.4725782e-06
1.4726023e-06
1.4727217e-06
1.4730039e-06
1.473436e-06
1.473993e-06
1.4746505e-06
1.4753872e-06
1.4761854e-06
1.4770301e-06
1.477909e-06
1.4788123e-06
1.4797323e-06
1.4806639e-06
1.4816039e-06
1.482551e-06
1.4835066e-06
1.484474e-06
1.4854573e-06
1.4864781e-06
1.4874881e-06
1.4887321e-06
1.48917e-06
1.4884209e-06
1.2831454e-07
1.5234949e-07
1.7345052e-07
1.7871308e-07
1.7919669e-07
1.7823332e-07
1.7651895e-07
1.7436979e-07
1.7198341e-07
1.6948566e-07
1.6695628e-07
1.6444464e-07
1.6197971e-07
1.5957796e-07
1.5724874e-07
1.5499691e-07
1.5282411e-07
1.5072973e-07
1.4871176e-07
1.4676739e-07
1.4489348e-07
1.4308662e-07
1.4134339e-07
1.3966045e-07
1.3803436e-07
1.3646189e-07
1.3494003e-07
1.3346578e-07
1.3203631e-07
1.3064907e-07
1.2930162e-07
1.2799153e-07
1.2671666e-07
1.2547505e-07
1.2426478e-07
1.2308394e-07
1.219309e-07
1.2080416e-07
1.1970223e-07
1.1862358e-07
1.1756694e-07
1.1653118e-07
1.1551511e-07
1.1451754e-07
1.1353742e-07
1.1257385e-07
1.1162591e-07
1.106927e-07
1.0977327e-07
1.0886688e-07
1.0797285e-07
1.0709044e-07
1.0621888e-07
1.0535749e-07
1.0450567e-07
1.0366287e-07
1.0282846e-07
1.020018e-07
1.0118233e-07
1.0036958e-07
9.9563048e-08
9.8762176e-08
9.7966382e-08
9.7175217e-08
9.6388265e-08
9.5605034e-08
9.4824982e-08
9.4047599e-08
9.3272467e-08
9.2499175e-08
9.1727199e-08
9.0955968e-08
9.0185034e-08
8.9413982e-08
8.8642282e-08
8.7869335e-08
8.7094589e-08
8.6317569e-08
8.553773e-08
8.4754407e-08
8.3966954e-08
8.3174811e-08
8.237732e-08
8.157367e-08
8.0763111e-08
7.9944925e-08
7.9118232e-08
7.8281972e-08
7.743544e-08
7.6595988e-08
7.5790029e-08
7.5024852e-08
7.4297162e-08
7.3603884e-08
7.2942227e-08
7.2309795e-08
7.1704453e-08
7.1124165e-08
7.0567062e-08
7.0031566e-08
6.9516254e-08
6.9019762e-08
6.8540791e-08
6.8078068e-08
6.7630588e-08
6.7196936e-08
6.6776804e-08
6.6365744e-08
6.5969641e-08
6.5561279e-08
6.5206036e-08
6.4611975e-08
1.4725753e-06
1.472599e-06
1.4727165e-06
1.4729955e-06
1.4734238e-06
1.4739769e-06
1.4746305e-06
1.4753632e-06
1.4761573e-06
1.4769978e-06
1.4778723e-06
1.4787709e-06
1.4796862e-06
1.4806127e-06
1.4815472e-06
1.4824885e-06
1.4834379e-06
1.4843986e-06
1.4853746e-06
1.486387e-06
1.4873885e-06
1.4886158e-06
1.4890617e-06
1.4883713e-06
1.5883824e-07
1.9969046e-07
2.3926868e-07
2.5295292e-07
2.5742244e-07
2.5876961e-07
2.5846381e-07
2.5712274e-07
2.5512006e-07
2.5270299e-07
2.5003804e-07
2.4723608e-07
2.443692e-07
2.414847e-07
2.3861486e-07
2.3578186e-07
2.330003e-07
2.3027919e-07
2.2762373e-07
2.2503656e-07
2.2251866e-07
2.2006976e-07
2.1768876e-07
2.1537409e-07
2.1312355e-07
2.1093476e-07
2.0880536e-07
2.067327e-07
2.0471414e-07
2.0274723e-07
2.0082953e-07
1.9895847e-07
1.9713172e-07
1.9534719e-07
1.936027e-07
1.9189604e-07
1.902253e-07
1.8858875e-07
1.8698457e-07
1.8541092e-07
1.8386621e-07
1.8234903e-07
1.8085794e-07
1.793914e-07
1.7794805e-07
1.7652673e-07
1.7512629e-07