/*--------------------------------*- C++ -*----------------------------------*\
  =========                 |
  \\      /  F ield         | OpenFOAM: The Open Source CFD Toolbox
   \\    /   O peration     | Website:  https://openfoam.org
    \\  /    A nd           | Version:  12
     \\/     M anipulation  |
\*---------------------------------------------------------------------------*/
FoamFile
{
    format      ascii;
    class       volScalarField;
    location    "1700";
    object      p;
}
// * * * * * * * * * * * * * * * * * * * * * * * * * * * * * * * * * * * * * //

dimensions      [0 2 -2 0 0 0 0];

internalField   nonuniform List<scalar> 
7480
(
0.0087170914
0.0081282905
0.0070201839
0.0064119904
0.0061121919
0.0058667411
0.0056062714
0.0053526988
0.0051126096
0.0048747072
0.0046318775
0.0043831873
0.0041396254
0.003920954
0.0037506484
0.0036402289
0.0035854296
0.0035498772
0.0035291274
0.0035138451
0.0035020599
0.0034933583
0.0034814585
0.0034550562
0.0034162464
0.0033733473
0.0033305558
0.0032902807
0.0032498786
0.0032100045
0.0031715813
0.0031345991
0.0030996238
0.0030646748
0.0030263894
0.0029852818
0.0029431149
0.0029014493
0.0028616372
0.0028235407
0.0027864815
0.0027504544
0.0027155136
0.0026816018
0.0026483186
0.0026150728
0.0025814104
0.0025476647
0.0025139335
0.0024788923
0.0024411475
0.0024032412
0.0023676195
0.0023346196
0.0023020407
0.0022684807
0.0022331528
0.0021953599
0.002156185
0.0021170023
0.0020777885
0.0020380821
0.0019979592
0.0019574729
0.0019163961
0.0018747542
0.0018326839
0.0017901085
0.0017469939
0.0017033994
0.0016592032
0.0016143627
0.0015689364
0.001522805
0.001475976
0.00142846
0.0013801189
0.0013309907
0.0012810452
0.0012301032
0.0011783747
0.0011255256
0.0010712376
0.0010158438
0.00095826828
0.00089060839
0.00081686447
0.00076201281
0.00070787044
0.00065015968
0.00059209501
0.00053549621
0.00048021615
0.00042550775
0.00037321258
0.00032032174
0.00028390928
0.00022600713
0.00038489923
-0.00027975428
0.0082807133
0.0076994621
0.0068348826
0.0063081387
0.0060393361
0.0058145094
0.0055723215
0.0053354435
0.0051150037
0.0049027071
0.0046924931
0.0044828864
0.0042820996
0.0041015583
0.003951583
0.0038378345
0.0037547117
0.003699944
0.0036588255
0.0036254294
0.003593578
0.0035600613
0.0035208127
0.0034757407
0.0034287371
0.0033816527
0.0033376015
0.0032968955
0.0032569616
0.0032178337
0.0031800061
0.0031433702
0.0031081206
0.0030724492
0.0030337687
0.0029927075
0.0029508376
0.0029095221
0.0028699202
0.0028317921
0.0027944934
0.0027581156
0.0027227779
0.0026884636
0.0026546979
0.002620889
0.00258668
0.0025522226
0.002517632
0.002481794
0.0024443541
0.0024072511
0.0023724359
0.0023394104
0.0023063116
0.0022722208
0.0022365453
0.0021985833
0.0021593153
0.0021200424
0.0020807366
0.0020409421
0.0020007369
0.0019601707
0.0019190132
0.0018772902
0.0018351377
0.0017924772
0.0017492755
0.0017055941
0.0016613122
0.0016163879
0.0015708798
0.0015246686
0.0014777621
0.0014301709
0.0013817587
0.0013325649
0.0012825577
0.001231557
0.0011797723
0.0011268687
0.0010725259
0.0010170681
0.00095925026
0.00089012461
0.00081948566
0.00076662938
0.00071216254
0.00065347835
0.0005947432
0.00053765698
0.00048199141
0.00042699085
0.0003744925
0.00032145252
0.00028492724
0.00022701762
0.00038595555
-0.0002789872
0.007989691
0.0075790551
0.0069020163
0.0063869642
0.0060969416
0.0058590989
0.0056106671
0.0053669451
0.0051393363
0.0049197051
0.0047017389
0.0044826293
0.0042705048
0.0040762581
0.0039118472
0.0037859381
0.0036993157
0.0036493956
0.0036196316
0.0035972497
0.0035746298
0.0035485247
0.0035177326
0.0034842991
0.0034478333
0.0034081296
0.0033670524
0.0033253648
0.0032834887
0.0032417879
0.0032007934
0.0031605491
0.0031216934
0.0030833687
0.0030433135
0.0030016392
0.0029595054
0.0029180932
0.0028784586
0.0028402731
0.0028028406
0.0027662703
0.0027306926
0.002696112
0.0026619574
0.0026276412
0.0025929336
0.0025580409
0.002522989
0.0024868369
0.0024494186
0.0024121638
0.0023769734
0.0023434882
0.0023100532
0.002275781
0.0022400147
0.0022020254
0.0021627364
0.0021234106
0.0020840227
0.0020441288
0.0020038197
0.0019631486
0.0019218872
0.0018800665
0.0018378208
0.0017950673
0.001751773
0.0017080012
0.001663631
0.0016186213
0.0015730308
0.0015267396
0.0014797559
0.0014320902
0.0013836052
0.0013343401
0.0012842635
0.0012331959
0.0011813478
0.0011283832
0.0010739836
0.0010184834
0.00096052681
0.00089094523
0.00082372282
0.00077107964
0.00071614512
0.00065693332
0.00059775204
0.00054024388
0.00048420036
0.00042889482
0.00037615871
0.00032291352
0.00028623146
0.00022831978
0.0003871725
-0.00027802668
0.0077640092
0.0074468282
0.0068507665
0.0063462862
0.0060458378
0.0058103988
0.0055700557
0.0053330286
0.0051112203
0.0048983646
0.0046882853
0.0044785696
0.0042771024
0.0040939589
0.0039400841
0.0038227497
0.003741837
0.0036919894
0.0036580119
0.0036280986
0.003597245
0.0035640936
0.0035283418
0.0034909832
0.0034510623
0.0034093363
0.003366854
0.0033243078
0.003283451
0.0032441073
0.003206046
0.0031689409
0.0031321059
0.0030944099
0.0030546546
0.0030128346
0.0029699878
0.002927459
0.0028866869
0.0028476554
0.0028096858
0.0027727465
0.0027368819
0.0027021263
0.0026678451
0.0026333541
0.0025984096
0.0025633333
0.0025280053
0.002491554
0.0024538516
0.0024162479
0.0023806966
0.002346925
0.0023133127
0.0022789204
0.0022430719
0.0022050658
0.0021657796
0.0021264213
0.0020869662
0.002046992
0.0020066054
0.0019658561
0.0019245141
0.0018826192
0.0018403011
0.001797471
0.0017540982
0.0017102479
0.0016657992
0.001620712
0.0015750452
0.0015286784
0.0014816205
0.001433882
0.001385324
0.0013359855
0.0012858368
0.0012346987
0.0011827828
0.0011297522
0.001075292
0.0010197382
0.00096177105
0.00089337345
0.00082724623
0.00077408299
0.00071881979
0.00065937356
0.00059995023
0.00054219975
0.00048594526
0.00043045178
0.0003775431
0.0003241471
0.00028735133
0.00022932975
0.000388219
-0.00027721829
0.0075576202
0.0072962574
0.006781316
0.0063227417
0.0060321193
0.0058053654
0.0055737195
0.0053417001
0.0051224768
0.0049120555
0.0047049391
0.0044990986
0.0043013998
0.0041209289
0.0039671391
0.0038467117
0.0037598846
0.0037019128
0.0036606828
0.0036260198
0.0035930625
0.0035597263
0.0035247991
0.0034882052
0.0034491526
0.0034082648
0.00336631
0.0033241466
0.0032834449
0.003244012
0.0032058022
0.0031688838
0.0031320895
0.0030943585
0.003055439
0.0030152102
0.0029743818
0.0029338191
0.0028941186
0.0028553663
0.0028173663
0.0027799916
0.0027433763
0.0027078959
0.0026731201
0.002638317
0.0026031372
0.0025679005
0.0025324325
0.0024958293
0.0024579774
0.0024202357
0.0023845009
0.0023505042
0.0023166831
0.0022821121
0.0022461327
0.0022080781
0.0021687747
0.0021293694
0.0020898457
0.0020498001
0.0020093483
0.0019685293
0.0019271149
0.0018851582
0.0018427771
0.0017998759
0.0017564299
0.0017125064
0.0016679838
0.0016228227
0.0015770826
0.0015306421
0.0014835115
0.0014357011
0.0013870713
0.0013376623
0.0012874441
0.0012362372
0.0011842551
0.0011311591
0.0010766361
0.0010210195
0.00096305253
0.00089569393
0.00083021963
0.00077689987
0.00072144616
0.00066179738
0.00060214081
0.00054415936
0.00048770048
0.00043201627
0.00037893291
0.00032539518
0.00028848489
0.00023031763
0.00038923788
-0.00027632442
0.0073686534
0.0071507387
0.0067135068
0.0063004171
0.0060145609
0.0057877485
0.0055593707
0.0053301414
0.0051127134
0.0049052627
0.0047011347
0.0045005011
0.00430808
0.0041321176
0.0039812985
0.0038618294
0.003774266
0.0037143145
0.0036715374
0.0036361758
0.0036028087
0.0035689362
0.0035332748
0.0034957258
0.0034559109
0.0034143969
0.0033719228
0.003329374
0.0032881229
0.0032480929
0.0032092394
0.0031715009
0.0031337518
0.0030951909
0.0030557159
0.0030151877
0.0029743442
0.0029339741
0.0028943129
0.0028558141
0.0028187127
0.0027826757
0.0027474243
0.0027127206
0.0026781858
0.002643383
0.0026079256
0.0025722463
0.0025364039
0.0024995671
0.0024615942
0.0024238012
0.0023879725
0.0023538112
0.0023198209
0.0022851153
0.0022490444
0.0022109548
0.0021716346
0.0021321925
0.0020926208
0.0020525217
0.0020120194
0.0019711436
0.0019296699
0.0018876635
0.0018452301
0.0018022684
0.0017587596
0.001714773
0.0016701855
0.001624959
0.0015791533
0.0015326463
0.0014854493
0.0014375728
0.0013888765
0.0013394022
0.0012891191
0.0012378476
0.0011858033
0.0011326453
0.0010780615
0.0010223812
0.00096439405
0.00089773374
0.00083297801
0.00077978837
0.00072427546
0.0006644668
0.00060458001
0.00054634727
0.00048964748
0.00043374535
0.00038047242
0.0003267756
0.00028972494
0.00023139972
0.00039027514
-0.00027523501
0.0071961134
0.0070121813
0.0066408011
0.0062686281
0.0059899345
0.0057654416
0.0055438174
0.0053212519
0.0051085602
0.0049060519
0.0047059035
0.0045108194
0.0043236537
0.0041519758
0.0040038053
0.003884776
0.0037955782
0.0037322767
0.0036857736
0.0036470347
0.0036107042
0.0035744046
0.0035369927
0.0034982441
0.0034578074
0.0034160068
0.003373467
0.0033309672
0.0032896583
0.0032495892
0.003210675
0.0031727931
0.0031349914
0.0030965308
0.0030572056
0.0030168375
0.0029760476
0.0029355136
0.0028955268
0.0028566932
0.0028193088
0.0027831132
0.0027478092
0.0027129778
0.0026785657
0.0026444228
0.0026100601
0.002575244
0.002539761
0.0025031362
0.0024651794
0.0024272106
0.0023911051
0.0023566721
0.0023224778
0.0022876527
0.0022515391
0.0022134606
0.0021741594
0.0021347178
0.0020951341
0.0020550106
0.0020144841
0.001973578
0.0019320675
0.0018900273
0.0018475579
0.0018045536
0.0017609989
0.0017169647
0.0016723265
0.0016270476
0.0015811886
0.001534626
0.0014873729
0.0014394395
0.0013906851
0.0013411531
0.0012908117
0.0012394816
0.0011873808
0.0011341657
0.0010795253
0.001023784
0.00096576736
0.00089967539
0.00083563937
0.00078262519
0.000727118
0.00066720532
0.00060711912
0.00054864502
0.00049170208
0.00043557722
0.00038210809
0.00032824384
0.00029103587
0.00023254462
0.00039128507
-0.00027393534
0.0070379696
0.0068802131
0.0065637602
0.0062303354
0.005963032
0.0057428195
0.0055280666
0.0053118387
0.0051032986
0.00490395
0.0047080674
0.0045174208
0.0043347897
0.0041669629
0.0040212008
0.003902587
0.0038119213
0.0037456959
0.0036960285
0.0036547083
0.0036165144
0.0035790126
0.0035409543
0.0035018537
0.0034613039
0.0034194871
0.0033769722
0.0033344867
0.0032930461
0.0032527969
0.0032136371
0.0031754263
0.0031373485
0.0030986804
0.0030591834
0.0030187354
0.0029778925
0.0029373158
0.0028973506
0.0028585349
0.0028210861
0.0027847213
0.0027491072
0.002713886
0.0026791237
0.0026447316
0.0026103136
0.0025753923
0.0025398408
0.0025036351
0.0024665495
0.0024294112
0.0023936777
0.0023593257
0.0023250193
0.0022899694
0.0022536881
0.0022155579
0.0021762531
0.0021368199
0.0020972552
0.0020571428
0.002016628
0.0019757274
0.0019342105
0.0018921616
0.0018496798
0.0018066553
0.0017630753
0.0017190129
0.0016743416
0.0016290267
0.0015831297
0.0015365255
0.0014892291
0.0014412509
0.0013924492
0.0013428692
0.0012924785
0.0012410977
0.0011889478
0.0011356821
0.0010809909
0.001025193
0.00096714778
0.00090159359
0.0008382208
0.00078535136
0.00072987528
0.00066990054
0.00060964846
0.00055095552
0.00049378399
0.00043744497
0.00038378257
0.00032975253
0.00029237893
0.0002337142
0.00039221922
-0.00027241128
0.0068922895
0.0067549126
0.0064843029
0.0061870582
0.0059334694
0.0057183044
0.0055099632
0.0053001823
0.0050963153
0.0049008446
0.0047098129
0.0045239262
0.0043461498
0.0041824831
0.0040394216
0.0039215742
0.0038298295
0.0037611098
0.0037085697
0.0036647662
0.0036246217
0.0035856198
0.0035464402
0.003506461
0.0034652893
0.0034230457
0.0033802466
0.0033375601
0.0032958699
0.0032553676
0.0032159395
0.0031774226
0.0031390973
0.0031002676
0.0030606856
0.0030202647
0.0029794873
0.002938974
0.0028990727
0.002860249
0.0028227128
0.0027862327
0.0027505063
0.0027152239
0.0026804079
0.002645915
0.002611312
0.0025761185
0.0025403061
0.0025039423
0.0024668755
0.0024297518
0.00239394
0.0023597467
0.0023259696
0.0022914263
0.0022554051
0.0022174549
0.0021781767
0.0021386621
0.0020990331
0.002058896
0.0020183871
0.0019775129
0.0019360186
0.0018939911
0.0018515271
0.0018085095
0.0017649293
0.0017208619
0.0016761786
0.001630847
0.0015849301
0.0015383008
0.0014909767
0.0014429679
0.0013941319
0.0013445161
0.0012940873
0.0012426656
0.0011904762
0.0011371683
0.0010824337
0.0010265856
0.00096851706
0.00090348495
0.00084072188
0.00078796798
0.00073253381
0.00067252501
0.00061213467
0.00055324542
0.00049586206
0.00043932056
0.00038547142
0.00033128083
0.00029373583
0.00023489054
0.00039304138
-0.00027063189
0.0067572881
0.0066361123
0.0064036585
0.006139386
0.005900815
0.005691759
0.0054899788
0.0052870924
0.0050885614
0.0048974286
0.0047111636
0.0045299673
0.0043568303
0.0041970848
0.0040565442
0.0039394107
0.0038466366
0.0037755569
0.0037202235
0.0036739254
0.0036317908
0.0035912644
0.0035509861
0.0035102375
0.0034686039
0.0034261236
0.0033832243
0.0033404972
0.0032987012
0.0032580517
0.003218437
0.003179678
0.0031411401
0.0031021693
0.0030625119
0.0030221023
0.002981359
0.0029408628
0.0029009654
0.0028620902
0.0028244519
0.0027878579
0.0027520199
0.0027166434
0.002681709
0.0026470747
0.0026123445
0.0025770857
0.002541261
0.0025048924
0.0024678073
0.0024305743
0.0023945263
0.0023600729
0.0023261541
0.0022914723
0.0022553875
0.0022177551
0.0021790468
0.0021399689
0.0021005419
0.0020604798
0.0020199327
0.0019790145
0.0019375042
0.0018954853
0.0018530489
0.0018100597
0.0017665049
0.0017224589
0.0016777881
0.0016324626
0.0015865468
0.0015399115
0.0014925775
0.0014445546
0.0013956994
0.0013460621
0.0012956081
0.0012441575
0.0011919401
0.0011386002
0.0010838314
0.0010279416
0.00096985691
0.00090533037
0.00084313608
0.00079047618
0.00073508954
0.00067506795
0.00061456321
0.00055549903
0.00049792078
0.00044118947
0.00038716162
0.000332817
0.00029509543
0.00023606241
0.00039371979
-0.00026855697
0.0066315278
0.0065235103
0.006322761
0.0060880685
0.00586522
0.0056634065
0.0054683975
0.0052725825
0.005079751
0.0048931958
0.0047116392
0.0045351739
0.0043666277
0.0042107747
0.0040728194
0.0039565849
0.0038630544
0.0037899464
0.0037320954
0.0036834791
0.0036394737
0.0035975068
0.0035561759
0.0035146775
0.0034725568
0.0034297786
0.0033866923
0.0033438249
0.003301836
0.0032609561
0.0032210848
0.0031820323
0.0031432364
0.0031040876
0.0030643259
0.003023899
0.0029831728
0.0029426878
0.0029027975
0.0028638886
0.0028261693
0.0027894735
0.002753525
0.0027180453
0.002682992
0.0026482324
0.0026133999
0.0025780851
0.0025422198
0.0025058151
0.0024687434
0.0024315505
0.0023954799
0.0023609115
0.0023268071
0.0022918893
0.0022555992
0.0022178835
0.0021791798
0.0021400701
0.0021007093
0.0020610252
0.0020208843
0.0019801971
0.0019388051
0.0018967914
0.0018543314
0.0018113311
0.0017677876
0.0017237692
0.001679128
0.0016338306
0.0015879386
0.0015413186
0.0014939947
0.0014459763
0.0013971188
0.0013474759
0.0012970114
0.0012455455
0.0011933131
0.0011399532
0.0010851611
0.00102924
0.00097114766
0.00090710993
0.0008454487
0.00079286419
0.00073752913
0.00067751379
0.0006169173
0.0005576997
0.0004999445
0.00044303749
0.00038884029
0.00033434941
0.00029644665
0.00023721816
0.00039422143
-0.00026614033
0.0065138461
0.0064167114
0.0062423201
0.0060338697
0.005826902
0.0056332839
0.0054452469
0.0052565739
0.0050697544
0.0048880843
0.0047113241
0.0045396632
0.0043756828
0.0042236805
0.0040883241
0.0039730894
0.0038789753
0.0038040581
0.0037438639
0.0036930142
0.0036471628
0.0036037458
0.003561325
0.003519034
0.0034763797
0.0034332674
0.0033899739
0.0033469622
0.0033048008
0.0032637186
0.0032236241
0.0031843184
0.0031452986
0.0031059988
0.0030661555
0.0030257252
0.0029850293
0.0029445677
0.0029046911
0.0028657533
0.0028279531
0.0027911505
0.002755086
0.0027194993
0.00268433
0.0026494482
0.0026145093
0.0025791232
0.0025432027
0.0025067614
0.0024697118
0.0024325612
0.0023964486
0.0023617404
0.0023274805
0.0022924633
0.0022561398
0.0022184239
0.0021796708
0.0021404288
0.0021009359
0.0020612113
0.0020210247
0.0019803229
0.0019391694
0.0018975149
0.0018553101
0.0018124282
0.001768903
0.0017248721
0.0016802257
0.0016349436
0.0015890805
0.00154249
0.0014951951
0.0014472007
0.0013983591
0.0013487282
0.0012982694
0.0012468029
0.00119457
0.0011412029
0.0010863997
0.0010304594
0.00097236913
0.00090880282
0.00084763902
0.00079511257
0.00073983338
0.00067984303
0.00061917745
0.00055982875
0.000501916
0.00044484909
0.00039049346
0.00033586547
0.00029777762
0.00023834561
0.00039448739
-0.00026333213
0.0064032744
0.0063152811
0.0061628549
0.0059774918
0.0057861174
0.0056014268
0.0054205959
0.0052391152
0.0050585687
0.0048820743
0.0047102019
0.0045433621
0.0043838992
0.0042356939
0.0041029449
0.003988814
0.0038943049
0.003817821
0.0037554991
0.0037025546
0.0036549365
0.0036101151
0.0035666254
0.0035235546
0.0034803718
0.0034369269
0.0033934256
0.0033502648
0.0033079307
0.0032666415
0.003226316
0.0031867519
0.0031474976
0.0031080317
0.0030680917
0.0030276391
0.0029869574
0.0029465063
0.0029066301
0.0028676543
0.0028297682
0.0027928556
0.0027566742
0.0027209792
0.0026856937
0.0026506883
0.0026156396
0.002580179
0.0025442066
0.0025077353
0.0024707068
0.0024335886
0.0023974258
0.0023625801
0.0023281768
0.0022930654
0.0022566919
0.0022189617
0.0021802098
0.0021409704
0.0021014787
0.0020617106
0.0020214156
0.0019805861
0.0019393667
0.0018976789
0.0018554542
0.0018127306
0.0017695054
0.0017257057
0.0016811657
0.0016359039
0.0015900368
0.0015434482
0.0014961725
0.0014482086
0.0013993956
0.0013497926
0.0012993564
0.0012479049
0.0011956869
0.0011423267
0.0010875254
0.0010315792
0.00097350148
0.0009103877
0.00084968395
0.00079719894
0.00074198062
0.00068203446
0.00062132299
0.00056186657
0.00050381718
0.00044660788
0.00039210633
0.00033735189
0.00029907574
0.00023943094
0.00039448244
-0.00026008251
0.0062989976
0.0062187874
0.0060847312
0.0059195598
0.0057431674
0.0055679062
0.0053945208
0.0052202608
0.0050461708
0.0048750961
0.0047082066
0.0045461992
0.0043912256
0.0042467894
0.0041166749
0.0040037611
0.0039090481
0.0038312326
0.0037669921
0.0037120885
0.0036627758
0.0036165839
0.003572032
0.0035281746
0.0034844457
0.0034406451
0.0033969113
0.0033535782
0.0033110587
0.003269555
0.0032289955
0.003189178
0.0031496944
0.0031100656
0.0030700323
0.0030295578
0.0029888915
0.0029484541
0.0029085805
0.0028695715
0.0028316056
0.0027945879
0.0027582931
0.0027224901
0.0026870888
0.0026519604
0.0026168021
0.0025812666
0.0025452429
0.0025087409
0.0024717272
0.002434635
0.0023984235
0.0023634463
0.0023289013
0.0022936887
0.0022572564
0.0022195114
0.0021807685
0.0021415314
0.0021020254
0.0020622256
0.0020219131
0.0019810825
0.0019398393
0.0018980742
0.0018557349
0.0018129381
0.0017696807
0.0017258605
0.0016814547
0.001636448
0.0015907728
0.0015442714
0.0014970084
0.0014490459
0.0014002436
0.0013506628
0.001300256
0.0012488312
0.0011966425
0.0011433037
0.001088518
0.0010325802
0.00097452616
0.00091184431
0.000851561
0.00079910065
0.00074394849
0.00068406617
0.00062333262
0.0005637929
0.00050562924
0.00044829667
0.00039366333
0.00033879461
0.00030032773
0.00024045935
0.0003941595
-0.00025633061
0.0062003257
0.0061268203
0.0060081932
0.0058606139
0.005698377
0.0055328203
0.0053670906
0.0052000627
0.0050325482
0.0048670971
0.0047052941
0.0045481353
0.0043976308
0.0042569431
0.0041294897
0.004017899
0.003923162
0.0038442377
0.0037782837
0.0037215629
0.0036706372
0.003623119
0.0035775238
0.0035328839
0.0034886034
0.0034444363
0.0034004592
0.0033569446
0.0033142392
0.0032725241
0.0032317352
0.0031916728
0.0031519655
0.0031121746
0.0030720465
0.003031544
0.0029908869
0.0029504586
0.0029105823
0.0028715367
0.0028334899
0.0027963652
0.0027599545
0.0027240396
0.0026885203
0.0026532678
0.0026179989
0.0025823858
0.0025463089
0.0025097744
0.0024727712
0.0024357011
0.0023994419
0.0023643351
0.0023296468
0.0022943304
0.0022578398
0.0022200816
0.0021813465
0.0021421058
0.0021025811
0.0020627551
0.0020224299
0.0019815883
0.0019403206
0.0018985357
0.0018561926
0.00181338
0.0017700583
0.0017261343
0.0016816612
0.001636622
0.0015909345
0.0015445806
0.0014975347
0.0014497106
0.001400975
0.0013514017
0.0013009992
0.001249589
0.0011974292
0.0011441188
0.0010893603
0.0010334453
0.00097542639
0.00091315458
0.00085325016
0.00080079689
0.00074571562
0.00068591669
0.00062518515
0.00056558723
0.00050733281
0.00044989757
0.00039514807
0.00034017872
0.0003015195
0.00024141595
0.00039346273
-0.00025200762
0.0061066708
0.0060389997
0.0059333931
0.0058011099
0.005652076
0.005496292
0.0053383738
0.0051785773
0.0050177062
0.0048580398
0.0047014238
0.0045491295
0.0044030749
0.0042661201
0.0041413577
0.0040311949
0.0039366106
0.0038567961
0.0037893349
0.0037309474
0.0036785
0.0036297072
0.0035830934
0.0035376785
0.0034928421
0.0034482973
0.0034040638
0.0033603552
0.0033174577
0.0032755289
0.0032345097
0.0031942056
0.0031542771
0.0031143228
0.0030740974
0.0030335617
0.0029929089
0.0029524872
0.0029126056
0.0028735233
0.0028353977
0.0027981679
0.0027616424
0.0027256156
0.002689979
0.0026546037
0.0026192245
0.0025835327
0.0025474019
0.0025108349
0.0024738391
0.0024367874
0.0024004802
0.0023652456
0.0023304141
0.0022949933
0.0022584442
0.0022206706
0.0021819402
0.0021426946
0.002103153
0.0020633031
0.0020229617
0.0019821038
0.0019408133
0.0018990141
0.0018566625
0.001813831
0.0017704882
0.001726556
0.0016820662
0.0016369671
0.0015911869
0.0015447827
0.0014977037
0.0014498845
0.0014013125
0.0013519234
0.0013016161
0.0012502415
0.0011980927
0.0011447913
0.0010900524
0.0010341655
0.00097618953
0.0009143036
0.00085473487
0.00080227014
0.00074726329
0.00068756648
0.00062686056
0.00056722965
0.00050890862
0.00045139239
0.00039654361
0.00034148864
0.00030263616
0.0002422845
0.00039235669
-0.00024704845
0.0060175288
0.0059549787
0.0058604152
0.0057414245
0.0056045842
0.005458465
0.0053084444
0.0051558642
0.0050016617
0.0048478967
0.0046965567
0.0045491431
0.0044075215
0.0042742903
0.0041522534
0.0040436222
0.0039493622
0.003868869
0.0038001041
0.0037402042
0.0036863326
0.0036363224
0.0035887199
0.0035425416
0.0034971482
0.0034522175
0.0034077167
0.003363804
0.0033207103
0.0032785679
0.0032373208
0.0031967811
0.0031566365
0.0031165207
0.0030761977
0.0030356253
0.002994973
0.0029545556
0.0029146662
0.0028755465
0.0028373431
0.0028000088
0.0027633686
0.0027272285
0.0026914737
0.0026559755
0.0026204853
0.0025847126
0.0025485264
0.0025119259
0.0024749335
0.0024378953
0.0024015395
0.0023661788
0.0023312048
0.0022956787
0.0022590695
0.0022212781
0.0021825504
0.0021432999
0.0021037415
0.0020638669
0.0020235076
0.0019826336
0.0019413225
0.0018995077
0.0018571428
0.0018142923
0.0017709329
0.0017269899
0.0016824821
0.0016373642
0.0015915761
0.0015451507
0.0014980094
0.0014501095
0.0014014984
0.0013520842
0.001301825
0.0012506132
0.0011986099
0.0011453713
0.0010906462
0.0010347685
0.00097682374
0.00091528769
0.00085600534
0.00080350773
0.00074857664
0.00068899914
0.00062834134
0.00056870196
0.00051033843
0.00045276332
0.00039783296
0.00034270839
0.0003036623
0.00024304782
0.00039077575
-0.00024138572
0.0059324651
0.0058744438
0.0057892948
0.0056818629
0.0055562011
0.005419498
0.0052773834
0.0051319845
0.0049844409
0.0048366512
0.0046906595
0.0045481422
0.0044109387
0.0042814259
0.0041621515
0.0040551533
0.0039613833
0.0038804159
0.0038105476
0.0037492933
0.0036941025
0.0036429391
0.0035943846
0.0035474596
0.0035015126
0.0034561907
0.003411414
0.0033672887
0.0033239951
0.0032816395
0.003240167
0.0031993966
0.0031590407
0.0031187643
0.0030783423
0.0030377292
0.0029970725
0.0029566562
0.0029167562
0.0028775978
0.0028393178
0.0028018802
0.0027651256
0.0027288713
0.0026929983
0.0026573777
0.0026217764
0.0025859215
0.002549679
0.0025130443
0.0024760519
0.0024390229
0.0024026183
0.0023671339
0.0023320183
0.0022963859
0.0022597155
0.0022219042
0.0021831777
0.0021439218
0.002104346
0.0020644465
0.0020240686
0.0019831787
0.0019418468
0.0019000149
0.0018576362
0.0018147683
0.0017713918
0.0017274341
0.0016829079
0.0016377747
0.0015919759
0.0015455327
0.001498376
0.0014504681
0.0014018279
0.0013523475
0.0013020244
0.0012507768
0.0011987754
0.0011456453
0.0010910662
0.0010352736
0.00097737505
0.00091614171
0.00085707746
0.00080451177
0.00074964921
0.00069020345
0.0006296136
0.00056998872
0.000511606
0.00045399396
0.00039899994
0.00034382233
0.00030458247
0.000243688
0.00038866127
-0.00023495022
0.0058511031
0.0057971132
0.0057200328
0.0056226678
0.0055071998
0.0053795578
0.0052452797
0.0051070017
0.0049660774
0.0048242976
0.0046837059
0.0045460973
0.0044132981
0.004287501
0.0041710276
0.0040657615
0.0039726412
0.0038913976
0.0038206231
0.0037581752
0.0037017765
0.0036495308
0.0036000665
0.0035524166
0.0035059229
0.0034602076
0.0034151483
0.0033708035
0.0033273069
0.0032847391
0.003243044
0.0032020486
0.0031614865
0.0031210515
0.0030805298
0.0030398726
0.0029992075
0.0029587897
0.002918877
0.0028796793
0.002841324
0.0028037844
0.0027669161
0.0027305472
0.0026945558
0.0026588134
0.002623101
0.0025871624
0.0025508624
0.0025141924
0.0024771964
0.0024401723
0.002403718
0.002368112
0.0023328557
0.0022971161
0.0022603831
0.0022225499
0.0021838227
0.0021445606
0.0021049671
0.0020650424
0.0020246454
0.0019837391
0.0019423861
0.0019005365
0.0018581439
0.0018152583
0.0017718638
0.0017278907
0.0016833473
0.0016381983
0.0015923854
0.0015459248
0.0014987553
0.0014508364
0.0014021788
0.0013526866
0.0013023524
0.0012510607
0.001198997
0.0011458307
0.0010912264
0.0010354808
0.00097772754
0.00091686164
0.00085799626
0.00080532381
0.00075050182
0.0006911841
0.00063067216
0.00057107949
0.00051269825
0.00045507008
0.00040002993
0.00034481585
0.00030538186
0.0002441875
0.00038595986
-0.00022767537
0.005773115
0.0057227348
0.0056526064
0.0055640293
0.0054578228
0.0053388135
0.0052122294
0.005080982
0.0049466111
0.0048108402
0.0046756773
0.0045429836
0.0044145751
0.0042924924
0.0041788592
0.0040754216
0.0039831047
0.0039017757
0.0038302883
0.0037668093
0.0037093194
0.0036560685
0.0036057427
0.0035573947
0.0035103656
0.0034642576
0.0034189119
0.0033743425
0.003330641
0.0032878627
0.003245949
0.0032047343
0.0031639715
0.0031233802
0.0030827585
0.0030420542
0.003001377
0.0029609547
0.002921027
0.0028817893
0.0028433597
0.0028057195
0.0027687382
0.0027322544
0.0026961446
0.0026602809
0.0026244576
0.0025884341
0.0025520752
0.002515369
0.0024783659
0.0024413422
0.0024048377
0.0023691124
0.0023337165
0.0022978691
0.0022610722
0.0022232152
0.0021844854
0.0021452163
0.0021056047
0.0020656549
0.0020252381
0.0019843148
0.0019429406
0.0019010728
0.0018586658
0.0018157624
0.0017723492
0.0017283606
0.0016837998
0.0016386341
0.0015928067
0.0015463296
0.0014991462
0.0014512136
0.00140254
0.0013530372
0.0013026898
0.0012513903
0.0011993097
0.0011461183
0.0010914755
0.0010356856
0.00097791464
0.00091728141
0.00085863485
0.00080592253
0.00075116671
0.00069197884
0.00063153806
0.00057197996
0.0005136107
0.00045598202
0.000400911
0.00034567611
0.00030604659
0.00024453011
0.00038262456
-0.00021950285
0.0056982148
0.0056510829
0.0055869766
0.005506093
0.0054082817
0.0052974303
0.0051783344
0.0050539947
0.0049260869
0.0047962922
0.0046665627
0.0045387815
0.0044147491
0.0042963798
0.0041856255
0.0040841096
0.0039927435
0.0039115127
0.0038395012
0.0037751542
0.0037166949
0.003662522
0.0036113887
0.0035623745
0.0035148256
0.0034683296
0.003422696
0.0033778991
0.0033339919
0.0032910057
0.0032488778
0.0032074499
0.0031664922
0.0031257476
0.0030850259
0.003044272
0.0030035789
0.0029631496
0.002923205
0.0028839265
0.0028454239
0.0028076847
0.0027705915
0.0027339927
0.0026977648
0.0026617806
0.0026258465
0.0025897371
0.0025533183
0.0025165746
0.0024795611
0.0024425335
0.002405978
0.0023701355
0.0023346014
0.0022986455
0.0022617836
0.0022239007
0.0021851665
0.0021458894
0.0021062594
0.0020662843
0.002025847
0.0019849063
0.0019435108
0.0019016243
0.0018592022
0.0018162806
0.0017728486
0.001728844
0.0016842655
0.0016390825
0.0015932404
0.0015467467
0.0014995484
0.0014516021
0.0014029131
0.0013533978
0.0013030365
0.0012517305
0.0011996291
0.0011464231
0.0010917876
0.0010359869
0.00097822612
0.00091770006
0.00085913365
0.00080622308
0.00075151826
0.00069254851
0.00063223121
0.00057272336
0.00051436406
0.0004567356
0.00040163946
0.00034639441
0.00030656505
0.00024469799
0.00037862413
-0.0002103908
0.0056261512
0.0055819559
0.0055230941
0.0054489686
0.0053587576
0.0052555659
0.0051437002
0.0050261122
0.0049045539
0.0047806747
0.0046563592
0.0045334775
0.0044138039
0.0042991464
0.0041913081
0.0040918031
0.0040015288
0.0039205725
0.0038482208
0.0037831688
0.0037238656
0.0036688595
0.0036169783
0.0035673351
0.0035192865
0.0034724106
0.0034264906
0.0033814655
0.0033373533
0.0032941625
0.0032518258
0.0032101914
0.0031690451
0.0031281506
0.0030873294
0.0030465238
0.0030058117
0.0029653727
0.0029254093
0.0028860898
0.0028475155
0.0028096789
0.0027724749
0.0027357614
0.0026994157
0.0026633119
0.0026272674
0.0025910712
0.0025545913
0.0025178088
0.0024807816
0.002443746
0.0024071385
0.0023711811
0.0023355103
0.0022994455
0.0022625173
0.0022246066
0.0021858659
0.0021465801
0.0021069312
0.0020669307
0.0020264724
0.0019855137
0.0019440968
0.0019021911
0.0018597534
0.0018168134
0.0017733622
0.001729341
0.0016847445
0.0016395439
0.0015936868
0.001547176
0.0014999624
0.0014520023
0.0014032975
0.0013537691
0.0013033944
0.0012520807
0.0011999576
0.0011467389
0.001092111
0.0010362934
0.00097860385
0.00091818108
0.000859655
0.00080655319
0.00075176546
0.00069286891
0.00063264482
0.00057326086
0.00051496988
0.0004573594
0.00040223526
0.00034697715
0.00030693692
0.00024466322
0.00037395591
-0.0002003221
0.0055567031
0.0055151734
0.0054609033
0.0053927359
0.0053094032
0.0052133666
0.0051084335
0.0049974096
0.004882065
0.0047640155
0.004645072
0.004527064
0.0044117279
0.0043007787
0.0041958912
0.0040984818
0.0040094332
0.0039289202
0.0038564067
0.0037908116
0.0037307935
0.0036750479
0.0036224839
0.003572254
0.0035237302
0.0034764866
0.0034302847
0.0033850329
0.003340718
0.0032973273
0.0032547878
0.003212954
0.0031716259
0.0031305857
0.0030896659
0.0030488071
0.0030080731
0.0029676221
0.0029276385
0.0028882774
0.0028496327
0.0028117008
0.0027743874
0.0027375597