/*--------------------------------*- C++ -*----------------------------------*\
  =========                 |
  \\      /  F ield         | OpenFOAM: The Open Source CFD Toolbox
   \\    /   O peration     | Website:  https://openfoam.org
    \\  /    A nd           | Version:  12
     \\/     M anipulation  |
\*---------------------------------------------------------------------------*/
FoamFile
{
    format      ascii;
    class       volScalarField;
    location    "1700";
    object      p;
}
// * * * * * * * * * * * * * * * * * * * * * * * * * * * * * * * * * * * * * //

dimensions      [0 2 -2 0 0 0 0];

internalField   nonuniform List<scalar> 
13056
(
0.0040830543
0.0041028631
0.0041461139
0.0042007697
0.0042651768
0.004339274
0.0044224015
0.0045138398
0.0046132511
0.0047206826
0.0048364812
0.004961296
0.0050961591
0.0052426309
0.005402999
0.0055806979
0.0057807222
0.0060114539
0.0062845043
0.0066276095
0.0070656101
0.007761865
0.0086466368
0.012586041
0.0091156636
0.0040415735
0.0039466426
0.0043943652
0.0045164074
0.0044651606
0.0043918996
0.0043236836
0.0042551582
0.0041860543
0.0041183215
0.004053347
0.0039917632
0.0039332967
0.0038776721
0.0038246821
0.0037741739
0.0037259913
0.003679812
0.0036356405
0.003593088
0.0035521801
0.0035127988
0.0034745366
0.0034376021
0.0034018507
0.0033669234
0.0033329655
0.0032999535
0.0032676439
0.0032359202
0.0032049741
0.0031746812
0.0031447697
0.0031152951
0.0030863982
0.0030579464
0.0030297148
0.0030017408
0.0029741938
0.002946973
0.0029198287
0.0028928233
0.0028660397
0.002839495
0.0028130023
0.0027865095
0.002760035
0.0027337207
0.0027074665
0.0026810663
0.0026545815
0.0026280535
0.0026015464
0.0025749104
0.0025480412
0.0025209537
0.002493758
0.0024664386
0.002438789
0.002410805
0.0023824708
0.0023539245
0.0023250741
0.0022956952
0.0022658322
0.0022354996
0.0022047649
0.0021734672
0.0021414585
0.0021087179
0.0020753902
0.0020413814
0.0020064064
0.0019704643
0.0019335863
0.0018957664
0.0018567631
0.0018164003
0.0017747084
0.0017316766
0.0016870347
0.0016405114
0.0015921637
0.0015418689
0.0014892229
0.0014340047
0.0013762064
0.0013156449
0.0012528363
0.0011898867
0.0011279515
0.0010668376
0.0010064837
0.00094703978
0.00088840059
0.00083036269
0.00077297045
0.00071644582
0.00066077729
0.00060579865
0.00055165959
0.00049849186
0.00044661277
0.00039632638
0.00034762543
0.0003022397
0.00025856016
0.00022878568
0.00019037437
0.00031234245
-0.00024362904
0.0040830543
0.0041028631
0.0041461139
0.0042007697
0.0042651768
0.004339274
0.0044224015
0.0045138398
0.0046132511
0.0047206826
0.0048364812
0.004961296
0.0050961591
0.0052426309
0.005402999
0.005580698
0.0057807222
0.0060114539
0.0062845043
0.0066276095
0.00706561
0.0077618648
0.008646637
0.012568938
0.0091164684
0.0040422359
0.0039467404
0.0043944021
0.0045164335
0.0044651828
0.004391919
0.0043237008
0.0042551736
0.0041860682
0.0041183341
0.0040533586
0.0039917739
0.0039333065
0.0038776812
0.0038246906
0.0037741818
0.0037259988
0.003679819
0.003635647
0.0035930942
0.0035521859
0.0035128043
0.0034745418
0.003437607
0.0034018554
0.0033669279
0.0033329697
0.0032999575
0.0032676478
0.0032359239
0.0032049776
0.0031746846
0.0031447729
0.0031152982
0.0030864012
0.0030579492
0.0030297175
0.0030017434
0.0029741963
0.0029469754
0.002919831
0.0028928255
0.0028660418
0.0028394971
0.0028130043
0.0027865114
0.0027600368
0.0027337224
0.0027074682
0.002681068
0.0026545831
0.0026280551
0.0026015479
0.0025749119
0.0025480426
0.002520955
0.0024937593
0.0024664399
0.0024387902
0.0024108062
0.0023824719
0.0023539256
0.0023250751
0.0022956962
0.0022658331
0.0022355005
0.0022047658
0.002173468
0.0021414593
0.0021087187
0.002075391
0.0020413821
0.0020064072
0.0019704649
0.0019335869
0.001895767
0.0018567637
0.0018164009
0.001774709
0.0017316771
0.0016870352
0.0016405119
0.0015921641
0.0015418693
0.0014892233
0.0014340051
0.0013762068
0.0013156453
0.0012528366
0.0011898871
0.0011279518
0.0010668379
0.001006484
0.00094704006
0.00088840086
0.00083036295
0.0007729707
0.00071644606
0.00066077752
0.00060579887
0.0005516598
0.00049849207
0.00044661297
0.00039632657
0.00034762561
0.00030223989
0.00025856034
0.00022878586
0.00019037455
0.00031234266
-0.0002436289
0.0040830543
0.0041028631
0.0041461139
0.0042007697
0.0042651768
0.004339274
0.0044224015
0.0045138398
0.0046132511
0.0047206826
0.0048364812
0.004961296
0.0050961591
0.0052426309
0.005402999
0.005580698
0.0057807222
0.0060114539
0.0062845043
0.0066276095
0.0070656099
0.0077618644
0.0086466372
0.012552685
0.0091173427
0.004043001
0.0039468565
0.0043944462
0.0045164648
0.0044652092
0.0043919422
0.0043237213
0.004255192
0.0041860849
0.0041183493
0.0040533724
0.0039917866
0.0039333183
0.0038776921
0.0038247008
0.0037741913
0.0037260076
0.0036798273
0.0036356549
0.0035931015
0.0035521928
0.0035128109
0.0034745481
0.0034376129
0.003401861
0.0033669332
0.0033329748
0.0032999623
0.0032676524
0.0032359283
0.0032049818
0.0031746886
0.0031447767
0.0031153019
0.0030864047
0.0030579526
0.0030297207
0.0030017465
0.0029741993
0.0029469783
0.0029198338
0.0028928281
0.0028660444
0.0028394996
0.0028130066
0.0027865137
0.002760039
0.0027337246
0.0027074703
0.0026810699
0.002654585
0.0026280569
0.0026015496
0.0025749136
0.0025480442
0.0025209566
0.0024937609
0.0024664413
0.0024387916
0.0024108075
0.0023824732
0.0023539269
0.0023250763
0.0022956974
0.0022658343
0.0022355016
0.0022047668
0.0021734691
0.0021414603
0.0021087197
0.0020753919
0.002041383
0.002006408
0.0019704658
0.0019335877
0.0018957678
0.0018567644
0.0018164016
0.0017747096
0.0017316777
0.0016870358
0.0016405124
0.0015921647
0.0015418699
0.0014892238
0.0014340055
0.0013762072
0.0013156457
0.001252837
0.0011898874
0.0011279522
0.0010668383
0.0010064843
0.00094704039
0.00088840117
0.00083036325
0.00077297099
0.00071644634
0.00066077779
0.00060579914
0.00055166005
0.00049849231
0.00044661321
0.00039632681
0.00034762584
0.00030224011
0.00025856056
0.00022878607
0.00019037477
0.00031234292
-0.00024362873
0.0040830543
0.0041028631
0.0041461139
0.0042007697
0.0042651768
0.004339274
0.0044224015
0.0045138398
0.0046132511
0.0047206826
0.0048364812
0.004961296
0.0050961591
0.0052426309
0.005402999
0.005580698
0.0057807222
0.0060114539
0.0062845043
0.0066276094
0.0070656098
0.0077618638
0.0086466374
0.012538191
0.0091183225
0.0040437062
0.003946966
0.0043944896
0.0045164955
0.0044652352
0.0043919649
0.0043237415
0.00425521
0.0041861012
0.0041183641
0.004053386
0.0039917991
0.0039333299
0.0038777029
0.0038247108
0.0037742007
0.0037260163
0.0036798355
0.0036356626
0.0035931088
0.0035521997
0.0035128173
0.0034745542
0.0034376187
0.0034018665
0.0033669384
0.0033329798
0.0032999671
0.0032676569
0.0032359326
0.0032049859
0.0031746925
0.0031447805
0.0031153055
0.0030864082
0.0030579559
0.0030297239
0.0030017496
0.0029742022
0.0029469811
0.0029198365
0.0028928307
0.0028660469
0.002839502
0.002813009
0.0027865159
0.0027600412
0.0027337266
0.0027074723
0.0026810719
0.0026545868
0.0026280587
0.0026015513
0.0025749152
0.0025480458
0.0025209582
0.0024937624
0.0024664428
0.002438793
0.0024108089
0.0023824745
0.0023539281
0.0023250775
0.0022956986
0.0022658354
0.0022355027
0.0022047679
0.0021734701
0.0021414613
0.0021087206
0.0020753928
0.0020413838
0.0020064088
0.0019704666
0.0019335885
0.0018957685
0.0018567651
0.0018164023
0.0017747103
0.0017316784
0.0016870364
0.001640513
0.0015921652
0.0015418704
0.0014892243
0.001434006
0.0013762077
0.0013156461
0.0012528374
0.0011898878
0.0011279526
0.0010668386
0.0010064847
0.00094704071
0.00088840148
0.00083036355
0.00077297128
0.00071644662
0.00066077806
0.0006057994
0.0005516603
0.00049849256
0.00044661344
0.00039632703
0.00034762606
0.00030224032
0.00025856077
0.00022878628
0.00019037497
0.00031234317
-0.00024362858
0.0040830543
0.0041028631
0.0041461139
0.0042007697
0.0042651768
0.004339274
0.0044224015
0.0045138398
0.0046132511
0.0047206826
0.0048364812
0.004961296
0.0050961591
0.0052426309
0.005402999
0.005580698
0.0057807222
0.0060114539
0.0062845042
0.0066276093
0.0070656096
0.0077618628
0.0086466379
0.012523884
0.0091194615
0.0040443502
0.0039470774
0.0043945345
0.0045165271
0.004465262
0.0043919883
0.0043237622
0.0042552286
0.0041861179
0.0041183794
0.0040534
0.003991812
0.0039333418
0.0038777139
0.003824721
0.0037742102
0.0037260253
0.0036798438
0.0036356704
0.0035931162
0.0035522067
0.0035128239
0.0034745604
0.0034376247
0.0034018721
0.0033669438
0.0033329849
0.0032999719
0.0032676615
0.003235937
0.0032049901
0.0031746966
0.0031447844
0.0031153092
0.0030864117
0.0030579593
0.0030297272
0.0030017527
0.0029742052
0.002946984
0.0029198393
0.0028928334
0.0028660494
0.0028395045
0.0028130113
0.0027865182
0.0027600434
0.0027337288
0.0027074743
0.0026810738
0.0026545887
0.0026280605
0.0026015531
0.002574917
0.0025480475
0.0025209598
0.0024937639
0.0024664443
0.0024387944
0.0024108103
0.0023824758
0.0023539294
0.0023250788
0.0022956997
0.0022658365
0.0022355038
0.0022047689
0.0021734711
0.0021414623
0.0021087216
0.0020753937
0.0020413847
0.0020064097
0.0019704674
0.0019335892
0.0018957693
0.0018567658
0.001816403
0.0017747109
0.001731679
0.001687037
0.0016405136
0.0015921658
0.0015418709
0.0014892248
0.0014340065
0.0013762082
0.0013156466
0.0012528378
0.0011898882
0.001127953
0.001066839
0.001006485
0.00094704105
0.0008884018
0.00083036385
0.00077297157
0.0007164469
0.00066077833
0.00060579966
0.00055166056
0.0004984928
0.00044661368
0.00039632726
0.00034762629
0.00030224054
0.00025856098
0.0002287865
0.00019037517
0.00031234342
-0.00024362842
0.0040830543
0.0041028631
0.0041461139
0.0042007697
0.0042651768
0.004339274
0.0044224015
0.0045138398
0.0046132511
0.0047206826
0.0048364812
0.004961296
0.0050961591
0.0052426309
0.005402999
0.0055806979
0.0057807222
0.0060114539
0.0062845041
0.0066276091
0.0070656094
0.0077618615
0.0086466385
0.012509184
0.0091205946
0.0040449273
0.0039471976
0.0043945831
0.0045165611
0.0044652907
0.0043920134
0.0043237844
0.0042552484
0.0041861359
0.0041183957
0.004053415
0.0039918258
0.0039333545
0.0038777257
0.003824732
0.0037742204
0.0037260349
0.0036798528
0.0036356789
0.0035931241
0.0035522141
0.003512831
0.0034745671
0.003437631
0.0034018782
0.0033669495
0.0033329903
0.0032999771
0.0032676665
0.0032359417
0.0032049947
0.0031747009
0.0031447885
0.0031153131
0.0030864155
0.0030579629
0.0030297307
0.003001756
0.0029742084
0.0029469871
0.0029198423
0.0028928363
0.0028660522
0.0028395071
0.0028130139
0.0027865207
0.0027600457
0.002733731
0.0027074765
0.0026810759
0.0026545908
0.0026280625
0.002601555
0.0025749188
0.0025480493
0.0025209615
0.0024937655
0.0024664459
0.0024387959
0.0024108117
0.0023824773
0.0023539308
0.0023250801
0.002295701
0.0022658378
0.002235505
0.0022047701
0.0021734722
0.0021414633
0.0021087226
0.0020753947
0.0020413857
0.0020064106
0.0019704682
0.0019335901
0.0018957701
0.0018567666
0.0018164037
0.0017747116
0.0017316797
0.0016870377
0.0016405142
0.0015921664
0.0015418715
0.0014892253
0.001434007
0.0013762086
0.001315647
0.0012528383
0.0011898887
0.0011279534
0.0010668394
0.0010064854
0.0009470414
0.00088840214
0.00083036418
0.00077297189
0.0007164472
0.00066077863
0.00060579994
0.00055166083
0.00049849307
0.00044661394
0.00039632751
0.00034762653
0.00030224078
0.00025856121
0.00022878673
0.00019037539
0.00031234369
-0.00024362825
0.0040830543
0.0041028631
0.0041461139
0.0042007697
0.0042651768
0.004339274
0.0044224015
0.0045138398
0.0046132511
0.0047206826
0.0048364812
0.004961296
0.0050961591
0.0052426309
0.005402999
0.0055806979
0.0057807221
0.0060114538
0.006284504
0.0066276089
0.0070656091
0.0077618597
0.0086466393
0.012494065
0.0091217483
0.0040455102
0.0039473306
0.0043946371
0.0045165985
0.0044653222
0.0043920409
0.0043238088
0.0042552702
0.0041861556
0.0041184136
0.0040534314
0.0039918408
0.0039333684
0.0038777386
0.003824744
0.0037742316
0.0037260453
0.0036798626
0.0036356881
0.0035931328
0.0035522223
0.0035128387
0.0034745744
0.0034376379
0.0034018847
0.0033669557
0.0033329962
0.0032999827
0.0032676718
0.0032359468
0.0032049996
0.0031747056
0.003144793
0.0031153174
0.0030864196
0.0030579669
0.0030297344
0.0030017597
0.0029742119
0.0029469904
0.0029198455
0.0028928394
0.0028660552
0.00283951
0.0028130167
0.0027865233
0.0027600483
0.0027337335
0.0027074789
0.0026810782
0.002654593
0.0026280646
0.0026015571
0.0025749208
0.0025480512
0.0025209633
0.0024937673
0.0024664476
0.0024387976
0.0024108133
0.0023824788
0.0023539323
0.0023250815
0.0022957024
0.0022658391
0.0022355063
0.0022047713
0.0021734734
0.0021414645
0.0021087237
0.0020753957
0.0020413867
0.0020064116
0.0019704692
0.001933591
0.001895771
0.0018567674
0.0018164045
0.0017747124
0.0017316804
0.0016870384
0.0016405149
0.001592167
0.0015418721
0.0014892259
0.0014340076
0.0013762092
0.0013156475
0.0012528388
0.0011898891
0.0011279538
0.0010668398
0.0010064858
0.00094704178
0.00088840251
0.00083036453
0.00077297222
0.00071644753
0.00066077894
0.00060580025
0.00055166112
0.00049849335
0.00044661421
0.00039632778
0.00034762679
0.00030224103
0.00025856146
0.00022878698
0.00019037563
0.00031234398
-0.00024362806
0.0040830543
0.0041028631
0.0041461139
0.0042007697
0.0042651768
0.004339274
0.0044224015
0.0045138398
0.0046132511
0.0047206826
0.0048364812
0.004961296
0.0050961591
0.0052426309
0.005402999
0.0055806979
0.0057807221
0.0060114537
0.0062845039
0.0066276086
0.0070656087
0.0077618573
0.0086466403
0.012478574
0.0091229333
0.004046227
0.0039474825
0.0043946988
0.0045166409
0.0044653576
0.0043920718
0.0043238361
0.0042552946
0.0041861776
0.0041184336
0.0040534496
0.0039918576
0.0039333839
0.0038777529
0.0038247573
0.0037742441
0.0037260569
0.0036798735
0.0036356983
0.0035931424
0.0035522314
0.0035128473
0.0034745825
0.0034376456
0.003401892
0.0033669626
0.0033330028
0.003299989
0.0032676778
0.0032359525
0.003205005
0.0031747108
0.0031447979
0.0031153222
0.0030864242
0.0030579712
0.0030297386
0.0030017637
0.0029742158
0.0029469941
0.002919849
0.0028928428
0.0028660585
0.0028395131
0.0028130197
0.0027865263
0.0027600511
0.0027337362
0.0027074815
0.0026810808
0.0026545954
0.002628067
0.0026015593
0.002574923
0.0025480533
0.0025209653
0.0024937693
0.0024664495
0.0024387994
0.0024108151
0.0023824805
0.0023539339
0.0023250831
0.0022957039
0.0022658405
0.0022355077
0.0022047727
0.0021734747
0.0021414657
0.0021087249
0.0020753969
0.0020413878
0.0020064126
0.0019704702
0.001933592
0.0018957719
0.0018567683
0.0018164054
0.0017747133
0.0017316812
0.0016870391
0.0016405156
0.0015921677
0.0015418728
0.0014892266
0.0014340082
0.0013762098
0.0013156481
0.0012528393
0.0011898896
0.0011279543
0.0010668402
0.0010064862
0.0009470422
0.00088840291
0.00083036492
0.0007729726
0.00071644789
0.00066077929
0.00060580058
0.00055166145
0.00049849366
0.00044661452
0.00039632807
0.00034762707
0.00030224131
0.00025856173
0.00022878725
0.00019037589
0.0003123443
-0.00024362786
0.0040830543
0.0041028631
0.0041461139
0.0042007697
0.0042651768
0.004339274
0.0044224015
0.0045138398
0.0046132511
0.0047206826
0.0048364812
0.004961296
0.0050961591
0.0052426309
0.0054029989
0.0055806979
0.005780722
0.0060114536
0.0062845037
0.0066276082
0.0070656083
0.0077618543
0.0086466417
0.012462762
0.0091238315
0.0040471802
0.0039476641
0.0043947719
0.0045166904
0.0044653988
0.0043921076
0.0043238677
0.0042553228
0.0041862029
0.0041184566
0.0040534707
0.0039918769
0.0039334017
0.0038777694
0.0038247726
0.0037742583
0.0037260702
0.0036798859
0.00363571
0.0035931534
0.0035522417
0.0035128571
0.0034745917
0.0034376543
0.0034019003
0.0033669705
0.0033330103
0.0032999961
0.0032676846
0.003235959
0.0032050112
0.0031747166
0.0031448036
0.0031153276
0.0030864293
0.0030579762
0.0030297434
0.0030017682
0.0029742202
0.0029469983
0.0029198531
0.0028928467
0.0028660622
0.0028395167
0.0028130232
0.0027865296
0.0027600543
0.0027337393
0.0027074845
0.0026810836
0.0026545982
0.0026280696
0.0026015619
0.0025749254
0.0025480557
0.0025209676
0.0024937715
0.0024664516
0.0024388015
0.0024108171
0.0023824824
0.0023539357
0.0023250849
0.0022957056
0.0022658422
0.0022355093
0.0022047742
0.0021734761
0.0021414671
0.0021087262
0.0020753982
0.0020413891
0.0020064138
0.0019704714
0.0019335931
0.001895773
0.0018567694
0.0018164064
0.0017747142
0.0017316821
0.00168704
0.0016405164
0.0015921685
0.0015418735
0.0014892273
0.0014340089
0.0013762104
0.0013156487
0.0012528399
0.0011898902
0.0011279548
0.0010668407
0.0010064867
0.00094704267
0.00088840336
0.00083036535
0.00077297301
0.00071644829
0.00066077967
0.00060580095
0.00055166181
0.00049849401
0.00044661485
0.0003963284
0.00034762739
0.00030224162
0.00025856203
0.00022878755
0.00019037618
0.00031234466
-0.00024362764
0.0040830543
0.0041028631
0.0041461139
0.0042007697
0.0042651768
0.004339274
0.0044224016
0.0045138398
0.0046132511
0.0047206826
0.0048364812
0.004961296
0.0050961591
0.0052426308
0.0054029989
0.0055806978
0.0057807219
0.0060114535
0.0062845035
0.0066276077
0.0070656076
0.0077618504
0.0086466434
0.012446709
0.0091241137
0.0040484593
0.0039478945
0.0043948628
0.004516751
0.0044654488
0.004392151
0.0043239057
0.0042553566
0.0041862333
0.0041184842
0.0040534958
0.0039918999
0.0039334229
0.003877789
0.0038247907
0.0037742752
0.0037260859
0.0036799006
0.0036357237
0.0035931663
0.0035522539
0.0035128685
0.0034746026
0.0034376646
0.00340191
0.0033669797
0.003333019
0.0033000044
0.0032676925
0.0032359666
0.0032050184
0.0031747235
0.0031448101
0.0031153338
0.0030864353
0.0030579819
0.0030297489
0.0030017735
0.0029742252
0.0029470032
0.0029198578
0.0028928512
0.0028660665
0.0028395209
0.0028130272
0.0027865334
0.002760058
0.0027337429
0.0027074879
0.0026810869
0.0026546014
0.0026280727
0.0026015649
0.0025749283
0.0025480584
0.0025209703
0.002493774
0.002466454
0.0024388038
0.0024108193
0.0023824846
0.0023539379
0.0023250869
0.0022957076
0.0022658441
0.0022355111
0.002204776
0.0021734778
0.0021414688
0.0021087278
0.0020753997
0.0020413905
0.0020064152
0.0019704727
0.0019335944
0.0018957742
0.0018567705
0.0018164075
0.0017747153
0.0017316832
0.001687041
0.0016405174
0.0015921694
0.0015418744
0.0014892281
0.0014340097
0.0013762112
0.0013156494
0.0012528406
0.0011898908
0.0011279554
0.0010668413
0.0010064873
0.0009470432
0.00088840387
0.00083036584
0.00077297348
0.00071644875
0.00066078011
0.00060580137
0.00055166222
0.00049849441
0.00044661524
0.00039632877
0.00034762775
0.00030224197
0.00025856237
0.00022878789
0.0001903765
0.00031234507
-0.00024362738
0.0040830543
0.0041028631
0.0041461139
0.0042007697
0.0042651768
0.004339274
0.0044224016
0.0045138398
0.0046132511
0.0047206826
0.0048364812
0.004961296
0.0050961591
0.0052426308
0.0054029989
0.0055806978
0.0057807218
0.0060114533
0.0062845032
0.0066276071
0.0070656068
0.0077618454
0.0086466458
0.012430519
0.0091240845
0.0040501725
0.0039482052
0.0043949827
0.0045168294
0.0044655127
0.0043922061
0.004323954
0.0042553993
0.0041862716
0.0041185187
0.0040535272
0.0039919286
0.0039334492
0.0038778132
0.0038248132
0.003774296
0.0037261054
0.0036799188
0.0036357407
0.0035931823
0.0035522689
0.0035128826
0.0034746159
0.0034376772
0.0034019219
0.003366991
0.0033330297
0.0033000146
0.0032677022
0.0032359758
0.0032050271
0.0031747319
0.0031448181
0.0031153415
0.0030864426
0.0030579889
0.0030297556
0.0030017799
0.0029742314
0.0029470091
0.0029198634
0.0028928566
0.0028660717
0.0028395259
0.002813032
0.0027865381
0.0027600625
0.0027337472
0.002707492
0.0026810909
0.0026546052
0.0026280764
0.0026015684
0.0025749317
0.0025480617
0.0025209734
0.0024937771
0.002466457
0.0024388067
0.0024108221
0.0023824872
0.0023539404
0.0023250894
0.0022957099
0.0022658463
0.0022355133
0.002204778
0.0021734798
0.0021414707
0.0021087297
0.0020754015
0.0020413922
0.0020064169
0.0019704743
0.0019335959
0.0018957757
0.0018567719
0.0018164088
0.0017747166
0.0017316844
0.0016870422
0.0016405185
0.0015921705
0.0015418754
0.0014892291
0.0014340106
0.001376212
0.0013156502
0.0012528413
0.0011898916
0.0011279561
0.001066842
0.0010064879
0.00094704383
0.00088840447
0.00083036642
0.00077297404
0.00071644928
0.00066078062
0.00060580187
0.00055166269
0.00049849487
0.00044661568
0.00039632921
0.00034762817
0.00030224238
0.00025856277
0.00022878829
0.00019037688
0.00031234554
-0.00024362709
0.0040830543
0.0041028631
0.0041461139
0.0042007697
0.0042651768
0.004339274
0.0044224016
0.0045138398
0.0046132511
0.0047206826
0.0048364812
0.004961296
0.0050961591
0.0052426308
0.0054029988
0.0055806977
0.0057807217
0.0060114531
0.0062845028
0.0066276063
0.0070656058
0.0077618389
0.0086466488
0.012414304
0.0091241873
0.0040524643
0.0039486489
0.0043951517
0.004516937
0.0044655994
0.0043922803
0.0043240185
0.0042554561
0.0041863222
0.0041185643
0.0040535684
0.0039919662
0.0039334837
0.0038778449
0.0038248425
0.0037743231
0.0037261306
0.0036799423
0.0036357627
0.0035932028
0.0035522881
0.0035129008
0.003474633
0.0034376933
0.0034019371
0.0033670054
0.0033330434
0.0033000276
0.0032677145
0.0032359875
0.0032050383
0.0031747425
0.0031448283
0.0031153511
0.0030864519
0.0030579977
0.003029764
0.003001788
0.0029742391
0.0029470165
0.0029198705
0.0028928634
0.0028660783
0.0028395322
0.002813038
0.0027865439
0.0027600681
0.0027337525
0.0027074972
0.0026810959
0.00265461
0.002628081
0.0026015728
0.0025749359
0.0025480658
0.0025209774
0.0024937809
0.0024664606
0.0024388102
0.0024108254
0.0023824905
0.0023539435
0.0023250924
0.0022957128
0.0022658491
0.0022355159
0.0022047806
0.0021734823
0.0021414731
0.0021087319
0.0020754037
0.0020413943
0.0020064189
0.0019704762
0.0019335978
0.0018957774
0.0018567736
0.0018164105
0.0017747181
0.0017316859
0.0016870436
0.0016405199
0.0015921718
0.0015418766
0.0014892303
0.0014340117
0.0013762131
0.0013156513
0.0012528423
0.0011898925
0.001127957
0.0010668428
0.0010064887
0.00094704458
0.00088840519
0.00083036711
0.0007729747
0.00071644992
0.00066078124
0.00060580246
0.00055166327
0.00049849543
0.00044661622
0.00039632973
0.00034762868
0.00030224288
0.00025856325
0.00022878877
0.00019037734
0.0003123461
-0.00024362673
0.0040830543
0.0041028631
0.0041461139
0.0042007697
0.0042651768
0.004339274
0.0044224016
0.0045138398
0.0046132511
0.0047206826
0.0048364812
0.004961296
0.005096159
0.0052426307
0.0054029988
0.0055806976
0.0057807215
0.0060114527
0.0062845022
0.0066276052
0.0070656044
0.0077618307
0.0086466528
0.012398146
0.0091244764
0.0040555874
0.0039493074
0.004395404
0.004517094
0.0044657238
0.0043923857
0.0043241094
0.0042555358
0.0041863928
0.0041186275
0.0040536255
0.0039920181
0.003933531
0.0038778884
0.0038248825
0.0037743601
0.0037261649
0.0036799742
0.0036357924
0.0035932306
0.0035523142
0.0035129252
0.003474656
0.0034377149
0.0034019576
0.0033670247
0.0033330617
0.0033000449
0.0032677309
0.0032360031
0.0032050531
0.0031747566
0.0031448417
0.003115364
0.0030864641
0.0030580094
0.0030297752
0.0030017987
0.0029742494
0.0029470263
0.0029198799
0.0028928724
0.0028660869
0.0028395405
0.0028130459
0.0027865515
0.0027600754
0.0027337596
0.002707504
0.0026811024
0.0026546162
0.002628087
0.0026015786
0.0025749415
0.0025480711
0.0025209825
0.0024937858
0.0024664654
0.0024388147
0.0024108298
0.0023824947
0.0023539476
0.0023250963
0.0022957166
0.0022658527
0.0022355194
0.0022047839
0.0021734855
0.0021414761
0.0021087349
0.0020754065
0.002041397
0.0020064215
0.0019704787
0.0019336001
0.0018957797
0.0018567758
0.0018164126
0.0017747201
0.0017316878
0.0016870454
0.0016405216
0.0015921734
0.0015418782
0.0014892318
0.0014340131
0.0013762144
0.0013156525
0.0012528435
0.0011898936
0.0011279581
0.0010668439
0.0010064897
0.00094704553
0.00088840611
0.00083036799
0.00077297554
0.00071645073
0.00066078202
0.00060580321
0.00055166399
0.00049849612
0.0004466169
0.00039633038
0.00034762931
0.0003022435
0.00025856386
0.00022878937
0.00019037791
0.00031234681
-0.00024362629
0.0040830543
0.0041028631
0.0041461139
0.0042007697
0.0042651768
0.004339274
0.0044224016
0.0045138398
0.0046132511
0.0047206826
0.0048364812
0.004961296
0.005096159
0.0052426307
0.0054029987
0.0055806974
0.0057807213
0.0060114524
0.0062845016
0.0066276039
0.0070656027
0.0077618202
0.0086466579
0.012382073
0.0091248601
0.004059891
0.0039502927
0.004395793
0.0045173321
0.0044659096
0.0043925417
0.004324243
0.004255652
0.0041864953
0.0041187189
0.0040537077
0.0039920924
0.0039335987
0.0038779503
0.0038249394
0.0037744126
0.0037262134
0.0036800192
0.0036358344
0.0035932698
0.0035523508
0.0035129596
0.0034746882
0.0034377453
0.0034019862
0.0033670517
0.0033330872
0.003300069
0.0032677538
0.0032360248
0.0032050738
0.0031747763
0.0031448604
0.0031153818
0.0030864811
0.0030580256
0.0030297907
0.0030018135
0.0029742635
0.0029470398
0.0029198928
0.0028928848
0.0028660988
0.0028395518
0.0028130568
0.0027865619
0.0027600854
0.0027337692
0.0027075132
0.0026811112
0.0026546247
0.0026280951
0.0026015864
0.002574949
0.0025480784
0.0025209895
0.0024937925
0.0024664718
0.0024388209
0.0024108358
0.0023825004
0.0023539531
0.0023251015
0.0022957216
0.0022658576
0.0022355241
0.0022047884
0.0021734898
0.0021414803
0.0021087389
0.0020754103
0.0020414007
0.002006425
0.0019704821
0.0019336033
0.0018957828
0.0018567788
0.0018164154
0.0017747228
0.0017316903
0.0016870478
0.0016405239
0.0015921756
0.0015418803
0.0014892338
0.001434015
0.0013762162
0.0013156542
0.0012528451
0.0011898952
0.0011279596
0.0010668453
0.001006491
0.00094704679
0.00088840731
0.00083036914
0.00077297665
0.00071645179
0.00066078304
0.0006058042
0.00055166494
0.00049849704
0.00044661778
0.00039633124
0.00034763015
0.00030224431
0.00025856464
0.00022879016
0.00019037866
0.00031234774
-0.00024362571
0.0040830543
0.0041028631
0.0041461139
0.0042007697
0.0042651768
0.004339274
0.0044224016
0.0045138398
0.0046132511
0.0047206826
0.0048364812
0.0049612959
0.005096159
0.0052426306
0.0054029985
0.0055806972
0.005780721
0.0060114518
0.0062845007
0.0066276022
0.0070656005
0.0077618068
0.0086466646
0.012366039
0.0091252389
0.0040655432
0.0039517354
0.0043963942
0.0045176977
0.0044661912
0.0043927763
0.0043244428
0.004255825
0.0041866472
0.0041188539
0.0040538286
0.0039922016
0.0039336978
0.0038780408
0.0038250223
0.003774489
0.003726284
0.0036800846
0.0036358951
0.0035933264
0.0035524037
0.0035130091
0.0034747347
0.003437789
0.0034020273
0.0033670905
0.0033331238
0.0033001037
0.0032677866
0.0032360559
0.0032051033
0.0031748043
0.0031448871
0.0031154072
0.0030865053
0.0030580487
0.0030298127
0.0030018345
0.0029742836
0.002947059
0.0029199112
0.0028929024
0.0028661156
0.0028395679
0.0028130723
0.0027865767
0.0027600996
0.0027337828
0.0027075263
0.0026811238
0.0026546368
0.0026281067
0.0026015975
0.0025749597
0.0025480886
0.0025209993
0.0024938019
0.0024664809
0.0024388296
0.0024108441
0.0023825084
0.0023539608
0.0023251089
0.0022957287
0.0022658644
0.0022355306
0.0022047947
0.0021734958
0.0021414861
0.0021087444
0.0020754156
0.0020414058
0.0020064299
0.0019704867
0.0019336078
0.0018957871
0.0018567828
0.0018164192
0.0017747265
0.0017316939
0.0016870512
0.0016405271
0.0015921787
0.0015418832
0.0014892365
0.0014340176
0.0013762187
0.0013156566
0.0012528473
0.0011898973
0.0011279616
0.0010668472
0.0010064928
0.00094704852
0.00088840896
0.00083037072
0.00077297816
0.00071645324
0.00066078444
0.00060580554
0.00055166624
0.00049849829
0.00044661899
0.00039633241
0.00034763128
0.00030224541
0.00025856571
0.00022879123
0.00019037968
0.00031234899
-0.00024362491
0.0040830543
0.0041028631
0.0041461139
0.0042007697
0.0042651768
0.004339274
0.0044224016
0.0045138398
0.0046132511
0.0047206826
0.0048364811
0.0049612959
0.0050961589
0.0052426305
0.0054029984
0.005580697
0.0057807206
0.0060114512
0.0062844996
0.0066276
0.0070655976
0.0077617897
0.0086466732
0.012349917
0.0091255132
0.0040723767
0.003953765
0.0043973022
0.0045182499
0.0044666126
0.0043931259
0.0043247398
0.0042560814
0.0041868719
0.0041190529
0.0040540067
0.003992362
0.0039338433
0.0038781733
0.0038251437
0.0037746006
0.0037263869
0.0036801799
0.0036359836
0.0035934088
0.0035524807
0.0035130811
0.0034748022
0.0034378523
0.0034020869
0.0033671467
0.0033331769
0.0033001538
0.0032678341
0.0032361009
0.003205146
0.0031748448
0.0031449256
0.0031154438
0.0030865402
0.003058082
0.0030298444
0.0030018648
0.0029743125
0.0029470867
0.0029199376
0.0028929277
0.0028661398
0.0028395911
0.0028130945
0.002786598
0.00276012
0.0027338024
0.002707545
0.0026811418
0.002654654
0.0026281233
0.0026016135
0.002574975
0.0025481033
0.0025210134
0.0024938155
0.0024664939
0.0024388421
0.0024108561
0.0023825199
0.0023539718
0.0023251195
0.0022957389
0.0022658742
0.00223554
0.0022048037
0.0021735045
0.0021414943
0.0021087523
0.0020754232
0.002041413
0.0020064368
0.0019704934
0.0019336142
0.0018957931
0.0018567886
0.0018164248
0.0017747318
0.0017316989
0.001687056
0.0016405317
0.001592183
0.0015418874
0.0014892404
0.0014340213
0.0013762222
0.0013156599
0.0012528505
0.0011899002
0.0011279644
0.0010668498
0.0010064954
0.00094705096
0.00088841129
0.00083037295
0.0007729803
0.0007164553
0.00066078641
0.00060580744
0.00055166807
0.00049850006
0.0004466207
0.00039633406
0.00034763288
0.00030224697
0.00025856722
0.00022879274
0.00019038111
0.00031235076
-0.0002436238
0.0040830543
0.0041028631
0.0041461139
0.0042007697
0.0042651768
0.004339274
0.0044224016
0.0045138398
0.0046132511
0.0047206826
0.0048364811
0.0049612958
0.0050961588
0.0052426304
0.0054029982
0.0055806966
0.0057807201
0.0060114503
0.0062844982
0.0066275971
0.007065594
0.0077617679
0.0086466841
0.012333552
0.0091255407
0.0040802132
0.0039565047
0.0043986192
0.004519055
0.0044672228
0.004393631
0.0043251684
0.0042564514
0.0041871958
0.0041193398
0.0040542631
0.0039925929
0.0039340525
0.0038783639
0.0038253181
0.0037747608
0.0037265348
0.0036803168
0.0036361106
0.003593527
0.003552591
0.0035131842
0.0034748989
0.0034379432
0.0034021724
0.0033672272
0.0033332529
0.0033002257
0.0032679021
0.0032361653
0.0032052071
0.0031749029
0.0031449808
0.0031154963
0.0030865902
0.0030581296
0.0030298899
0.0030019082
0.0029743539
0.0029471263
0.0029199755
0.0028929639
0.0028661745
0.0028396243
0.0028131263
0.0027866285
0.0027601492
0.0027338304
0.0027075719
0.0026811676
0.0026546788