/*--------------------------------*- C++ -*----------------------------------*\
  =========                 |
  \\      /  F ield         | OpenFOAM: The Open Source CFD Toolbox
   \\    /   O peration     | Website:  https://openfoam.org
    \\  /    A nd           | Version:  12
     \\/     M anipulation  |
\*---------------------------------------------------------------------------*/
FoamFile
{
    format      ascii;
    class       surfaceScalarField;
    location    "1700";
    object      phi;
}
// * * * * * * * * * * * * * * * * * * * * * * * * * * * * * * * * * * * * * //

dimensions      [0 3 -1 0 0 0 0];

internalField   nonuniform List<scalar> 
25880
(
2.0046355e-06
1.860034e-11
2.0045776e-06
5.7989434e-11
2.0044875e-06
9.005885e-11
2.0043786e-06
1.0887675e-10
2.0042546e-06
1.2402509e-10
2.0041164e-06
1.3820709e-10
2.0039645e-06
1.5185718e-10
2.0037991e-06
1.6540521e-10
2.0036197e-06
1.7943106e-10
2.0034252e-06
1.9447613e-10
2.0032142e-06
2.1105637e-10
2.0029844e-06
2.297985e-10
2.0027328e-06
2.5152857e-10
2.0024553e-06
2.7755248e-10
2.0021458e-06
3.0946261e-10
2.0017948e-06
3.5100144e-10
2.0013906e-06
4.0423375e-10
2.0009039e-06
4.8667891e-10
2.0003185e-06
5.8544676e-10
1.9994923e-06
8.2615156e-10
1.9984732e-06
1.0190974e-09
1.9957092e-06
2.7640148e-09
1.9934964e-06
2.2128205e-09
1.0255847e-06
9.6791168e-07
4.3159044e-08
9.8242565e-07
2.7395271e-08
1.5763774e-08
2.5371657e-08
2.0236135e-09
2.4558278e-08
8.1337915e-10
2.3977666e-08
5.8061181e-10
2.3480232e-08
4.9743425e-10
2.3040258e-08
4.3997382e-10
2.2646657e-08
3.9360067e-10
2.2290809e-08
3.5584884e-10
2.1965858e-08
3.2495029e-10
2.1666812e-08
2.9904616e-10
2.1389961e-08
2.768507e-10
2.1132388e-08
2.5757332e-10
2.0891697e-08
2.4069127e-10
2.0665899e-08
2.2579757e-10
2.0453337e-08
2.1256178e-10
2.0252611e-08
2.0072614e-10
2.0062515e-08
1.9009659e-10
1.9881997e-08
1.8051809e-10
1.9710148e-08
1.7184902e-10
1.9546165e-08
1.6398244e-10
1.9389354e-08
1.5681146e-10
1.9239105e-08
1.5024889e-10
1.909486e-08
1.4424496e-10
1.8956134e-08
1.3872606e-10
1.88225e-08
1.3363353e-10
1.8693556e-08
1.2894401e-10
1.8568944e-08
1.2461265e-10
1.8448353e-08
1.2059079e-10
1.8331492e-08
1.1686044e-10
1.8218086e-08
1.1340635e-10
1.8107897e-08
1.1018879e-10
1.8000716e-08
1.0718078e-10
1.7896334e-08
1.0438213e-10
1.7794555e-08
1.0177981e-10
1.7695212e-08
9.9342411e-11
1.7598159e-08
9.7053535e-11
1.7503241e-08
9.4917616e-11
1.7410312e-08
9.2928857e-11
1.7319251e-08
9.1061448e-11
1.7229949e-08
8.9301789e-11
1.7142292e-08
8.7656448e-11
1.7056169e-08
8.6123563e-11
1.6971481e-08
8.4687718e-11
1.6888146e-08
8.3335303e-11
1.680608e-08
8.2065681e-11
1.6725197e-08
8.088308e-11
1.6645413e-08
7.9784342e-11
1.6566659e-08
7.8753655e-11
1.6488875e-08
7.7783801e-11
1.6411993e-08
7.6882087e-11
1.6335943e-08
7.6049962e-11
1.6260663e-08
7.5280194e-11
1.6186101e-08
7.45624e-11
1.6112206e-08
7.3895019e-11
1.6038921e-08
7.328456e-11
1.5966188e-08
7.2733125e-11
1.5893956e-08
7.2231477e-11
1.5822185e-08
7.1771923e-11
1.5750826e-08
7.1358395e-11
1.567983e-08
7.0996289e-11
1.5609143e-08
7.0686689e-11
1.5538723e-08
7.0419906e-11
1.5468532e-08
7.0190766e-11
1.5398525e-08
7.0007197e-11
1.5328651e-08
6.9873969e-11
1.5258863e-08
6.9788754e-11
1.5189118e-08
6.9744315e-11
1.5119379e-08
6.9739287e-11
1.5049596e-08
6.9782545e-11
1.4979716e-08
6.9880182e-11
1.4909692e-08
7.0024225e-11
1.4839483e-08
7.0209096e-11
1.4769039e-08
7.0444126e-11
1.4698301e-08
7.0737503e-11
1.4627214e-08
7.1087398e-11
1.4555726e-08
7.1487927e-11
1.4483783e-08
7.19425e-11
1.4411321e-08
7.2462426e-11
1.4338271e-08
7.3050408e-11
1.426457e-08
7.3700488e-11
1.4190153e-08
7.4417039e-11
1.4114938e-08
7.5214705e-11
1.4038842e-08
7.6096013e-11
1.3961785e-08
7.7057077e-11
1.3883677e-08
7.8108451e-11
1.3804408e-08
7.926848e-11
1.3723881e-08
8.0527686e-11
1.3641956e-08
8.1924517e-11
1.3561994e-08
7.9962563e-11
1.348583e-08
7.6163628e-11
1.3413179e-08
7.2651208e-11
1.3343767e-08
6.9411985e-11
1.3277339e-08
6.6427356e-11
1.3213673e-08
6.3666516e-11
1.3152571e-08
6.1101702e-11
1.309385e-08
5.8720788e-11
1.3037337e-08
5.6513016e-11
1.2982881e-08
5.4455991e-11
1.2930351e-08
5.2530383e-11
1.2879621e-08
5.0729547e-11
1.2830572e-08
4.9049122e-11
1.2783086e-08
4.7485874e-11
1.2737061e-08
4.6025231e-11
1.2692382e-08
4.467917e-11
1.2648971e-08
4.3411127e-11
1.2606571e-08
4.2399647e-11
1.2565286e-08
4.1285714e-11
1.25239e-08
4.1385913e-11
1.248443e-08
3.9469779e-11
1.2435774e-08
4.8656111e-11
3.083288e-11
2.0345092e-06
3.7478637e-11
2.0344503e-06
1.1685227e-10
2.0343589e-06
1.8148606e-10
2.0342484e-06
2.1942001e-10
2.0341224e-06
2.4995645e-10
2.0339821e-06
2.7854198e-10
2.0338279e-06
3.0605302e-10
2.0336599e-06
3.3335657e-10
2.0334777e-06
3.6162153e-10
2.0332803e-06
3.9193906e-10
2.033066e-06
4.2534903e-10
2.0328327e-06
4.631144e-10
2.0325773e-06
5.0689974e-10
2.0322955e-06
5.5933651e-10
2.0319814e-06
6.2363336e-10
2.031625e-06
7.0733121e-10
2.0312147e-06
8.1459055e-10
2.0307206e-06
9.807113e-10
2.0301264e-06
1.1797217e-09
2.0292878e-06
1.6647182e-09
2.0282534e-06
2.0534999e-09
2.0254483e-06
5.5690851e-09
2.0232016e-06
4.4595813e-09
1.0969239e-06
1.8941893e-06
1.2954216e-07
1.9498074e-06
8.3825239e-08
6.1480697e-08
7.7635276e-08
8.2135766e-09
7.5144894e-08
3.3037611e-09
7.3366728e-08
2.3587773e-09
7.1844406e-08
2.019757e-09
7.0498197e-08
1.7861827e-09
6.9293878e-08
1.5979193e-09
6.8205064e-08
1.4446626e-09
6.7210807e-08
1.3192071e-09
6.6295824e-08
1.21403e-09
6.5448758e-08
1.1239165e-09
6.4660674e-08
1.0456568e-09
6.3924243e-08
9.7712262e-10
6.323338e-08
9.1666005e-10
6.2583015e-08
8.6292774e-10
6.1968861e-08
8.1487975e-10
6.1387229e-08
7.7172886e-10
6.0834903e-08
7.3284355e-10
6.03091e-08
6.9765177e-10
5.9807367e-08
6.6571602e-10
5.9327573e-08
6.3660491e-10
5.8867857e-08
6.0996491e-10
5.8426512e-08
5.8558996e-10
5.8002053e-08
5.6318569e-10
5.7593173e-08
5.4251338e-10
5.7198642e-08
5.234748e-10
5.6817364e-08
5.0589084e-10
5.644839e-08
4.895646e-10
5.609083e-08
4.7442102e-10
5.5743838e-08
4.6039757e-10
5.5406691e-08
4.4733585e-10
5.5078746e-08
4.3512553e-10
5.4759365e-08
4.2376359e-10
5.4447947e-08
4.1319826e-10
5.4143985e-08
4.0330375e-10
5.3847026e-08
3.9401263e-10
5.3556603e-08
3.8534122e-10
5.3272265e-08
3.7726666e-10
5.299364e-08
3.6968597e-10
5.2720399e-08
3.6254331e-10
5.2452192e-08
3.558635e-10
5.2188675e-08
3.4963996e-10
5.1929552e-08
3.438108e-10
5.1674566e-08
3.383211e-10
5.1423465e-08
3.3316706e-10
5.1175982e-08
3.2836584e-10
5.0931862e-08
3.2390477e-10
5.0690895e-08
3.1972083e-10
5.0452894e-08
3.1578421e-10
5.0217653e-08
3.1212334e-10
4.9984958e-08
3.0874488e-10
4.9754619e-08
3.0561965e-10
4.9526475e-08
3.0270607e-10
4.9300373e-08
2.9999705e-10
4.9076139e-08
2.9751864e-10
4.8853592e-08
2.952796e-10
4.8632581e-08
2.9324311e-10
4.8412975e-08
2.9137799e-10
4.8194634e-08
2.8969924e-10
4.7977401e-08
2.8822911e-10
4.7761116e-08
2.8697188e-10
4.7545647e-08
2.8588904e-10
4.7330878e-08
2.8495929e-10
4.7116671e-08
2.8421397e-10
4.6902872e-08
2.8367296e-10
4.6689334e-08
2.8332688e-10
4.6475932e-08
2.8314677e-10
4.6262544e-08
2.8312666e-10
4.6049025e-08
2.8330224e-10
4.5835207e-08
2.8369833e-10
4.5620948e-08
2.8428326e-10
4.5406122e-08
2.8503422e-10
4.5190578e-08
2.8598838e-10
4.4974136e-08
2.8717928e-10
4.4756624e-08
2.8859975e-10
4.4537886e-08
2.9022609e-10
4.4317757e-08
2.9207173e-10
4.4096037e-08
2.9418239e-10
4.3872518e-08
2.9656941e-10
4.3647009e-08
2.9920883e-10
4.3419308e-08
3.0211806e-10
4.3189167e-08
3.0535627e-10
4.2956329e-08
3.089342e-10
4.2720549e-08
3.1283616e-10
4.2481553e-08
3.1710458e-10
4.2239008e-08
3.218139e-10
4.199261e-08
3.2692607e-10
4.1741937e-08
3.325974e-10
4.1497267e-08
3.2463229e-10
4.1264221e-08
3.0920913e-10
4.1041923e-08
2.9494948e-10
4.0829536e-08
2.817989e-10
4.0626282e-08
2.696818e-10
4.0431475e-08
2.584734e-10
4.0244516e-08
2.4806089e-10
4.0064842e-08
2.383948e-10
3.9891923e-08
2.2943151e-10
3.9725299e-08
2.2108038e-10
3.9564566e-08
2.1326288e-10
3.9409344e-08
2.0595173e-10
3.9259264e-08
1.9912937e-10
3.9113967e-08
1.927826e-10
3.897314e-08
1.8685241e-10
3.8836432e-08
1.8138739e-10
3.8703605e-08
1.7623839e-10
3.8573873e-08
1.7213121e-10
3.8447555e-08
1.6760375e-10
3.8320928e-08
1.6801299e-10
3.8200234e-08
1.6016335e-10
3.8051071e-08
1.9781934e-10
1.2473763e-10
2.0947016e-06
5.6916282e-11
2.094641e-06
1.7746703e-10
2.0945469e-06
2.756481e-10
2.094433e-06
3.3328381e-10
2.0943033e-06
3.7967966e-10
2.0941587e-06
4.2310652e-10
2.0939999e-06
4.6489715e-10
2.0938269e-06
5.0636957e-10
2.0936392e-06
5.4929975e-10
2.0934358e-06
5.9534525e-10
2.093215e-06
6.4608559e-10
2.0929747e-06
7.0343906e-10
2.0927117e-06
7.6993377e-10
2.0924215e-06
8.4956615e-10
2.0920979e-06
9.4720912e-10
2.0917309e-06
1.0743147e-09
2.0913083e-06
1.2372011e-09
2.0907995e-06
1.4894759e-09
2.0901875e-06
1.7916969e-09
2.089324e-06
2.5282208e-09
2.0882589e-06
3.1186263e-09
2.085371e-06
8.4570403e-09
2.0830576e-06
6.7729555e-09
1.1858366e-06
2.7914103e-06
2.2106349e-07
2.9145805e-06
1.4526957e-07
1.3727461e-07
1.3454162e-07
1.8941536e-08
1.3022368e-07
7.6216947e-09
1.2714015e-07
5.4423105e-09
1.2450179e-07
4.6581147e-09
1.2216905e-07
4.1189262e-09
1.200822e-07
3.6847711e-09
1.1819547e-07
3.3313841e-09
1.1647262e-07
3.042065e-09
1.1488714e-07
2.7995081e-09
1.1341935e-07
2.5917001e-09
1.1205377e-07
2.4112385e-09
1.1077769e-07
2.253206e-09
1.0958056e-07
2.1137852e-09
1.0845361e-07
1.9898832e-09
1.073894e-07
1.8790892e-09
1.0638154e-07
1.7795883e-09
1.0542446e-07
1.689922e-09
1.0451334e-07
1.6087744e-09
1.0364392e-07
1.5351326e-09
1.0281252e-07
1.4680052e-09
1.0201591e-07
1.4065775e-09
1.0125113e-07
1.3503689e-09
1.0051561e-07
1.2987068e-09
9.9807083e-08
1.25104e-09
9.912342e-08
1.207137e-09
9.8462722e-08
1.1665891e-09
9.7823343e-08
1.1289434e-09
9.7203741e-08
1.0940236e-09
9.6602454e-08
1.0616846e-09
9.6018224e-08
1.0315656e-09
9.5449939e-08
1.003411e-09
9.4896492e-08
9.7721033e-10
9.4356844e-08
9.528458e-10
9.3830118e-08
9.300303e-10
9.3315523e-08
9.086069e-10
9.2812254e-08
8.8861047e-10
9.2319531e-08
8.6998946e-10
9.1836708e-08
8.5250928e-10
9.1363211e-08
8.3604011e-10
9.0898438e-08
8.2063636e-10
9.0441794e-08
8.0628415e-10
8.9992763e-08
7.9284219e-10
8.95509e-08
7.8018419e-10
8.9115767e-08
7.6829959e-10
8.8686905e-08
7.5722768e-10
8.826387e-08
7.4693972e-10
8.7846299e-08
7.3729226e-10
8.7433868e-08
7.2821562e-10
8.7026217e-08
7.1977355e-10
8.662298e-08
7.1198237e-10
8.6223824e-08
7.0477544e-10
8.5828473e-08
6.9805755e-10
8.5436658e-08
6.9181123e-10
8.5048081e-08
6.8609594e-10
8.4662429e-08
6.8093218e-10
8.4279435e-08
6.7623624e-10
8.3898877e-08
6.7193621e-10
8.3520511e-08
6.6806532e-10
8.3144065e-08
6.6467508e-10
8.2769262e-08
6.6177549e-10
8.2395872e-08
6.5927893e-10
8.2023695e-08
6.5713586e-10
8.1652492e-08
6.5541722e-10
8.1281995e-08
6.541695e-10
8.0911951e-08
6.5337138e-10
8.0542141e-08
6.5295669e-10
8.0172357e-08
6.5291097e-10
7.9802343e-08
6.5331595e-10
7.9431812e-08
6.5422904e-10
7.9060517e-08
6.5557832e-10
7.868824e-08
6.5731093e-10
7.8314717e-08
6.5951146e-10
7.7939639e-08
6.6225765e-10
7.7562705e-08
6.6553346e-10
7.7183647e-08
6.6928456e-10
7.6802177e-08
6.7354118e-10
7.6417951e-08
6.784085e-10
7.6030607e-08
6.8391321e-10
7.5639816e-08
6.9000047e-10
7.5245224e-08
6.9670984e-10
7.4846403e-08
7.0417734e-10
7.4442909e-08
7.1242852e-10
7.4034317e-08
7.2142734e-10
7.3620151e-08
7.3127092e-10
7.3199834e-08
7.4213095e-10
7.277284e-08
7.5392035e-10
7.2338437e-08
7.6699986e-10
7.1914438e-08
7.486318e-10
7.1510582e-08
7.1306437e-10
7.1125351e-08
6.8018054e-10
7.0757296e-08
6.4985426e-10
7.0405067e-08
6.2191108e-10
7.0067477e-08
5.9606366e-10
6.9743486e-08
5.7205175e-10
6.943212e-08
5.4976085e-10
6.9132461e-08
5.2909046e-10
6.8843709e-08
5.0983201e-10
6.8565168e-08
4.9180428e-10
6.8296175e-08
4.7494395e-10
6.8036094e-08
4.5921068e-10
6.7784303e-08
4.4457396e-10
6.7540257e-08
4.3089797e-10
6.730335e-08
4.1829447e-10
6.7073169e-08
4.0641902e-10
6.6848356e-08
3.9694474e-10
6.6629461e-08
3.8649827e-10
6.6410039e-08
3.8743526e-10
6.6200946e-08
3.6925657e-10
6.5942259e-08
4.5650628e-10
2.8717451e-10
2.1861099e-06
7.720308e-11
2.1860467e-06
2.4073894e-10
2.1859484e-06
3.7395374e-10
2.1858295e-06
4.5217439e-10
2.185694e-06
5.1514038e-10
2.185543e-06
5.7406984e-10
2.1853772e-06
6.3077313e-10
2.1851965e-06
6.870402e-10
2.1850005e-06
7.4528119e-10
2.1847881e-06
8.0774522e-10
2.1845576e-06
8.7657537e-10
2.1843067e-06
9.5437408e-10
2.1840321e-06
1.0445709e-09
2.183729e-06
1.1525872e-09
2.1833912e-06
1.2850328e-09
2.1830081e-06
1.4574419e-09
2.1825669e-06
1.6783848e-09
2.1820358e-06
2.0205762e-09
2.181397e-06
2.4305144e-09
2.1804957e-06
3.4295508e-09
2.1793839e-06
4.2303729e-09
2.1763701e-06
1.1470833e-08
2.1739556e-06
9.1874357e-09
1.2959437e-06
3.6694222e-06
3.2283014e-07
3.8876941e-06
2.153795e-07
2.4472525e-07
1.994794e-07
3.484163e-08
1.9307315e-07
1.4027951e-08
1.8849907e-07
1.0016388e-08
1.8458764e-07
8.5695448e-09
1.8112987e-07
7.5766984e-09
1.780366e-07
6.7780361e-09
1.7523993e-07
6.1280531e-09
1.7268616e-07
5.5958417e-09
1.7033602e-07
5.1496416e-09
1.6816034e-07
4.76738e-09
1.6613614e-07
4.4354389e-09
1.6424459e-07
4.1447585e-09
1.6247007e-07
3.88831e-09
1.6079954e-07
3.6604049e-09
1.5922202e-07
3.456611e-09
1.5772802e-07
3.2735903e-09
1.5630929e-07
3.1086572e-09
1.5495866e-07
2.9593955e-09
1.5366986e-07
2.8239364e-09
1.524374e-07
2.7004615e-09
1.5125651e-07
2.5874725e-09
1.501228e-07
2.4840778e-09
1.4903246e-07
2.389049e-09
1.4798213e-07
2.3013719e-09
1.4696865e-07
2.2206126e-09
1.4598921e-07
2.1460257e-09
1.4504138e-07
2.0767807e-09
1.4412285e-07
2.0125476e-09
1.4323148e-07
1.9530586e-09
1.4236539e-07
1.8976565e-09
1.4152293e-07
1.8458699e-09
1.4070247e-07
1.7976733e-09
1.3990246e-07
1.7528531e-09
1.391216e-07
1.7108857e-09
1.3835873e-07
1.6714802e-09
1.3761264e-07
1.6346963e-09
1.3688219e-07
1.6004409e-09
1.3616642e-07
1.5682873e-09
1.3546446e-07
1.537995e-09
1.3477544e-07
1.5096595e-09
1.3409846e-07
1.4832571e-09
1.3343278e-07
1.4585306e-09
1.3277771e-07
1.4352481e-09
1.3213262e-07
1.4133873e-09
1.3149683e-07
1.3930199e-09
1.3086968e-07
1.374094e-09
1.3025062e-07
1.3563485e-09
1.2963918e-07
1.3396539e-09
1.2903483e-07
1.3241247e-09
1.2843702e-07
1.309792e-09
1.2784526e-07
1.2965346e-09
1.2725914e-07
1.2841785e-09
1.2667826e-07
1.2726897e-09
1.2610218e-07
1.2621763e-09
1.2553044e-07
1.2526769e-09
1.2496264e-07
1.2440393e-09
1.2439844e-07
1.2361311e-09
1.2383749e-07
1.2290114e-09
1.2327939e-07
1.2227751e-09
1.2272373e-07
1.217441e-09
1.2217016e-07
1.2128497e-09
1.2161838e-07
1.2089094e-09
1.2106805e-07
1.2057486e-09
1.2051877e-07
1.2034536e-09
1.1997015e-07
1.2019859e-09
1.1942189e-07
1.2012247e-09
1.1887366e-07
1.2011423e-09
1.1832508e-07
1.2018881e-09
1.1777574e-07
1.203568e-09
1.1722527e-07
1.2060514e-09
1.1667334e-07
1.2092409e-09
1.1611956e-07
1.2132901e-09
1.1556348e-07
1.2183425e-09
1.1500464e-07
1.2243698e-09
1.1444265e-07
1.2312723e-09
1.1387709e-07
1.2391045e-09
1.1330744e-07
1.2480593e-09
1.1273317e-07
1.258187e-09
1.1215378e-07
1.2693872e-09
1.1156876e-07
1.2817317e-09
1.1097746e-07
1.2954702e-09
1.1037924e-07
1.3106508e-09
1.0977346e-07
1.3272074e-09
1.0915942e-07
1.3453178e-09
1.0853625e-07
1.3652975e-09
1.0790318e-07
1.3869877e-09
1.0725913e-07
1.4110523e-09
1.066305e-07
1.3772616e-09
1.0603174e-07
1.3118283e-09
1.0546058e-07
1.2513327e-09
1.049149e-07
1.1955421e-09
1.0439267e-07
1.1441352e-09
1.0389215e-07
1.0965842e-09
1.0341179e-07
1.0524102e-09
1.0295015e-07
1.0114017e-09
1.0250587e-07
9.7337416e-10
1.0207776e-07
9.3794451e-10
1.0166478e-07
9.0477922e-10
1.0126596e-07
8.7376111e-10
1.0088036e-07
8.4481611e-10
1.0050704e-07
8.1788812e-10
1.0014521e-07
7.9272769e-10
9.9793968e-08
7.6953971e-10
9.9452697e-08
7.476904e-10
9.9119388e-08
7.3025422e-10
9.8794856e-08
7.1102997e-10
9.8469562e-08
7.127291e-10
9.8159608e-08
6.7921022e-10
9.7775952e-08
8.4016264e-10
5.2783761e-10
2.3100962e-06
9.8641536e-11
2.3100294e-06
3.0761345e-10
2.3099254e-06
4.778755e-10
2.3097997e-06
5.7787629e-10
2.3096565e-06
6.5837434e-10
2.3094969e-06
7.337018e-10
2.3093215e-06
8.0617535e-10
2.3091304e-06
8.7808497e-10
2.3089232e-06
9.525118e-10
2.3086986e-06
1.0323306e-09
2.3084549e-06
1.1202802e-09
2.3081896e-06
1.2196865e-09
2.3078992e-06
1.3349319e-09
2.3075789e-06
1.4729435e-09
2.3072217e-06
1.6421672e-09
2.3068167e-06
1.8624511e-09
2.3063504e-06
2.1447453e-09
2.305789e-06
2.5819565e-09
2.3051138e-06
3.1057245e-09
2.3041612e-06
4.3821714e-09
2.3029862e-06
5.4053388e-09
2.2998018e-06
1.4655266e-08
2.2972502e-06
1.1739e-08
1.4311187e-06
4.5355537e-06
4.4021941e-07
4.8785934e-06
2.9829054e-07
3.8665413e-07
2.7628722e-07
5.6844947e-08
2.6740598e-07
2.290919e-08
2.6106945e-07
1.6352923e-08
2.5565432e-07
1.3984671e-08
2.5086805e-07
1.2362974e-08
2.4658631e-07
1.1059778e-08
2.4271498e-07
9.9993782e-09
2.3917983e-07
9.1309945e-09
2.3592654e-07
8.4029284e-09
2.3291471e-07
7.7792119e-09
2.3011252e-07
7.2376249e-09
2.2749392e-07
6.7633628e-09
2.2503728e-07
6.3449467e-09
2.2272459e-07
5.9730968e-09
2.2054061e-07
5.6405859e-09
2.1847224e-07
5.3419679e-09
2.1650804e-07
5.0728582e-09
2.1463811e-07
4.8293192e-09
2.1285375e-07
4.6082958e-09
2.1114739e-07
4.4068276e-09
2.0951239e-07
4.2224706e-09
2.0794271e-07
4.0537596e-09
2.0643305e-07
3.8987028e-09
2.0497878e-07
3.7556447e-09
2.0357553e-07
3.6238665e-09
2.0221939e-07
3.5021605e-09
2.00907e-07
3.389176e-09
1.9963518e-07
3.2843656e-09
1.9840095e-07
3.1872914e-09
1.9720171e-07
3.096891e-09
1.9603519e-07
3.0123929e-09
1.9489911e-07
2.9337466e-09
1.9379136e-07
2.8606075e-09
1.9271012e-07
2.7921289e-09
1.9165376e-07
2.7278325e-09
1.9062065e-07
2.6678086e-09
1.8960919e-07
2.6119083e-09
1.8861803e-07
2.5594426e-09
1.8764601e-07
2.5100165e-09
1.8669189e-07
2.4637789e-09
1.8575445e-07
2.4206937e-09
1.8483264e-07
2.3803456e-09
1.8392553e-07
2.3423567e-09
1.8303223e-07
2.3066864e-09
1.821518e-07
2.2734502e-09
1.8128333e-07
2.2425656e-09
1.8042607e-07
2.2136109e-09
1.7957935e-07
2.1863724e-09
1.7874244e-07
2.1610324e-09
1.7791459e-07
2.1376437e-09
1.7709511e-07
2.1160109e-09
1.7628344e-07
2.0958511e-09
1.7547902e-07
2.0771066e-09
1.7468125e-07
2.0599517e-09
1.7388947e-07
2.0444503e-09
1.7310315e-07
2.0303573e-09
1.7232183e-07
2.0174566e-09
1.71545e-07
2.0058412e-09
1.7077211e-07
1.995666e-09
1.7000259e-07
1.9869626e-09
1.6923596e-07
1.9794738e-09
1.6847182e-07
1.9730484e-09
1.6770968e-07
1.9678932e-09
1.6694898e-07
1.9641499e-09
1.6618921e-07
1.9617575e-09
1.6542992e-07
1.9605198e-09
1.6467067e-07
1.9603901e-09
1.6391095e-07
1.9616102e-09
1.6315016e-07
1.9643541e-09
1.623878e-07
1.9684113e-09
1.6162342e-07
1.9736218e-09
1.6085648e-07
1.980234e-09
1.6008634e-07
1.9884828e-09
1.5931238e-07
1.9983233e-09
1.5853406e-07
2.0095935e-09
1.5775078e-07
2.0223807e-09
1.5696184e-07
2.0369991e-09
1.561665e-07
2.0535319e-09
1.5536407e-07
2.0718166e-09
1.5455383e-07
2.0919688e-09
1.5373491e-07
2.114395e-09
1.5290638e-07
2.1391754e-09
1.5206739e-07
2.166203e-09
1.5121694e-07
2.1957658e-09
1.5035386e-07
2.2283789e-09
1.4947706e-07
2.263785e-09
1.4858505e-07
2.3030682e-09
1.4771439e-07
2.2479203e-09
1.4688509e-07
2.1411249e-09
1.4609403e-07
2.0423891e-09
1.4533824e-07
1.9513322e-09
1.4461495e-07
1.8674295e-09
1.4392171e-07
1.7898207e-09
1.432564e-07
1.7177235e-09
1.4261701e-07
1.6507921e-09
1.4200166e-07
1.5887253e-09
1.414087e-07
1.5308991e-09
1.4083671e-07
1.476769e-09
1.4028433e-07
1.4261426e-09
1.3975025e-07
1.3788993e-09
1.3923319e-07
1.3349474e-09
1.3873204e-07
1.2938807e-09
1.3824554e-07
1.256032e-09
1.3777287e-07
1.2203677e-09
1.3731122e-07
1.1918973e-09
1.3686174e-07
1.1605144e-09
1.3641123e-07
1.163236e-09
1.3598199e-07
1.1084545e-09
1.3545052e-07
1.3716349e-09
8.6105872e-10
2.4685083e-06
1.2155139e-10
2.4684368e-06
3.7909062e-10
2.4683257e-06
5.8897215e-10
2.4681913e-06
7.1227989e-10
2.4680381e-06
8.1153888e-10
2.4678674e-06
9.0440825e-10
2.4676798e-06
9.9374772e-10
2.4674755e-06
1.0823832e-09
2.4672539e-06
1.1741138e-09
2.4670138e-06
1.2724834e-09
2.4667532e-06
1.3808681e-09
2.4664695e-06
1.503367e-09
2.4661591e-06
1.6453811e-09
2.4658166e-06
1.815447e-09
2.4654348e-06
2.0239727e-09
2.4650018e-06
2.2954165e-09
2.4645033e-06
2.6432715e-09
2.4639032e-06
3.1820227e-09
2.4631815e-06
3.8274299e-09
2.4621633e-06
5.4003211e-09
2.4609076e-06
6.6610765e-09
2.4575052e-06
1.8057645e-08
2.4547786e-06
1.4465631e-08
1.5955945e-06
5.3947378e-06
5.7907691e-07
5.895111e-06
3.9881525e-07
5.6691579e-07
3.6944166e-07
8.6218534e-08
3.5755222e-07
3.4798634e-08
3.4908241e-07
2.4822733e-08
3.4184936e-07
2.1217719e-08
3.3545727e-07
1.8755063e-08
3.297388e-07
1.6778248e-08
3.2456812e-07
1.5170056e-08
3.1984625e-07
1.3852869e-08
3.1550071e-07
1.2748468e-08
3.1147755e-07
1.1802375e-08
3.0773428e-07
1.0980891e-08
3.0423612e-07
1.0261526e-08
3.0095421e-07
9.6268548e-09
2.978645e-07
9.0628043e-09
2.9494667e-07
8.5584206e-09
2.9218319e-07
8.1054437e-09
2.8955883e-07
7.6972204e-09
2.8706036e-07
7.3277858e-09
2.8467616e-07
6.9924939e-09
2.8239612e-07
6.6868683e-09
2.8021139e-07
6.4072007e-09
2.781139e-07
6.1512544e-09
2.7609658e-07
5.9160262e-09
2.7415322e-07
5.6990045e-09
2.72278e-07
5.4990822e-09
2.7046572e-07
5.3144404e-09
2.6871186e-07
5.143037e-09
2.670122e-07
4.9840284e-09
2.6536274e-07
4.8367484e-09
2.6376003e-07
4.6996007e-09
2.6220101e-07
4.5714117e-09
2.6068267e-07
4.452091e-09
2.5920215e-07
4.3411219e-09
2.5775705e-07
4.2372317e-09
2.5634519e-07
4.1396892e-09
2.5496438e-07
4.0486204e-09
2.5361248e-07
3.9638044e-09
2.5228772e-07
3.884207e-09
2.5098851e-07
3.8092246e-09
2.4971322e-07
3.7390731e-09
2.4846021e-07
3.6737009e-09
2.4722807e-07
3.6124857e-09
2.4601557e-07
3.5548541e-09
2.4482152e-07
3.5007386e-09
2.4364466e-07
3.4503117e-09
2.4248377e-07
3.403452e-09
2.4133786e-07
3.3595258e-09
2.4020602e-07
3.3182059e-09
2.390873e-07
3.2797618e-09
2.3798066e-07
3.2442762e-09
2.3688522e-07
3.2114568e-09
2.3580019e-07
3.1808762e-09
2.3472486e-07
3.1524431e-09
2.3365839e-07
3.1264186e-09
2.3259994e-07
3.1029016e-09
2.3154877e-07
3.0815248e-09
2.3050427e-07
3.06196e-09
2.2946576e-07
3.0443437e-09
2.2843252e-07
3.0289103e-09
2.2740377e-07
3.01571e-09
2.2637889e-07
3.0043562e-09
2.2535732e-07
2.9946181e-09
2.2433841e-07
2.9868045e-09
2.2332143e-07
2.9811322e-09
2.2230567e-07
2.977511e-09
2.2129055e-07
2.9756447e-09
2.2027548e-07
2.9754603e-09
2.1925977e-07
2.9773222e-09
2.1824262e-07
2.9814953e-09
2.1722337e-07
2.9876645e-09
2.1620141e-07
2.995586e-09
2.1517601e-07
3.0056327e-09
2.1414633e-07
3.0181618e-09
2.1311154e-07
3.0331082e-09
2.1207091e-07
3.0502266e-09
2.1102364e-07
3.0696472e-09
2.099688e-07
3.0918453e-09
2.0890538e-07
3.1169498e-09
2.0783248e-07
3.1447155e-09
2.0674913e-07
3.1753157e-09
2.0565416e-07
3.2093658e-09
2.0454635e-07
3.2469905e-09
2.0342452e-07
3.2880278e-09
2.0228738e-07
3.3329125e-09
2.0113333e-07
3.3824265e-09
1.9996093e-07
3.4361819e-09
1.9876818e-07
3.4958248e-09
1.9760397e-07
3.4121285e-09
1.9649506e-07
3.2500331e-09
1.9543728e-07
3.1001711e-09
1.9442665e-07
2.9619638e-09
1.9345946e-07
2.8346142e-09
1.9253246e-07
2.7168178e-09
1.916428e-07
2.6073874e-09
1.907878e-07
2.505796e-09
1.8996493e-07
2.4115873e-09
1.8917202e-07
2.323816e-09
1.8840713e-07
2.2416549e-09
1.8766846e-07
2.1648107e-09
1.8695426e-07
2.0931004e-09
1.8626282e-07
2.0263853e-09
1.8559266e-07
1.9640495e-09
1.8494209e-07
1.9065963e-09
1.8431e-07
1.8524579e-09
1.8369268e-07
1.8092237e-09
1.8309161e-07
1.7615822e-09
1.8248922e-07
1.7656231e-09
1.8191527e-07
1.6824001e-09
1.8120448e-07
2.0824268e-09
1.3065986e-09
2.6637067e-06
1.4627438e-10
2.6636295e-06
4.5624015e-10
2.6635096e-06
7.0891258e-10
2.6633644e-06
8.5741074e-10
2.663199e-06
9.7694665e-10
2.6630147e-06
1.0887688e-09
2.6628121e-06
1.1963252e-09
2.6625915e-06
1.3030221e-09
2.6623521e-06
1.4134346e-09
2.6620928e-06
1.5318292e-09
2.6618114e-06
1.6622702e-09
2.6615051e-06
1.8096917e-09
2.6611698e-06
1.9805943e-09
2.6608e-06
2.1852517e-09
2.6603878e-06
2.4361893e-09
2.6599204e-06
2.762841e-09
2.6593822e-06
3.1814443e-09
2.6587345e-06
3.8297694e-09
2.6579555e-06
4.6064395e-09
2.6568566e-06
6.4992281e-09
2.6555013e-06
8.0163555e-09
2.6518305e-06
2.1728464e-08
2.6488882e-06
1.7407901e-08
1.7940221e-06
6.2496039e-06
7.4585783e-07
6.9432753e-06
5.2262827e-07
7.9014535e-07
4.8423472e-07
1.2461208e-07
4.6863641e-07
5.0396941e-08
4.575504e-07
3.590875e-08
4.4809086e-07
3.0677257e-08
4.3973227e-07
2.7113651e-08
4.3225393e-07
2.4256585e-08
4.2549119e-07
2.1932795e-08
4.193149e-07
2.0029161e-08
4.1363043e-07
1.8432936e-08
4.0836728e-07
1.7065529e-08
4.0346993e-07
1.5878242e-08
3.9889292e-07
1.4838534e-08
3.9459858e-07
1.3921199e-08
3.9055548e-07
1.3105905e-08
3.8673706e-07
1.2376836e-08
3.8312045e-07
1.1722058e-08
3.7968571e-07
1.1131953e-08
3.7641559e-07
1.0597907e-08
3.7329488e-07
1.0113202e-08
3.7031038e-07
9.6713764e-09
3.674505e-07
9.2670735e-09
3.6470472e-07
8.8970408e-09
3.6206378e-07
8.5569635e-09
3.5951957e-07
8.2432111e-09
3.570645e-07
7.9541598e-09
3.5469174e-07
7.6871991e-09
3.5239539e-07
7.4393879e-09
3.5016993e-07
7.2094868e-09
3.4801014e-07
6.9965309e-09
3.4591151e-07
6.7982347e-09
3.4387003e-07
6.6128968e-09
3.4188175e-07
6.4403668e-09
3.3994297e-07
6.2799065e-09
3.380505e-07
6.1296934e-09
3.3620153e-07
5.9886621e-09
3.3439317e-07
5.856979e-09
3.3262264e-07
5.7343316e-09
3.3088761e-07
5.6192417e-09
3.29186e-07
5.5108298e-09
3.2751568e-07
5.4093931e-09
3.2587452e-07
5.3148624e-09
3.2426066e-07
5.2263487e-09
3.2267249e-07
5.1430236e-09
3.2110845e-07
5.0647802e-09
3.195669e-07
4.9918642e-09
3.1804624e-07
4.9241056e-09
3.1654517e-07
4.8605975e-09
3.1506252e-07
4.8008615e-09
3.13597e-07
4.7452776e-09
3.1214731e-07
4.693969e-09
3.1071224e-07
4.6465195e-09
3.0929081e-07
4.6023136e-09
3.0788204e-07
4.5612134e-09
3.0648486e-07
4.5235915e-09
3.0509817e-07
4.4895942e-09
3.03721e-07
4.4586975e-09
3.0235253e-07
4.4304258e-09
3.0099191e-07
4.4049696e-09
2.9963815e-07
4.3826675e-09
2.9829026e-07
4.3635949e-09
2.9694742e-07
4.3471987e-09
2.956089e-07
4.3331425e-09
2.9427384e-07
4.321866e-09
2.9294128e-07
4.313685e-09
2.9161032e-07
4.308473e-09
2.9028016e-07
4.3058041e-09
2.8895005e-07
4.3055692e-09
2.8761908e-07
4.3082911e-09
2.8628622e-07
4.3143553e-09
2.8495058e-07
4.3233121e-09
2.8361136e-07
4.3348074e-09
2.8226761e-07
4.3493744e-09
2.8091824e-07
4.3675315e-09
2.7956216e-07
4.3891887e-09
2.781984e-07
4.413992e-09
2.7682592e-07
4.4421263e-09
2.7544349e-07
4.4742775e-09
2.740498e-07
4.5106357e-09
2.7264367e-07
4.5508484e-09
2.7122382e-07
4.5951631e-09
2.6978872e-07
4.6444683e-09
2.6833676e-07
4.6989486e-09
2.6686642e-07
4.7583708e-09
2.6537597e-07
4.8233601e-09
2.6386335e-07
4.8950479e-09
2.6232665e-07
4.9728779e-09
2.6076324e-07
5.0592329e-09
2.5923723e-07
4.93814e-09
2.5778369e-07
4.7035791e-09
2.5639714e-07
4.4867208e-09
2.5507237e-07
4.286726e-09
2.5380455e-07
4.1024405e-09
2.5258939e-07
3.9319795e-09
2.5142315e-07
3.7736242e-09
2.5030234e-07
3.62661e-09
2.4922365e-07
3.4902773e-09
2.481842e-07
3.3632611e-09
2.4718149e-07
3.2443636e-09
2.4621314e-07
3.1331583e-09
2.4527686e-07
3.0293806e-09
2.4437042e-07
2.93283e-09
2.4349185e-07
2.8426172e-09
2.4263898e-07
2.7594669e-09
2.4181033e-07
2.6811131e-09
2.4100103e-07
2.6185149e-09
2.4021305e-07
2.5495627e-09
2.3942341e-07
2.5552668e-09
2.3867105e-07
2.4347583e-09
2.3773914e-07
3.0143407e-09
1.8906813e-09
2.8986004e-06
1.7317936e-10
2.8985164e-06
5.4021767e-10
2.8983858e-06
8.3950156e-10
2.8982277e-06
1.0154612e-09
2.8980476e-06
1.1571021e-09
2.8978468e-06
1.2895776e-09
2.8976261e-06
1.4169788e-09
2.8973858e-06
1.5433458e-09
2.8971251e-06
1.6740994e-09
2.8968427e-06
1.8142939e-09
2.8965362e-06
1.9687429e-09
2.8962026e-06
2.1432897e-09
2.8958376e-06
2.3456318e-09
2.8954349e-06
2.5879339e-09
2.894986e-06
2.8850262e-09
2.8944771e-06
3.2717572e-09
2.8938912e-06
3.767351e-09
2.8931861e-06
4.5349186e-09
2.8923381e-06
5.4544325e-09
2.891142e-06
7.6953409e-09
2.8896669e-06
9.4914468e-09
2.8856732e-06
2.5722135e-08
2.8824715e-06
2.0609575e-08
2.0314803e-06
7.1005951e-06
9.4768827e-07
8.0270673e-06
6.7640429e-07
1.0614293e-06
6.2691211e-07
1.7410427e-07
6.067187e-07
7.0590353e-08
5.9241074e-07
5.0216702e-08
5.8021356e-07
4.2874437e-08
5.6943706e-07
3.789015e-08
5.59794e-07
3.3899653e-08
5.5107202e-07
3.0654773e-08
5.4310514e-07
2.7996039e-08
5.3577165e-07
2.5766431e-08
5.2898078e-07
2.38564e-08
5.2266106e-07
2.2197958e-08
5.1675399e-07
2.0745606e-08
5.1121108e-07
1.946411e-08
5.0599189e-07
1.8325093e-08
5.0106223e-07
1.730649e-08
4.9639266e-07
1.6391636e-08
4.9195751e-07
1.5567103e-08
4.8773454e-07
1.4820872e-08
4.837042e-07
1.4143547e-08
4.7984945e-07
1.3526125e-08
4.761554e-07
1.2961125e-08
4.7260846e-07
1.2443978e-08
4.6919673e-07
1.1968692e-08
4.6590974e-07
1.1530197e-08
4.6273771e-07
1.1126191e-08
4.5967186e-07
1.0753054e-08
4.5670455e-07
1.0406693e-08
4.5382869e-07
1.0085347e-08
4.5103756e-07
9.7876655e-09
4.4832531e-07
9.5104878e-09
4.4568677e-07
9.2514295e-09
4.4311689e-07
9.0102516e-09
4.4061086e-07
8.7859361e-09
4.3816459e-07
8.5759612e-09
4.3577443e-07
8.378826e-09
4.3343667e-07
8.1947401e-09
4.3114772e-07
8.0232773e-09
4.2890457e-07
7.862396e-09
4.2670454e-07
7.7108575e-09
4.2454488e-07
7.5690554e-09
4.2242284e-07
7.4369007e-09
4.2033602e-07
7.3131673e-09
4.1828234e-07
7.1966972e-09
4.162598e-07
7.0873281e-09
4.1426626e-07
6.9853979e-09
4.1229969e-07
6.8906777e-09
4.1035838e-07
6.8019126e-09
4.0844081e-07
6.7184266e-09
4.0654535e-07
6.6407369e-09
4.046703e-07
6.5690209e-09
4.0281411e-07
6.5027064e-09
4.0097549e-07
6.4409361e-09
3.9915319e-07
6.3835093e-09
3.9734585e-07
6.3309398e-09
3.95552e-07
6.2834369e-09
3.9377042e-07
6.240278e-09
3.9200005e-07
6.2007971e-09
3.9023977e-07
6.1652507e-09
3.8848833e-07
6.1341111e-09
3.8674443e-07
6.1074889e-09
3.8500701e-07
6.084619e-09
3.8327513e-07
6.0650267e-09
3.8154768e-07
6.0493178e-09
3.7982343e-07
6.0379366e-09
3.7810119e-07
6.0307129e-09
3.7637994e-07
6.0270536e-09
3.746587e-07
6.026802e-09
3.7293631e-07
6.0306827e-09
3.7121143e-07
6.0392388e-09
3.6948289e-07
6.0518501e-09
3.6774968e-07
6.068019e-09
3.6601057e-07
6.0884828e-09
3.6426413e-07
6.1139691e-09
3.6250896e-07
6.1443584e-09
3.607438e-07
6.179157e-09
3.5896731e-07
6.2186182e-09
3.5717788e-07
6.2636994e-09
3.5537385e-07
6.3146723e-09
3.5355365e-07
6.3710471e-09
3.5171565e-07
6.4331655e-09
3.4985785e-07
6.5022683e-09