/*--------------------------------*- C++ -*----------------------------------*\
  =========                 |
  \\      /  F ield         | OpenFOAM: The Open Source CFD Toolbox
   \\    /   O peration     | Website:  https://openfoam.org
    \\  /    A nd           | Version:  12
     \\/     M anipulation  |
\*---------------------------------------------------------------------------*/
FoamFile
{
    format      ascii;
    class       volVectorField;
    location    "1700";
    object      U;
}
// * * * * * * * * * * * * * * * * * * * * * * * * * * * * * * * * * * * * * //

dimensions      [0 1 -1 0 0 0 0];

internalField   nonuniform List<vector> 
13056
(
(1 2.3211287e-10 8.7669279e-25)
(0.99998255 8.2135157e-10 0)
(0.99994351 1.4474901e-09 0)
(0.99989339 1.9852722e-09 0)
(0.99983537 2.5647645e-09 0)
(0.99977009 3.2399139e-09 0)
(0.9996979 4.0332727e-09 0)
(0.99961898 4.9736145e-09 0)
(0.99953326 6.1025585e-09 0)
(0.99944035 7.472187e-09 0)
(0.99933963 9.1469748e-09 0)
(0.9992302 1.1211708e-08 0)
(0.99911081 1.3780903e-08 0)
(0.99897973 1.7023149e-08 0)
(0.99883442 2.1164208e-08 0)
(0.99867154 2.663682e-08 0)
(0.99848491 3.3835873e-08 0)
(0.9982689 4.4605479e-08 0)
(0.99800056 5.8241717e-08 0)
(0.99768512 8.8295251e-08 0)
(0.99718011 1.1562833e-07 0)
(0.99666526 3.2852481e-07 0)
(0.99444567 2.7146329e-07 -2.5938823e-21)
(0.99442355 0.00011935712 2.7954274e-16)
(0.028572102 0.00012494287 0)
(0.014421283 4.683781e-07 -9.8627627e-20)
(0.012904091 1.8957202e-07 1.6220711e-17)
(0.012407503 1.9919153e-08 1.6445549e-21)
(0.012092369 1.4136703e-08 0)
(0.011828374 1.2020896e-08 0)
(0.011596243 1.0541546e-08 0)
(0.011389537 9.3397217e-09 0)
(0.011203628 8.3613503e-09 0)
(0.011034573 7.5592732e-09 0)
(0.010879483 6.8854229e-09 0)
(0.010736264 6.3072147e-09 0)
(0.010603312 5.8044035e-09 0)
(0.010479321 5.3636497e-09 0)
(0.010363207 4.9744153e-09 0)
(0.010254072 4.6281628e-09 0)
(0.010151161 4.3182042e-09 0)
(0.010053831 4.0394258e-09 0)
(0.0099615225 3.7878406e-09 0)
(0.0098737483 3.5596344e-09 0)
(0.0097900862 3.3521408e-09 0)
(0.0097101591 3.1625193e-09 0)
(0.0096336503 2.9885131e-09 0)
(0.0095602688 2.8288743e-09 0)
(0.0094897495 2.6815903e-09 0)
(0.0094218732 2.5452167e-09 0)
(0.0093564332 2.4191249e-09 0)
(0.0092932351 2.3020672e-09 0)
(0.0092321158 2.1928817e-09 0)
(0.0091729293 2.091073e-09 0)
(0.0091155309 1.9961744e-09 0)
(0.0090597902 1.9071904e-09 0)
(0.0090056013 1.8235088e-09 0)
(0.0089528609 1.7450331e-09 0)
(0.0089014637 1.6713487e-09 0)
(0.0088513192 1.6017469e-09 0)
(0.0088023533 1.5358668e-09 0)
(0.0087544918 1.4737048e-09 0)
(0.0087076564 1.4150321e-09 0)
(0.0086617788 1.3592997e-09 0)
(0.0086168061 1.3062301e-09 0)
(0.0085726834 1.2558807e-09 0)
(0.0085293519 1.208103e-09 0)
(0.0084867582 1.1625846e-09 0)
(0.0084448589 1.1190553e-09 0)
(0.008403614 1.077472e-09 0)
(0.008362981 1.0378175e-09 0)
(0.0083229155 9.9998427e-10 0)
(0.0082833783 9.6368404e-10 0)
(0.0082443408 9.2878992e-10 0)
(0.0082057707 8.9536563e-10 0)
(0.0081676324 8.6335394e-10 0)
(0.0081298921 8.3262132e-10 0)
(0.0080925214 8.0299483e-10 0)
(0.0080554967 7.7443462e-10 0)
(0.0080187913 7.4697306e-10 0)
(0.0079823751 7.2058502e-10 0)
(0.0079462194 6.9512581e-10 0)
(0.0079103033 6.704857e-10 0)
(0.0078746054 6.4668755e-10 0)
(0.0078391013 6.2373711e-10 0)
(0.007803764 6.0161171e-10 0)
(0.0077685682 5.8018083e-10 0)
(0.0077334964 5.5937924e-10 0)
(0.0076985284 5.3925613e-10 0)
(0.007663639 5.198077e-10 0)
(0.007628803 5.009857e-10 0)
(0.0075939978 4.8270304e-10 0)
(0.0075592052 4.6493282e-10 0)
(0.007524404 4.4771193e-10 0)
(0.0074895671 4.3104929e-10 0)
(0.0074546673 4.1485809e-10 0)
(0.0074196854 3.9908356e-10 0)
(0.0073845998 3.8376392e-10 0)
(0.0073493819 3.6891186e-10 0)
(0.0073140019 3.544868e-10 0)
(0.0072784332 3.4043132e-10 0)
(0.0072426517 3.267424e-10 0)
(0.0072066273 3.1344683e-10 0)
(0.0071703246 3.0052407e-10 0)
(0.007133711 2.8792056e-10 0)
(0.007096757 2.7563156e-10 0)
(0.0070594253 2.6368615e-10 0)
(0.0070216719 2.5205865e-10 0)
(0.006983457 2.4070713e-10 0)
(0.0069447404 2.2964008e-10 0)
(0.0069054716 2.1887982e-10 0)
(0.0068655919 2.0836529e-10 0)
(0.0068250611 1.9816128e-10 0)
(0.0067847057 1.8852018e-10 0)
(0.0067458014 1.7956502e-10 0)
(0.0067087189 1.7128393e-10 0)
(0.0066733189 1.6364718e-10 0)
(0.0066394681 1.5661121e-10 0)
(0.0066070458 1.5010212e-10 0)
(0.0065759494 1.4405489e-10 0)
(0.0065460859 1.3844188e-10 0)
(0.0065173649 1.3323758e-10 0)
(0.0064897041 1.2838801e-10 0)
(0.0064630353 1.2384785e-10 0)
(0.0064372957 1.1960269e-10 0)
(0.0064124236 1.1564141e-10 0)
(0.0063883604 1.1195689e-10 0)
(0.0063650479 1.0851422e-10 0)
(0.006342442 1.0534101e-10 0)
(0.0063204724 1.0235621e-10 0)
(0.0062991319 9.9969688e-11 0)
(0.0062781702 9.7372641e-11 0)
(0.0062579445 9.7537164e-11 0)
(0.0062368728 3.5123051e-10 0)
(0.0062186067 1.1302822e-10 1.5772314e-22)
(0.0061881389 2.756342e-10 0)
(1 6.9981217e-10 0)
(0.99998255 2.4765194e-09 0)
(0.9999435 4.3647745e-09 0)
(0.99989336 5.986793e-09 0)
(0.99983532 7.7345924e-09 0)
(0.99977001 9.7707905e-09 0)
(0.99969778 1.2163398e-08 0)
(0.99961882 1.4999184e-08 0)
(0.99953306 1.840364e-08 0)
(0.99944011 2.2533796e-08 0)
(0.99933935 2.7584045e-08 0)
(0.99922987 3.3810014e-08 0)
(0.99911043 4.1556967e-08 0)
(0.99897931 5.1333189e-08 0)
(0.99883395 6.381933e-08 0)
(0.99867103 8.0320075e-08 0)
(0.99848434 1.0202595e-07 0)
(0.99826828 1.344968e-07 0)
(0.99799989 1.7561021e-07 0)
(0.9976844 2.6621993e-07 0)
(0.99717933 3.4862412e-07 0)
(0.99666443 9.9045075e-07 0)
(0.99444492 8.185902e-07 9.5035009e-21)
(0.99442264 0.00035973882 -2.8291079e-21)
(0.083689488 0.0003677061 0)
(0.043479193 8.1847893e-06 0)
(0.038904464 1.0679047e-06 2.1779539e-20)
(0.037408352 4.1957796e-07 0)
(0.036457063 2.9690306e-07 -2.1571321e-21)
(0.035660859 2.5204902e-07 0)
(0.034960982 2.2086219e-07 0)
(0.034337809 1.9570267e-07 0)
(0.033777323 1.752007e-07 0)
(0.033267654 1.5837996e-07 0)
(0.032800091 1.4425096e-07 0)
(0.032368326 1.3213149e-07 0)
(0.031967512 1.2159727e-07 0)
(0.031593713 1.123636e-07 0)
(0.031243662 1.0420909e-07 0)
(0.03091465 9.6954934e-08 0)
(0.0306044 9.0461328e-08 0)
(0.030310978 8.4621805e-08 0)
(0.03003269 7.9350586e-08 0)
(0.029768073 7.4570941e-08 0)
(0.029515853 7.0223456e-08 0)
(0.029274892 6.6251081e-08 0)
(0.029044236 6.2607041e-08 0)
(0.028823008 5.926151e-08 0)
(0.028610409 5.6176284e-08 0)
(0.028405777 5.3320454e-08 0)
(0.02820849 5.0678125e-08 0)
(0.028017961 4.8225717e-08 0)
(0.0278337 4.5939049e-08 0)
(0.027655265 4.3806441e-08 0)
(0.027482221 4.1817591e-08 0)
(0.027314174 3.9953724e-08 0)
(0.027150805 3.8201384e-08 0)
(0.026991803 3.6557076e-08 0)
(0.026836851 3.5012924e-08 0)
(0.026685675 3.3555116e-08 0)
(0.026538052 3.2175502e-08 0)
(0.026393758 3.0873058e-08 0)
(0.026252558 2.9643407e-08 0)
(0.026114246 2.8476052e-08 0)
(0.025978661 2.7364804e-08 0)
(0.025845639 2.6309819e-08 0)
(0.025715002 2.5308666e-08 0)
(0.02558659 2.435502e-08 0)
(0.025460271 2.3443444e-08 0)
(0.025335925 2.2572358e-08 0)
(0.025213423 2.1741533e-08 0)
(0.025092632 2.0948676e-08 0)
(0.024973435 2.0188353e-08 0)
(0.024855743 1.9457632e-08 0)
(0.02473946 1.8757286e-08 0)
(0.024624479 1.808656e-08 0)
(0.024510698 1.7442625e-08 0)
(0.024398032 1.6822138e-08 0)
(0.024286408 1.6223918e-08 0)
(0.024175747 1.5648561e-08 0)
(0.024065958 1.5095601e-08 0)
(0.023956955 1.4562246e-08 0)
(0.023848673 1.4046226e-08 0)
(0.023741049 1.3547648e-08 0)
(0.02363401 1.3066829e-08 0)
(0.023527473 1.2603183e-08 0)
(0.023421363 1.215427e-08 0)
(0.023315627 1.1718621e-08 0)
(0.023210203 1.1296997e-08 0)
(0.023105017 1.0889522e-08 0)
(0.022999992 1.0495151e-08 0)
(0.022895059 1.0112203e-08 0)
(0.022790164 9.7399733e-09 0)
(0.022685244 9.3791825e-09 0)
(0.022580215 9.0300231e-09 0)
(0.022474998 8.6908441e-09 0)
(0.022369532 8.3604544e-09 0)
(0.022263754 8.0394913e-09 0)
(0.022157577 7.728314e-09 0)
(0.022050911 7.4260998e-09 0)
(0.021943676 7.1316863e-09 0)
(0.0218358 6.8449279e-09 0)
(0.021727191 6.5663632e-09 0)
(0.021617744 6.2956213e-09 0)
(0.021507359 6.0316121e-09 0)
(0.021395947 5.7741844e-09 0)
(0.021283397 5.5239068e-09 0)
(0.021169576 5.2803154e-09 0)
(0.021054363 5.0425346e-09 0)
(0.020937637 4.810689e-09 0)
(0.020819247 4.5852504e-09 0)
(0.020699015 4.3649765e-09 0)
(0.02057682 4.1512605e-09 0)
(0.020455153 3.9492923e-09 0)
(0.020337862 3.7616659e-09 0)
(0.020226063 3.5881914e-09 0)
(0.020119336 3.4282082e-09 0)
(0.02001728 3.2808009e-09 0)
(0.019919531 3.1444458e-09 0)
(0.019825779 3.0177724e-09 0)
(0.019735745 2.900181e-09 0)
(0.019649155 2.7911407e-09 0)
(0.019565761 2.6895459e-09 0)
(0.019485358 2.5944422e-09 0)
(0.019407756 2.5055001e-09 0)
(0.01933277 2.422505e-09 0)
(0.019260223 2.3452967e-09 0)
(0.019189939 2.2731561e-09 0)
(0.019121786 2.2066754e-09 0)
(0.019055551 2.1440433e-09 0)
(0.018991213 2.0940914e-09 0)
(0.01892802 2.0390455e-09 0)
(0.018867043 2.0440787e-09 0)
(0.01880353 1.9774497e-09 0)
(0.01874846 2.4048394e-09 -2.4225416e-22)
(0.018656603 1.5422321e-09 3.7105278e-23)
(1 1.1779579e-09 0)
(0.99998255 4.1688548e-09 0)
(0.99994349 7.3479601e-09 0)
(0.99989334 1.0079162e-08 0)
(0.99983526 1.3022127e-08 0)
(0.99976992 1.6450534e-08 0)
(0.99969765 2.0478883e-08 0)
(0.99961865 2.5253258e-08 0)
(0.99953284 3.0984905e-08 0)
(0.99943984 3.7938154e-08 0)
(0.99933903 4.644022e-08 0)
(0.99922951 5.6921389e-08 0)
(0.99911001 6.9962824e-08 0)
(0.99897884 8.642009e-08 0)
(0.99883343 1.0743888e-07 0)
(0.99867045 1.3521526e-07 0)
(0.99848371 1.7175315e-07 0)
(0.9982676 2.2641098e-07 0)
(0.99799915 2.9561616e-07 0)
(0.99768361 4.4813399e-07 0)
(0.99717847 5.8684329e-07 0)
(0.99666353 1.6670918e-06 0)
(0.99444414 1.3780814e-06 -4.9717875e-21)
(0.9944217 0.00058798353 9.7952637e-55)
(0.13760847 0.00060775974 -8.2302494e-54)
(0.073185484 2.2834716e-05 0)
(0.065483195 3.0510671e-06 -1.1510928e-20)
(0.062965402 1.21867e-06 0)
(0.061362642 8.6259157e-07 0)
(0.060022196 7.3185807e-07 0)
(0.058844237 6.4120042e-07 0)
(0.05779544 5.6815388e-07 0)
(0.056852126 5.0863643e-07 0)
(0.055994339 4.5979817e-07 0)
(0.055207427 4.1877493e-07 0)
(0.05448077 3.8358836e-07 0)
(0.053806201 3.5300648e-07 0)
(0.053177099 3.2620076e-07 0)
(0.052587962 3.0252781e-07 0)
(0.052034232 2.8146855e-07 0)
(0.051512078 2.6261732e-07 0)
(0.051018244 2.4566512e-07 0)
(0.050549881 2.3036242e-07 0)
(0.050104523 2.1648718e-07 0)
(0.049680028 2.0386606e-07 0)
(0.049274484 1.9233411e-07 0)
(0.048886281 1.8175562e-07 0)
(0.048513945 1.7204299e-07 0)
(0.048156131 1.6308646e-07 0)
(0.047811725 1.5479614e-07 0)
(0.047479679 1.4712503e-07 0)
(0.04715901 1.4000543e-07 0)
(0.046848887 1.333673e-07 0)
(0.046548569 1.2717621e-07 0)
(0.046257324 1.2140213e-07 0)
(0.045974491 1.1599124e-07 0)
(0.045699529 1.109043e-07 0)
(0.045431917 1.061306e-07 0)
(0.04517112 1.0164756e-07 0)
(0.04491668 9.74155e-08 0)
(0.044668218 9.3410537e-08 0)
(0.04442536 8.9629317e-08 0)
(0.044187708 8.6059301e-08 0)
(0.043954917 8.2670405e-08 0)
(0.043726716 7.9444513e-08 0)
(0.043502828 7.6381707e-08 0)
(0.043282954 7.347511e-08 0)
(0.043066824 7.0706533e-08 0)
(0.042854217 6.8060231e-08 0)
(0.04264493 6.5531393e-08 0)
(0.042438747 6.3119339e-08 0)
(0.042235444 6.0817463e-08 0)
(0.042034823 5.8610193e-08 0)
(0.041836735 5.6488915e-08 0)
(0.041641019 5.4455679e-08 0)
(0.041447494 5.2508402e-08 0)
(0.041255989 5.0638929e-08 0)
(0.041066359 4.8837625e-08 0)
(0.040878484 4.7100951e-08 0)
(0.040692229 4.5430578e-08 0)
(0.040507442 4.3825186e-08 0)
(0.040323976 4.2276777e-08 0)
(0.040141726 4.0778755e-08 0)
(0.039960583 3.9331311e-08 0)
(0.039780422 3.7935393e-08 0)
(0.039601109 3.6589307e-08 0)
(0.039422513 3.5286063e-08 0)
(0.039244546 3.4021353e-08 0)
(0.039067105 3.2797296e-08 0)
(0.038890064 3.1614306e-08 0)
(0.038713293 3.0469364e-08 0)
(0.038536679 2.9357627e-08 0)
(0.038360127 2.8277006e-08 0)
(0.038183532 2.7229558e-08 0)
(0.038006756 2.6215858e-08 0)
(0.037829661 2.5231171e-08 0)
(0.037652149 2.4272023e-08 0)
(0.03747411 2.3340206e-08 0)
(0.0372954 2.2436787e-08 0)
(0.037115867 2.15594e-08 0)
(0.036935377 2.0704682e-08 0)
(0.036753806 1.9872178e-08 0)
(0.036571003 1.9063443e-08 0)
(0.036386787 1.8277423e-08 0)
(0.036200994 1.7510967e-08 0)
(0.036013473 1.6763613e-08 0)
(0.035824035 1.6037001e-08 0)
(0.035632458 1.5329807e-08 0)
(0.035438538 1.4639493e-08 0)
(0.035242072 1.3966402e-08 0)
(0.035042804 1.3311902e-08 0)
(0.034840436 1.2672405e-08 0)
(0.034634764 1.205196e-08 0)
(0.034429981 1.1465606e-08 0)
(0.034232562 1.092088e-08 0)
(0.034044387 1.041725e-08 0)
(0.03386475 9.9527866e-09 0)
(0.033692975 9.5248309e-09 0)
(0.033528449 9.1289664e-09 0)
(0.03337065 8.7612121e-09 0)
(0.033219108 8.4198187e-09 0)
(0.033073364 8.1032464e-09 0)
(0.032933 7.8082956e-09 0)
(0.032797669 7.5321926e-09 0)
(0.032667054 7.2739718e-09 0)
(0.032540841 7.0330136e-09 0)
(0.032418733 6.8088517e-09 0)
(0.032300435 6.5994033e-09 0)
(0.032185723 6.4063833e-09 0)
(0.03207424 6.2245192e-09 0)
(0.031965951 6.079452e-09 0)
(0.031859591 5.9195047e-09 0)
(0.031756959 5.9339779e-09 0)
(0.031650079 5.6474039e-09 0)
(0.031557387 6.9891682e-09 0)
(0.031402777 4.3951e-09 0)
(1 1.6736821e-09 1.8783399e-24)
(0.99998255 5.9236546e-09 0)
(0.99994348 1.0441745e-08 0)
(0.9998933 1.4323819e-08 0)
(0.9998352 1.8506844e-08 0)
(0.99976982 2.3379594e-08 0)
(0.9996975 2.910479e-08 0)
(0.99961846 3.5890036e-08 0)
(0.9995326 4.4035502e-08 0)
(0.99943955 5.391677e-08 0)
(0.99933868 6.5998764e-08 0)
(0.9992291 8.0892853e-08 0)
(0.99910955 9.9424775e-08 0)
(0.99897832 1.2281014e-07 0)
(0.99883285 1.5267676e-07 0)
(0.99866981 1.9214488e-07 0)
(0.99848301 2.4406163e-07 0)
(0.99826684 3.2172368e-07 0)
(0.99799833 4.2005469e-07 0)
(0.99768272 6.3675772e-07 0)
(0.99717751 8.33844e-07 0)
(0.99666252 2.3685435e-06 0)
(0.99444333 1.9581523e-06 0)
(0.99442072 0.00080931839 -5.105786e-55)
(0.19101204 0.0008503087 4.2743222e-54)
(0.1039663 4.5554523e-05 0)
(0.093030104 6.2903958e-06 0)
(0.089451758 2.5111749e-06 0)
(0.087172833 1.7775903e-06 0)
(0.085268431 1.5075272e-06 0)
(0.08359533 1.3206169e-06 0)
(0.082105761 1.1701613e-06 0)
(0.080765965 1.0475879e-06 0)
(0.079547638 9.4699558e-07 0)
(0.07842998 8.6249875e-07 0)
(0.077397903 7.9002698e-07 0)
(0.076439805 7.2704249e-07 0)
(0.075546275 6.7183595e-07 0)
(0.074709502 6.2308113e-07 0)
(0.073923013 5.7970901e-07 0)
(0.073181369 5.4088449e-07 0)
(0.072479945 5.0597123e-07 0)
(0.071814693 4.7445479e-07 0)
(0.071182115 4.4587859e-07 0)
(0.070579166 4.1988469e-07 0)
(0.070003132 3.9613423e-07 0)
(0.069451725 3.7434778e-07 0)
(0.068922853 3.5434363e-07 0)
(0.068414607 3.3589721e-07 0)
(0.067925403 3.1882327e-07 0)
(0.067453754 3.0302376e-07 0)
(0.066998263 2.8836027e-07 0)
(0.06655775 2.7468891e-07 0)
(0.066131163 2.6193792e-07 0)
(0.065717462 2.5004531e-07 0)
(0.065315709 2.3890121e-07 0)
(0.064925135 2.2842457e-07 0)
(0.064544998 2.1859252e-07 0)
(0.064174544 2.0935893e-07 0)
(0.063813117 2.0064271e-07 0)
(0.063460181 1.9239437e-07 0)
(0.063115202 1.846064e-07 0)
(0.062777621 1.7725324e-07 0)
(0.062446943 1.7027352e-07 0)
(0.062122782 1.636297e-07 0)
(0.061804747 1.5732139e-07 0)
(0.061492415 1.5133469e-07 0)
(0.061185401 1.4563242e-07 0)
(0.06088339 1.4018219e-07 0)
(0.060586093 1.3497378e-07 0)
(0.060293206 1.3000573e-07 0)
(0.06000441 1.2526454e-07 0)
(0.059719423 1.2071844e-07 0)
(0.059438033 1.1634952e-07 0)
(0.059160012 1.1216173e-07 0)
(0.058885103 1.0815092e-07 0)
(0.058613063 1.0430041e-07 0)
(0.058343686 1.0059044e-07 0)
(0.058076801 9.7013568e-08 0)
(0.057812217 9.357313e-08 0)
(0.057549718 9.0266476e-08 0)
(0.057289096 8.7077284e-08 0)
(0.0570302 8.399196e-08 0)
(0.056772875 8.1010725e-08 0)
(0.056516947 7.813556e-08 0)
(0.056262221 7.5363001e-08 0)
(0.056008515 7.267878e-08 0)
(0.055755701 7.0073968e-08 0)
(0.055503634 6.7552796e-08 0)
(0.055252134 6.5116179e-08 0)
(0.055001019 6.2757944e-08 0)
(0.054750125 6.0468159e-08 0)
(0.05449932 5.8242463e-08 0)
(0.054248452 5.6085038e-08 0)
(0.053997327 5.3997089e-08 0)
(0.053745749 5.1968957e-08 0)
(0.053493578 4.9993459e-08 0)
(0.053240658 4.8074202e-08 0)
(0.052986784 4.6213413e-08 0)
(0.052731741 4.4406259e-08 0)
(0.052475337 4.2645826e-08 0)
(0.052217398 4.0931135e-08 0)
(0.051957707 3.9265369e-08 0)
(0.051696011 3.7646397e-08 0)
(0.051432072 3.6067743e-08 0)
(0.051165678 3.4528429e-08 0)
(0.050896561 3.3031809e-08 0)
(0.050624404 3.1575197e-08 0)
(0.05034892 3.0153367e-08 0)
(0.050069817 2.8766996e-08 0)
(0.049786734 2.7418905e-08 0)
(0.049499246 2.610173e-08 0)
(0.049207063 2.4823814e-08 0)
(0.048916143 2.3616091e-08 0)
(0.048635684 2.2494098e-08 0)
(0.048368359 2.1456765e-08 0)
(0.048113161 2.0500114e-08 0)
(0.047869131 1.9618627e-08 0)
(0.0476354 1.880326e-08 0)
(0.047411226 1.8045794e-08 0)
(0.04719594 1.7342616e-08 0)
(0.04698889 1.6690555e-08 0)
(0.046789483 1.6083037e-08 0)
(0.046597227 1.5514344e-08 0)
(0.046411669 1.4982474e-08 0)
(0.046232366 1.4486155e-08 0)
(0.046058895 1.4024426e-08 0)
(0.045890836 1.3593005e-08 0)
(0.045727872 1.3195412e-08 0)
(0.045569497 1.282078e-08 0)
(0.045415657 1.2521874e-08 0)
(0.045264564 1.2192285e-08 0)
(0.045118761 1.2221733e-08 0)
(0.044966953 1.1641338e-08 0)
(0.04483527 1.4403569e-08 0)
(0.044615621 9.0501651e-09 0)
(1 2.1943748e-09 0)
(0.99998254 7.7671202e-09 0)
(0.99994347 1.3692407e-08 0)
(0.99989327 1.8784353e-08 0)
(0.99983513 2.4270985e-08 0)
(0.99976971 3.0661909e-08 0)
(0.99969734 3.8170521e-08 0)
(0.99961824 4.7069073e-08 0)
(0.99953232 5.7751156e-08 0)
(0.99943922 7.0709214e-08 0)
(0.99933829 8.6552824e-08 0)
(0.99922864 1.0608356e-07 0)
(0.99910903 1.3038406e-07 0)
(0.99897773 1.610481e-07 0)
(0.9988322 2.002099e-07 0)
(0.9986691 2.5196039e-07 0)
(0.99848223 3.2003238e-07 0)
(0.99826599 4.2185905e-07 0)
(0.99799741 5.5078433e-07 0)
(0.99768173 8.3490655e-07 0)
(0.99717644 1.0933075e-06 0)
(0.99666139 3.1052382e-06 0)
(0.99444248 2.5674333e-06 0)
(0.99441971 0.0010268662 0)
(0.2444202 0.0010949805 0)
(0.13625039 7.6339903e-05 0)
(0.12193728 1.0911625e-05 0)
(0.11724209 4.3570536e-06 3.235661e-21)
(0.11425329 3.0838154e-06 0)
(0.11175794 2.6141985e-06 0)
(0.10956627 2.2897994e-06 0)
(0.1076151 2.0289168e-06 0)
(0.10586003 1.8164138e-06 0)
(0.10426404 1.6419973e-06 0)
(0.10279992 1.4954854e-06 0)
(0.10144789 1.3698285e-06 0)
(0.10019275 1.260626e-06 0)
(0.099022176 1.1649099e-06 0)
(0.097925938 1.0803789e-06 0)
(0.096895558 1.0051797e-06 0)
(0.095923915 9.3786511e-07 0)
(0.095004951 8.7733187e-07 0)
(0.094133367 8.2268745e-07 0)
(0.093304579 7.7314117e-07 0)
(0.0925146 7.2807126e-07 0)
(0.091759876 6.8689134e-07 0)
(0.091037408 6.4911705e-07 0)
(0.09034446 6.1443157e-07 0)
(0.089678532 5.824476e-07 0)
(0.089037545 5.5284385e-07 0)
(0.088419554 5.2544852e-07 0)
(0.087822729 5.0002306e-07 0)
(0.087245525 4.7631857e-07 0)
(0.086686562 4.5420935e-07 0)
(0.086144482 4.3358773e-07 0)
(0.085618053 4.1426471e-07 0)
(0.085106268 3.9609935e-07 0)
(0.084608154 3.7905079e-07 0)
(0.084122725 3.6303962e-07 0)
(0.083649124 3.4792625e-07 0)
(0.083186644 3.3362434e-07 0)
(0.082734589 3.2012e-07 0)
(0.082292224 3.073693e-07 0)
(0.081858904 2.9526672e-07 0)
(0.081434121 2.8374683e-07 0)
(0.081017362 2.7280815e-07 0)
(0.080608074 2.6242689e-07 0)
(0.080205755 2.5253908e-07 0)
(0.079809988 2.4308861e-07 0)
(0.079420397 2.3405727e-07 0)
(0.079036582 2.2544242e-07 0)
(0.078658128 2.1722086e-07 0)
(0.078284663 2.0933792e-07 0)
(0.07791591 2.0176234e-07 0)
(0.07755157 1.9450052e-07 0)
(0.077191307 1.8754546e-07 0)
(0.076834802 1.8086844e-07 0)
(0.076481786 1.7443533e-07 0)
(0.076132033 1.6823299e-07 0)
(0.075785295 1.6226702e-07 0)
(0.075441287 1.5653296e-07 0)
(0.075099739 1.5100272e-07 0)
(0.07476045 1.4565273e-07 0)
(0.07442322 1.404831e-07 0)
(0.074087817 1.354973e-07 0)
(0.07375399 1.3068938e-07 0)
(0.073421498 1.260348e-07 0)
(0.073090174 1.2151797e-07 0)
(0.072759827 1.1714604e-07 0)
(0.072430222 1.1292067e-07 0)
(0.07210112 1.0883125e-07 0)
(0.071772307 1.0486062e-07 0)
(0.07144361 1.0100112e-07 0)
(0.071114829 9.7259915e-08 0)
(0.070785709 9.3639136e-08 0)
(0.070455995 9.0122172e-08 0)
(0.070125502 8.6696524e-08 0)
(0.069794025 8.3368323e-08 0)
(0.069461298 8.0141469e-08 0)
(0.069127038 7.7007653e-08 0)
(0.068790993 7.3954898e-08 0)
(0.068452934 7.0981443e-08 0)
(0.068112579 6.8092779e-08 0)
(0.067769594 6.5285267e-08 0)
(0.067423669 6.2547708e-08 0)
(0.067074524 5.9878355e-08 0)
(0.066721809 5.7282999e-08 0)
(0.066365109 5.4757034e-08 0)
(0.066004046 5.2291408e-08 0)
(0.065638239 4.9887246e-08 0)
(0.065267214 4.7549446e-08 0)
(0.064890415 4.5265279e-08 0)
(0.064507461 4.3049217e-08 0)
(0.06412616 4.0954843e-08 0)
(0.063758569 3.9009114e-08 0)
(0.063408191 3.7210216e-08 0)
(0.063073707 3.5551228e-08 0)
(0.06275386 3.4022582e-08 0)
(0.06244751 3.2608605e-08 0)
(0.062153686 3.1295045e-08 0)
(0.06187151 3.007561e-08 0)
(0.06160013 2.8944811e-08 0)
(0.061338766 2.7891268e-08 0)
(0.061086775 2.690506e-08 0)
(0.060843562 2.5982696e-08 0)
(0.060608547 2.5121973e-08 0)
(0.060381176 2.4321226e-08 0)
(0.060160899 2.357304e-08 0)
(0.059947299 2.2883499e-08 0)
(0.059739715 2.223376e-08 0)
(0.059538076 2.1715195e-08 0)
(0.059340043 2.1143483e-08 0)
(0.059148937 2.1193691e-08 0)
(0.058949999 2.0195737e-08 0)
(0.058777397 2.4986614e-08 -3.1185574e-22)
(0.058489493 1.5691323e-08 4.776709e-23)
(1 2.7478006e-09 0)
(0.99998254 9.7268055e-09 0)
(0.99994345 1.714866e-08 0)
(0.99989323 2.3527763e-08 0)
(0.99983505 3.0401244e-08 0)
(0.99976958 3.8407071e-08 0)
(0.99969716 4.7812525e-08 0)
(0.999618 5.8958605e-08 0)
(0.99953202 7.2338216e-08 0)
(0.99943884 8.8568022e-08 0)
(0.99933785 1.0841135e-07 0)
(0.99922813 1.3287195e-07 0)
(0.99910845 1.6330549e-07 0)
(0.99897708 2.0170771e-07 0)
(0.99883147 2.5075103e-07 0)
(0.9986683 3.1555811e-07 0)
(0.99848136 4.00803e-07 0)
(0.99826504 5.2831544e-07 0)
(0.99799638 6.8975997e-07 0)
(0.99768062 1.0455407e-06 0)
(0.99717524 1.3691021e-06 0)
(0.99666012 3.888128e-06 0)
(0.99444157 3.2150086e-06 0)
(0.9944187 0.00124226 0)
(0.29818041 0.0013453495 0)
(0.17045341 0.00011600002 0)
(0.15259195 1.7168501e-05 0)
(0.1467061 6.8634547e-06 0)
(0.14296567 4.8555611e-06 0)
(0.13984608 4.1142524e-06 0)
(0.13710692 3.603278e-06 0)
(0.13466836 3.1927579e-06 0)
(0.1324747 2.8584256e-06 0)
(0.13047979 2.5839774e-06 0)
(0.12864964 2.3534293e-06 0)
(0.12695954 2.1557031e-06 0)
(0.12539051 1.9838743e-06 0)
(0.12392713 1.8332667e-06 0)
(0.12255663 1.7002563e-06 0)
(0.12126842 1.5819274e-06 0)
(0.12005361 1.4760044e-06 0)
(0.11890463 1.3807514e-06 0)
(0.11781485 1.2947634e-06 0)
(0.11677856 1.2167976e-06 -6.2123867e-33)
(0.11579076 1.145874e-06 0)
(0.11484703 1.0810718e-06 0)
(0.11394361 1.0216288e-06 0)
(0.11307709 9.6704417e-07 0)
(0.11224433 9.1671146e-07 0)
(0.11144275 8.7012497e-07 0)
(0.11066991 8.2701175e-07 0)
(0.10992353 7.8699853e-07 0)
(0.10920167 7.4969461e-07 0)
(0.10850261 7.1490019e-07 0)
(0.10782466 6.8244563e-07 0)
(0.10716627 6.520357e-07 0)
(0.10652619 6.2344814e-07 0)
(0.10590319 5.9661674e-07 0)
(0.10529605 5.7141742e-07 0)
(0.1047037 5.4763205e-07 0)
(0.10412525 5.2512398e-07 0)
(0.10355983 5.0387002e-07 0)
(0.10300652 4.8380162e-07 0)
(0.10246452 4.6475415e-07 0)
(0.10193319 4.4662406e-07 0)
(0.1014119 4.294078e-07 0)
(0.10089994 4.1306841e-07 0)
(0.10039669 3.9750602e-07 0)
(0.099901637 3.8263237e-07 0)
(0.099414301 3.6841809e-07 0)
(0.098934186 3.5485879e-07 0)
(0.098460772 3.4191836e-07 0)
(0.097993595 3.2951139e-07 0)
(0.097532307 3.1758831e-07 0)
(0.097076534 3.0615855e-07 0)
(0.096625858 2.9521138e-07 0)
(0.09617988 2.8470196e-07 0)
(0.095738262 2.7457672e-07 0)
(0.095300722 2.6481463e-07 0)
(0.094866949 2.5542427e-07 0)
(0.094436589 2.4639873e-07 0)
(0.094009303 2.3769425e-07 0)
(0.093584838 2.2927363e-07 0)
(0.093162945 2.2113672e-07 0)
(0.092743336 2.1328895e-07 0)
(0.092325695 2.0572109e-07 0)
(0.091909721 1.9839479e-07 0)
(0.091495204 1.912854e-07 0)
(0.091081906 1.8440385e-07 0)
(0.090669533 1.7775289e-07 0)
(0.090257787 1.7131594e-07 0)
(0.0898464 1.650661e-07 0)
(0.089435152 1.5899117e-07 0)
(0.089023797 1.5310227e-07 0)
(0.088612016 1.4740285e-07 0)
(0.088199489 1.4186697e-07 0)
(0.087785982 1.3647488e-07 0)
(0.087371242 1.3123605e-07 0)
(0.086954935 1.2615666e-07 0)
(0.086536707 1.2122377e-07 0)
(0.086116242 1.1641852e-07 0)
(0.085693253 1.1173806e-07 0)
(0.085267388 1.0719099e-07 0)
(0.08483823 1.0277165e-07 0)
(0.084405389 9.8462479e-08 0)
(0.083968517 9.4260642e-08 0)
(0.083527174 9.0175213e-08 0)
(0.08308084 8.6199027e-08 0)
(0.082629045 8.2317847e-08 0)
(0.08217131 7.8533378e-08 0)
(0.081707041 7.4853328e-08 0)
(0.081235545 7.125773e-08 0)
(0.080756341 6.7769369e-08 0)
(0.080279202 6.4472504e-08 0)
(0.079819217 6.1409587e-08 0)
(0.079380767 5.8577823e-08 0)
(0.078962204 5.5966283e-08 0)
(0.078561954 5.3559931e-08 0)
(0.078178592 5.1334086e-08 0)
(0.077810903 4.9266317e-08 0)
(0.077457788 4.7346692e-08 0)
(0.07711818 4.5566579e-08 0)
(0.076791106 4.3908094e-08 0)
(0.07647576 4.2355616e-08 0)
(0.076171397 4.0903618e-08 0)
(0.075877292 3.9548638e-08 0)
(0.075592752 3.8288054e-08 0)
(0.075317091 3.7110218e-08 0)
(0.075049783 3.6024664e-08 0)
(0.074790004 3.5001751e-08 0)
(0.074537665 3.4185057e-08 0)
(0.074289845 3.3284915e-08 0)
(0.074050686 3.3362334e-08 0)
(0.073801775 3.1791026e-08 0)
(0.073585768 3.9343649e-08 0)
(0.073225459 2.4692298e-08 -2.7236017e-23)
(1 3.3422143e-09 0)
(0.99998254 1.1832027e-08 0)
(0.99994344 2.0862386e-08 0)
(0.99989319 2.862546e-08 0)
(0.99983496 3.6990068e-08 0)
(0.99976944 4.6731963e-08 0)
(0.99969696 5.8176332e-08 0)
(0.99961773 7.1738056e-08 0)
(0.99953168 8.8016734e-08 0)
(0.99943843 1.0776246e-07 0)
(0.99933735 1.3190372e-07 0)
(0.99922756 1.6166139e-07 0)
(0.9991078 1.9868441e-07 0)
(0.99897634 2.4540024e-07 0)
(0.99883065 3.0505937e-07 0)
(0.9986674 3.8389254e-07 0)
(0.99848037 4.8758472e-07 0)
(0.99826397 6.426877e-07 0)
(0.99799522 8.3906201e-07 0)
(0.99767938 1.2718093e-06 0)
(0.9971739 1.6653573e-06 0)
(0.99665869 4.728829e-06 0)
(0.99444061 3.9105196e-06 0)
(0.99441769 0.0014563477 0)
(0.35244451 0.0016032843 0)
(0.20695748 0.00016591811 0)
(0.18535601 2.541988e-05 0)
(0.17819211 1.0180318e-05 -8.4949345e-21)
(0.17365253 7.1957703e-06 7.2693169e-21)
(0.16987114 6.0941041e-06 0)
(0.16655182 5.3366226e-06 0)
(0.16359666 4.7287129e-06 0)
(0.16093795 4.2337171e-06 0)
(0.15851988 3.8273182e-06 0)
(0.15630134 3.4859064e-06 0)
(0.15425243 3.1931023e-06 0)
(0.15235015 2.9386533e-06 0)
(0.15057583 2.715627e-06 0)
(0.14891401 2.5186529e-06 0)
(0.14735187 2.3434152e-06 0)
(0.14587865 2.1865464e-06 0)
(0.14448518 2.0454767e-06 0)
(0.14316345 1.9181251e-06 0)
(0.14190652 1.8026529e-06 6.6689724e-33)
(0.14070835 1.6976071e-06 0)
(0.13956359 1.6016267e-06 0)
(0.13846767 1.5135833e-06 0)
(0.13741646 1.4327318e-06 0)
(0.13640619 1.3581784e-06 0)
(0.13543369 1.2891741e-06 0)
(0.13449603 1.225311e-06 0)
(0.13359045 1.1660393e-06 0)
(0.13271459 1.1107819e-06 0)
(0.13186636 1.0592399e-06 0)
(0.13104372 1.011162e-06 0)
(0.13024479 9.6611395e-07 0)
(0.12946805 9.2376595e-07 0)
(0.12871203 8.8401713e-07 0)
(0.12797523 8.4668502e-07 0)
(0.12725636 8.1144888e-07 0)
(0.12655434 7.7810517e-07 0)
(0.12586812 7.4661746e-07 0)
(0.12519658 7.1688521e-07 0)
(0.12453876 6.8866662e-07 0)
(0.12389387 6.618075e-07 0)
(0.12326114 6.3630078e-07 0)
(0.12263973 6.1209234e-07 0)
(0.12202889 5.8903559e-07 0)
(0.12142797 5.6699974e-07 0)
(0.12083641 5.459403e-07 0)
(0.12025361 5.2585038e-07 0)
(0.11967893 5.066771e-07 0)
(0.11911181 4.8829486e-07 0)
(0.11855183 4.7062974e-07 0)
(0.11799853 4.536947e-07 0)
(0.11745141 4.3747422e-07 0)
(0.11690999 4.2190252e-07 0)
(0.11637385 4.0690043e-07 0)
(0.11584265 3.9243626e-07 0)
(0.11531601 3.785223e-07 0)
(0.11479351 3.6514864e-07 0)
(0.11427473 3.5225098e-07 0)
(0.11375938 3.3977415e-07 0)
(0.11324713 3.2771737e-07 0)
(0.11273765 3.1608866e-07 0)
(0.11223055 3.0487459e-07 0)
(0.11172547 2.9401873e-07 0)
(0.11122215 2.8348438e-07 0)
(0.1107203 2.7328727e-07 0)
(0.11021956 2.6343162e-07 0)
(0.10971959 2.5389314e-07 0)
(0.10922003 2.4463208e-07 0)
(0.10872065 2.3563016e-07 0)
(0.10822112 2.2690364e-07 0)
(0.10772107 2.1845775e-07 0)
(0.1072201 2.1025435e-07 0)
(0.10671794 2.0226411e-07 0)
(0.10621427 1.9450074e-07 0)
(0.10570869 1.8697353e-07 0)
(0.10520077 1.7966343e-07 0)
(0.10469013 1.7254256e-07 0)
(0.10417642 1.6560653e-07 0)
(0.1036592 1.5886801e-07 0)
(0.10313798 1.5231878e-07 0)
(0.10261228 1.4593286e-07 0)
(0.10208167 1.3970595e-07 0)
(0.10154562 1.3365142e-07 0)
(0.10100351 1.2775879e-07 0)
(0.10045475 1.2200698e-07 0)
(0.09989877 1.1639842e-07 0)
(0.099334845 1.1094451e-07 0)
(0.098762133 1.056158e-07 0)
(0.098180049 1.0044604e-07 0)
(0.097600464 9.5559974e-08 0)
(0.097041708 9.1020552e-08 0)
(0.096509104 8.6823727e-08 0)
(0.09600065 8.2953269e-08 0)
(0.095514437 7.9386865e-08 0)
(0.095048732 7.6087999e-08 0)
(0.094602062 7.3023413e-08 0)
(0.094173091 7.0178339e-08 0)
(0.093760525 6.7540002e-08 0)
(0.093363182 6.5081949e-08 0)
(0.092980082 6.2781015e-08 0)
(0.092610322 6.0628966e-08 0)
(0.092253021 5.8620675e-08 0)
(0.091907338 5.6752265e-08 0)
(0.091572438 5.5006501e-08 0)
(0.091247686 5.3397449e-08 0)
(0.09093208 5.1881226e-08 0)
(0.09062551 5.067019e-08 0)
(0.09032444 4.9335901e-08 0)
(0.09003388 4.9447964e-08 0)
(0.089731536 4.7116754e-08 -4.2051574e-23)
(0.089469096 5.8325646e-08 0)
(0.089031326 3.6589426e-08 0)
(1 3.9864832e-09 0)
(0.99998254 1.4114305e-08 0)
(0.99994342 2.4889418e-08 0)
(0.99989314 3.4154357e-08 0)
(0.99983486 4.4137077e-08 0)
(0.99976928 5.5762566e-08 0)
(0.99969672 6.941881e-08 0)
(0.99961742 8.5600821e-08 0)
(0.99953129 1.0502387e-07 0)
(0.99943795 1.2858269e-07 0)
(0.99933679 1.5738477e-07 0)
(0.99922691 1.9288637e-07 0)
(0.99910706 2.3705427e-07 0)
(0.99897551 2.9278385e-07 0)
(0.99882973 3.6395215e-07 0)
(0.99866638 4.579909e-07 0)
(0.99847926 5.8168071e-07 0)
(0.99826276 7.6669133e-07 0)
(0.99799391 1.0009277e-06 0)
(0.99767797 1.5170982e-06 0)
(0.99717237 1.9865018e-06 0)
(0.99665709 5.6398126e-06 0)
(0.9944396 4.6643115e-06 0)
(0.99441669 0.0016694683 -1.3471985e-54)
(0.40714272 0.001870257 1.0638388e-53)
(0.24607073 0.0002271716 -5.9491756e-19)
(0.22052992 3.6123479e-05 0)
(0.21199445 1.4500825e-05 -9.917961e-21)
(0.20660668 1.0236142e-05 0)
(0.20212547 8.664044e-06 0)