/*--------------------------------*- C++ -*----------------------------------*\
  =========                 |
  \\      /  F ield         | OpenFOAM: The Open Source CFD Toolbox
   \\    /   O peration     | Website:  https://openfoam.org
    \\  /    A nd           | Version:  12
     \\/     M anipulation  |
\*---------------------------------------------------------------------------*/
FoamFile
{
    format      ascii;
    class       volVectorField;
    location    "1700";
    object      wallShearStress;
}
// * * * * * * * * * * * * * * * * * * * * * * * * * * * * * * * * * * * * * //

dimensions      [0 2 -2 0 0 0 0];

internalField   uniform (0 0 0);

boundaryField
{
    bottom
    {
        type            calculated;
        value           nonuniform List<vector> 
112
(
(-0.0057011887 -3.5140144e-05 0)
(-0.0028775671 -3.8371899e-07 -1.8552828e-17)
(-0.0025748316 -8.3424418e-08 -5.1430358e-19)
(-0.0024757441 -1.8468298e-08 -9.8623448e-19)
(-0.0024128633 -1.3068753e-08 0)
(-0.0023601867 -1.1099147e-08 0)
(-0.002313868 -9.7282735e-09 0)
(-0.0022726226 -8.6201396e-09 0)
(-0.002235527 -7.7170732e-09 0)
(-0.0022017944 -6.9763136e-09 -7.4364222e-19)
(-0.0021708483 -6.3541016e-09 0)
(-0.0021422709 -5.8203272e-09 -6.2038525e-19)
(-0.0021157421 -5.3563008e-09 5.7092429e-19)
(-0.0020910014 -4.9495728e-09 -5.2757009e-19)
(-0.0020678324 -4.590369e-09 0)
(-0.002046056 -4.2708193e-09 4.5522253e-19)
(-0.0020255215 -3.984791e-09 0)
(-0.0020061006 -3.7275551e-09 -1.9865813e-19)
(-0.0019876817 -3.4953495e-09 0)
(-0.0019701676 -3.2848046e-09 -3.5012564e-19)
(-0.001953474 -3.0933047e-09 3.2971277e-19)
(-0.0019375256 -2.9183197e-09 0)
(-0.0019222593 -2.7577909e-09 0)
(-0.001907617 -2.6104309e-09 0)
(-0.0018935459 -2.4745246e-09 -2.6375862e-19)
(-0.0018800021 -2.348718e-09 0)
(-0.0018669444 -2.2323306e-09 0)
(-0.0018543341 -2.1243042e-09 0)
(-0.0018421386 -2.0235716e-09 0)
(-0.0018303288 -1.9296297e-09 -2.0568043e-19)
(-0.0018188757 -1.842029e-09 1.9634173e-19)
(-0.0018077534 -1.7599241e-09 0)
(-0.0017969408 -1.682727e-09 0)
(-0.0017864171 -1.6102992e-09 0)
(-0.0017761615 -1.5422863e-09 1.6439254e-19)
(-0.0017661559 -1.4780674e-09 0)
(-0.0017563854 -1.4172906e-09 0)
(-0.0017468353 -1.3599212e-09 -1.4495549e-19)
(-0.00173749 -1.305761e-09 0)
(-0.0017283357 -1.2543377e-09 0)
(-0.001719362 -1.2053837e-09 0)
(-0.001710558 -1.1589142e-09 1.2353014e-19)
(-0.0017019117 -1.1148167e-09 -5.941466e-20)
(-0.0016934128 -1.0728101e-09 1.143517e-19)
(-0.0016850523 -1.0326526e-09 0)
(-0.0016768225 -9.942811e-10 0)
(-0.0016687147 -9.5768538e-10 -1.5312159e-19)
(-0.0016607202 -9.2276442e-10 0)
(-0.0016528311 -8.8927077e-10 9.4788442e-20)
(-0.0016450417 -8.5708013e-10 0)
(-0.0016373456 -8.2623218e-10 0)
(-0.0016297356 -7.9668825e-10 -4.2460061e-20)
(-0.0016222051 -7.6832478e-10 -4.0948313e-20)
(-0.0016147483 -7.4099164e-10 0)
(-0.0016073605 -7.1463986e-10 -7.6174747e-20)
(-0.0016000364 -6.8929683e-10 0)
(-0.0015927701 -6.6494094e-10 0)
(-0.0015855557 -6.4144671e-10 0)
(-0.0015783892 -6.187153e-10 0)
(-0.0015712661 -5.9675371e-10 0)
(-0.0015641818 -5.7557443e-10 0)
(-0.0015571307 -5.5515263e-10 0)
(-0.0015501079 -5.3537821e-10 0)
(-0.0015431098 -5.161872e-10 0)
(-0.0015361324 -4.9761557e-10 -5.3041738e-20)
(-0.0015291707 -4.7966761e-10 0)
(-0.0015222197 -4.622966e-10 -2.4638409e-20)
(-0.0015152748 -4.4542768e-10 0)
(-0.0015083324 -4.2903096e-10 -2.2865591e-20)
(-0.0015013883 -4.1313881e-10 4.4037174e-20)
(-0.0014944371 -3.9775976e-10 4.2397727e-20)
(-0.0014874733 -3.8281959e-10 -2.0402611e-20)
(-0.0014804932 -3.6826546e-10 0)
(-0.0014734923 -3.5412765e-10 0)
(-0.0014664651 -3.4042119e-10 3.628595e-20)
(-0.0014594055 -3.2710916e-10 -3.4866975e-20)
(-0.0014523082 -3.1414027e-10 0)
(-0.0014451685 -3.0150886e-10 0)
(-0.0014379804 -2.8923899e-10 -3.0830349e-20)
(-0.0014307367 -2.7731344e-10 0)
(-0.0014234309 -2.6568385e-10 0)
(-0.0014160573 -2.5434434e-10 0)
(-0.0014086083 -2.433202e-10 0)
(-0.0014010751 -2.3259053e-10 0)
(-0.0013934499 -2.2211648e-10 0)
(-0.0013857245 -2.1190391e-10 0)
(-0.001377889 -2.0197388e-10 0)
(-0.0013699315 -1.9227106e-10 2.0494374e-20)
(-0.0013618442 -1.8285661e-10 -1.9490973e-20)
(-0.0013537918 -1.7396024e-10 0)
(-0.001346029 -1.6569585e-10 0)
(-0.0013386297 -1.580544e-10 0)
(-0.0013315661 -1.5100742e-10 0)
(-0.0013248117 -1.4451446e-10 0)
(-0.0013183423 -1.3850822e-10 0)
(-0.0013121374 -1.3292839e-10 0)
(-0.0013061786 -1.2774871e-10 0)
(-0.0013004477 -1.2294577e-10 -1.3104915e-20)
(-0.0012949284 -1.1847077e-10 0)
(-0.001289607 -1.1428139e-10 0)
(-0.001284471 -1.1036369e-10 0)
(-0.0012795081 -1.0670822e-10 0)
(-0.0012747066 -1.0330764e-10 0)
(-0.001270055 -1.0013016e-10 0)
(-0.0012655443 -9.7201901e-11 0)
(-0.0012611605 -9.4444042e-11 0)
(-0.0012569023 -9.2244966e-11 0)
(-0.0012527197 -8.9823984e-11 0)
(-0.001248684 -9.0038461e-11 0)
(-0.0012444794 -1.5449192e-10 0)
(-0.0012408347 -1.0570043e-10 -1.135188e-20)
(-0.0012347552 -1.2061445e-10 0)
)
;
    }
    back
    {
        type            empty;
    }
    front
    {
        type            empty;
    }
    inlet
    {
        type            calculated;
        value           uniform (0 0 0);
    }
    outlet
    {
        type            calculated;
        value           uniform (0 0 0);
    }
    top
    {
        type            calculated;
        value           uniform (0 0 0);
    }
    slipsurface
    {
        type            calculated;
        value           uniform (0 0 0);
    }
}


// ************************************************************************* //
