/*--------------------------------*- C++ -*----------------------------------*\
  =========                 |
  \\      /  F ield         | OpenFOAM: The Open Source CFD Toolbox
   \\    /   O peration     | Website:  https://openfoam.org
    \\  /    A nd           | Version:  12
     \\/     M anipulation  |
\*---------------------------------------------------------------------------*/
FoamFile
{
    format      ascii;
    class       volScalarField;
    location    "1700";
    object      yPlus;
}
// * * * * * * * * * * * * * * * * * * * * * * * * * * * * * * * * * * * * * //

dimensions      [];

internalField   uniform 0;

boundaryField
{
    inlet
    {
        type            calculated;
        value           uniform 0;
    }
    top
    {
        type            calculated;
        value           uniform 0;
    }
    outlet
    {
        type            calculated;
        value           uniform 0;
    }
    slipsurface
    {
        type            calculated;
        value           uniform 0;
    }
    bottom
    {
        type            calculated;
        value           nonuniform List<scalar> 
100
(
116.32487
115.15008
113.84571
112.43923
110.95402
109.41059
107.81656
106.17423
104.48773
102.76983
101.04038
99.328443
97.673844
96.124853
94.727
93.507462
92.468662
91.590384
90.849967
90.215913
89.664194
89.173356
88.724363
88.299202
87.889497
87.492074
87.104933
86.727887
86.361468
86.006675
85.66394
85.332348
85.010056
84.690374
84.368825
84.044864
83.720415
83.399275
83.085339
82.781348
82.488495
82.206839
81.935809
81.674206
81.42084
81.170487
80.914772
80.63955
80.322026
79.940979
79.518558
79.10613
78.733065
78.40541
78.113022
77.844301
77.590103
77.342555
77.102956
76.869803
76.642139
76.418753
76.198539
75.980741
75.764754
75.550099
75.336576
75.124082
74.912443
74.70144
74.490872
74.280553
74.070321
73.860026
73.649513
73.438636
73.227249
73.0152
72.802361
72.588596
72.373791
72.157916
71.941078
71.724937
71.526009
71.469083
72.634269
73.226968
73.583288
73.717315
73.736273
73.691131
73.609986
73.506802
73.390117
73.26314
73.133216
72.988219
72.863986
72.616408
)
;
    }
    frontandback
    {
        type            empty;
    }
}


// ************************************************************************* //
