#      distance           pMean         UMean_x         UMean_y         UMean_z         nutMean wallShearStr... wallShearStr... wallShearStr...
  3.0219182e-06   0.00010100832     0.021236372   6.5067262e-08   4.4731216e-39   4.7691708e-13               0               0               0
  5.0865428e-06   0.00010102617     0.035721264   1.0685096e-07   4.4876208e-39   4.3696064e-12               0               0               0
  7.2269684e-06   0.00010105124     0.050706446   1.5085411e-07  -5.1594814e-39    2.437313e-11               0               0               0
  9.4750924e-06   0.00010108318     0.066400795   1.9801579e-07  -9.7877343e-39   9.9194315e-11               0               0               0
  1.1864417e-05    0.0001011213     0.083016738   2.4937705e-07               0   3.2600897e-10               0               0               0
  1.4430548e-05   0.00010116492      0.10076354    3.060997e-07               0   9.1879366e-10               0               0               0
  1.7211727e-05   0.00010121347      0.11983005   3.6943877e-07   1.1186331e-37   2.3008729e-09               0               0               0
  2.0249401e-05   0.00010126661      0.14035064   4.4063117e-07   1.0448316e-37    5.224205e-09               0               0               0
  2.3588836e-05   0.00010132431      0.16235269   5.2073147e-07   2.3536666e-37   1.0870314e-08               0               0               0
  2.7279799e-05   0.00010138697      0.18569953   6.1029363e-07  -1.2670058e-38   2.0845669e-08               0               0               0
  3.1377293e-05    0.0001014555      0.21006408   7.0913524e-07  -3.8429587e-37   3.6997394e-08               0               0               0
  3.5942381e-05   0.00010153126      0.23497143   8.1642078e-07    -1.28879e-37    6.107103e-08               0               0               0
  4.1043091e-05   0.00010161595      0.25990773   9.3091981e-07   2.6249823e-37   9.4425264e-08               0               0               0
  4.6755437e-05   0.00010171135      0.28443845   1.0515573e-06   3.8703383e-37    1.379388e-07               0               0               0
  5.3164546e-05   0.00010181912      0.30828169   1.1780864e-06  -1.2175073e-37   1.9188798e-07               0               0               0
  6.0365928e-05   0.00010194063      0.33130254     1.31127e-06  -3.6795445e-37    2.569256e-07               0               0               0
    6.84669e-05   0.00010207717      0.35343528   1.4524259e-06  -1.2166812e-37   3.3529945e-07               0               0               0
  7.7588184e-05   0.00010223013      0.37462498   1.6030201e-06               0   4.2989191e-07               0               0               0
   8.786571e-05   0.00010240102      0.39483541   1.7647219e-06  -2.1367316e-37   5.4321447e-07               0               0               0
  9.9452634e-05   0.00010259133      0.41406967   1.9396178e-06  -8.8668682e-39   6.7744229e-07               0               0               0
  0.00011252163   0.00010280224      0.43237728   2.1304192e-06   2.0480629e-37   8.3377984e-07               0               0               0
  0.00012726745   0.00010303456      0.44985149   2.3406456e-06    1.520724e-36   1.0122597e-06               0               0               0
  0.00014390985   0.00010328893      0.46660343   2.5744965e-06   4.4074507e-38   1.2143604e-06               0               0               0
  0.00016269684   0.00010356609      0.48272667   2.8364181e-06  -3.7018282e-38   1.4441699e-06               0               0               0
  0.00018390838   0.00010386711      0.49828937   3.1309577e-06   3.1730989e-38   1.7058327e-06               0               0               0
  0.00020786057   0.00010419325      0.51334817   3.4631903e-06  -1.4079002e-36   2.0029671e-06               0               0               0
  0.00023491035   0.00010454595      0.52795518   3.8389121e-06               0   2.3395895e-06               0               0               0
  0.00026546084   0.00010492681      0.54215787   4.2645961e-06               0   2.7201615e-06               0               0               0
   0.0002999673   0.00010533762      0.55599891   4.7475728e-06               0    3.149628e-06               0               0               0
  0.00033894396   0.00010578037      0.56951648   5.2962087e-06               0   3.6334387e-06               0               0               0
  0.00038297165   0.00010625701      0.58274481   5.9201798e-06               0   4.1775788e-06               0               0               0
  0.00043270649   0.00010676946       0.5957146    6.630516e-06               0   4.7886087e-06               0               0               0
  0.00048888965   0.00010731998      0.60845329   7.4396829e-06               0   5.4736835e-06               0               0               0
  0.00055235838   0.00010791117      0.62098535   8.3620518e-06               0   6.2405589e-06               0               0               0
   0.0006240585   0.00010854591      0.63333285   9.4142607e-06               0   7.0975873e-06               0               0               0
  0.00070505852   0.00010922739      0.64551572   1.0615559e-05               0   8.0537025e-06               0               0               0
  0.00079656552   0.00010995914      0.65755214   1.1988221e-05               0   9.1183769e-06               0               0               0
  0.00089994316     0.000110745      0.66945876   1.3557885e-05               0   1.0301535e-05               0               0               0
    0.001016732   0.00011158914      0.68125102   1.5353861e-05               0   1.1613433e-05               0               0               0
   0.0011486725   0.00011249579      0.69294333   1.7408841e-05               0   1.3064472e-05               0               0               0
   0.0012977308   0.00011346879      0.70454927   1.9759358e-05               0   1.4664903e-05               0               0               0
   0.0014661282   0.00011451138       0.7160819   2.2449212e-05               0   1.6424439e-05               0               0               0
   0.0016563743   0.00011562663      0.72755398   2.5533432e-05               0   1.8351712e-05               0               0               0
   0.0018713042   0.00011681822      0.73897821   2.9078947e-05               0   2.0453565e-05               0               0               0
   0.0021141207   0.00011809057      0.75036749   3.3163108e-05               0   2.2734129e-05               0               0               0
   0.0023884425   0.00011944829      0.76173491   3.7875218e-05               0   2.5193594e-05               0               0               0
   0.0026983575   0.00012089562      0.77309391    4.332152e-05               0   2.7826612e-05               0               0               0
   0.0030484842    0.0001224361      0.78445855   4.9630076e-05   4.8555851e-36   3.0620188e-05               0               0               0
   0.0034440402   0.00012407229      0.79584399   5.6955824e-05   7.2994468e-36   3.3551144e-05               0               0               0
   0.0038909203   0.00012580512      0.80726692   6.5487162e-05  -2.1778796e-36   3.6583078e-05               0               0               0
    0.004395784   0.00012763304      0.81874582   7.5454345e-05    -6.93608e-36   3.9662618e-05               0               0               0
   0.0049661549   0.00012955034      0.83030149   8.7139873e-05   3.9301607e-36   4.2715045e-05               0               0               0
   0.0056105328   0.00013154484      0.84195764   0.00010089297   1.0664002e-35   4.5639286e-05               0               0               0
   0.0063385204   0.00013359472      0.85374178   0.00011715201  -3.3116356e-36    4.830234e-05               0               0               0
   0.0071609664   0.00013566507      0.86568664   0.00013647642  -9.6531059e-36   5.0531897e-05               0               0               0
   0.0080901272   0.00013770808      0.87783857   0.00015963672  -1.9219672e-36   5.2044182e-05               0               0               0
   0.0091398493   0.00013966104      0.89027461   0.00018772406               0   5.2435403e-05               0               0               0
    0.010325776   0.00014143355      0.90310474    0.0002222783               0   5.1393737e-05               0               0               0
     0.01166558   0.00014290969      0.91645334   0.00026548386               0   4.8758265e-05               0               0               0
    0.013179228   0.00014396591       0.9304396   0.00032036382               0   4.4454711e-05               0               0               0
    0.014889277   0.00014446109      0.94512291   0.00039072042               0   3.8630747e-05               0               0               0
    0.016821209    0.0001441636      0.96033063   0.00047966748               0   3.1721944e-05               0               0               0
    0.019003816   0.00014300878       0.9754684    0.0005896628               0   2.3796789e-05               0               0               0
    0.021469624   0.00014088769      0.98908918   0.00071020323               0   1.4774827e-05               0               0               0
    0.024255377   0.00013717006       0.9983981   0.00079943878               0   6.5554229e-06               0               0               0
    0.027402591   0.00013221314       1.0021528   0.00083219563               0   1.7392961e-06               0               0               0
    0.030958166   0.00012722391       1.0027976   0.00083516322   4.9925924e-35   2.6635326e-07               0               0               0
    0.034975088   0.00012253464       1.0028205   0.00083353546    5.668461e-35   1.4212926e-07               0               0               0
    0.039513219   0.00011799132       1.0028171   0.00083151671  -3.6408785e-35   1.4168638e-07               0               0               0
    0.044640187   0.00011355742       1.0028153   0.00082989891  -4.3167472e-35   1.4170798e-07               0               0               0
    0.050432395   0.00010934022       1.0028158   0.00082874348    2.271633e-35   1.4170893e-07               0               0               0
    0.056976161   0.00010552041       1.0028168   0.00082770325   7.1974787e-36    1.417086e-07               0               0               0
    0.064369002   0.00010234406       1.0028154   0.00082534782   7.3214904e-36   1.4170857e-07               0               0               0
    0.072721087   9.9929283e-05       1.0028108   0.00082059607    2.700412e-35   1.4170856e-07               0               0               0
    0.082156882   9.8082777e-05       1.0028031   0.00081435012  -2.7946582e-35   1.4170858e-07               0               0               0
    0.092817002   9.6563099e-05       1.0027932   0.00080790166  -3.2110191e-35   1.4170861e-07               0               0               0
