# y+ ()             
# Time              	patch               	min                 	max                 	average             
1000                	top	1.159112415311e+00	2.458173480883e+00	1.262212488936e+00
