#      distance             U_x             U_y             U_z wallShearStr... wallShearStr... wallShearStr...               p             nut         nuTilda
  3.0219182e-06      0.01885576   2.7096759e-09  -3.5563238e-23               0               0               0   0.00024091074   3.1859386e-12   4.3835722e-08
  5.0865428e-06      0.03174107   6.8740758e-09  -1.5136021e-23               0               0               0   0.00024091096    1.579146e-11    7.378625e-08
  7.2269684e-06     0.045097666   1.3536328e-08  -3.8981953e-23               0               0               0   0.00024091119    5.395439e-11   1.0483249e-07
  9.4750924e-06      0.05912159    2.306969e-08  -5.8466675e-23               0               0               0   0.00024091141   1.4693846e-10   1.3743519e-07
  1.1864417e-05     0.074015269   3.6000983e-08  -2.4741235e-23               0               0               0   0.00024091165   3.4559012e-10   1.7207764e-07
  1.4430548e-05     0.089987209   5.3088875e-08    8.086949e-23               0               0               0   0.00024091191   7.3594018e-10   2.0927261e-07
  1.7211727e-05      0.10724898    7.533188e-08    1.318026e-22               0               0               0    0.0002409122   1.4613053e-09   2.4956986e-07
  2.0249401e-05      0.12600734    1.040024e-07   2.7889826e-23               0               0               0   0.00024091252    2.757537e-09   2.9356457e-07
  2.3588836e-05      0.14644814   1.4068785e-07  -3.5573542e-23               0               0               0   0.00024091288   5.0082721e-09   3.4190752e-07
  2.7279799e-05      0.16870715   1.8731682e-07  -1.7786771e-23               0               0               0    0.0002409133   8.8297836e-09   3.9531835e-07
  3.1377293e-05      0.19282311   2.4614415e-07               0               0               0               0   0.00024091382    1.519783e-08   4.5460374e-07
  3.5942381e-05      0.21867187   3.1965943e-07   8.7733639e-23               0               0               0   0.00024091446   2.5629935e-08   5.2068203e-07
  4.1043091e-05      0.24589331   4.1038564e-07   1.3158638e-22               0               0               0   0.00024091531    4.243034e-08   5.9461158e-07
  4.6755437e-05      0.27384608   5.2057665e-07   1.5308164e-22               0               0               0   0.00024091647   6.8978234e-08   6.7761032e-07
  5.3164546e-05       0.3016444   6.5192287e-07   1.6382582e-22               0               0               0   0.00024091809   1.0997283e-07   7.7104419e-07
  6.0365928e-05      0.32831391   8.0547692e-07  -2.3004468e-22               0               0               0   0.00024092041   1.7144564e-07   8.7637531e-07
    6.84669e-05      0.35302728   9.8196788e-07  -4.9908235e-22               0               0               0    0.0002409237   2.6029721e-07   9.9510871e-07
  7.7588184e-05      0.37530126   1.1824219e-06   -2.625807e-22               0               0               0   0.00024092825   3.8325104e-07   1.1288075e-06
   8.786571e-05      0.39504966   1.4087676e-06   4.5636825e-23               0               0               0   0.00024093435   5.4545408e-07   1.2791939e-06
  9.9452634e-05      0.41249307   1.6641521e-06   2.4762487e-22               0               0               0   0.00024094219   7.4928845e-07   1.4482734e-06
  0.00011252163      0.42801085   1.9529585e-06   6.8013148e-23               0               0               0   0.00024095184   9.9402209e-07   1.6384184e-06
  0.00012726745      0.44201641    2.280689e-06  -1.0877215e-22               0               0               0   0.00024096331   1.2765788e-06   1.8524009e-06
  0.00014390985        0.454885   2.6538639e-06  -2.2937212e-23               0               0               0   0.00024097652   1.5931156e-06   2.0934007e-06
  0.00016269684      0.46692564   3.0799984e-06   6.0094799e-23               0               0               0   0.00024099144    1.940691e-06   2.3650143e-06
  0.00018390838      0.47837848   3.5676627e-06   4.4442287e-22               0               0               0    0.0002410081   2.3183922e-06   2.6712743e-06
  0.00020786057      0.48942352   4.1266083e-06    5.463927e-22               0               0               0   0.00024102665   2.7277179e-06   3.0166829e-06
  0.00023491035       0.5001924   4.7679448e-06   1.6206462e-22               0               0               0   0.00024104731   3.1723954e-06    3.406257e-06
  0.00026546084       0.5107798   5.5043574e-06               0               0               0               0   0.00024107042   3.6579483e-06   3.8455819e-06
   0.0002999673      0.52125296    6.350362e-06               0               0               0               0   0.00024109639   4.1912588e-06   4.3408701e-06
  0.00033894396      0.53165922   7.3226017e-06  -1.7303324e-22               0               0               0   0.00024112571   4.7802414e-06   4.8990201e-06
  0.00038297165      0.54203174   8.4401926e-06  -3.4606648e-22               0               0               0   0.00024115894    5.433646e-06   5.5276732e-06
  0.00043270649      0.55239378   9.7251307e-06   6.9969426e-22               0               0               0   0.00024119671    6.160965e-06   6.2352628e-06
  0.00048888965      0.56276183   1.1202772e-05   1.3826602e-21               0               0               0   0.00024123976   6.9724014e-06   7.0310505e-06
  0.00055235838       0.5731479   1.2902406e-05   5.0993268e-22               0               0               0   0.00024128889   7.8788642e-06   7.9251437e-06
   0.0006240585      0.58356122   1.4857939e-05               0               0               0               0   0.00024134502   8.8919589e-06   8.9284831e-06
  0.00070505852      0.59400948   1.7108723e-05   2.4322105e-22               0               0               0    0.0002414092    1.002395e-05   1.0052792e-05
  0.00079656552      0.60449976   1.9700558e-05    4.864421e-22               0               0               0    0.0002414826   1.1287674e-05   1.1310473e-05
  0.00089994316      0.61503929   2.2686915e-05   2.4322105e-22               0               0               0   0.00024156657   1.2696385e-05   1.2714433e-05
    0.001016732      0.62563602   2.6130439e-05               0               0               0               0   0.00024166262   1.4263517e-05   1.4277829e-05
   0.0011486725      0.63629915   3.0104793e-05   1.0008055e-21               0               0               0   0.00024177244   1.6002342e-05   1.6013719e-05
   0.0012977308      0.64703952   3.4696937e-05   -7.812116e-22               0               0               0   0.00024189795   1.7925524e-05   1.7934592e-05
   0.0014661282      0.65787003   4.0009935e-05  -3.4516542e-21               0               0               0   0.00024204126   2.0044558e-05   2.0051809e-05
   0.0016563743      0.66880592    4.616641e-05  -2.8032908e-21               0               0               0   0.00024220475   2.2369106e-05   2.2374926e-05
   0.0018713042      0.67986512    5.331279e-05  -1.7384336e-21               0               0               0   0.00024239096   2.4906247e-05   2.4910939e-05
   0.0021141207      0.69106844   6.1624491e-05  -6.0477999e-22               0               0               0   0.00024260265   2.7659662e-05   2.7663464e-05
   0.0023884425      0.70243972   7.1312225e-05  -4.5755102e-22               0               0               0    0.0002428427   3.0628774e-05   3.0631872e-05
   0.0026983575      0.71400591   8.2629638e-05   1.1645048e-21               0               0               0     0.000243114   3.3807836e-05   3.3810376e-05
   0.0030484842      0.72579711   9.5882502e-05  -2.4173066e-21               0               0               0   0.00024341937    3.718495e-05   3.7187048e-05
   0.0034440402      0.73784646   0.00011143975  -5.8359062e-21               0               0               0   0.00024376127   4.0740954e-05     4.07427e-05
   0.0038909203      0.75018999   0.00012974659  -1.7965437e-21               0               0               0   0.00024414148   4.4448079e-05   4.4449544e-05
    0.004395784      0.76286643   0.00015133981   3.8239482e-21               0               0               0   0.00024456062   4.8268285e-05   4.8269526e-05
   0.0049661549      0.77591681   0.00017686585  -4.6080488e-21               0               0               0    0.0002450176    5.215117e-05   5.2152232e-05
   0.0056105328      0.78938397   0.00020710456   -1.511591e-20               0               0               0   0.00024550928   5.6031387e-05   5.6032306e-05
   0.0063385204      0.80331172   0.00024300349   5.6644577e-21               0               0               0   0.00024602978   5.9825498e-05   5.9826303e-05
   0.0071609664      0.81774354   0.00028570595   2.0570657e-20               0               0               0   0.00024656346    6.342825e-05   6.3428965e-05
   0.0080901272      0.83272042   0.00033636869   4.7958723e-20               0               0               0   0.00024708498   6.6708205e-05   6.6708851e-05
   0.0091398493      0.84827737   0.00039661294     6.06145e-20               0               0               0   0.00024756316   6.9502693e-05   6.9503287e-05
    0.010325776      0.86443766   0.00046840869   2.5777838e-20               0               0               0   0.00024795051   7.1612022e-05   7.1612581e-05
     0.01166558      0.88120366   0.00055357579    4.899777e-21               0               0               0    0.0002481796    7.279293e-05   7.2793471e-05
    0.013179228      0.89854183   0.00065411967   1.6397255e-20               0               0               0   0.00024815772    7.275137e-05   7.2751911e-05
    0.014889277      0.91635822   0.00077200933   1.4082541e-20               0               0               0   0.00024775393   7.1135016e-05   7.1135583e-05
    0.016821209      0.93445757   0.00090853701    4.157922e-20               0               0               0   0.00024679433   6.7526283e-05   6.7526916e-05
    0.019003816      0.95247378    0.0010631831   6.5192225e-20               0               0               0   0.00024505587   6.1436804e-05    6.143758e-05
    0.021469624      0.96974905     0.001231571   3.3532158e-20               0               0               0   0.00024229118   5.2296866e-05   5.2297984e-05
    0.024255377      0.98516144    0.0014048173   1.3879284e-20               0               0               0   0.00023836867   3.9261079e-05   3.9263532e-05
    0.027402591      0.99661758    0.0015423729   1.6453789e-21               0               0               0   0.00023278711   2.2517535e-05   2.2546946e-05
    0.030958166       1.0023364    0.0016046757               0               0               0               0   0.00022549833   8.2094583e-06    8.402246e-06
    0.034975088       1.0037619    0.0016139765               0               0               0               0   0.00021783911   2.2376917e-06   2.6683632e-06
    0.039513219       1.0038584    0.0016052593   1.9843135e-20               0               0               0    0.0002105696   1.4460817e-06   1.9797338e-06
    0.044640187       1.0038605    0.0015948041   2.8292028e-20               0               0               0   0.00020335609   1.4399911e-06   1.9751123e-06
    0.050432395       1.0038661    0.0015845233   6.9792882e-21               0               0               0   0.00019602126   1.4484394e-06   1.9815061e-06
    0.056976161       1.0038709    0.0015722911  -1.4695693e-21               0               0               0   0.00018864105   1.4551923e-06   1.9866191e-06
    0.064369002       1.0038732    0.0015595647               0               0               0               0   0.00018134828    1.460675e-06   1.9907725e-06
    0.072721087       1.0038714    0.0015451524               0               0               0               0    0.0001742781   1.4653183e-06   1.9942913e-06
    0.082156882       1.0038667    0.0015300231               0               0               0               0   0.00016753013   1.4692878e-06   1.9973005e-06
    0.092817002       1.0038593    0.0015136144               0               0               0               0   0.00016119281   1.4734544e-06   2.0004601e-06
