#      distance             U_x             U_y             U_z wallShearStr... wallShearStr... wallShearStr...               p             nut         nuTilda
              0      0.99949524               0               0               0               0               0    0.0046993783   1.4775485e-06   2.0035626e-06
   0.0021021021      0.99948068               0               0               0               0               0    0.0047174116   1.4777017e-06   2.0036787e-06
   0.0042042042      0.99946613               0               0               0               0               0    0.0047354449   1.4778548e-06   2.0037949e-06
   0.0063063063      0.99945157               0               0               0               0               0    0.0047534781   1.4780079e-06    2.003911e-06
   0.0084084084      0.99943702               0               0               0               0               0    0.0047715114    1.478161e-06   2.0040272e-06
    0.010510511      0.99942041               0               0               0               0               0    0.0047919455   1.4783301e-06   2.0041555e-06
    0.012612613      0.99940252               0               0               0               0               0    0.0048138707   1.4785092e-06   2.0042913e-06
    0.014714715      0.99938464               0               0               0               0               0    0.0048357959   1.4786883e-06   2.0044272e-06
    0.016816817      0.99936675               0               0               0               0               0     0.004857721   1.4788674e-06    2.004563e-06
    0.018918919      0.99934887               0               0               0               0               0    0.0048796462   1.4790465e-06   2.0046989e-06
    0.021021021      0.99933045               0               0               0               0               0    0.0049021817   1.4792293e-06   2.0048375e-06
    0.023123123      0.99930844               0               0               0               0               0      0.00492882   1.4794367e-06   2.0049948e-06
    0.025225225      0.99928642               0               0               0               0               0    0.0049554583    1.479644e-06   2.0051521e-06
    0.027327327      0.99926441               0               0               0               0               0    0.0049820967   1.4798514e-06   2.0053094e-06
    0.029429429       0.9992424               0               0               0               0               0     0.005008735   1.4800587e-06   2.0054667e-06
    0.031531532      0.99921907               0               0               0               0               0    0.0050368451   1.4802739e-06     2.00563e-06
    0.033633634      0.99919189               0               0               0               0               0    0.0050692539   1.4805121e-06   2.0058107e-06
    0.035735736      0.99916471               0               0               0               0               0    0.0051016627   1.4807503e-06   2.0059914e-06
    0.037837838      0.99913754               0               0               0               0               0    0.0051340716   1.4809884e-06    2.006172e-06
     0.03993994      0.99911036               0               0               0               0               0    0.0051664804   1.4812266e-06   2.0063527e-06
    0.042042042      0.99907719               0               0               0               0               0    0.0052054361   1.4814956e-06   2.0065568e-06
    0.044144144      0.99904346               0               0               0               0               0    0.0052450053   1.4817675e-06   2.0067631e-06
    0.046246246      0.99900973               0               0               0               0               0    0.0052845746   1.4820394e-06   2.0069694e-06
    0.048348348      0.99897569               0               0               0               0               0    0.0053244757   1.4823126e-06   2.0071767e-06
     0.05045045      0.99893355               0               0               0               0               0    0.0053730883   1.4826215e-06   2.0074111e-06
    0.052552553      0.99889141               0               0               0               0               0    0.0054217009   1.4829304e-06   2.0076455e-06
    0.054654655      0.99884927               0               0               0               0               0    0.0054703135   1.4832393e-06   2.0078798e-06
    0.056756757      0.99880089               0               0               0               0               0    0.0055254444   1.4835711e-06   2.0081316e-06
    0.058858859      0.99874759               0               0               0               0               0    0.0055857143    1.483921e-06   2.0083971e-06
    0.060960961      0.99869429               0               0               0               0               0    0.0056459842   1.4842709e-06   2.0086626e-06
    0.063063063      0.99863471               0               0               0               0               0    0.0057128615   1.4846402e-06   2.0089428e-06
    0.065165165      0.99856664               0               0               0               0               0    0.0057886721   1.4850356e-06   2.0092428e-06
    0.067267267      0.99849857               0               0               0               0               0    0.0058644826    1.485431e-06   2.0095429e-06
    0.069369369      0.99841761               0               0               0               0               0    0.0059527114   1.4858564e-06   2.0098657e-06
    0.071471471      0.99832744               0               0               0               0               0    0.0060497943   1.4863032e-06   2.0102048e-06
    0.073573574      0.99823728               0               0               0               0               0    0.0061468772     1.48675e-06   2.0105439e-06
    0.075675676      0.99811905               0               0               0               0               0    0.0062754011   1.4872564e-06   2.0109282e-06
    0.077777778       0.9980005               0               0               0               0               0     0.006404282   1.4877635e-06    2.011313e-06
     0.07987988      0.99784511               0               0               0               0               0    0.0065610587    1.488305e-06    2.011724e-06
    0.081981982      0.99766494               0               0               0               0               0    0.0067365902   1.4888697e-06   2.0121527e-06
    0.084084084      0.99746285               0               0               0               0               0    0.0069475279    1.489484e-06   2.0126189e-06
    0.086186186      0.99722382               0               0               0               0               0    0.0072181067   1.4901816e-06   2.0131484e-06
    0.088288288      0.99686327               0  -1.7933416e-22               0               0               0    0.0075230155   1.4908444e-06   2.0136514e-06
     0.09039039      0.99618428               0  -8.2862315e-22               0               0               0    0.0079178877   1.4914158e-06   2.0140851e-06
    0.092492492      0.99553572               0   1.9833345e-17               0               0               0    0.0085464142   1.4919898e-06   2.0145206e-06
    0.094594595      0.99496743               0   9.1969157e-17               0               0               0    0.0097910543   1.4925707e-06    2.014961e-06
    0.096696697      0.90693464               0   1.3984886e-16  -0.00050264008  -3.0975524e-06               0     0.010658925   1.3614496e-06   1.8376978e-06
    0.098798799      0.64625605               0   1.3984953e-16   -0.0019974392   -1.230935e-05               0     0.010783093   9.7036242e-07   1.3096662e-06
      0.1009009      0.38562493               0   1.0844552e-16   -0.0031748192  -1.7616336e-05  -2.0839932e-18     0.009894236   5.7916555e-07   7.8159434e-07
       0.103003      0.12505713               0   3.5168589e-17   -0.0039289734  -1.7716908e-05  -6.9466439e-18     0.007654679   1.8782244e-07   2.5346894e-07
     0.10510511               0               0               0   -0.0038681997  -1.3026253e-05  -9.3500342e-18    0.0058800527   7.8380247e-13               0
     0.10720721               0               0               0   -0.0030553632  -3.9139776e-06  -9.4838762e-18    0.0045344915   5.3938821e-13               0
     0.10930931               0               0               0   -0.0026652574  -1.7756904e-07  -6.8379798e-18    0.0040459535   4.2574498e-13               0
     0.11141141               0               0               0   -0.0025615586  -8.3396223e-08  -2.3087664e-18    0.0041380625    4.007012e-13               0
     0.11351351               0               0               0   -0.0024987028  -3.9202051e-08  -6.6502616e-19    0.0042663546   3.8575489e-13               0
     0.11561562               0               0               0    -0.002457251  -2.1199241e-08  -5.3342102e-19    0.0044136085   3.7610017e-13               0
     0.11771772               0               0               0   -0.0024242957   -1.448111e-08  -3.1885754e-19    0.0044701264    3.684996e-13               0
     0.11981982               0               0               0   -0.0023949901  -1.2610445e-08  -6.8658339e-20    0.0044876676   3.6178141e-13               0
     0.12192192               0               0               0   -0.0023688996  -1.1487769e-08               0    0.0044694697   3.5584854e-13               0
     0.12402402               0               0               0    -0.002344025  -1.0647982e-08               0    0.0044377554   3.5021268e-13               0
     0.12612613               0               0               0   -0.0023214067  -9.9715343e-09               0    0.0044033501    3.451252e-13               0
     0.12822823               0               0               0   -0.0022996073  -9.3543727e-09               0     0.004367968   3.4023677e-13               0
     0.13033033               0               0               0   -0.0022796038  -8.8245894e-09               0    0.0043338082   3.3578015e-13               0
     0.13243243               0               0               0   -0.0022602878   -8.328255e-09               0    0.0043001163   3.3148883e-13               0
     0.13453453               0               0               0   -0.0022423763  -7.8974763e-09  -1.2584323e-19    0.0042665268   3.2753216e-13               0
     0.13663664               0               0               0    -0.002225086  -7.4956982e-09  -3.0735717e-19    0.0042329824   3.2372353e-13               0
     0.13873874               0               0               0   -0.0022088648  -7.1403346e-09  -3.7209151e-19    0.0041997512   3.2016774e-13               0
     0.14084084               0               0               0   -0.0021932362  -6.8106999e-09  -3.7209155e-19    0.0041666936    3.167521e-13               0
     0.14294294               0               0               0   -0.0021784063  -6.5114583e-09  -3.5520581e-19    0.0041343881     3.13524e-13               0
     0.14504505               0               0               0   -0.0021641726  -6.2349007e-09  -3.2571728e-19    0.0041026442   3.1043587e-13               0
     0.14714715               0               0               0   -0.0021505133  -5.9777601e-09  -2.4551654e-19    0.0040717642   3.0748162e-13               0
     0.14924925               0               0               0   -0.0021374757  -5.7416295e-09  -1.1044291e-19    0.0040418191   3.0467225e-13               0
     0.15135135               0               0               0   -0.0021248182   -5.517313e-09  -1.6808807e-20    0.0040125518   3.0195083e-13               0
     0.15345345               0               0               0   -0.0021128201   -5.313497e-09   4.9170947e-21    0.0039844605   2.9938201e-13               0
     0.15555556               0               0               0   -0.0021010295  -5.1157202e-09  -8.3875693e-21    0.0039567548   2.9686088e-13               0
     0.15765766               0               0               0   -0.0020899426  -4.9384275e-09  -1.4050923e-19    0.0039303567    2.945015e-13               0
     0.15975976               0               0               0   -0.0020789086  -4.7625788e-09   -2.491625e-19    0.0039040607    2.921542e-13               0
     0.16186186               0               0               0   -0.0020686265  -4.6072484e-09  -2.4330244e-20    0.0038792173   2.8997859e-13               0
     0.16396396               0               0               0   -0.0020583444  -4.4519179e-09   2.0050201e-19    0.0038543739   2.8780299e-13               0
     0.16606607               0               0               0   -0.0020486916  -4.3127222e-09   2.2773712e-19    0.0038308027   2.8577019e-13               0
     0.16816817               0               0               0   -0.0020391255  -4.1757503e-09   2.2773715e-19    0.0038074069   2.8375707e-13               0
     0.17027027               0               0               0   -0.0020299863  -4.0491516e-09   1.3043694e-19    0.0037849133   2.8184027e-13               0
     0.17237237               0               0               0   -0.0020210611  -3.9277518e-09  -1.5628736e-20    0.0037628718   2.7997174e-13               0
     0.17447447               0               0               0   -0.0020123818  -3.8120589e-09  -9.9378822e-20    0.0037413531   2.7815836e-13               0
     0.17657658               0               0               0   -0.0020040329  -3.7040359e-09  -9.9378834e-20    0.0037205369   2.7641911e-13               0
     0.17867868               0               0               0   -0.0019957668  -3.5978497e-09  -1.0463681e-19    0.0036999016   2.7469837e-13               0
     0.18078078               0               0               0   -0.0019879382  -3.5013536e-09  -1.3763389e-19    0.0036802202   2.7307521e-13               0
     0.18288288               0               0               0   -0.0019801095  -3.4048576e-09  -1.7063097e-19    0.0036605389   2.7145205e-13               0
     0.18498498               0               0               0    -0.001972688  -3.3169898e-09  -1.1392784e-19    0.0036417492   2.6991929e-13               0
     0.18708709               0               0               0    -0.001965331  -3.2304886e-09  -4.3018834e-20    0.0036231008   2.6840084e-13               0
     0.18918919               0               0               0   -0.0019582046  -3.1486573e-09   2.9719109e-20    0.0036049562   2.6693333e-13               0
     0.19129129               0               0               0   -0.0019512766  -3.0708463e-09   1.0403156e-19    0.0035872455   2.6550968e-13               0
     0.19339339               0               0               0   -0.0019444195  -2.9943954e-09   1.5246333e-19    0.0035696976   2.6410159e-13               0
      0.1954955               0               0               0   -0.0019378835  -2.9241185e-09   8.3424466e-20    0.0035528889   2.6276413e-13               0
      0.1975976               0               0               0   -0.0019313476  -2.8538415e-09   1.4385602e-20    0.0035360803   2.6142667e-13               0
      0.1996997               0               0               0   -0.0019250963  -2.7888477e-09               0    0.0035198871   2.6015152e-13               0
      0.2018018               0               0               0     -0.00191892  -2.7252446e-09               0    0.0035038559   2.5889276e-13               0
      0.2039039               0               0               0   -0.0019128656   -2.663825e-09  -1.9840882e-20     0.003488092   2.5766059e-13               0
     0.20600601               0               0               0   -0.0019070194  -2.6061319e-09  -7.3542525e-20    0.0034727843   2.5647378e-13               0
     0.20810811               0               0               0   -0.0019011732  -2.5484388e-09  -1.2724417e-19    0.0034574765   2.5528697e-13               0
     0.21021021               0               0               0   -0.0018956049  -2.4954519e-09  -1.3192625e-19    0.0034428294   2.5416047e-13               0
     0.21231231               0               0               0   -0.0018900631  -2.4429145e-09  -1.3192627e-19    0.0034282455   2.5303973e-13               0
     0.21441441               0               0               0   -0.0018846398  -2.3923246e-09  -1.1000079e-19    0.0034139184   2.5194459e-13               0
     0.21651652               0               0               0   -0.0018793798  -2.3444196e-09  -5.7846148e-20    0.0033999456   2.5088475e-13               0
     0.21861862               0               0               0   -0.0018741198  -2.2965147e-09  -5.6915065e-21    0.0033859727    2.498249e-13               0
     0.22072072               0               0               0   -0.0018690921   -2.252337e-09               0    0.0033724976   2.4881506e-13               0
     0.22282282               0               0               0   -0.0018640929  -2.2086159e-09               0    0.0033590834   2.4781135e-13               0
     0.22492492               0               0               0   -0.0018591717   -2.166081e-09               0    0.0033458542   2.4682439e-13               0
     0.22702703               0               0               0   -0.0018544145  -2.1260341e-09               0    0.0033330128   2.4587257e-13               0
     0.22912913               0               0               0   -0.0018496572  -2.0859872e-09               0    0.0033201713   2.4492075e-13               0
     0.23123123               0               0               0   -0.0018450612  -2.0482902e-09  -2.7757619e-20    0.0033076962   2.4400339e-13               0
     0.23333333               0               0               0   -0.0018405295  -2.0115302e-09  -6.6584857e-20    0.0032953671   2.4309977e-13               0
     0.23543544               0               0               0   -0.0018360117  -1.9749685e-09    -1.00481e-19    0.0032830665   2.4219909e-13               0
     0.23753754               0               0               0   -0.0018316904  -1.9412366e-09  -6.4009557e-20    0.0032711739   2.4134026e-13               0
     0.23963964               0               0               0   -0.0018273691  -1.9075046e-09  -2.7538118e-20    0.0032592812   2.4048144e-13               0
     0.24174174               0               0               0   -0.0018231211  -1.8747855e-09   9.3479436e-21    0.0032475539   2.3963814e-13               0
     0.24384384               0               0               0    -0.001818996  -1.8437685e-09   4.6930857e-20    0.0032361045   2.3882095e-13               0
     0.24594595               0               0               0    -0.001814871  -1.8127515e-09    8.451377e-20     0.003224655   2.3800375e-13               0
     0.24804805               0               0               0   -0.0018108629  -1.7832528e-09    7.576431e-20    0.0032134905   2.3721128e-13               0
     0.25015015               0               0               0   -0.0018069218  -1.7546235e-09   4.0486431e-20    0.0032024891   2.3643297e-13               0
     0.25225225               0               0               0   -0.0018029807  -1.7259942e-09   5.2085518e-21    0.0031914877   2.3565465e-13               0
     0.25435435               0               0               0   -0.0017991869  -1.6992376e-09               0    0.0031808018   2.3490739e-13               0
     0.25645646               0               0               0   -0.0017954186  -1.6728054e-09               0    0.0031701706    2.341655e-13               0
     0.25855856               0               0               0   -0.0017916537  -1.6464155e-09   5.8753977e-22    0.0031595461   2.3342431e-13               0
     0.26066066               0               0               0   -0.0017880477  -1.6220375e-09   2.9115966e-20    0.0031492416   2.3271649e-13               0
     0.26276276               0               0               0   -0.0017844417  -1.5976594e-09   5.7644393e-20    0.0031389372   2.3200867e-13               0
     0.26486486               0               0               0   -0.0017808568  -1.5735356e-09   8.2215085e-20    0.0031286821   2.3130528e-13               0
     0.26696697               0               0               0   -0.0017774031  -1.5509906e-09   8.2215104e-20    0.0031187336   2.3062936e-13               0
     0.26906907               0               0               0   -0.0017739494  -1.5284456e-09   8.2215124e-20    0.0031087851   2.2995344e-13               0
     0.27117117               0               0               0   -0.0017705251  -1.5062324e-09    7.658071e-20    0.0030989086   2.2928367e-13               0
     0.27327327               0               0               0   -0.0017672153  -1.4853075e-09   4.9066535e-20    0.0030893117   2.2863777e-13               0
     0.27537538               0               0               0   -0.0017639054  -1.4643827e-09   2.1552359e-20    0.0030797147   2.2799187e-13               0
     0.27747748               0               0               0    -0.001760625  -1.4437857e-09  -5.1595062e-21      0.00307018    2.273521e-13               0
     0.27957958               0               0               0   -0.0017574512  -1.4243738e-09  -2.8970969e-20    0.0030608701   2.2673452e-13               0
     0.28168168               0               0               0   -0.0017542774  -1.4049619e-09  -5.2782432e-20    0.0030515601   2.2611693e-13               0
     0.28378378               0               0               0   -0.0017511258  -1.3857969e-09  -7.2492314e-20    0.0030422937   2.2550394e-13               0
     0.28588589               0               0               0   -0.0017480805  -1.3678186e-09  -7.2492334e-20    0.0030332366   2.2491301e-13               0
     0.28798799               0               0               0   -0.0017450352  -1.3498403e-09  -7.2492353e-20    0.0030241794   2.2432208e-13               0
     0.29009009               0               0               0   -0.0017419983   -1.331951e-09  -7.0906583e-20    0.0030151418   2.2373288e-13               0
     0.29219219               0               0               0   -0.0017390743  -1.3152595e-09  -4.7995272e-20    0.0030063675   2.2316705e-13               0
     0.29429429               0               0               0   -0.0017361504  -1.2985679e-09  -2.5083961e-20    0.0029975932   2.2260121e-13               0
      0.2963964               0               0               0   -0.0017332264  -1.2818764e-09  -2.1726498e-21    0.0029888189   2.2203537e-13               0
      0.2984985               0               0               0   -0.0017304066  -1.2662127e-09               0    0.0029803066   2.2149104e-13               0
      0.3006006               0               0               0   -0.0017275978  -1.2506566e-09               0    0.0029718218   2.2094896e-13               0
      0.3027027               0               0               0    -0.001724789  -1.2351006e-09               0     0.002963337   2.2040687e-13               0
      0.3048048               0               0               0   -0.0017220545  -1.2202663e-09   1.2708839e-20    0.0029550091   2.1988007e-13               0
     0.30690691               0               0               0   -0.0017193553  -1.2057754e-09   3.1464328e-20     0.002946756   2.1936053e-13               0
     0.30900901               0               0               0   -0.0017166561  -1.1912846e-09   5.0219816e-20    0.0029385028   2.1884098e-13               0
     0.31111111               0               0               0   -0.0017139968  -1.1771852e-09   5.8383768e-20    0.0029303269   2.1832964e-13               0
     0.31321321               0               0               0   -0.0017114017  -1.1637143e-09   4.9547948e-20     0.002922275   2.1783144e-13               0
     0.31531532               0               0               0   -0.0017088066  -1.1502433e-09   4.0712129e-20    0.0029142231   2.1733324e-13               0
     0.31741742               0               0               0   -0.0017062135  -1.1367921e-09    3.203516e-20    0.0029061759   2.1683547e-13               0
     0.31951952               0               0               0   -0.0017037171  -1.1242531e-09   3.0698503e-20    0.0028983449   2.1635747e-13               0
     0.32162162               0               0               0   -0.0017012208   -1.111714e-09   2.9361846e-20     0.002890514   2.1587947e-13               0
     0.32372372               0               0               0   -0.0016987244   -1.099175e-09   2.8025189e-20    0.0028826831   2.1540147e-13               0
     0.32582583               0               0               0   -0.0016962832  -1.0871225e-09   3.2438856e-20    0.0028749888   2.1493473e-13               0
     0.32792793               0               0               0   -0.0016938809  -1.0754131e-09   4.0904952e-20    0.0028673908   2.1447592e-13               0
     0.33003003               0               0               0   -0.0016914786  -1.0637036e-09   4.9371047e-20    0.0028597929   2.1401711e-13               0
     0.33213213               0               0               0   -0.0016890832  -1.0520528e-09    5.595697e-20    0.0028522108   2.1355971e-13               0
     0.33423423               0               0               0   -0.0016867708  -1.0411056e-09   4.0018288e-20    0.0028448192   2.1311919e-13               0
     0.33633634               0               0               0   -0.0016844584  -1.0301583e-09   2.4079606e-20    0.0028374276   2.1267867e-13               0
     0.33843844               0               0               0    -0.001682146  -1.0192111e-09   8.1409232e-21     0.002830036   2.1223815e-13               0
     0.34054054               0               0               0   -0.0016798757  -1.0086207e-09  -1.0208886e-20    0.0028227284   2.1180616e-13               0
     0.34264264               0               0               0   -0.0016776492  -9.9840279e-10  -3.1075932e-20    0.0028155085   2.1138307e-13               0
     0.34474474               0               0               0   -0.0016754228  -9.8818493e-10  -5.1942978e-20    0.0028082886   2.1095998e-13               0
     0.34684685               0               0               0   -0.0016731963  -9.7796706e-10  -7.2810024e-20    0.0028010686   2.1053689e-13               0
     0.34894895               0               0               0    -0.001671037  -9.6831632e-10  -7.6571536e-20    0.0027939851   2.1012739e-13               0
     0.35105105               0               0               0   -0.0016688925  -9.5879028e-10  -7.6571565e-20    0.0027869316   2.0972089e-13               0
     0.35315315               0               0               0    -0.001666748  -9.4926424e-10  -7.6571595e-20    0.0027798781   2.0931438e-13               0
     0.35525526               0               0               0   -0.0016646085  -9.3977876e-10  -7.4477918e-20    0.0027728367    2.089089e-13               0
     0.35735736               0               0               0   -0.0016625422  -9.3087733e-10  -4.2227085e-20      0.00276597   2.0851817e-13               0
     0.35945946               0               0               0   -0.0016604759  -9.2197591e-10  -9.9762516e-21    0.0027591033   2.0812745e-13               0
     0.36156156               0               0               0   -0.0016584096  -9.1307449e-10   2.2274582e-20    0.0027522366   2.0773673e-13               0
     0.36366366               0               0               0   -0.0016563598  -9.0429633e-10   4.7400403e-20     0.002745412   2.0734935e-13               0
     0.36576577               0               0               0   -0.0016543685  -8.9595286e-10   4.7400423e-20     0.002738736   2.0697372e-13               0
     0.36786787               0               0               0   -0.0016523772  -8.8760939e-10   4.7400443e-20      0.00273206    2.065981e-13               0
     0.36996997               0               0               0   -0.0016503859  -8.7926592e-10   4.7400463e-20    0.0027253839   2.0622247e-13               0
     0.37207207               0               0               0    -0.001648415  -8.7107272e-10   4.4067755e-20    0.0027187507   2.0585095e-13               0
     0.37417417               0               0               0   -0.0016464958  -8.6325893e-10    3.231983e-20    0.0027122255   2.0548979e-13               0
     0.37627628               0               0               0   -0.0016445766  -8.5544514e-10   2.0571905e-20    0.0027057003   2.0512864e-13               0
     0.37837838               0               0               0   -0.0016426573  -8.4763135e-10   8.8239795e-21    0.0026991751   2.0476748e-13               0
     0.38048048               0               0               0   -0.0016407553  -8.3994523e-10  -1.2774152e-21     0.002692683   2.0440977e-13               0
     0.38258258               0               0               0   -0.0016389051   -8.326444e-10  -6.4098563e-21     0.002686291   2.0406245e-13               0
     0.38468468               0               0               0   -0.0016370549  -8.2534357e-10  -1.1542297e-20    0.0026798989   2.0371513e-13               0
     0.38678679               0               0               0   -0.0016352048  -8.1804274e-10  -1.6674739e-20    0.0026735069    2.033678e-13               0
     0.38888889               0               0               0    -0.001633362  -8.1079531e-10  -2.1772748e-20    0.0026671312   2.0302196e-13               0