/*--------------------------------*- C++ -*----------------------------------*\
  =========                 |
  \\      /  F ield         | OpenFOAM: The Open Source CFD Toolbox
   \\    /   O peration     | Website:  https://openfoam.org
    \\  /    A nd           | Version:  12
     \\/     M anipulation  |
\*---------------------------------------------------------------------------*/
FoamFile
{
    format      ascii;
    class       volScalarField;
    location    "500";
    object      p;
}
// * * * * * * * * * * * * * * * * * * * * * * * * * * * * * * * * * * * * * //

dimensions      [0 2 -2 0 0 0 0];

internalField   nonuniform List<scalar> 
3000
(
13.3837243227
13.3863175083
13.39003561
13.3954343
13.4020030905
13.4093932177
13.4173825842
13.4258052424
13.4345295977
13.4434504662
13.4524821564
13.4615523504
13.4705974882
13.4795597561
13.4883855209
13.4970249333
13.5054323433
13.5135671481
13.5213947286
13.5288872118
13.5360238925
13.5427912813
13.549182895
13.5551987724
13.560843488
13.5661212533
13.5710402333
13.5756671669
13.5801738623
13.5843039882
12.6884018563
12.6878928379
12.6837499412
12.6779038164
12.6709209863
12.6631509007
12.6548844977
12.646372763
12.6378343342
12.6294603966
12.6214153199
12.6138349241
12.6068243497
12.6004568034
12.5947738446
12.5897873966
12.5854832801
12.5818258328
12.5787630843
12.5762319793
12.5741632406
12.5724855842
12.5711291258
12.5700279764
12.569122267
12.5683596818
12.5676942107
12.5670775485
12.5664615808
12.5659097062
12.7502256008
12.7500080385
12.7501392039
12.7507685167
12.7515799433
12.7524375905
12.7532886976
12.7541063049
12.7548750687
12.7555866142
12.7562362455
12.7568208828
12.7573381489
12.7577861961
12.7581639115
12.7584712453
12.7587094967
12.7588814601
12.758991394
12.7590448254
12.7590482314
12.7590086563
12.7589333186
12.7588292714
12.7587031927
12.7585612268
12.7584081403
12.7582453829
12.7580757272
12.757936463
12.4282089674
12.4284943985
12.427534195
12.4261045771
12.4244464968
12.4227127935
12.4210136306
12.4194241487
12.4179907419
12.4167367822
12.4156677234
12.41477599
12.4140455691
12.4134559987
12.4129855008
12.4126131629
12.4123202327
12.4120906967
12.4119113564
12.4117716032
12.4116630513
12.4115791361
12.4115147381
12.4114658589
12.4114293584
12.4114027791
12.4113842903
12.411372451
12.4113647337
12.4113558627
12.3380667164
12.3381918507
12.3383402047
12.3387198998
12.3392100283
12.3397407666
12.3402763946
12.3407933007
12.3412743109
12.3417076853
12.3420864926
12.3424079245
12.3426725506
12.3428835102
12.3430456879
12.3431649548
12.3432475377
12.3432995473
12.3433266635
12.3433339555
12.3433258053
12.343305904
12.3432772937
12.3432424378
12.3432033183
12.3431615262
12.3431181513
12.3430733417
12.3430274832
12.3429898669
12.1536543178
12.1538000016
12.1534904857
12.1530641352
12.1525832251
12.1520902828
12.1516175977
12.1511849013
12.1508018023
12.1504709755
12.1501906649
12.1499565593
12.1497631426
12.1496045898
12.1494753056
12.1493702091
12.1492848557
12.149215462
12.1491588736
12.1491125068
12.1490742757
12.149042518
12.1490159226
12.148993463
12.1489743423
12.1489579553
12.1489438449
12.1489315281
12.1489202231
12.1489099947
12.0247477946
12.0248605128
12.0248772357
12.0249605215
12.0250770364
12.0252062378
12.0253383746
12.0254665364
12.025585305
12.0256909465
12.0257813746
12.0258558944
12.0259148717
12.0259593993
12.0259910035
12.0260114105
12.0260223768
12.0260255774
12.0260225394
12.0260146092
12.0260029438
12.0259885153
12.0259721259
12.0259544269
12.0259359463
12.0259171159
12.0258982218
12.0258792048
12.0258600234
12.0258440545
11.875523869
11.8756111251
11.875507733
11.8753804438
11.8752425715
11.875103482
11.8749717506
11.8748523543
11.8747472602
11.8746565942
11.8745794392
11.874514344
11.8744596558
11.8744137273
11.8743750361
11.8743422426
11.8743142098
11.874289999
11.874268853
11.8742501722
11.8742334892
11.8742184444
11.8742047632
11.8741922375
11.8741807114
11.8741700752
11.8741602365
11.8741510069
11.8741420909
11.8741343561
11.7416151663
11.7416831689
11.7416684574
11.7416736661
11.7416888614
11.7417080384
11.7417292755
11.7417510698
11.7417719284
11.7417906469
11.7418064141
11.7418187919
11.7418276508
11.7418330942
11.7418353853
11.7418348829
11.7418319907
11.7418271209
11.7418206679
11.7418129936
11.7418044185
11.7417952191
11.7417856282
11.741775838
11.7417660072
11.7417562698
11.7417467095
11.7417372567
11.741727821
11.7417198869
11.603914277
11.6039657907
11.6039250011
11.6038807525
11.6038351964
11.6037900917
11.6037480364
11.6037104633
11.6036777319
11.6036496115
11.603625588
11.6036050404
11.6035873457
11.6035719381
11.6035583353
11.6035461455
11.6035350616
11.6035248506
11.603515341
11.6035064099
11.6034979717
11.6034899685
11.6034823618
11.6034751264
11.6034682476
11.603461721
11.6034555352
11.6034496022
11.6034437879
11.603438806
11.4710775378
11.4711173998
11.4711026494
11.4710948975
11.4710906433
11.4710878839
11.4710864723
11.471086183
11.4710865549
11.4710871007
11.4710874145
11.4710872026
11.4710862837
11.4710845755
11.471082073
11.4710788266
11.4710749226
11.4710704664
11.4710655706
11.4710603459
11.471054896
11.4710493139
11.47104368
11.4710380627
11.4710325197
11.4710271016
11.4710218381
11.47101668
11.471011558
11.4710072264
11.338054249
11.3380846216
11.3380657622
11.3380475307
11.3380297241
11.3380124324
11.3379965813
11.3379826502
11.3379706578
11.3379603959
11.3379515712
11.3379438795
11.3379370448
11.337930838
11.3379250808
11.3379196433
11.3379144358
11.3379094012
11.3379045069
11.3378997378
11.3378950905
11.3378905689
11.3378861808
11.3378819357
11.3378778438
11.3378739176
11.3378701609
11.3378665274
11.3378629478
11.3378598948
11.2068592579
11.2068827422
11.2068725291
11.2068652648
11.2068594668
11.206854342
11.2068500533
11.2068466325
11.2068439091
11.2068416481
11.2068396251
11.2068376561
11.2068356073
11.2068333937
11.2068309725
11.2068283335
11.2068254899
11.2068224702
11.2068193112
11.2068160533
11.2068127366
11.206809399
11.2068060743
11.2068027918
11.206799577
11.2067964529
11.2067934322
11.206790484
11.2067875633
11.2067850862
11.0760754358
11.0760934481
11.0760836824
11.0760749814
11.0760668354
11.0760590484
11.0760520098
11.0760459091
11.0760407093
11.0760362708
11.0760324252
11.0760290105
11.0760258886
11.076022952
11.0760201233
11.0760173518
11.0760146084
11.0760118798
11.0760091645
11.0760064681
11.0760038007
11.0760011743
11.0759986015
11.0759960937
11.0759936622
11.075991318
11.0759890661
11.0759868805
11.0759847226
11.0759828857
10.9461101758
10.946124096
10.946117692
10.9461127409
10.9461085078
10.9461046188
10.9461012325
10.9460984087
10.946096072
10.9460940966
10.9460923541
10.9460907331
10.946089148
10.9460875396
10.9460858727
10.9460841315
10.9460823144
10.94608043
10.9460784928
10.9460765204
10.9460745315
10.9460725442
10.9460705753
10.9460686394
10.9460667493
10.9460649171
10.9460631492
10.9460614267
10.946059722
10.9460582743
10.8165219494
10.8165326654
10.8165272525
10.8165226542
10.8165184634
10.8165144971
10.8165109442
10.8165078925
10.816505308
10.8165031044
10.8165011836
10.8164994548
10.8164978432
10.8164962925
10.8164947644
10.8164932358
10.8164916957
10.8164901416
10.8164885773
10.8164870099
10.8164854485
10.8164839028
10.8164823822
10.8164808953
10.8164794498
10.8164780533
10.8164767095
10.8164754034
10.8164741126
10.8164730146
10.6873524905
10.6873607692
10.6873568888
10.6873537996
10.687351099
10.687348588
10.6873463757
10.6873445077
10.6873429458
10.6873416189
10.687340452
10.6873393787
10.6873383468
10.687337319
10.6873362723
10.6873351947
10.6873340831
10.6873329407
10.6873317741
10.6873305924
10.6873294054
10.6873282228
10.6873270537
10.6873259061
10.6873247872
10.6873237037
10.6873226591
10.6873216421
10.687320636
10.687319781
10.5584412269
10.5584476114
10.5584445
10.5584419217
10.5584396061
10.5584374261
10.5584354827
10.5584338216
10.5584324196
10.5584312245
10.5584301788
10.55842923
10.5584283357
10.5584274644
10.5584265956
10.5584257173
10.5584248247
10.5584239178
10.558423
10.5584220766
10.5584211539
10.5584202382
10.5584193357
10.5584184519
10.5584175917
10.5584167599
10.558415959
10.5584151799
10.5584144097
10.5584137548
10.4297619139
10.4297668457
10.4297645224
10.4297626528
10.4297610049
10.4297594657
10.4297581035
10.429756948
10.4297559781
10.4297551525
10.429754427
10.4297537621
10.4297531265
10.4297524976
10.4297518612
10.4297512096
10.4297505404
10.4297498551
10.4297491571
10.4297484516
10.4297477439
10.4297470398
10.4297463443
10.4297456621
10.4297449973
10.4297443538
10.4297437336
10.4297431299
10.4297425328
10.4297420253
10.3012450506
10.3012488574
10.3012470354
10.3012455441
10.3012442146
10.3012429661
10.3012418556
10.3012409087
10.3012401108
10.3012394305
10.301238834
10.3012382905
10.3012377752
10.3012372701
10.3012367634
10.3012362486
10.3012357233
10.3012351879
10.3012346447
10.3012340972
10.3012335492
10.3012330049
10.3012324679
10.3012319418
10.3012314294
10.3012309337
10.3012304563
10.3012299918
10.3012295324
10.3012291419
10.1728619652
10.1728649059
10.17286352
10.1728624005
10.1728614108
10.1728604846
10.1728596634
10.1728589655
10.1728583787
10.1728578788
10.1728574395
10.1728570374
10.1728566537
10.1728562751
10.1728558927
10.1728555021
10.1728551017
10.1728546921
10.1728542754
10.1728538545
10.1728534327
10.1728530131
10.1728525988
10.1728521926
10.1728517967
10.1728514137
10.1728510445
10.1728506853
10.1728503299
10.1728500279
10.0445779342
10.044580205
10.0445791281
10.044578252
10.0445774736
10.0445767436
10.044576095
10.0445755425
10.0445750771
10.0445746804
10.0445743321
10.0445740141
10.0445737117
10.0445734144
10.0445731153
10.0445728107
10.0445724993
10.0445721814
10.0445718586
10.0445715329
10.0445712067
10.0445708825
10.0445705626
10.044570249
10.0445699436
10.0445696481
10.0445693634
10.0445690863
10.0445688124
10.0445685795
9.91637253828
9.91637429255
9.91637346654
9.91637279846
9.91637220718
9.91637165341
9.91637116206
9.91637074413
9.91637039251
9.91637009278
9.91636982937
9.91636958834
9.91636935853
9.91636913189
9.91636890324
9.91636866981
9.91636843067
9.91636818618
9.91636793756
9.91636768651
9.91636743493
9.91636718475
9.91636693777
9.9163666956
9.91636645967
9.91636623135
9.91636601135
9.91636579725
9.9163655855
9.91636540549
9.78822678767
9.78822814269
9.78822750319
9.78822698445
9.78822652442
9.78822609314
9.78822571012
9.78822538403
9.78822510946
9.78822487535
9.78822466967
9.78822448164
9.78822430263
9.78822412636
9.78822394881
9.78822376779
9.78822358255
9.78822339333
9.78822320104
9.78822300697
9.78822281256
9.7882226193
9.78822242854
9.78822224153
9.78822205937
9.78822188311
9.78822171327
9.78822154801
9.78822138457
9.78822124562
9.66012765486
9.66012870166
9.66012820925
9.66012781088
9.66012745819
9.66012712776
9.66012683448
9.66012658493
9.66012637492
9.66012619585
9.66012603846
9.66012589444
9.66012575715
9.66012562179
9.66012548526
9.66012534591
9.66012520318
9.66012505729
9.66012490895
9.66012475917
9.6601246091
9.66012445987
9.66012431255
9.66012416811
9.66012402739
9.66012389122
9.66012376
9.66012363231
9.66012350603
9.66012339867
9.53206425561
9.53206506428
9.53206468359
9.53206437523
9.53206410201
9.53206384592
9.53206361853
9.53206342498
9.53206326202
9.53206312306
9.53206300094
9.53206288924
9.53206278281
9.53206267795
9.53206257225
9.53206246443
9.53206235404
9.53206224125
9.5320621266
9.53206201087
9.53206189492
9.53206177964
9.53206166584
9.53206155427
9.53206144559
9.53206134043
9.53206123909
9.53206114048
9.53206104296
9.53206096005
9.40402859883
9.40402922358
9.40402892995
9.40402869241
9.40402848208
9.404028285
9.40402811004
9.40402796116
9.40402783584
9.40402772896
9.40402763502
9.40402754906
9.40402746711
9.40402738631
9.40402730482
9.40402722166
9.40402713648
9.40402704942
9.4040269609
9.40402687153
9.40402678199
9.40402669294
9.40402660505
9.40402651886
9.40402643491
9.40402635366
9.40402627537
9.40402619919
9.40402612384
9.40402605979
9.276014303
9.27601478565
9.27601455874
9.2760143751
9.27601421244
9.27601406
9.27601392466
9.27601380947
9.27601371249
9.27601362979
9.27601355709
9.27601349058
9.27601342719
9.2760133647
9.27601330169
9.27601323741
9.27601317158
9.2760131043
9.27601303591
9.27601296686
9.27601289768
9.27601282889
9.27601276099
9.27601269442
9.27601262956
9.2760125668
9.27601250633
9.27601244749
9.27601238929
9.27601233981
9.14801654663
9.14801691953
9.14801674435
9.14801660265
9.14801647718
9.14801635961
9.14801625524
9.14801616642
9.14801609165
9.14801602788
9.14801597183
9.14801592053
9.14801587163
9.14801582341
9.14801577479
9.14801572516
9.14801567433
9.14801562237
9.14801556955
9.14801551622
9.14801546278
9.14801540965
9.14801535719
9.14801530576
9.14801525566
9.14801520718
9.14801516046
9.148015115
9.14801507003
9.14801503181
9.02003154902
9.02003183712
9.02003170179
9.02003159231
9.02003149535
9.02003140449
9.02003132382
9.02003125516
9.02003119736
9.02003114806
9.02003110472
9.02003106507
9.02003102726
9.02003098999
9.02003095241
9.02003091406
9.02003087478
9.02003083464
9.02003079383
9.02003075262
9.02003071134
9.02003067029
9.02003062977
9.02003059004
9.02003055133
9.02003051388
9.02003047779
9.02003044266
9.02003040793
9.0200303784
8.89205641719
8.89205663977
8.89205653525
8.89205645072
8.89205637588
8.89205630574
8.89205624348
8.89205619049
8.89205614588
8.89205610784
8.89205607439
8.89205604378
8.8920560146
8.89205598583
8.89205595681
8.89205592719
8.89205589685
8.89205586584
8.89205583432
8.89205580249
8.8920557706
8.89205573889
8.89205570758
8.89205567689
8.89205564698
8.89205561805
8.89205559017
8.89205556303
8.8920555362
8.89205551338
8.76408890373
8.76408907569
8.76408899492
8.76408892959
8.76408887175
8.76408881754
8.76408876942
8.76408872847
8.76408869399
8.76408866458
8.76408863873
8.76408861508
8.76408859253
8.76408857029
8.76408854787
8.76408852498
8.76408850154
8.76408847759
8.76408845323
8.76408842864
8.764088404
8.7640883795
8.76408835532
8.76408833161
8.76408830851
8.76408828615
8.76408826461
8.76408824365
8.76408822292
8.76408820529
8.63612727924
8.6361274121
8.63612734972
8.63612729927
8.6361272546
8.63612721273
8.63612717556
8.63612714393
8.63612711729
8.63612709458
8.63612707461
8.63612705633
8.63612703891
8.63612702173
8.63612700441
8.63612698673
8.63612696862
8.63612695011
8.6361269313
8.6361269123
8.63612689326
8.63612687433
8.63612685565
8.63612683733
8.63612681948
8.63612680221
8.63612678557
8.63612676938
8.63612675336
8.63612673975
8.50817020159
8.50817030423
8.50817025604
8.50817021707
8.50817018257
8.50817015023
8.50817012152
8.50817009709
8.50817007652
8.50817005898
8.50817004356
8.50817002945
8.50817001599
8.50817000272
8.50816998934
8.50816997568
8.5081699617
8.5081699474
8.50816993286
8.50816991819
8.50816990348
8.50816988886
8.50816987443
8.50816986028
8.50816984649
8.50816983315
8.50816982029
8.50816980778
8.50816979541
8.50816978489
8.3802166391
8.38021671839
8.38021668115
8.38021665103
8.38021662436
8.38021659938
8.3802165772
8.38021655833
8.38021654245
8.3802165289
8.38021651699
8.38021650609
8.3802164957
8.38021648545
8.38021647512
8.38021646457
8.38021645377
8.38021644272
8.3802164315
8.38021642016
8.3802164088
8.38021639751
8.38021638636
8.38021637543
8.38021636478
8.38021635447
8.38021634454
8.38021633487
8.38021632531
8.38021631719
8.25226579333
8.25226585461
8.25226582584
8.25226580257
8.25226578197
8.25226576267
8.25226574553
8.25226573094
8.25226571866
8.25226570819
8.25226569898
8.25226569056
8.25226568253
8.25226567461
8.25226566662
8.25226565847
8.25226565012
8.25226564159
8.25226563292
8.25226562416
8.25226561538
8.25226560666
8.25226559804
8.2522655896
8.25226558137
8.25226557341
8.25226556574
8.25226555827
8.25226555089
8.25226554461
8.12431704435
8.12431709168
8.12431706946
8.12431705151
8.12431703561
8.12431702071
8.12431700748
8.12431699621
8.12431698674
8.12431697865
8.12431697154
8.12431696504
8.12431695883
8.12431695272
8.12431694655
8.12431694025
8.12431693381
8.12431692721
8.12431692051
8.12431691375
8.12431690697
8.12431690023
8.12431689358
8.12431688705
8.12431688069
8.12431687454
8.12431686862
8.12431686285
8.12431685715
8.1243168523
7.99636991575
7.9963699523
7.99636993512
7.99636992123
7.99636990894
7.99636989742
7.9963698872
7.9963698785
7.99636987117
7.99636986493
7.99636985944
7.99636985441
7.99636984962
7.9963698449
7.99636984014
7.99636983527
7.9963698303
7.99636982521
7.99636982003
7.99636981481
7.99636980957
7.99636980436
7.99636979922
7.99636979419
7.99636978928
7.99636978453
7.99636977995
7.99636977549
7.99636977109
7.99636976734
7.86842403998
7.86842406822
7.86842405494
7.8684240442
7.86842403468
7.86842402577
7.86842401785
7.86842401111
7.86842400544
7.8684240006
7.86842399635
7.86842399247
7.86842398876
7.86842398511
7.86842398142
7.86842397766
7.86842397382
7.86842396988
7.86842396588
7.86842396185
7.8684239578
7.86842395378
7.86842394981
7.86842394592
7.86842394213
7.86842393846
7.86842393492
7.86842393148
7.86842392808
7.86842392518
7.74047913145
7.74047915327
7.74047914303
7.74047913475
7.74047912741
7.74047912053
7.74047911442
7.74047910922
7.74047910484
7.74047910111
7.74047909783
7.74047909482
7.74047909196
7.74047908914
7.74047908629
7.74047908339
7.74047908042
7.74047907738
7.74047907429
7.74047907118
7.74047906805
7.74047906494
7.74047906188
7.74047905887
7.74047905594
7.74047905311
7.74047905038
7.74047904772
7.74047904509
7.74047904286
7.6125349698
7.61253498665
7.61253497873
7.61253497233
7.61253496666
7.61253496135
7.61253495664
7.61253495264
7.61253494927
7.61253494639
7.61253494387
7.61253494155
7.61253493935
7.61253493718
7.61253493498
7.61253493275
7.61253493045
7.61253492811
7.61253492573
7.61253492332
7.61253492091
7.61253491851
7.61253491614
7.61253491382
7.61253491156
7.61253490937
7.61253490726
7.61253490521
7.61253490318
7.61253490145
7.48459138775
7.48459140077
7.48459139463
7.48459138967
7.48459138529
7.48459138118
7.48459137753
7.48459137443
7.48459137182
7.4845913696
7.48459136764
7.48459136585
7.48459136415
7.48459136247
7.48459136077
7.48459135904
7.48459135727
7.48459135546
7.48459135362
7.48459135176
7.4845913499
7.48459134805
7.48459134622
7.48459134443
7.48459134268
7.48459134099
7.48459133936
7.48459133778
7.48459133621
7.48459133488
7.35664825238
7.35664826244
7.35664825772
7.35664825391
7.35664825053
7.35664824736
7.35664824455
7.35664824215
7.35664824014
7.35664823841
7.3566482369
7.35664823552
7.3566482342
7.3566482329
7.35664823159
7.35664823025
7.35664822889
7.35664822749
7.35664822606
7.35664822463
7.35664822319
7.35664822176
7.35664822035
7.35664821896
7.35664821762
7.35664821631
7.35664821505
7.35664821383
7.35664821262
7.35664821159
7.22870545949
7.22870546724
7.22870546359
7.22870546064
7.22870545804
7.22870545559
7.22870545342
7.22870545158
7.22870545003
7.2287054487
7.22870544754
7.22870544648
7.22870544546
7.22870544446
7.22870544345
7.22870544242
7.22870544137
7.22870544029
7.22870543919
7.22870543809
7.22870543698
7.22870543587
7.22870543478
7.22870543372
7.22870543267
7.22870543167
7.2287054307
7.22870542975
7.22870542882
7.22870542802
7.10076293353
7.10076293952
7.10076293668
7.10076293438
7.10076293235
7.10076293045
7.10076292876
7.10076292732
7.10076292612
7.10076292509
7.10076292418
7.10076292336
7.10076292257
7.1007629218
7.10076292102
7.10076292022
7.1007629194
7.10076291857
7.10076291773
7.10076291687
7.10076291601
7.10076291516
7.10076291432
7.1007629135
7.10076291269
7.10076291192
7.10076291117
7.10076291044
7.10076290972
7.1007629091
6.97282061334
6.97282061797
6.97282061579
6.97282061401
6.97282061244
6.97282061097
6.97282060966
6.97282060854
6.9728206076
6.9728206068
6.9728206061
6.97282060546
6.97282060485
6.97282060425
6.97282060364
6.97282060303
6.9728206024
6.97282060175
6.9728206011
6.97282060044
6.97282059977
6.97282059912
6.97282059847
6.97282059783
6.97282059721
6.97282059661
6.97282059603
6.97282059547
6.97282059491
6.97282059444
6.84487845149
6.84487845506
6.84487845339
6.84487845203
6.84487845083
6.84487844971
6.84487844871
6.84487844786
6.84487844715
6.84487844654
6.844878446
6.84487844551
6.84487844505
6.84487844459
6.84487844412
6.84487844365
6.84487844316
6.84487844267
6.84487844216
6.84487844165
6.84487844114
6.84487844064
6.84487844014
6.84487843964
6.84487843917
6.8448784387
6.84487843826
6.84487843782
6.84487843739
6.84487843703
6.71693641343
6.71693641619
6.71693641488
6.71693641382
6.71693641289
6.71693641203
6.71693641126
6.7169364106
6.71693641006
6.71693640959
6.71693640918
6.7169364088
6.71693640845
6.71693640809
6.71693640774
6.71693640737
6.716936407
6.71693640662
6.71693640623
6.71693640584
6.71693640545
6.71693640506
6.71693640467
6.71693640429
6.71693640392
6.71693640357
6.71693640322
6.71693640289
6.71693640256
6.71693640228
6.58899447151
6.58899447364
6.58899447263
6.58899447181
6.58899447109
6.58899447041
6.58899446981
6.5889944693
6.58899446887
6.5889944685
6.58899446818
6.58899446789
6.58899446761
6.58899446733
6.58899446706
6.58899446677
6.58899446648
6.58899446619
6.58899446589
6.58899446559
6.58899446529
6.58899446498
6.58899446469
6.58899446439
6.58899446411
6.58899446384
6.58899446357
6.58899446331
6.58899446306
6.58899446284
6.46105260161
6.46105260325
6.46105260249
6.46105260187
6.46105260132
6.4610526008
6.46105260034
6.46105259995
6.46105259962
6.46105259934
6.4610525991
6.46105259887
6.46105259866
6.46105259845
6.46105259824
6.46105259802
6.4610525978
6.46105259757
6.46105259734
6.46105259711
6.46105259687
6.46105259664
6.46105259641
6.46105259619
6.46105259597
6.46105259576
6.46105259555
6.46105259535
6.46105259516
6.46105259499
6.33311078686
6.33311078811
6.33311078751
6.33311078702
6.33311078659
6.33311078619
6.33311078583
6.33311078553
6.33311078528
6.33311078506
6.33311078488
6.3331107847
6.33311078454
6.33311078438
6.33311078422
6.33311078405
6.33311078388
6.3331107837
6.33311078353
6.33311078335
6.33311078317
6.33311078299
6.33311078281
6.33311078264
6.33311078247
6.33311078231
6.33311078215
6.333110782
6.33311078185
6.33311078172
6.20516901714
6.20516901812
6.20516901765
6.20516901726
6.20516901691
6.20516901659
6.20516901631
6.20516901606
6.20516901586
6.20516901569
6.20516901553
6.20516901539
6.20516901526
6.20516901514
6.20516901501
6.20516901488
6.20516901474
6.20516901461
6.20516901447
6.20516901433
6.20516901419
6.20516901405
6.20516901392
6.20516901378
6.20516901365
6.20516901353
6.2051690134
6.20516901329
6.20516901317
6.20516901307
6.07722728063
6.07722728138
6.07722728103
6.07722728074
6.07722728048
6.07722728024
6.07722728002
6.07722727984
6.07722727968
6.07722727955
6.07722727943
6.07722727933
6.07722727923
6.07722727913
6.07722727903
6.07722727893
6.07722727882
6.07722727872
6.07722727861
6.07722727851
6.0772272784
6.07722727829
6.07722727819
6.07722727808
6.07722727798
6.07722727789
6.07722727779
6.0772272777
6.07722727761
6.07722727753
5.94928557029
5.94928557086
5.94928557059
5.94928557037
5.94928557018
5.94928557
5.94928556984
5.94928556971
5.9492855696
5.9492855695
5.94928556942
5.94928556934
5.94928556927
5.9492855692
5.94928556912
5.94928556905
5.94928556897
5.94928556889
5.94928556881
5.94928556873
5.94928556865
5.94928556857
5.94928556849
5.94928556841
5.94928556833
5.94928556826
5.94928556818
5.94928556811
5.94928556805
5.94928556799
5.82134388167
5.82134388211
5.82134388189
5.82134388172
5.82134388157
5.82134388142
5.8213438813
5.8213438812
5.82134388111
5.82134388103
5.82134388097
5.82134388091
5.82134388085
5.8213438808
5.82134388074
5.82134388068
5.82134388062
5.82134388056
5.8213438805
5.82134388044
5.82134388038
5.82134388032
5.82134388026
5.82134388019
5.82134388014
5.82134388008
5.82134388002
5.82134387997
5.82134387992
5.82134387987
5.69340220823
5.69340220857
5.69340220841
5.69340220827
5.69340220815
5.69340220804
5.69340220794
5.69340220785
5.69340220778
5.69340220772
5.69340220767
5.69340220762
5.69340220758
5.69340220753
5.69340220749
5.69340220744
5.6934022074
5.69340220735
5.6934022073
5.69340220726
5.69340220721
5.69340220716
5.69340220711
5.69340220707
5.69340220702
5.69340220698
5.69340220693
5.69340220689
5.69340220685
5.69340220682
5.56546054588
5.56546054614
5.56546054602
5.56546054592
5.56546054584
5.56546054575
5.56546054568
5.56546054562
5.56546054557
5.56546054552
5.56546054548
5.56546054545
5.56546054541
5.56546054538
5.56546054535
5.56546054531
5.56546054528
5.56546054524
5.5654605452
5.56546054517
5.56546054513
5.56546054509
5.56546054506
5.56546054502
5.56546054499
5.56546054495
5.56546054492
5.56546054489
5.56546054486
5.56546054483
5.43751889273
5.43751889293
5.43751889283
5.43751889275
5.43751889267
5.4375188926
5.43751889254
5.43751889249
5.43751889245
5.43751889241
5.43751889238
5.43751889235
5.43751889232
5.43751889229
5.43751889226
5.43751889224
5.43751889221
5.43751889218
5.43751889215
5.43751889212
5.43751889209
5.43751889206
5.43751889204
5.43751889201
5.43751889198
5.43751889195
5.43751889193
5.4375188919
5.43751889188
5.43751889186
5.3095772476
5.30957724776
5.30957724767
5.30957724761
5.30957724754
5.30957724748
5.30957724743
5.30957724738
5.30957724734
5.30957724731
5.30957724728
5.30957724725
5.30957724723
5.30957724721
5.30957724719
5.30957724716
5.30957724714
5.30957724712
5.30957724709
5.30957724707
5.30957724705
5.30957724703
5.30957724701
5.30957724698
5.30957724696
5.30957724694
5.30957724692
5.3095772469
5.30957724689
5.30957724687
5.18163560768
5.18163560781
5.18163560775
5.18163560771
5.18163560766
5.18163560762
5.18163560759
5.18163560756
5.18163560754
5.18163560752
5.1816356075
5.18163560749
5.18163560747
5.18163560746
5.18163560744
5.18163560743
5.18163560741
5.1816356074
5.18163560738
5.18163560736
5.18163560735
5.18163560733
5.18163560731
5.1816356073
5.18163560728
5.18163560727
5.18163560725
5.18163560724
5.18163560722
5.18163560721
5.05369397307
5.05369397317
5.05369397312
5.05369397309
5.05369397307
5.05369397304
5.05369397302
5.05369397301
5.05369397299
5.05369397298
5.05369397297
5.05369397296
5.05369397295
5.05369397294
5.05369397293
5.05369397292
5.05369397291
5.0536939729
5.05369397289
5.05369397288
5.05369397286
5.05369397285
5.05369397284
5.05369397283
5.05369397282
5.0536939728
5.05369397279
5.05369397278
5.05369397277
5.05369397276
4.9257523425
4.92575234257
4.92575234253
4.9257523425
4.92575234248
4.92575234246
4.92575234244
4.92575234242
4.92575234241
4.92575234239
4.92575234238
4.92575234237
4.92575234237
4.92575234236
4.92575234235
4.92575234234
4.92575234233
4.92575234232
4.92575234231
4.9257523423
4.92575234229
4.92575234228
4.92575234228
4.92575234227
4.92575234226
4.92575234225
4.92575234224
4.92575234223
4.92575234222
4.92575234222
4.79781071342
4.79781071347
4.79781071345
4.79781071342
4.7978107134
4.79781071337
4.79781071335
4.79781071334
4.79781071332
4.79781071331
4.7978107133
4.79781071329
4.79781071328
4.79781071328
4.79781071327
4.79781071326
4.79781071326
4.79781071325
4.79781071324
4.79781071323
4.79781071323
4.79781071322
4.79781071321
4.79781071321
4.7978107132
4.79781071319
4.79781071319
4.79781071318
4.79781071317
4.79781071317
4.66986908662
4.66986908666
4.66986908665
4.66986908663
4.66986908662
4.6698690866
4.66986908659
4.66986908657
4.66986908656
4.66986908655
4.66986908655
4.66986908654
4.66986908653
4.66986908652
4.66986908652
4.66986908651
4.6698690865
4.6698690865
4.66986908649
4.66986908649
4.66986908648
4.66986908647
4.66986908647
4.66986908646
4.66986908646
4.66986908645
4.66986908645
4.66986908644
4.66986908644
4.66986908643
4.54192746128
4.54192746131
4.54192746129
4.54192746127
4.54192746126
4.54192746124
4.54192746123
4.54192746122
4.54192746121
4.5419274612
4.54192746119
4.54192746118
4.54192746118
4.54192746117
4.54192746116
4.54192746116
4.54192746115
4.54192746115
4.54192746114
4.54192746114
4.54192746113
4.54192746113
4.54192746112
4.54192746112
4.54192746111
4.54192746111
4.5419274611
4.5419274611
4.5419274611
4.54192746109
4.413985838
4.41398583803
4.41398583801
4.41398583799
4.41398583798
4.41398583796
4.41398583795
4.41398583795
4.41398583794
4.41398583793
4.41398583793
4.41398583793
4.41398583792
4.41398583792
4.41398583792
4.41398583792
4.41398583791
4.41398583791
4.41398583791
4.4139858379
4.4139858379
4.4139858379
4.41398583789
4.41398583789
4.41398583789
4.41398583788
4.41398583788
4.41398583788
4.41398583788
4.41398583787
4.28604421656
4.28604421658
4.28604421658
4.28604421658
4.28604421658
4.28604421658
4.28604421658
4.28604421658
4.28604421658
4.28604421658
4.28604421658
4.28604421658
4.28604421658
4.28604421658
4.28604421658
4.28604421658
4.28604421658
4.28604421658
4.28604421657
4.28604421657
4.28604421657
4.28604421657
4.28604421657
4.28604421656
4.28604421656
4.28604421656
4.28604421656
4.28604421656
4.28604421655
4.28604421655
4.15810259604
4.15810259605
4.15810259606
4.15810259606
4.15810259606
4.15810259606
4.15810259606
4.15810259606
4.15810259606
4.15810259606
4.15810259606
4.15810259606
4.15810259605
4.15810259605
4.15810259605
4.15810259605
4.15810259605
4.15810259605
4.15810259604
4.15810259604
4.15810259604
4.15810259604
4.15810259604
4.15810259604
4.15810259603
4.15810259603
4.15810259603
4.15810259603
4.15810259603
4.15810259603
4.03016097559
4.03016097559
4.03016097558
4.03016097557
4.03016097557
4.03016097556
4.03016097555
4.03016097554
4.03016097554
4.03016097553
4.03016097553
4.03016097553
4.03016097553
4.03016097553
4.03016097553
4.03016097553
4.03016097552
4.03016097552
4.03016097552
4.03016097552
4.03016097552
4.03016097552
4.03016097552
4.03016097552
4.03016097552
4.03016097551
4.03016097551
4.03016097551
4.03016097551
4.03016097551
3.90221935525
3.90221935526
3.90221935525
3.90221935524
3.90221935523
3.90221935522
3.90221935521
3.9022193552
3.9022193552
3.90221935519
3.90221935519
3.90221935519
3.90221935518
3.90221935518
3.90221935518
3.90221935518
3.90221935518
3.90221935518
3.90221935518
3.90221935517
3.90221935517
3.90221935517
3.90221935517
3.90221935517
3.90221935517
3.90221935517
3.90221935517
3.90221935517
3.90221935516
3.90221935516
3.77427773574
3.77427773575
3.77427773576
3.77427773576
3.77427773576
3.77427773576
3.77427773575
3.77427773575
3.77427773574
3.77427773574