/*--------------------------------*- C++ -*----------------------------------*\
  =========                 |
  \\      /  F ield         | OpenFOAM: The Open Source CFD Toolbox
   \\    /   O peration     | Website:  https://openfoam.org
    \\  /    A nd           | Version:  12
     \\/     M anipulation  |
\*---------------------------------------------------------------------------*/
FoamFile
{
    format      ascii;
    class       volVectorField;
    location    "500";
    object      U;
}
// * * * * * * * * * * * * * * * * * * * * * * * * * * * * * * * * * * * * * //

dimensions      [0 1 -1 0 0 0 0];

internalField   nonuniform List<vector> 
3000
(
(1.15245022836 -0.0099657266939 -1.25145760639e-10)
(1.15318439316 -0.0254593816265 -1.71541264687e-10)
(1.15521493874 -0.0400104132776 -1.51009870642e-10)
(1.15799850269 -0.0540946049216 -1.26717365051e-10)
(1.16102965223 -0.0671659932793 -1.07136665778e-10)
(1.16374798768 -0.0791823805417 -9.22468127804e-11)
(1.16550796447 -0.0901196009227 -8.09777782409e-11)
(1.16556702707 -0.0999052700188 -7.22290995264e-11)
(1.16310911795 -0.108434895295 -6.50639763014e-11)
(1.15729346343 -0.115593397332 -5.92883061743e-11)
(1.14731465188 -0.121273039671 -5.40966389788e-11)
(1.13246101282 -0.125388308616 -4.95052673581e-11)
(1.11216139127 -0.127886760913 -4.52530731359e-11)
(1.08601471333 -0.128755068523 -4.12038927895e-11)
(1.05380110818 -0.128020357305 -3.76845867041e-11)
(1.01547676632 -0.125747601579 -3.41047035154e-11)
(0.971156692878 -0.122034181238 -3.07462675285e-11)
(0.921090107897 -0.117002783041 -2.7515368001e-11)
(0.865632820531 -0.110793709836 -2.41739828603e-11)
(0.805219919127 -0.103557434521 -2.10833000116e-11)
(0.740340969874 -0.09544797263 -1.85455327157e-11)
(0.671518868525 -0.0866173895779 -1.60391181675e-11)
(0.599292677452 -0.0772115154913 -1.34537344202e-11)
(0.524204237009 -0.0673667917995 -1.12427363998e-11)
(0.44678804294 -0.0572084387744 -9.20513591757e-12)
(0.367563781675 -0.0468507278642 -7.21148079373e-12)
(0.287030924075 -0.0363978212634 -5.34577956239e-12)
(0.205664734879 -0.0259328416311 -3.64394615261e-12)
(0.123912980747 -0.0154879035796 -2.07126041883e-12)
(0.0421933805582 -0.00507603815881 -6.82390066912e-13)
(1.4317724274 -0.00537614417162 -1.2367076671e-10)
(1.43345702755 -0.0129893778024 -2.20168034234e-10)
(1.43661323719 -0.0188406786309 -2.28294651525e-10)
(1.44000299005 -0.0247405358023 -2.11534569196e-10)
(1.44220239722 -0.0302873637042 -1.89670395896e-10)
(1.44162317275 -0.0352246142119 -1.68732531063e-10)
(1.43660007061 -0.0393589260086 -1.50372529747e-10)
(1.42552380958 -0.0425383375369 -1.34551139286e-10)
(1.4069964704 -0.0446607480688 -1.20794296571e-10)
(1.37997485163 -0.0456837095228 -1.08816617118e-10)
(1.34387229034 -0.0456265504942 -9.80086081563e-11)
(1.29860270874 -0.0445653247656 -8.827284441e-11)
(1.24456512046 -0.042622239696 -7.93072952507e-11)
(1.18257830391 -0.039951762588 -7.10608939694e-11)
(1.11378194841 -0.0367257597391 -6.35175196073e-11)
(1.03952231691 -0.0331196724835 -5.6468270495e-11)
(0.961238538838 -0.0293010884214 -4.99514356696e-11)
(0.880361627888 -0.0254213672927 -4.39268561272e-11)
(0.798233644249 -0.0216103901471 -3.8317455068e-11)
(0.716050098107 -0.0179740908001 -3.31967627565e-11)
(0.634825273645 -0.0145942076139 -2.85715540895e-11)
(0.555377825204 -0.011529630215 -2.43082727631e-11)
(0.478332701729 -0.00881876217722 -2.03780612616e-11)
(0.40413500288 -0.00648241377484 -1.68159602811e-11)
(0.333071529345 -0.00452679782482 -1.35567423141e-11)
(0.265296339506 -0.00294626925573 -1.05712927907e-11)
(0.200857370067 -0.00172607906065 -7.8423202727e-12)
(0.139721933882 -0.000846912497252 -5.35015461316e-12)
(0.0817995352373 -0.000290979619468 -3.07113793943e-12)
(0.026961171785 -2.43553782849e-05 -9.8719081865e-13)
(1.55140256875 -0.00451901817041 -1.16129748559e-10)
(1.55105663349 -0.0119696980294 -2.2534495868e-10)
(1.54926983008 -0.0188790972342 -2.54615925076e-10)
(1.54435396973 -0.0248838665754 -2.50141203062e-10)
(1.5342924287 -0.0295706849422 -2.32367149469e-10)
(1.51708290811 -0.0329008040238 -2.10597726832e-10)
(1.49102275523 -0.0349014741065 -1.88884344595e-10)
(1.45494389861 -0.0356418802455 -1.68691825515e-10)
(1.40836587603 -0.0352424320753 -1.50369869095e-10)
(1.3515440613 -0.0338712849824 -1.33988436054e-10)
(1.28541268578 -0.0317299081352 -1.19200051964e-10)
(1.21144418339 -0.0290341408418 -1.05959578656e-10)
(1.13145971458 -0.0259952981062 -9.39832219974e-11)
(1.04742841816 -0.0228045351118 -8.32013741994e-11)
(0.961286911849 -0.0196222695502 -7.34950788167e-11)
(0.874799585368 -0.0165730515888 -6.46918787294e-11)
(0.789468216286 -0.013745203231 -5.67418649993e-11)
(0.706489304203 -0.011193967173 -4.95508813947e-11)
(0.626750787693 -0.00894676271167 -4.30201081213e-11)
(0.550856702902 -0.00700930426907 -3.7127920858e-11)
(0.479168208889 -0.00537164643165 -3.18145803028e-11)
(0.411851190102 -0.00401355954157 -2.69878978333e-11)
(0.34892330216 -0.00290893817754 -2.25959618264e-11)
(0.290296042314 -0.00202916359889 -1.86135587518e-11)
(0.235809712262 -0.00134546934137 -1.49878604639e-11)
(0.185260798078 -0.000830447571294 -1.16818287897e-11)
(0.138422324263 -0.000459047702033 -8.66563050026e-12)
(0.0950582654429 -0.000209634210468 -5.9116806207e-12)
(0.0549332709472 -6.4444361601e-05 -3.39402865576e-12)
(0.0178188688219 -1.77571331488e-06 -1.09059428986e-12)
(1.67590468958 -0.00280541959695 -9.20133919368e-11)
(1.67253281993 -0.0067834166947 -1.91209398487e-10)
(1.6644287307 -0.00968513000801 -2.29914828024e-10)
(1.6500877681 -0.0120666850007 -2.37074650089e-10)
(1.62768952493 -0.0137120895708 -2.28074779085e-10)
(1.5957569055 -0.0145696490598 -2.1156956381e-10)
(1.55347620739 -0.0146752521885 -1.92435625071e-10)
(1.50083666429 -0.0141286890486 -1.73099648922e-10)
(1.43860578978 -0.0130733935499 -1.54685258617e-10)
(1.36817412017 -0.0116730542652 -1.37711737091e-10)
(1.2913241958 -0.010088778302 -1.22230006891e-10)
(1.20998425877 -0.00846129778648 -1.08279182928e-10)
(1.12601621212 -0.0069003178356 -9.57199675709e-11)
(1.04106668531 -0.00548096511497 -8.44630891104e-11)
(0.956488190521 -0.00424585841194 -7.43742584768e-11)
(0.873320796876 -0.00321069920755 -6.53173864811e-11)
(0.79231618265 -0.00237134543641 -5.71842882851e-11)
(0.713984650237 -0.00171080736058 -4.98689971722e-11)
(0.638649160424 -0.00120521106478 -4.32782060398e-11)
(0.566495830751 -0.000828319442369 -3.73362656913e-11)
(0.497615534089 -0.000554592062815 -3.19693484874e-11)
(0.432035131778 -0.000360991400613 -2.71086096292e-11)
(0.369739232102 -0.000227834501252 -2.26992253637e-11)
(0.310684425399 -0.00013899184146 -1.86943612661e-11)
(0.254808137595 -8.16893036134e-05 -1.50511203866e-11)
(0.202033967145 -4.60982143947e-05 -1.17315789891e-11)
(0.152274919612 -2.48208088086e-05 -8.70334487952e-12)
(0.105435504143 -1.23805669293e-05 -5.93773757756e-12)
(0.0614132874109 -5.02140844849e-06 -3.40931559306e-12)
(0.0201002234125 -1.33494028803e-06 -1.09557844818e-12)
(1.74792776259 -0.00234417101787 -7.85417244627e-11)
(1.74084249538 -0.00598075187076 -1.66410497591e-10)
(1.72511101401 -0.00894898655305 -2.05986458553e-10)
(1.70013643195 -0.0112419521351 -2.18190090965e-10)
(1.66495726471 -0.0126838488769 -2.14526845701e-10)
(1.61910610961 -0.0133268646926 -2.02352101439e-10)
(1.56285000041 -0.0132964594343 -1.86273607833e-10)
(1.4971718121 -0.012746855522 -1.68935286957e-10)
(1.42359454906 -0.0118375730482 -1.51782435914e-10)
(1.34393867845 -0.0107147463014 -1.3558849242e-10)
(1.26008742485 -0.00949855144824 -1.20606200217e-10)
(1.17380716764 -0.00827815666486 -1.06984810897e-10)
(1.08663946501 -0.00711292049856 -9.4667024803e-11)
(0.999857772269 -0.00603740419311 -8.35898790601e-11)
(0.914470022694 -0.00506782324836 -7.36449646837e-11)
(0.831246599594 -0.00420822139902 -6.4706245488e-11)
(0.750757653252 -0.0034554480986 -5.66684314162e-11)
(0.673409965609 -0.00280267768109 -4.94370950462e-11)
(0.59947893068 -0.00224161685525 -4.29111865856e-11)
(0.529134679981 -0.00176372360901 -3.7024479982e-11)
(0.462463057743 -0.00136077832768 -3.17071280406e-11)
(0.39948262339 -0.00102508511161 -2.68900758859e-11)
(0.34015872669 -0.000749495261003 -2.25166232192e-11)
(0.284415379225 -0.000527366300104 -1.85452475466e-11)
(0.232145351915 -0.000352508904045 -1.49317712867e-11)
(0.183218735973 -0.000219140766734 -1.16386017357e-11)
(0.137490109944 -0.000121894893929 -8.63424788099e-12)
(0.0948044260998 -5.59832192098e-05 -5.89054763395e-12)
(0.0550017344008 -1.7314163294e-05 -3.38216327575e-12)
(0.0179208779355 -5.42332014595e-07 -1.08685949698e-12)
(1.81040728188 -0.00161269790556 -6.35311400824e-11)
(1.79984044454 -0.00394800135639 -1.39075188758e-10)
(1.77739623404 -0.00559988390424 -1.76885333588e-10)
(1.743707122 -0.00676866220628 -1.91747910546e-10)
(1.69886753328 -0.00737970241318 -1.92180533836e-10)
(1.64339386931 -0.00749713671515 -1.84134554045e-10)
(1.57836549004 -0.00723070271168 -1.71634331834e-10)
(1.50531639212 -0.00669954555421 -1.57197269715e-10)
(1.42602987215 -0.00601291307666 -1.42330120079e-10)
(1.34233134085 -0.00525953644466 -1.27900512159e-10)
(1.25593063189 -0.00450407448393 -1.14305992891e-10)
(1.16832858578 -0.00378877714397 -1.01764849939e-10)
(1.0807794942 -0.00313784180427 -9.03080123017e-11)
(0.994291788824 -0.00256239478252 -7.99183210145e-11)
(0.909649837823 -0.00206489354866 -7.05309387215e-11)
(0.827444434776 -0.0016424935563 -6.20540084732e-11)
(0.748104658407 -0.00128938826108 -5.44040221257e-11)
(0.671927523539 -0.000998333448768 -4.74994106426e-11)
(0.599104037821 -0.00076160009097 -4.12586168938e-11)
(0.52974136023 -0.000571555079482 -3.56174295023e-11)
(0.463881225153 -0.000421006755405 -3.05106287678e-11)
(0.401514984587 -0.000303400358355 -2.58799222113e-11)
(0.342595697357 -0.00021291439957 -2.16753235414e-11)
(0.28704771865 -0.000144489500097 -1.78539393068e-11)
(0.234774233987 -9.38101865878e-05 -1.43755233437e-11)
(0.185663146559 -5.72524364709e-05 -1.12053871263e-11)
(0.139591673593 -3.18102418345e-05 -8.31304964223e-12)
(0.0964299453702 -1.50417095256e-05 -5.67179221759e-12)
(0.0560438393725 -5.09176313562e-06 -3.25661069924e-12)
(0.018297224721 -5.663555161e-07 -1.04650557745e-12)
(1.85301617424 -0.00127913057772 -5.28169203181e-11)
(1.83937953949 -0.00319874699984 -1.17475115374e-10)
(1.81111624904 -0.00463366780481 -1.5206004522e-10)
(1.7701360496 -0.0056501674276 -1.67515629101e-10)
(1.71753518964 -0.00619676273823 -1.70310401154e-10)
(1.65461180268 -0.00634363276671 -1.65220617432e-10)
(1.58296538757 -0.00618892403174 -1.55642191081e-10)
(1.50439036154 -0.00582802941359 -1.43818629662e-10)
(1.42071935686 -0.00534199484837 -1.31172481178e-10)
(1.33368895918 -0.00479360890216 -1.18577755593e-10)
(1.24485324047 -0.00422787865028 -1.06485384104e-10)
(1.15554337378 -0.00367487779098 -9.51668528347e-11)
(1.06686072504 -0.00315328723466 -8.47064981727e-11)
(0.979689917214 -0.00267364486083 -7.51363480989e-11)
(0.894721620401 -0.00224093307659 -6.64271069788e-11)
(0.812478620149 -0.00185648244493 -5.85221114313e-11)
(0.733341621183 -0.00151930918866 -5.13606271782e-11)
(0.657573072417 -0.00122702919473 -4.48736559107e-11)
(0.585338333458 -0.000976470610475 -3.90017702167e-11)
(0.516724046902 -0.000764077175604 -3.36825857639e-11)
(0.451753848013 -0.000586168487481 -2.88625926047e-11)
(0.390401658329 -0.000439103974323 -2.44875847848e-11)
(0.33260284411 -0.000319383341975 -2.05115545586e-11)
(0.278263514124 -0.000223705651621 -1.68966517843e-11)
(0.227268208194 -0.00014900001071 -1.36058667558e-11)
(0.179486201259 -9.24358225564e-05 -1.06059795616e-11)
(0.134776622476 -5.1434957178e-05 -7.86861671619e-12)
(0.0929925661864 -2.37350663146e-05 -5.3683570659e-12)
(0.0539843522004 -7.44764360797e-06 -3.08239758454e-12)
(0.0176020751016 -3.29429741114e-07 -9.90525783631e-13)
(1.88686414203 -0.000923019919058 -4.31176299384e-11)
(1.87081410711 -0.00226957991074 -9.80124265788e-11)
(1.83808754721 -0.00321489157088 -1.29199025598e-10)
(1.79168400148 -0.0038589878204 -1.44447535102e-10)
(1.73349552444 -0.00417718846508 -1.48750023243e-10)
(1.66537414002 -0.0042248330437 -1.4591234372e-10)
(1.58923818896 -0.00407361776252 -1.38760009246e-10)
(1.50700887706 -0.00379058102323 -1.29244513999e-10)
(1.42051459785 -0.00343110574881 -1.18673322446e-10)
(1.3314144698 -0.00303736729916 -1.07855908769e-10)
(1.24115445323 -0.00263935148181 -9.72886172314e-11)
(1.15095244105 -0.00225700383811 -8.72591040181e-11)
(1.06180367458 -0.0019025701492 -7.78797326434e-11)
(0.974498278141 -0.00158267185908 -6.92272768205e-11)
(0.889644801853 -0.00129997996049 -6.12984168207e-11)
(0.807695723937 -0.00105449921248 -5.40710734712e-11)
(0.728972433075 -0.000844523700114 -4.74967202218e-11)
(0.653688291655 -0.000667331248409 -4.15274190505e-11)
(0.581969098603 -0.000519676360344 -3.61098848819e-11)
(0.513870731627 -0.00039813046755 -3.11961199641e-11)
(0.449394032352 -0.000299308128212 -2.67386165284e-11)
(0.388497158198 -0.000220009320073 -2.26899765508e-11)
(0.331105702336 -0.000157301191446 -1.90096195295e-11)
(0.277120905086 -0.000108557139933 -1.56619162183e-11)
(0.226426268487 -7.14660670957e-05 -1.26125849077e-11)
(0.178892855743 -4.40204896092e-05 -9.83213371439e-12)
(0.134383519233 -2.44954198668e-05 -7.29430882905e-12)
(0.0927562608798 -1.14461426148e-05 -4.9766852899e-12)
(0.053866892277 -3.73247104382e-06 -2.85759541284e-12)
(0.0175711290366 -2.92074230084e-07 -9.18391800975e-13)
(1.91127593651 -0.000711826765452 -3.56335850846e-11)
(1.89335118507 -0.0017676978208 -8.21781118793e-11)
(1.85717118142 -0.00253337107751 -1.09869542627e-10)
(1.80660296582 -0.0030634796559 -1.24325988155e-10)
(1.74414679983 -0.00333801463214 -1.29379571235e-10)
(1.67205409895 -0.00340051079298 -1.28072944776e-10)
(1.59246015954 -0.00330594391206 -1.22749424241e-10)
(1.50736750213 -0.00310503352527 -1.15087820963e-10)
(1.41859925175 -0.00283969151335 -1.06244863435e-10)
(1.32776220672 -0.00254219553172 -9.70060488396e-11)
(1.23622984055 -0.00223594595438 -8.78222310475e-11)
(1.14514354706 -0.00193693583233 -7.89912483297e-11)
(1.05542679582 -0.00165537408211 -7.06666556454e-11)
(0.967806800255 -0.00139716969607 -6.2927348486e-11)
(0.88283945318 -0.00116516677686 -5.57994952844e-11)
(0.800934617165 -0.000960113819566 -4.92700079264e-11)
(0.722380000415 -0.000781392089151 -4.33137330598e-11)
(0.647362696292 -0.000627543352492 -3.78925660224e-11)
(0.575988036016 -0.000496639749184 -3.29636165726e-11)
(0.508295751572 -0.000386534792397 -2.84869845006e-11)
(0.4442736334 -0.000295028049848 -2.44216988792e-11)
(0.383868950443 -0.000219969087609 -2.07266506599e-11)
(0.326997922165 -0.000159319895389 -1.73660534195e-11)
(0.273553520909 -0.000111189510395 -1.43082608897e-11)
(0.223411857333 -7.38495510188e-05 -1.1522303394e-11)
(0.176437371575 -4.57361857209e-05 -8.9827626369e-12)
(0.132487023265 -2.54501248268e-05 -6.66458389638e-12)
(0.0914136458577 -1.17802922562e-05 -4.54700945015e-12)
(0.053068606837 -3.73202913276e-06 -2.61086357952e-12)
(0.0173038939965 -1.97106542437e-07 -8.39054612346e-13)
(1.93016028756 -0.000528712746529 -2.93190327939e-11)
(1.91083004245 -0.00130394590675 -6.86954849424e-11)
(1.8720750241 -0.00185306587436 -9.30751143218e-11)
(1.81841830901 -0.00222907906252 -1.06507522356e-10)
(1.75281197164 -0.00241865438626 -1.11877860637e-10)
(1.67779942775 -0.00245387551909 -1.11628666493e-10)
(1.59567387699 -0.00237513349605 -1.07704952787e-10)
(1.50849836196 -0.00221979225135 -1.0154665913e-10)
(1.41809422537 -0.00201881169081 -9.41771873354e-11)
(1.32603140348 -0.00179606362071 -8.63006978952e-11)
(1.23363004706 -0.00156882318618 -7.83584284537e-11)
(1.14197338574 -0.00134881931665 -7.06430727924e-11)
(1.05192853192 -0.00114342984544 -6.33128133395e-11)
(0.964171536602 -0.000956792161492 -5.64598570598e-11)
(0.879213708362 -0.000790735664611 -5.01159380945e-11)
(0.797427144739 -0.000645517315219 -4.42908742882e-11)
(0.719068262143 -0.000520376818073 -3.89602357104e-11)
(0.644298731702 -0.0004139412845 -3.40988962756e-11)
(0.57320364569 -0.000324511205959 -2.96747756179e-11)
(0.505806992317 -0.000250256340535 -2.56518667176e-11)
(0.442084654775 -0.000189345089614 -2.1996105612e-11)
(0.381975212749 -0.000140025867808 -1.86691127019e-11)
(0.325388840994 -0.00010067457688 -1.56429367593e-11)
(0.272214588473 -6.98186485872e-05 -1.28884880239e-11)
(0.222326296365 -4.61448381411e-05 -1.03795299255e-11)
(0.175587382379 -2.84955028027e-05 -8.09164412308e-12)
(0.131854686871 -1.5860875686e-05 -6.00351517287e-12)
(0.0909815456054 -7.38462979863e-06 -4.09598874328e-12)
(0.052820227103 -2.380655667e-06 -2.35186057132e-12)
(0.0172238485843 -1.61991714692e-07 -7.55766549892e-13)
(1.94422567146 -0.000405976530958 -2.42976205252e-11)
(1.92382929529 -0.00100589989378 -5.76263473354e-11)
(1.8831164089 -0.0014380807151 -7.8952432602e-11)
(1.82710557052 -0.00173709628998 -9.11675175866e-11)
(1.75908960648 -0.00189168718358 -9.65055135675e-11)
(1.68183283689 -0.001926218031 -9.69213846758e-11)
(1.59774937638 -0.00187155552558 -9.40277916582e-11)
(1.50895015411 -0.00175634197884 -8.90548889776e-11)
(1.41725696918 -0.00160441130353 -8.28885116507e-11)
(1.324213023 -0.00143423280516 -7.61952152779e-11)
(1.23109882796 -0.00125925114726 -6.93512214463e-11)
(1.13895428984 -0.00108866775275 -6.26404546659e-11)
(1.04860491864 -0.00092834584907 -5.6225694709e-11)
(0.960689650992 -0.000781657923394 -5.01960895924e-11)
(0.875688230062 -0.000650199178957 -4.45972880808e-11)
(0.79394677754 -0.000534350190394 -3.94373916866e-11)
(0.715700815224 -0.000433700488717 -3.4708557341e-11)
(0.64109545159 -0.000347355899997 -3.03896733178e-11)
(0.570202747908 -0.000274154469683 -2.64531845434e-11)
(0.50303644952 -0.000212813520755 -2.28709249601e-11)
(0.439564350664 -0.000162026509577 -1.96130076782e-11)
(0.379718587381 -0.000120524270827 -1.66490646634e-11)
(0.323404147523 -8.71116278915e-05 -1.39517143408e-11)
(0.270505864149 -6.06872882311e-05 -1.14961752184e-11)
(0.22089412906 -4.02521859954e-05 -9.25889399257e-12)
(0.174429532665 -2.49095941415e-05 -7.2180158151e-12)
(0.130966607363 -1.38633847678e-05 -5.35538292542e-12)
(0.0903568248931 -6.42875605519e-06 -3.65384762128e-12)
(0.0524509752255 -2.04756063534e-06 -2.09805793821e-12)
(0.0171010342655 -1.1761909732e-07 -6.74316795115e-13)
(1.9550554273 -0.000307250179085 -2.01402356473e-11)
(1.93385449372 -0.000759083467827 -4.83398157033e-11)
(1.89166436164 -0.00108155459202 -6.68925500096e-11)
(1.83387676685 -0.00130380592736 -7.78763485255e-11)
(1.76404184837 -0.00141750413131 -8.29916252974e-11)
(1.6850917827 -0.00144095161372 -8.38147192776e-11)
(1.59953338058 -0.00139742864703 -8.16872332284e-11)
(1.50951483774 -0.00130860186282 -7.7658930876e-11)
(1.41685887093 -0.00119251984258 -7.25127743052e-11)
(1.32308857023 -0.00106316124101 -6.68104495129e-11)
(1.22945421431 -0.000930681980692 -6.0926342613e-11)
(1.13696238902 -0.000802007457492 -5.51158511572e-11)
(1.04640630093 -0.000681521788223 -4.95303489579e-11)
(0.958395693413 -0.0005717135626 -4.42645414394e-11)
(0.87338505941 -0.000473719453111 -3.93604747208e-11)
(0.791699322207 -0.000387753181233 -3.48251223676e-11)
(0.713556593535 -0.000313429076851 -3.0664886652e-11)
(0.639087936013 -0.000249997652213 -2.6860221956e-11)
(0.568354261185 -0.000196511886965 -2.33848598943e-11)
(0.501360606803 -0.000151941051408 -2.02227836927e-11)
(0.438068086665 -0.000115245942255 -1.73428898058e-11)
(0.378403815726 -8.54264023059e-05 -1.47227061075e-11)
(0.322269100163 -6.15493797974e-05 -1.23376816623e-11)
(0.269546156409 -4.27635984427e-05 -1.01655480867e-11)
(0.220103592701 -2.83049368775e-05 -8.18736429646e-12)
(0.173800855734 -1.74952010284e-05 -6.38243462037e-12)
(0.130491815831 -9.73884953314e-06 -4.73576605787e-12)
(0.0900276370781 -4.52808492335e-06 -3.23117348807e-12)
(0.0522590558927 -1.45344660084e-06 -1.85528158561e-12)
(0.0170381711419 -9.32568547737e-08 -5.96188081872e-13)
(1.96327004995 -0.000236244710299 -1.67558924286e-11)
(1.9414548545 -0.000584845305733 -4.06218448613e-11)
(1.89813489478 -0.000835507466799 -5.66536553356e-11)
(1.8389859446 -0.00100905809472 -6.64642140537e-11)
(1.76775462585 -0.00109880271979 -7.12335819336e-11)
(1.68750182572 -0.00111874720613 -7.22766424591e-11)
(1.60080578131 -0.00108676685939 -7.07117941222e-11)
(1.50984364404 -0.00101951618618 -6.74341553602e-11)
(1.41643914075 -0.000930887012207 -6.31233774293e-11)
(1.32210019128 -0.000831657679402 -5.82755375773e-11)
(1.22805414469 -0.000729678196281 -5.32269529113e-11)
(1.13528235089 -0.000630321092488 -4.82099624182e-11)
(1.04455366332 -0.000537007988385 -4.33654279361e-11)
(0.956455981651 -0.000451703792667 -3.87803591101e-11)
(0.871425096294 -0.00037533313767 -3.44983573719e-11)
(0.789770417056 -0.000308109087241 -3.05380524098e-11)
(0.711697470665 -0.000249780946469 -2.68967313308e-11)
(0.637327268114 -0.000199814441377 -2.35611765346e-11)
(0.566712776307 -0.00015751865543 -2.0519773442e-11)
(0.499852794017 -0.000122132755175 -1.77467588674e-11)
(0.436703552039 -9.28832849929e-05 -1.52225263064e-11)
(0.377188348657 -6.9020471385e-05 -1.29232900704e-11)
(0.321205508129 -4.98399115325e-05 -1.08300173868e-11)
(0.268634919079 -3.46942799799e-05 -8.92373987672e-12)
(0.219343377282 -2.29981132152e-05 -7.18703863496e-12)
(0.173188926438 -1.42276556907e-05 -5.60306680377e-12)
(0.130024362395 -7.91943093524e-06 -4.157228968e-12)
(0.0897000407949 -3.67581263361e-06 -2.83636017048e-12)
(0.0520661066185 -1.17380387637e-06 -1.62860601387e-12)
(0.0169742451267 -7.00194432254e-08 -5.23349584619e-13)
(1.96959592297 -0.000180608030888 -1.39568653966e-11)
(1.94731176499 -0.000446547463254 -3.41563912944e-11)
(1.9031292529 -0.000636984191911 -4.80362461181e-11)
(1.84294092031 -0.000768603075926 -5.66602883668e-11)
(1.77064354485 -0.000836345304573 -6.10241178118e-11)
(1.68939656853 -0.000850894528354 -6.21636970713e-11)
(1.60183302711 -0.00082589914327 -6.10133947987e-11)
(1.51015235664 -0.000774085197315 -5.83359579099e-11)
(1.41617914364 -0.000706069483985 -5.47200568539e-11)
(1.32140974032 -0.000630086796033 -5.06002360899e-11)
(1.22705393632 -0.000552130160059 -4.62760658406e-11)
(1.13407368924 -0.000476295588712 -4.19558675611e-11)
(1.04321905502 -0.000405185106033 -3.77685908899e-11)
(0.955060970935 -0.000340285075235 -3.37949195735e-11)
(0.870020592397 -0.000282285083681 -3.00770716587e-11)
(0.788395081179 -0.000231329810998 -2.66315420475e-11)
(0.710379937295 -0.000187209134561 -2.3460732476e-11)
(0.636088102605 -0.000149496600723 -2.05559498697e-11)
(0.56556614262 -0.000117647199677 -1.79034935796e-11)
(0.498807843787 -9.10643257628e-05 -1.54856470518e-11)
(0.435765562902 -6.91440893775e-05 -1.32832324394e-11)
(0.37635964529 -5.13033847266e-05 -1.12780276882e-11)
(0.320486199377 -3.69965725935e-05 -9.45154644974e-12)
(0.268023481918 -2.57243406245e-05 -7.78796591101e-12)
(0.218837114846 -1.70371300436e-05 -6.27246961073e-12)
(0.172784323646 -1.05346890721e-05 -4.89010174463e-12)
(0.129717359198 -5.86448663339e-06 -3.62824668169e-12)
(0.0894862398458 -2.72520718136e-06 -2.47544932085e-12)
(0.0519409292729 -8.73215265674e-07 -1.42137410718e-12)
(0.0169330471338 -5.46445101862e-08 -4.56755368238e-13)
(1.97443803163 -0.000139078669758 -1.16561502381e-11)
(1.95179373092 -0.000344163847602 -2.87623230418e-11)
(1.90694839776 -0.000491484018891 -4.0722962377e-11)
(1.845960898 -0.000593494556148 -4.82604946643e-11)
(1.77284331493 -0.000646235212194 -5.21766229746e-11)
(1.69083082455 -0.000657920609872 -5.33282845734e-11)
(1.6025986116 -0.000639054042408 -5.24789641786e-11)
(1.5103632913 -0.000599430904201 -5.02920600487e-11)
(1.41595016987 -0.00054722688102 -4.72586922915e-11)
(1.3208467718 -0.000488788251363 -4.37596749795e-11)
(1.22624946125 -0.000428738857343 -4.00656075051e-11)
(1.13310537717 -0.00037024424243 -3.63567471866e-11)
(1.04215023826 -0.000315320853199 -3.27501572724e-11)
(0.953942084437 -0.000265126541426 -2.93163118748e-11)
(0.868890990922 -0.000220205560745 -2.61041553693e-11)
(0.787284893502 -0.00018068212425 -2.31210356602e-11)
(0.709311778551 -0.000146406482697 -2.03699904849e-11)
(0.635078566358 -0.000117061276624 -1.7850553872e-11)
(0.564627053187 -9.22365782748e-05 -1.55479508814e-11)
(0.49794728107 -7.1481249705e-05 -1.34482613238e-11)
(0.43498868672 -5.43369291039e-05 -1.15362677105e-11)
(0.375669350979 -4.03595940146e-05 -9.79521436502e-12)
(0.319883635719 -2.9132447441e-05 -8.20972262103e-12)
(0.267508459033 -2.02728598225e-05 -6.76559418769e-12)
(0.218408425304 -1.34351819855e-05 -5.44938838279e-12)
(0.172439995635 -8.3106098263e-06 -4.24837037727e-12)
(0.129454856615 -4.62624575195e-06 -3.1520985197e-12)
(0.0893026208484 -2.14821628983e-06 -2.15058794331e-12)
(0.0518329721375 -6.86815032921e-07 -1.23484467706e-12)
(0.0168973502312 -4.16537846867e-08 -3.96815135493e-13)
(1.97816968056 -0.000106858707602 -9.74029412164e-12)
(1.95524878439 -0.000264286173349 -2.42192370204e-11)
(1.90989444898 -0.000377164259207 -3.4445288999e-11)
(1.84829330774 -0.000455261826642 -4.10682902118e-11)
(1.77454602169 -0.000495554928662 -4.45637341026e-11)
(1.69194595723 -0.00050435119656 -4.56750652978e-11)
(1.60320069454 -0.000489716242716 -4.5053501957e-11)
(1.51054006337 -0.000459173457112 -4.32506917986e-11)
(1.41578993781 -0.000419002259628 -4.07005709527e-11)
(1.32043106891 -0.000374076260241 -3.77315692951e-11)
(1.22564950335 -0.000327945234436 -3.45759330793e-11)
(1.1323809752 -0.000283038059281 -3.1396278232e-11)
(1.041350147 -0.000240900323968 -2.82963509848e-11)
(0.953105086575 -0.00020241758245 -2.53420578116e-11)
(0.868047273097 -0.000168003658283 -2.25698046797e-11)
(0.786457457 -0.000137749458336 -1.99940483483e-11)
(0.708517749772 -0.000111535344739 -1.76201778146e-11)
(0.634330348047 -8.91130145839e-05 -1.54428466758e-11)
(0.563933300881 -7.01633342377e-05 -1.3453107871e-11)
(0.497313712049 -5.43359634875e-05 -1.16380185274e-11)
(0.434418739189 -4.1275597913e-05 -9.98503893629e-12)
(0.375164714708 -3.06386174473e-05 -8.47728941484e-12)
(0.319444675134 -2.2103014982e-05 -7.10474079945e-12)
(0.26713454792 -1.5373709246e-05 -5.85430987046e-12)
(0.218098209771 -1.01846491242e-05 -4.71520060467e-12)
(0.172191599401 -6.29862761305e-06 -3.67608050299e-12)
(0.129266040307 -3.50643642097e-06 -2.727515575e-12)
(0.0891709048491 -1.62906840421e-06 -1.86091352708e-12)
(0.0517557307179 -5.2160848661e-07 -1.06851697689e-12)
(0.0168718831725 -3.22948075896e-08 -3.43365546085e-13)
(1.98103873709 -8.23776218098e-05 -8.14582677726e-12)
(1.95790485187 -0.000203813386941 -2.03958555385e-11)
(1.91215847548 -0.000291000024703 -2.92009346211e-11)
(1.85008461052 -0.000351369905005 -3.49195100421e-11)
(1.77585211831 -0.0003825763805 -3.80155147858e-11)
(1.69279916985 -0.000389479478899 -3.90610875848e-11)
(1.60365829262 -0.000378295254383 -3.86052480833e-11)
(1.5106694994 -0.000354821995028 -3.71165576083e-11)
(1.41565911286 -0.000323900064362 -3.49700591913e-11)
(1.32010268242 -0.000289287379475 -3.2449661185e-11)
(1.22517832721 -0.000253722411967 -2.97573604218e-11)
(1.13181302099 -0.000219080299434 -2.7035715936e-11)
(1.04072294116 -0.000186555707389 -2.43763665882e-11)
(0.952448512646 -0.000156834693562 -2.18375728278e-11)
(0.867384638508 -0.000130239699243 -1.9454937274e-11)
(0.785806584172 -0.000106844144862 -1.72362141459e-11)
(0.707891986314 -8.65589596812e-05 -1.51922886553e-11)
(0.633739449865 -6.91956202506e-05 -1.33152733199e-11)
(0.563384176403 -5.45106644912e-05 -1.16016485221e-11)
(0.496811034111 -4.22361828405e-05 -1.00369395026e-11)
(0.433965439688 -3.21000134011e-05 -8.61091404697e-12)
(0.374762379852 -2.38385645908e-05 -7.31136699507e-12)
(0.319093858876 -1.72044811135e-05 -6.12756269303e-12)
(0.26683501931 -1.19707722024e-05 -5.04910751133e-12)
(0.217849147636 -7.93248033094e-06 -4.06660980106e-12)
(0.171991745369 -4.90659278799e-06 -3.17042544485e-12)
(0.129113819013 -2.73146363007e-06 -2.35234538238e-12)
(0.0890645183415 -1.268621745e-06 -1.60494797184e-12)
(0.0516932325245 -4.05813570524e-07 -9.21545238083e-13)
(0.0168512363203 -2.47896449949e-08 -2.96136530805e-13)
(1.98325146373 -6.34543120056e-05 -6.81773730373e-12)
(1.95995354975 -0.000156956848541 -1.71778876885e-11)
(1.91390526877 -0.000224034603295 -2.47095556112e-11)
(1.85146739174 -0.000270464034827 -2.96636945457e-11)
(1.77686130808 -0.000294442607912 -3.23836426959e-11)
(1.69345969652 -0.000299713201616 -3.33423007213e-11)
(1.60401429888 -0.000291062884883 -3.30010188198e-11)
(1.51077297198 -0.000272957188991 -3.17766673092e-11)
(1.41556238593 -0.000249123823069 -2.99718926712e-11)
(1.31985408535 -0.000222456645947 -2.78338666859e-11)
(1.22482008291 -0.000195064182327 -2.55437667125e-11)
(1.1313806007 -0.00016838988483 -2.32214770455e-11)
(1.04024527112 -0.000143352996713 -2.09478528185e-11)
(0.951948617084 -0.000120480937164 -1.87744897405e-11)
(0.866880456055 -0.000100020989373 -1.67307730943e-11)
(0.785311804498 -8.20285848322e-05 -1.48235861901e-11)
(0.707416826737 -6.64339818786e-05 -1.30695756822e-11)
(0.633291336657 -5.30908601501e-05 -1.1456864299e-11)
(0.562968321567 -4.18106513264e-05 -9.98161914989e-12)
(0.496430912121 -3.23860666015e-05 -8.63535094142e-12)
(0.433623175038 -2.46066855074e-05 -7.40842026867e-12)
(0.37445905835 -1.82688541208e-05 -6.29075953818e-12)
(0.318829775457 -1.31815977726e-05 -5.27273550377e-12)
(0.266609873989 -9.1697964428e-06 -4.3452754398e-12)
(0.217662199594 -6.07545636871e-06 -3.50033798117e-12)
(0.171841933557 -3.75762165158e-06 -2.72860544702e-12)
(0.128999856161 -2.09189791424e-06 -2.02455552946e-12)
(0.0889849639275 -9.71796456484e-07 -1.38130450683e-12)
(0.0516465491723 -3.11063338109e-07 -7.93128587556e-13)
(0.0168358331616 -1.91716692477e-08 -2.54869098361e-13)
(1.98495653047 -4.89550805407e-05 -5.70973572303e-12)
(1.96153213463 -0.000121111290725 -1.44700271832e-11)
(1.91525103337 -0.000172904674208 -2.08637771922e-11)
(1.8525324201 -0.000208766881247 -2.51793190631e-11)
(1.77763818696 -0.000227303279331 -2.75566528961e-11)
(1.69396761956 -0.000231400918449 -2.84287145907e-11)