/*--------------------------------*- C++ -*----------------------------------*\
  =========                 |
  \\      /  F ield         | OpenFOAM: The Open Source CFD Toolbox
   \\    /   O peration     | Website:  https://openfoam.org
    \\  /    A nd           | Version:  12
     \\/     M anipulation  |
\*---------------------------------------------------------------------------*/
FoamFile
{
    format      ascii;
    class       volVectorField;
    location    "500";
    object      wallShearStress;
}
// * * * * * * * * * * * * * * * * * * * * * * * * * * * * * * * * * * * * * //

dimensions      [0 2 -2 0 0 0 0];

internalField   uniform (0 0 0);

boundaryField
{
    top
    {
        type            calculated;
        value           nonuniform List<vector> 
100
(
(-0.201066519431 0.048400296701 3.2650495093e-12)
(-0.128375440366 0.00035814740058 4.72265475863e-12)
(-0.0848860580713 6.84773121356e-05 5.2173273546e-12)
(-0.0957543522055 7.64706490437e-06 5.2411711737e-12)
(-0.0853722919209 1.84770322751e-05 5.19946023342e-12)
(-0.0871651569719 6.26164747451e-06 5.00640989403e-12)
(-0.0838535705149 8.14767835857e-06 4.73860643196e-12)
(-0.0837061500036 4.34394882178e-06 4.39352247624e-12)
(-0.0824330834716 4.14862322277e-06 4.01397887852e-12)
(-0.0820517600922 2.7216048636e-06 3.61553458184e-12)
(-0.0814666917334 2.29597924163e-06 3.22588462008e-12)
(-0.0811672217615 1.65017321734e-06 2.852122292e-12)
(-0.080862688186 1.32172005569e-06 2.50366798907e-12)
(-0.0806664274231 9.88613169061e-07 2.18508589199e-12)
(-0.0804963729541 7.74833690538e-07 1.89833598969e-12)
(-0.0803750518783 5.89844990641e-07 1.64263687368e-12)
(-0.0802766935023 4.58207414406e-07 1.41669655147e-12)
(-0.0802033152659 3.51583441761e-07 1.21927602675e-12)
(-0.0801454673913 2.72158873974e-07 1.04566042558e-12)
(-0.0801014573847 2.09586376743e-07 8.95229891667e-13)
(-0.0800671684914 1.62024536725e-07 7.656036333e-13)
(-0.0800408567416 1.24983388644e-07 6.52667815558e-13)
(-0.0800204578177 9.65746993457e-08 5.55793839428e-13)
(-0.0800047453476 7.45570884704e-08 4.7390513493e-13)
(-0.079992588785 5.76020212896e-08 4.0209833559e-13)
(-0.0799832093423 4.44861905142e-08 3.41129653737e-13)
(-0.0799759587642 3.4369107199e-08 2.89037358287e-13)
(-0.0799703603799 2.65486826332e-08 2.44695837915e-13)
(-0.0799660340956 2.05098989978e-08 2.07068809366e-13)
(-0.0799626925791 1.58444953179e-08 1.74849993654e-13)
(-0.0799601107371 1.22419175774e-08 1.47393527472e-13)
(-0.0799581162457 9.45700820172e-09 1.24112622125e-13)
(-0.0799565753154 7.30579973573e-09 1.04408888763e-13)
(-0.07995538495 5.64495826694e-09 8.76909423191e-14)
(-0.0799544652489 4.36052081629e-09 7.36051951674e-14)
(-0.0799537547711 3.36787180638e-09 6.15288841287e-14)
(-0.0799532059439 2.60277344008e-09 5.14787469104e-14)
(-0.0799527819506 2.01073035591e-09 4.29987501686e-14)
(-0.0799524544301 1.55206051332e-09 3.58335004191e-14)
(-0.0799522014925 1.19944017236e-09 2.98096004347e-14)
(-0.0799520061244 9.26978339146e-10 2.47127677003e-14)
(-0.0799518551883 7.14835265048e-10 2.03263705553e-14)
(-0.0799517386787 5.52107209406e-10 1.67718647434e-14)
(-0.079951648719 4.27128088888e-10 1.37526490754e-14)
(-0.0799515792317 3.29005705911e-10 1.12373798031e-14)
(-0.0799515256315 2.53710532936e-10 9.11088473705e-15)
(-0.079951484275 1.96786041321e-10 7.4923751165e-15)
(-0.07995145234 1.51429657769e-10 6.33668421643e-15)
(-0.0799514276902 1.15955675635e-10 4.97237554495e-15)
(-0.0799514087218 9.00563366941e-11 3.88139932409e-15)
(-0.0799513940772 6.97435424704e-11 3.06071605201e-15)
(-0.07995138278 5.31615205282e-11 2.26634489731e-15)
(-0.0799513741177 4.12604599356e-11 1.63225381197e-15)
(-0.0799513674297 3.20259329192e-11 1.20112928817e-15)
(-0.0799513622708 2.3976545172e-11 7.72464926482e-16)
(-0.0799513583064 1.84111358314e-11 3.21872978896e-16)
(-0.0799513552774 1.47548593551e-11 3.81683175309e-16)
(-0.0799513529357 1.12662838603e-11 -2.62588680868e-17)
(-0.0799513511459 8.331318989e-12 -2.20653752222e-16)
(-0.079951349789 6.56487449908e-12 -4.1852299601e-16)
(-0.079951348725 4.99675037454e-12 -5.30440119618e-16)
(-0.0799513479207 3.67026232014e-12 -6.12604134358e-16)
(-0.0799513473038 2.93103310609e-12 -6.07364430128e-16)
(-0.0799513468398 2.38051786034e-12 -7.27602555624e-16)
(-0.0799513464927 1.84502334005e-12 -7.59981779778e-16)
(-0.0799513462175 1.3122669078e-12 -7.73238045166e-16)
(-0.0799513460059 9.64450397802e-13 -7.93171745006e-16)
(-0.0799513458507 7.37388426389e-13 -8.01822213182e-16)
(-0.0799513457376 5.58664466073e-13 -7.97555150879e-16)
(-0.0799513456363 3.91583368502e-13 -5.76961214423e-16)
(-0.0799513455856 5.35084566538e-13 -4.63024534591e-16)
(-0.0799513455479 6.61044586095e-13 -3.31695187089e-16)
(-0.0799513454877 9.3700210131e-14 -9.49823322691e-16)
(-0.0799513454694 -2.4481106147e-13 -6.17073615621e-16)
(-0.0799513454625 1.61414921257e-13 -4.37221990103e-16)
(-0.0799513454301 2.52039432788e-13 -3.67054984329e-16)
(-0.0799513454153 2.10361946262e-13 -8.4935808788e-16)
(-0.0799513454355 4.52876525296e-13 -5.75699371394e-16)
(-0.0799513454212 1.10380189182e-15 -4.16011850315e-16)
(-0.0799513454022 -6.0762202384e-13 -3.41674223742e-16)
(-0.079951345426 -2.84097812407e-15 -7.44525734109e-16)
(-0.0799513454092 4.04618517265e-13 -5.32371938632e-16)
(-0.079951345398 3.21525323022e-13 -5.62035397409e-16)
(-0.0799513454266 1.71871296361e-13 -5.66546298212e-16)
(-0.0799513454298 -3.7741502077e-13 -5.49242850242e-16)
(-0.0799513454168 -2.42478739443e-13 -5.17880622422e-16)
(-0.0799513454215 8.57764488761e-15 -4.75719461432e-16)
(-0.0799513454186 1.26919161025e-13 -4.52038566476e-16)
(-0.0799513454047 4.45600344039e-13 -4.38288979602e-16)
(-0.0799513454387 1.18691553729e-13 -4.10994157326e-16)
(-0.0799513454422 -5.6905039807e-13 -3.81445690049e-16)
(-0.0799513454247 -1.86894290012e-13 -3.42385096762e-16)
(-0.0799513454457 3.62066024913e-13 -3.24967637504e-16)
(-0.0799513454255 1.16973581141e-13 -3.03778883364e-16)
(-0.0799513454248 -1.36714264359e-13 -2.33007887045e-16)
(-0.0799513454609 1.54123367346e-15 -1.95980472735e-16)
(-0.0799513454579 -5.30290162456e-14 -1.68890389076e-16)
(-0.0799513454243 -1.46352231717e-13 -2.09039735669e-16)
(-0.0799513454549 1.02392733582e-13 -1.69566362728e-16)
(-0.0799513454236 2.08722826972e-13 -1.36581090316e-16)
)
;
    }
    inlet
    {
        type            calculated;
        value           uniform (0 0 0);
    }
    outlet
    {
        type            calculated;
        value           uniform (0 0 0);
    }
    front
    {
        type            wedge;
    }
    back
    {
        type            wedge;
    }
}


// ************************************************************************* //
