/*--------------------------------*- C++ -*----------------------------------*\
  =========                 |
  \\      /  F ield         | OpenFOAM: The Open Source CFD Toolbox
   \\    /   O peration     | Website:  https://openfoam.org
    \\  /    A nd           | Version:  12
     \\/     M anipulation  |
\*---------------------------------------------------------------------------*/
FoamFile
{
    format      ascii;
    class       volScalarField;
    location    "500";
    object      yPlus;
}
// * * * * * * * * * * * * * * * * * * * * * * * * * * * * * * * * * * * * * //

dimensions      [];

internalField   uniform 0;

boundaryField
{
    top
    {
        type            calculated;
        value           nonuniform List<scalar> 
100
(
0.0944503213181
0.0752299228505
0.0611591178351
0.0649563463532
0.0613339291287
0.0619746035333
0.0607859321424
0.0607324750091
0.0602688728082
0.0601293135041
0.0599145545323
0.0598043306798
0.0596920344355
0.0596195515069
0.0595566757547
0.0595117780263
0.0594753533126
0.0594481648698
0.0594267220406
0.0594104033953
0.0593976861733
0.0593879257041
0.0593803575219
0.059374527398
0.0593700163035
0.0593665355169
0.0593638446292
0.0593617668323
0.0593601611156
0.0593589208695
0.0593579625684
0.0593572222634
0.0593566503025
0.0593562084602
0.0593558670813
0.0593556033616
0.0593553996436
0.0593552422619
0.0593551206896
0.0593550268015
0.0593549542827
0.0593548982565
0.059354855009
0.0593548216167
0.0593547958236
0.0593547759276
0.0593547605764
0.0593547487223
0.0593547395725
0.0593547325316
0.0593547270956
0.0593547229022
0.0593547196868
0.0593547172042
0.0593547152893
0.0593547138177
0.0593547126934
0.0593547118242
0.0593547111598
0.0593547106561
0.0593547102612
0.0593547099626
0.0593547097337
0.0593547095614
0.0593547094326
0.0593547093304
0.0593547092519
0.0593547091943
0.0593547091523
0.0593547091147
0.0593547090959
0.0593547090819
0.0593547090595
0.0593547090527
0.0593547090502
0.0593547090382
0.0593547090327
0.0593547090402
0.0593547090349
0.0593547090278
0.0593547090366
0.0593547090304
0.0593547090262
0.0593547090369
0.059354709038
0.0593547090332
0.0593547090349
0.0593547090339
0.0593547090287
0.0593547090414
0.0593547090426
0.0593547090361
0.0593547090439
0.0593547090364
0.0593547090362
0.0593547090496
0.0593547090485
0.059354709036
0.0593547090474
0.0593547090357
)
;
    }
    inlet
    {
        type            calculated;
        value           uniform 0;
    }
    outlet
    {
        type            calculated;
        value           uniform 0;
    }
    front
    {
        type            wedge;
    }
    back
    {
        type            wedge;
    }
}


// ************************************************************************* //
