#      distance           pMean         UMean_x         UMean_y         UMean_z         nutMean wallShearStr... wallShearStr... wallShearStr...
  3.0219182e-06   8.4341301e-05     0.022619955   2.9541875e-08   6.7072574e-39   5.2781422e-13               0               0               0
  5.0865428e-06   8.4349242e-05     0.038036675   4.8523208e-08   1.7720613e-39   4.8208876e-12               0               0               0
  7.2269684e-06   8.4360386e-05     0.053972572   6.8553363e-08  -7.5114857e-39   2.6865954e-11               0               0               0
  9.4750924e-06   8.4374596e-05     0.070644526    9.007204e-08  -9.4895989e-39   1.0925672e-10               0               0               0
  1.1864417e-05   8.4391567e-05     0.088272065   1.1355702e-07               0   3.5865524e-10               0               0               0
  1.4430548e-05   8.4411007e-05       0.1070693   1.3954374e-07               0   1.0087684e-09               0               0               0
  1.7211727e-05   8.4432673e-05      0.12722506   1.6861856e-07   1.6692516e-37   2.5179925e-09               0               0               0
  2.0249401e-05   8.4456418e-05      0.14886505   2.0135009e-07   1.5599475e-37   5.6895545e-09               0               0               0
  2.3588836e-05   8.4482244e-05       0.1719959   2.3823919e-07    2.259081e-37   1.1760745e-08               0               0               0
  2.7279799e-05   8.4510343e-05      0.19644923   2.7952745e-07  -1.0885846e-38   2.2369677e-08               0               0               0
  3.1377293e-05   8.4541133e-05      0.22186453   3.2509886e-07  -4.3972984e-37   3.9338082e-08               0               0               0
  3.5942381e-05   8.4575236e-05      0.24774665   3.7461194e-07  -1.9200548e-37   6.4308833e-08               0               0               0
  4.1043091e-05   8.4613421e-05      0.27358465   4.2751882e-07   2.5060141e-37   9.8481572e-08               0               0               0
  4.6755437e-05   8.4656501e-05      0.29896692   4.8331438e-07   4.3547261e-37   1.4254194e-07               0               0               0
  5.3164546e-05   8.4705211e-05      0.32363846   5.4192889e-07  -4.9304805e-38   1.9672087e-07               0               0               0
  6.0365928e-05   8.4760172e-05      0.34747627   6.0373865e-07  -4.1460652e-37   2.6188864e-07               0               0               0
    6.84669e-05   8.4821971e-05      0.37040954   6.6933354e-07  -1.8043052e-37   3.4039906e-07               0               0               0
  7.7588184e-05   8.4891255e-05      0.39237446   7.3937867e-07               0   4.3496475e-07               0               0               0
   8.786571e-05   8.4968729e-05      0.41332905   8.1463932e-07  -2.0726537e-37   5.4789059e-07               0               0               0
  9.9452634e-05   8.5055072e-05      0.43327304      8.9607e-07  -7.8259153e-39   6.8117441e-07               0               0               0
  0.00011252163   8.5150845e-05      0.45225471   9.8490634e-07   1.9943946e-37   8.3590633e-07               0               0               0
  0.00012726745   8.5256445e-05      0.47036703   1.0827449e-06    1.493164e-36   1.0120391e-06               0               0               0
  0.00014390985   8.5372171e-05      0.48772062   1.1915123e-06    3.714657e-38   1.2108564e-06               0               0               0
  0.00016269684   8.5498382e-05      0.50440861   1.3133007e-06  -3.0463773e-38   1.4361768e-06               0               0               0
  0.00018390838   8.5635573e-05      0.52049926   1.4502582e-06   2.5277119e-38   1.6918569e-06               0               0               0
  0.00020786057   8.5784353e-05      0.53604995   1.6047973e-06  -1.4002765e-36   1.9811654e-06               0               0               0
  0.00023491035   8.5945403e-05      0.55111417   1.7796649e-06               0   2.3076994e-06               0               0               0
  0.00026546084   8.6119486e-05      0.56574117   1.9779382e-06               0   2.6754262e-06               0               0               0
   0.0002999673   8.6307452e-05      0.57997543   2.2031233e-06               0   3.0887075e-06               0               0               0
  0.00033894396    8.651026e-05      0.59385684   2.4591859e-06               0   3.5522972e-06               0               0               0
  0.00038297165   8.6728949e-05      0.60742129   2.7508838e-06               0   4.0713517e-06               0               0               0
  0.00043270649   8.6964573e-05      0.62070101   3.0837194e-06               0   4.6514501e-06               0               0               0
  0.00048888965   8.7218234e-05      0.63372473   3.4638076e-06               0   5.2985863e-06               0               0               0
  0.00055235838   8.7491203e-05      0.64651803   3.8982641e-06               0   6.0191392e-06               0               0               0
   0.0006240585   8.7784958e-05      0.65910383   4.3954171e-06               0   6.8198316e-06               0               0               0
  0.00070505852   8.8101166e-05      0.67150279   4.9649386e-06               0   7.7076777e-06               0               0               0
  0.00079656552    8.844169e-05      0.68373361   5.6179939e-06               0   8.6898977e-06               0               0               0
  0.00089994316   8.8808525e-05       0.6958133   6.3671448e-06               0    9.773781e-06               0               0               0
    0.001016732   8.9203669e-05      0.70775746   7.2264366e-06               0   1.0966521e-05               0               0               0
   0.0011486725   8.9628984e-05      0.71958045   8.2122368e-06               0   1.2274975e-05               0               0               0
   0.0012977308   9.0086256e-05       0.7312956   9.3448587e-06               0   1.3705323e-05               0               0               0
   0.0014661282   9.0577469e-05      0.74291542   1.0649633e-05               0   1.5262618e-05               0               0               0
   0.0016563743   9.1105072e-05      0.75445192   1.2156834e-05               0   1.6950216e-05               0               0               0
   0.0018713042   9.1671969e-05      0.76591676    1.390163e-05               0   1.8769063e-05               0               0               0
   0.0021141207   9.2281315e-05      0.77732139   1.5925324e-05               0   2.0716792e-05               0               0               0
   0.0023884425   9.2936392e-05      0.78867696   1.8277828e-05               0   2.2786593e-05               0               0               0
   0.0026983575   9.3640585e-05      0.79999423   2.1020026e-05               0   2.4965774e-05               0               0               0
   0.0030484842   9.4397352e-05      0.81128368   2.4226409e-05   6.3681432e-36   2.7233894e-05               0               0               0
   0.0034440402   9.5210131e-05      0.82255595   2.7988838e-05   9.5594863e-36   2.9560692e-05               0               0               0
   0.0038909203   9.6082144e-05      0.83382191   3.2421382e-05  -2.8082545e-36     3.19038e-05               0               0               0
    0.004395784   9.7016062e-05      0.84509258    3.766681e-05  -9.0005061e-36    3.420604e-05               0               0               0
   0.0049661549   9.8013477e-05      0.85637914   4.3905483e-05   5.7609393e-36   3.6392541e-05               0               0               0
   0.0056105328    9.907406e-05      0.86769282   5.1367303e-05    1.450228e-35   3.8367756e-05               0               0               0
   0.0063385204   0.00010019413      0.87904501   6.0347927e-05  -4.9257734e-36   4.0012447e-05               0               0               0
   0.0071609664   0.00010136427      0.89044761   7.1231104e-05  -1.3162815e-35   4.1178654e-05               0               0               0
   0.0080901272   0.00010256744      0.90191771   8.4545203e-05  -2.4966091e-36   4.1651399e-05               0               0               0
   0.0091398493   0.00010377438      0.91348545   0.00010103688               0   4.1164873e-05               0               0               0
    0.010325776    0.0001049329      0.92519094   0.00012175347               0   3.9535728e-05               0               0               0
     0.01166558   0.00010596634      0.93706842   0.00014815238               0   3.6694435e-05               0               0               0
    0.013179228   0.00010678811      0.94912729   0.00018219932               0   3.2662697e-05               0               0               0
    0.014889277   0.00010730326       0.9613036   0.00022628614               0   2.7642688e-05               0               0               0
    0.016821209   0.00010737106      0.97333671   0.00028228901               0   2.2012326e-05               0               0               0
    0.019003816   0.00010694137      0.98466053   0.00035120116               0   1.5802793e-05               0               0               0
    0.021469624   0.00010585228      0.99409878   0.00042374045               0   9.2167073e-06               0               0               0
    0.024255377   0.00010379627      0.99993923   0.00047358401               0   3.8146961e-06               0               0               0
    0.027402591   0.00010113627       1.0020324   0.00049010771               0   9.7575876e-07               0               0               0
    0.030958166   9.8480626e-05       1.0023394   0.00049152454   5.0875946e-35   1.9961274e-07               0               0               0
    0.034975088   9.5934291e-05       1.0023468   0.00049133167   6.4387026e-35   1.5048641e-07               0               0               0
    0.039513219   9.3452155e-05       1.0023438   0.00049125749  -2.3854005e-35   1.5039809e-07               0               0               0
    0.044640187   9.1054153e-05       1.0023418   0.00049156775  -3.7365086e-35   1.5041022e-07               0               0               0
    0.050432395   8.8812093e-05       1.0023408    0.0004922034   2.1549797e-35   1.5041019e-07               0               0               0
    0.056976161   8.6823158e-05       1.0023393   0.00049283398    9.643564e-36   1.5041003e-07               0               0               0
    0.064369002   8.5215279e-05        1.002336       0.0004927   7.3100422e-36   1.5041001e-07               0               0               0
    0.072721087   8.4067534e-05       1.0023305   0.00049155422   2.2724157e-35   1.5041004e-07               0               0               0
    0.082156882   8.3307946e-05        1.002323   0.00048989714  -2.3536938e-35    1.504101e-07               0               0               0
    0.092817002   8.2792325e-05       1.0023137   0.00048825561   -2.704467e-35   1.5041018e-07               0               0               0
