/*--------------------------------*- C++ -*----------------------------------*\
  =========                 |
  \\      /  F ield         | OpenFOAM: The Open Source CFD Toolbox
   \\    /   O peration     | Website:  https://openfoam.org
    \\  /    A nd           | Version:  12
     \\/     M anipulation  |
\*---------------------------------------------------------------------------*/
FoamFile
{
    format      ascii;
    class       volScalarField;
    location    "1800";
    object      k;
}
// * * * * * * * * * * * * * * * * * * * * * * * * * * * * * * * * * * * * * //

dimensions      [0 2 -2 0 0 0 0];

internalField   nonuniform List<scalar> 
7480
(
9.131882e-06
9.5177844e-06
1.0336571e-05
1.2715194e-05
0.0017675823
0.0035111868
0.0049554017
0.0060288851
0.0067626256
0.0072237175
0.0074851103
0.0076041317
0.007623692
0.0075750697
0.0074809033
0.0073573576
0.0072160205
0.0070660445
0.0069171923
0.0067704379
0.0066276842
0.0064894246
0.0063577682
0.0062346269
0.0061212792
0.0060184986
0.0059265646
0.0058452702
0.0057740429
0.0057120623
0.0056583445
0.0056118665
0.0055717461
0.0055372523
0.0055075102
0.0054815028
0.0054581619
0.0054365967
0.0054161597
0.0053963933
0.0053768882
0.0053572738
0.0053372648
0.0053166491
0.0052953223
0.0052732458
0.0052503805
0.0052265911
0.0052017466
0.0051758632
0.0051490696
0.0051214894
0.0050932244
0.0050644398
0.0050353877
0.0050062743
0.0049771683
0.0049480811
0.0049190717
0.0048902326
0.0048616058
0.0048332165
0.0048051369
0.0047774415
0.0047501345
0.0047232093
0.0046966697
0.0046704759
0.00464456
0.0046189132
0.0045935756
0.0045685423
0.0045438145
0.0045194507
0.0044954259
0.0044716741
0.0044481986
0.0044249848
0.0044020099
0.0043793167
0.0043569203
0.0043347938
0.0043129396
0.0042913269
0.0042699277
0.0042487654
0.0042278513
0.0042071851
0.0041867464
0.0041665115
0.0041464861
0.0041266634
0.0041070515
0.004087623
0.0040683975
0.00404916
0.0040305941
0.0040107609
0.0039932989
0.0039668014
8.9479126e-06
8.8222042e-06
8.7067514e-06
8.6318521e-06
4.773926e-05
0.00014931464
0.00031207348
0.00052024565
0.00075168203
0.00098614262
0.0012045456
0.0013985007
0.0015688111
0.0017225998
0.0018691599
0.0020188547
0.0021844676
0.0023870797
0.002612886
0.0028405117
0.0030742061
0.0033132641
0.0035546823
0.0037950546
0.0040309993
0.0042582686
0.0044728807
0.004671546
0.0048516968
0.0050116407
0.005150733
0.0052695606
0.0053699161
0.0054549306
0.0055250815
0.0055801418
0.0056199829
0.0056466393
0.0056617195
0.005666652
0.0056630113
0.0056524689
0.0056364722
0.0056159785
0.0055918014
0.0055646815
0.0055353132
0.0055042951
0.0054721379
0.0054395095
0.0054070122
0.0053750686
0.0053439423
0.0053138186
0.0052848583
0.0052569482
0.0052297023
0.0052029244
0.0051765725
0.0051507124
0.0051254437
0.0051008172
0.005076786
0.005053251
0.0050301308
0.0050073407
0.0049845812
0.0049617053
0.0049387603
0.0049158664
0.004893141
0.0048706648
0.004848463
0.0048265381
0.0048047568
0.0047829904
0.0047612192
0.0047395179
0.0047179833
0.0046966678
0.0046756066
0.0046547297
0.00463393
0.0046131903
0.004592567
0.0045721129
0.004551875
0.0045318254
0.0045118896
0.0044920465
0.0044723281
0.0044527799
0.0044334234
0.0044141914
0.0043950919
0.0043759824
0.0043573221
0.0043378099
0.0043221165
0.0042880565
8.9433751e-06
8.8096541e-06
8.6758562e-06
8.5428049e-06
9.05135e-06
1.1697493e-05
1.8654937e-05
3.194633e-05
5.2805374e-05
8.1720166e-05
0.00011804422
0.00016044702
0.00020748203
0.00025789317
0.00031073409
0.00036554313
0.00042263883
0.00048391009
0.00054884273
0.00061893549
0.00069626816
0.00078459297
0.00088743219
0.0010087896
0.0011534281
0.0013105607
0.0014771024
0.0016535587
0.0018399705
0.002035938
0.0022407043
0.0024535149
0.0026715798
0.0028850752
0.0030921951
0.0032899483
0.0034739711
0.0036411481
0.0037923544
0.0039272722
0.0040470185
0.0041528988
0.0042443936
0.0043205665
0.0043832047
0.0044340356
0.0044747923
0.0045041375
0.0045256694
0.0045414566
0.0045527098
0.0045602577
0.0045648606
0.0045673882
0.0045685334
0.0045685312
0.0045673382
0.0045649899
0.0045617016
0.0045577736
0.0045534159
0.0045487012
0.0045435844
0.0045379961
0.0045319392
0.0045253742
0.0045179373
0.0045096484
0.0045007013
0.0044912924
0.0044815509
0.0044715377
0.0044612773
0.0044507879
0.004439843
0.0044283493
0.0044163978
0.0044041289
0.0043916728
0.0043790963
0.0043664346
0.0043535622
0.0043403701
0.0043268956
0.0043132538
0.0042995291
0.0042857798
0.0042719441
0.0042579309
0.0042437559
0.0042294906
0.0042152053
0.0042009211
0.0041865542
0.0041720865
0.0041575341
0.0041430592
0.0041280145
0.0041154788
0.0040888981
8.9432696e-06
8.8092144e-06
8.6750597e-06
8.5409159e-06
8.4160094e-06
8.3325999e-06
8.3606512e-06
8.616724e-06
9.2641842e-06
1.0526169e-05
1.2643112e-05
1.5842505e-05
2.0314885e-05
2.6203502e-05
3.3609991e-05
4.2608367e-05
5.3273301e-05
6.5755222e-05
8.0215592e-05
9.6857839e-05
0.00011593049
0.00013783151
0.00016312374
0.00019257553
0.00022725309
0.00026786235
0.00031514784
0.00037021468
0.00043469828
0.00051096321
0.00060237491
0.00071354792
0.00084290957
0.00098579509
0.0011431993
0.0013164872
0.0015062866
0.0017099701
0.0019169526
0.0021227128
0.0023236027
0.0025166275
0.0026988088
0.0028687222
0.003025017
0.0031666353
0.0032942999
0.0034084569
0.0035095816
0.0035961529
0.0036702547
0.0037338029
0.0037886675
0.0038368116
0.0038792556
0.0039155867
0.0039459012
0.0039718768
0.0039946815
0.0040151561
0.0040336246
0.0040501696
0.0040648332
0.0040777708
0.0040892203
0.0040992507
0.0041077492
0.004114738
0.0041204228
0.0041250084
0.0041286175
0.0041312956
0.0041330863
0.0041340471
0.0041339457
0.0041327919
0.0041307644
0.0041280262
0.0041247017
0.0041208597
0.0041165417
0.0041115779
0.0041059094
0.0040996461
0.0040929315
0.0040858608
0.0040784972
0.0040707435
0.0040625194
0.0040538892
0.0040449568
0.004035804
0.004026443
0.0040167749
0.0040067891
0.0039965942
0.0039862159
0.0039753518
0.0039660272
0.0039455007
8.9432776e-06
8.8092126e-06
8.6750711e-06
8.540926e-06
8.4069638e-06
8.2738214e-06
8.1431649e-06
8.0184983e-06
7.9059741e-06
7.8156246e-06
7.7621117e-06
7.7653343e-06
7.8505328e-06
8.0481999e-06
8.3941861e-06
8.9297156e-06
9.7017012e-06
1.0764216e-05
1.2180344e-05
1.4021489e-05
1.6366206e-05
1.9308029e-05
2.2963114e-05
2.7477995e-05
3.3049056e-05
3.992308e-05
4.8388141e-05
5.8796086e-05
7.159874e-05
8.7395977e-05
0.0001070044
0.00013157944
0.00016239252
0.00020070416
0.00024820567
0.00030731288
0.0003814382
0.00047522552
0.00059227288
0.00072591241
0.00087559355
0.0010401306
0.0012193215
0.0014080403
0.001600053
0.0017911696
0.0019776943
0.0021564186
0.0023251219
0.0024838212
0.0026300297
0.0027631835
0.0028842868
0.0029953327
0.0030954054
0.0031836214
0.0032610658
0.0033295419
0.0033910091
0.0034466641
0.0034967942
0.0035418581
0.0035824547
0.0036193343
0.0036530272
0.0036834749
0.0037101965
0.0037340984
0.0037557467
0.0037754356
0.0037932789
0.0038093296
0.0038237289
0.0038366032
0.0038479382
0.0038577835
0.0038662913
0.0038736127
0.0038798621
0.0038851124
0.0038894187
0.0038926259
0.003894768
0.0038960069
0.0038964823
0.0038962867
0.0038954839
0.0038939538
0.0038916591
0.0038887184
0.0038852516
0.003881341
0.0038769858
0.0038720791
0.0038666465
0.0038608477
0.0038546536
0.0038479141
0.0038421367
0.0038264254
8.9433001e-06
8.8092449e-06
8.6751136e-06
8.5409698e-06
8.4068761e-06
8.2729029e-06
8.1391423e-06
8.0057359e-06
7.8729181e-06
7.7410787e-06
7.610845e-06
7.4831822e-06
7.3595004e-06
7.2417618e-06
7.132603e-06
7.0354546e-06
6.9546864e-06
6.8958029e-06
6.8657545e-06
6.8731784e-06
6.9284291e-06
7.0441798e-06
7.2363759e-06
7.5252914e-06
7.9379701e-06
8.5102442e-06
9.2881178e-06
1.0331136e-05
1.1718351e-05
1.3556063e-05
1.5988234e-05
1.9217099e-05
2.3518821e-05
2.9264436e-05
3.6951121e-05
4.726825e-05
6.118946e-05
8.0095775e-05
0.00010584745
0.00014010519
0.00018483971
0.00024250512
0.00031657218
0.00041006752
0.00052522854
0.00065787057
0.00080701998
0.00097007254
0.0011439676
0.0013215376
0.0014991334
0.0016733349
0.0018414507
0.0020018097
0.0021552464
0.0022995583
0.0024330498
0.0025557924
0.002669301
0.0027736872
0.0028674842
0.0029520991
0.003028901
0.0030992836
0.0031637451
0.0032221918
0.0032746062
0.0033220085
0.0033653306
0.0034049279
0.003441019
0.0034738974
0.0035039772
0.0035315052
0.0035561453
0.0035783211
0.0035984602
0.0036167942
0.0036334451
0.0036485037
0.0036620596
0.0036741395
0.0036848251
0.0036942438
0.0037025141
0.00370973
0.0037159567
0.0037210962
0.0037251846
0.0037283733
0.0037307756
0.0037324682
0.0037334419
0.0037336019
0.0037330279
0.003731901
0.0037301645
0.0037277432
0.0037258774
0.0037147056
8.943332e-06
8.8092817e-06
8.6751518e-06
8.5410074e-06
8.4069115e-06
8.2729262e-06
8.1391125e-06
8.0055304e-06
7.8722435e-06
7.7393199e-06
7.6068359e-06
7.4748808e-06
7.3435703e-06
7.2130489e-06
7.0835041e-06
6.9551811e-06
6.8284009e-06
6.7035819e-06
6.5812685e-06
6.4621634e-06
6.3471472e-06
6.2373207e-06
6.1340772e-06
6.0391872e-06
5.9549687e-06
5.8844936e-06
5.8317667e-06
5.8020883e-06
5.8026343e-06
5.8432971e-06
5.9378936e-06
6.1064451e-06
6.3783604e-06
6.7962819e-06
7.4223234e-06
8.3490432e-06
9.7163728e-06
1.173683e-05
1.4735913e-05
1.9170916e-05
2.5681733e-05
3.5164472e-05
4.8891257e-05
6.8540921e-05
9.6275296e-05
0.0001342065
0.00018480204
0.0002510528
0.0003368337
0.00044289368
0.0005660225
0.0007055838
0.00085923712
0.0010229183
0.0011887766
0.0013542144
0.0015166475
0.0016740098
0.0018249718
0.0019707773
0.0021091573
0.0022387425
0.0023597108
0.0024732077
0.0025783717
0.0026740718
0.0027611419
0.0028408473
0.0029141172
0.0029808594
0.0030415403
0.0030969676
0.0031478931
0.0031946212
0.0032369774
0.0032754106
0.0033105632
0.0033428019
0.0033723201
0.0033993307
0.0034240664
0.0034463895
0.003466619
0.0034850517
0.0035018521
0.003517136
0.0035309727
0.0035433999
0.0035545085
0.0035644137
0.0035732112
0.003580978
0.0035877135
0.0035933737
0.003598083
0.003602015
0.0036050972
0.0036072963
0.0036097476
0.0036031733
8.9433741e-06
8.8093292e-06
8.6752029e-06
8.5410614e-06
8.4069674e-06
8.2729826e-06
8.139167e-06
8.0055795e-06
7.8722795e-06
7.7393267e-06
7.6067809e-06
7.474702e-06
7.3431501e-06
7.2121872e-06
7.0818751e-06
6.9522783e-06
6.8234644e-06
6.6955062e-06
6.5684836e-06
6.4424868e-06
6.317619e-06
6.1939992e-06
6.0717683e-06
5.9510953e-06
5.8321893e-06
5.7153142e-06
5.6008038e-06
5.4890866e-06
5.3807263e-06
5.2764814e-06
5.1773886e-06
5.0849183e-06
5.0012052e-06
4.9293471e-06
4.8738883e-06
4.8416732e-06
4.8432658e-06
4.8952609e-06
5.0247599e-06
5.2755679e-06
5.7171783e-06
6.4614872e-06
7.6899933e-06
9.6914069e-06
1.2914096e-05
1.8012673e-05
2.592923e-05
3.8000562e-05
5.6110387e-05
8.2537378e-05
0.00011954541
0.00016975645
0.00023634482
0.00032382019
0.00042944747
0.00055120244
0.00068814987
0.00083773973
0.00099519097
0.0011515734
0.0013065266
0.0014584061
0.0016059434
0.001748835
0.0018876102
0.0020197457
0.0021442932
0.0022615642
0.0023721751
0.0024732944
0.0025660005
0.0026515018
0.0027305509
0.0028030974
0.0028691759
0.0029294529
0.002984701
0.0030352744
0.0030815066
0.0031238753
0.0031628416
0.0031983524
0.0032307069
0.0032603486
0.003287577
0.0033125723
0.0033354768
0.0033562591
0.0033751716
0.0033924531
0.0034082292
0.0034225952
0.0034355974
0.0034473002
0.0034578012
0.0034672468
0.003475564
0.0034827534
0.0034899826
0.0034881978
8.9434229e-06
8.8093845e-06
8.6752628e-06
8.5411242e-06
8.4070315e-06
8.2730462e-06
8.139229e-06
8.0056395e-06
7.8723373e-06
7.739382e-06
7.6068331e-06
7.4747495e-06
7.3431899e-06
7.2122122e-06
7.0818735e-06
6.9522301e-06
6.8233371e-06
6.6952488e-06
6.5680187e-06
6.4416997e-06
6.3163441e-06
6.1920036e-06
6.0687296e-06
5.9465741e-06
5.8255901e-06
5.705833e-06
5.5873621e-06
5.4702412e-06
5.354542e-06
5.2403482e-06
5.1277606e-06
5.0169074e-06
4.9079591e-06
4.8011479e-06
4.6967989e-06
4.5953821e-06
4.4976015e-06
4.4045363e-06
4.3179214e-06
4.2405874e-06
4.1770989e-06
4.1349964e-06
4.1269921e-06
4.17479e-06
4.3160159e-06
4.6151404e-06
5.1818804e-06
6.2034182e-06
7.9959822e-06
1.1065237e-05
1.6167358e-05
2.4407963e-05
3.7368127e-05
5.7377523e-05
8.6818846e-05
0.00012817767
0.00018436485
0.00025926534
0.00035529112
0.0004671666
0.000593667
0.00073300622
0.00088146642
0.0010325657
0.0011806504
0.0013269243
0.001470262
0.0016095262
0.0017461714
0.00187746
0.002002103
0.0021201136
0.0022320139
0.0023356752
0.0024311724
0.002519431
0.0026010079
0.0026757654
0.0027441802
0.0028070017
0.0028648239
0.0029176409
0.0029658188
0.0030099699
0.0030505063
0.0030877084
0.0031218927
0.0031531525
0.0031817371
0.0032079648
0.0032320828
0.0032542489
0.0032745015
0.0032929104
0.00330976
0.0033252113
0.0033392086
0.0033518155
0.0033643594
0.0033675639
8.9434768e-06
8.8094454e-06
8.6753286e-06
8.541193e-06
8.4071017e-06
8.2731164e-06
8.1392983e-06
8.0057073e-06
7.8724033e-06
7.739446e-06
7.6068948e-06
7.4748087e-06
7.3432463e-06
7.2122655e-06
7.0819232e-06
6.9522755e-06
6.823377e-06
6.6952813e-06
6.5680407e-06
6.441706e-06
6.3163268e-06
6.1919511e-06
6.0686249e-06
5.9463927e-06
5.8252976e-06
5.7053812e-06
5.5866839e-06
5.4692445e-06
5.3531007e-06
5.2382892e-06
5.1248461e-06
5.0128075e-06
4.9022108e-06
4.7930954e-06
4.6855053e-06
4.5794913e-06
4.4751172e-06
4.3724677e-06
4.2716647e-06
4.1728948e-06
4.0764474e-06
3.9827893e-06
3.8926981e-06
3.8075004e-06
3.7295227e-06
3.6628588e-06
3.6147029e-06
3.5979099e-06
3.6357724e-06
3.7706487e-06
4.0784455e-06
4.6940562e-06
5.8558319e-06
7.9838041e-06
1.1741724e-05
1.8134583e-05
2.8630826e-05
4.5390012e-05
7.1227164e-05
0.00010870938
0.00016064444
0.00023077875
0.00032133514
0.00042993516
0.0005520904
0.00068617417
0.00082868719
0.0009750506
0.0011174102
0.0012585268
0.0013974033
0.0015328659
0.001666292
0.0017951891
0.0019181981
0.0020351224
0.0021462175
0.0022491335
0.0023443761
0.0024326996
0.0025145055
0.0025895411
0.0026583472
0.0027215569
0.0027795166
0.0028326223
0.0028814163
0.0029261464
0.0029670454
0.0030045382
0.0030390299
0.0030707676
0.0030998836
0.0031265065
0.0031509652
0.0031734985
0.0031941515
0.0032128885
0.0032313851
0.0032396224
8.9435349e-06
8.8095108e-06
8.6753993e-06
8.5412669e-06
8.4071773e-06
8.2731923e-06
8.1393733e-06
8.0057809e-06
7.872475e-06
7.7395154e-06
7.6069618e-06
7.4748733e-06
7.3433084e-06
7.212325e-06
7.0819801e-06
6.9523297e-06
6.8234286e-06
6.6953301e-06
6.5680866e-06
6.4417488e-06
6.3163663e-06
6.1919866e-06
6.0686557e-06
5.9464177e-06
5.8253151e-06
5.7053887e-06
5.5866778e-06
5.4692197e-06
5.3530499e-06
5.2382022e-06
5.1247084e-06
5.0125987e-06
4.9019016e-06
4.7926443e-06
4.6848524e-06
4.57855e-06
4.47376e-06
4.3705051e-06
4.2688081e-06
4.168694e-06
4.0701925e-06
3.9733414e-06
3.8781949e-06
3.7848371e-06
3.6934089e-06
3.6041545e-06
3.5175027e-06
3.4342236e-06
3.3557276e-06
3.2846416e-06
3.2258505e-06
3.1883933e-06
3.1891764e-06
3.2605379e-06
3.4632593e-06
3.9101136e-06
4.8086691e-06
6.537989e-06
9.7507135e-06
1.5468972e-05
2.5205679e-05
4.1210775e-05
6.6408889e-05
0.00010386789
0.00015642525
0.00022802909
0.00031909844
0.0004288726
0.00055102956
0.00068331682
0.00082227237
0.00096400687
0.0011019786
0.001238306
0.0013728075
0.0015046679
0.0016346126
0.0017600675
0.0018799508
0.0019942298
0.0021025635
0.0022029044
0.0022961274
0.0023826485
0.0024623882
0.0025357211
0.0026032498
0.0026652821
0.002722059
0.0027741002
0.0028219063
0.0028658035
0.0029060959
0.0029430166
0.0029769004
0.0030080907
0.0030367971
0.0030629427
0.0030885819
0.0031028608
8.9435964e-06
8.8095798e-06
8.6754737e-06
8.5413449e-06
8.4072571e-06
8.2732725e-06
8.1394529e-06
8.0058591e-06
7.8725514e-06
7.7395897e-06
7.6070338e-06
7.4749428e-06
7.3433753e-06
7.2123893e-06
7.0820417e-06
6.9523885e-06
6.8234845e-06
6.6953831e-06
6.5681367e-06
6.441796e-06
6.3164105e-06
6.1920279e-06
6.068694e-06
5.9464531e-06
5.8253477e-06
5.7054185e-06
5.5867047e-06
5.4692437e-06
5.3530707e-06
5.2382193e-06
5.1247212e-06
5.0126062e-06
4.9019023e-06
4.7926358e-06
4.6848312e-06
4.5785109e-06
4.4736955e-06
4.3704036e-06
4.2686522e-06
4.1684566e-06
4.069831e-06
3.972788e-06
3.8773393e-06
3.7834967e-06
3.6912733e-06
3.6006871e-06
3.5117646e-06
3.4245505e-06
3.339125e-06
3.2556383e-06
3.1743754e-06
3.0958747e-06
3.0211624e-06
2.9522348e-06
2.8929849e-06
2.850947e-06
2.8407487e-06
2.8912701e-06
3.0596733e-06
3.4569755e-06
4.295225e-06
5.975159e-06
9.2060219e-06
1.5150727e-05
2.5538627e-05
4.2979424e-05
7.0590707e-05
0.00011185382
0.00016989606
0.00024771473
0.0003443913
0.00045874492
0.00058364472
0.00071575989
0.0008522244
0.00098952705
0.0011229769
0.001255211
0.001385496
0.0015141736
0.0016401192
0.0017613665
0.0018773227
0.0019880063
0.002091623
0.0021880045
0.00227764
0.0023606445
0.0024370757
0.0025074114
0.0025720937
0.0026314501
0.0026859547
0.0027359603
0.0027817882
0.0028238814
0.002862631
0.0028979658
0.0029323455
0.0029543512
8.9436607e-06
8.8096516e-06
8.6755512e-06
8.541426e-06
8.4073402e-06
8.2733564e-06
8.1395364e-06
8.0059413e-06
7.8726319e-06
7.7396681e-06
7.6071099e-06
7.4750164e-06
7.3434463e-06
7.2124576e-06
7.0821072e-06
6.9524511e-06
6.8235441e-06
6.6954398e-06
6.5681904e-06
6.4418468e-06
6.3164584e-06
6.1920728e-06
6.0687361e-06
5.9464924e-06
5.8253842e-06
5.7054525e-06
5.5867362e-06
5.4692728e-06
5.3530976e-06
5.2382441e-06
5.124744e-06
5.0126271e-06
4.9019214e-06
4.7926531e-06
4.6848466e-06
4.5785242e-06
4.4737063e-06
4.3704115e-06
4.2686561e-06
4.168455e-06
4.0698216e-06
3.9727668e-06
3.8773001e-06
3.783429e-06
3.6911597e-06
3.6004969e-06
3.5114446e-06
3.4240059e-06
3.3381845e-06
3.2539866e-06
3.1714246e-06
3.0905247e-06
3.0113399e-06
2.9339793e-06
2.8586658e-06
2.7858471e-06
2.7164175e-06
2.6521832e-06
2.596827e-06
2.5578142e-06
2.5502289e-06
2.6050118e-06
2.7857039e-06
3.2214357e-06
4.167762e-06
6.122574e-06
9.9708524e-06
1.7179782e-05
2.9962278e-05
5.1400707e-05
8.4938444e-05
0.00013438374
0.00020334968
0.00029114486
0.00039699387
0.00051759179
0.00064504894
0.00077693908
0.00091103891
0.0010433716
0.0011727582
0.0013011457
0.0014278412
0.0015529978
0.0016743048
0.001790687
0.0019020765
0.0020074104
0.0021054903
0.0021967755
0.0022814975
0.0023596455
0.0024316762
0.0024979647
0.0025587829
0.0026146186
0.0026659835
0.0027128467
0.0027580563
0.0027900453
8.9437274e-06
8.8097258e-06
8.675631e-06
8.5415097e-06
8.4074262e-06
8.2734432e-06
8.139623e-06
8.0060269e-06
7.8727158e-06
7.7397501e-06
7.6071895e-06
7.4750935e-06
7.3435208e-06
7.2125293e-06
7.082176e-06
6.952517e-06
6.8236071e-06
6.6954997e-06
6.5682473e-06
6.4419007e-06
6.3165092e-06
6.1921206e-06
6.0687809e-06
5.9465342e-06
5.8254233e-06
5.7054889e-06
5.5867701e-06
5.4693042e-06
5.3531267e-06
5.2382711e-06
5.1247691e-06
5.0126503e-06
4.901943e-06
4.7926731e-06
4.6848652e-06
4.5785415e-06
4.4737224e-06
4.3704263e-06
4.2686698e-06
4.1684676e-06
4.0698329e-06
3.9727768e-06
3.8773084e-06
3.7834351e-06
3.6911626e-06
3.600495e-06
3.511435e-06
3.4239835e-06
3.3381398e-06
3.2539022e-06
3.1712679e-06
3.0902336e-06
3.0107962e-06
2.9329544e-06
2.8567123e-06
2.7820863e-06
2.7091181e-06
2.6379033e-06
2.5686513e-06
2.5018081e-06
2.4383066e-06
2.3801122e-06
2.3313949e-06
2.3009816e-06
2.3074858e-06
2.3908672e-06
2.636207e-06
3.2229253e-06
4.5189876e-06
7.2336338e-06
1.261566e-05
2.2691628e-05
4.0505372e-05
6.9537051e-05
0.00011357562
0.00017698229
0.0002597508
0.00036063982
0.00047714576
0.00060218826
0.00073077849
0.00086159199
0.00099218113
0.0011195749
0.001245552
0.0013700419
0.0014937481
0.0016142526
0.0017301874
0.0018413545
0.0019469617
0.0020453896
0.0021371252
0.0022224046
0.0023011222
0.0023736714
0.0024405675
0.0025017356
0.0025602901
0.0026049978
8.9437963e-06
8.8098019e-06
8.6757129e-06
8.5415956e-06
8.4075144e-06
8.2735325e-06
8.1397122e-06
8.0061153e-06
7.8728027e-06
7.739835e-06
7.6072722e-06
7.4751738e-06
7.3435984e-06
7.2126041e-06
7.0822479e-06
6.9525859e-06
6.8236729e-06
6.6955625e-06
6.568307e-06
6.4419572e-06
6.3165626e-06
6.1921709e-06
6.0688281e-06
5.9465785e-06
5.8254647e-06
5.7055275e-06
5.5868061e-06
5.4693377e-06
5.3531579e-06
5.2383001e-06
5.124796e-06
5.0126754e-06
4.9019663e-06
4.7926949e-06
4.6848855e-06
4.5785605e-06
4.4737401e-06
4.3704429e-06
4.2686853e-06
4.1684822e-06
4.0698466e-06
3.9727896e-06
3.8773203e-06
3.7834462e-06
3.6911728e-06
3.6005044e-06
3.5114434e-06
3.4239906e-06
3.3381452e-06
3.253905e-06
3.1712663e-06
3.0902244e-06
3.010773e-06
2.9329045e-06
2.8566109e-06
2.7818836e-06
2.7087145e-06
2.6370974e-06
2.5670319e-06
2.4985309e-06
2.4316357e-06
2.3664499e-06
2.3032141e-06
2.2424642e-06
2.185372e-06
2.1345252e-06
2.0956486e-06
2.0813739e-06
2.1197144e-06
2.2729611e-06
2.6782808e-06
3.6327362e-06
5.7519798e-06
1.0175654e-05
1.8815074e-05
3.4733319e-05
6.1594274e-05
0.00010328324
0.0001643043
0.00024516771
0.00034411168
0.00045832682
0.00058206614
0.00070849007
0.00083653016
0.00096487963
0.0010902714
0.0012137961
0.0013362144
0.0014581943
0.0015772944
0.0016920785
0.0018022748
0.0019070746
0.0020048229
0.0020959634
0.002180821
0.0022589028
0.0023333693
0.0023938471
8.943867e-06
8.8098798e-06
8.6757965e-06
8.5416832e-06
8.4076045e-06
8.2736239e-06
8.1398037e-06
8.006206e-06
7.8728921e-06
7.7399226e-06
7.6073576e-06
7.4752567e-06
7.3436787e-06
7.2126816e-06
7.0823225e-06
6.9526575e-06
6.8237414e-06
6.6956279e-06
6.5683692e-06
6.4420163e-06
6.3166184e-06
6.1922236e-06
6.0688776e-06
5.946625e-06
5.8255082e-06
5.7055682e-06
5.586844e-06
5.4693731e-06
5.3531909e-06
5.2383308e-06
5.1248245e-06
5.012702e-06
4.9019911e-06
4.7927181e-06
4.6849072e-06
4.5785807e-06
4.4737591e-06
4.3704606e-06
4.268702e-06
4.1684978e-06
4.0698612e-06
3.9728033e-06
3.8773332e-06
3.7834583e-06
3.6911842e-06
3.600515e-06
3.5114534e-06
3.4239999e-06
3.3381539e-06
3.253913e-06
3.1712736e-06
3.0902308e-06
3.0107781e-06
2.9329079e-06
2.8566111e-06
2.781878e-06
2.7086977e-06
2.6370582e-06
2.5669472e-06
2.498352e-06
2.4312612e-06
2.3656657e-06
2.301564e-06
2.2389721e-06
2.1779439e-06
2.1186209e-06
2.0613439e-06
2.0069e-06
1.9570939e-06
1.9160818e-06
1.8934236e-06
1.9111272e-06
2.0204455e-06
2.3390529e-06
3.1314272e-06
4.9776235e-06
9.0029051e-06
1.714998e-05
3.2594568e-05
5.9249132e-05
0.00010117146
0.00016289556
0.00024463605
0.00034420834
0.0004580773
0.00058115094
0.00070593185
0.00083158679
0.00095748905
0.0010807084
0.0012019703
0.0013225665
0.0014426646
0.0015599189
0.001673063
0.0017816972
0.0018848944
0.0019808968
0.0020729335
0.0021518922
8.9439394e-06
8.8099591e-06
8.6758814e-06
8.5417723e-06
8.4076963e-06
8.273717e-06
8.1398972e-06
8.0062989e-06
7.8729838e-06
7.7400125e-06
7.6074454e-06
7.4753421e-06
7.3437615e-06
7.2127616e-06
7.0823996e-06
6.9527315e-06
6.8238123e-06
6.6956956e-06
6.5684337e-06
6.4420775e-06
6.3166764e-06
6.1922783e-06
6.0689292e-06
5.9466734e-06
5.8255536e-06
5.7056107e-06
5.5868838e-06
5.4694102e-06
5.3532254e-06
5.238363e-06
5.1248546e-06
5.0127301e-06
4.9020173e-06
4.7927426e-06
4.6849301e-06
4.5786022e-06
4.4737791e-06
4.3704795e-06
4.2687196e-06
4.1685144e-06
4.0698769e-06
3.972818e-06
3.877347e-06
3.7834712e-06
3.6911964e-06
3.6005265e-06
3.5114641e-06
3.42401e-06
3.3381633e-06
3.2539218e-06
3.1712818e-06
3.0902385e-06
3.0107852e-06
2.9329144e-06
2.856617e-06
2.7818833e-06
2.708702e-06
2.6370609e-06
2.5669471e-06
2.4983465e-06
2.4312447e-06
2.365626e-06
2.3014751e-06
2.2387766e-06
2.177517e-06
2.1176872e-06
2.0592897e-06
2.0023541e-06
1.9469729e-06
1.8933877e-06
1.8421914e-06
1.7948002e-06
1.7546182e-06
1.7298182e-06
1.7398892e-06
1.8321636e-06
2.1199025e-06
2.8675595e-06
4.6760064e-06
8.7515014e-06
1.7215952e-05
3.3525587e-05
6.1871711e-05
0.00010652869
0.00017150809
0.00025669862
0.00035894866
0.00047382374
0.00059643245
0.00071976835
0.00084335723
0.0009667796
0.0010877856
0.0012069333
0.0013259505
0.0014440504
0.0015592265
0.0016701601
0.0017790172
0.0018772302
8.9440134e-06
8.8100398e-06
8.6759677e-06
8.5418626e-06
8.4077894e-06
8.2738116e-06
8.1399922e-06
8.0063936e-06
7.8730773e-06
7.7401045e-06
7.6075353e-06
7.4754297e-06
7.3438465e-06
7.2128438e-06
7.0824788e-06
6.9528077e-06
6.8238853e-06
6.6957654e-06
6.5685002e-06
6.4421408e-06
6.3167364e-06
6.192335e-06
6.0689826e-06
5.9467237e-06
5.8256008e-06
5.7056549e-06
5.5869252e-06
5.4694489e-06
5.3532615e-06
5.2383967e-06
5.1248861e-06
5.0127594e-06
4.9020448e-06
4.7927683e-06
4.6849541e-06
4.5786247e-06
4.4738002e-06
4.3704993e-06
4.2687382e-06
4.1685319e-06
4.0698933e-06
3.9728334e-06
3.8773615e-06
3.7834849e-06
3.6912092e-06
3.6005385e-06
3.5114754e-06
3.4240206e-06
3.3381733e-06
3.2539311e-06
3.1712906e-06
3.0902466e-06
3.0107928e-06
2.9329215e-06
2.8566236e-06
2.7818894e-06
2.7087076e-06
2.6370661e-06
2.5669517e-06
2.4983505e-06
2.4312477e-06
2.3656276e-06
2.3014737e-06
2.2387691e-06
2.1774963e-06
2.1176374e-06
2.0591748e-06
2.0020921e-06
1.946376e-06
1.8920219e-06
1.8390466e-06
1.7875183e-06
1.7376313e-06
1.6898911e-06
1.6455573e-06
1.6077835e-06
1.5844559e-06
1.5951371e-06
1.6891473e-06
1.9892156e-06
2.7923593e-06
4.7881551e-06
9.3801952e-06
1.9052798e-05
3.7672641e-05
6.9751765e-05
0.0001197827
0.00019052575
0.00028109808
0.00038725069
0.00050370698
0.00062565846
0.00074751863
0.00086922436
0.00099020189
0.0011089709
0.0012262574
0.0013436725
0.0014618773
0.0015741044
8.9440889e-06
8.8101217e-06
8.676055e-06
8.5419541e-06
8.4078836e-06
8.2739075e-06
8.1400888e-06
8.0064899e-06
7.8731726e-06
7.7401982e-06
7.6076272e-06
7.4755192e-06
7.3439334e-06
7.212928e-06
7.0825601e-06
6.9528859e-06
6.8239603e-06
6.6958372e-06
6.5685687e-06
6.4422059e-06
6.3167982e-06
6.1923935e-06
6.0690378e-06
5.9467756e-06
5.8256496e-06
5.7057007e-06
5.586968e-06
5.469489e-06
5.353299e-06
5.2384317e-06
5.1249188e-06
5.01279e-06
4.9020734e-06
4.792795e-06
4.6849792e-06
4.5786482e-06
4.4738223e-06
4.3705199e-06
4.2687577e-06
4.1685502e-06
4.0699105e-06
3.9728496e-06
3.8773767e-06
3.7834992e-06
3.6912226e-06
3.6005512e-06
3.5114873e-06
3.4240317e-06
3.3381837e-06
3.2539409e-06
3.1712997e-06
3.0902552e-06
3.0108008e-06
2.9329289e-06
2.8566306e-06
2.7818958e-06
2.7087136e-06
2.6370716e-06
2.5669568e-06
2.4983553e-06
2.4312521e-06
2.3656315e-06
2.3014771e-06
2.2387719e-06
2.1774982e-06
2.1176375e-06
2.059171e-06
2.0020798e-06
1.9463444e-06
1.8919453e-06
1.8388643e-06
1.7870859e-06
1.7366018e-06
1.6874229e-06
1.6396077e-06
1.5933355e-06
1.5490963e-06
1.508164e-06
1.4738539e-06
1.4547889e-06
1.4732273e-06
1.5873722e-06
1.9473148e-06
2.9281609e-06
5.403228e-06
1.1128777e-05
2.3180062e-05
4.5915684e-05
8.4109077e-05
0.00014227931
0.00022084183
0.00031792959
0.00042807974
0.00054605283
0.00066698608
0.00078726139
0.00090732545
0.0010256126
0.0011444834
0.0012604745
8.9441657e-06
8.8102048e-06
8.6761433e-06
8.5420465e-06
8.4079789e-06
8.2740045e-06
8.1401865e-06
8.0065875e-06
7.8732694e-06
7.7402936e-06
7.6077207e-06
7.4756105e-06
7.3440222e-06
7.2130141e-06
7.0826432e-06
6.952966e-06
6.8240372e-06
6.6959108e-06
6.568639e-06
6.4422728e-06
6.3168618e-06
6.1924536e-06
6.0690946e-06
5.9468292e-06
5.8256999e-06
5.7057479e-06
5.5870123e-06
5.4695305e-06
5.3533378e-06
5.238468e-06
5.1249527e-06
5.0128217e-06
4.9021031e-06
4.7928228e-06
4.6850053e-06
4.5786726e-06
4.4738452e-06
4.3705414e-06
4.2687779e-06
4.1685692e-06
4.0699284e-06
3.9728664e-06
3.8773925e-06
3.783514e-06
3.6912366e-06
3.6005643e-06
3.5114996e-06
3.4240433e-06
3.3381946e-06
3.2539511e-06
3.1713093e-06
3.0902641e-06
3.0108092e-06
2.9329367e-06
2.8566378e-06
2.7819026e-06
2.7087198e-06
2.6370774e-06
2.5669622e-06
2.4983602e-06
2.4312566e-06
2.3656357e-06
2.301481e-06
2.2387754e-06
2.1775013e-06
2.1176403e-06
2.0591734e-06
2.0020815e-06
1.9463448e-06
1.891943e-06
1.8388559e-06
1.7870629e-06
1.7365436e-06
1.6872787e-06
1.6392514e-06
1.5924521e-06
1.5468906e-06
1.5026267e-06
1.4598515e-06
1.4191076e-06
1.3818611e-06
1.3520764e-06
1.3404687e-06
1.3758613e-06
1.5361714e-06
2.0282495e-06
3.380038e-06
6.7935132e-06
1.4603443e-05
3.0713652e-05
5.9879039e-05
0.00010705554
0.00017513165
0.00026300804
0.00036689191
0.00048051276
0.00059971349
0.0007188523
0.00083980848
0.00095732145
8.9442439e-06
8.8102889e-06
8.6762325e-06
8.5421397e-06
8.4080751e-06
8.2741025e-06
8.1402854e-06
8.0066864e-06
7.8733676e-06
7.7403905e-06
7.6078158e-06
7.4757035e-06
7.3441127e-06
7.2131018e-06
7.0827281e-06
6.9530477e-06
6.8241158e-06
6.6959861e-06
6.5687109e-06
6.4423414e-06
6.3169269e-06
6.1925154e-06
6.069153e-06
5.9468842e-06
5.8257517e-06
5.7057966e-06
5.587058e-06
5.4695732e-06
5.3533779e-06
5.2385055e-06
5.1249877e-06
5.0128545e-06
4.9021337e-06
4.7928516e-06
4.6850322e-06
4.5786979e-06
4.4738689e-06
4.3705637e-06
4.2687988e-06
4.1685889e-06
4.0699469e-06
3.9728838e-06
3.8774089e-06
3.7835294e-06
3.6912511e-06
3.600578e-06
3.5115125e-06
3.4240554e-06
3.3382059e-06
3.2539617e-06
3.1713192e-06
3.0902734e-06
3.0108178e-06
2.9329448e-06
2.8566453e-06
2.7819095e-06
2.7087263e-06
2.6370834e-06
2.5669678e-06
2.4983654e-06
2.4312614e-06
2.3656401e-06
2.301485e-06
2.2387791e-06
2.1775047e-06
2.1176434e-06
2.0591762e-06
2.002084e-06
1.946347e-06
1.8919449e-06
1.8388572e-06
1.7870632e-06
1.7365419e-06
1.6872718e-06
1.6392321e-06
1.5924015e-06
1.5467602e-06
1.5022914e-06
1.458986e-06
1.4168573e-06
1.3759778e-06
1.3365832e-06
1.2993608e-06
1.2662376e-06
1.2426184e-06
1.243633e-06
1.3116987e-06
1.5648522e-06
2.3233443e-06
4.4003588e-06
9.5482771e-06
2.1006017e-05
4.345551e-05
8.1952934e-05
0.00014100702
0.00022052814
0.00031820722
0.00042753335
0.00054593842
0.00066447218
8.9443233e-06
8.810374e-06
8.6763225e-06
8.5422337e-06
8.408172e-06
8.2742013e-06
8.1403852e-06
8.0067863e-06
7.8734669e-06
7.7404886e-06
7.6079123e-06
7.4757979e-06
7.3442047e-06
7.2131911e-06
7.0828145e-06
6.9531311e-06
6.824196e-06
6.696063e-06
6.5687845e-06
6.4424115e-06
6.3169936e-06
6.1925786e-06
6.0692128e-06
5.9469406e-06
5.8258049e-06
5.7058466e-06
5.5871049e-06
5.4696172e-06
5.3534191e-06
5.238544e-06
5.1250238e-06
5.0128883e-06
4.9021654e-06
4.7928812e-06
4.68506e-06
4.5787239e-06
4.4738933e-06
4.3705866e-06
4.2688204e-06
4.1686092e-06
4.069966e-06
3.9729018e-06
3.8774258e-06
3.7835453e-06
3.691266e-06
3.600592e-06
3.5115257e-06
3.4240678e-06
3.3382175e-06
3.2539726e-06
3.1713294e-06
3.0902829e-06
3.0108267e-06
2.9329531e-06
2.8566531e-06
2.7819167e-06
2.708733e-06
2.6370896e-06
2.5669735e-06
2.4983706e-06
2.4312662e-06
2.3656445e-06