/*--------------------------------*- C++ -*----------------------------------*\
  =========                 |
  \\      /  F ield         | OpenFOAM: The Open Source CFD Toolbox
   \\    /   O peration     | Website:  https://openfoam.org
    \\  /    A nd           | Version:  12
     \\/     M anipulation  |
\*---------------------------------------------------------------------------*/
FoamFile
{
    format      ascii;
    class       volScalarField;
    location    "1800";
    object      p;
}
// * * * * * * * * * * * * * * * * * * * * * * * * * * * * * * * * * * * * * //

dimensions      [0 2 -2 0 0 0 0];

internalField   nonuniform List<scalar> 
7480
(
0.0087029887
0.0076577577
0.0065348288
0.0060134681
0.0056785632
0.0054210083
0.0052143037
0.0050264268
0.0048653783
0.0047320099
0.0046168407
0.0044994802
0.0043764906
0.0042516588
0.0041272588
0.004004447
0.0038853589
0.0037779836
0.0036787219
0.0035742348
0.0034679095
0.0033704502
0.0032846452
0.0032098353
0.003148161
0.0030948688
0.0030421895
0.0029946615
0.0029557207
0.0029236702
0.0028969664
0.0028765034
0.0028609511
0.0028424809
0.0028200608
0.002798171
0.0027779101
0.0027594065
0.0027442442
0.0027248672
0.0026965123
0.0026659692
0.0026375383
0.0026111151
0.002585073
0.0025542861
0.0025181191
0.0024815428
0.0024469743
0.002413795
0.0023761988
0.0023332621
0.0022906982
0.0022528393
0.002216276
0.0021754007
0.0021324091
0.0020917471
0.0020536281
0.0020133292
0.0019697187
0.0019280495
0.0018886454
0.0018476004
0.0018044386
0.0017637111
0.001723652
0.0016803651
0.0016368707
0.0015951103
0.0015520617
0.001506522
0.0014634031
0.001420278
0.0013734177
0.0013282855
0.0012838257
0.001235605
0.0011884134
0.0011420522
0.0010924792
0.0010439981
0.00099579373
0.00094423962
0.00089361163
0.00084288907
0.0007902896
0.00073805989
0.00068451663
0.00063110734
0.00057720342
0.00052185832
0.00046780914
0.0004129835
0.00036089351
0.00030637687
0.00027374792
0.00016257672
0.0003597792
-0.00031290808
0.0081894437
0.0072652234
0.0063846205
0.0059689348
0.0057516494
0.0055527643
0.0053547577
0.0051610614
0.0049888343
0.0048345652
0.0046947336
0.0045595971
0.0044246766
0.0042919367
0.0041624235
0.0040371481
0.0039186385
0.0038092374
0.0037072923
0.0036029116
0.003496533
0.0033988156
0.003312635
0.003237321
0.0031752448
0.003121338
0.0030676735
0.0030190371
0.0029787984
0.0029453253
0.0029171645
0.0028953021
0.0028784336
0.0028587306
0.0028352131
0.002812181
0.0027907276
0.0027711663
0.0027551552
0.0027349092
0.0027057055
0.0026744567
0.0026454115
0.002618462
0.0025919585
0.0025607086
0.0025241303
0.0024872695
0.002452496
0.0024191078
0.0023812672
0.0023380973
0.0022953434
0.0022573224
0.0022205901
0.0021795446
0.0021364042
0.0020956036
0.002057343
0.0020168882
0.0019731243
0.0019313186
0.0018917762
0.0018505862
0.0018072853
0.0017664344
0.0017262515
0.0016828421
0.0016392392
0.0015973759
0.0015542226
0.0015085835
0.0014653746
0.001422156
0.0013752057
0.0013299955
0.0012854581
0.0012371618
0.0011899032
0.0011434746
0.0010938352
0.0010452942
0.00099703073
0.00094542035
0.0008947417
0.00084396896
0.00079132103
0.00073904568
0.00068545864
0.00063200868
0.00057806549
0.00052268295
0.00046859869
0.00041373847
0.00036161958
0.00030706757
0.00027437369
0.0001638606
0.00036281024
-0.0003103885
0.0078841732
0.0072286745
0.0065013775
0.0060652247
0.0058172019
0.005575576
0.0053426193
0.0051309198
0.0049499716
0.0047937816
0.0046545495
0.0045249659
0.0043974328
0.0042722105
0.0041495291
0.0040305766
0.0039182207
0.0038118989
0.0037110755
0.0036098792
0.0035074197
0.0034129408
0.0033295156
0.003256329
0.0031957839
0.0031421415
0.0030880674
0.0030390296
0.0029982747
0.0029642027
0.00293546
0.0029132203
0.0028953061
0.0028739191
0.0028492589
0.0028253148
0.0028029214
0.0027825629
0.0027661021
0.0027453344
0.002715477
0.0026836745
0.0026540676
0.0026266421
0.0025997433
0.0025680347
0.0025307542
0.0024931966
0.0024580591
0.0024244486
0.0023863592
0.0023429587
0.0023000428
0.0022619098
0.0022250419
0.0021838241
0.002140538
0.0020996151
0.0020612305
0.0020206258
0.0019767119
0.0019347873
0.0018951234
0.0018537966
0.0018103628
0.0017694055
0.0017291086
0.0016855748
0.0016418652
0.001599903
0.0015566437
0.0015109015
0.0014676061
0.001424293
0.001377247
0.0013319589
0.001287341
0.0012389625
0.0011916353
0.0011451361
0.0010954236
0.0010468197
0.00099849264
0.00094681931
0.00089608642
0.00084525875
0.00079255693
0.00074023134
0.00068659479
0.00063309954
0.00057911212
0.00052368688
0.00046956307
0.00041466275
0.00036251067
0.00030791722
0.00027515822
0.00016602942
0.00036822611
-0.00030627759
0.0076649648
0.0071474688
0.0064767873
0.0060253623
0.0057683539
0.0055386876
0.005317795
0.0051225934
0.0049542023
0.0048072153
0.0046707829
0.0045422422
0.0044146136
0.0042879686
0.0041642038
0.0040442264
0.0039297607
0.0038208109
0.0037177871
0.0036162655
0.0035145299
0.0034202376
0.0033367997
0.0032634604
0.003201451
0.0031457218
0.0030912748
0.0030427602
0.0030026433
0.0029695578
0.0029420921
0.0029214013
0.0029042109
0.0028827494
0.0028583616
0.0028348449
0.002812752
0.0027918566
0.0027745955
0.0027532718
0.0027228439
0.0026907371
0.002660852
0.0026332445
0.0026062826
0.0025743308
0.0025364458
0.0024983011
0.0024629437
0.0024292883
0.0023910612
0.0023474782
0.0023044385
0.0022662491
0.0022292286
0.0021876811
0.0021441439
0.0021031252
0.0020646802
0.002023976
0.0019799504
0.0019379556
0.0018982184
0.0018567909
0.0018132506
0.0017722096
0.0017318112
0.0016881633
0.0016443601
0.0016023151
0.0015589605
0.0015131229
0.0014697555
0.0014263596
0.001379224
0.0013338678
0.0012891758
0.0012407168
0.0011933271
0.0011467625
0.0010969791
0.0010483177
0.0009999307
0.00094819548
0.00089741163
0.00084653137
0.00079377723
0.00074140346
0.00068771835
0.00063417958
0.00058014913
0.00052468188
0.00047051948
0.00041557938
0.00036339342
0.00030876303
0.00027594274
0.00016880378
0.00037520086
-0.00030140472
0.0074585631
0.0070291281
0.0064374795
0.006015754
0.0057672756
0.0055527456
0.0053362004
0.0051414234
0.0049702683
0.0048182983
0.0046768395
0.0045441255
0.0044143435
0.0042866055
0.0041635422
0.0040450233
0.0039313963
0.0038232465
0.0037209997
0.0036210864
0.0035214345
0.0034282218
0.0033451065
0.0032716554
0.0032083483
0.0031515226
0.0030974327
0.0030491436
0.0030085788
0.0029748892
0.0029467598
0.0029248407
0.0029056889
0.0028833427
0.0028590907
0.0028361622
0.0028149621
0.0027947061
0.0027781158
0.0027577121
0.0027278484
0.0026964029
0.0026666095
0.0026384384
0.0026111367
0.0025789334
0.0025407662
0.0025025745
0.002467315
0.002433793
0.0023955236
0.0023517299
0.0023085244
0.0022703001
0.002233182
0.0021913343
0.0021475644
0.0021064664
0.0020679871
0.002027208
0.0019830902
0.0019410635
0.0019012934
0.0018597886
0.0018161415
0.0017749611
0.0017344134
0.0016906668
0.0016467979
0.0016046987
0.0015612704
0.001515354
0.0014719362
0.0014284673
0.0013812388
0.0013358199
0.0012910583
0.0012425186
0.0011950699
0.0011484424
0.0010985886
0.0010498734
0.0010014276
0.0009496282
0.00089879304
0.00084785919
0.0007950515
0.00074262933
0.00068889428
0.00063531103
0.00058123604
0.00052572486
0.00047152239
0.00041654077
0.00036431799
0.0003096539
0.00027675664
0.00017198334
0.00038303831
-0.00029604064
0.0072675419
0.0069107358
0.0064012329
0.0060095525
0.0057598193
0.0055462008
0.0053307615
0.0051357051
0.0049649887
0.0048133599
0.0046735329
0.0045423553
0.0044146386
0.0042892907
0.0041682343
0.0040512107
0.0039385466
0.0038310585
0.0037289631
0.0036294158
0.0035306962
0.003437898
0.0033547243
0.0032810276
0.0032169655
0.0031595915
0.003105577
0.0030570601
0.0030157974
0.0029812477
0.0029522063
0.0029289388
0.0029082068
0.0028854508
0.0028611975
0.0028380455
0.0028164392
0.0027958268
0.0027781996
0.0027571435
0.002727546
0.0026967098
0.002667412
0.002639703
0.0026132853
0.0025819612
0.0025443769
0.0025067528
0.0024713237
0.0024373072
0.0023988584
0.0023549306
0.0023117465
0.002273705
0.0022366952
0.0021948044
0.002150935
0.002109736
0.0020712202
0.0020303981
0.001986195
0.0019441268
0.0019043047
0.0018627069
0.0018189513
0.0017776457
0.0017369751
0.0016931446
0.0016492234
0.0016070903
0.0015636112
0.0015176358
0.0014741903
0.0014306234
0.0013832557
0.0013377776
0.0012929645
0.0012443568
0.0011968641
0.0011501865
0.0011002662
0.0010514975
0.0010029941
0.00095113011
0.00090024534
0.00084925858
0.00079639792
0.00074392856
0.00069014268
0.00063651383
0.00058239257
0.0005268355
0.0004725918
0.00041756719
0.0003653044
0.00031060947
0.00027760987
0.00017545645
0.00039122058
-0.00029016526
0.0070928931
0.0067945039
0.00635651
0.0059932585
0.0057442907
0.0055345193
0.0053268523
0.0051361923
0.0049684718
0.0048180255
0.0046790516
0.0045475324
0.0044200624
0.0042951484
0.004174179
0.0040571797
0.0039446507
0.0038372532
0.0037350059
0.0036357233
0.0035380345
0.0034459922
0.0033630941
0.0032894254
0.0032248792
0.0031670294
0.0031129418
0.0030641332
0.003022326
0.0029871816
0.0029575369
0.0029333316
0.0029117578
0.0028887839
0.0028644044
0.002840858
0.0028187651
0.0027976305
0.0027788074
0.0027571108
0.002727812
0.0026970429
0.0026676091
0.0026397664
0.0026129507
0.002581503
0.0025443185
0.0025073713
0.0024723328
0.0024387412
0.0024009902
0.0023576268
0.0023150259
0.0022770679
0.0022395571
0.0021973335
0.0021534183
0.0021123186
0.0020739924
0.0020332511
0.001989032
0.0019469198
0.0019070234
0.0018653619
0.0018215654
0.001780245
0.0017395177
0.0016955883
0.0016516134
0.0016094515
0.0015659251
0.0015198858
0.0014764137
0.0014327475
0.0013852501
0.0013397329
0.0012948821
0.0012462154
0.0011986952
0.0011519846
0.0011019806
0.0010531304
0.0010045696
0.00095265192
0.00090172998
0.00085070027
0.00079779167
0.00074527516
0.00069143827
0.00063776545
0.0005835988
0.00052799634
0.00047371264
0.00041864505
0.0003663398
0.00031161772
0.00027849073
0.00017915578
0.00039935206
-0.00028370812
0.0069328743
0.0066805458
0.0063040059
0.0059708663
0.0057274162
0.0055228123
0.0053226187
0.0051355289
0.0049689036
0.0048187141
0.0046796273
0.0045476525
0.0044205788
0.004296799
0.0041767855
0.0040607369
0.0039491886
0.0038425707
0.0037408066
0.0036422461
0.0035458005
0.003454669
0.0033721004
0.0032984244
0.0032333942
0.0031750133
0.003120756
0.0030716789
0.0030293754
0.0029936183
0.0029632899
0.0029380943
0.0029155891
0.0028921225
0.0028674064
0.0028434508
0.0028209738
0.0027994878
0.0027799323
0.0027578964
0.0027289473
0.0026982495
0.0026686659
0.002640465
0.002612976
0.002581264
0.0025442877
0.0025074085
0.0024723
0.0024384225
0.0024006703
0.0023578189
0.002315999
0.0022785315
0.0022411859
0.0021991734
0.0021556851
0.0021150861
0.0020767357
0.0020354295
0.0019909885
0.0019489488
0.0019091958
0.0018676489
0.0018238966
0.0017826237
0.0017418282
0.0016978237
0.0016538725
0.0016117172
0.0015681225
0.0015219925
0.0014785031
0.0014347896
0.0013872263
0.0013416892
0.0012967947
0.0012480632
0.0012005218
0.0011537814
0.0011036881
0.0010547631
0.0010061565
0.00095419368
0.00090324479
0.00085218295
0.00079921712
0.00074663222
0.00069274175
0.00063903487
0.00058483174
0.00052918978
0.0004748675
0.00041975562
0.00036740728
0.00031266372
0.00027938815
0.00018303324
0.00040710243
-0.00027661633
0.0067857453
0.0065699959
0.0062461907
0.0059435504
0.0057083232
0.0055086198
0.0053151003
0.0051320987
0.0049673575
0.0048184115
0.0046801793
0.0045490211
0.0044228092
0.0043002717
0.0041812144
0.0040660592
0.0039552774
0.0038491747
0.0037476783
0.0036495694
0.0035540164
0.0034635653
0.0033811846
0.0033074
0.0032418909
0.0031829885
0.0031285281
0.0030791908
0.0030363878
0.0029999873
0.0029689458
0.0029427947
0.0029193759
0.0028954029
0.0028704047
0.0028461261
0.0028232969
0.0028014495
0.0027811783
0.002758703
0.0027299713
0.0026992985
0.0026696122
0.002641194
0.0026133189
0.0025816016
0.0025449538
0.002508139
0.0024728715
0.0024385254
0.002400618
0.002358022
0.0023163737
0.0022786106
0.0022409647
0.0021991301
0.0021562669
0.0021164742
0.002078436
0.0020369284
0.0019926755
0.0019510461
0.0019115702
0.001869697
0.0018255102
0.0017842768
0.0017435826
0.0016996886
0.0016558548
0.0016137648
0.0015700919
0.0015238993
0.0014804748
0.0014367558
0.0013891161
0.0013435552
0.0012986332
0.0012498439
0.0012022843
0.0011555066
0.0011053465
0.0010563976
0.0010077627
0.0009557483
0.00090477008
0.00085367759
0.00080065287
0.00074800138
0.00069406268
0.00064033019
0.00058609847
0.00053041722
0.00047603995
0.0004208734
0.00036848727
0.00031373468
0.00028029545
0.00018704602
0.00041416412
-0.00026885103
0.0066497595
0.0064634475
0.0061845237
0.0059113425
0.0056862937
0.0054919309
0.0053051265
0.0051271329
0.0049650154
0.0048176088
0.0046803687
0.004549947
0.0044244508
0.004302745
0.0041845373
0.0040702321
0.003960207
0.0038546969
0.0037536354
0.003656118
0.0035615255
0.003471888
0.0033898597
0.0033161001
0.0032502675
0.0031909519
0.0031363098
0.0030867394
0.0030434642
0.0030064383
0.0029746991
0.0029476423
0.0029233393
0.0028988473
0.0028735532
0.0028489299
0.0028257028
0.0028034468
0.0027824751
0.0027595466
0.0027309945
0.0027003798
0.0026706126
0.0026419908
0.0026137413
0.0025819851
0.0025456046
0.002508836
0.0024734544
0.0024388544
0.0024010272
0.0023587726
0.0023172199
0.0022791187
0.002241148
0.0021994007
0.002156727
0.0021168697
0.0020783807
0.0020367633
0.001993076
0.0019522055
0.0019132977
0.0018712219
0.0018268962
0.0017859626
0.0017455666
0.0017014516
0.0016572232
0.001615151
0.0015715612
0.0015254893
0.0014822161
0.0014385261
0.0013907945
0.0013452594
0.0013003823
0.0012515489
0.0012039603
0.0011571497
0.0011069442
0.0010579917
0.0010093304
0.00095726013
0.00090625741
0.00085513617
0.00080206834
0.00074938213
0.00069540769
0.00064164835
0.00058738456
0.00053166147
0.00047722828
0.0004220106
0.00036958923
0.00031484034
0.00028121538
0.0001911448
0.00042021926
-0.00026037211
0.0065234737
0.0063611742
0.0061202257
0.0058747287
0.005661395
0.0054731319
0.0052930464
0.0051204807
0.0049613704
0.0048156621
0.0046795867
0.004550103
0.0044255177
0.0043048301
0.0041877128
0.0040744377
0.0039653091
0.003860521
0.0037600171
0.0036631371
0.0035694492
0.0034805884
0.0033988984
0.0033251318
0.0032589736
0.0031992287
0.0031443373
0.0030944902
0.0030507243
0.0030130546
0.0029805955
0.0029526416
0.0029274545
0.0029024058
0.0028767774
0.0028517888
0.0028281478
0.0028054727
0.0027838449
0.0027604745
0.0027320621
0.0027015102
0.0026716485
0.0026428089
0.0026141929
0.0025823757
0.0025462346
0.0025095229
0.0024740477
0.002439228
0.0024014417
0.0023595044
0.0023180444
0.0022797416
0.0022416678
0.0022001211
0.0021575689
0.0021175309
0.0020786474
0.0020370241
0.0019935673
0.001952675
0.0019134157
0.0018710957
0.0018272519
0.0017870472
0.001747172
0.0017028758
0.001658444
0.0016165796
0.0015732089
0.0015269801
0.0014834287
0.0014397339
0.0013920541
0.0013467023
0.0013019205
0.0012530569
0.0012054657
0.0011586889
0.0011084765
0.0010595121
0.0010108187
0.00095870998
0.00090770021
0.00085655007
0.00080344286
0.00075073742
0.00069673617
0.00064294931
0.0005886505
0.00053289175
0.00047842687
0.00042317462
0.00037071276
0.00031597135
0.00028213713
0.00019528236
0.00042497442
-0.00025111582
0.0064056999
0.0062632191
0.0060543121
0.0058343213
0.0056336961
0.0054522724
0.0052788613
0.0051119592
0.0049562889
0.0048126111
0.0046779969
0.0045497148
0.0044262282
0.0043066608
0.0041906703
0.00407842
0.0039701745
0.0038661097
0.003766188
0.0036699434
0.0035771026
0.0034889969
0.0034076721
0.0033339326
0.0032675141
0.0032073987
0.0031522684
0.0031021637
0.0030579407
0.0030196517
0.0029864868
0.0029576731
0.0029316315
0.0029060171
0.0028800407
0.0028546893
0.0028306348
0.0028075342
0.0027852842
0.0027614729
0.0027331504
0.0027026552
0.0026726912
0.0026436338
0.0026146762
0.0025827925
0.0025468754
0.002510232
0.0024746673
0.0024396339
0.0024018699
0.0023602289
0.002318867
0.0022803917
0.0022422025
0.0022008191
0.0021583837
0.0021182205
0.002079195
0.0020377052
0.0019943919
0.0019533323
0.001913719
0.0018713596
0.0018277564
0.0017874569
0.0017472219
0.0017028428
0.0016589107
0.0016177151
0.001574662
0.0015282818
0.0014845816
0.0014410015
0.0013934119
0.0013479598
0.0013029574
0.0012541035
0.0012066707
0.0011600211
0.0011098221
0.0010608576
0.0010121801
0.00096008769
0.00090908123
0.00085789459
0.00080476404
0.00075205372
0.00069802494
0.00064421285
0.00058988702
0.00053410007
0.00047961161
0.00042433044
0.00037182764
0.00031709626
0.00028303748
0.00019940269
0.00042810745
-0.00024110143
0.0062954269
0.0061694753
0.0059875877
0.0057907407
0.0056033014
0.0054293842
0.0052626665
0.0051015983
0.0049497834
0.0048084767
0.004675571
0.0045486864
0.0044264362
0.0043080653
0.0041932479
0.0040820762
0.0039747798
0.0038715185
0.0037722741
0.0036767309
0.0035847426
0.003497406
0.0034164923
0.0033428226
0.0032761976
0.0032157515
0.003160373
0.00311
0.0030653222
0.0030264117
0.0029925322
0.0029628719
0.0029359853
0.0029097808
0.0028834259
0.0028576963
0.0028332128
0.0028096676
0.0027868155
0.002762561
0.0027342814
0.0027038361
0.0026737664
0.0026444921
0.0026152117
0.0025832501
0.0025475331
0.0025109582
0.0024753027
0.0024400668
0.0024023207
0.0023609624
0.0023197073
0.0022810714
0.0022427595
0.0022015231
0.0021592057
0.0021189385
0.002079779
0.0020383682
0.0019951831
0.0019540123
0.0019142537
0.0018720272
0.0018285399
0.0017879747
0.0017474287
0.0017031294
0.0016593469
0.0016180281
0.0015746728
0.0015284519
0.0014853063
0.0014421597
0.0013947085
0.0013491296
0.0013039845
0.0012552263
0.0012078529
0.001161029
0.0011107307
0.0010618839
0.0010133392
0.00096128813
0.00091029489
0.00085911265
0.00080601847
0.00075331374
0.00069924457
0.00064542622
0.00059109148
0.00053527648
0.00048076424
0.00042545977
0.00037292062
0.00031820541
0.00028390316
0.00020343954
0.00042926046
-0.00023047904
0.0061917878
0.0060797556
0.0059206745
0.0057445884
0.0055703866
0.0054045236
0.0052445682
0.0050894346
0.004941812
0.0048031965
0.0046722349
0.0045469446
0.0044260907
0.0043090272
0.0041954628
0.0040854427
0.0039791608
0.0038767649
0.0037782612
0.0036834532
0.0035922979
0.0035057139
0.0034252276
0.0033516513
0.0032848564
0.0032241107
0.0031684791
0.0031178317
0.0030727095
0.0030331882
0.0029986006
0.002968118
0.002940408
0.0029136032
0.0028868512
0.0028607375
0.0028358204
0.0028118235
0.0027883958
0.0027637055
0.0027354318
0.0027050303
0.0026748543
0.0026453644
0.0026157786
0.0025837307
0.0025481927
0.0025116893
0.0024759477
0.002440525
0.0024027936
0.0023617012
0.002320556
0.0022817704
0.0022433383
0.0022022401
0.0021600429
0.002119681
0.0020803823
0.0020390343
0.0019959801
0.0019547208
0.0019148265
0.001872691
0.0018292901
0.0017885297
0.0017478935
0.0017037763
0.001659984
0.0016183975
0.0015748556
0.0015288075
0.0014856356
0.0014422583
0.0013948642
0.0013496188
0.0013048896
0.0012563608
0.0012090123
0.0011620058
0.0011116631
0.0010629557
0.0010143159
0.00096209951
0.00091119342
0.0008601414
0.00080711111
0.00075441633
0.00070034093
0.0006465751
0.00059224414
0.00053639298
0.00048187235
0.00042655526
0.00037397885
0.00031928918
0.00028472355
0.00020733673
0.00042820288
-0.00021939783
0.0060940389
0.005993832
0.0058540398
0.0056964221
0.0055351782
0.0053777608
0.0052246562
0.0050755091
0.0049323462
0.0047967303
0.0046679546
0.0045444569
0.004425161
0.0043095187
0.0041972847
0.0040884798
0.0039832692
0.0038817964
0.0037840949
0.0036900637
0.0035997414
0.0035139103
0.0034338821
0.0033604405
0.0032935252
0.0032325232
0.0031766482
0.0031257291
0.0030801764
0.0030400579
0.0030047698
0.0029734848
0.0029449687
0.0029175519
0.0028903802
0.0028638703
0.002838511
0.0028140519
0.0027900663
0.0027649429
0.0027366359
0.0027062643
0.0026759781
0.0026462713
0.0026163941
0.0025842517
0.0025488713
0.0025124393
0.0024766154
0.0024410182
0.0024032956
0.0023624503
0.0023214169
0.0022824944
0.0022439457
0.0022029736
0.0021608942
0.0021204442
0.0020810093
0.0020397197
0.0019967959
0.0019554561
0.0019154205
0.0018733557
0.0018300425
0.0017891182
0.0017483917
0.0017044204
0.0016606065
0.0016188419
0.0015753368
0.001529438
0.0014860594
0.0014424582
0.0013951613
0.0013498942
0.0013050352
0.0012565226
0.0012094465
0.0011627667
0.0011126296
0.0010640642
0.0010152564
0.00096290525
0.00091215771
0.00086105592
0.00080785732
0.0007552237
0.00070126237
0.00064757375
0.00059325095
0.00053740007
0.00048292027
0.0004275965
0.00037497925
0.00032033598
0.00028548557
0.00021103508
0.00042489986
-0.00020795792
0.0060015398
0.0059114597
0.0057880254
0.0056467409
0.0054979349
0.0053491846
0.0052030149
0.0050598783
0.004921381
0.0047890494
0.0046626974
0.0045411825
0.0044236005
0.0043094947
0.0041986733
0.0040911525
0.003987078
0.0038865929
0.0037897586
0.0036965495
0.003607068
0.0035219916
0.0034424472
0.0033691768
0.0033021833
0.0032409607
0.0031848495
0.0031336568
0.0030876825
0.0030469779
0.0030109965
0.0029789268
0.0029496215
0.0029215843
0.0028939726
0.0028670561
0.0028412484
0.0028163205
0.0027917942
0.0027662434
0.0027378697
0.0027075148
0.0026771173
0.0026471957
0.0026170419
0.0025847998
0.0025495571
0.0025131965
0.0024772953
0.0024415359
0.0024038185
0.0023632038
0.0023222847
0.0022832388
0.0022445774
0.0022037196
0.0021617556
0.0021212263
0.0020816609
0.0020404232
0.0019976236
0.0019562092
0.001916035
0.0018740351
0.0018308128
0.001789735
0.0017489054
0.0017050602
0.0016612347
0.0016193189
0.0015758445
0.0015300627
0.0014865166
0.0014428499
0.001395709
0.0013503111
0.001305267
0.0012567893
0.0012096873
0.001162906
0.001112815
0.0010645104
0.0010159278
0.00096376084
0.00091319146
0.00086192726
0.00080858538
0.00075609013
0.00070208636
0.00064826258
0.00059399592
0.00053824976
0.00048382753
0.00042850547
0.00037588548
0.00032132588
0.00028616362
0.00021447329
0.00041948608
-0.00019623232
0.0059137371
0.0058323916
0.0057228741
0.005595979
0.0054589307
0.005318905
0.0051797285
0.0050426074
0.0049089269
0.0047801309
0.0046564308
0.0045370823
0.0044213668
0.0043089167
0.0041995969
0.0040934338
0.0039905629
0.0038911306
0.0037952251
0.0037028821
0.0036142531
0.0035299357
0.0034508999
0.0033778389
0.0033108105
0.0032494054
0.0031930723
0.0031416104
0.0030952272
0.0030539524
0.0030172903
0.0029844559
0.0029543802
0.0029257183
0.002897649
0.0028703154
0.0028440542
0.0028186517
0.0027935991
0.0027676258
0.0027391544
0.0027087997
0.0026782889
0.0026481534
0.0026177347
0.0025853875
0.0025502622
0.0025139705
0.0024779966
0.0024420863
0.00240437
0.0023639692
0.0023231651
0.0022840083
0.0022452376
0.0022044825
0.0021626311
0.0021220306
0.0020823396
0.002041146
0.0019984643
0.0019569832
0.0019166753
0.0018747324
0.001831597
0.0017903728
0.0017494373
0.0017057118
0.001661885
0.0016198222
0.0015763599
0.0015306824
0.0014869925
0.0014432647
0.0013962703
0.001350757
0.0013056259
0.0012572652
0.0012100691
0.0011631395
0.0011130836
0.0010647141
0.001016022
0.00096398082
0.00091367769
0.00086254651
0.00080938417
0.00075703822
0.0007028645
0.00064893533
0.00059477729
0.0005389877
0.00048445951
0.00042919604
0.00037664906
0.00032218141
0.00028670105
0.00021760521
0.00041216032
-0.00018427241
0.005830151
0.0057563883
0.0056587527
0.005544506
0.0054184411
0.0052870517
0.0051548841
0.0050237665
0.0048950075
0.0047699607
0.0046491272
0.0045321225
0.0044184219
0.0043077477
0.004200022
0.0040952926
0.0039936947
0.0038953806
0.0038004648
0.0037090332
0.0036212751
0.0035377261
0.0034592251
0.003386413
0.0033193933
0.0032578438
0.003201306
0.0031495811
0.0031028014
0.0030609724
0.003023643
0.0029900624
0.0029592336
0.0029299437
0.0029013998
0.0028736379
0.0028469178
0.0028210361
0.0027954692
0.0027690785
0.0027404813
0.0027101095
0.0026794831
0.0026491354
0.0026184632
0.0025860066
0.0025509801
0.0025147546
0.0024787132
0.002442663
0.0024049452
0.0023647424
0.0023240535
0.0022847983
0.0022459227
0.0022052597
0.0021635179
0.0021228546
0.0020830433
0.0020418867
0.0019993172
0.0019577773
0.0019173404
0.0018754455
0.0018323929
0.001791032
0.0017499906
0.0017063762
0.0016625515
0.0016203443
0.0015768869
0.0015313139
0.0014874928
0.0014436951
0.0013968304
0.0013512115
0.001306001
0.0012577641
0.0012104845
0.0011634809
0.0011135218
0.0010650332
0.001016222
0.00096423338
0.00091386251
0.00086263772
0.00080965834
0.00075755643
0.00070345368
0.00064969811
0.00059562585
0.0005396831
0.00048508619
0.00042988725
0.0003772641
0.0003228003
0.00028705051
0.00022040126
0.00040305512
-0.00017206735
0.0057503647
0.005683223
0.0055957704
0.0054926304
0.0053767321
0.0052537693
0.0051285741
0.00500343
0.0048796577
0.0047585351
0.0046407649
0.0045262732
0.0044147303
0.0043059511
0.0041999145
0.0040966978
0.0039964438
0.0038993147
0.0038054497
0.003714976
0.003628112
0.0035453448
0.0034674049
0.0033948811
0.0033279134
0.0032662574
0.0032095353
0.0031575566
0.003110394
0.0030680287
0.0030300479
0.0029957407
0.0029641769
0.0029342588
0.0029052264
0.002877026
0.0028498429
0.0028234792
0.0027974087
0.0027706058
0.0027418579
0.0027114507
0.0026807061
0.0026501484
0.0026192325
0.0025866631
0.0025517172
0.0025155538
0.0024794501
0.0024432701
0.0024055482
0.0023655277
0.0023249533
0.0022856116
0.0022466359
0.0022060544
0.0021644185
0.0021237002
0.0020837739
0.0020426476
0.0020001841
0.0019585925
0.0019180313
0.0018761758
0.001833202
0.0017917143
0.0017505666
0.001707053
0.0016632334
0.0016208873
0.00157743
0.0015319574
0.0014880125
0.00144414
0.0013973983
0.0013516856
0.0013063935
0.001258266
0.0012109054
0.001163833
0.0011139837
0.0010653963
0.0010165333
0.00096462911
0.00091413498
0.00086283381
0.00080987382
0.00075770334
0.00070357683
0.00065004947
0.00059614579
0.00054027702
0.0004858035
0.00043060646
0.00037783988
0.00032343968
0.00028733641
0.00022283988
0.00039228568
-0.00015949189
0.005674015
0.0056126842
0.0055339927
0.0054406059
0.0053340527
0.0052192126
0.0051008971
0.0049816755
0.004862922
0.0047458604
0.0046313283
0.0045195086
0.00441026
0.0043034925
0.0041992414
0.0040976182
0.0039987808
0.003902904
0.0038101506
0.0037206822
0.0036347395
0.0035527719
0.0034754205
0.0034032247
0.0033363526
0.0032746287
0.0032177455
0.0031655255
0.0031179952
0.0030751128
0.0030364988
0.0030014849
0.0029692042
0.0029386597
0.0029091266
0.0028804778
0.0028528279
0.0028259802
0.0027994152
0.0027722045
0.0027432834
0.0027128219
0.0026819558
0.0026511905
0.0026200396
0.0025873544
0.0025524721
0.0025163658
0.0024802048
0.0024439049
0.0024061766
0.0023663238
0.0023258623
0.0022864459
0.0022473751
0.0022068655
0.0021653314
0.0021245657
0.0020845301
0.002043428
0.0020010644
0.0019594279
0.0019187473
0.0018769232
0.0018340242
0.001792419
0.001751165
0.0017077422
0.0016639309
0.001621452
0.0015779892
0.0015326115
0.0014885508
0.0014446014
0.0013979756
0.0013521772
0.0013068007
0.0012587749
0.0012113421
0.0011642011
0.0011144501
0.0010657656
0.0010168524
0.00096504692
0.00091446269
0.00086314226
0.00081020466
0.00075792668
0.00070377996
0.00065021327
0.0005962316
0.00054048346
0.00048622026
0.00043110468
0.00037839239
0.00032414481
0.00028757137
0.00022506516
0.00038045379
-0.00014647048
0.0056007847
0.0055445771
0.0054734535
0.0053886381
0.0052906306
0.0051835408
0.0050719579
0.004958584
0.0048448522
0.0047319526
0.0046208087
0.0045118077
0.0044049827
0.0043003398
0.0041979704
0.0040980229
0.0040006756
0.0039061189
0.003814538
0.0037261232
0.0036411328
0.0035599864
0.0034832523
0.0034114244
0.0033446918
0.0032829393
0.0032259208
0.0031734751
0.0031255938
0.0030822148
0.0030429876
0.0030072877
0.0029743086
0.0029431414
0.002913098
0.0028839916
0.0028558718
0.0028285394
0.002801488
0.0027738739
0.0027447599
0.0027142253
0.0026832337
0.0026522634
0.0026208855
0.0025880821
0.0025532473
0.0025171925
0.0024809792
0.0024445686
0.0024068323
0.0023671329
0.002326782
0.0022873021
0.0022481416
0.0022076948
0.002166258
0.0021254521
0.0020853132
0.0020442292
0.0020019591
0.0019602841
0.0019194894
0.0018776891
0.0018348601
0.0017931465
0.0017517865
0.0017084447
0.0016646445
0.0016220389
0.0015785649
0.0015332764
0.0014891084
0.0014450804
0.0013985623
0.0013526856
0.0013072234
0.0012592927
0.0012117946
0.001164583
0.0011149235
0.0010661491
0.0010171843
0.00096547001
0.00091479661
0.0008634662
0.00081056034
0.00075821063
0.0007040921
0.00065045768
0.00059640201
0.00054066522
0.00048633774
0.00043120806
0.00037864988
0.00032459632
0.00028765055
0.00022709342
0.0003683301
-0.00013350453
0.0055303958
0.0054787235
0.0054141633
0.0053368914
0.0052466694
0.0051469126
0.0050418666
0.0049342397
0.0048255064
0.0047168364
0.0046092048
0.0045031545
0.0043988737
0.0042964635
0.0041960707
0.0040978814
0.0040020982
0.0039089295
0.0038185818
0.0037312701
0.0036472662
0.0035669662
0.0034908799
0.0034194601
0.0033529111
0.0032911697
0.0032340443
0.0031813913
0.0031331777
0.0030893242
0.0030495055
0.0030131416
0.0029794829
0.0029476989
0.0029171376
0.0028875659
0.0028589736
0.0028311568
0.0028036263
0.0027756126
0.0027462881
0.0027156617
0.00268454
0.0026533673
0.0026217697
0.0025888457
0.0025540435
0.002518034
0.0024817727
0.0024452603
0.0024075144
0.002367955
0.0023277119
0.0022881791
0.0022489346
0.002208542
0.0021671978
0.0021263586
0.0020861224
0.0020450511
0.0020028682
0.0019611604
0.0019202572
0.0018784735
0.0018357099
0.0017938963
0.0017524315
0.001709161
0.0016653741
0.0016226478
0.0015791576
0.0015339526
0.0014896855
0.0014455774
0.0013991584
0.0013532107
0.0013076625
0.0012598198
0.0012122621
0.0011649789
0.001115405
0.0010665472
0.0010175285
0.00096590024
0.00091514363
0.00086379935
0.0008109195
0.00075850012
0.00070442644
0.00065074189
0.00059665037
0.00054093934
0.00048651806
0.00043135675
0.0003787258
0.00032469013
0.00028739142
0.00022870683
0.00035639977
-0.00012137876
0.0054626044
0.0054149611
0.0053561163
0.0052854958
0.0052023486
0.0051094824
0.005010737
0.0049087298
0.0048049477
0.0047005444
0.0045965225
0.0044935385
0.004391913
0.0042918374
0.0041935132
0.0040971639
0.0040030187
0.0039113058
0.003822252
0.0037360935
0.0036531132
0.0035736884
0.0034982818
0.0034273109
0.0033609898
0.0032993002
0.0032420983
0.0031892595
0.0031407341
0.0030964297
0.0030560432
0.0030190379
0.0029847194
0.0029523261
0.002921242
0.0028911981
0.0028621316
0.0028338315
0.0028058286
0.002777419
0.0027478684
0.0027171321
0.0026858753