/*--------------------------------*- C++ -*----------------------------------*\
  =========                 |
  \\      /  F ield         | OpenFOAM: The Open Source CFD Toolbox
   \\    /   O peration     | Website:  https://openfoam.org
    \\  /    A nd           | Version:  12
     \\/     M anipulation  |
\*---------------------------------------------------------------------------*/
FoamFile
{
    format      ascii;
    class       surfaceScalarField;
    location    "1800";
    object      phi;
}
// * * * * * * * * * * * * * * * * * * * * * * * * * * * * * * * * * * * * * //

dimensions      [0 3 -1 0 0 0 0];

internalField   nonuniform List<scalar> 
14782
(
0.00078250448
8.8480442e-06
-0.00079135253
0.00077194251
1.0561968e-05
0.00076079187
1.1150641e-05
0.00074960034
1.1191534e-05
0.00073861651
1.098383e-05
0.00072802218
1.0594327e-05
0.00071784721
1.0174973e-05
0.00070803248
9.8147326e-06
0.00069851128
9.5211951e-06
0.00068916623
9.345053e-06
0.00067988611
9.2801145e-06
0.00067061485
9.271263e-06
0.00066134137
9.2734832e-06
0.00065207863
9.262732e-06
0.00064285324
9.2253975e-06
0.00063371168
9.1415553e-06
0.00062473838
8.9733035e-06
0.00061595146
8.7869139e-06
0.00060737639
8.5750797e-06
0.00059910193
8.2744556e-06
0.00059117502
7.9269055e-06
0.00058364455
7.5304725e-06
0.00057655273
7.0918246e-06
0.00056993249
6.6202359e-06
0.00056382004
6.1124468e-06
0.00055823878
5.5812627e-06
0.00055318131
5.0574697e-06
0.00054863352
4.5477882e-06
0.00054457243
4.0610904e-06
0.00054096411
3.608322e-06
0.00053776817
3.1959431e-06
0.00053494884
2.8193261e-06
0.00053247705
2.471791e-06
0.00053030944
2.1676116e-06
0.00052839669
1.9127491e-06
0.00052669151
1.7051763e-06
0.00052514602
1.5454929e-06
0.00052371986
1.4261608e-06
0.0005223927
1.3271637e-06
0.00052113877
1.2539283e-06
0.00051992436
1.2144052e-06
0.00051872653
1.1978293e-06
0.00051752739
1.1991422e-06
0.00051631422
1.2131711e-06
0.00051508253
1.2316871e-06
0.00051382403
1.2585085e-06
0.00051252408
1.2999447e-06
0.00051116911
1.3549752e-06
0.00050975192
1.4171859e-06
0.00050827739
1.4745337e-06
0.00050674794
1.5294503e-06
0.00050516426
1.5836775e-06
0.00050353285
1.6314115e-06
0.00050186922
1.6636269e-06
0.00050018865
1.6805679e-06
0.00049849626
1.6923972e-06
0.00049679433
1.7019206e-06
0.00049508722
1.7071128e-06
0.00049338249
1.7047361e-06
0.00049168242
1.7000663e-06
0.00048998511
1.6973117e-06
0.0004882964
1.6887062e-06
0.00048662378
1.6726234e-06
0.00048496902
1.6547557e-06
0.00048332992
1.6390985e-06
0.00048171129
1.6186314e-06
0.00048011484
1.5964489e-06
0.00047853401
1.5808352e-06
0.00047696658
1.5674273e-06
0.00047541537
1.5512106e-06
0.00047388027
1.5351037e-06
0.00047235749
1.5227774e-06
0.00047085285
1.5046359e-06
0.00046936881
1.4840486e-06
0.00046789858
1.4702292e-06
0.00046644417
1.4544015e-06
0.00046500684
1.4373301e-06
0.00046358017
1.4266768e-06
0.00046216695
1.4132167e-06
0.00046077071
1.3962373e-06
0.00045938711
1.383607e-06
0.00045801862
1.3684866e-06
0.00045666616
1.3524626e-06
0.00045532396
1.3421971e-06
0.00045399417
1.3297863e-06
0.00045267778
1.3163906e-06
0.00045137334
1.3044416e-06
0.0004500826
1.2907424e-06
0.00044880284
1.2797549e-06
0.00044753449
1.2683556e-06
0.00044627746
1.2570273e-06
0.00044502998
1.2474832e-06
0.00044379385
1.2361296e-06
0.00044256633
1.2275154e-06
0.00044134619
1.2201472e-06
0.00044013162
1.214567e-06
0.00043894687
1.1847491e-06
0.00043762378
1.3230917e-06
0.00043659582
1.0279558e-06
1.4089938e-06
0.00082550182
8.0468324e-06
-0.00082470061
0.00082600026
1.0063524e-05
0.00082623201
1.0918891e-05
0.0008261168
1.1306739e-05
0.00082531718
1.1783455e-05
0.00082380192
1.2109583e-05
0.0008216468
1.2330094e-05
0.00081890618
1.2555358e-05
0.00081566545
1.2761919e-05
0.00081202965
1.2980855e-05
0.00080811463
1.3195132e-05
0.00080397524
1.3410655e-05
0.00079963289
1.3615834e-05
0.00079509536
1.3800263e-05
0.0007903617
1.3959052e-05
0.00078542619
1.4077072e-05
0.00078025927
1.4140222e-05
0.00077487919
1.4166994e-05
0.00076929071
1.4163556e-05
0.00076349115
1.407402e-05
0.00075754514
1.3872915e-05
0.00075148995
1.3585658e-05
0.00074535526
1.3226515e-05
0.00073917147
1.2804027e-05
0.00073297743
1.2306484e-05
0.00072680867
1.175003e-05
0.0007206917
1.1174439e-05
0.00071466041
1.0579079e-05
0.00070875027
9.9712274e-06
0.00070299456
9.3640335e-06
0.00069742426
8.7662434e-06
0.0006920749
8.1686819e-06
0.00068695074
7.5959573e-06
0.00068202858
7.0897728e-06
0.00067730894
6.6323822e-06
0.00067279912
6.2149963e-06
0.00066850311
5.8415089e-06
0.00066441664
5.5126324e-06
0.00066053473
5.2090658e-06
0.00065684335
4.9453088e-06
0.00065332092
4.7368361e-06
0.00064995087
4.5678799e-06
0.00064671754
4.432471e-06
0.00064360884
4.3218771e-06
0.00064061754
4.2229838e-06
0.0006377338
4.1422499e-06
0.0006349218
4.1119463e-06
0.00063214431
4.1324648e-06
0.00062939811
4.163379e-06
0.00062669469
4.1779616e-06
0.00062403918
4.1849602e-06
0.00062142803
4.1948239e-06
0.00061885619
4.2032482e-06
0.00061632507
4.1947506e-06
0.00061383704
4.1685936e-06
0.00061138339
4.146055e-06
0.00060895303
4.1322777e-06
0.00060654284
4.1173071e-06
0.00060415768
4.089892e-06
0.00060180105
4.0566986e-06
0.00059947214
4.0262226e-06
0.00059717386
3.9869833e-06
0.00059491067
3.9358156e-06
0.00059268328
3.8821415e-06
0.0005904888
3.8335835e-06
0.00058832743
3.7799941e-06
0.00058619743
3.7264476e-06
0.00058409321
3.6850624e-06
0.00058201306
3.6475763e-06
0.00057996007
3.6042005e-06
0.00057793571
3.5594663e-06
0.00057593738
3.5211061e-06
0.00057396853
3.4734804e-06
0.00057203085
3.4217329e-06
0.00057011799
3.3830921e-06
0.00056822898
3.3434125e-06
0.00056636472
3.3015848e-06
0.00056452149
3.269911e-06
0.00056270083
3.2338694e-06
0.00056090566
3.1914145e-06
0.00055913305
3.1562188e-06
0.00055738307
3.1184621e-06
0.00055565558
3.0799536e-06
0.00055394648
3.0512919e-06
0.00055225664
3.0196331e-06
0.0005505871
2.9859255e-06
0.00054893714
2.9544067e-06
0.00054730701
2.9208661e-06
0.00054569416
2.8926076e-06
0.00054409831
2.8642021e-06
0.00054251944
2.8358965e-06
0.00054095653
2.8103985e-06
0.00053940972
2.7829348e-06
0.00053787799
2.7592502e-06
0.00053635458
2.74356e-06
0.00053485177
2.7173731e-06
0.00053335082
2.6857019e-06
0.00053183135
2.8425582e-06
0.00053016442
2.6948883e-06
2.9182224e-06
0.00085292744
7.6016745e-06
-0.00085248228
0.00085335557
9.6353906e-06
0.00085371665
1.0557811e-05
0.00085400553
1.101786e-05
0.00085429504
1.1493952e-05
0.00085452539
1.1879229e-05
0.00085465302
1.2202469e-05
0.00085467876
1.2529615e-05
0.00085460559
1.283509e-05
0.00085442263
1.3163817e-05
0.00085412183
1.3495928e-05
0.00085369747
1.3835011e-05
0.00085313622
1.4177089e-05
0.00085242686
1.4509623e-05
0.00085155485
1.4831064e-05
0.00085050152
1.5130402e-05
0.00084923711
1.540463e-05
0.0008477457
1.5658408e-05
0.00084600195
1.5907301e-05
0.00084395159
1.6124377e-05
0.00084156062
1.6263884e-05
0.00083880824
1.6338039e-05
0.00083567532
1.6359442e-05
0.00083215273
1.6326619e-05
0.00082820177
1.6257438e-05
0.00082380536
1.614644e-05
0.00081901737
1.5962434e-05
0.00081388997
1.5706474e-05
0.000808468
1.5393198e-05
0.00080280079
1.5031244e-05
0.00079694536
1.4621676e-05
0.00079096954
1.4144501e-05
0.00078495068
1.3614818e-05
0.00077895266
1.3087791e-05
0.00077302645
1.2558594e-05
0.00076721805
1.2023397e-05
0.00076157024
1.1489319e-05
0.00075608211
1.1000758e-05
0.00075074314
1.0548039e-05
0.00074557001
1.0118441e-05
0.00074057424
9.7325989e-06
0.00073576905
9.3730771e-06
0.00073116098
9.0405388e-06
0.00072674421
8.7386472e-06
0.00072250829
8.4589001e-06
0.00071843834
8.2122031e-06
0.00071452087
8.0294168e-06
0.00071074661
7.9067239e-06
0.00070710592
7.804072e-06
0.00070359314
7.6907377e-06
0.00070019687
7.5812342e-06
0.00069690021
7.4914841e-06
0.00069368833
7.4151213e-06
0.00069055655
7.3265284e-06
0.0006874991
7.2260514e-06
0.00068449572
7.1494324e-06
0.00068153378
7.0942218e-06
0.00067861539
7.0356917e-06
0.00067574609
6.9591941e-06
0.00067292819
6.8745976e-06
0.00067015925
6.7951652e-06
0.00066743931
6.7069188e-06
0.00066476978
6.6053432e-06
0.00066214933
6.5025987e-06
0.00065957378
6.4091308e-06
0.00065703947
6.3142998e-06
0.00065454213
6.2237958e-06
0.00065207828
6.148912e-06
0.00064964802
6.0778312e-06
0.00064725482
5.9974054e-06
0.00064490012
5.9141613e-06
0.00064258118
5.8400523e-06
0.00064030026
5.7543996e-06
0.00063805764
5.6643525e-06
0.00063584595
5.5947824e-06
0.00063366347
5.5258884e-06
0.00063151169
5.4533674e-06
0.00062938814
5.3934546e-06
0.00062729404
5.3279763e-06
0.00062523184
5.2536166e-06
0.00062319856
5.1894957e-06
0.0006211928
5.1242253e-06
0.00061921387
5.0588758e-06
0.00061725858
5.0065834e-06
0.00061532763
4.9505862e-06
0.00061342211
4.8914393e-06
0.00061154125
4.8352671e-06
0.00060968438
4.7777383e-06
0.00060784879
4.7281969e-06
0.00060603414
4.6788599e-06
0.00060424053
4.6295041e-06
0.00060246717
4.5837552e-06
0.00060071345
4.5366562e-06
0.00059897853
4.4941655e-06
0.00059725407
4.468028e-06
0.00059555653
4.4149057e-06
0.00059385302
4.3892132e-06
0.00059217181
4.5237659e-06
0.00059019797
4.6687307e-06
4.5186418e-06
0.0008814605
7.2577398e-06
-0.00088111657
0.00088189164
9.2042548e-06
0.00088225261
1.0196837e-05
0.00088254473
1.072574e-05
0.0008828141
1.122458e-05
0.00088302984
1.1663491e-05
0.00088321262
1.2019687e-05
0.00088337363
1.2368609e-05
0.00088351037
1.2698353e-05
0.00088364436
1.3029819e-05
0.000883774
1.3366293e-05
0.00088388534
1.3723674e-05
0.00088397737
1.4085058e-05
0.00088405009
1.44369e-05
0.00088410043
1.4780718e-05
0.00088412362
1.5107217e-05
0.00088411442
1.5413829e-05
0.00088406406
1.570877e-05
0.00088396681
1.6004544e-05
0.00088380949
1.6281703e-05
0.00088356867
1.6504705e-05
0.00088322462
1.6682083e-05
0.0008827545
1.6829563e-05
0.00088213045
1.6950672e-05
0.00088131461
1.7073274e-05
0.00088025495
1.7206102e-05
0.00087890148
1.7315904e-05
0.00087721309
1.7394865e-05
0.00087514989
1.74564e-05
0.00087267079
1.7510341e-05
0.00086974245
1.7550015e-05
0.00086629919
1.7587766e-05
0.00086229612
1.7617886e-05
0.00085778095
1.7602963e-05
0.00085282198
1.7517568e-05
0.00084748219
1.736318e-05
0.00084183693
1.7134587e-05
0.00083598638
1.6851301e-05
0.00083003999
1.6494436e-05
0.00082407497
1.6083453e-05
0.00081815031
1.5657264e-05
0.000812326
1.5197387e-05
0.00080662616
1.4740379e-05
0.0008010404
1.4324406e-05
0.00079558434
1.3914958e-05
0.00079028417
1.3512372e-05
0.00078517023
1.3143359e-05
0.00078027325
1.2803702e-05
0.00077559149
1.2485831e-05
0.00077110486
1.2177367e-05
0.00076678805
1.1898053e-05
0.00076261868
1.1660847e-05
0.00075858347
1.1450332e-05
0.00075468043
1.1229573e-05
0.00075090768
1.09988e-05
0.00074725241
1.0804702e-05
0.00074369741
1.0649219e-05
0.00074022923
1.0503875e-05
0.00073684381
1.0344617e-05
0.00073353909
1.0179308e-05
0.00073030909
1.0025165e-05
0.00072714962
9.8663964e-06
0.0007240579
9.6970603e-06
0.00072103006
9.5304407e-06
0.00071806006
9.3791293e-06
0.00071513826
9.2360953e-06
0.00071226006
9.1019961e-06
0.00070942814
8.9808406e-06
0.00070664381
8.8621571e-06
0.00070390972
8.7314958e-06
0.0007012262
8.5976819e-06
0.00069858934
8.4769127e-06
0.00069600024
8.343496e-06
0.00069345665
8.2079428e-06
0.00069094928
8.1021511e-06
0.00068847742
7.9977521e-06
0.00068604403
7.8867609e-06
0.00068364733
7.7901474e-06
0.00068128808
7.6872324e-06
0.0006789682
7.5734975e-06
0.00067668369
7.4739996e-06
0.00067443149
7.3764293e-06
0.00067221089
7.2794716e-06
0.0006700197
7.19778e-06
0.00066785877
7.1115132e-06
0.00066572915
7.021056e-06
0.00066362955
6.9348642e-06
0.00066155822
6.8490689e-06
0.00065951229
6.774135e-06
0.00065749165
6.6994999e-06
0.00065549666
6.6244927e-06
0.00065352653
6.5538866e-06
0.0006515799
6.4832862e-06
0.00064965568
6.4183779e-06
0.00064774494
6.3787746e-06
0.00064586607
6.293773e-06
0.00064397912
6.2761631e-06
0.00064213718
6.3657033e-06
0.00063992399
6.8819214e-06
6.2223078e-06
0.00091100428
6.9701179e-06
-0.00091071666
0.00091140563
8.8029058e-06
0.00091174928
9.8531881e-06
0.00091202852
1.0446498e-05
0.00091228241
1.0970695e-05
0.0009124995
1.1446397e-05
0.00091268329
1.1835894e-05
0.00091285091
1.2200993e-05
0.00091300127
1.2547992e-05
0.00091314082
1.2890273e-05
0.00091326907
1.3238041e-05
0.00091339346
1.3599283e-05
0.00091351365
1.3964871e-05
0.00091362827
1.4322279e-05
0.00091373863
1.4670354e-05
0.00091384413
1.5001723e-05
0.00091394258
1.5315379e-05
0.00091403858
1.5612771e-05
0.00091413809
1.5905028e-05
0.00091423324
1.618656e-05
0.00091431289
1.6425054e-05
0.00091437449
1.6620479e-05
0.00091441618
1.6787872e-05
0.00091443425
1.69326e-05
0.00091442935
1.7078172e-05
0.00091439617
1.7239284e-05
0.00091432046
1.7391618e-05
0.00091418796
1.7527358e-05
0.00091398113
1.7663235e-05
0.00091367668
1.7814784e-05
0.00091324412
1.7982584e-05
0.00091263915
1.8192728e-05
0.00091179894
1.8458096e-05
0.00091065422
1.8747687e-05
0.0009091388
1.9032991e-05
0.00090718792
1.9314058e-05
0.00090473346
1.9589049e-05
0.00090174772
1.9837033e-05
0.0008981579
2.0084263e-05
0.00089393667
2.0304681e-05
0.00088918492
2.0409012e-05
0.00088398582
2.039649e-05
0.00087844106
2.0285142e-05
0.00087267147
2.0093988e-05
0.00086678615
1.9800279e-05
0.00086086641
1.9432116e-05
0.00085498177
1.9027999e-05
0.00084919899
1.8586479e-05
0.00084352376
1.8161063e-05
0.00083794908
1.7752044e-05
0.0008325109
1.7336239e-05
0.00082723611
1.6935632e-05
0.00082214421
1.6542239e-05
0.00081724398
1.6129804e-05
0.00081252842
1.5714355e-05
0.0008079864
1.5346725e-05
0.00080360276
1.5032859e-05
0.00079936151
1.4745127e-05
0.00079525853
1.4447597e-05
0.00079128746
1.415037e-05
0.00078743211
1.3880518e-05
0.0007836788
1.3619709e-05
0.00078001957
1.3356285e-05
0.00077645027
1.3099744e-05
0.00077296654
1.2862862e-05
0.0007695662
1.2636432e-05
0.00076624496
1.2423239e-05
0.00076299479
1.2231006e-05
0.00075981157
1.2045386e-05
0.00075669556
1.1847502e-05
0.00075364518
1.1648063e-05
0.00075065446
1.1467629e-05
0.00074772307
1.1274894e-05
0.00074484438
1.1086627e-05
0.00074200755
1.0938981e-05
0.00073921604
1.0789265e-05
0.00073647444
1.0628361e-05
0.00073378051
1.0484076e-05
0.00073113403
1.0333707e-05
0.00072853614
1.0171395e-05
0.00072598066
1.0029478e-05
0.00072346261
9.8944823e-06
0.00072098238
9.7596976e-06
0.00071853912
9.6410374e-06
0.00071613372
9.5169142e-06
0.00071376689
9.3878858e-06
0.00071143627
9.2654858e-06
0.00070913869
9.1466517e-06
0.00070687137
9.0414549e-06
0.00070463486
8.9360101e-06
0.00070242973
8.8296173e-06
0.00070025495
8.7286723e-06
0.00069810815
8.6300825e-06
0.00069598781
8.5387215e-06
0.00069388487
8.4817067e-06
0.00069181907
8.3595753e-06
0.00068974543
8.3498085e-06
0.00068773483
8.3762969e-06
0.00068529128
9.3254733e-06
8.0480346e-06
0.00094153842
6.731485e-06
-0.00094129979
0.0009418995
8.441834e-06
0.0009422279
9.5247799e-06
0.00094250171
1.0172688e-05
0.00094275203
1.0720381e-05
0.00094297465
1.1223774e-05
0.00094316435
1.1646196e-05
0.0009433359
1.2029441e-05
0.0009434899
1.2393996e-05
0.00094363061
1.2749559e-05
0.00094376006
1.3108593e-05
0.00094388489
1.3474449e-05
0.00094400597
1.3843789e-05
0.00094412268
1.4205572e-05
0.00094423637
1.4556666e-05
0.00094434632
1.4891774e-05
0.00094445188
1.5209814e-05
0.00094455268
1.5511974e-05
0.00094465127
1.5806434e-05
0.00094474877
1.6089067e-05
0.0009448402
1.6333616e-05
0.00094492344
1.6537244e-05
0.00094499817
1.6713143e-05
0.00094506312
1.6867644e-05
0.0009451202
1.7021099e-05
0.00094517537
1.7184111e-05
0.00094522804
1.7338952e-05
0.00094527015
1.7485247e-05
0.00094529857
1.7634814e-05
0.00094531455
1.7798801e-05
0.00094531605
1.7981088e-05
0.00094530322
1.8205556e-05
0.00094527231
1.8489008e-05
0.00094521044
1.8809555e-05
0.00094509925
1.9144178e-05
0.00094491502
1.9498296e-05
0.00094462369
1.9880373e-05
0.00094417865
2.028208e-05
0.0009435122
2.0750713e-05
0.00094253436
2.1282522e-05
0.00094115524
2.1788125e-05
0.00093929071
2.2261021e-05
0.00093688046
2.2695396e-05
0.00093388491
2.3089538e-05
0.00093022951
2.3455679e-05
0.00092592311
2.3738511e-05
0.00092107882
2.3872295e-05
0.00091580301
2.3862292e-05
0.00091022902
2.3735047e-05
0.0009044846
2.3496468e-05
0.00089865868
2.3162158e-05
0.00089282638
2.2767929e-05
0.00088706044
2.2308177e-05
0.00088137627
2.1813973e-05
0.00087575618
2.1334452e-05
0.00087023065
2.087225e-05
0.00086484367
2.0419838e-05
0.0008596309
1.9957902e-05
0.00085460756
1.9470935e-05
0.00084975772
1.9000212e-05
0.00084505577
1.8582463e-05
0.00084048822
1.8187265e-05
0.0008360542
1.7790305e-05
0.00083175602
1.7397922e-05
0.00082758762
1.703126e-05
0.00082354746
1.6676592e-05
0.00081962988
1.6340816e-05
0.00081581998
1.6040908e-05
0.00081211076
1.5754607e-05
0.00080849809
1.5460168e-05
0.00080497449
1.5171672e-05
0.00080152996
1.4912149e-05
0.00079816271
1.4642151e-05
0.00079487217
1.4377166e-05
0.00079165189
1.4159255e-05
0.00078849867
1.3942494e-05
0.00078541111
1.3715921e-05
0.00078238453
1.3510649e-05
0.00077941745
1.3300795e-05
0.00077650979
1.3079047e-05
0.00077365175
1.2887523e-05
0.00077083693
1.2709299e-05
0.00076806903
1.2527603e-05
0.00076534833
1.2361734e-05
0.00076267496
1.2190283e-05
0.00076004892
1.2013924e-05
0.00075746602
1.1848384e-05
0.00075492146
1.1691213e-05
0.00075241334
1.1549578e-05
0.00074994319
1.140616e-05
0.00074751154
1.1261268e-05
0.00074511669
1.1123521e-05
0.00074275492
1.0991856e-05
0.00074042425
1.086939e-05
0.00073811608
1.078988e-05
0.00073585106
1.0624592e-05
0.00073358001
1.0620862e-05
0.0007313879
1.0568402e-05
0.00072870913
1.2004245e-05
1.0010327e-05
0.00097309349
6.532605e-06
-0.00097289461
0.00097341684
8.1184876e-06
0.00097373124
9.2103809e-06
0.00097400009
9.9038376e-06
0.00097424534
1.0475123e-05
0.0009744676
1.1001523e-05
0.00097466035
1.1453443e-05
0.00097483359
1.1856202e-05
0.00097499109
1.2236493e-05
0.000975135
1.260565e-05
0.00097526906
1.2974538e-05
0.00097539741
1.3346094e-05
0.00097552208
1.3719116e-05
0.00097564232
1.4085332e-05
0.00097575913
1.4439859e-05
0.00097587172
1.4779181e-05
0.00097597951
1.5102031e-05
0.00097608228
1.5409199e-05
0.00097618214
1.5706575e-05
0.0009762803
1.5990909e-05
0.00097637298
1.6240931e-05
0.00097645822
1.6452008e-05
0.00097653578
1.6635582e-05
0.00097660442
1.6799004e-05
0.00097666641
1.6959106e-05
0.00097672434
1.7126187e-05
0.00097677636
1.7286928e-05
0.00097682173
1.7439879e-05
0.00097686063
1.759591e-05
0.00097689355
1.7765886e-05
0.00097692014
1.7954502e-05
0.00097694288
1.8182814e-05
0.00097696708
1.8464802e-05
0.00097699336
1.8783276e-05
0.00097701655
1.9120992e-05
0.00097703423
1.9480614e-05
0.0009770449
1.9869709e-05
0.00097704335
2.0283625e-05
0.00097702948
2.0764584e-05
0.00097699389
2.1318107e-05
0.00097690984
2.1872184e-05
0.00097674753
2.2423324e-05
0.00097646365
2.2979282e-05
0.00097599629
2.3556891e-05
0.00097525671
2.419526e-05
0.00097413775
2.4857471e-05
0.00097253732
2.5472724e-05
0.00097036602
2.6033593e-05
0.00096757186
2.6529208e-05
0.00096409043
2.6977903e-05
0.00095993152
2.7321069e-05
0.00095521664
2.7482807e-05
0.00095006163
2.7463182e-05
0.00094460468
2.7270924e-05
0.00093896432
2.6974815e-05
0.00093322163
2.6614943e-05
0.00092744888
2.6192581e-05
0.00092172373
2.5683059e-05
0.00091605756
2.5137102e-05
0.00091042611
2.4631664e-05
0.00090486358
2.4144994e-05
0.00089941904
2.36318e-05
0.00089413066
2.3078687e-05
0.00088900535
2.2523232e-05
0.00088402361
2.2012996e-05
0.00087917841
2.1521798e-05
0.00087447526
2.1043967e-05
0.00086991978
2.0596383e-05
0.00086551042
2.0163963e-05
0.00086123529
1.9735303e-05
0.00085707941
1.9327555e-05
0.00085303223
1.8959323e-05
0.0008490939
1.8580482e-05
0.00084526829
1.8202782e-05
0.00084155053
1.7877013e-05
0.00083793035
1.7562669e-05
0.00083440106
1.7245209e-05
0.00083095472
1.6956993e-05
0.00082758666
1.666885e-05
0.00082429368
1.6372029e-05
0.00082106982
1.6111384e-05
0.00081791283
1.5866285e-05
0.00081482126
1.561918e-05
0.00081179021
1.5392779e-05
0.00080881772
1.5162773e-05
0.00080590283
1.4928818e-05
0.00080303852
1.4712694e-05
0.0008002186
1.4511133e-05
0.00079744355
1.4324625e-05
0.00079471587
1.4133839e-05
0.00079203534
1.3941805e-05
0.00078939907
1.3759788e-05
0.00078680152
1.3589401e-05
0.00078424066
1.3430255e-05
0.00078170892
1.3321614e-05
0.00077922745
1.3106065e-05
0.00077674304
1.3105276e-05
0.00077435245
1.2958986e-05
0.00077142563
1.4931068e-05
1.2123384e-05
0.0010057037
6.3642707e-06
-0.0010055354
0.0010059927
7.8295275e-06
0.0010062909
8.9121611e-06
0.001006553
9.6417432e-06
0.0010067924
1.0235721e-05
0.0010070131
1.0780773e-05
0.0010072089
1.1257635e-05
0.0010073854
1.167977e-05
0.0010075468
1.2075052e-05
0.0010076952
1.2457287e-05
0.001007834
1.2835668e-05
0.0010079662
1.3213954e-05
0.0010080941
1.3591203e-05
0.0010082176
1.3961813e-05
0.0010083373
1.432017e-05
0.0010084526
1.4663877e-05
0.0010085631
1.499151e-05
0.0010086687
1.5303595e-05
0.001008771
1.560426e-05
0.0010088711
1.5890822e-05
0.0010089659
1.6146146e-05
0.0010090532
1.6364683e-05
0.0010091328
1.6556069e-05
0.0010092035
1.6728259e-05
0.0010092672
1.6895391e-05
0.0010093262
1.7067163e-05
0.0010093793
1.7233838e-05
0.0010094258
1.7393373e-05
0.0010094662
1.7555564e-05
0.001009501
1.7731099e-05
0.0010095299
1.7925565e-05
0.0010095556
1.8157088e-05
0.0010095816
1.8438876e-05
0.0010096077
1.8757098e-05
0.001009633
1.9095767e-05
0.0010096571
1.9456484e-05
0.0010096802
1.9846602e-05
0.0010097004
2.026341e-05
0.0010097224
2.0742567e-05
0.0010097507
2.1289873e-05
0.0010097821
2.1840761e-05
0.0010098122
2.2393263e-05
0.0010098324
2.2958984e-05
0.001009839
2.3550314e-05
0.0010098283
2.4206026e-05
0.0010097814
2.4904299e-05
0.0010096634
2.559073e-05
0.0010094286
2.6268429e-05
0.0010090082
2.694959e-05
0.0010083034
2.7682678e-05
0.0010071961
2.8428369e-05
0.0010055739
2.9105076e-05
0.0010033439
2.9693101e-05
0.0010004083
3.0206564e-05
0.00099674008
3.064304e-05
0.00099243609
3.0918931e-05
0.0009876199
3.1008772e-05
0.00098241807
3.0884887e-05
0.00097695914
3.0596034e-05
0.00097133934
3.0251468e-05
0.00096562673
2.9857607e-05
0.00095989268
2.9365842e-05
0.0009541938
2.8777575e-05
0.00094851285
2.8204183e-05
0.00094283797
2.7687868e-05
0.00093722938
2.7130397e-05
0.00093174709
2.6526257e-05
0.00092641583
2.5927638e-05
0.00092122685
2.5352948e-05
0.00091617274
2.478941e-05
0.00091125384
2.4246451e-05
0.00090647604
2.3737125e-05
0.00090184423
2.3212295e-05
0.00089735203
2.2694984e-05
0.00089298899
2.2240051e-05
0.00088875332
2.1798339e-05
0.00088464444
2.1354091e-05
0.00088065113
2.0950301e-05
0.00087676341
2.0556568e-05
0.00087297502
2.0160419e-05
0.00086928488
1.9801527e-05
0.00086569477
1.9456391e-05
0.00086219673
1.9117227e-05
0.00085877951
1.8809998e-05
0.00085543843
1.8503845e-05
0.00085217009
1.8197163e-05
0.00084896969
1.7913092e-05
0.0008458342
1.764662e-05
0.00084276012
1.7398713e-05
0.00083974538
1.7148572e-05
0.00083678786
1.6899324e-05
0.00083388302
1.6664632e-05
0.00083102311
1.6449315e-05
0.00082820694
1.6246422e-05
0.00082542868
1.6099873e-05
0.00082270906
1.5825681e-05
0.0008199907
1.5823637e-05
0.00081738062
1.5569068e-05
0.00081418729
1.81244e-05
1.4402135e-05
0.0010394031
6.2193595e-06
-0.0010392582
0.0010396609
7.571693e-06
0.0010399414
8.6316957e-06
0.0010401959
9.3871712e-06
0.0010404301
1.0001606e-05
0.001040649
1.0561847e-05
0.0010408471
1.1059526e-05
0.0010410264
1.1500481e-05
0.001041191
1.1910438e-05
0.0010413431
1.2305177e-05
0.0010414856
1.2693156e-05
0.0010416213
1.3078269e-05
0.0010417522
1.3460297e-05
0.001041879
1.3835018e-05
0.0010420017
1.4197494e-05
0.00104212
1.4545558e-05
0.0010422336
1.4877887e-05
0.0010423424
1.5194784e-05
0.0010424477
1.5499019e-05
0.0010425502
1.5788274e-05
0.0010426476
1.6048797e-05
0.0010427375
1.6274739e-05
0.0010428196
1.6474014e-05
0.001042893
1.6654791e-05
0.0010429593
1.6829152e-05
0.0010430204
1.7006062e-05
0.0010430755
1.7178717e-05
0.0010431239
1.7344933e-05
0.0010431661
1.7513449e-05
0.0010432025
1.7694705e-05
0.001043233
1.7894983e-05
0.0010432601
1.8130002e-05
0.0010432869
1.8412071e-05
0.0010433138
1.8730238e-05
0.0010433397
1.906984e-05
0.0010433647
1.9431492e-05
0.001043389
1.9822309e-05
0.001043411
2.0241367e-05
0.0010434353
2.0718347e-05
0.0010434654
2.1259722e-05
0.0010434967
2.1809497e-05
0.0010435283
2.2361656e-05
0.0010435591
2.2928136e-05
0.0010435887
2.3520757e-05
0.0010436212
2.4173475e-05
0.0010436578
2.4867697e-05
0.0010436976
2.5551003e-05
0.001043733
2.6232979e-05
0.0010437514
2.6931237e-05
0.0010437486
2.7685486e-05
0.0010437045
2.8472416e-05
0.0010435774
2.9232204e-05
0.0010433102
2.9960288e-05
0.0010428119
3.0704825e-05
0.0010419611
3.1493892e-05
0.0010406319
3.2248127e-05
0.0010387191
3.292161e-05
0.0010360929
3.3511084e-05
0.0010326749
3.4013996e-05
0.001028562
3.4364345e-05
0.0010239098
3.4509794e-05
0.0010188491
3.4426548e-05
0.0010134988
3.4127895e-05
0.0010079527
3.3750323e-05
0.0010022791
3.3361465e-05
0.00099654135
3.2868121e-05
0.00099081178
3.2255828e-05
0.00098507803
3.166138e-05
0.00097931481
3.1116173e-05
0.00097358811
3.0516106e-05
0.00096796605
2.9868517e-05
0.0009624771
2.9226069e-05
0.00095711796
2.8571438e-05
0.00095188512
2.7927826e-05
0.00094678343
2.7341733e-05
0.00094183089
2.6750885e-05
0.00093703376
2.6151218e-05
0.00093237713
2.5606932e-05
0.00092785186
2.5081842e-05
0.00092345695
2.4555324e-05
0.00091918967
2.4068811e-05
0.00091504763
2.3598424e-05
0.00091102467
2.3140193e-05
0.00090711123
2.2723432e-05
0.00090330116
2.2313914e-05
0.00089958677
2.1911561e-05
0.00089596512
2.1534734e-05
0.0008924373
2.1174441e-05
0.000888995
2.0841012e-05
0.00088562995
2.0513624e-05
0.00088233694
2.019234e-05
0.00087911124
1.989033e-05
0.00087594867
1.9611881e-05
0.00087284693
1.9348161e-05
0.00086979467
1.9152142e-05
0.00086681066
1.8809687e-05
0.00086383302
1.8801274e-05
0.00086097806
1.8424035e-05
0.00085749528
2.1607174e-05
1.6862502e-05
0.0010742271
6.0926561e-06
-0.0010741004
0.0010744573
7.3414439e-06
0.0010747196
8.3694918e-06
0.0010749659
9.1407875e-06
0.0010751949
9.7726581e-06
0.0010754113
1.0345476e-05
0.0010756104
1.0860334e-05
0.0010757921
1.1318871e-05
0.0010759595
1.1743003e-05
0.0010761151
1.2149576e-05
0.0010762613
1.2546938e-05
0.0010764006
1.293894e-05
0.001076535
1.3325948e-05
0.0010766651
1.3704889e-05
0.0010767909
1.4071664e-05
0.0010769124
1.442415e-05
0.0010770291
1.4761184e-05
0.001077141
1.5082864e-05
0.0010772491
1.5390933e-05
0.001077354
1.5683317e-05
0.0010774538
1.5949007e-05
0.0010775463
1.6182272e-05
0.0010776308
1.6389464e-05
0.001077707
1.6578657e-05
0.0010777758
1.6760356e-05
0.0010778391
1.6942762e-05
0.0010778963
1.7121439e-05
0.0010779469
1.7294381e-05
0.001077991
1.7469334e-05
0.0010780293
1.7656414e-05
0.0010780619
1.7862417e-05
0.0010780908
1.8101089e-05
0.001078119
1.8383796e-05
0.0010781472
1.8702062e-05
0.0010781744
1.9042633e-05
0.0010782006
1.9405328e-05
0.001078226
1.9796933e-05
0.0010782493
2.0217997e-05
0.0010782745
2.0693188e-05
0.001078305
2.1229222e-05
0.0010783367
2.1777753e-05
0.0010783688
2.2329563e-05
0.0010784007
2.2896282e-05
0.0010784319
2.3489529e-05
0.0010784667
2.4138656e-05
0.001078506
2.4828444e-05
0.0010785457
2.5511286e-05
0.001078585
2.6193696e-05
0.001078623
2.6893237e-05
0.0010786639
2.7644561e-05
0.0010787063
2.8430022e-05
0.0010787523
2.9186255e-05
0.0010787927
2.9919798e-05
0.0010788099
3.0687681e-05
0.0010787943
3.1509451e-05
0.0010787128
3.2329677e-05
0.0010785112
3.3123207e-05
0.001078101
3.3921225e-05
0.0010773534
3.4761639e-05
0.0010761289
3.558884e-05
0.0010743116
3.6327079e-05
0.0010717654
3.6972729e-05
0.0010683745
3.7518791e-05
0.0010642388
3.7886056e-05
0.0010595696
3.8030647e-05
0.0010545097
3.792803e-05
0.0010491644
3.7601131e-05
0.0010436156
3.7210194e-05
0.0010379278
3.6803957e-05
0.0010321592
3.6284718e-05
0.0010263783
3.5649424e-05
0.001020572
3.5032332e-05
0.0010147198
3.4423631e-05
0.0010088906
3.3757095e-05
0.0010031503
3.3082041e-05
0.00099753157
3.2369576e-05
0.00099203423
3.164856e-05
0.00098665892
3.0982243e-05
0.00098142238
3.0318384e-05
0.00097633926
2.9638439e-05
0.00097140401
2.9004069e-05
0.00096660967
2.8392766e-05
0.00096195745
2.7792407e-05
0.00095744542
2.723546e-05
0.00095306664
2.6692698e-05
0.00094881048
2.6167724e-05
0.00094467234
2.5672872e-05
0.00094065296
2.5193823e-05
0.00093674462
2.4749349e-05
0.00093293822
2.4320022e-05
0.00092922653
2.3904033e-05
0.00092560386
2.3513002e-05
0.00092206954
2.3146197e-05
0.00091862009
2.2797612e-05
0.00091523757
2.2534665e-05
0.00091193676
2.2110496e-05
0.00090865444
2.2083588e-05
0.00090551981
2.155867e-05
0.00090172112
2.5405862e-05
1.9521366e-05
0.0011102128
5.980308e-06
-0.0011101005
0.001110419
7.1352453e-06
0.0011106631
8.1254067e-06
0.0011109005
8.9033677e-06
0.0011111241
9.5490481e-06
0.0011113374
1.01322e-05
0.0011115368
1.0660955e-05
0.0011117203
1.1135308e-05
0.0011118904
1.1572933e-05
0.0011120493
1.1990699e-05
0.0011121991
1.2397157e-05
0.0011123419
1.2796082e-05
0.0011124796
1.3188267e-05
0.0011126129
1.3571607e-05
0.0011127418
1.3942774e-05
0.0011128662
1.4299735e-05
0.0011129859
1.4641459e-05
0.0011131009
1.4967878e-05
0.0011132118
1.5279977e-05
0.0011133193
1.5575856e-05
0.0011134216
1.5846711e-05
0.0011135167
1.608719e-05
0.0011136039
1.6302298e-05
0.0011136827
1.6499775e-05
0.0011137542
1.6688897e-05
0.0011138198
1.6877129e-05
0.0011138794
1.7061911e-05
0.0011139321
1.7241626e-05
0.0011139783
1.7423127e-05
0.0011140186
1.7616131e-05
0.0011140532
1.7827792e-05
0.0011140841
1.8070246e-05
0.0011141139
1.8353919e-05
0.0011141436
1.8672445e-05
0.0011141722
1.9014014e-05
0.0011141997
1.9377831e-05
0.0011142263
1.977028e-05
0.0011142512
2.019308e-05
0.0011142777
2.0666719e-05
0.0011143091
2.1197815e-05
0.001114342
2.1744863e-05
0.0011143752
2.2296386e-05
0.0011144082
2.2863294e-05
0.0011144407
2.3457052e-05
0.0011144763
2.4102993e-05
0.001114516
2.4788744e-05
0.0011145562
2.5471148e-05
0.0011145962
2.6153693e-05
0.0011146358
2.6853629e-05
0.0011146786
2.7601732e-05
0.0011147258
2.8382855e-05
0.0011147726
2.9139415e-05
0.0011148167
2.9875691e-05
0.0011148607
3.0643745e-05
0.001114906
3.1464102e-05
0.0011149536
3.2282058e-05
0.001115
3.3076778e-05
0.0011150283
3.3892935e-05
0.0011150232
3.476673e-05
0.0011149554
3.5656648e-05
0.0011147671
3.6515409e-05
0.0011143632
3.7376643e-05
0.0011135996