/*--------------------------------*- C++ -*----------------------------------*\
  =========                 |
  \\      /  F ield         | OpenFOAM: The Open Source CFD Toolbox
   \\    /   O peration     | Website:  https://openfoam.org
    \\  /    A nd           | Version:  12
     \\/     M anipulation  |
\*---------------------------------------------------------------------------*/
FoamFile
{
    format      ascii;
    class       volVectorField;
    location    "1800";
    object      wallShearStress;
}
// * * * * * * * * * * * * * * * * * * * * * * * * * * * * * * * * * * * * * //

dimensions      [0 2 -2 0 0 0 0];

internalField   uniform (0 0 0);

boundaryField
{
    inlet
    {
        type            calculated;
        value           uniform (0 0 0);
    }
    top
    {
        type            calculated;
        value           uniform (0 0 0);
    }
    outlet
    {
        type            calculated;
        value           uniform (0 0 0);
    }
    slipsurface
    {
        type            calculated;
        value           uniform (0 0 0);
    }
    bottom
    {
        type            calculated;
        value           nonuniform List<vector> 
100
(
(-0.0033445212 -3.5503178e-06 0)
(-0.0032711448 -6.5202868e-06 0)
(-0.0031942313 -8.1639177e-06 0)
(-0.0031132145 -9.5880419e-06 0)
(-0.0030338358 -1.1317026e-05 0)
(-0.0029580711 -1.2325545e-05 0)
(-0.0028860635 -1.2356163e-05 0)
(-0.0028176265 -1.1978616e-05 0)
(-0.0027521516 -1.1420383e-05 0)
(-0.0026890571 -1.0699102e-05 0)
(-0.0026272266 -9.8935536e-06 0)
(-0.0025661811 -9.1462492e-06 0)
(-0.0025057494 -8.4555829e-06 0)
(-0.0024459581 -7.8112343e-06 0)
(-0.0023869279 -7.2058305e-06 0)
(-0.0023288679 -6.6284083e-06 0)
(-0.0022721325 -6.048342e-06 0)
(-0.0022174467 -5.4804089e-06 0)
(-0.0021641794 -4.9724818e-06 0)
(-0.0021131446 -4.4889562e-06 0)
(-0.0020646021 -4.0265665e-06 0)
(-0.002018754 -3.5860469e-06 0)
(-0.0019757989 -3.1692818e-06 0)
(-0.0019358924 -2.7794237e-06 0)
(-0.0018991613 -2.4136934e-06 0)
(-0.0018657173 -2.0729975e-06 0)
(-0.0018355451 -1.7640147e-06 0)
(-0.0018085162 -1.4863063e-06 0)
(-0.0017844544 -1.2393704e-06 0)
(-0.0017631494 -1.0261553e-06 0)
(-0.0017443526 -8.4565026e-07 0)
(-0.0017278089 -6.9287315e-07 0)
(-0.0017133183 -5.6326135e-07 0)
(-0.0017006698 -4.562343e-07 0)
(-0.001689598 -3.6869344e-07 0)
(-0.0016798179 -3.0024822e-07 0)
(-0.0016710491 -2.5137042e-07 0)
(-0.0016630366 -2.1831164e-07 0)
(-0.0016556192 -1.9363482e-07 0)
(-0.0016486771 -1.7725542e-07 0)
(-0.0016420553 -1.7059302e-07 0)
(-0.0016355948 -1.7065581e-07 0)
(-0.001629176 -1.754558e-07 0)
(-0.001622715 -1.8293175e-07 0)
(-0.0016161715 -1.9096494e-07 0)
(-0.0016095169 -1.9999606e-07 0)
(-0.0016027084 -2.1188052e-07 0)
(-0.0015956537 -2.2614265e-07 0)
(-0.0015882855 -2.4009382e-07 0)
(-0.0015806027 -2.5176422e-07 0)
(-0.001572637 -2.6150869e-07 0)
(-0.0015644051 -2.6974277e-07 0)
(-0.0015559216 -2.7568562e-07 0)
(-0.0015472398 -2.7791895e-07 0)
(-0.0015384483 -2.7646777e-07 0)
(-0.0015296133 -2.7304501e-07 0)
(-0.0015207547 -2.6855814e-07 0)
(-0.0015118779 -2.6314612e-07 0)
(-0.0015030115 -2.5657727e-07 0)
(-0.0014941884 -2.4958253e-07 0)
(-0.0014854111 -2.4289908e-07 0)
(-0.0014766832 -2.3569501e-07 0)
(-0.0014680376 -2.276071e-07 0)
(-0.0014595053 -2.1929926e-07 0)
(-0.001451084 -2.1141575e-07 0)
(-0.0014427748 -2.0325463e-07 0)
(-0.0014345958 -1.9501593e-07 0)
(-0.0014265371 -1.8768934e-07 0)
(-0.0014185703 -1.8100122e-07 0)
(-0.0014106923 -1.7433031e-07 0)
(-0.0014029159 -1.678378e-07 0)
(-0.001395231 -1.6191848e-07 0)
(-0.0013876374 -1.5573805e-07 0)
(-0.0013801603 -1.494287e-07 0)
(-0.0013727915 -1.4385103e-07 0)
(-0.0013655116 -1.3840619e-07 0)
(-0.0013583286 -1.3301061e-07 0)
(-0.0013512322 -1.2828103e-07 0)
(-0.0013442088 -1.235959e-07 0)
(-0.0013372752 -1.1876291e-07 0)
(-0.0013304331 -1.1435291e-07 0)
(-0.001323674 -1.0997283e-07 0)
(-0.0013170066 -1.0564273e-07 0)
(-0.0013104192 -1.0182923e-07 0)
(-0.0013038992 -9.8076442e-08 0)
(-0.0012974548 -9.4361245e-08 0)
(-0.0012910868 -9.0844953e-08 0)
(-0.0012847961 -8.7359343e-08 0)
(-0.0012785787 -8.413132e-08 0)
(-0.0012724271 -8.1013629e-08 0)
(-0.0012663432 -7.8000852e-08 0)
(-0.0012603215 -7.5184056e-08 0)
(-0.0012543644 -7.2385384e-08 0)
(-0.001248464 -6.9793777e-08 0)
(-0.0012426297 -6.7400476e-08 0)
(-0.0012367813 -6.508764e-08 0)
(-0.0012311782 -6.2616882e-08 0)
(-0.0012250876 -1.5467388e-07 0)
(-0.0012197847 -2.859415e-07 0)
(-0.0012117839 -2.7236859e-07 0)
)
;
    }
    frontandback
    {
        type            empty;
    }
}


// ************************************************************************* //
