/*--------------------------------*- C++ -*----------------------------------*\
  =========                 |
  \\      /  F ield         | OpenFOAM: The Open Source CFD Toolbox
   \\    /   O peration     | Website:  https://openfoam.org
    \\  /    A nd           | Version:  12
     \\/     M anipulation  |
\*---------------------------------------------------------------------------*/
FoamFile
{
    format      ascii;
    class       volScalarField;
    location    "700";
    object      epsilon;
}
// * * * * * * * * * * * * * * * * * * * * * * * * * * * * * * * * * * * * * //

dimensions      [0 2 -3 0 0 0 0];

internalField   nonuniform List<scalar> 
13056
(
0.0031088941
0.0028267808
0.0027112476
0.0026712597
0.0026524443
0.0026406158
0.0026323487
0.0026263887
0.0026220351
0.0026188442
0.0026165278
0.0026148949
0.0026138176
0.0026132094
0.0026130141
0.0026131967
0.0026137495
0.0026146742
0.0026160286
0.0026180559
0.0026192994
0.0026335062
0.0025784559
0.0038550817
66.852389
82.349755
76.432732
70.418605
65.828365
62.019725
58.751199
55.940297
53.516138
51.405565
49.546903
47.894429
46.415881
45.084032
43.873434
42.765491
41.746695
40.805103
39.931097
39.116665
38.354859
37.639991
36.96713
36.331962
35.730938
35.160805
34.618633
34.102035
33.608824
33.136963
32.684818
32.250919
31.833814
31.432226
31.045101
30.671461
30.310327
29.960832
29.622255
29.293927
28.975163
28.665332
28.363914
28.070434
27.784408
27.505373
27.232914
26.966678
26.706325
26.451511
26.201901
25.957208
25.717174
25.481545
25.250065
25.022485
24.798587
24.578177
24.361055
24.147023
23.935883
23.727465
23.521609
23.318152
23.116932
22.917784
22.720564
22.525135
22.331354
22.139078
21.948162
21.758475
21.56989
21.382272
21.195483
21.009387
20.823855
20.638756
20.453949
20.269291
20.084643
19.899863
19.7148
19.529295
19.343188
19.156317
18.968509
18.779564
18.589378
18.401674
18.222134
18.052227
17.891133
17.738123
17.592533
17.453769
17.321303
17.194661
17.073416
16.957183
16.845612
16.738381
16.6352
16.53578
16.439884
16.347161
16.257578
16.170111
16.086201
16.000476
15.926434
15.804268
0.0031066492
0.0028245939
0.0027090207
0.0026689969
0.0026501645
0.0026383263
0.0026300524
0.0026240872
0.0026197296
0.0026165356
0.0026142166
0.0026125818
0.0026115029
0.0026108934
0.0026106972
0.0026108793
0.0026114319
0.0026123566
0.0026137114
0.0026157399
0.0026169797
0.002631232
0.0025759262
0.0038455678
38.394869
44.540293
40.823768
37.388137
34.818593
32.710258
30.913793
29.376697
28.056386
26.910638
25.904433
25.012025
24.215289
23.498967
22.848949
22.25498
21.709584
21.206168
20.739447
20.305023
19.899091
19.51854
19.160677
18.823149
18.504023
18.20153
17.91408
17.640379
17.37924
17.129562
16.890462
16.661143
16.440821
16.22881
16.02454
15.827484
15.637114
15.452966
15.274651
15.101809
14.934074
14.771106
14.612627
14.458382
14.308112
14.161569
14.018532
13.878812
13.742227
13.608592
13.477731
13.349489
13.223729
13.100317
12.979114
12.85999
12.742829
12.627526
12.513976
12.402074
12.291716
12.182811
12.075273
11.969019
11.86396
11.760011
11.657096
11.555141
11.454073
11.353815
11.254292
11.155435
11.057177
10.959447
10.862172
10.765284
10.668712
10.57239
10.476244
10.380199
10.284183
10.188122
10.091938
9.9955479
9.8988698
9.801819
9.7043066
9.6062293
9.5075333
9.4101512
9.3170276
9.2289225
9.1454065
9.0660994
8.9906544
8.9187614
8.8501447
8.7845573
8.7217768
8.6616018
8.6038502
8.548355
8.4949639
8.4435273
8.3939214
8.3459642
8.2996376
8.2544116
8.2110319
8.1667169
8.1284524
8.0653267
0.0030983837
0.0028161682
0.002700311
0.0026601275
0.0026412169
0.0026293309
0.0026210229
0.0026150319
0.0026106541
0.002607444
0.0026051121
0.0026034667
0.002602379
0.0026017622
0.0026015599
0.0026017369
0.0026022852
0.0026032065
0.0026045584
0.0026065856
0.0026078151
0.0026221389
0.0025663785
0.0038277995
35.595966
37.21005
33.326312
30.21587
27.965184
26.150702
24.620941
23.321341
22.211124
21.251969
20.412779
19.670966
19.010683
18.4186
17.882567
17.393835
16.945984
16.533367
16.151485
15.796603
15.465498
15.155539
14.86445
14.590249
14.331311
14.086152
13.853439
13.63209
13.421115
13.219595
13.026792
12.842045
12.6647
12.494189
12.330038
12.171809
12.019067
11.871427
11.728569
11.590193
11.455998
11.325706
11.199086
11.075928
10.95602
10.839158
10.725161
10.613874
10.505148
10.398831
10.294779
10.192867
10.092983
9.9950144
9.8988519
9.8043874
9.7115281
9.6201884
9.5302829
9.4417259
9.3544338
9.2683332
9.1833554
9.0994315
9.0164914
8.9344666
8.8532956
8.7729199
8.69328
8.614315
8.5359649
8.458175
8.3808917
8.304059
8.2276196
8.1515178
8.0757003
8.0001128
7.9246982
7.8493978
7.7741549
7.6989119
7.6236077
7.5481783
7.4725595
7.3966858
7.3204885
7.2438881
7.1668436
7.090864
7.0182433
6.9495697
6.8845038
6.8227448
6.7640187
6.7080809
6.6547137
6.6037224
6.5549317
6.5081832
6.4633335
6.420251
6.378816
6.3389111
6.3004387
6.2632566
6.2273499
6.1923057
6.158705
6.1243817
6.0947652
6.0459219
0.0030839348
0.0028013483
0.0026849573
0.0026444861
0.0026254338
0.0026134606
0.0026050901
0.0025990517
0.002594637
0.0025913976
0.0025890419
0.0025873769
0.002586273
0.0025856425
0.0025854286
0.0025855958
0.0025861356
0.0025870498
0.002588395
0.0025904182
0.0025916303
0.0026060331
0.002549655
0.0038020215
36.055428
34.724145
30.512996
27.477249
25.340297
23.640898
22.218491
21.015008
19.989724
19.105751
18.333572
17.65193
17.04596
16.503125
16.012088
15.564754
15.155149
14.778013
14.429178
14.105187
13.803061
13.520366
13.255
13.005134
12.769269
12.546038
12.334215
12.132806
11.940899
11.757649
11.582381
11.414484
11.25336
11.098486
10.949429
10.805787
10.66716
10.533195
10.4036
10.278101
10.15642
10.038304
9.9235423
9.8119419
9.7033085
9.5974561
9.4942198
9.3934573
9.295032
9.1988062
9.1046479
9.012443
8.9220889
8.8334842
8.7465279
8.6611219
8.5771817
8.4946294
8.413387
8.3333764
8.2545218
8.1767563
8.1000177
8.0242428
7.9493683
7.8753319
7.802078
7.7295534
7.657704
7.5864746
7.5158112
7.4456642
7.375985
7.3067229
7.2378264
7.1692451
7.100931
7.0328353
6.9649062
6.8970913
6.8293395
6.7615991
6.6938152
6.6259306
6.5578877
6.4896281
6.4210903
6.3522035
6.2829315
6.2146317
6.1493654
6.0876595
6.029208
5.9737388
5.9210042
5.8707834
5.8228797
5.7771175
5.7333386
5.6914001
5.6511724
5.6125371
5.575386
5.5396132
5.5051308
5.4718106
5.439639
5.4082443
5.3781513
5.3474069
5.3208957
5.2771828
0.0030630591
0.0027798981
0.0026627136
0.0026218195
0.0026025583
0.0025904561
0.0025819932
0.0025758848
0.0025714154
0.0025681325
0.0025657415
0.0025640474
0.0025629192
0.0025622683
0.0025620369
0.0025621891
0.0025627159
0.0025636187
0.0025649531
0.0025669691
0.0025681559
0.0025826412
0.0025254838
0.0037672424
35.983163
32.97013
28.561895
25.605232
23.572001
21.973328
20.642742
19.5201
18.565262
17.74293
17.025136
16.391873
15.829188
15.325294
14.869583
14.454527
14.074545
13.724725
13.401184
13.100705
12.820517
12.558356
12.312265
12.080547
11.86181
11.654784
11.458331
11.27153
11.093536
10.923563
10.760986
10.605239
10.455766
10.312083
10.173789
10.040511
9.9118775
9.7875629
9.6672953
9.5508205
9.437882
9.3282444
9.2217131
9.1181092
9.0172524
8.9189701
8.8231101
8.7295403
8.638134
8.5487635
8.4613064
8.3756572
8.2917208
8.2094031
8.1286101
8.0492512
7.9712482
7.8945286
7.81902
7.7446501
7.6713483
7.5990529
7.527706
7.457249
7.3876228
7.3187698
7.2506384
7.1831793
7.1163418
7.0500749
6.9843282
6.9190558
6.8542124
6.7897508
6.7256229
6.6617821
6.5981836
6.5347818
6.4715286
6.4083751
6.3452737
6.2821763
6.2190316
6.1557863
6.0923867
6.0287784
5.9649039
5.9006975
5.8361256
5.772454
5.711605
5.6540711
5.5995681
5.547843
5.4986652
5.4518292
5.4071524
5.3644713
5.3236387
5.2845216
5.2469997
5.2109626
5.1763095
5.1429417
5.1107775
5.0796972
5.0496887
5.0204037
4.992336
4.9636528
4.9389302
4.8981676
0.0030354518
0.0027515221
0.0026332713
0.0025918091
0.0025722662
0.0025599901
0.0025514027
0.0025451997
0.0025406566
0.0025373149
0.0025348762
0.0025331427
0.0025319815
0.0025313026
0.0025310473
0.0025311787
0.0025316874
0.0025325742
0.002533893
0.002535898
0.0025370508
0.0025516222
0.0024935115
0.0037221796
35.021991
31.306108
26.818554
23.956573
22.029111
20.529011
19.286696
18.241053
17.352908
16.588684
15.921998
15.334072
14.811845
14.344275
13.921467
13.536423
13.183944
12.859452
12.559336
12.280606
12.020689
11.777481
11.549166
11.334168
11.131196
10.939074
10.756745
10.583357
10.418126
10.260325
10.109372
9.9647446
9.825928
9.692473
9.5640082
9.4401872
9.3206669
9.2051452
9.0933705
8.9851071
8.8801174
8.7781833
8.6791247
8.5827758
8.4889695
8.3975458
8.3083637
8.221301
8.13624
8.0530624
7.9716546
7.8919191
7.8137676
7.7371127
7.6618672
7.5879471
7.5152799
7.4437983
7.3734351
7.3041229
7.2357963
7.1683981
7.1018744
7.0361707
6.9712318
6.9070044
6.8434405
6.780494
6.7181178
6.6562641
6.5948862
6.5339413
6.4733869
6.413179
6.3532727
6.2936243
6.2341922
6.1749334
6.1158029
6.056755
5.9977452
5.9387282
5.8796558
5.8204779
5.7611445
5.7016041
5.6418028
5.581679
5.5212009
5.461555
5.4045428
5.3506275
5.2995447
5.2510582
5.2049532
5.1610378
5.1191417
5.0791125
5.0408128
5.0041187
4.9689176
4.9351066
4.9025914
4.87128
4.8410957
4.8119266
4.7837616
4.7562732
4.7299283
4.7029973
4.6797926
4.641531
0.0030007716
0.0027158923
0.002596287
0.0025540985
0.0025341945
0.0025216953
0.002512948
0.0025066238
0.002501986
0.0024985688
0.0024960686
0.0024942843
0.0024930805
0.0024923654
0.002492079
0.0024921832
0.0024926678
0.0024935332
0.0024948309
0.0024968205
0.0024979293
0.0025125903
0.0024533384
0.0036654699
33.365853
29.656045
25.173304
22.413955
20.591132
19.186074
18.027921
17.055304
16.23021
15.520814
14.902296
14.357056
13.872885
13.439469
13.047594
12.690757
12.364122
12.06343
11.785326
11.527033
11.286165
11.060771
10.849164
10.649884
10.461736
10.283629
10.114587
9.9538177
9.8005971
9.654252
9.5142434
9.3800868
9.2513063
9.1274862
9.0082826
8.8933748
8.782445
8.675214
8.5714486
8.4709308
8.3734407
8.2787764
8.1867712
8.0972719
8.0101234
7.9251777
7.8423045
7.7613905
7.6823268
7.6050036
7.5293158
7.4551731
7.3824939
7.311197
7.2412016
7.1724297
7.1048144
7.0382933
6.9728038
6.9082834
6.8446715
6.7819151
6.719964
6.6587677
6.5982748
6.5384357
6.4792059
6.4205425
6.3624017
6.3047388
6.2475105
6.1906768
6.1341981
6.0780334
6.0221406
5.9664792
5.91101
5.855693
5.8004861
5.7453463
5.6902322
5.6351011
5.5799081
5.524606
5.4691479
5.4134855
5.3575682
5.3013381
5.2447654
5.1889606
5.1356101
5.0851488
5.037331
4.9919368
4.9487657
4.9076393
4.8683988
4.8309022
4.7950217
4.7606415
4.7276569
4.6959718
4.6654983
4.6361504
4.6078566
4.5805123
4.5541073
4.5283341
4.503633
4.4783754
4.4566177
4.4207404
0.0029586702
0.00267268
0.0025514144
0.0025083264
0.0024879731
0.0024751965
0.0024662506
0.0024597755
0.0024550199
0.0024515085
0.0024489317
0.002447084
0.0024458269
0.0024450663
0.0024447405
0.0024448102
0.0024452641
0.0024461017
0.0024473718
0.0024493403
0.0024503941
0.0024651471
0.0024045535
0.0035957293
31.232596
28.024475
23.606469
20.952418
19.230835
17.916242
16.837604
15.933738
15.167883
14.509936
13.936585
13.43135
12.982825
12.581393
12.21849
11.88807
11.585637
11.307237
11.049752
10.810608
10.587592
10.378893
10.182951
9.998412
9.8241697
9.6592143
9.5026421
9.3537214
9.2117811
9.0761986
8.9464746
8.8221613
8.7028185
8.5880615
8.4775722
8.3710538
8.2682124
8.1687898
8.0725704
7.9793525
7.8889326
7.8011241
7.7157728
7.6327372
7.5518736
7.473045
7.396131
7.321027
7.2476319
7.1758443
7.1055666
7.0367157
6.9692159
6.9029919
6.837969
6.7740749
6.7112476
6.6494295
6.5885626
6.5285887
6.4694516
6.4111024
6.3534947
6.2965812
6.2403144
6.1846482
6.1295414
6.0749541
6.0208456
5.9671742
5.9138996
5.8609848
5.8083929
5.7560855
5.7040235
5.6521691
5.6004858
5.5489363
5.4974811
5.4460802
5.3946947
5.3432851
5.2918088
5.240222
5.1884807
5.1365398
5.0843516
5.031862
4.9790431
4.9269323
4.8771051
4.8299692
4.7852961
4.7428814
4.7025386
4.6641017
4.627423
4.5923704
4.558825
4.5266791
4.4958352
4.4662037
4.437703
4.4102528
4.3837864
4.3582062
4.333503
4.3093884
4.286277
4.2626385
4.2422792
4.2087066
0.0029088246
0.0026215912
0.0024983414
0.0024541633
0.0024332625
0.002420148
0.0024109603
0.0024043015
0.0023994023
0.002395776
0.0023931056
0.0023911802
0.0023898576
0.0023890409
0.0023886664
0.0023886933
0.0023891085
0.002389911
0.0023911458
0.0023930863
0.0023940725
0.0024089182
0.0023467749
0.0035116022
28.787061
26.421582
22.113365
19.56426
17.939418
16.710368
15.706539
14.867198
14.15686
13.547087
13.016004
12.548192
12.132999
11.761473
11.42566
11.11994
10.840137
10.582583
10.344384
10.123152
9.9168379
9.7237632
9.5424822
9.3717428
9.2105213
9.057884
8.9129951
8.7751778
8.6438112
8.5183197
8.3982413
8.2831621
8.1726752
8.0664249
7.9641172
7.8654776
7.7702342
7.6781487
7.5890217
7.5026668
7.418896
7.3375366
7.2584463
7.1814943
7.1065479
7.03348
6.9621796
6.8925502
6.8244982
6.7579296
6.6927543
6.6288954
6.5662832
6.504848
6.4445202
6.3852332
6.3269297
6.2695565
6.2130597
6.1573854
6.1024817
6.0483031
5.9948069
5.9419491
5.8896857
5.8379737
5.7867753
5.7360533
5.6857699
5.6358863
5.5863652
5.5371721
5.4882729
5.4396318
5.3912123
5.3429792
5.2948988
5.246936
5.1990542
5.1512159
5.1033852
5.0555248
5.0075952
4.9595554
4.9113643
4.8629797
4.814357
4.7654459
4.7162198
4.6676464
4.6211951
4.5772468
4.5355897
4.4960338
4.4584056
4.4225511
4.3883331
4.3556289
4.3243279
4.2943301
4.2655448
4.2378888
4.2112862
4.185662
4.1609545
4.1370725
4.1140078
4.0914905
4.0699095
4.0478313
4.0288176
3.9974638
0.0028509713
0.0025624053
0.0024368301
0.0023913517
0.0023697934
0.0023562735
0.0023467959
0.0023399168
0.002334845
0.0023310807
0.0023282975
0.0023262783
0.0023248764
0.0023239918
0.0023235579
0.0023235321
0.0023238995
0.0023246581
0.0023258485
0.0023277526
0.0023286569
0.0023435927
0.0022796951
0.0034118343
26.149638
24.853402
20.691682
18.245461
16.712368
15.563919
14.630342
13.851497
13.193153
12.628466
12.136929
11.704119
11.320089
10.976523
10.666038
10.383411
10.124768
9.8867068
9.6665425
9.4620644
9.2713734
9.0929158
8.9253536
8.7675297
8.6184971
8.4773931
8.3434457
8.2160289
8.0945688
7.9785335
7.867496
7.7610739
7.6588912
7.5606197
7.4659874
7.3747408
7.2866287
7.201431
7.1189637
7.0390546
6.9615299
6.8862302
6.8130243
6.7417914
6.6724087
6.6047588
6.5387393
6.4742612
6.411238
6.3495826
6.2892118
6.2300548
6.1720472
6.1151243
6.0592221
6.0042787
5.9502414
5.897061
5.8446876
5.7930713
5.7421639
5.6919238
5.6423112
5.5932854
5.5448055
5.4968319
5.4493295
5.4022639
5.3556
5.3093017
5.2633346
5.2176666
5.1722662
5.1270999
5.0821338
5.0373354
4.9926733
4.9481149
4.903626
4.8591718
4.8147188
4.7702325
4.7256759
4.6810106
4.6361986
4.5912005
4.5459745
4.5004737
4.4546733
4.4094744
4.3662449
4.3253402
4.2865637
4.2497391
4.2147057
4.1813203
4.1494557
4.1189981
4.0898448
4.061903
4.0350885
4.0093242
3.9845393
3.9606643
3.9376419
3.915387
3.8938924
3.872906
3.8527917
3.8322095
3.8144847
3.7852567
0.0027849415
0.0024950153
0.0023667579
0.0023197483
0.0022974096
0.0022834089
0.0022735876
0.0022664472
0.0022611706
0.0022572421
0.0022543246
0.0022521935
0.0022506968
0.0022497304
0.0022492249
0.0022491352
0.0022494441
0.0022501485
0.0022512835
0.002253141
0.0022539474
0.0022689655
0.0022031306
0.0032953746
23.411047
23.322081
19.339364
16.993199
15.546649
14.473955
13.606274
12.884115
12.274456
11.751965
11.297429
10.897359
10.542473
10.225053
9.9382565
9.6772277
9.4383732
9.2185439
9.0152504
8.8264458
8.650373
8.4855936
8.3308712
8.1851372
8.0475163
7.9172121
7.7935124
7.6758383
7.5636598
7.4564859
7.3539223
7.2556157
7.1612194
7.0704303
6.9829976
6.8986868
6.8172661
6.7385328
6.662317
6.5884597
6.5168005
6.4471925
6.3795145
6.3136554
6.2495015
6.1869443
6.1258898
6.0662559
6.0079624
5.9509292
5.8950791
5.8403471
5.7866739
5.7339997
5.6822652
5.6314131
5.5813951
5.5321658
5.483679
5.4358884
5.3887496
5.3422242
5.2962755
5.2508659
5.2059573
5.1615132
5.1175011
5.0738894
5.0306454
4.9877357
4.9451283
4.9027938
4.8607028
4.8188243
4.7771268
4.7355801
4.6941553
4.652822
4.6115483
4.5703021
4.5290521
4.4877664
4.4464104
4.4049485
4.3633453
4.3215642
4.2795661
4.2373075
4.1947652
4.1527768
4.1126138
4.0746068
4.0385739
4.0043516
3.9717909
3.9407591
3.9111385
3.8828236
3.855719
3.8297389
3.8048052
3.7808462
3.7577965
3.7355916
3.7141781
3.6934769
3.6734819
3.6539577
3.6352441
3.6160913
3.5995969
3.5723987
0.0027106943
0.0024194676
0.0022881606
0.0022393679
0.0022161117
0.0022015459
0.0021913213
0.0021838739
0.0021783565
0.0021742345
0.0021711585
0.0021688951
0.0021672858
0.0021662221
0.0021656308
0.0021654641
0.0021657021
0.0021663401
0.0021674069
0.0021692052
0.0021698962
0.002184981
0.0021170758
0.0031615056
20.644015
21.82664
18.054417
15.805368
14.440079
13.438412
12.632464
11.963383
11.39929
10.916278
10.496355
10.126907
9.7992751
9.5063055
9.2416621
9.0008322
8.7804854
8.5777095
8.3901979
8.216057
8.0536619
7.9016827
7.7589776
7.6245606
7.4976237
7.3774323
7.26333
7.1547818
7.0512988
6.9524281
6.8578059
6.7671063
6.6800094
6.5962362
6.5155551
6.4377499
6.3626067
6.2899387
6.2195896
6.1514125
6.0852597
6.0209956
5.9585089
5.897697
5.8384551
5.780683
5.7242943
5.6692133
5.6153663
5.562679
5.5110802
5.4605104
5.4109148
5.3622383
5.3144259
5.267425
5.221191
5.1756823
5.130856
5.0866693
5.0430813
5.0000567
4.9575616
4.9155612
4.8740204
4.8329052
4.792186
4.7518335
4.7118174
4.6721067
4.6326719
4.593486
4.5545216
4.51575
4.4771421
4.4386699
4.4003067
4.3620244
4.3237932
4.2855834
4.2473662
4.2091117
4.170788
4.1323619
4.0938007
4.0550702
4.0161342
3.9769522
3.9375025
3.8985627
3.8613124
3.8260588
3.7926334
3.7608851
3.7306756
3.7018825
3.6743967
3.6481204
3.6229657
3.5988527
3.5757094
3.5534694
3.532072
3.5114575
3.4915764
3.4723553
3.4537887
3.4356575
3.4182783
3.4004876
3.3851648
3.3598998
0.0026283481
0.0023360001
0.0022012737
0.0021504258
0.0021261
0.0021108758
0.0021001817
0.0020923768
0.0020865784
0.0020822304
0.0020789689
0.0020765501
0.0020748085
0.0020736297
0.0020729366
0.0020726778
0.0020728305
0.0020733879
0.0020743715
0.0020760956
0.0020766521
0.0020917763
0.0020217585
0.0030099936
17.910807
20.363584
16.834866
14.680398
13.391087
12.455836
11.707628
11.088189
10.566703
10.1206
9.7330335
9.3922094
9.0900493
8.8199318
8.5759958
8.3540472
8.151002
7.9641699
7.7914151
7.630987
7.4813843
7.3413784
7.2099157
7.0860879
6.9691493
6.8584231
6.753305
6.6533012
6.5579607
6.4668665
6.379683
6.2961101
6.2158529
6.1386546
6.064302
5.9925954
5.9233379
5.8563578
5.791511
5.7286623
5.6676756
5.608426
5.5508112
5.4947369
5.4401064
5.3868272
5.3348202
5.2840156
5.2343455
5.1857415
5.1381377
5.0914798
5.0457173
5.0007993
4.9566752
4.9132962
4.8706218
4.8286134
4.7872317
4.746437
4.7061915
4.6664629
4.6272201
4.5884308
4.5500625
4.5120841
4.4744682
4.4371879
4.400215
4.3635211
4.3270788
4.2908632
4.2548493
4.2190102
4.1833191
4.1477501
4.1122788
4.0768788
4.0415227
4.0061831
3.9708332
3.9354456
3.8999903
3.8644369
3.8287549
3.7929127
3.7568768
3.7206093
3.6840902
3.6480401
3.6135516
3.5809093
3.5499576
3.5205566
3.4925787
3.4659105
3.4404515
3.4161112
3.3928082
3.3704688
3.3490264
3.3284196
3.3085922
3.289489
3.2710643
3.2532499
3.236041
3.2192341
3.2031232
3.1866277
3.1724183
3.1489904
0.0025382103
0.0022450662
0.0021065689
0.0020533769
0.0020278148
0.0020118297
0.0020005937
0.0019923759
0.0019862524
0.0019816426
0.0019781655
0.0019755659
0.0019736695
0.0019723558
0.0019715427
0.0019711749
0.0019712257
0.0019716862
0.0019725693
0.0019742014
0.0019746033
0.0019897231
0.0019176966
0.0028412485
15.26419
18.928562
15.67861
13.617084
12.398538
11.5252
10.830884
10.257795
9.776095
9.3644533
9.0070972
8.6929986
8.4146198
8.1658382
7.9412381
7.7369215
7.5500342
7.3780938
7.2191239
7.071507
6.9338575
6.8050408
6.6840861
6.5701571
6.4625664
6.3606911
6.2639754
6.1719639
6.0842411
6.0004233
5.9202012
5.8432986
5.7694442
5.6984019
5.6299753
5.5639805
5.5002362
5.4385847
5.3788935
5.3210382
5.2648935
5.2103445
5.1572974
5.1056656
5.05536
5.0062951
4.9583985
4.9116064
4.8658561
4.8210844
4.7772309
4.7342456
4.6920823
4.6506942
4.6100344
4.5700582
4.5307283
4.4920095
4.4538653
4.4162593
4.3791565
4.3425275
4.3063437
4.2705752
4.235192
4.2001654
4.1654705
4.1310824
4.0969752
4.0631223
4.0294989
3.9960819
3.9628482
3.9297732
3.8968318
3.8640005
3.8312565
3.7985757
3.7659326
3.7333018
3.7006588
3.6679781
3.6352321
3.6023925
3.5694313
3.5363192
3.5030251
3.4695139
3.435767
3.4024511
3.3705764
3.3404061
3.3117965
3.2846185
3.2587543
3.2340993
3.2105607
3.188055
3.1665071
3.145849
3.1260191
3.1069607
3.0886221
3.0709521
3.0539086
3.0374285
3.0215074
3.0059566
2.9910488
2.9757823
2.9626288
2.9409432
0.0024407954
0.0021473567
0.0020047843
0.0019489485
0.0019219699
0.0019051131
0.0018932572
0.0018845667
0.0018780706
0.0018731597
0.0018694344
0.0018666259
0.0018645503
0.0018630797
0.0018621263
0.0018616303
0.0018615606
0.0018619057
0.0018626686
0.0018641882
0.0018644151
0.0018794637
0.0018057521
0.0026564711
12.753443
17.513851
14.583211
12.61439
11.461556
10.645734
10.001592
9.4716937
9.0270746
8.6475533
8.318357
8.0291714
7.7729614
7.5440695
7.3374969
7.1496212
6.9778018
6.8197501
6.6736385
6.5379737
6.4114771
6.2931024
6.1819553
6.077267
5.9784041
5.8847937
5.7959256
5.7113798
5.6307738
5.5537549
5.4800387
5.4093709
5.3415021
5.2762154
5.2133305
5.1526777
5.0940905
5.0374243
4.9825573
4.929375
4.8777623
4.8276138
4.7788433
4.7313714
4.6851161
4.6399986
4.5959529
4.5529204
4.5108432
4.4696634
4.4293252
4.3897831
4.3509948
4.312917
4.2755066
4.2387225
4.2025307
4.1668988
4.1317932
4.0971804
4.0630281
4.0293097
3.9959986
3.9630676
3.9304888
3.898236
3.8662861
3.8346166
3.8032034
3.7720221
3.7410497
3.7102652
3.6796474
3.6491734
3.6188201
3.5885659
3.55839
3.5282701
3.4981825
3.4681039
3.4380118
3.4078827
3.377691
3.3474105
3.3170156
3.2864793
3.2557725
3.224863
3.1937334
3.1629995
3.1335937
3.1057588
3.0793623
3.0542852
3.030419
3.0076673
2.9859445
2.9651738
2.9452858
2.9262179
2.9079134
2.89032
2.87339
2.8570762
2.8413397
2.8261223
2.8114201
2.7970583
2.7832892
2.7691864
2.7570321
2.7369954
0.0023368282
0.0020438115
0.001896941
0.0018381615
0.0018095764
0.0017917304
0.0017791724
0.0017699462
0.0017630267
0.0017577734
0.0017537648
0.0017507173
0.0017484358
0.0017467844
0.0017456686
0.0017450235
0.0017448127
0.0017450217
0.0017456428
0.0017470263
0.001747059
0.0017619387
0.0016871782
0.0024577555
10.421663
16.111336
13.545648
11.671256
10.579356
9.8167764
9.2192157
8.7294666
8.319334
7.9696892
7.6666884
7.4006809
7.1650968
6.9547114
6.7649147
6.5923406
6.4345463
6.2894242
6.1552849
6.0307501
5.9146412
5.8059935
5.7039842
5.6079068
5.5171783
5.4312722
5.3497205
5.2721361
5.1981674
5.1274905
5.0598437
4.9949934
4.9327105
4.872796
4.8150843
4.7594192
4.7056478
4.6536376
4.6032768
4.5544603
4.5070822
4.4610459
4.4162726
4.3726894
4.3302209
4.2887946
4.2483503
4.2088342
4.1701932
4.1323741
4.0953255
4.059006
4.0233768
3.9883981
3.9540302
3.9202354
3.8869827
3.8542425
3.8219838
3.7901757
3.7587888
3.7277985
3.6971807
3.6669103
3.6369615
3.6073102
3.5779356
3.5488169
3.5199319
3.491258
3.4627743
3.4344616
3.4063002
3.3782693
3.3503473
3.3225147
3.2947523
3.2670395
3.2393545
3.2116759
3.183983
3.1562542
3.1284659
3.100594
3.0726148
3.0445035
3.0162333
2.9877744
2.9591107
2.9308099
2.9037311
2.8780978
2.8537879
2.8306921
2.8087102
2.7877537
2.767744
2.7486102
2.7302886
2.7127214
2.6958566
2.6796461
2.6640458
2.6490123
2.6345098
2.6204847
2.6069335
2.5936946
2.5810008
2.5679973
2.5567867
2.538307
0.0022272372
0.0019356094
0.0017843428
0.001722335
0.0016919492
0.0016729937
0.0016596496
0.0016498231
0.0016424285
0.0016367897
0.0016324615
0.0016291435
0.0016266283
0.0016247707
0.0016234689
0.0016226521
0.0016222782
0.001622329
0.0016227849
0.0016240065
0.0016238281
0.0016384019
0.0015636551
0.0022481117
8.2980016
14.717584
12.562
10.786407
9.7511122
9.037645
8.4832028
8.0306805
7.652545
7.330626
7.0519388
6.8074479
6.5910129
6.3978096
6.2235902
6.0652267
5.9204592
5.787348
5.6643323
5.5501403
5.4436861
5.3440806
5.2505673
5.1624975
5.0793347
5.0005956
4.925851
4.8547447
4.7869535
4.7221801
4.6601842
4.6007511
4.5436706
4.4887603
4.4358681
4.3848506
4.3355673
4.2878968
4.241737
4.1969909
4.1535617
4.1113609
4.0703161
4.0303608
3.9914257
3.9534442
3.9163612
3.8801278
3.8446951
3.8100141
3.7760378
3.7427283
3.7100504
3.6779673
3.6464426
3.6154417
3.5849364
3.5548997
3.525303
3.4961179
3.4673175
3.4388793
3.4107815
3.3830007
3.3555134
3.3282974
3.3013339
3.2746036
3.2480863
3.2217612
3.195609
3.1696123
3.1437532
3.1180122
3.0923696
3.0668076
3.0413087
3.0158537
2.9904228
2.9649962
2.9395551
2.9140795
2.8885477
2.8629375
2.8372273
2.8113942
2.7854135
2.7592577
2.7329119
2.7068986
2.682008
2.6584452
2.6360982
2.6148661
2.5946573
2.5753902
2.5569927
2.5393997
2.5225526
2.5063983
2.490889
2.4759805
2.4616324
2.4478047
2.4344646
2.4215625
2.4090955
2.3969145
2.3852338
2.3732664
2.362945
2.3459321
0.0021131317
0.001824137
0.0016685529
0.0016030698
0.0015706945
0.001550511
0.001536299
0.0015258095
0.0015178888
0.0015118219
0.0015071379
0.0015035177
0.0015007406
0.0014986511
0.0014971391
0.0014961274
0.0014955674
0.0014954368
0.0014957034
0.0014967354
0.0014963338
0.0015104181
0.0014373099
0.0020313779
6.4051799
13.330183
11.62711
9.9581845
8.9758353
8.3075408
7.7928936
7.3747988
7.0262788
6.7300287
6.473855
6.2492918
6.0505939
5.873306
5.7135172
5.5683204
5.4356245
5.3136451
5.2009406
5.0963377
4.9988363
4.9076173
4.8219854
4.7413452
4.6652033
4.5931161
4.5246906
4.4595991
4.3975444
4.3382543
4.2815078
4.2271079
4.1748618
4.1246026
4.0761906
4.0294941
3.9843842
3.94075
3.8984977
3.8575386
3.8177838
3.7791523
3.741578
3.7050001
3.6693548
3.634581
3.6006287
3.567453
3.5350092
3.5032523
3.4721391
3.4416351
3.4117083
3.3823249
3.3534514
3.3250562
3.2971136
3.2695988
3.2424859
3.2157486
3.1893621
3.1633063
3.1375611
3.1121051
3.0869165
3.0619753
3.0372641
3.0127655
2.9884608
2.9643309
2.9403583
2.916527
2.8928206
2.8692212
2.8457109
2.8222732
2.7988922
2.7755504
2.7522294
2.7289112
2.7055785
2.6822132
2.6587951
2.6353039
2.6117199
2.588022
2.5641874
2.540191
2.5160189
2.4921511
2.4693131
2.4476929
2.4271876
2.4077046
2.3891598
2.3714786
2.3545946
2.3384483
2.3229857
2.3081582
2.293922
2.2802365
2.2670646
2.2543696
2.2421214
2.2302745
2.2188263
2.2076395
2.1969109
2.1859176
2.1764322
2.1607977
0.0019957655
0.0017109343
0.0015513414
0.0014822048
0.0014476696
0.0014261495
0.0014109953
0.0013997855
0.001391292
0.0013847576
0.0013796837
0.0013757314
0.0013726654
0.0013703189
0.0013685733
0.0013673439
0.0013665751
0.0013662401
0.0013662937
0.0013671076
0.0013664776
0.0013798403
0.0013107187
0.0018119521
4.7597352
11.947826
10.73459
9.1843986
8.2522878
7.6254745
7.1474563
6.7611216
6.4399483
6.1674073
5.9320315
5.725881
5.5435741
5.3809935
5.2345407
5.1015144
4.9799779
4.8682907
4.7651213
4.6693875
4.5801679
4.4967085
4.4183703
4.344607
4.2749647
4.2090369
4.1464636
4.0869431
4.030203
3.9759937
3.9241122
3.8743777
3.8266135
3.780667
3.7364099
3.6937214
3.6524833
3.6125943
3.5739684
3.5365242
3.5001805
3.4648631
3.4305116
3.3970704
3.3644811
3.3326876
3.3016443
3.2713104
3.2416447
3.2126061
3.1841549
3.15626
3.1288919
3.1020198
3.0756128
3.0496421
3.0240844
2.9989171
2.9741164
2.949658
2.9255195
2.9016825
2.8781287
2.8548384
2.8317918
2.8089704
2.7863586
2.7639403
2.7416986
2.7196157
2.6976757
2.6758643
2.6541663
2.6325653
2.6110448
2.5895899
2.5681861
2.5468174
2.5254667
2.5041177
2.4827547
2.461361
2.439918
2.4184073
2.3968108
2.3751092
2.3532815
2.3313046
2.3091658
2.2873053
2.2663879
2.2465857
2.2278041
2.2099584
2.1929714
2.1767749
2.1613082
2.1465166
2.1323507
2.118766
2.1057223
2.0931825
2.0811126
2.069479
2.058254
2.047396
2.0369027
2.0266478
2.0168116
2.0067319
1.9980304
1.9836882
0.0018764862
0.0015976184
0.0014346056
0.0013617429
0.0013249141
0.0013019683
0.0012858119
0.001273836
0.0012647313
0.0012576967
0.001252204
0.0012478937
0.001244515
0.0012418894
0.0012398887
0.0012384209
0.0012374225
0.0012368618
0.0012366807
0.0012372488
0.0012363941
0.0012487678
0.0011859046
0.0015953801
3.3726275
10.569049
9.8778045
8.4622246
7.5789103
6.9902196
6.5458457
6.1887476
5.8927725
5.6420832
5.4258778
5.2367022
5.069508
4.9204869
4.7863297
4.6645259
4.5532811
4.4510867
4.3567134
4.2691625
4.1875857
4.1112883
4.0396834
3.9722697
3.9086301
3.8483915
3.7912245
3.7368519
3.6850233
3.6355104
3.5881266
3.542706
3.499087
3.4571297
3.4167167
3.3777368
3.3400821
3.3036597
3.2683912
3.2342017
3.201017
3.1687694
3.1374036
3.1068687
3.0771114
3.0480802
3.0197337
2.9920345
2.964945
2.9384274
2.9124457
2.8869712
2.8619772
2.8374356
2.813318
2.7895981
2.7662546
2.7432672
2.7206138
2.6982722
2.6762222
2.6544468
2.6329294
2.6116521
2.5905966
2.569746
2.5490863
2.5286028
2.5082799
2.4881013
2.4680527
2.4481209
2.4282921
2.4085513
2.3888833
2.3692748
2.3497123
2.3301813
2.3106661
2.2911519
2.2716244
2.2520682
2.2324664
2.2128021
2.1930589
2.173219
2.1532633
2.1331705
2.1129288
2.0929414
2.0738165
2.0557112
2.0385388
2.0222217
2.0066893
1.9918793
1.9777362
1.9642099
1.9512552
1.9388315
1.9269019
1.9154326
1.9043925
1.8937508
1.8834822
1.8735485
1.8639477
1.8545642
1.8455625
1.8363373
1.8283693
1.8152355
0.0017566759
0.0014857901
0.0013202628
0.0012437488
0.0012045508
0.0011801218
0.0011629263
0.0011501558
0.0011404155
0.0011328585
0.0011269267
0.0011222395
0.0011185302
0.0011156083
0.0011133358
0.0011116127
0.0011103676
0.0011095634
0.0011091297
0.0011094271
0.0011083616
0.0011194697
0.0010646195
0.001387469
2.2517611
9.192569
9.0495318
7.7880669
6.9537633
6.4002824
5.9867819
5.6565551
5.3837595
5.1531736
4.954604
4.7810459
4.627757
4.4912103
4.3683639
4.2568852
4.1551096
4.0616503
3.9753721
3.8953531
3.8208122
3.7511095
3.6857055
3.6241406
3.566031
3.5110346
3.4588501
3.4092224
3.3619219
3.3167394
3.2735036
3.2320623
3.1922676
3.1539913
3.117126
3.0815696
3.0472231
3.0140019
2.9818341
2.950651
2.9203849
2.8909738
2.8623673
2.8345189
2.8073798
2.7809027
2.7550501
2.7297878
2.7050815
2.6808965
2.6571999
2.6339656
2.6111693
2.5887853
2.5667876
2.5451521
2.5238596
2.5028915
2.4822276
2.4618478
2.4417332
2.4218689
2.4022395
2.3828286
2.3636195
2.344597
2.3257481