/*--------------------------------*- C++ -*----------------------------------*\
  =========                 |
  \\      /  F ield         | OpenFOAM: The Open Source CFD Toolbox
   \\    /   O peration     | Website:  https://openfoam.org
    \\  /    A nd           | Version:  12
     \\/     M anipulation  |
\*---------------------------------------------------------------------------*/
FoamFile
{
    format      ascii;
    class       volScalarField;
    location    "700";
    object      epsilon;
}
// * * * * * * * * * * * * * * * * * * * * * * * * * * * * * * * * * * * * * //

dimensions      [0 2 -3 0 0 0 0];

internalField   nonuniform List<scalar> 
7480
(
0.016491966
0.067674422
0.16489958
0.29497316
0.43321008
0.55714542
0.65343642
0.71828616
0.75454731
0.76814806
0.76547943
0.75204645
0.73205194
0.70846441
0.68326876
0.65774712
0.63273453
0.60880385
0.5863339
0.56559712
0.54680785
0.53014446
0.51574716
0.50370618
0.49404814
0.48668545
0.48131904
0.47752714
0.47474858
0.4723869
0.46995806
0.46718409
0.46399632
0.46048523
0.45679087
0.45302306
0.44922757
0.44539846
0.44151221
0.43755989
0.43356055
0.42955193
0.42557248
0.42164654
0.41778219
0.41397928
0.41023739
0.40655795
0.40294261
0.39939193
0.39590507
0.39248013
0.3891152
0.38580905
0.38256053
0.37936785
0.376229
0.3731426
0.37010791
0.36712304
0.36418622
0.3612959
0.35845061
0.35564913
0.35289045
0.3501735
0.34749724
0.34486067
0.34226276
0.33970249
0.33717891
0.33469108
0.33223807
0.329819
0.32743303
0.32507933
0.3227571
0.32046558
0.31820402
0.31597169
0.31376788
0.31159192
0.30944314
0.3073209
0.30522455
0.30315348
0.30110708
0.2990847
0.29708576
0.2951095
0.29315543
0.2912222
0.28931021
0.28741475
0.28554253
0.2836699
0.28184221
0.27992119
0.27830739
0.2753307
0.00023143828
0.0010150581
0.0033188549
0.0078244858
0.014466462
0.02283513
0.032013911
0.040856467
0.04856246
0.054781416
0.059490015
0.062978915
0.065752432
0.068337817
0.07127327
0.075124261
0.080778425
0.088417707
0.09680532
0.10595509
0.11606347
0.1272389
0.13938524
0.1521561
0.16513364
0.17764875
0.1888379
0.19786789
0.20412844
0.20743546
0.20808352
0.20671831
0.2041171
0.20098001
0.19778796
0.19476419
0.1919394
0.1892558
0.18665118
0.18410274
0.18162705
0.17925441
0.17700302
0.17487355
0.17285048
0.17091479
0.16905236
0.1672544
0.1655143
0.16382572
0.16218304
0.16058187
0.15901878
0.15749082
0.15599536
0.15453023
0.15309375
0.15168464
0.15030151
0.14894382
0.14761053
0.14630066
0.14501346
0.14374831
0.14250468
0.14128203
0.14007982
0.13889753
0.13773465
0.13659069
0.13546519
0.1343577
0.1332678
0.13219506
0.13113909
0.13009948
0.12907585
0.12806782
0.12707502
0.12609708
0.12513366
0.1241844
0.12324897
0.12232703
0.12141826
0.12052234
0.11963894
0.11876776
0.11790849
0.1170608
0.11622439
0.11539886
0.11458397
0.11377897
0.1129841
0.11219664
0.1114212
0.11063482
0.10993815
0.10874263
2.8130071e-05
6.2041843e-05
0.0001281529
0.00023149776
0.00037319611
0.00055457349
0.00077520442
0.001030928
0.0013140017
0.0016139323
0.0019189645
0.0022186649
0.0025064502
0.0027812928
0.0030494937
0.0033248824
0.0036372673
0.0040263557
0.0045339407
0.0052121868
0.0061284379
0.00736739
0.0090560067
0.011458721
0.014770371
0.019255746
0.025734026
0.033493876
0.042267644
0.051735198
0.061367336
0.070567192
0.07876389
0.085478309
0.090446497
0.09369043
0.095465484
0.096163447
0.096193163
0.09588691
0.095450085
0.094969437
0.094460576
0.093910157
0.093312495
0.092677728
0.092023614
0.091364501
0.090706474
0.090049536
0.089392173
0.088733942
0.088075418
0.08741723
0.08675968
0.08610293
0.085447206
0.084792834
0.084140087
0.083489296
0.082840974
0.082195619
0.081553667
0.080915529
0.080281599
0.079652232
0.079027729
0.078408353
0.077794336
0.077185882
0.076583172
0.075986369
0.075395613
0.074811022
0.074232696
0.073660712
0.073095132
0.072535997
0.071983333
0.07143715
0.070897446
0.070364205
0.069837402
0.069317002
0.068802959
0.068295219
0.067793722
0.067298397
0.066809168
0.066325954
0.065848653
0.065377182
0.064911376
0.064451203
0.06399625
0.063546762
0.063102225
0.062656436
0.06226032
0.061577335
1.6175759e-05
2.0868236e-05
2.9195664e-05
4.1006545e-05
5.5963901e-05
7.3817974e-05
9.4385083e-05
0.00011745519
0.00014274118
0.00016987465
0.00019841893
0.00022790369
0.00025788264
0.00028799315
0.00031801981
0.00034791989
0.00037800323
0.00040890455
0.00044183031
0.00047870038
0.00052197394
0.00057561812
0.00064496545
0.00073884705
0.00087103602
0.001060079
0.0013522938
0.0017973417
0.002464809
0.0034366215
0.0048813966
0.0069651234
0.0098348513
0.013942629
0.01887446
0.024366727
0.030062862
0.035606082
0.040649575
0.044911631
0.048253091
0.050695266
0.052386094
0.053533546
0.054335102
0.054928657
0.055384881
0.055728446
0.055967174
0.056111118
0.056176402
0.056180031
0.05613471
0.056048077
0.055924989
0.055769631
0.0555861
0.055378113
0.055148752
0.054900519
0.054635675
0.054356319
0.054064354
0.053761478
0.053449208
0.053128903
0.052801775
0.052468916
0.052131308
0.051789832
0.05144529
0.051098405
0.050749833
0.050400169
0.050049947
0.04969965
0.04934971
0.049000515
0.048652411
0.048305704
0.047960667
0.047617543
0.047276544
0.046937857
0.046601642
0.046268042
0.045937174
0.045609142
0.045284029
0.044961908
0.044642824
0.044326846
0.04401393
0.043704264
0.043397451
0.043094331
0.042793686
0.042493314
0.042227536
0.041765287
1.4544665e-05
1.5509964e-05
1.7412643e-05
2.0237429e-05
2.3869091e-05
2.8190722e-05
3.3112791e-05
3.8568872e-05
4.4504051e-05
5.0866524e-05
5.7603475e-05
6.4659506e-05
7.1977781e-05
7.9502886e-05
8.7185086e-05
9.4982856e-05
0.00010287174
0.00011084849
0.0001189411
0.00012723178
0.00013583599
0.0001449753
0.00015494257
0.00016617349
0.00017933848
0.00019528002
0.000215583
0.00024246066
0.00027909517
0.00032997951
0.00040280304
0.000510243
0.00067022559
0.00092446094
0.0013258146
0.0019330983
0.0028812521
0.0042677827
0.0062269276
0.0089114528
0.012110784
0.015618685
0.019204305
0.022636809
0.025713478
0.028312503
0.030406553
0.032050941
0.033345901
0.034391241
0.035257525
0.035982407
0.036583749
0.037074401
0.037468974
0.037782768
0.03802865
0.038216015
0.038351905
0.038442287
0.038492585
0.038507623
0.038491539
0.038447886
0.038379798
0.038290064
0.038181154
0.038055261
0.037914336
0.037760125
0.037594198
0.037417968
0.037232707
0.037039566
0.036839583
0.036633698
0.036422758
0.03620753
0.035988706
0.035766911
0.035542708
0.035316606
0.035089063
0.034860491
0.03463126
0.034401702
0.034172114
0.033942764
0.033713887
0.0334857
0.033258381
0.033032123
0.032807011
0.032583337
0.032360859
0.032140479
0.031921209
0.031701766
0.031509126
0.03116944
1.4207824e-05
1.4418944e-05
1.4915732e-05
1.5762513e-05
1.6956938e-05
1.8463045e-05
2.0238477e-05
2.2246391e-05
2.4457596e-05
2.6848947e-05
2.9401222e-05
3.209748e-05
3.4922051e-05
3.7860006e-05
4.0897191e-05
4.402036e-05
4.7217856e-05
5.0480313e-05
5.3801609e-05
5.7181782e-05
6.0626579e-05
6.415289e-05
6.7789672e-05
7.1581331e-05
7.5596824e-05
7.9929733e-05
8.4719047e-05
9.0180552e-05
9.6602161e-05
0.00010437421
0.00011404791
0.00012646007
0.00014267748
0.00016464445
0.000195294
0.00023862452
0.00030216501
0.00039709818
0.0005420533
0.00077290969
0.0011328569
0.0017043377
0.0025701349
0.0038236162
0.0055542226
0.0076555725
0.0099933199
0.012420883
0.01478428
0.016952797
0.01884786
0.020451454
0.021794075
0.022926791
0.023895409
0.024729508
0.025445944
0.026057039
0.026575295
0.027013174
0.027381393
0.027688425
0.027941194
0.028145796
0.028307701
0.028431699
0.028521932
0.028582043
0.028615268
0.028624484
0.028612253
0.028580863
0.028532365
0.028468605
0.028391242
0.028301772
0.028201546
0.028091784
0.027973588
0.027847955
0.027715789
0.027577904
0.02743504
0.027287865
0.027136984
0.026982943
0.026826237
0.026667313
0.026506573
0.026344386
0.026181074
0.026016956
0.025852253
0.025687341
0.02552216
0.025357564
0.025192955
0.025027225
0.024882957
0.02462374
1.4082164e-05
1.4133828e-05
1.4262039e-05
1.4514223e-05
1.4920406e-05
1.5488451e-05
1.6210842e-05
1.7073305e-05
1.8060415e-05
1.9158116e-05
2.0354387e-05
2.1639084e-05
2.3003546e-05
2.4440207e-05
2.5942292e-05
2.750362e-05
2.9118544e-05
3.0781974e-05
3.2489465e-05
3.4237643e-05
3.6024387e-05
3.7849501e-05
3.9715364e-05
4.1627483e-05
4.3595993e-05
4.5636744e-05
4.7772781e-05
5.0039514e-05
5.2486422e-05
5.5180663e-05
5.8210871e-05
6.1703002e-05
6.5802821e-05
7.0725941e-05
7.6795404e-05
8.442581e-05
9.426029e-05
0.00010720231
0.00012455425
0.00014853118
0.00018240285
0.00023210107
0.00030679781
0.0004215936
0.00060442038
0.00088899002
0.0013471822
0.0020345835
0.0030546288
0.0043710279
0.0059261964
0.0076298765
0.0093766008
0.011063278
0.012612967
0.013988187
0.015189059
0.016236771
0.017155303
0.017962046
0.018668401
0.019283901
0.019818297
0.020281035
0.020680294
0.021022906
0.021314825
0.021561414
0.021767455
0.02193716
0.022074263
0.0221821
0.022263658
0.022321612
0.022358364
0.022376076
0.022376696
0.02236198
0.022333516
0.022292741
0.022240952
0.022179327
0.02210893
0.022030728
0.021945595
0.021854325
0.021757637
0.021656184
0.021550558
0.021441297
0.021328885
0.021213781
0.021096351
0.020977067
0.020856053
0.020734117
0.020611029
0.020485752
0.020377502
0.0201779
1.3978096e-05
1.3999667e-05
1.4037933e-05
1.411221e-05
1.4243746e-05
1.4449169e-05
1.4737491e-05
1.5110662e-05
1.5565885e-05
1.6097897e-05
1.6700575e-05
1.7367844e-05
1.8094082e-05
1.8874243e-05
1.9703828e-05
2.057881e-05
2.1495552e-05
2.2450754e-05
2.3441418e-05
2.446489e-05
2.5518904e-05
2.6601696e-05
2.7712175e-05
2.8850104e-05
3.0016401e-05
3.1213567e-05
3.2445965e-05
3.3720678e-05
3.5048315e-05
3.6443788e-05
3.7927262e-05
3.9524184e-05
4.1278716e-05
4.3242404e-05
4.5480285e-05
4.8073897e-05
5.1137282e-05
5.4822185e-05
5.9318342e-05
6.4898989e-05
7.1951989e-05
8.1081191e-05
9.3177279e-05
0.0001095463
0.00013238076
0.00016490826
0.00021351905
0.00028707235
0.00040397974
0.00058770921
0.00088168875
0.0013347523
0.0020183391
0.0029295972
0.0040388578
0.0052888908
0.0066057766
0.0079130975
0.0091487488
0.010277858
0.01129233
0.012199519
0.013010096
0.013732532
0.014373574
0.01494003
0.015439045
0.015877371
0.016260949
0.016595068
0.016884552
0.017133781
0.017346691
0.017526818
0.017677354
0.017801184
0.017900911
0.017978886
0.018037239
0.018077897
0.018102607
0.018112951
0.018110364
0.018096151
0.018071492
0.018037461
0.017995033
0.017945094
0.017888449
0.017825833
0.017757906
0.017685288
0.017608505
0.017528141
0.017444504
0.017358392
0.017269884
0.017178083
0.017099211
0.016947995
1.3864481e-05
1.3880984e-05
1.3900413e-05
1.3928004e-05
1.3972666e-05
1.4044726e-05
1.4153648e-05
1.4306498e-05
1.4507416e-05
1.4757892e-05
1.5057433e-05
1.5404285e-05
1.5796018e-05
1.6229929e-05
1.6703282e-05
1.7213434e-05
1.7757885e-05
1.83343e-05
1.894051e-05
1.9574516e-05
2.0234502e-05
2.0918858e-05
2.1626219e-05
2.2355532e-05
2.310614e-05
2.3877924e-05
2.4671423e-05
2.5488028e-05
2.6330269e-05
2.7202069e-05
2.8109144e-05
2.9058821e-05
3.0062589e-05
3.1135735e-05
3.2297633e-05
3.3571917e-05
3.4989012e-05
3.6586043e-05
3.8417684e-05
4.0554642e-05
4.3079989e-05
4.6107878e-05
4.9796092e-05
5.4362193e-05
6.0102663e-05
6.7439282e-05
7.7100797e-05
9.0070771e-05
0.00010810161
0.00013374801
0.00017170875
0.00022904885
0.00031964586
0.00046193297
0.00068921891
0.001042453
0.0015699733
0.002273722
0.0031320952
0.0041050322
0.0051370949
0.0061704983
0.0071592668
0.0080778191
0.0089185
0.0096828524
0.010374567
0.010997298
0.011555154
0.012052955
0.0124957
0.012888094
0.013234497
0.013538995
0.013805375
0.014037114
0.014237391
0.014409112
0.01455493
0.014677263
0.014778313
0.014860088
0.014924413
0.014972951
0.015007216
0.015028586
0.015038316
0.015037548
0.015027324
0.015008592
0.014982213
0.014948984
0.014909606
0.014864795
0.014815042
0.014761178
0.014703534
0.014641461
0.014588317
0.014479225
1.3738343e-05
1.3753692e-05
1.3769527e-05
1.378661e-05
1.3807639e-05
1.3836814e-05
1.3879266e-05
1.3940337e-05
1.4024847e-05
1.4136588e-05
1.4278116e-05
1.4450812e-05
1.465508e-05
1.4890597e-05
1.5156548e-05
1.5451809e-05
1.5775083e-05
1.6124993e-05
1.6500143e-05
1.6899158e-05
1.7320716e-05
1.7763568e-05
1.8226564e-05
1.8708679e-05
1.9209052e-05
1.9727038e-05
2.0262264e-05
2.0814691e-05
2.1384717e-05
2.1973278e-05
2.2582005e-05
2.3213219e-05
2.3870437e-05
2.4558669e-05
2.5284642e-05
2.6056871e-05
2.6886181e-05
2.778564e-05
2.877259e-05
2.9869717e-05
3.1104089e-05
3.2509263e-05
3.4126495e-05
3.6010938e-05
3.8248047e-05
4.0932128e-05
4.4204114e-05
4.8251097e-05
5.3358122e-05
5.9903326e-05
6.8523018e-05
8.0120777e-05
9.6275693e-05
0.00011933521
0.00015350869
0.00020552249
0.00028760228
0.00041598977
0.00062126238
0.000940392
0.0013966495
0.0019910502
0.0027049771
0.0035037942
0.0043427379
0.0051782667
0.0059791756
0.0067294216
0.0074235058
0.0080605325
0.0086411932
0.0091672968
0.0096416848
0.010067736
0.010448915
0.010788632
0.011090194
0.011356756
0.01159128
0.011796528
0.01197506
0.012129242
0.012261251
0.012373088
0.012466587
0.012543431
0.012605158
0.012653177
0.012688773
0.012713125
0.012727305
0.012732303
0.012729005
0.012718277
0.012700796
0.012677463
0.012648812
0.012614552
0.012585191
0.012514791
1.3600501e-05
1.361517e-05
1.3630078e-05
1.3644939e-05
1.3660364e-05
1.3677661e-05
1.3698811e-05
1.3726398e-05
1.3763387e-05
1.3812806e-05
1.387745e-05
1.3959666e-05
1.4061245e-05
1.4183408e-05
1.4326852e-05
1.4491837e-05
1.4678276e-05
1.488582e-05
1.5113933e-05
1.5361956e-05
1.5629152e-05
1.5914746e-05
1.6217954e-05
1.6538016e-05
1.6874218e-05
1.7225925e-05
1.7592616e-05
1.7973907e-05
1.8369602e-05
1.8779729e-05
1.920461e-05
1.9644885e-05
2.0101641e-05
2.0576555e-05
2.1072051e-05
2.1591396e-05
2.2138874e-05
2.2719821e-05
2.334102e-05
2.4011236e-05
2.4741248e-05
2.5544233e-05
2.6435807e-05
2.7435212e-05
2.856935e-05
2.9869989e-05
3.137795e-05
3.3144809e-05
3.5240604e-05
3.7771511e-05
4.0876252e-05
4.4739367e-05
4.9646842e-05
5.5990216e-05
6.4398774e-05
7.5832262e-05
9.1905092e-05
0.00011509229
0.0001497799
0.0002036463
0.00028807003
0.00042173179
0.00063267068
0.00094701434
0.0013750228
0.0019111554
0.0025353836
0.0032150667
0.0039134843
0.0046004479
0.0052571398
0.0058742503
0.0064477228
0.0069760019
0.0074591711
0.0078985736
0.0082962976
0.0086547662
0.0089765483
0.0092642546
0.0095204532
0.0097476159
0.009948092
0.010124094
0.010277689
0.010410802
0.010525215
0.010622576
0.010704402
0.010772093
0.01082693
0.0108701
0.010902676
0.010925684
0.010939989
0.010946585
0.010946181
0.010938924
0.01093245
0.010899033
1.3451972e-05
1.3466037e-05
1.3480396e-05
1.349459e-05
1.3508685e-05
1.3523018e-05
1.3538193e-05
1.3555157e-05
1.3575218e-05
1.3599985e-05
1.3631258e-05
1.3670885e-05
1.3720632e-05
1.3782076e-05
1.3856535e-05
1.3945036e-05
1.4048317e-05
1.4166847e-05
1.4300859e-05
1.4450389e-05
1.4615318e-05
1.4795402e-05
1.4990312e-05
1.5199658e-05
1.542302e-05
1.5659973e-05
1.5910115e-05
1.6173081e-05
1.6448579e-05
1.6736404e-05
1.7036474e-05
1.7348851e-05
1.7673786e-05
1.8011779e-05
1.8363658e-05
1.8730653e-05
1.9114484e-05
1.9517411e-05
1.9942343e-05
2.0393036e-05
2.0874208e-05
2.1391712e-05
2.1952555e-05
2.2565097e-05
2.3240106e-05
2.399069e-05
2.4832926e-05
2.5786467e-05
2.6875658e-05
2.8133728e-05
2.9604718e-05
3.1343336e-05
3.342175e-05
3.5948312e-05
3.9075858e-05
4.3010386e-05
4.8062922e-05
5.4684914e-05
6.3574485e-05
7.5911682e-05
9.3525088e-05
0.00011947431
0.00015911932
0.00022105267
0.00031822241
0.00047262743
0.00070626857
0.0010322611
0.0014516885
0.001952947
0.00251193
0.0030987076
0.0036866859
0.0042575568
0.0048007794
0.0053107043
0.00578445
0.006221008
0.0066207157
0.0069847446
0.0073147342
0.0076125902
0.007880351
0.0081200897
0.0083338526
0.0085236213
0.0086912886
0.0088386448
0.0089673713
0.0090790389
0.009175108
0.0092569368
0.0093257753
0.0093828036
0.0094290628
0.009465658
0.0094934391
0.0095130687
0.009529237
0.0095321967
1.3293707e-05
1.3307225e-05
1.3321094e-05
1.3334858e-05
1.3348458e-05
1.3361968e-05
1.3375545e-05
1.3389469e-05
1.3404198e-05
1.3420389e-05
1.3438897e-05
1.3460747e-05
1.3487081e-05
1.3519093e-05
1.3557963e-05
1.3604797e-05
1.366058e-05
1.3726152e-05
1.3802188e-05
1.3889203e-05
1.3987554e-05
1.4097465e-05
1.4219035e-05
1.4352265e-05
1.4497075e-05
1.465333e-05
1.4820856e-05
1.4999462e-05
1.5188955e-05
1.5389162e-05
1.5599944e-05
1.5821215e-05
1.6052963e-05
1.6295278e-05
1.6548393e-05
1.6812729e-05
1.7088942e-05
1.7377968e-05
1.7681071e-05
1.7999922e-05
1.8336676e-05
1.8694069e-05
1.9075461e-05
1.9484892e-05
1.9927358e-05
2.0408969e-05
2.0937138e-05
2.1520818e-05
2.2170733e-05
2.2900338e-05
2.3727038e-05
2.4672423e-05
2.5762558e-05
2.7033479e-05
2.8533508e-05
3.0324818e-05
3.2491289e-05
3.515323e-05
3.8489669e-05
4.2756153e-05
4.8329265e-05
5.5777698e-05
6.601948e-05
8.054631e-05
0.00010174089
0.00013387757
0.000183812
0.00026180152
0.00038579618
0.00057330906
0.00083733863
0.0011815582
0.0015984238
0.002068983
0.0025686994
0.0030750535
0.0035717243
0.004048494
0.004499309
0.0049207642
0.0053113146
0.0056707169
0.0059995601
0.0062989497
0.0065703087
0.0068152383
0.00703542
0.0072325513
0.0074083034
0.0075642929
0.0077020645
0.007823083
0.0079287241
0.0080202905
0.0080989714
0.0081659794
0.0082222688
0.0082690684
0.008308027
0.0083474568
1.3126638e-05
1.3139661e-05
1.3153073e-05
1.3166441e-05
1.317968e-05
1.3192796e-05
1.3205826e-05
1.3218839e-05
1.3231971e-05
1.3245442e-05
1.3259578e-05
1.3274822e-05
1.329174e-05
1.3311002e-05
1.333336e-05
1.3359616e-05
1.3390585e-05
1.342706e-05
1.3469785e-05
1.3519429e-05
1.3576576e-05
1.3641714e-05
1.3715233e-05
1.3797432e-05
1.3888521e-05
1.3988638e-05
1.4097858e-05
1.4216205e-05
1.4343666e-05
1.4480203e-05
1.4625766e-05
1.4780306e-05
1.4943786e-05
1.5116202e-05
1.5297599e-05
1.5488102e-05
1.5687941e-05
1.5897485e-05
1.6117268e-05
1.6348032e-05
1.6590768e-05
1.6846771e-05
1.711769e-05
1.7405553e-05
1.7712858e-05
1.8042668e-05
1.8398704e-05
1.8785456e-05
1.9208277e-05
1.9673619e-05
2.0189505e-05
2.0765876e-05
2.1414503e-05
2.215038e-05
2.2992909e-05
2.3966269e-05
2.5101749e-05
2.6440053e-05
2.8037737e-05
2.9971621e-05
3.2345058e-05
3.531041e-05
3.9099796e-05
4.4045813e-05
5.0647459e-05
5.9708393e-05
7.2535331e-05
9.1182886e-05
0.00011941727
0.0001630257
0.00023119398
0.00033881269
0.00050032777
0.00072721834
0.0010234225
0.0013827098
0.001788934
0.0022215883
0.0026619215
0.0030960615
0.0035148845
0.0039126717
0.0042860556
0.0046333602
0.0049540818
0.0052484892
0.0055173564
0.0057617778
0.0059830384
0.0061825228
0.006361654
0.0065218513
0.0066645026
0.0067909517
0.0069024707
0.0070003452
0.0070855804
0.00716
0.0072220773
0.0072984676
1.2951699e-05
1.2964275e-05
1.2977259e-05
1.2990246e-05
1.3003141e-05
1.3015933e-05
1.3028626e-05
1.3041236e-05
1.3053798e-05
1.3066375e-05
1.3079071e-05
1.3092045e-05
1.3105522e-05
1.3119805e-05
1.3135271e-05
1.315237e-05
1.317161e-05
1.3193542e-05
1.3218741e-05
1.3247784e-05
1.3281233e-05
1.331962e-05
1.3363432e-05
1.3413101e-05
1.3469006e-05
1.3531462e-05
1.3600731e-05
1.3677021e-05
1.376049e-05
1.3851257e-05
1.3949407e-05
1.4054997e-05
1.4168065e-05
1.4288645e-05
1.4416772e-05
1.4552503e-05
1.4695933e-05
1.4847214e-05
1.5006575e-05
1.5174346e-05
1.5350982e-05
1.5537102e-05
1.5733514e-05
1.5941246e-05
1.6161586e-05
1.6396125e-05
1.6646817e-05
1.6916035e-05
1.7206627e-05
1.752199e-05
1.786624e-05
1.8244424e-05
1.8662532e-05
1.912785e-05
1.9649493e-05
2.0238623e-05
2.0909215e-05
2.1678638e-05
2.2569471e-05
2.3611349e-05
2.4842336e-05
2.6313727e-05
2.8098361e-05
3.0296086e-05
3.3041212e-05
3.6551289e-05
4.1146769e-05
4.7290775e-05
5.5759013e-05
6.7762e-05
8.5259664e-05
0.00011178012
0.00015253461
0.0002166158
0.00031620394
0.00046407973
0.00066950506
0.00093534289
0.0012549245
0.0016136695
0.0019941813
0.0023810169
0.0027627282
0.0031315682
0.0034825385
0.0038126422
0.0041203295
0.0044050542
0.0046669504
0.004906607
0.0051249082
0.0053229184
0.0055018068
0.0056627876
0.005807085
0.0059359693
0.0060504092
0.0061528147
0.0062383201
0.0063522798
1.2769828e-05
1.2781994e-05
1.2794577e-05
1.2807195e-05
1.2819753e-05
1.2832229e-05
1.284462e-05
1.2856928e-05
1.286916e-05
1.2881332e-05
1.2893473e-05
1.290563e-05
1.2917879e-05
1.2930332e-05
1.2943144e-05
1.2956521e-05
1.2970719e-05
1.2986044e-05
1.3002845e-05
1.3021508e-05
1.3042445e-05
1.3066079e-05
1.3092839e-05
1.3123143e-05
1.315739e-05
1.3195953e-05
1.3239175e-05
1.3287364e-05
1.3340788e-05
1.3399684e-05
1.3464249e-05
1.353465e-05
1.3611022e-05
1.3693479e-05
1.3782115e-05
1.3877017e-05
1.3978274e-05
1.4085987e-05
1.4200286e-05
1.4321339e-05
1.4449375e-05
1.4584699e-05
1.4727717e-05
1.4878959e-05
1.5039095e-05
1.520897e-05
1.5389634e-05
1.5582374e-05
1.5788757e-05
1.6010657e-05
1.625033e-05
1.6510509e-05
1.679446e-05
1.7106083e-05
1.7450131e-05
1.7832355e-05
1.8259794e-05
1.8741007e-05
1.9286646e-05
1.9910192e-05
2.0628549e-05
2.1463254e-05
2.2443018e-05
2.3606028e-05
2.5000981e-05
2.6698243e-05
2.8797796e-05
3.1434707e-05
3.4812995e-05
3.9260838e-05
4.5243509e-05
5.3547726e-05
6.5352974e-05
8.2735321e-05
0.00010908705
0.00014963618
0.00021330923
0.00031085245
0.00045301466
0.00064716849
0.00089386056
0.0011852593
0.0015077967
0.0018467026
0.0021894466
0.0025268039
0.0028524425
0.0031622395
0.0034537181
0.0037255882
0.0039773911
0.0042092396
0.0044216404
0.0046153486
0.0047912908
0.0049505434
0.0050938853
0.0052242481
0.0053332349
0.0054851773
1.2581952e-05
1.2593739e-05
1.2605945e-05
1.2618208e-05
1.2630434e-05
1.2642598e-05
1.2654691e-05
1.2666712e-05
1.267866e-05
1.2690539e-05
1.2702355e-05
1.2714119e-05
1.2725852e-05
1.2737588e-05
1.274938e-05
1.2761306e-05
1.2773472e-05
1.2786018e-05
1.2799118e-05
1.2812984e-05
1.2827859e-05
1.2844018e-05
1.2861759e-05
1.2881397e-05
1.2903258e-05
1.292767e-05
1.295496e-05
1.2985443e-05
1.3019417e-05
1.3057163e-05
1.309894e-05
1.3144981e-05
1.3195492e-05
1.3250658e-05
1.331064e-05
1.337558e-05
1.3445608e-05
1.3520844e-05
1.360141e-05
1.3687438e-05
1.3779075e-05
1.3876505e-05
1.3979956e-05
1.4089715e-05
1.4206151e-05
1.4329723e-05
1.4461009e-05
1.4600723e-05
1.4749742e-05
1.4909129e-05
1.5080164e-05
1.5264393e-05
1.546367e-05
1.5680204e-05
1.5916651e-05
1.6176195e-05
1.646268e-05
1.6780725e-05
1.7135937e-05
1.7535213e-05
1.7987045e-05
1.8501916e-05
1.9093133e-05
1.9777886e-05
2.0577618e-05
2.1520799e-05
2.2646196e-05
2.4004593e-05
2.5665329e-05
2.7732208e-05
3.0347143e-05
3.3721317e-05
3.8188697e-05
4.4262277e-05
5.2759432e-05
6.4949197e-05
8.3063311e-05
0.00011057854
0.00015332137
0.00021968916
0.00031951977
0.00046166083
0.0006509513
0.00088516001
0.0011552846
0.0014487615
0.0017532431
0.0020587461
0.0023579955
0.0026459913
0.0029194971
0.0031765872
0.0034162898
0.0036382921
0.0038427651
0.0040302556
0.0042010845
0.0043585445
0.0044904823
0.0046802263
1.2388982e-05
1.2400416e-05
1.2412265e-05
1.2424187e-05
1.2436089e-05
1.2447944e-05
1.2459741e-05
1.2471477e-05
1.2483148e-05
1.2494755e-05
1.2506297e-05
1.2517775e-05
1.2529193e-05
1.2540557e-05
1.2551883e-05
1.2563191e-05
1.2574519e-05
1.2585919e-05
1.2597463e-05
1.2609246e-05
1.262139e-05
1.2634041e-05
1.2647371e-05
1.2661579e-05
1.2676882e-05
1.2693517e-05
1.2711735e-05
1.2731793e-05
1.2753955e-05
1.2778483e-05
1.280563e-05
1.2835643e-05
1.2868754e-05
1.290518e-05
1.2945121e-05
1.2988761e-05
1.303627e-05
1.3087803e-05
1.3143506e-05
1.3203518e-05
1.3267979e-05
1.3337037e-05
1.3410854e-05
1.348962e-05
1.3573558e-05
1.3662943e-05
1.3758109e-05
1.3859469e-05
1.3967529e-05
1.4082904e-05
1.4206339e-05
1.4338733e-05
1.4481172e-05
1.4634946e-05
1.4801605e-05
1.4982998e-05
1.5181339e-05
1.5399273e-05
1.5639971e-05
1.5907259e-05
1.620578e-05
1.6541164e-05
1.6920329e-05
1.7351969e-05
1.7846781e-05
1.8418268e-05
1.9084037e-05
1.9866706e-05
2.0795398e-05
2.1910655e-05
2.3266655e-05
2.4937448e-05
2.7031426e-05
2.9705967e-05
3.3192201e-05
3.7847748e-05
4.4252818e-05
5.3300862e-05
6.6479346e-05
8.621325e-05
0.00011644396
0.00016348016
0.00023547302
0.00034107038
0.00048707279
0.00067508902
0.00090023806
0.0011527946
0.0014215201
0.0016963742
0.0019695692
0.0022355018
0.0024903704
0.0027317427
0.0029582301
0.003169251
0.0033642006
0.0035464152
0.0036997066
0.0039259107
1.2191801e-05
1.2202905e-05
1.2214417e-05
1.2226011e-05
1.2237598e-05
1.2249149e-05
1.2260654e-05
1.2272106e-05
1.2283502e-05
1.229484e-05
1.2306118e-05
1.2317333e-05
1.2328485e-05
1.2339572e-05
1.2350595e-05
1.2361558e-05
1.2372469e-05
1.2383341e-05
1.2394198e-05
1.2405075e-05
1.2416021e-05
1.2427101e-05
1.24384e-05
1.2450022e-05
1.246209e-05
1.2474747e-05
1.2488157e-05
1.2502499e-05
1.2517964e-05
1.2534756e-05
1.2553085e-05
1.2573164e-05
1.2595204e-05
1.2619414e-05
1.2645996e-05
1.2675146e-05
1.2707047e-05
1.2741876e-05
1.2779797e-05
1.2820966e-05
1.2865535e-05
1.291365e-05
1.2965458e-05
1.3021116e-05
1.3080791e-05
1.3144673e-05
1.3212981e-05
1.3285973e-05
1.3363961e-05
1.3447315e-05
1.3536485e-05
1.3632011e-05
1.373454e-05
1.384485e-05
1.3963868e-05
1.4092704e-05
1.4232679e-05
1.4385368e-05
1.455265e-05
1.4736767e-05
1.494041e-05
1.516681e-05
1.5419861e-05
1.5704343e-05
1.6026077e-05
1.6392207e-05
1.6811715e-05
1.7295914e-05
1.7858936e-05
1.8519345e-05
1.9301362e-05
2.0236566e-05
2.1368098e-05
2.2755686e-05
2.4481956e-05
2.6665403e-05
2.94848e-05
3.3200933e-05
3.8230107e-05
4.5240803e-05
5.5289593e-05
7.0144353e-05
9.2611449e-05
0.00012740666
0.00018105761
0.00026131719
0.00037548414
0.00052741477
0.00071540096
0.00093249653
0.0011690483
0.0014154955
0.0016639385
0.0019084387
0.0021448204
0.0023703932
0.0025828466
0.0027849912
0.0029562378
0.003215559
1.1991263e-05
1.2002057e-05
1.201325e-05
1.2024529e-05
1.203581e-05
1.2047065e-05
1.2058282e-05
1.2069454e-05
1.2080577e-05
1.2091648e-05
1.2102663e-05
1.2113621e-05
1.2124517e-05
1.213535e-05
1.2146116e-05
1.2156812e-05
1.2167436e-05
1.217799e-05
1.2188476e-05
1.2198902e-05
1.2209283e-05
1.2219642e-05
1.2230013e-05
1.224044e-05
1.2250984e-05
1.2261718e-05
1.2272734e-05
1.2284138e-05
1.229605e-05
1.2308607e-05
1.2321956e-05
1.2336255e-05
1.235167e-05
1.236837e-05
1.238653e-05
1.2406323e-05
1.2427923e-05
1.2451499e-05
1.2477217e-05
1.2505236e-05
1.2535712e-05
1.2568794e-05
1.260463e-05
1.2643365e-05
1.2685149e-05
1.2730137e-05
1.2778496e-05
1.2830413e-05
1.2886098e-05
1.2945796e-05
1.3009792e-05
1.3078428e-05
1.3152104e-05
1.3231302e-05
1.3316594e-05
1.3408659e-05
1.350831e-05
1.3616511e-05
1.3734408e-05
1.3863365e-05
1.4005007e-05
1.4161273e-05
1.4334474e-05
1.4527404e-05
1.474343e-05
1.4986621e-05
1.5261965e-05
1.5575624e-05
1.5935171e-05
1.6350143e-05
1.6832685e-05
1.7398193e-05
1.8066695e-05
1.8864767e-05
1.9827742e-05
2.1003383e-05
2.2459281e-05
2.4289325e-05
2.6631274e-05
2.9693821e-05
3.3788367e-05
3.9418709e-05
4.7391039e-05
5.9039667e-05
7.6495529e-05
0.0001033218
0.00014472333
0.00020741284
0.00029844051
0.00042275714
0.00058083295
0.00076806896
0.00097649825
0.0011973616
0.001422951
0.0016473672
0.001865503
0.0020787486
0.0022616301
0.0025474557
1.1788182e-05
1.1798684e-05
1.1809574e-05
1.1820553e-05
1.1831538e-05
1.1842505e-05
1.185344e-05
1.1864337e-05
1.1875191e-05
1.1885998e-05
1.1896754e-05
1.1907456e-05
1.1918102e-05
1.1928686e-05
1.1939205e-05
1.1949655e-05
1.1960032e-05
1.1970331e-05
1.1980548e-05
1.1990682e-05
1.2000734e-05
1.2010707e-05
1.202061e-05
1.2030458e-05
1.2040275e-05
1.2050093e-05
1.2059955e-05
1.2069914e-05
1.2080039e-05
1.2090407e-05
1.2101108e-05
1.2112246e-05
1.2123931e-05
1.2136285e-05
1.2149438e-05
1.2163525e-05
1.2178686e-05
1.2195065e-05
1.2212807e-05
1.2232058e-05
1.2252961e-05
1.2275659e-05
1.2300292e-05
1.2327001e-05
1.2355924e-05
1.23872e-05
1.2420974e-05
1.2457398e-05
1.2496632e-05
1.2538856e-05
1.2584271e-05
1.2633104e-05
1.2685623e-05
1.2742136e-05
1.2803009e-05
1.2868673e-05
1.2939639e-05
1.3016512e-05
1.3100009e-05
1.319098e-05
1.3290436e-05
1.3399576e-05
1.3519824e-05
1.365288e-05
1.3800782e-05
1.3965968e-05
1.4151377e-05
1.4360586e-05
1.4597936e-05
1.486876e-05
1.5179692e-05
1.5538979e-05
1.5957002e-05
1.6447071e-05
1.7026363e-05
1.7717168e-05
1.8549473e-05
1.9563377e-05
2.0814021e-05
2.2380164e-05
2.4373077e-05
2.6959375e-05
3.0391647e-05
3.5066249e-05
4.1608913e-05
5.1075126e-05
6.5155995e-05
8.6632761e-05
0.00011971093
0.00017012834
0.00024438396
0.00034780533
0.00048222137
0.00064483505
0.00082920186
0.0010276668
0.0012320382
0.0014414418
0.0016250904
0.0019256394
1.1583331e-05
1.1593557e-05
1.1604161e-05
1.1614851e-05
1.1625553e-05
1.1636241e-05
1.1646902e-05
1.165753e-05
1.166812e-05
1.1678668e-05
1.1689168e-05
1.1699619e-05
1.1710017e-05
1.1720356e-05
1.1730634e-05
1.1740845e-05
1.1750985e-05
1.1761048e-05
1.1771028e-05
1.1780922e-05
1.1790723e-05
1.180043e-05
1.181004e-05
1.1819556e-05
1.1828983e-05
1.1838332e-05
1.1847618e-05
1.1856866e-05
1.1866106e-05
1.1875379e-05
1.1884732e-05
1.1894224e-05
1.190392e-05
1.1913897e-05
1.1924239e-05
1.1935038e-05
1.1946395e-05
1.1958417e-05
1.1971216e-05
1.1984909e-05
1.1999616e-05
1.2015459e-05
1.2032562e-05
1.205105e-05
1.2071048e-05
1.2092681e-05
1.2116077e-05
1.2141367e-05
1.2168687e-05
1.2198178e-05
1.2229996e-05
1.2264309e-05
1.2301304e-05
1.2341195e-05
1.2384229e-05
1.2430688e-05
1.2480906e-05
1.2535273e-05
1.2594249e-05
1.2658376e-05
1.2728297e-05
1.280477e-05
1.2888695e-05
1.2981139e-05
1.3083373e-05
1.3196909e-05
1.3323553e-05
1.3465478e-05
1.3625298e-05
1.3806172e-05
1.4011965e-05
1.4247405e-05
1.4518319e-05
1.4831988e-05
1.5197575e-05
1.5626656e-05
1.6134213e-05
1.6739678e-05
1.7468606e-05
1.8355717e-05
1.9448012e-05
2.0811504e-05
2.2540637e-05
2.4774746e-05
2.7720977e-05
3.1707655e-05
3.7249764e-05
4.519404e-05
5.6928908e-05
7.4704977e-05
0.00010201009
0.0001437603
0.00020582897
0.00029352788
0.00040940938
0.00055217932
0.00071561812
0.00089846434
0.0010656709
0.0013614271
1.1377435e-05
1.13874e-05
1.1397732e-05
1.1408149e-05
1.1418579e-05
1.1428998e-05
1.1439394e-05
1.1449761e-05
1.1460094e-05
1.1470388e-05
1.1480639e-05
1.1490843e-05
1.1500997e-05
1.1511096e-05
1.1521137e-05
1.1531114e-05
1.1541022e-05
1.1550856e-05
1.1560611e-05
1.157028e-05
1.1579858e-05
1.1589339e-05
1.1598718e-05
1.1607992e-05
1.1617159e-05
1.162622e-05
1.1635178e-05
1.1644041e-05
1.165282e-05
1.1661533e-05
1.1670202e-05
1.1678853e-05
1.1687523e-05
1.1696251e-05