/*--------------------------------*- C++ -*----------------------------------*\
  =========                 |
  \\      /  F ield         | OpenFOAM: The Open Source CFD Toolbox
   \\    /   O peration     | Website:  https://openfoam.org
    \\  /    A nd           | Version:  12
     \\/     M anipulation  |
\*---------------------------------------------------------------------------*/
FoamFile
{
    format      ascii;
    class       volScalarField;
    location    "700";
    object      k;
}
// * * * * * * * * * * * * * * * * * * * * * * * * * * * * * * * * * * * * * //

dimensions      [0 2 -2 0 0 0 0];

internalField   nonuniform List<scalar> 
13056
(
0.00010959771
8.5411581e-05
7.9474993e-05
7.7183414e-05
7.5959513e-05
7.5159058e-05
7.4593346e-05
7.4178289e-05
7.3865527e-05
7.3624979e-05
7.3437215e-05
7.3289258e-05
7.3172188e-05
7.3079734e-05
7.3007443e-05
7.2952113e-05
7.2911711e-05
7.2884632e-05
7.2871829e-05
7.2870613e-05
7.28955e-05
7.2939184e-05
7.2904258e-05
7.4836561e-05
0.00016790664
0.0002068314
0.00019196799
0.0001768649
0.00016534076
0.00015577972
0.00014757422
0.00014051721
0.00013443086
0.00012913156
0.00012446455
0.00012031508
0.00011660217
0.00011325751
0.00011021726
0.00010743471
0.00010487597
0.00010251106
0.00010031584
9.8270198e-05
9.635668e-05
9.4561011e-05
9.2870816e-05
9.1275269e-05
8.9765459e-05
8.8333225e-05
8.6971209e-05
8.5673417e-05
8.4434356e-05
8.3248913e-05
8.2112984e-05
8.102288e-05
7.9974951e-05
7.8965993e-05
7.7993363e-05
7.7054598e-05
7.614724e-05
7.5269114e-05
7.4418411e-05
7.3593449e-05
7.279251e-05
7.2014005e-05
7.1256631e-05
7.0519194e-05
6.9800481e-05
6.9099323e-05
6.8414684e-05
6.7745676e-05
6.7091445e-05
6.6451124e-05
6.5823873e-05
6.5208973e-05
6.4605776e-05
6.4013643e-05
6.343193e-05
6.286001e-05
6.2297342e-05
6.1743432e-05
6.1197781e-05
6.0659889e-05
6.0129261e-05
5.9605469e-05
5.9088112e-05
5.8576781e-05
5.8071065e-05
5.7570554e-05
5.7074885e-05
5.6583711e-05
5.6096679e-05
5.5613422e-05
5.5133581e-05
5.4656827e-05
5.4182839e-05
5.3711277e-05
5.3241795e-05
5.2774052e-05
5.2307724e-05
5.1842482e-05
5.1377971e-05
5.0913833e-05
5.0449717e-05
4.9985266e-05
4.9520102e-05
4.9053824e-05
4.8586033e-05
4.8116318e-05
4.7644247e-05
4.7169317e-05
4.6691264e-05
4.6219451e-05
4.5768158e-05
4.5341081e-05
4.4936156e-05
4.4551551e-05
4.4185597e-05
4.3836802e-05
4.3503836e-05
4.3185508e-05
4.2880747e-05
4.2588582e-05
4.2308134e-05
4.2038597e-05
4.1779236e-05
4.1529329e-05
4.1288278e-05
4.1055201e-05
4.0830015e-05
4.0610146e-05
4.0399213e-05
4.0183712e-05
3.999757e-05
3.9690455e-05
0.0001096059
8.5400696e-05
7.9453273e-05
7.7156901e-05
7.5930252e-05
7.5127982e-05
7.456097e-05
7.4144941e-05
7.3831429e-05
7.3590292e-05
7.3402056e-05
7.3253716e-05
7.3136332e-05
7.3043617e-05
7.297111e-05
7.29156e-05
7.2875048e-05
7.2847845e-05
7.2834943e-05
7.2833643e-05
7.2858498e-05
7.2902073e-05
7.2866621e-05
7.4792319e-05
0.0018276788
0.0022391809
0.0020809264
0.0019200871
0.0017971289
0.0016949337
0.0016070782
0.0015314052
0.0014660536
0.0014090859
0.0013588628
0.0013141674
0.0012741405
0.0012380561
0.0012052331
0.0011751732
0.001147515
0.001121938
0.0010981842
0.0010760385
0.0010553139
0.0010358575
0.0010175366
0.0010002353
0.00098385783
0.00096831671
0.00095353285
0.00093944187
0.00092598464
0.00091310617
0.00090076234
0.00088891344
0.00087752014
0.00086654794
0.00085596837
0.0008457549
0.00083588099
0.00082632318
0.00081706201
0.00080807931
0.0007993565
0.00079087643
0.00078262507
0.0007745895
0.0007667566
0.00075911374
0.00075164972
0.00074435494
0.00073722017
0.00073023602
0.00072339338
0.00071668448
0.00071010233
0.00070363998
0.00069729045
0.00069104694
0.0006849036
0.00067885508
0.00067289596
0.00066702079
0.00066122423
0.00065550161
0.00064984858
0.00064426072
0.00063873352
0.00063326255
0.00062784385
0.00062247366
0.00061714812
0.00061186323
0.00060661509
0.00060140011
0.00059621479
0.00059105543
0.00058591823
0.00058079948
0.00057569565
0.00057060313
0.00056551805
0.00056043648
0.00055535458
0.00055026846
0.00054517396
0.0005400667
0.00053494229
0.00052979623
0.00052462379
0.00051941942
0.00051418024
0.00050900889
0.00050406192
0.00049937994
0.00049494039
0.00049072324
0.00048671026
0.00048288512
0.00047923328
0.00047574172
0.00047239872
0.00046919366
0.00046611692
0.00046315968
0.0004603139
0.00045757168
0.00045492646
0.0004523686
0.00044989717
0.00044748394
0.00044516864
0.00044280301
0.00044075946
0.00043738774
0.00010961994
8.5343197e-05
7.9361561e-05
7.7050202e-05
7.5814988e-05
7.5007038e-05
7.4435949e-05
7.4016869e-05
7.3701008e-05
7.3458022e-05
7.3268305e-05
7.311876e-05
7.3000385e-05
7.2906848e-05
7.2833651e-05
7.2777561e-05
7.2736519e-05
7.27089e-05
7.2695651e-05
7.2694037e-05
7.2718709e-05
7.276177e-05
7.2725824e-05
7.4634686e-05
0.0039323715
0.004745367
0.004425222
0.0041016755
0.0038532858
0.0036458984
0.0034668103
0.0033119088
0.0031776284
0.0030601772
0.0029563151
0.0028636283
0.0027804137
0.0027052224
0.0026366822
0.0025737891
0.0025158153
0.0024621127
0.0024121588
0.0023655166
0.0023218057
0.0022807147
0.0022419727
0.0022053425
0.0021706285
0.0021376511
0.0021062478
0.0020762861
0.0020476444
0.002020209
0.0019938892
0.0019686028
0.0019442685
0.0019208147
0.0018981826
0.0018763171
0.001855163
0.0018346716
0.0018148023
0.0017955174
0.0017767782
0.0017585488
0.0017407998
0.0017235045
0.0017066353
0.0016901656
0.0016740721
0.0016583347
0.0016429339
0.0016278501
0.001613064
0.0015985592
0.0015843212
0.0015703352
0.0015565865
0.0015430607
0.0015297454
0.0015166293
0.0015037009
0.0014909487
0.0014783612
0.0014659286
0.0014536416
0.0014414908
0.0014294665
0.0014175592
0.0014057605
0.0013940623
0.0013824563
0.001370934
0.0013594868
0.0013481071
0.0013367873
0.0013255193
0.001314295
0.0013031063
0.0012919454
0.0012808046
0.0012696753
0.001258549
0.0012474173
0.0012362716
0.0012251027
0.001213901
0.0012026569
0.0011913604
0.0011800011
0.0011685666
0.0011570505
0.0011456784
0.0011347952
0.0011244907
0.001114716
0.0011054275
0.0010965856
0.0010881548
0.0010801033
0.0010724028
0.0010650278
0.0010579552
0.0010511638
0.0010446345
0.0010383496
0.001032292
0.0010264474
0.0010207944
0.0010153312
0.0010099954
0.0010048751
0.00099964231
0.00099512094
0.00098765944
0.00010964099
8.5238925e-05
7.91986e-05
7.6861547e-05
7.5611651e-05
7.4793955e-05
7.421587e-05
7.3791549e-05
7.3471654e-05
7.3225493e-05
7.3033231e-05
7.2881615e-05
7.2761536e-05
7.2666581e-05
7.2592196e-05
7.2535103e-05
7.249321e-05
7.2464864e-05
7.2451e-05
7.2448823e-05
7.247315e-05
7.2515263e-05
7.2479088e-05
7.4363227e-05
0.0058235957
0.006955823
0.0065144879
0.0060712852
0.0057302072
0.0054443467
0.0051964529
0.0049811411
0.0047937611
0.0046292756
0.0044833394
0.0043527068
0.0042350911
0.0041285351
0.0040311659
0.0039416127
0.0038588847
0.0037820943
0.003710525
0.0036435767
0.0035807252
0.003521541
0.0034656501
0.0034127241
0.0033624923
0.0033147051
0.0032691362
0.0032256016
0.0031839314
0.0031439666
0.0031055805
0.0030686585
0.0030330861
0.0029987629
0.0029656065
0.0029335394
0.0029024837
0.0028723706
0.0028431432
0.0028147482
0.0027871306
0.0027602395
0.0027340335
0.0027084745
0.0026835235
0.0026591425
0.0026352983
0.0026119621
0.0025891065
0.0025667031
0.0025447243
0.0025231469
0.0025019496
0.0024811116
0.0024606115
0.0024404285
0.0024205448
0.0024009441
0.0023816098
0.002362525
0.0023436732
0.0023250399
0.0023066117
0.0022883748
0.0022703151
0.0022524185
0.0022346727
0.0022170659
0.0021995856
0.0021822191
0.0021649541
0.0021477788
0.0021306821
0.0021136519
0.0020966758
0.0020797418
0.0020628382
0.002045953
0.0020290735
0.0020121866
0.0019952794
0.0019783389
0.0019613509
0.0019443007
0.0019271733
0.0019099534
0.0018926247
0.0018751682
0.0018575736
0.0018401858
0.0018235328
0.0018077543
0.0017927767
0.001778535
0.0017649695
0.0017520269
0.0017396597
0.0017278251
0.0017164848
0.0017056038
0.0016951504
0.0016850957
0.001675413
0.0016660763
0.0016570639
0.0016483434
0.0016399123
0.0016316746
0.0016237665
0.0016156814
0.0016086928
0.0015971549
0.00010967088
8.5087743e-05
7.8962526e-05
7.6588266e-05
7.5317096e-05
7.4485272e-05
7.3897038e-05
7.3465116e-05
7.3139367e-05
7.2888596e-05
7.2692638e-05
7.2538015e-05
7.2415458e-05
7.2318441e-05
7.2242325e-05
7.2183767e-05
7.214063e-05
7.2111216e-05
7.2096444e-05
7.2093429e-05
7.2117223e-05
7.2157914e-05
7.2122075e-05
7.3974558e-05
0.0072817278
0.0086904155
0.008165472
0.0076404313
0.007236645
0.0068977722
0.006603279
0.0063468872
0.00612324
0.0059264927
0.005751579
0.0055947093
0.0054532165
0.0053248119
0.005207292
0.0050990431
0.0049989006
0.0049058188
0.0048189524
0.0047375929
0.00466112
0.0045890255
0.0045208665
0.0044562534
0.0043948656
0.0043364062
0.0042806061
0.0042272462
0.0041761243
0.0041270505
0.0040798736
0.0040344573
0.0039906644
0.0039483748
0.0039074898
0.003867917
0.0038295628
0.0037923444
0.0037561938
0.003721047
0.0036868379
0.0036535049
0.0036209985
0.0035892729
0.0035582807
0.0035279762
0.0034983191
0.003469275
0.0034408104
0.0034128911
0.0033854834
0.0033585592
0.0033320929
0.0033060588
0.0032804312
0.0032551844
0.0032302968
0.0032057486
0.0031815193
0.0031575884
0.0031339353
0.0031105425
0.0030873934
0.0030644709
0.0030417576
0.003019236
0.002996891
0.0029747077
0.0029526708
0.0029307644
0.0029089727
0.0028872815
0.0028656764
0.0028441424
0.0028226638
0.0028012252
0.0027798121
0.002758409
0.0027369998
0.0027155677
0.0026940962
0.0026725685
0.0026509666
0.0026292713
0.0026074634
0.0025855228
0.0025634285
0.0025411558
0.002518691
0.0024964745
0.0024751822
0.0024549945
0.0024358193
0.0024175751
0.002400187
0.0023835879
0.0023677182
0.0023525241
0.0023379572
0.0023239734
0.002310533
0.0022975992
0.0022851386
0.002273118
0.0022615101
0.0022502737
0.0022394059
0.0022287832
0.0022185817
0.0022081478
0.0021991255
0.002184224
0.00010971221
8.4889841e-05
7.8651195e-05
7.6227114e-05
7.4927424e-05
7.4076652e-05
7.34748e-05
7.3032676e-05
7.2699066e-05
7.2442103e-05
7.2241179e-05
7.2082512e-05
7.1956623e-05
7.1856829e-05
7.1778379e-05
7.1717844e-05
7.1673022e-05
7.1642158e-05
7.1626147e-05
7.1621983e-05
7.1645026e-05
7.1683763e-05
7.164919e-05
7.3463263e-05
0.0083424291
0.010044665
0.0094628269
0.0088788036
0.0084303318
0.0080538406
0.007726292
0.0074407307
0.0071912957
0.0069715789
0.0067760089
0.0066004129
0.0064418561
0.0062978189
0.0061658665
0.0060442128
0.0059315713
0.0058267851
0.005728918
0.0056371849
0.0055508979
0.0054694929
0.0053924786
0.0053194222
0.0052499677
0.0051837853
0.0051205751
0.0050600936
0.0050021154
0.0049464287
0.0048928652
0.0048412728
0.0047914984
0.0047434079
0.0046968912
0.004651845
0.0046081645
0.0045657573
0.0045245471
0.0044844626
0.0044454294
0.0044073788
0.004370255
0.0043340068
0.0042985812
0.0042639265
0.0042299977
0.004196756
0.0041641638
0.0041321826
0.0041007744
0.0040699074
0.004039553
0.0040096823
0.0039802659
0.0039512748
0.0039226849
0.0038944734
0.0038666174
0.0038390934
0.0038118781
0.0037849515
0.0037582949
0.0037318887
0.0037057131
0.0036797481
0.0036539763
0.0036283808
0.003602944
0.0035776477
0.0035524736
0.0035274054
0.0035024265
0.0034775196
0.0034526664
0.0034278492
0.0034030509
0.0033782538
0.003353439
0.0033285867
0.0033036779
0.003278693
0.0032536105
0.003228408
0.003203063
0.0031775519
0.0031518497
0.0031259273
0.0030997684
0.0030738857
0.0030490677
0.0030255261
0.0030031552
0.0029818612
0.0029615579
0.0029421683
0.0029236234
0.0029058615
0.0028888265
0.0028724678
0.0028567394
0.002841599
0.0028270078
0.0028129274
0.0027993264
0.0027861568
0.0027734156
0.0027609582
0.0027489914
0.0027367485
0.0027261587
0.0027086632
0.00010976842
8.4646129e-05
7.8262608e-05
7.5774689e-05
7.4438401e-05
7.35633e-05
7.2943957e-05
7.248872e-05
7.2145002e-05
7.1880074e-05
7.1672758e-05
7.1508884e-05
7.1378699e-05
7.1275324e-05
7.119386e-05
7.1130769e-05
7.1083762e-05
7.1051013e-05
7.1033381e-05
7.1027708e-05
7.104974e-05
7.108592e-05
7.1053607e-05
7.2823053e-05
0.0090802673
0.011123039
0.01050572
0.0098774836
0.0093955626
0.0089909405
0.0086386377
0.008331192
0.0080623752
0.0078253705
0.0076142366
0.0074245159
0.0072530736
0.0070972216
0.0069543548
0.006822557
0.0067004506
0.0065867968
0.0064805909
0.0063809903
0.0062872565
0.0061987836
0.0061150437
0.0060355722
0.0059599865
0.0058879318
0.0058190856
0.0057531857
0.0056899893
0.0056292681
0.0055708409
0.0055145438
0.0054602117
0.0054076999
0.0053568895
0.0053076692
0.0052599257
0.0052135592
0.0051684875
0.0051246333
0.0050819164
0.0050402622
0.0049996106
0.0049599063
0.0049210917
0.0048831109
0.004845915
0.0048094622
0.0047737118
0.0047386217
0.0047041509
0.0046702649
0.0046369325
0.0046041224
0.0045718026
0.0045399416
0.004508513
0.0044774923
0.0044468544
0.0044165735
0.0043866243
0.004356985
0.0043276352
0.0042985534
0.0042697179
0.0042411068
0.0042127011
0.0041844822
0.0041564308
0.0041285267
0.00410075
0.0040730826
0.0040455064
0.004018002
0.0039905493
0.0039631288
0.0039357215
0.0039083078
0.0038808665
0.0038533759
0.0038258146
0.0037981609
0.0037703909
0.0037424796
0.0037144017
0.0036861308
0.0036576391
0.0036288939
0.0035998768
0.0035711565
0.0035436087
0.0035174695
0.0034926229
0.0034689654
0.0034464023
0.0034248488
0.003404229
0.0033844747
0.0033655243
0.003347322
0.003329817
0.0033129626
0.0032967161
0.0032810351
0.0032658848
0.0032512121
0.0032370138
0.0032231291
0.0032097885
0.0031961376
0.0031843269
0.0031648105
0.00010984389
8.4358725e-05
7.7795423e-05
7.5227951e-05
7.3845968e-05
7.2940471e-05
7.2299261e-05
7.1827622e-05
7.1471253e-05
7.119635e-05
7.0981024e-05
7.0810622e-05
7.0675046e-05
7.0567172e-05
7.0481918e-05
7.0415605e-05
7.0365839e-05
7.0330701e-05
7.0311006e-05
7.0303401e-05
7.0324111e-05
7.0357037e-05
7.032806e-05
7.2046993e-05
0.0095556312
0.011997817
0.011364058
0.010702345
0.010194692
0.0097683377
0.009396819
0.0090723182
0.008788347
0.0085377913
0.0083144341
0.0081136009
0.0079320031
0.0077668267
0.0076153384
0.0074755195
0.0073459223
0.0072252451
0.00711243
0.00700659
0.0069069466
0.0068128613
0.0067237782
0.0066392078
0.0065587466
0.0064820206
0.0064086898
0.0063384769
0.0062711256
0.0062063948
0.0061440928
0.0060840466
0.0060260816
0.0059700447
0.0059158105
0.0058632608
0.0058122758
0.0057627499
0.0057145961
0.0056677327
0.0056220745
0.0055775426
0.0055340732
0.0054916079
0.0054500855
0.0054094467
0.0053696396
0.0053306199
0.0052923444
0.0052547684
0.0052178482
0.0051815472
0.0051458325
0.0051106706
0.0050760275
0.0050418696
0.0050081689
0.0049748993
0.004942034
0.0049095455
0.0048774069
0.0048455949
0.0048140876
0.0047828623
0.0047518955
0.004721164
0.0046906473
0.0046603257
0.0046301783
0.0046001835
0.00457032
0.0045405683
0.004510909
0.0044813212
0.0044517833
0.0044222742
0.0043927736
0.0043632602
0.0043337111
0.0043041029
0.0042744126
0.0042446165
0.0042146889
0.0041846025
0.00415433
0.0041238428
0.0040931106
0.0040620979
0.0040307844
0.0039997843
0.0039700432
0.0039418168
0.0039149806
0.0038894237
0.0038650444
0.0038417516
0.0038194638
0.0037981078
0.0037776175
0.0037579328
0.0037389991
0.0037207663
0.0037031884
0.0036862198
0.0036698231
0.0036539409
0.0036385701
0.0036235367
0.0036090901
0.0035943055
0.003581511
0.0035603662
0.00010994408
8.403151e-05
7.7249567e-05
7.4584829e-05
7.3146845e-05
7.2204064e-05
7.1536015e-05
7.104423e-05
7.0672309e-05
7.0385135e-05
7.015995e-05
6.9981505e-05
6.9839284e-05
6.9725857e-05
6.9635917e-05
6.9565613e-05
6.9512421e-05
6.9474307e-05
6.9452026e-05
6.9441993e-05
6.9461001e-05
6.9489865e-05
6.94654e-05
7.112808e-05
0.0098113173
0.012715426
0.012083754
0.011397204
0.010869601
0.010426201
0.010039469
0.0097013738
0.0094052588
0.0091438
0.0089105775
0.0087007507
0.0085109111
0.0083381521
0.0081796422
0.0080332809
0.0078975649
0.0077711444
0.0076529191
0.0075419664
0.0074374762
0.0073387838
0.0072453109
0.0071565487
0.0070720769
0.0069915061
0.0069144824
0.0068407163
0.0067699405
0.0067019035
0.0066364054
0.0065732656
0.0065123018
0.0064533543
0.006396292
0.0063409915
0.0062873275
0.0062351898
0.0061844874
0.0061351349
0.0060870433
0.00604013
0.0059943283
0.0059495772
0.0059058126
0.0058629722
0.0058210019
0.0057798554
0.0057394874
0.0056998509
0.0056609
0.0056225967
0.0055849064
0.005547794
0.0055112235
0.00547516
0.0054395739
0.0054044379
0.0053697239
0.0053354029
0.0053014465
0.0052678303
0.0052345315
0.005201526
0.0051687889
0.0051362959
0.0051040254
0.0050719567
0.0050400676
0.0050083354
0.0049767375
0.0049452534
0.0049138625
0.0048825428
0.0048512713
0.0048200257
0.0047887845
0.0047575251
0.0047262233
0.004694854
0.0046633931
0.0046318151
0.0046000929
0.0045681973
0.0045360993
0.0045037686
0.0044711726
0.0044382735
0.0044050498
0.004372153
0.0043405872
0.0043106245
0.0042821334
0.0042549965
0.0042291064
0.0042043667
0.0041806913
0.004158003
0.0041362315
0.0041153135
0.0040951911
0.0040758113
0.0040571255
0.0040390854
0.0040216512
0.0040047622
0.0039884153
0.0039724254
0.0039570575
0.0039413288
0.0039277137
0.0039052112
0.00011007552
8.3670759e-05
7.6626942e-05
7.3844925e-05
7.2339225e-05
7.1351318e-05
7.0650756e-05
7.0134542e-05
6.9743749e-05
6.9441671e-05
6.9204501e-05
6.901627e-05
6.8865955e-05
6.8745756e-05
6.8650093e-05
6.8574906e-05
6.8517509e-05
6.847573e-05
6.8450247e-05
6.8437195e-05
6.8454039e-05
6.8477897e-05
6.8459235e-05
7.0059815e-05
0.0098771753
0.013305042
0.012694982
0.011991187
0.011448302
0.010991539
0.010592688
0.010243647
0.0099376744
0.0096673114
0.0094259949
0.0092087592
0.0090121038
0.0088330549
0.0086687082
0.0085168962
0.0083760723
0.0082448495
0.0081220936
0.0080068535
0.0078982936
0.0077957279
0.0076985601
0.0076062664
0.0075184128
0.0074345976
0.0073544554
0.007277687
0.0072040157
0.0071331817
0.0070649782
0.0069992184
0.0069357137
0.0068742989
0.0068148383
0.0067572039
0.006701266
0.0066469105
0.0065940433
0.0065425759
0.0064924158
0.0064434775
0.0063956921
0.0063489963
0.0063033235
0.0062586089
0.0062147966
0.0061718386
0.0061296878
0.0060882955
0.0060476138
0.0060076034
0.0059682285
0.0059294524
0.0058912378
0.0058535481
0.005816353
0.005779624
0.0057433317
0.0057074459
0.0056719371
0.00563678
0.0056019506
0.0055674241
0.0055331743
0.0054991758
0.0054654063
0.005431844
0.0053984659
0.0053652481
0.0053321671
0.0052992014
0.0052663295
0.0052335284
0.0052007738
0.0051680426
0.0051353122
0.005102559
0.0050697574
0.0050368812
0.005003905
0.0049708022
0.0049375441
0.0049041002
0.0048704399
0.0048365313
0.0048023401
0.0047678266
0.0047329678
0.0046984476
0.0046653202
0.0046338717
0.0046039643
0.0045754753
0.0045482924
0.0045223146
0.0044974519
0.0044736233
0.0044507555
0.0044287819
0.0044076422
0.0043872807
0.0043676464
0.0043486889
0.0043303664
0.0043126153
0.0042954322
0.0042786229
0.0042624654
0.0042459277
0.0042316082
0.0042079403
0.0001102459
8.3285818e-05
7.5932213e-05
7.3010312e-05
7.1423578e-05
7.0381601e-05
6.9642042e-05
6.9096496e-05
6.8683016e-05
6.8363006e-05
6.8111401e-05
6.7911373e-05
6.7751287e-05
6.7622904e-05
6.7520312e-05
6.7439199e-05
6.7376685e-05
6.7330428e-05
6.7301014e-05
6.7284239e-05
6.7298355e-05
6.7316103e-05
6.7304653e-05
6.8836774e-05
0.009774621
0.013784221
0.013218006
0.012503988
0.011949856
0.011482803
0.011074366
0.010716523
0.010402527
0.010124852
0.0098768438
0.0096534478
0.0094510944
0.0092667652
0.0090975035
0.0089410878
0.0087959378
0.0086606388
0.0085340294
0.0084151359
0.0083031018
0.008197224
0.0080968922
0.0080015704
0.0079108137
0.0078242102
0.0077413858
0.0076620328
0.0075858667
0.007512621
0.0074420831
0.007374061
0.0073083609
0.0072448131
0.0071832779
0.0071236235
0.0070657164
0.0070094394
0.0069546957
0.0069013941
0.0068494394
0.0067987434
0.0067492353
0.0067008502
0.0066535191
0.0066071751
0.0065617609
0.0065172271
0.006473525
0.0064306042
0.0063884154
0.006346918
0.0063060753
0.0062658493
0.0062262015
0.006187094
0.0061484954
0.0061103767
0.0060727073
0.0060354559
0.0059985918
0.0059620892
0.0059259233
0.0058900682
0.0058544969
0.0058191829
0.0057841034
0.0057492357
0.005714556
0.0056800394
0.0056456614
0.0056114
0.0055772329
0.0055431359
0.0055090841
0.0054750531
0.0054410197
0.0054069594
0.0053728453
0.0053386504
0.005304348
0.0052699108
0.0052353084
0.0052005092
0.0051654814
0.0051301917
0.0050946043
0.0050586774
0.0050223873
0.004986446
0.0049519518
0.0049192028
0.0048880559
0.0048583837
0.0048300693
0.0048030079
0.0047771061
0.0047522796
0.0047284522
0.0047055547
0.0046835243
0.0046623032
0.0046418385
0.0046220776
0.0046029771
0.0045844706
0.0045665549
0.0045490274
0.0045321775
0.0045149305
0.004499992
0.0044753003
0.00011046393
8.2889803e-05
7.5173681e-05
7.2086429e-05
7.0403537e-05
6.9297305e-05
6.8511345e-05
6.7930847e-05
6.7490303e-05
6.7148873e-05
6.6880007e-05
6.6665855e-05
6.6494059e-05
6.635585e-05
6.6244924e-05
6.6156667e-05
6.6087965e-05
6.6036273e-05
6.6002059e-05
6.5980723e-05
6.5991421e-05
6.6001773e-05
6.5999059e-05
6.7455117e-05
0.0095197634
0.014162759
0.013666471
0.012949155
0.012387486
0.011912855
0.011497018
0.011132195
0.010811721
0.010528061
0.010274524
0.010045997
0.0098388618
0.0096500755
0.0094766478
0.0093163139
0.0091674684
0.0090286769
0.0088987571
0.0087767171
0.008661684
0.0085529411
0.0084498669
0.0083519162
0.0082586353
0.0081696041
0.0080844417
0.0080028331
0.0079244877
0.0078491331
0.007776552
0.0077065482
0.0076389233
0.0075735039
0.0075101472
0.007448718
0.0073890795
0.007331112
0.0072747164
0.0072197991
0.0071662627
0.0071140168
0.0070629889
0.0070131126
0.0069643171
0.0069165336
0.0068697035
0.0068237762
0.0067787018
0.0067344284
0.0066909053
0.0066480911
0.006605948
0.0065644372
0.0065235188
0.0064831539
0.0064433105
0.0064039587
0.006365067
0.0063266032
0.0062885356
0.0062508379
0.0062134846
0.0061764489
0.0061397029
0.0061032195
0.006066975
0.0060309464
0.0059951089
0.0059594366
0.0059239046
0.0058884901
0.0058531701
0.0058179196
0.0057827127
0.0057475244
0.0057123308
0.0056771063
0.0056418233
0.0056064537
0.0055709701
0.0055353439
0.005499544
0.0054635374
0.0054272913
0.0053907711
0.0053539395
0.0053167534
0.0052791879
0.0052419804
0.0052062684
0.0051723608
0.0051401097
0.0051093833
0.0050800609
0.0050520343
0.0050252067
0.0049994911
0.0049748087
0.0049510878
0.0049282636
0.0049062765
0.0048850714
0.0048645941
0.0048447997
0.0048256195
0.0048070501
0.0047888818
0.0047714134
0.0047535332
0.0047380406
0.0047124324
0.00011073961
8.2499716e-05
7.4364214e-05
7.1083048e-05
6.9286896e-05
6.8104842e-05
6.7264041e-05
6.664217e-05
6.6169538e-05
6.5802678e-05
6.5513295e-05
6.5282331e-05
6.5096574e-05
6.4946633e-05
6.4825737e-05
6.4728912e-05
6.4652764e-05
6.4594507e-05
6.4554463e-05
6.4527568e-05
6.453401e-05
6.4535471e-05
6.4543097e-05
6.591396e-05
0.009126805
0.014444214
0.014049509
0.013336116
0.012770531
0.012290835
0.011869573
0.011499392
0.011173795
0.01088531
0.010627247
0.010394472
0.010183336
0.0099907909
0.009813829
0.0096501531
0.0094981399
0.0093563429
0.009223564
0.0090987977
0.0089811586
0.0088699189
0.008764449
0.0086641969
0.008568702
0.0084775379
0.0083903181
0.0083067221
0.0082264537
0.0081492361
0.0080748481
0.0080030897
0.007933759
0.0078666795
0.0078017057
0.0077386993
0.007677521
0.0076180488
0.0075601818
0.0075038244
0.0074488772
0.0073952479
0.0073428628
0.007291654
0.0072415492
0.0071924778
0.0071443804
0.0070972054
0.0070509014
0.0070054157
0.0069606959
0.0069167003
0.0068733903
0.0068307259
0.0067886662
0.0067471714
0.0067062091
0.0066657485
0.0066257574
0.0065862028
0.006547052
0.0065082783
0.0064698557
0.0064317565
0.0063939522
0.0063564147
0.0063191202
0.0062820448
0.0062451631
0.0062084485
0.0061718754
0.0061354204
0.0060990599
0.0060627682
0.0060265185
0.0059902854
0.0059540441
0.0059177683
0.0058814296
0.0058449989
0.0058084482
0.0057717482
0.0057348664
0.0056977689
0.005660422
0.00562279
0.0055848344
0.0055465104
0.0055077923
0.0054694406
0.0054326282
0.0053976738
0.0053644251
0.0053327464
0.0053025133
0.0052736144
0.0052459503
0.0052194314
0.0051939763
0.0051695112
0.0051459696
0.0051232898
0.0051014153
0.0050802901
0.005059868
0.005040078
0.0050209169
0.0050021684
0.0049841396
0.0049656859
0.0049496899
0.004923249
0.00011108388
8.2136958e-05
7.3522189e-05
7.0015301e-05
6.8086662e-05
6.6815724e-05
6.5910511e-05
6.523995e-05
6.4729488e-05
6.43326e-05
6.401895e-05
6.3768074e-05
6.3565757e-05
6.3401873e-05
6.3269101e-05
6.3162045e-05
6.3076978e-05
6.3010825e-05
6.2963733e-05
6.2930094e-05
6.2931264e-05
6.2922114e-05
6.294169e-05
6.4217807e-05
0.008609359
0.014627405
0.01437304
0.013671414
0.013105652
0.012623334
0.012198511
0.011824476
0.011495
0.011202734
0.010941048
0.010704811
0.010490366
0.010294675
0.010114731
0.0099482144
0.0097934904
0.0096491076
0.0095138574
0.0093867247
0.0092668147
0.0091533917
0.0090458202
0.0089435439
0.0088460968
0.0087530479
0.008664007
0.0085786485
0.0084966719
0.008417797
0.0083417992
0.0082684757
0.0081976214
0.0081290575
0.0080626362
0.0079982167
0.0079356571
0.0078748341
0.0078156451
0.0077579925
0.0077017755
0.0076469001
0.0075932915
0.0075408809
0.0074895942
0.0074393596
0.0073901168
0.0073418134
0.0072943971
0.0072478138
0.0072020102
0.0071569439
0.0071125758
0.007068865
0.0070257697
0.0069832491
0.0069412705
0.0068998025
0.0068588122
0.0068182656
0.0067781296
0.0067383769
0.006698981
0.0066599136
0.0066211454
0.0065826478
0.0065443963
0.0065063669
0.0064685333
0.0064308683
0.0063933455
0.0063559413
0.0063186316
0.0062813898
0.0062441884
0.0062070014
0.0061698036
0.0061325679
0.0060952652
0.0060578655
0.0060203402
0.0059826592
0.0059447892
0.0059066952
0.0058683426
0.0058296949
0.0057907122
0.0057513486
0.0057115774
0.0056721801
0.0056343622
0.0055984516
0.0055642914
0.0055317426
0.0055006774
0.0054709817
0.0054425533
0.0054153002
0.0053891389
0.0053639938
0.0053397962
0.005316483
0.0052939963
0.0052722784
0.0052512819
0.0052309339
0.0052112311
0.0051919512
0.0051734087
0.0051544298
0.0051379711
0.0051107646
0.00011150828
8.1827572e-05
7.2672389e-05
6.8904692e-05
6.6822155e-05
6.5447699e-05
6.4467293e-05
6.373976e-05
6.3184938e-05
6.2752772e-05
6.2410564e-05
6.2136213e-05
6.1914337e-05
6.1733954e-05
6.1587099e-05
6.1467876e-05
6.1372168e-05
6.1296561e-05
6.1240983e-05
6.1199204e-05
6.1193877e-05
6.117216e-05
6.1205159e-05
6.2376411e-05
0.0079808697
0.014707487
0.01464056
0.013959476
0.013397604
0.012915147
0.012488596
0.012112155
0.011779981
0.011484919
0.011220447
0.010981473
0.010764352
0.010566073
0.010383646
0.010214738
0.010057711
0.0099111161
0.0097737382
0.0096445565
0.0095226703
0.0094073386
0.0092979224
0.0091938632
0.0090946915
0.0089999728
0.0089093146
0.0088223875
0.0087388877
0.008658532
0.0085810936
0.0085063671
0.0084341449
0.0083642466
0.0082965224
0.0082308293
0.0081670234
0.0081049802
0.0080445956
0.0079857707
0.0079284031
0.0078723977
0.0078176786
0.0077641761
0.0077118151
0.0076605221
0.0076102366
0.0075609052
0.0075124748
0.0074648903
0.0074180974
0.0073720533
0.0073267184
0.007282051
0.0072380083
0.007194549
0.0071516397
0.007109249
0.0070673431
0.0070258871
0.0069848475
0.0069441965
0.0069039073
0.0068639511
0.0068242976
0.0067849178
0.0067457871
0.0067068807
0.0066681719
0.0066296327
0.0065912364
0.0065529589
0.0065147755
0.0064766591
0.0064385815
0.0064005162
0.0063624376
0.0063243179
0.0062861271
0.0062478347
0.0062094115
0.0061708267
0.0061320459
0.0060930336
0.0060537542
0.0060141704
0.0059742411
0.0059339192
0.0058931772
0.0058528161
0.0058140714
0.0057772793
0.0057422791
0.0057089282
0.0056770961
0.0056466658
0.0056175329
0.005589603
0.0055627906
0.0055370182
0.0055122156
0.0054883181
0.0054652665
0.0054430015
0.0054214747
0.0054006113
0.005380408
0.0053606371
0.0053416193
0.0053221552
0.0053052672
0.0052773501
0.0001120244
8.1602001e-05
7.1846723e-05
6.7780014e-05
6.5520049e-05
6.4025872e-05
6.2958255e-05
6.2164462e-05
6.1557918e-05
6.1084525e-05
6.0708875e-05
6.0406983e-05
6.0162115e-05
5.9962296e-05
5.9798811e-05
5.9665183e-05
5.9556834e-05
5.9469953e-05
5.940421e-05
5.9352653e-05
5.9339366e-05
5.93029e-05
5.9350415e-05
6.0405947e-05
0.0072556769
0.014676243
0.014853539
0.014203061
0.01364972
0.013169751
0.012743344
0.012365946
0.012032235
0.011735334
0.011468882
0.011227864
0.011008665
0.010808321
0.010623876
0.010452994
0.010294042
0.010145576
0.010006384
0.0098754419
0.0097518462
0.0096348533
0.0095238232
0.0094181972
0.0093175037
0.0092213065
0.009129212
0.009040888
0.008956028
0.0088743473
0.008795617
0.0087196297
0.0086461763
0.0085750748
0.0085061739
0.0084393288
0.0083743941
0.0083112442
0.008249774
0.0081898832
0.0081314684
0.0080744332
0.0080187013
0.0079642021
0.0079108593
0.0078585984
0.0078073583
0.0077570854
0.0077077254
0.0076592223
0.0076115213
0.0075645789
0.0075183553
0.007472808
0.0074278936
0.0073835698
0.0073398033
0.0072965621
0.0072538118
0.0072115169
0.0071696432
0.0071281628
0.0070870486
0.0070462709
0.0070057991
0.0069656036
0.0069256594
0.0068859416
0.0068464228
0.0068070742
0.0067678689
0.0067287825
0.0066897897
0.0066508629
0.0066119732
0.0065730937
0.0065341984
0.006495259
0.0064562445
0.0064171241
0.006377868
0.0063384446
0.006298819
0.0062589545
0.0062188151
0.0061783626
0.0061375548
0.0060963436
0.0060547005
0.0060134447
0.0059738398
0.0059362296
0.0059004497
0.0058663545
0.0058338105
0.0058026983
0.0057729113
0.005744353
0.005716936
0.0056905811
0.0056652165
0.0056407762
0.0056171996
0.0055944261
0.0055724062
0.0055510634
0.0055303943
0.0055101666
0.0054907059
0.0054707904
0.0054535015
0.0054249197
0.00011264329
8.1494421e-05
7.1084508e-05
6.6678005e-05
6.4215235e-05
6.2583697e-05
6.1415677e-05
6.0545347e-05
5.9878878e-05
5.9357596e-05
5.8943008e-05
5.8608977e-05
5.833722e-05
5.8114619e-05
5.7931592e-05
5.778099e-05
5.7657701e-05
5.7557445e-05
5.7479588e-05
5.7416358e-05
5.7393377e-05
5.7339788e-05
5.7402158e-05
5.8330307e-05
0.0064503298
0.014523433
0.015010836
0.014403482
0.01386421
0.013389613
0.012965328
0.012588473
0.01225441
0.011956631
0.011689001
0.011446621
0.011225929
0.011024028
0.010838012
0.010665555
0.010505034
0.010355022
0.01021431
0.010081876
0.0099568194
0.0098383948
0.0097259638
0.0096189697
0.0095169405
0.0094194395
0.0093260736
0.0092365085
0.0091504363
0.0090675713
0.008987683
0.0089105631
0.0088360008
0.0087638136
0.0086938491
0.0086259607
0.0085600018