/*--------------------------------*- C++ -*----------------------------------*\
  =========                 |
  \\      /  F ield         | OpenFOAM: The Open Source CFD Toolbox
   \\    /   O peration     | Website:  https://openfoam.org
    \\  /    A nd           | Version:  12
     \\/     M anipulation  |
\*---------------------------------------------------------------------------*/
FoamFile
{
    format      ascii;
    class       volScalarField;
    location    "700";
    object      nut;
}
// * * * * * * * * * * * * * * * * * * * * * * * * * * * * * * * * * * * * * //

dimensions      [0 2 -1 0 0 0 0];

internalField   nonuniform List<scalar> 
7480
(
2.2901017e-06
3.6663471e-06
4.9335913e-06
5.9889365e-06
6.807501e-06
7.403049e-06
7.8070795e-06
8.0572433e-06
8.1906059e-06
8.2395239e-06
8.2299704e-06
8.1815446e-06
8.1083852e-06
8.0203457e-06
7.924118e-06
7.8242023e-06
7.7237393e-06
7.625112e-06
7.5301235e-06
7.4402836e-06
7.3569647e-06
7.2814605e-06
7.2149395e-06
7.1583484e-06
7.1123014e-06
7.0767933e-06
7.0506864e-06
7.0321221e-06
7.0184566e-06
7.0067994e-06
6.9947702e-06
6.9809809e-06
6.9650668e-06
6.947454e-06
6.9288249e-06
6.9097215e-06
6.8903705e-06
6.8707372e-06
6.8506956e-06
6.8301923e-06
6.8093191e-06
6.7882682e-06
6.7672405e-06
6.7463667e-06
6.7256934e-06
6.705224e-06
6.6849603e-06
6.6649144e-06
6.6450995e-06
6.6255233e-06
6.6061856e-06
6.5870806e-06
6.5682018e-06
6.5495465e-06
6.5311122e-06
6.5128929e-06
6.4948808e-06
6.4770718e-06
6.4594651e-06
6.4420534e-06
6.4248296e-06
6.4077878e-06
6.3909226e-06
6.3742296e-06
6.3577058e-06
6.3413475e-06
6.3251513e-06
6.3091139e-06
6.2932313e-06
6.2775001e-06
6.2619168e-06
6.2464779e-06
6.2311801e-06
6.21602e-06
6.2009945e-06
6.1861006e-06
6.1713352e-06
6.1566955e-06
6.1421785e-06
6.1277816e-06
6.113502e-06
6.0993371e-06
6.0852843e-06
6.0713409e-06
6.0575046e-06
6.0437728e-06
6.0301429e-06
6.0166123e-06
6.0031784e-06
5.9898376e-06
5.9765878e-06
5.9634213e-06
5.950342e-06
5.9373188e-06
5.9243989e-06
5.9114196e-06
5.8986963e-06
5.8852641e-06
5.873933e-06
5.8529159e-06
9.0853105e-06
2.6357168e-06
1.2440888e-06
9.3586257e-07
9.4892951e-07
1.0696122e-06
1.2327082e-06
1.4165552e-06
1.6085824e-06
1.8014113e-06
1.9943834e-06
2.1892251e-06
2.3873696e-06
2.5942915e-06
2.8208966e-06
3.0832998e-06
3.4096183e-06
3.8222999e-06
4.2915485e-06
4.8150042e-06
5.3969469e-06
6.0403967e-06
6.7435047e-06
7.5070703e-06
8.3148518e-06
9.1374709e-06
9.9407972e-06
1.0688717e-05
1.1347857e-05
1.1903034e-05
1.236004e-05
1.273796e-05
1.3060173e-05
1.3345462e-05
1.3603841e-05
1.3836862e-05
1.4042088e-05
1.4218169e-05
1.4367522e-05
1.4496071e-05
1.4610758e-05
1.4716824e-05
1.4817092e-05
1.4911736e-05
1.5000284e-05
1.5082825e-05
1.5160112e-05
1.5233006e-05
1.5302014e-05
1.536726e-05
1.5428737e-05
1.5486551e-05
1.5540918e-05
1.5592033e-05
1.5639989e-05
1.568485e-05
1.5726725e-05
1.5765742e-05
1.5801913e-05
1.5835496e-05
1.5866527e-05
1.589507e-05
1.5921221e-05
1.5945092e-05
1.5966782e-05
1.5986381e-05
1.600398e-05
1.6019656e-05
1.6033484e-05
1.6045541e-05
1.6055897e-05
1.606462e-05
1.6071781e-05
1.6077442e-05
1.6081668e-05
1.6084519e-05
1.6086055e-05
1.6086332e-05
1.6085405e-05
1.6083325e-05
1.6080143e-05
1.6075908e-05
1.6070666e-05
1.6064463e-05
1.6057342e-05
1.6049344e-05
1.604051e-05
1.6030877e-05
1.6020483e-05
1.6009364e-05
1.5997551e-05
1.5985089e-05
1.5971982e-05
1.5958328e-05
1.594399e-05
1.5929406e-05
1.5913725e-05
1.5898296e-05
1.5883713e-05
1.5853804e-05
6.8094276e-05
3.1356712e-05
1.5498183e-05
8.7881307e-06
5.6024489e-06
3.8849158e-06
2.8678669e-06
2.2256914e-06
1.8008689e-06
1.5098835e-06
1.3055469e-06
1.1596299e-06
1.0544527e-06
9.7872421e-07
9.2540604e-07
8.9010658e-07
8.7240572e-07
8.6746159e-07
9.0722896e-07
1.0018319e-06
1.15599e-06
1.375779e-06
1.6690681e-06
2.0244738e-06
2.4695949e-06
3.0438428e-06
3.8247623e-06
4.7874224e-06
5.8941432e-06
7.1029923e-06
8.3718105e-06
9.6479162e-06
1.0869319e-05
1.1987014e-05
1.2974195e-05
1.3830147e-05
1.4574697e-05
1.5237668e-05
1.58464e-05
1.6417849e-05
1.6957096e-05
1.7461993e-05
1.7928989e-05
1.8359004e-05
1.8757064e-05
1.9129616e-05
1.9481696e-05
1.9815803e-05
2.0132717e-05
2.0433006e-05
2.0717824e-05
2.0988673e-05
2.124682e-05
2.1493064e-05
2.1727937e-05
2.1951974e-05
2.2165761e-05
2.2369841e-05
2.2564621e-05
2.2750277e-05
2.2927296e-05
2.3096122e-05
2.3257118e-05
2.3410613e-05
2.3556907e-05
2.3696278e-05
2.3828991e-05
2.3955289e-05
2.4075405e-05
2.4189561e-05
2.4297969e-05
2.4400833e-05
2.4498349e-05
2.4590709e-05
2.4678096e-05
2.4760687e-05
2.4838655e-05
2.4912165e-05
2.4981379e-05
2.5046451e-05
2.5107531e-05
2.5164766e-05
2.5218297e-05
2.5268261e-05
2.5314789e-05
2.535801e-05
2.5398047e-05
2.5435023e-05
2.5469052e-05
2.550025e-05
2.5528722e-05
2.5554596e-05
2.5577926e-05
2.5598957e-05
2.5617473e-05
2.5634358e-05
2.5647899e-05
2.5662299e-05
2.5669781e-05
2.5681499e-05
0.00011757471
9.1379259e-05
6.5521166e-05
4.6791995e-05
3.4378565e-05
2.6120038e-05
2.0457749e-05
1.6448174e-05
1.3526328e-05
1.1344149e-05
9.6795175e-06
8.3853705e-06
7.3610493e-06
6.5363582e-06
5.8602633e-06
5.2953071e-06
4.8124937e-06
4.3888061e-06
4.0070939e-06
3.6582001e-06
3.3223776e-06
3.0188191e-06
2.7218098e-06
2.4400935e-06
2.1774001e-06
1.9469927e-06
1.7618364e-06
1.64238e-06
1.6728377e-06
1.8856525e-06
2.2612733e-06
2.8130773e-06
3.5827896e-06
4.6521438e-06
5.9577852e-06
7.4033057e-06
8.9298111e-06
1.0461652e-05
1.1923095e-05
1.3264189e-05
1.4467794e-05
1.55466e-05
1.6530508e-05
1.7450242e-05
1.8325606e-05
1.9162456e-05
1.995812e-05
2.0709359e-05
2.1417255e-05
2.2086928e-05
2.272425e-05
2.3333131e-05
2.3915264e-05
2.4471565e-05
2.5003365e-05
2.5512433e-05
2.6000394e-05
2.6468428e-05
2.6917441e-05
2.7348225e-05
2.776165e-05
2.8158546e-05
2.8539638e-05
2.8905589e-05
2.925702e-05
2.9594502e-05
2.9918563e-05
3.0229693e-05
3.0528352e-05
3.0814975e-05
3.1089974e-05
3.135374e-05
3.1606649e-05
3.1849059e-05
3.2081317e-05
3.2303754e-05
3.2516692e-05
3.2720441e-05
3.2915301e-05
3.3101561e-05
3.3279502e-05
3.3449399e-05
3.3611516e-05
3.376611e-05
3.3913431e-05
3.4053723e-05
3.418722e-05
3.4314154e-05
3.4434747e-05
3.454922e-05
3.4657778e-05
3.4760653e-05
3.4857986e-05
3.4950148e-05
3.5036929e-05
3.5119578e-05
3.519557e-05
3.5272604e-05
3.5329417e-05
3.5430115e-05
0.00013059648
0.00012254389
0.00010923148
9.4043466e-05
7.9768644e-05
6.7549935e-05
5.7497271e-05
4.9333661e-05
4.2709095e-05
3.7308293e-05
3.287489e-05
2.920754e-05
2.6149118e-05
2.3575696e-05
2.1391328e-05
1.9520659e-05
1.7903031e-05
1.6489226e-05
1.5238992e-05
1.4117976e-05
1.3097762e-05
1.2154333e-05
1.1265276e-05
1.0410169e-05
9.5674055e-06
8.7290907e-06
7.8635007e-06
6.9999728e-06
6.121191e-06
5.2795477e-06
4.4995471e-06
3.8063719e-06
3.2410448e-06
2.8164461e-06
2.5962406e-06
2.6894202e-06
3.0257997e-06
3.6306144e-06
4.5505687e-06
5.8267428e-06
7.3333733e-06
8.980592e-06
1.0681183e-05
1.2344823e-05
1.3910769e-05
1.5355261e-05
1.6687395e-05
1.793396e-05
1.9121338e-05
2.0263736e-05
2.1362775e-05
2.2414845e-05
2.3418604e-05
2.4377225e-05
2.5295905e-05
2.6178663e-05
2.7027496e-05
2.7843571e-05
2.8628379e-05
2.9383706e-05
3.0111168e-05
3.0812029e-05
3.1487388e-05
3.2138328e-05
3.2765887e-05
3.3370992e-05
3.3954479e-05
3.4517131e-05
3.5059682e-05
3.5582818e-05
3.6087179e-05
3.6573373e-05
3.7041978e-05
3.7493542e-05
3.7928591e-05
3.8347628e-05
3.8751137e-05
3.9139585e-05
3.9513423e-05
3.9873087e-05
4.0219e-05
4.0551572e-05
4.0871203e-05
4.1178283e-05
4.1473189e-05
4.1756291e-05
4.2027946e-05
4.2288508e-05
4.2538317e-05
4.2777712e-05
4.300701e-05
4.3226563e-05
4.343661e-05
4.3637656e-05
4.3829518e-05
4.4013817e-05
4.4187052e-05
4.4361578e-05
4.4496485e-05
4.4736801e-05
0.00013365342
0.00013170447
0.00012732082
0.00012047411
0.00011197056
0.00010280734
9.374631e-05
8.5229651e-05
7.7456188e-05
7.0477772e-05
6.4268941e-05
5.8768473e-05
5.3904134e-05
4.9601076e-05
4.5788498e-05
4.2402216e-05
3.938494e-05
3.6685992e-05
3.4260734e-05
3.2068942e-05
3.0075479e-05
2.8247634e-05
2.6556227e-05
2.4973457e-05
2.3474275e-05
2.2037751e-05
2.0637282e-05
1.9250077e-05
1.7851512e-05
1.643003e-05
1.4976261e-05
1.3482504e-05
1.1972841e-05
1.0447271e-05
8.9446283e-06
7.5489361e-06
6.2970721e-06
5.2391341e-06
4.4242543e-06
3.852384e-06
3.6796742e-06
3.8589799e-06
4.3853701e-06
5.2989625e-06
6.6243689e-06
8.2068629e-06
9.9618366e-06
1.1783852e-05
1.3582072e-05
1.5298732e-05
1.691612e-05
1.8446385e-05
1.9912119e-05
2.1329256e-05
2.2701614e-05
2.4026147e-05
2.5300834e-05
2.6527779e-05
2.7711126e-05
2.8854078e-05
2.9958262e-05
3.1024863e-05
3.2055415e-05
3.3051614e-05
3.4014914e-05
3.4946522e-05
3.5847563e-05
3.6719137e-05
3.7562258e-05
3.8377853e-05
3.9166795e-05
3.9929907e-05
4.0667969e-05
4.1381716e-05
4.207185e-05
4.273904e-05
4.3383929e-05
4.4007136e-05
4.4609256e-05
4.5190865e-05
4.5752522e-05
4.6294771e-05
4.6818141e-05
4.7323146e-05
4.781029e-05
4.8280063e-05
4.8732945e-05
4.9169408e-05
4.9589909e-05
4.9994906e-05
5.038483e-05
5.0760148e-05
5.1121206e-05
5.1468638e-05
5.1802295e-05
5.2124204e-05
5.2429651e-05
5.2736916e-05
5.2979428e-05
5.3410688e-05
0.00013484715
0.00013433473
0.00013309618
0.00013074073
0.00012713096
0.00012241157
0.00011689249
0.00011091479
0.0001047704
9.8675484e-05
9.277454e-05
8.7155225e-05
8.1864786e-05
7.6922603e-05
7.232976e-05
6.8075892e-05
6.4143756e-05
6.0512248e-05
5.7158401e-05
5.4058247e-05
5.1187908e-05
4.8523553e-05
4.6041837e-05
4.3719787e-05
4.1534711e-05
3.9464948e-05
3.7488259e-05
3.5581082e-05
3.3718817e-05
3.187719e-05
3.0036037e-05
2.8174514e-05
2.6282106e-05
2.4343852e-05
2.2345895e-05
2.028673e-05
1.8192393e-05
1.6069811e-05
1.3978457e-05
1.1945884e-05
1.0061704e-05
8.3794343e-06
6.9595196e-06
5.8665444e-06
5.1018167e-06
4.8632945e-06
5.0338484e-06
5.6432948e-06
6.7487123e-06
8.2282071e-06
9.9680578e-06
1.1862151e-05
1.3803255e-05
1.5711781e-05
1.7549986e-05
1.9316019e-05
2.1024542e-05
2.2687428e-05
2.4306519e-05
2.5878203e-05
2.7400497e-05
2.887508e-05
3.0304868e-05
3.169181e-05
3.3036971e-05
3.4341472e-05
3.560672e-05
3.6834072e-05
3.8024681e-05
3.9179614e-05
4.029992e-05
4.1386594e-05
4.2440564e-05
4.3462711e-05
4.4453879e-05
4.541487e-05
4.6346458e-05
4.7249381e-05
4.8124356e-05
4.8972075e-05
4.9793211e-05
5.0588416e-05
5.1358329e-05
5.2103573e-05
5.2824755e-05
5.3522472e-05
5.419731e-05
5.4849844e-05
5.5480638e-05
5.6090253e-05
5.6679225e-05
5.7248126e-05
5.7797403e-05
5.8327811e-05
5.8839224e-05
5.9334109e-05
5.9806313e-05
6.0281207e-05
6.0661056e-05
6.1334352e-05
0.00013588331
0.00013563758
0.00013521942
0.00013444654
0.00013313565
0.0001311683
0.00012852252
0.00012526311
0.0001215077
0.0001173926
0.00011304891
0.00010858998
0.00010410735
9.9671266e-05
9.5333268e-05
9.1129487e-05
8.7083815e-05
8.3210651e-05
7.9517154e-05
7.6004904e-05
7.2671299e-05
6.951052e-05
6.6514275e-05
6.3672344e-05
6.0972892e-05
5.8402871e-05
5.5948193e-05
5.3593444e-05
5.1321745e-05
4.9114909e-05
4.695449e-05
4.4823793e-05
4.2694577e-05
4.0543616e-05
3.8353367e-05
3.6109865e-05
3.3802673e-05
3.1419475e-05
2.8967181e-05
2.644452e-05
2.387873e-05
2.1278621e-05
1.8686869e-05
1.6165866e-05
1.3749236e-05
1.1559605e-05
9.6324276e-06
8.0676353e-06
6.881299e-06
6.2427024e-06
6.1344562e-06
6.5377728e-06
7.5041029e-06
8.9180314e-06
1.0661134e-05
1.2618956e-05
1.467387e-05
1.6734727e-05
1.8754304e-05
2.0723292e-05
2.2648818e-05
2.4535587e-05
2.6380944e-05
2.8180311e-05
2.9932162e-05
3.1637684e-05
3.3298273e-05
3.4914635e-05
3.6487396e-05
3.8017495e-05
3.9505971e-05
4.0953759e-05
4.2361752e-05
4.3730849e-05
4.5061928e-05
4.6355835e-05
4.7613385e-05
4.8835377e-05
5.0022585e-05
5.1175763e-05
5.2295648e-05
5.3382961e-05
5.4438408e-05
5.5462682e-05
5.6456464e-05
5.7420424e-05
5.8355224e-05
5.9261517e-05
6.0139946e-05
6.0991154e-05
6.181576e-05
6.261442e-05
6.3387665e-05
6.4136354e-05
6.4860371e-05
6.5562639e-05
6.6235366e-05
6.6912033e-05
6.7458779e-05
6.8424525e-05
0.00013704475
0.00013683505
0.00013658584
0.00013624496
0.0001357304
0.00013494912
0.00013382097
0.00013229691
0.00013036533
0.00012804782
0.00012538948
0.00012244833
0.0001192866
0.00011596469
0.00011253763
0.00010905338
0.00010555236
0.00010206773
9.8625956e-05
9.5247573e-05
9.1947916e-05
8.8737848e-05
8.5624383e-05
8.2611222e-05
7.9699173e-05
7.6886516e-05
7.4169373e-05
7.1541898e-05
6.8996307e-05
6.6523005e-05
6.4110709e-05
6.1748117e-05
5.9419614e-05
5.7107557e-05
5.4794609e-05
5.2464608e-05
5.0102581e-05
4.7694599e-05
4.5221005e-05
4.2664372e-05
4.0021221e-05
3.7290751e-05
3.445334e-05
3.156722e-05
2.8598798e-05
2.5612991e-05
2.2626379e-05
1.9705356e-05
1.6883184e-05
1.4276791e-05
1.1963006e-05
1.0045982e-05
8.5629212e-06
7.6956743e-06
7.4331338e-06
7.7647686e-06
8.7245733e-06
1.0161671e-05
1.1976884e-05
1.4038297e-05
1.6218529e-05
1.8425288e-05
2.0613637e-05
2.2772809e-05
2.4902697e-05
2.6999794e-05
2.9057563e-05
3.1071522e-05
3.3040484e-05
3.4964489e-05
3.6843428e-05
3.8677241e-05
4.0466259e-05
4.2211028e-05
4.3912117e-05
4.5570137e-05
4.7185748e-05
4.8759634e-05
5.0292488e-05
5.1785006e-05
5.3237892e-05
5.4651845e-05
5.6027566e-05
5.736575e-05
5.866709e-05
5.9932279e-05
6.1162004e-05
6.2356954e-05
6.3517809e-05
6.4645258e-05
6.5739968e-05
6.680265e-05
6.7833889e-05
6.8834619e-05
6.9804716e-05
7.0747558e-05
7.1653542e-05
7.2565133e-05
7.3307856e-05
7.4615485e-05
0.00013836311
0.0001381543
0.00013793148
0.00013768547
0.00013739193
0.00013701201
0.00013649753
0.00013579952
0.00013487671
0.00013370147
0.00013226208
0.0001305619
0.00012861652
0.00012645019
0.00012409233
0.00012157469
0.00011892911
0.00011618606
0.00011337373
0.0001105174
0.00010763928
0.0001047584
0.0001018907
9.9049127e-05
9.6243827e-05
9.3482274e-05
9.0769492e-05
8.8108254e-05
8.5499175e-05
8.2940853e-05
8.0429893e-05
7.7961631e-05
7.5529228e-05
7.3123467e-05
7.0733372e-05
6.8347004e-05
6.5951878e-05
6.3535765e-05
6.1084194e-05
5.858082e-05
5.6012237e-05
5.3369401e-05
5.0637307e-05
4.7823671e-05
4.4897584e-05
4.1866281e-05
3.8729299e-05
3.5512135e-05
3.2213959e-05
2.8886951e-05
2.5562887e-05
2.2309301e-05
1.9168099e-05
1.6267323e-05
1.3699513e-05
1.1575335e-05
9.9515013e-06
9.0644016e-06
8.8136092e-06
9.2580342e-06
1.034014e-05
1.1930318e-05
1.3907663e-05
1.6125743e-05
1.8457082e-05
2.0821828e-05
2.3185619e-05
2.5536911e-05
2.7867482e-05
3.0167804e-05
3.2430453e-05
3.4651657e-05
3.6829605e-05
3.8962955e-05
4.1050759e-05
4.3092605e-05
4.5088423e-05
4.7038312e-05
4.8942511e-05
5.0801377e-05
5.2615348e-05
5.4384913e-05
5.6110608e-05
5.7793002e-05
5.9432691e-05
6.1030289e-05
6.2586429e-05
6.4101758e-05
6.5576933e-05
6.7012626e-05
6.8409503e-05
6.9768278e-05
7.1089555e-05
7.2374295e-05
7.3622339e-05
7.4837503e-05
7.6008225e-05
7.7186691e-05
7.8153726e-05
7.9851427e-05
0.00013983761
0.00013962616
0.00013940483
0.0001391748
0.00013893126
0.00013866267
0.00013835017
0.00013796879
0.00013749017
0.00013688608
0.00013613183
0.00013520878
0.00013410567
0.00013281878
0.00013135117
0.00012971157
0.00012791296
0.0001259712
0.00012390387
0.00012172927
0.00011946563
0.0001171305
0.00011474036
0.00011231027
0.00010985369
0.00010738232
0.00010490607
0.00010243303
9.9969486e-05
9.7519969e-05
9.5087232e-05
9.2672493e-05
9.0275305e-05
8.7893335e-05
8.5522342e-05
8.3156397e-05
8.0788143e-05
7.8409342e-05
7.6010455e-05
7.3580125e-05
7.1106268e-05
6.8578072e-05
6.598254e-05
6.331391e-05
6.0556572e-05
5.7700223e-05
5.4738544e-05
5.1671602e-05
4.8494079e-05
4.5182459e-05
4.1767812e-05
3.8254156e-05
3.4656018e-05
3.1029054e-05
2.7418892e-05
2.389697e-05
2.0519139e-05
1.7445744e-05
1.4770651e-05
1.2587958e-05
1.1081157e-05
1.0327698e-05
1.0315738e-05
1.1051796e-05
1.2407296e-05
1.4273956e-05
1.6493018e-05
1.8911879e-05
2.1422962e-05
2.3969672e-05
2.6526484e-05
2.9077569e-05
3.1609048e-05
3.4110353e-05
3.6575092e-05
3.8999385e-05
4.1380421e-05
4.3716211e-05
4.6005514e-05
4.8247578e-05
5.0441968e-05
5.2588502e-05
5.4687193e-05
5.673819e-05
5.8741755e-05
6.0698236e-05
6.260805e-05
6.4471669e-05
6.6289612e-05
6.8062436e-05
6.9790719e-05
7.1475104e-05
7.3116147e-05
7.4714778e-05
7.6270753e-05
7.7788291e-05
7.9253738e-05
8.0729621e-05
8.1948299e-05
8.4082749e-05
0.00014146562
0.00014125165
0.00014102854
0.00014079945
0.00014056441
0.00014032101
0.00014006372
0.00013978335
0.00013946704
0.0001390989
0.00013866133
0.00013813659
0.00013750838
0.00013676315
0.0001358909
0.00013488557
0.000133745
0.00013247066
0.00013106709
0.00012954132
0.00012790227
0.00012616017
0.000124326
0.00012241107
0.00012042658
0.00011838334
0.00011629147
0.00011416025
0.00011199795
0.00010981173
0.00010760759
0.00010539034
0.00010316353
0.00010092939
9.8688607e-05
9.6440349e-05
9.4182246e-05
9.1910621e-05
8.9620513e-05
8.7305466e-05
8.4957574e-05
8.2568423e-05
8.0128089e-05
7.7628407e-05
7.5058806e-05
7.2408246e-05
6.9666556e-05
6.6826176e-05
6.3880443e-05
6.0815385e-05
5.7627679e-05
5.431435e-05
5.086302e-05
4.7301179e-05
4.3604628e-05
3.9804717e-05
3.592829e-05
3.2034123e-05
2.8192269e-05
2.4460671e-05
2.0964024e-05
1.7844383e-05
1.5214557e-05
1.3226985e-05
1.2063799e-05
1.1688472e-05
1.2137805e-05
1.3304232e-05
1.5085577e-05
1.7311308e-05
1.9810999e-05
2.2457806e-05
2.5177891e-05
2.7932648e-05
3.0697714e-05
3.3454166e-05
3.6188231e-05
3.8890992e-05
4.1556498e-05
4.4180441e-05
4.6759759e-05
4.9292349e-05
5.177676e-05
5.4212007e-05
5.6597472e-05
5.8932806e-05
6.1217873e-05
6.3452696e-05
6.5637431e-05
6.777234e-05
6.9857761e-05
7.1894134e-05
7.3881859e-05
7.5821734e-05
7.7713362e-05
7.9561292e-05
8.1349643e-05
8.3151815e-05
8.4648176e-05
8.7264218e-05
0.00014324492
0.00014302868
0.0001428036
0.00014257316
0.00014233826
0.0001420988
0.0001418536
0.00014160002
0.00014133362
0.0001410478
0.0001407339
0.0001403815
0.00013997909
0.00013951483
0.00013897733
0.00013835641
0.00013764361
0.00013683254
0.00013591911
0.00013490145
0.00013377982
0.00013255637
0.00013123483
0.00012982025
0.00012831859
0.0001267365
0.00012508098
0.00012335911
0.0001215779
0.00011974403
0.00011786379
0.00011594286
0.0001139863
0.00011199835
0.00010998233
0.00010794051
0.00010587395
0.00010378257
0.0001016651
9.951903e-05
9.7340503e-05
9.5124598e-05
9.286502e-05
9.0555203e-05
8.8187582e-05
8.5753532e-05
8.3243833e-05
8.0649583e-05
7.7962749e-05
7.5172663e-05
7.2269988e-05
6.9246805e-05
6.6093433e-05
6.2809225e-05
5.9382201e-05
5.5798338e-05
5.2093357e-05
4.8245794e-05
4.4270016e-05
4.0190517e-05
3.6051885e-05
3.1928808e-05
2.7901644e-05
2.4070386e-05
2.0606976e-05
1.7627199e-05
1.5297111e-05
1.3827542e-05
1.3203229e-05
1.3461983e-05
1.4525572e-05
1.6285064e-05
1.8556477e-05
2.1157174e-05
2.3948774e-05
2.6846196e-05
2.9800556e-05
3.2779791e-05
3.5760297e-05
3.8725438e-05
4.1664031e-05
4.4568254e-05
4.7432432e-05
5.0252493e-05
5.3025523e-05
5.574942e-05
5.8422691e-05
6.1044305e-05
6.3613574e-05
6.6130089e-05
6.8593645e-05
7.1004234e-05
7.3361904e-05
7.566715e-05
7.7919288e-05
8.012308e-05
8.2260261e-05
8.4415548e-05
8.6213972e-05
8.9354194e-05
0.00014517338
0.00014495504
0.00014472808
0.00014449603
0.00014425989
0.00014401995
0.00014377613
0.00014352789
0.00014327401
0.00014301233
0.0001427395
0.00014245088
0.00014214053
0.00014180143
0.00014142573
0.00014100518
0.00014053156
0.0001399971
0.00013939483
0.00013871887
0.00013796462
0.00013712886
0.00013620976
0.00013520681
0.00013412072
0.00013295324
0.00013170703
0.00013038544
0.00012899233
0.00012753191
0.00012600859
0.00012442684
0.00012279102
0.00012110528
0.00011937342
0.0001175987
0.00011578374
0.00011393039
0.00011203964
0.00011011161
0.00010814535
0.00010613891
0.00010408918
0.00010199218
9.9843077e-05
9.7636004e-05
9.5364163e-05
9.3020109e-05
9.0596362e-05
8.8084341e-05
8.5474948e-05
8.275923e-05
7.9927175e-05
7.6971614e-05
7.3882822e-05
7.0648523e-05
6.7269095e-05
6.3735335e-05
6.00403e-05
5.6186066e-05
5.2182265e-05
4.8040022e-05
4.3771361e-05
3.9416178e-05
3.5052393e-05
3.0768556e-05
2.6669114e-05
2.2939988e-05
1.969944e-05
1.7158188e-05
1.5497061e-05
1.4750591e-05
1.493847e-05
1.6011974e-05
1.7836414e-05
2.0213732e-05
2.295418e-05
2.5914768e-05
2.9004796e-05
3.2168504e-05
3.536805e-05
3.8576329e-05
4.1774522e-05
4.4949631e-05
4.8092351e-05
5.1195924e-05
5.4255435e-05
5.7267281e-05
6.0228814e-05
6.3138099e-05
6.5993741e-05
6.8794781e-05
7.1540512e-05
7.4230808e-05
7.6864447e-05
7.9446198e-05
8.1955178e-05
8.4487774e-05
8.6610463e-05
9.0314588e-05
0.00014724886
0.00014702854
0.00014679975
0.00014656609
0.00014632849
0.00014608728
0.00014584258
0.00014559436
0.00014534239
0.00014508612
0.00014482449
0.00014455582
0.00014427765
0.0001439867
0.00014367884
0.00014334917
0.00014299219
0.000142602
0.00014217252
0.00014169777
0.00014117209
0.00014059036
0.00013994814
0.0001392418
0.00013846858
0.00013762661
0.00013671486
0.00013573312
0.0001346819
0.00013356235
0.00013237613
0.00013112538
0.00012981253
0.00012844022
0.00012701119
0.00012552814
0.00012399357
0.0001224097
0.00012077829
0.00011910062
0.00011737729
0.00011560821
0.00011379243
0.00011192818
0.00011001287
0.00010804305
0.00010601433
0.00010392148
0.00010175869
9.9519339e-05
9.7196032e-05
9.4780868e-05
9.2264993e-05
8.9640025e-05
8.6896955e-05
8.4024498e-05
8.101496e-05
7.785905e-05
7.4548831e-05
7.1072721e-05
6.7425841e-05
6.3606329e-05
5.96114e-05
5.5443151e-05
5.1128104e-05
4.6675374e-05
4.2115532e-05
3.7537844e-05
3.3022768e-05
2.8710593e-05
2.4783162e-05
2.1374118e-05
1.8750165e-05
1.7025953e-05
1.6287245e-05
1.6543664e-05
1.7751405e-05
1.9737344e-05
2.2290778e-05
2.5219541e-05
2.8382127e-05
3.1687034e-05
3.5074996e-05
3.8504909e-05
4.1947811e-05
4.5383576e-05
4.8797983e-05
5.2180736e-05
5.5524319e-05
5.882319e-05
6.2073233e-05
6.5271398e-05
6.8415369e-05
7.1503734e-05
7.4534226e-05
7.7511223e-05
8.0410838e-05
8.3341351e-05
8.5807535e-05
9.011147e-05
0.00014946914
0.0001492469
0.00014901631
0.00014878102
0.00014854192
0.0001482993
0.00014805328
0.00014780394
0.00014755127
0.00014729519
0.00014703544
0.0001467715
0.00014650254
0.00014622726
0.00014594389
0.00014565006
0.00014534286
0.00014501879
0.0001446739
0.00014430386
0.00014390414
0.00014347007
0.0001429971
0.00014248087
0.00014191737
0.00014130301
0.00014063473
0.00013991002
0.00013912695
0.00013828417
0.0001373809
0.00013641689
0.00013539237
0.00013430797
0.0001331647
0.00013196379
0.00013070663
0.00012939469
0.00012802933
0.0001266118
0.00012514305
0.00012362367
0.00012205375
0.00012043281
0.00011875977
0.00011703286
0.00011524958
0.00011340666
0.0001115001
0.00010952518
0.00010747641
0.0001053476
0.00010313165
0.00010082107
9.8407908e-05
9.5882706e-05
9.3236439e-05
9.0459534e-05
8.7542594e-05
8.4474139e-05
8.1244737e-05
7.784554e-05
7.4266152e-05
7.0496304e-05
6.6539706e-05
6.2393481e-05
5.8055795e-05
5.3551989e-05
4.8909788e-05
4.4150283e-05
3.937013e-05
3.4652204e-05
3.0183034e-05
2.6124459e-05
2.2662109e-05
2.0073479e-05
1.8425468e-05
1.7832736e-05
1.8319892e-05
1.9783261e-05
2.2023795e-05
2.4821583e-05
2.7987806e-05
3.1387564e-05
3.4932044e-05
3.856139e-05
4.2233757e-05
4.5919883e-05
4.9599201e-05
5.3256943e-05
5.6882345e-05
6.0467482e-05
6.4006417e-05
6.7494976e-05
7.0928739e-05
7.4310872e-05
7.7613758e-05
8.0957561e-05
8.3782211e-05
8.8716471e-05
0.00015183194
0.0001516078
0.0001513754
0.00015113844
0.00015089779
0.00015065369
0.00015040626
0.00015015554
0.00014990159
0.00014964442
0.00014938399
0.00014912018
0.00014885274
0.00014858124
0.00014830501
0.00014802309
0.00014773417
0.00014743654
0.00014712808
0.00014680626
0.0001464682
0.00014611066
0.00014573018
0.00014532312
0.00014488581
0.00014441457
0.00014390589
0.00014335643
0.00014276315
0.00014212334
0.00014143469
0.00014069525
0.00013990352
0.00013905842
0.00013815923
0.00013720561
0.0001361975
0.0001351351
0.00013401878
0.00013284899
0.00013162621
0.00013035083
0.00012902304
0.00012764277
0.0001262096
0.00012472266
0.00012318059
0.00012158146
0.00011992273
0.00011820122
0.00011641308
0.00011455379
0.00011261805
0.00011059987
0.00010849272
0.00010628903
0.0001039807
0.00010155901
9.9014905e-05
9.633805e-05
9.3517918e-05
9.0544037e-05
8.7404818e-05
8.4089467e-05
8.0586707e-05
7.6888032e-05
7.2982841e-05
6.8870352e-05
6.455476e-05
6.0032667e-05
5.5329694e-05
5.04804e-05
4.5525158e-05
4.0552524e-05
3.5674476e-05
3.1103372e-05
2.69957e-05
2.3622437e-05
2.115633e-05
1.9742494e-05
1.9477782e-05
2.0342964e-05
2.2176883e-05
2.4756888e-05
2.7860287e-05
3.1308932e-05
3.4978757e-05
3.8786217e-05
4.2673603e-05
4.6600546e-05
5.0538718e-05
5.4467919e-05
5.837347e-05
6.224484e-05
6.6072885e-05
6.9857722e-05
7.356651e-05
7.733077e-05
8.0522346e-05
8.6109388e-05
0.00015433486
0.0001541088
0.00015387455
0.00015363586
0.0001533936
0.00015314796
0.00015289903
0.00015264685
0.00015239146
0.0001521329
0.00015187116
0.00015160622
0.00015133803
0.00015106645
0.00015079126
0.00015051211
0.00015022848
0.00014993964
0.00014964462
0.00014934217
0.00014903072
0.0001487084
0.00014837306
0.00014802224
0.00014765325
0.00014726324
0.00014684919
0.00014640806
0.00014593679
0.0001454324
0.00014489205
0.00014431306
0.00014369303
0.00014302979
0.00014232148
0.00014156652
0.00014076363
0.00013991182
0.00013901033
0.0001380586
0.00013705626
0.00013600302
0.00013489861
0.00013374271
0.00013253491
0.00013127456
0.00012996076
0.00012859226
0.00012716738
0.000125684
0.00012413946
0.00012253055
0.00012085343
0.00011910362
0.00011727602
0.00011536477
0.0001133633
0.0001112643
0.00010905988
0.00010674125
0.00010429879
0.00010172244
9.9001165e-05
9.6123534e-05
9.3077155e-05
8.9850685e-05
8.6431245e-05
8.2806104e-05
7.8967169e-05
7.490573e-05
7.0618218e-05
6.610912e-05
6.1384002e-05
5.6466193e-05
5.1397455e-05
4.6250146e-05
4.1103219e-05
3.6127036e-05
3.1505863e-05
2.7480481e-05
2.4298943e-05
2.212454e-05
2.1126643e-05
2.1366582e-05
2.2737804e-05
2.5035802e-05
2.80206e-05
3.1477128e-05
3.5244331e-05
3.9211138e-05
4.3301136e-05
4.7461008e-05
5.1653352e-05
5.5851878e-05
6.0036236e-05
6.4199063e-05
6.8298933e-05
7.2476991e-05
7.6033332e-05
8.228276e-05
0.00015697538
0.00015674736
0.0001565112
0.00015627071
0.00015602675
0.00015577948
0.00015552897
0.00015527525
0.00015501834
0.00015475826
0.00015449502
0.00015422863
0.00015395906
0.00015368628
0.0001534102
0.0001531307
0.0001528476
0.0001525606
0.00015226931
0.00015197318
0.00015167145
0.0001513632
0.00015104724
0.00015072216
0.00015038631
0.00015003779
0.00014967449
0.00014929411
0.0001488942
0.00014847222
0.00014802554
0.00014755157
0.00014704773
0.00014651154
0.00014594065
0.00014533286
0.00014468618
0.00014399879
0.00014326909
0.00014249568
0.00014167735
0.00014081305
0.00013990186
0.00013894294
0.00013793546
0.00013687858
0.00013577136
0.0001346127
0.00013340129
0.00013213552
0.00013081345
0.00012943273
0.00012799054
0.00012648358
0.00012490798
0.00012325927
0.00012153234
0.00011972139
0.00011781996
0.00011582082
0.00011371592
0.00011149646
0.00010915277
0.00010667442
0.00010404988
0.00010126736
9.8314082e-05
9.5175886e-05
9.1841591e-05
8.8295425e-05
8.4524591e-05
8.0521468e-05
7.627782e-05
7.1788875e-05
6.7059537e-05
6.2109456e-05
5.6961139e-05
5.1679524e-05
4.6342086e-05
4.1064732e-05
3.6039257e-05
3.1484349e-05
2.7682792e-05
2.4828945e-05
2.3150567e-05
2.2777537e-05
2.3666468e-05
2.5645674e-05
2.847311e-05
3.1906157e-05
3.5748748e-05
3.9860431e-05
4.4143884e-05
4.8531576e-05
5.2974692e-05
5.7446929e-05
6.1890111e-05
6.645015e-05
7.035054e-05
7.7250104e-05
0.00015975087
0.00015952082
0.00015928266
0.00015904027
0.0001587945
0.0001585455
0.00015829332
0.00015803795
0.00015777943
0.00015751775
0.00015725292
0.00015698494
0.0001567138
0.00015643947
0.00015616193
0.00015588112
0.00015559696
0.00015530934
0.0001550181
0.00015472301
0.00015442374
0.00015411986
0.00015381079
0.00015349581
0.00015317401
0.00015284428
0.00015250533
0.00015215567
0.00015179359
0.00015141726
0.00015102465
0.00015061365
0.00015018204
0.00014972757
0.00014924797
0.00014874099
0.00014820443
0.00014763617
0.0001470342
0.00014639664
0.00014572173
0.00014500786
0.00014425354
0.0001434574
0.00014261814
0.00014173453
0.00014080537
0.00013982939
0.00013880528
0.00013773157
0.00013660662
0.00013542853
0.00013419511
0.00013290381
0.00013155166
0.00013013524
0.00012865062
0.00012709327
0.00012545809
0.0001237393
0.00012193041
0.00012002416
0.00011801247
0.00011588645
0.0001136362
0.00011125101
0.00010871929
0.00010602796
0.00010316442
0.00010011386
9.6861856e-05
9.3393634e-05
8.969449e-05
8.5750888e-05
8.1553287e-05
7.7095903e-05
7.2375329e-05
6.7404626e-05
6.2207737e-05
5.6822352e-05
5.1330221e-05
4.5831702e-05
4.0489168e-05
3.5506918e-05
3.1169009e-05
2.7721408e-05
2.5434049e-05
2.4488666e-05
2.4906392e-05
2.6557156e-05
2.9208484e-05
3.2599776e-05
3.6504221e-05
4.0752511e-05
4.5223793e-05
4.9842911e-05
5.4514087e-05
5.9374723e-05
6.3563588e-05
7.1061214e-05
0.00016265854
0.00016242637
0.00016218611
0.0001619417
0.000161694
0.00016144315
0.00016118917
0.00016093206
0.00016067181
0.00016040843
0.00016014191
0.00015987224
0.00015959942
0.00015932342
0.00015904422
0.00015876178
0.00015847606
0.000158187
0.00015789453
0.00015759854
0.00015729889
0.00015699539
0.00015668775
0.00015637563
0.00015605857
0.00015573597
0.00015540712
0.00015507112
0.00015472694
0.00015437338
0.00015400906
0.00015363249
0.00015324201
0.00015283585
0.00015241216
0.000151969
0.00015150437
0.00015101627
0.00015050269
0.00014996164
0.00014939121
0.00014878951
0.00014815476
0.00014748525
0.00014677932
0.00014603542
0.00014525203
0.00014442765
0.0001435608
0.00014264995
0.00014169349
0.00014068969
0.00013963664
0.00013853222
0.00013737404
0.00013615937
0.00013488512
0.00013354774
0.00013214322
0.00013066701
0.00012911395
0.00012747823
0.00012575331
0.0001239319
0.00012200584
0.00011996605
0.00011780259
0.00011550425
0.00011305923
0.00011045434
0.00010767547
0.00010470764
0.00010153486
9.8141874e-05
9.4510657e-05
9.0626915e-05
8.6477963e-05
8.2053307e-05
7.7349911e-05
7.2369231e-05
6.7132298e-05
6.1672754e-05
5.6053896e-05
5.0370106e-05
4.4775035e-05
3.9445436e-05
3.4656361e-05
3.0697248e-05
2.7874209e-05
2.6413221e-05
2.6394121e-05
2.7730955e-05
3.0207818e-05
3.3554381e-05
3.7516446e-05
4.1906218e-05
4.654117e-05
5.151536e-05
5.5866739e-05
6.3832124e-05
0.00016569547
0.00016546106
0.00016521858
0.00016497202
0.00016472226
0.00016446942
0.00016421351
0.00016395452
0.00016369243
0.00016342723
0.00016315891