/*--------------------------------*- C++ -*----------------------------------*\
  =========                 |
  \\      /  F ield         | OpenFOAM: The Open Source CFD Toolbox
   \\    /   O peration     | Website:  https://openfoam.org
    \\  /    A nd           | Version:  12
     \\/     M anipulation  |
\*---------------------------------------------------------------------------*/
FoamFile
{
    format      ascii;
    class       volScalarField;
    location    "700";
    object      p;
}
// * * * * * * * * * * * * * * * * * * * * * * * * * * * * * * * * * * * * * //

dimensions      [0 2 -2 0 0 0 0];

internalField   nonuniform List<scalar> 
7480
(
0.0087587644
0.0080206808
0.0068957728
0.0063226453
0.006016762
0.005737748
0.0054730765
0.0052465825
0.0050497657
0.0048721932
0.0047071356
0.004552418
0.0044086251
0.0042704027
0.0041381219
0.0040102334
0.0038866192
0.0037699642
0.0036613104
0.0035601234
0.0034671182
0.0033831196
0.0033089023
0.0032452454
0.0031924939
0.0031495976
0.0031164364
0.0030913204
0.003069912
0.003049113
0.0030264227
0.0030007446
0.0029720233
0.0029421314
0.0029119374
0.0028804377
0.0028476202
0.0028133034
0.0027776691
0.0027417253
0.0027056502
0.0026689866
0.002631951
0.0025948175
0.0025581083
0.0025216459
0.0024849406
0.002448002
0.0024113776
0.0023750966
0.0023385849
0.0023018608
0.0022652921
0.0022288802
0.002192199
0.0021552985
0.0021184184
0.0020814821
0.0020441838
0.0020067083
0.0019691035
0.0019311556
0.0018928871
0.0018543794
0.0018155082
0.0017762339
0.0017366307
0.0016965896
0.0016560928
0.0016151784
0.0015737453
0.001531809
0.0014893515
0.0014463271
0.0014027384
0.0013585395
0.0013137271
0.0012682782
0.0012221688
0.0011753876
0.0011279214
0.00107976
0.0010308969
0.00098133091
0.00093106837
0.00088012355
0.00082852783
0.00077632033
0.00072359287
0.00067040647
0.00061705353
0.00056346522
0.00051085376
0.00045774211
0.00041048195
0.00035733401
0.00033546989
0.00025983824
0.00053522596
-0.00043089125
0.0082778023
0.0076139141
0.0067801025
0.0063215273
0.0060672326
0.005820366
0.0055735341
0.0053525893
0.0051573677
0.0049763694
0.0048059676
0.0046449754
0.0044950325
0.0043510279
0.0042135434
0.0040815596
0.0039546612
0.0038338606
0.0037204855
0.0036151823
0.0035183305
0.0034304482
0.0033522438
0.0032843617
0.0032268007
0.0031783278
0.0031391943
0.0031084533
0.0030822752
0.0030578846
0.0030330332
0.0030065278
0.0029779217
0.0029486844
0.0029192373
0.0028882114
0.0028555332
0.0028211222
0.002785301
0.0027491697
0.002712916
0.0026760733
0.002638853
0.0026015158
0.0025645872
0.0025278955
0.0024909598
0.002453794
0.0024169458
0.0023804419
0.0023437082
0.0023067682
0.0022699916
0.0022333785
0.0021965017
0.0021594131
0.002122353
0.0020852437
0.0020477792
0.0020101455
0.001972389
0.0019342957
0.0018958885
0.0018572485
0.0018182507
0.0017788556
0.0017391371
0.0016989857
0.0016583838
0.0016173691
0.0015758401
0.0015338125
0.0014912678
0.0014481603
0.0014044922
0.0013602177
0.001315333
0.0012698152
0.0012236401
0.0011767961
0.00112927
0.0010810514
0.0010321338
0.00098251572
0.00093220347
0.0008812112
0.00082957018
0.00077731945
0.00072455075
0.000671325
0.00061793464
0.00056431059
0.00051166561
0.00045852146
0.00041123295
0.00035805542
0.00033615305
0.00026062073
0.00053606691
-0.00043022981
0.0079996172
0.0075246254
0.0068448901
0.0063707273
0.0060741326
0.0058003277
0.0055360627
0.0053027555
0.0051000104
0.0049154526
0.0047447576
0.0045863522
0.0044389217
0.0042998896
0.0041678822
0.0040420684
0.0039219289
0.0038077589
0.0037010437
0.0036028718
0.003513441
0.0034330888
0.0033622992
0.0033014578
0.003250468
0.0032082258
0.0031731416
0.0031434747
0.0031167068
0.0030901248
0.0030618624
0.0030311465
0.0029977836
0.0029638419
0.0029304814
0.0028966631
0.002862252
0.0028270131
0.0027910233
0.0027551155
0.0027191508
0.0026824359
0.0026451545
0.0026076341
0.0025704833
0.0025335646
0.0024964118
0.0024590452
0.002422009
0.0023853192
0.0023484012
0.0023112867
0.0022743453
0.0022375729
0.0022005386
0.0021632975
0.0021260911
0.0020888398
0.0020512362
0.0020134694
0.0019755845
0.0019373665
0.0018988396
0.0018600845
0.0018209755
0.0017814733
0.0017416521
0.0017014014
0.0016607042
0.0016195979
0.0015779807
0.0015358685
0.0014932425
0.0014500569
0.0014063139
0.0013619674
0.0013170137
0.0012714296
0.0012251909
0.0011782858
0.0011307013
0.0010824265
0.001033455
0.00098378535
0.00093342357
0.0008823838
0.00083069726
0.00077840287
0.00072559236
0.00067232653
0.0006188979
0.00056523707
0.00051255752
0.00045937937
0.00041206155
0.00035885028
0.0003369292
0.00026148247
0.00053695166
-0.00042956741
0.0077633271
0.0073683354
0.0067664405
0.0063140483
0.006025641
0.005771347
0.0055264659
0.0053091717
0.0051182633
0.0049425954
0.0047779651
0.0046239078
0.0044772332
0.004339045
0.0042065087
0.004079307
0.0039571243
0.0038402959
0.0037303737
0.0036284502
0.0035347749
0.0034498054
0.0033741896
0.0033086041
0.0032534338
0.0032082755
0.0031710315
0.0031401548
0.0031142088
0.0030901768
0.0030657116
0.0030395117
0.003011178
0.0029808592
0.0029488046
0.0029150632
0.0028795313
0.002842175
0.0028034373
0.0027648155
0.0027267049
0.0026885958
0.0026505704
0.0026128091
0.0025757323
0.0025389503
0.0025018307
0.0024643787
0.002427199
0.0023903382
0.0023532373
0.0023159499
0.0022788445
0.0022419092
0.0022047117
0.0021673151
0.0021299615
0.0020925676
0.0020548231
0.0020169217
0.0019789071
0.001940563
0.0019019148
0.0018630431
0.0018238208
0.0017842092
0.0017442828
0.0017039302
0.0016631348
0.0016219341
0.0015802256
0.0015380256
0.001495315
0.001452048
0.0014082268
0.0013638049
0.0013187788
0.0012731252
0.0012268196
0.0011798504
0.0011322042
0.0010838702
0.0010348419
0.00098511763
0.00093470349
0.00088361348
0.00083187874
0.00077953812
0.00072668328
0.00067337494
0.00061990564
0.00056620573
0.00051348915
0.00046027479
0.0004129245
0.00035967712
0.00033773763
0.00026224144
0.00053782211
-0.00042896566
0.007546201
0.0072094139
0.0066930098
0.0062868105
0.0060109599
0.0057658033
0.0055252458
0.0053089373
0.0051161993
0.0049382148
0.0047712648
0.0046149888
0.0044671243
0.0043283039
0.0041957779
0.0040691749
0.0039481861
0.0038330606
0.0037250633
0.003625133
0.0035335658
0.0034507838
0.0033772994
0.0033136117
0.0032599084
0.0032155487
0.0031783491
0.0031467989
0.0031193865
0.0030931801
0.0030661949
0.0030377393
0.0030081955
0.002977234
0.0029453172
0.0029132828
0.0028805529
0.0028467388
0.0028117178
0.002775565
0.0027383821
0.0027002855
0.002661355
0.002622014
0.0025832479
0.0025450847
0.0025070531
0.0024690988
0.0024317668
0.0023949317
0.0023578428
0.0023205064
0.0022833104
0.0022462576
0.0022089263
0.0021713991
0.0021339181
0.0020963948
0.0020585189
0.0020204923
0.0019823562
0.001943892
0.0019051276
0.0018661435
0.0018268111
0.0017870926
0.001747063
0.0017066094
0.0016657161
0.0016244209
0.0015826202
0.0015403312
0.0014975345
0.001454184
0.0014102823
0.0013657824
0.0013206812
0.001274955
0.0012285794
0.0011815427
0.0011338314
0.0010854348
0.0010363461
0.00098656378
0.00093609374
0.00088494996
0.0008331635
0.00078077316
0.00072787053
0.00067451625
0.00062100285
0.00056726051
0.00051450334
0.00046124959
0.00041386233
0.00036057604
0.00033860986
0.00026302288
0.00053871986
-0.0004282549
0.0073502506
0.00706683
0.0066264366
0.0062573065
0.005987476
0.0057464418
0.0055122133
0.0053002763
0.005110515
0.0049354258
0.0047712657
0.0046175427
0.0044722293
0.0043352486
0.0042044272
0.004079288
0.0039596023
0.0038455959
0.0037383444
0.0036387476
0.0035472109
0.0034642032
0.003390189
0.0033255949
0.0032705884
0.0032246074
0.0031857985
0.0031527165
0.0031239025
0.0030967145
0.0030692763
0.0030408377
0.0030113279
0.0029801505
0.0029477456
0.0029147798
0.0028807316
0.0028456999
0.0028099776
0.0027734492
0.0027366586
0.0027001287
0.0026636114
0.0026269681
0.0025900714
0.0025527349
0.0025148862
0.0024763934
0.0024380969
0.0024003139
0.0023624865
0.0023246578
0.00228724
0.002250139
0.0022127871
0.0021752189
0.0021376753
0.0021000707
0.0020621011
0.0020239825
0.0019857517
0.0019471883
0.0019083255
0.001869245
0.0018298163
0.001790003
0.0017498808
0.0017093355
0.0016683526
0.0016269699
0.0015850832
0.0015427104
0.0014998318
0.0014564015
0.0014124221
0.0013678465
0.0013226718
0.0012768742
0.0012304293
0.0011833254
0.001135549
0.0010870894
0.0010379397
0.00098809842
0.00093757139
0.00088637255
0.00083453292
0.00078209128
0.00072913915
0.00067573712
0.00062217765
0.00056839089
0.00051559078
0.00046229557
0.00041486781
0.00036154063
0.00033954063
0.00026386197
0.00053962357
-0.0004273841
0.0071723068
0.0069336703
0.0065581785
0.0062224746
0.0059610653
0.0057264446
0.0055000402
0.0052931132
0.0051064341
0.004933686
0.004771488
0.0046192023
0.0044750951
0.0043388441
0.0042087838
0.0040843644
0.003965424
0.0038521766
0.0037455616
0.0036464423
0.003555251
0.0034724251
0.0033984032
0.0033335752
0.0032780626
0.0032313851
0.0031918703
0.0031580014
0.0031283397
0.0031004493
0.0030724685
0.0030435489
0.0030135342
0.0029819867
0.0029493382
0.0029161846
0.0028821314
0.0028472511
0.0028115998
0.0027749732
0.0027378911
0.0027007841
0.0026635972
0.0026264406
0.0025891345
0.0025519881
0.0025152569
0.0024786655
0.0024420325
0.0024051685
0.0023678896
0.002330042
0.0022921778
0.002254523
0.0022166732
0.0021787403
0.0021410134
0.0021033471
0.0020653439
0.0020271906
0.0019889124
0.001950289
0.0019113628
0.0018722164
0.0018327165
0.0017928293
0.0017526332
0.0017120125
0.0016709544
0.001629497
0.0015875354
0.001545089
0.0015021375
0.0014586352
0.0014145851
0.0013699399
0.0013246969
0.0012788324
0.001232322
0.0011851541
0.0011373154
0.0010887949
0.001039586
0.00098968704
0.000939104
0.00088785077
0.00083595837
0.00078346553
0.00073046377
0.00067701367
0.00062340756
0.00056957567
0.00051673145
0.00046339382
0.00041592292
0.0003625538
0.00034051432
0.00026473943
0.00054049661
-0.00042634173
0.0070090839
0.0068069685
0.0064867953
0.0061833275
0.005933134
0.0057062011
0.0054875575
0.0052855927
0.0051018906
0.004931387
0.0047710337
0.0046201468
0.0044772866
0.0043419847
0.0042128882
0.0040894097
0.0039714159
0.0038591081
0.0037533037
0.0036548079
0.0035640612
0.0034814836
0.0034074985
0.0033424638
0.0032864682
0.003239043
0.0031986521
0.0031638029
0.0031331022
0.0031043075
0.0030756057
0.0030461276
0.0030156935
0.0029839226
0.0029511356
0.002917847
0.0028837229
0.0028487614
0.0028129986
0.0027763192
0.0027392097
0.0027020743
0.0026648963
0.0026276904
0.0025902736
0.0025529414
0.0025158655
0.0024789771
0.0024418979
0.0024047589
0.0023679937
0.0023313705
0.0022947063
0.0022578184
0.0022205099
0.0021827145
0.0021448067
0.0021068287
0.0020685128
0.0020301313
0.0019917386
0.0019530645
0.00191411
0.001874935
0.0018353983
0.0017954695
0.0017552289
0.001714558
0.0016734462
0.0016319333
0.0015899136
0.0015474083
0.001504397
0.0014608344
0.001416724
0.0013720185
0.0013267155
0.0012807914
0.0012342221
0.0011869959
0.0011390996
0.0010905226
0.0010412581
0.00099130475
0.00094066836
0.00088936297
0.0008374196
0.00078487703
0.00073182676
0.00067832939
0.00062467711
0.00057080036
0.00051791171
0.00046453154
0.00041701547
0.00036360412
0.00034151981
0.00026563974
0.00054130931
-0.00042510708
0.0068590503
0.0066865357
0.0064131421
0.0061400867
0.0059026882
0.0056842404
0.0054735511
0.0052769705
0.0050966194
0.0049286301
0.0047703198
0.0046210121
0.0044795205
0.0043452922
0.0042172097
0.0040947019
0.0039776557
0.0038662661
0.0037612472
0.003663346
0.003573011
0.0034906524
0.0034166753
0.003351405
0.0032949003
0.0032467036
0.0032054155
0.0031695993
0.0031378917
0.0031082067
0.0030788034
0.0030488047
0.0030179801
0.0029859626
0.0029529863
0.002919503
0.00288523
0.0028501414
0.0028142928
0.0027776034
0.0027404994
0.0027033634
0.0026661817
0.0026289505
0.0025915352
0.0025541865
0.0025170603
0.0024800659
0.0024428634
0.0024056401
0.0023687254
0.0023319372
0.0022949189
0.0022577466
0.0022207623
0.002183803
0.0021467109
0.0021093024
0.0020714094
0.0020331654
0.0019947025
0.0019558443
0.0019167003
0.0018773995
0.0018378
0.0017978418
0.0017575811
0.0017168873
0.0016757495
0.0016342074
0.0015921531
0.0015496098
0.001506557
0.0014629503
0.0014187941
0.0013740409
0.0013286895
0.001282716
0.0012360968
0.0011888205
0.001140874
0.0010922469
0.0010429326
0.00099292969
0.00094224432
0.00089089055
0.00083889947
0.00078630995
0.00073321348
0.00067967078
0.00062597381
0.00057205342
0.00051912087
0.00046569882
0.00041813614
0.00036468297
0.00034254855
0.0002665538
0.00054203439
-0.00042365106
0.0067205646
0.0065721299
0.0063380456
0.0060930681
0.0058693677
0.005660094
0.005457666
0.005266949
0.0050903879
0.0049252255
0.0047691861
0.0046216375
0.00448162
0.0043485609
0.0042215406
0.0041000331
0.0039839433
0.0038734628
0.0037692212
0.0036719112
0.0035819851
0.0034998435
0.0034258719
0.0033603659
0.0033033599
0.0032544112
0.0032122455
0.0031754825
0.0031427879
0.00311222
0.0030821147
0.0030515853
0.0030203509
0.0029880567
0.0029548706
0.0029211869
0.0028867654
0.002851566
0.0028156452
0.002778936
0.0027418162
0.0027046484
0.0026674261
0.0026301517
0.0025927203
0.0025553528
0.002518201
0.0024811781
0.002443984
0.0024067686
0.002369804
0.0023328998
0.0022957619
0.0022585294
0.0022214712
0.002184387
0.0021470082
0.0021094429
0.002071907
0.0020342392
0.0019962915
0.001957883
0.001919032
0.0018798318
0.0018401743
0.0018000981
0.0017597349
0.0017189806
0.0016778152
0.0016362582
0.0015941899
0.0015516315
0.0015085601
0.0014649305
0.0014207475
0.0013759636
0.0013305788
0.0012845694
0.0012379124
0.0011905967
0.0011426098
0.0010939412
0.0010445847
0.00099453932
0.00094381112
0.0008924144
0.0008403804
0.00078774812
0.00073460908
0.00068102417
0.00062728509
0.00057332326
0.00052034824
0.00046688581
0.00041927572
0.00036578184
0.00034359225
0.00026747324
0.00054264525
-0.00042194065
0.0065921052
0.0064634075
0.0062622415
0.0060428579
0.005833319
0.0056337394
0.0054397849
0.0052553082
0.0050829359
0.0049209071
0.0047673772
0.0046217867
0.0044833827
0.0043516221
0.0042257527
0.0041053096
0.0039902161
0.0038806642
0.0037772145
0.0036805099
0.0035910025
0.0035090841
0.0034351214
0.0033693843
0.0033118877
0.0032622055
0.0032191745
0.0031814736
0.0031478026
0.0031163537
0.0030855384
0.0030544642
0.0030228067
0.0029902213
0.0029568175
0.0029229316
0.0028883589
0.0028530463
0.0028170453
0.0027803034
0.0027431584
0.0027059514
0.0026686886
0.0026313764
0.0025939252
0.002556533
0.0025193439
0.0024822808
0.0024450644
0.0024078213
0.0023708143
0.0023338748
0.002296745
0.0022595211
0.0022224114
0.0021852215
0.0021477508
0.0021101486
0.0020725818
0.0020347407
0.0019965594
0.0019582201
0.0019197154
0.0018809162
0.0018416382
0.0018018895
0.0017617124
0.0017209863
0.0016797656
0.0016381398
0.0015960241
0.0015534441
0.0015103628
0.0014667261
0.0014225353
0.0013777404
0.0013323408
0.0012863126
0.001239633
0.0011922917
0.0011442765
0.0010955775
0.0010461889
0.00099610984
0.00094534682
0.00089391432
0.0008418438
0.00078917442
0.00073599782
0.00068237509
0.00062859766
0.00057459766
0.00052158255
0.00046808214
0.0004204245
0.00036689181
0.00034464224
0.00026838864
0.00054311758
-0.0004199386
0.0064723999
0.0063600084
0.0061863626
0.0059900839
0.0057947985
0.0056052489
0.0054198864
0.0052419383
0.0050741111
0.0049155073
0.0047647235
0.0046212982
0.004484667
0.0043543504
0.0042297408
0.0041104434
0.0039964034
0.0038878154
0.003785185
0.0036891099
0.003600039
0.0035183561
0.0034444111
0.0033784513
0.0033204769
0.0032700794
0.0032261956
0.0031875672
0.003152933
0.0031206071
0.0030890763
0.0030574473
0.0030253577
0.0029924687
0.002958837
0.0029247436
0.0028900126
0.0028545808
0.0028184938
0.0027817131
0.0027445401
0.0027072934
0.00266999
0.0026326381
0.0025951622
0.0025577399
0.0025205063
0.0024833936
0.0024461475
0.0024088786
0.0023718318
0.0023348571
0.0022977097
0.0022604574
0.0022233007
0.0021860798
0.0021486174
0.0021110151
0.0020733802
0.0020354495
0.001997224
0.0019588769
0.0019202791
0.0018812859
0.0018419697
0.0018024117
0.0017625141
0.0017220997
0.0016811865
0.0016397699
0.0015977257
0.0015551303
0.0015120089
0.0014683418
0.0014241377
0.0013793385
0.0013339373
0.0012879065
0.0012412213
0.0011938706
0.0011458421
0.0010971263
0.0010477178
0.00099761614
0.00094682823
0.00089536891
0.00084326991
0.00079057068
0.00073736295
0.00068370813
0.00062989732
0.00057586358
0.00052281178
0.00046927673
0.00042157216
0.00036800332
0.00034568934
0.00026928959
0.0005434041
-0.00041760321
0.006360383
0.0062615599
0.006110913
0.0059353224
0.0057540798
0.0055747377
0.0053980194
0.0052268166
0.0050638464
0.0049089366
0.0047611225
0.0046200633
0.0044853669
0.0043566405
0.0042334059
0.0041153431
0.0040024228
0.0038948445
0.0037930702
0.0036976571
0.0036090487
0.0035276216
0.0034537102
0.0033875426
0.0033291082
0.0032780174
0.0032332978
0.0031937567
0.0031581747
0.0031249787
0.0030927296
0.0030605378
0.0030280074
0.0029948022
0.0029609319
0.002926625
0.0028917291
0.0028561732
0.0028199964
0.0027831718
0.0027459672
0.002708679
0.0026713332
0.0026339395
0.0025964358
0.0025589815
0.0025217022
0.0024845387
0.0024472609
0.0024099639
0.0023728718
0.0023358502
0.0022986692
0.0022613872
0.002224194
0.0021869454
0.002149469
0.0021118386
0.0020741578
0.002036211
0.0019979954
0.001959621
0.001920953
0.0018819078
0.0018425925
0.0018029692
0.0017629134
0.0017224528
0.0016816403
0.0016404124
0.001598637
0.0015563161
0.0015133893
0.0014698047
0.0014256059
0.0013807862
0.0013353702
0.0012893346
0.0012426506
0.0011953024
0.0011472749
0.0010985571
0.0010491428
0.00099903162
0.00094823079
0.00089675549
0.00084463779
0.00079191751
0.00073868658
0.00068500679
0.00063116887
0.00057710699
0.00052402298
0.00047045766
0.00042270758
0.00036910611
0.00034672366
0.00027016636
0.00054346027
-0.00041489443
0.0062551493
0.0061676892
0.0060362781
0.0058790885
0.005711444
0.005542347
0.0053742681
0.0052099627
0.0050521155
0.0049011453
0.0047565098
0.0046180077
0.0044854056
0.0043584128
0.0042366696
0.0041199329
0.0040082031
0.0039016865
0.0038008113
0.0037060988
0.0036179854
0.0035368408
0.0034629854
0.0033966309
0.0033377597
0.003286002
0.0032404683
0.0032000325
0.0031635207
0.0031294638
0.0030964957
0.0030637345
0.0030307555
0.0029972223
0.0029631032
0.0029285773
0.0028935107
0.0028578262
0.0028215558
0.0027846819
0.0027474417
0.0027101098
0.0026727197
0.0026352828
0.0025977492
0.0025602613
0.0025229357
0.0024857211
0.0024484098
0.0024110822
0.0023739426
0.0023368715
0.0022996547
0.0022623422
0.0022251078
0.0021878193
0.0021503114
0.0021126501
0.0020749373
0.002036974
0.0019987443
0.0019603384
0.0019216416
0.0018825926
0.0018432694
0.0018036
0.0017634985
0.0017230415
0.0016821598
0.0016407985
0.0015989945
0.0015567329
0.0015139517
0.0014706065
0.0014266487
0.0013819922
0.0013366484
0.0012906261
0.001243936
0.0011965843
0.0011485593
0.0010998468
0.0010504378
0.0010003299
0.00094952911
0.00089805018
0.00084592525
0.00079319437
0.00073994968
0.00068625344
0.00063239599
0.00057831281
0.00052520222
0.00047161202
0.00042381871
0.00037018898
0.00034773452
0.00027100669
0.00054324754
-0.00041176221
0.0061559266
0.0060780373
0.005962744
0.0058218358
0.0056671717
0.005508231
0.0053487329
0.0051914174
0.0050389134
0.0048921049
0.0047508431
0.0046150796
0.004484728
0.0043596082
0.0042394721
0.0041241541
0.0040136875
0.0039082882
0.0038083585
0.0037143887
0.0036268069
0.003545976
0.003472204
0.0034056885
0.003346408
0.0032940136
0.0032476916
0.0032063827
0.0031689615
0.0031340553
0.0031003697
0.0030670341
0.0030335996
0.0029997281
0.0029653508
0.0029306007
0.0028953578
0.0028595404
0.0028231726
0.0027862441
0.0027489645
0.0027115867
0.0026741506
0.0026366695
0.0025991039
0.0025615809
0.0025242083
0.0024869422
0.0024495954
0.0024122352
0.0023750476
0.0023379264
0.002300673
0.002263328
0.0022260496
0.0021887175
0.002151176
0.0021134827
0.0020757325
0.0020377388
0.0019994803
0.0019610439
0.0019223269
0.0018832655
0.001843924
0.0018042327
0.0017641188
0.00172365
0.0016827425
0.0016413554
0.0015995394
0.0015571973
0.0015143192
0.0014709476
0.0014270362
0.0013825297
0.0013373991
0.0012915754
0.0012450143
0.0011977197
0.0011497101
0.0011010008
0.0010515962
0.0010014955
0.00095070275
0.00089923073
0.00084711001
0.00079437991
0.00074113222
0.00068742941
0.00063356133
0.00057946492
0.0005263345
0.0004727259
0.00042489254
0.00037123977
0.00034871034
0.00027179596
0.00054272934
-0.00040814712
0.0060620539
0.0059922667
0.0058905146
0.0057639568
0.0056215361
0.0054725516
0.0053215244
0.0051712361
0.0050242496
0.0048818
0.0047440927
0.0046112394
0.0044832906
0.00436018
0.004241766
0.0041279593
0.00401883
0.0039146055
0.0038156699
0.0037224871
0.003635476
0.0035549931
0.0034813353
0.0034146885
0.00335503
0.0033020322
0.003254951
0.0032127939
0.003174486
0.0031387447
0.0031043451
0.003070432
0.0030365364
0.0030023172
0.0029676729
0.0029326937
0.0028972696
0.002861315
0.0028248461
0.002787858
0.0027505353
0.0027131097
0.0026756263
0.0026380998
0.0026005001
0.0025629405
0.0025255204
0.0024882023
0.0024508184
0.0024134243
0.0023761882
0.0023390164
0.0023017249
0.0022643457
0.0022270223
0.002189646
0.00215207
0.0021143431
0.0020765521
0.0020385243
0.0020002351
0.0019617656
0.00192302
0.0018839331
0.0018445641
0.0018048517
0.0017647249
0.0017242398
0.0016833241
0.0016419275
0.0016000901
0.0015577306
0.0015148489
0.0014714369
0.0014274377
0.0013828679
0.0013377194
0.001291963
0.0012455551
0.0011984468
0.0011505941
0.0011019809
0.0010526192
0.0010025344
0.00095175038
0.00090028743
0.0008481766
0.0007954557
0.00074221486
0.00068851572
0.00063464681
0.00058054633
0.00052740395
0.00047378445
0.00042591511
0.00037224532
0.00034963864
0.00027252012
0.00054186787
-0.0004039925
0.0059729632
0.0059100657
0.0058197272
0.0057057849
0.0055747984
0.0054354749
0.0052927601
0.0051494865
0.0050081453
0.0048702246
0.0047362368
0.0046064548
0.0044810564
0.0043600881
0.0042435098
0.0041313077
0.0040235907
0.0039206007
0.0038227095
0.0037303593
0.0036439599
0.0035638616
0.0034903515
0.0034236062
0.0033636036
0.0033100383
0.0032622302
0.0032192525
0.0031800828
0.0031435225
0.0031084148
0.0030739227
0.0030395616
0.0030049864
0.0029700671
0.0029348541
0.0028992441
0.0028631485
0.002826575
0.0027895228
0.0027521533
0.0027146782
0.0026771461
0.0026395733
0.0026019376
0.0025643401
0.0025268721
0.0024895017
0.0024520792
0.0024146497
0.0023773647
0.0023401417
0.0023028108
0.002265396
0.0022280271
0.0021906059
0.0021529941
0.0021152322
0.0020773993
0.0020393365
0.0020010159
0.0019625113
0.0019237333
0.0018846179
0.0018452187
0.0018054794
0.0017653298
0.0017248203
0.0016838854
0.0016424744
0.0016006228
0.0015582598
0.0015153745
0.0014719456
0.0014279338
0.001383346
0.0013381418
0.0012923162
0.0012458637
0.0011987668
0.0011510032
0.0011025386
0.0010533338
0.0010033683
0.00095265241
0.00090122089
0.00084912541
0.000796416
0.00074318612
0.00068949728
0.00063563577
0.00058154017
0.00052839421
0.00047477209
0.0004268717
0.00037319162
0.00035050616
0.00027316353
0.00054060085
-0.00039923667
0.0058881634
0.0058311492
0.0057504669
0.0056475989
0.0055272032
0.0053971688
0.0052625631
0.0051262457
0.0049906325
0.0048573813
0.0047272608
0.0046006993
0.0044779926
0.0043592957
0.0042446655
0.0041341615
0.0040279331
0.0039262392
0.0038294444
0.003737974
0.0036522288
0.0035725537
0.0034992271
0.0034324183
0.0033721081
0.0033180134
0.0032695131
0.003225745
0.0031857403
0.0031483795
0.0031125714
0.0030775005
0.0030426705
0.0030077323
0.0029725305
0.0029370795
0.0029012793
0.0028650389
0.0028283576
0.0027912368
0.0027538173
0.0027162908
0.0026787088
0.0026410889
0.0026034157
0.0025657791
0.0025282627
0.00249084
0.0024533775
0.0024159113
0.002378577
0.0023413024
0.002303931
0.0022664794
0.0022290644
0.0021915975
0.0021539488
0.0021161507
0.0020782754
0.0020401766
0.0020018235
0.0019632826
0.0019244711
0.0018853262
0.0018458958
0.0018061268
0.0017659511
0.0017254141
0.0016844542
0.0016430216
0.0016011493
0.0015587699
0.0015158694
0.00147243
0.0014284166
0.0013838247
0.0013386124
0.0012927691
0.0012462811
0.0011991328
0.0011513193
0.0011028344
0.0010536696
0.0010038092
0.00095323148
0.00090192569
0.0008499155
0.00079725204
0.00074404501
0.00069037033
0.00063651961
0.00058243405
0.0005292909
0.00047567374
0.00042774739
0.00037406399
0.00035129903
0.00027370891
0.00053887083
-0.00039381366
0.005807228
0.0057552581
0.0056827787
0.0055896273
0.0054789761
0.0053578
0.0052310598
0.0051015989
0.0049717529
0.0048432811
0.0047171565
0.0045939513
0.0044740699
0.004357769
0.0042451972
0.0041364844
0.004031822
0.0039314875
0.0038358433
0.0037453013
0.0036602547
0.003581043
0.0035079378
0.003441103
0.0033805235
0.0033259393
0.003276784
0.0032322579
0.003191447
0.0031533059
0.0031168073
0.0030811594
0.0030458585
0.0030105512
0.0029750603
0.0029393672
0.0029033728
0.002866984
0.0028301919
0.0027929983
0.0027555254
0.002717946
0.0026803132
0.0026426453
0.0026049332
0.0025672565
0.0025296915
0.0024922164
0.0024547128
0.0024172087
0.002379825
0.0023424984
0.0023050853
0.0022675958
0.0022301343
0.0021926211
0.0021549343
0.0021170992
0.0020791808
0.002041045
0.0020026584
0.0019640804
0.0019252346
0.0018860593
0.0018465966
0.0018067969
0.0017665939
0.0017260281
0.0016850414
0.0016435847
0.0016016876
0.0015592859
0.0015163644
0.0014729075
0.0014288798
0.0013842754
0.0013390564
0.0012932098
0.0012467177
0.0011995601
0.0011517244
0.0011032012
0.0010539909
0.0010040976
0.00095352846
0.00090229014
0.00085039215
0.00079784835
0.00074473437
0.00069111612
0.00063729403
0.00058322465
0.00053008726
0.00047647899
0.0004285296
0.00037484849
0.00035200357
0.00027413791
0.00053662209
-0.00038765636
0.0057297854
0.0056821585
0.0056166773
0.0055320543
0.0054303217
0.0053175316
0.0051983778
0.0050756375
0.0049515573
0.0048279432
0.0047059224
0.0045861947
0.0044692627
0.0043554766
0.0042450706
0.0041382415
0.004035223
0.0039363128
0.0038418749
0.0037523117
0.0036680096
0.0035893036
0.0035164599
0.0034496384
0.0033888303
0.0033337984
0.0032840272
0.0032387779
0.0031971913
0.0031582922
0.003121115
0.0030848937
0.0030491209
0.0030134395
0.0029776537
0.0029417147
0.0029055225
0.0028689819
0.0028320758
0.0027948056
0.0027572762
0.0027196423
0.0026819576
0.0026442412
0.0026064888
0.0025687712
0.0025311575
0.0024936301
0.0024560843
0.0024185412
0.0023811079
0.0023437292
0.0023062734
0.002268745
0.0022312365
0.0021936764
0.0021559506
0.0021180776
0.0020801156
0.002041942
0.0020035209
0.0019649052
0.0019260242
0.0018868176
0.0018473218
0.0018074905
0.0017672594
0.0017266639
0.0016856495
0.0016441675
0.0016022442
0.0015598185
0.0015168741
0.0014733955
0.0014293476
0.0013847244
0.0013394901
0.0012936312
0.0012471303
0.0011999677
0.0011521282
0.0011035998
0.0010543758
0.001004455
0.000953848
0.00090257429
0.00085066751
0.0007981629
0.00074513504
0.00069162318
0.00063789296
0.00058388488
0.00053077512
0.00047718379
0.00042921256
0.00037553557
0.00035260873
0.00027443267
0.0005338005
-0.0003807003
0.0056555101
0.0056116389
0.005552155
0.0054750257
0.0053814224
0.0052765206
0.0051646452
0.0050484574
0.0049301041
0.0048113945
0.0046935636
0.0045774187
0.0044635495
0.0043523901
0.004244253
0.0041393987
0.004038102
0.0039406824
0.0038475081
0.0037589756
0.0036754656
0.0035973095
0.0035247693
0.003458003
0.0033970088
0.0033415727
0.003291227
0.0032452912
0.0032029613
0.0031633284
0.0031254864
0.0030886972
0.0030524529
0.0030163939
0.0029803079
0.0029441196
0.0029077262
0.0028710305
0.0028340075
0.0027966569
0.0027590679
0.0027213782
0.0026836407
0.0026458752
0.0026080814
0.0025703221
0.0025326596
0.00249508
0.0024574911
0.0024199082
0.0023824251
0.0023449941
0.0023074948
0.0022699265
0.0022323707
0.0021947633
0.0021569975
0.0021190857
0.0020810798
0.0020428673
0.0020044109
0.001965757
0.0019268401
0.0018876013
0.0018480718
0.0018082081
0.0017679481
0.0017273222
0.0016862792
0.0016447711
0.0016028208
0.0015603701
0.0015174018
0.0014738999
0.0014298303
0.001385186
0.0013399323
0.0012940553
0.0012475384
0.0012003624
0.0011525129
0.0011039781
0.0010547499
0.0010048251
0.0009542092
0.00090291597
0.00085097853
0.00079844026
0.00074539447
0.00069190197
0.0006382343
0.00058431594
0.00053128638
0.00047775554
0.00042978486
0.00037611946
0.00035310939
0.00027457953
0.00053036142
-0.00037289061
0.0055841164
0.0055435085
0.0054891881
0.005418654
0.0053324382
0.0052349162
0.0051299883
0.0050201572
0.0049074584
0.0047936696
0.0046800919
0.0045676181
0.004456913
0.0043484839
0.0042427143
0.0041399233
0.0040404258
0.0039445635
0.0038527115
0.003765263
0.0036825944
0.0036050343
0.0035328418
0.0034661744
0.0034050387
0.0033492439
0.003298367
0.0032517837
0.0032087447
0.0031684042
0.0031299133
0.0030925635
0.0030558498
0.0030194105
0.00298302
0.0029465795
0.0029099819
0.0028731281
0.0028359853
0.0027985507
0.0027608993
0.0027231521
0.002685361
0.0026475459
0.0026097097
0.0025719079
0.0025341966
0.0024965651
0.0024589325
0.0024213089
0.002383776
0.0023462927
0.002308749
0.00227114
0.0022335366
0.0021958813
0.0021580746
0.0021201234
0.002082073
0.002043821
0.0020053285
0.0019666357
0.0019276822
0.0018884105
0.0018488465
0.0018089498
0.0017686602
0.0017280032
0.0016869309
0.001645396
0.0016034179
0.0015609416
0.0015179485
0.0014744226
0.0014303303
0.0013856638
0.0013403892
0.0012944922
0.0012479564
0.0012007628
0.0011528974
0.0011043488
0.0010551096
0.0010051772
0.00095455618
0.00090325881
0.00085131452
0.00079876158
0.00074569065
0.00069216701
0.00063847573
0.00058456227
0.00053157085
0.00047811151
0.00043018168
0.00037656449
0.00035349256
0.00027456286
0.00052628911
-0.00036419542
0.005515353
0.0054775954
0.0054277418
0.0053630244
0.005283508
0.0051928578
0.0050945303
0.0049908376
0.0048836907
0.0047748097
0.0046655253
0.0045567935
0.0044493404
0.004343736
0.0042404264
0.0041397841
0.0040421619
0.0039479239
0.0038574537
0.0037711437
0.0036893672
0.003612451
0.0035406524
0.0034741298
0.0034128992
0.0033567928
0.0033054301
0.0032582405
0.0032145284
0.0031735086
0.003134387
0.0030964858
0.0030593062
0.0030224856
0.0029857874
0.0029490921
0.0029122876
0.0028752728
0.0028380077
0.0028004857
0.0027627688
0.0027249627
0.0026871172
0.002649252
0.0026113725
0.0025735276
0.0025357677