/*--------------------------------*- C++ -*----------------------------------*\
  =========                 |
  \\      /  F ield         | OpenFOAM: The Open Source CFD Toolbox
   \\    /   O peration     | Website:  https://openfoam.org
    \\  /    A nd           | Version:  12
     \\/     M anipulation  |
\*---------------------------------------------------------------------------*/
FoamFile
{
    format      ascii;
    class       volScalarField;
    location    "700";
    object      p;
}
// * * * * * * * * * * * * * * * * * * * * * * * * * * * * * * * * * * * * * //

dimensions      [0 2 -2 0 0 0 0];

internalField   nonuniform List<scalar> 
13056
(
0.0061486307
0.0061871273
0.0062650568
0.0063619875
0.0064789358
0.0066142038
0.0067658072
0.0069326439
0.0071142665
0.0073106955
0.0075224009
0.0077503784
0.0079962396
0.0082625036
0.0085526959
0.0088725365
0.0092291274
0.0096373863
0.010109895
0.010700809
0.011410663
0.012558165
0.013822804
0.01966655
0.016042203
0.0098453999
0.0085137923
0.0080164458
0.0074968416
0.0070538491
0.0067171016
0.0064564898
0.0062246649
0.0060121603
0.0058236831
0.0056638113
0.0055225762
0.0053861787
0.0052614584
0.0051516065
0.0050467073
0.0049490413
0.0048586063
0.0047729995
0.0046926442
0.0046165909
0.0045440172
0.0044755223
0.0044096039
0.0043465166
0.0042865343
0.0042284942
0.0041723155
0.0041184556
0.0040664961
0.004015514
0.00396631
0.0039188799
0.0038723327
0.0038265691
0.0037821636
0.0037390571
0.0036964644
0.0036544289
0.0036132799
0.0035731388
0.0035334075
0.0034940272
0.0034550239
0.0034167526
0.0033790162
0.0033413585
0.0033038376
0.0032666483
0.0032299697
0.0031933777
0.0031567433
0.0031200127
0.00308353
0.0030473324
0.0030108525
0.0029741923
0.0029372452
0.0029003901
0.0028635723
0.0028262092
0.0027884951
0.0027503224
0.0027120042
0.0026734201
0.0026340813
0.0025941385
0.0025535332
0.0025124968
0.002470822
0.0024281388
0.0023844788
0.0023399594
0.0022946321
0.0022480844
0.0022001665
0.0021508657
0.0021003462
0.0020483511
0.0019944381
0.0019385726
0.0018809011
0.0018211499
0.0017587491
0.0016936535
0.0016258371
0.0015548841
0.0014802058
0.0014032135
0.001326602
0.0012517392
0.0011784663
0.0011068121
0.0010366684
0.00096765853
0.00089984068
0.00083328519
0.00076815889
0.00070436746
0.00064183784
0.00058079903
0.00052141934
0.0004640837
0.00040929643
0.00035680135
0.00030952647
0.00026365587
0.00023707894
0.0001947662
0.00035539497
-0.0003243764
0.0061486307
0.0061871273
0.0062650568
0.0063619875
0.0064789358
0.0066142038
0.0067658072
0.006932644
0.0071142665
0.0073106956
0.0075224009
0.0077503784
0.0079962396
0.0082625036
0.0085526959
0.0088725365
0.0092291274
0.0096373863
0.010109895
0.010700809
0.011410663
0.012558165
0.013822805
0.019663426
0.016044964
0.0098460327
0.0085140131
0.0080165932
0.007496952
0.0070539397
0.0067171784
0.0064565554
0.0062247215
0.0060122097
0.0058237266
0.00566385
0.0055226107
0.0053862098
0.0052614866
0.0051516322
0.0050467309
0.004949063
0.0048586262
0.004773018
0.0046926614
0.0046166069
0.0045440322
0.0044755363
0.004409617
0.0043465289
0.0042865459
0.0042285052
0.0041723258
0.0041184654
0.0040665054
0.0040155228
0.0039663183
0.0039188878
0.0038723402
0.0038265762
0.0037821705
0.0037390636
0.0036964706
0.0036544348
0.0036132855
0.0035731442
0.0035334127
0.0034940321
0.0034550287
0.0034167571
0.0033790206
0.0033413627
0.0033038416
0.0032666521
0.0032299733
0.0031933812
0.0031567466
0.003120016
0.0030835331
0.0030473353
0.0030108553
0.002974195
0.0029372478
0.0029003926
0.0028635747
0.0028262115
0.0027884974
0.0027503245
0.0027120063
0.0026734221
0.0026340832
0.0025941403
0.0025535349
0.0025124985
0.0024708236
0.0024281403
0.0023844802
0.0023399608
0.0022946335
0.0022480856
0.0022001677
0.0021508669
0.0021003473
0.0020483521
0.0019944391
0.0019385735
0.001880902
0.0018211508
0.0017587499
0.0016936543
0.0016258378
0.0015548848
0.0014802064
0.0014032141
0.0013266026
0.0012517397
0.0011784668
0.0011068126
0.0010366689
0.000967659
0.00089984113
0.00083328562
0.0007681593
0.00070436786
0.00064183822
0.0005807994
0.00052141969
0.00046408405
0.00040929676
0.00035680167
0.00030952679
0.00026365617
0.00023707924
0.00019476651
0.00035539532
-0.00032437616
0.0061486307
0.0061871273
0.0062650568
0.0063619875
0.0064789358
0.0066142038
0.0067658072
0.006932644
0.0071142665
0.0073106956
0.007522401
0.0077503784
0.0079962396
0.0082625036
0.0085526959
0.0088725366
0.0092291274
0.0096373863
0.010109895
0.010700809
0.011410663
0.012558165
0.013822806
0.019660862
0.016049402
0.0098471749
0.0085143588
0.0080168103
0.0074971117
0.0070540693
0.0067172875
0.0064566483
0.0062248012
0.006012279
0.0058237876
0.0056639039
0.0055226588
0.005386253
0.0052615257
0.0051516678
0.0050467634
0.0049490928
0.0048586538
0.0047730434
0.004692685
0.0046166289
0.0045440527
0.0044755555
0.004409635
0.0043465458
0.0042865618
0.0042285201
0.0041723399
0.0041184787
0.004066518
0.0040155348
0.0039663296
0.0039188986
0.0038723505
0.003826586
0.0037821797
0.0037390724
0.003696479
0.0036544428
0.0036132932
0.0035731515
0.0035334196
0.0034940388
0.003455035
0.0034167632
0.0033790264
0.0033413683
0.0033038469
0.0032666572
0.0032299782
0.0031933859
0.0031567511
0.0031200203
0.0030835372
0.0030473393
0.0030108591
0.0029741986
0.0029372513
0.0029003959
0.0028635779
0.0028262146
0.0027885003
0.0027503273
0.002712009
0.0026734247
0.0026340857
0.0025941427
0.0025535372
0.0025125006
0.0024708257
0.0024281424
0.0023844821
0.0023399626
0.0022946352
0.0022480873
0.0022001693
0.0021508684
0.0021003487
0.0020483535
0.0019944404
0.0019385748
0.0018809032
0.0018211519
0.001758751
0.0016936553
0.0016258388
0.0015548857
0.0014802073
0.0014032149
0.0013266034
0.0012517405
0.0011784675
0.0011068133
0.0010366695
0.00096765961
0.00089984171
0.00083328618
0.00076815984
0.00070436838
0.00064183872
0.00058079988
0.00052142015
0.00046408449
0.0004092972
0.00035680209
0.00030952719
0.00026365656
0.00023707963
0.0001947669
0.00035539577
-0.00032437587
0.0061486307
0.0061871273
0.0062650568
0.0063619875
0.0064789358
0.0066142038
0.0067658072
0.006932644
0.0071142665
0.0073106956
0.007522401
0.0077503784
0.0079962396
0.0082625036
0.008552696
0.0088725366
0.0092291274
0.0096373863
0.010109895
0.010700809
0.011410663
0.012558164
0.013822807
0.019658989
0.016055531
0.0098490549
0.0085148639
0.0080171055
0.0074973236
0.0070542387
0.0067174289
0.0064567679
0.0062249035
0.0060123675
0.0058238651
0.0056639724
0.0055227196
0.0053863075
0.005261575
0.0051517125
0.0050468042
0.0049491302
0.0048586882
0.0047730752
0.0046927144
0.0046166563
0.0045440781
0.0044755792
0.0044096572
0.0043465667
0.0042865814
0.0042285386
0.0041723573
0.0041184952
0.0040665335
0.0040155494
0.0039663435
0.0039189117
0.003872363
0.0038265979
0.003782191
0.0037390832
0.0036964893
0.0036544526
0.0036133025
0.0035731604
0.0035334281
0.0034940469
0.0034550428
0.0034167706
0.0033790335
0.003341375
0.0033038534
0.0032666634
0.0032299841
0.0031933916
0.0031567566
0.0031200255
0.0030835422
0.0030473441
0.0030108637
0.002974203
0.0029372555
0.0029003999
0.0028635818
0.0028262183
0.0027885039
0.0027503307
0.0027120122
0.0026734278
0.0026340887
0.0025941455
0.0025535399
0.0025125033
0.0024708282
0.0024281447
0.0023844844
0.0023399648
0.0022946373
0.0022480893
0.0022001712
0.0021508702
0.0021003505
0.0020483552
0.001994442
0.0019385763
0.0018809046
0.0018211533
0.0017587523
0.0016936566
0.0016258399
0.0015548868
0.0014802083
0.0014032159
0.0013266043
0.0012517414
0.0011784684
0.0011068141
0.0010366703
0.00096766033
0.0008998424
0.00083328684
0.00076816047
0.00070436898
0.0006418393
0.00058080044
0.0005214207
0.00046408501
0.0004092977
0.00035680258
0.00030952767
0.00026365703
0.00023708009
0.00019476733
0.0003553963
-0.00032437554
0.0061486307
0.0061871273
0.0062650569
0.0063619875
0.0064789358
0.0066142038
0.0067658072
0.006932644
0.0071142665
0.0073106956
0.007522401
0.0077503784
0.0079962396
0.0082625036
0.008552696
0.0088725366
0.0092291274
0.0096373863
0.010109895
0.010700809
0.011410663
0.012558163
0.013822808
0.019657452
0.016063236
0.0098518033
0.0085155718
0.0080175027
0.0074976041
0.0070544611
0.0067176137
0.0064569238
0.0062250365
0.0060124825
0.0058239657
0.0056640611
0.0055227984
0.005386378
0.0052616386
0.0051517702
0.0050468568
0.0049491784
0.0048587325
0.0047731161
0.0046927523
0.0046166914
0.0045441109
0.0044756098
0.0044096858
0.0043465935
0.0042866065
0.0042285622
0.0041723796
0.0041185162
0.0040665534
0.0040155682
0.0039663613
0.0039189286
0.003872379
0.003826613
0.0037822055
0.0037390969
0.0036965023
0.003654465
0.0036133143
0.0035731717
0.0035334389
0.0034940572
0.0034550526
0.00341678
0.0033790425
0.0033413836
0.0033038616
0.0032666713
0.0032299917
0.0031933988
0.0031567635
0.0031200321
0.0030835485
0.0030473502
0.0030108695
0.0029742086
0.0029372608
0.0029004051
0.0028635867
0.002826223
0.0027885084
0.002750335
0.0027120163
0.0026734317
0.0026340925
0.0025941491
0.0025535434
0.0025125066
0.0024708313
0.0024281478
0.0023844873
0.0023399675
0.00229464
0.0022480918
0.0022001736
0.0021508725
0.0021003526
0.0020483572
0.001994444
0.0019385782
0.0018809064
0.001821155
0.0017587539
0.0016936581
0.0016258414
0.0015548882
0.0014802096
0.0014032171
0.0013266054
0.0012517425
0.0011784694
0.0011068151
0.0010366712
0.00096766123
0.00089984326
0.00083328767
0.00076816126
0.00070436974
0.00064184003
0.00058080114
0.00052142137
0.00046408567
0.00040929833
0.00035680319
0.00030952826
0.0002636576
0.00023708066
0.00019476786
0.00035539696
-0.00032437513
0.0061486307
0.0061871273
0.0062650569
0.0063619875
0.0064789358
0.0066142038
0.0067658072
0.006932644
0.0071142665
0.0073106956
0.007522401
0.0077503784
0.0079962397
0.0082625037
0.008552696
0.0088725366
0.0092291274
0.0096373863
0.010109895
0.010700808
0.011410662
0.012558162
0.013822809
0.019656048
0.01607153
0.0098553137
0.008516481
0.0080179992
0.0074979504
0.0070547342
0.00671784
0.0064571145
0.0062251992
0.0060126233
0.0058240889
0.0056641697
0.0055228948
0.0053864643
0.0052617165
0.0051518409
0.0050469213
0.0049492375
0.0048587868
0.0047731663
0.0046927987
0.0046167345
0.004544151
0.0044756473
0.0044097209
0.0043466263
0.0042866374
0.0042285912
0.0041724069
0.004118542
0.0040665778
0.0040155913
0.0039663832
0.0039189493
0.0038723986
0.0038266317
0.0037822232
0.0037391138
0.0036965184
0.0036544803
0.0036133289
0.0035731856
0.0035334522
0.0034940699
0.0034550647
0.0034167916
0.0033790535
0.0033413942
0.0033038717
0.003266681
0.0032300009
0.0031934077
0.003156772
0.0031200402
0.0030835563
0.0030473576
0.0030108766
0.0029742154
0.0029372674
0.0029004113
0.0028635927
0.0028262288
0.0027885139
0.0027503403
0.0027120214
0.0026734366
0.0026340971
0.0025941536
0.0025535476
0.0025125106
0.0024708352
0.0024281515
0.0023844909
0.0023399709
0.0022946432
0.0022480949
0.0022001765
0.0021508753
0.0021003553
0.0020483598
0.0019944464
0.0019385805
0.0018809086
0.0018211571
0.0017587559
0.00169366
0.0016258431
0.0015548899
0.0014802112
0.0014032186
0.0013266069
0.0012517438
0.0011784707
0.0011068163
0.0010366724
0.00096766234
0.00089984432
0.00083328868
0.00076816224
0.00070437068
0.00064184093
0.00058080201
0.00052142221
0.00046408647
0.00040929911
0.00035680394
0.00030952899
0.00026365831
0.00023708136
0.00019476852
0.00035539777
-0.00032437463
0.0061486307
0.0061871273
0.0062650569
0.0063619875
0.0064789358
0.0066142038
0.0067658073
0.006932644
0.0071142666
0.0073106956
0.007522401
0.0077503784
0.0079962397
0.0082625037
0.008552696
0.0088725366
0.0092291274
0.0096373862
0.010109895
0.010700808
0.011410662
0.01255816
0.013822811
0.019654668
0.016079592
0.0098592278
0.0085175924
0.0080185923
0.0074983588
0.007055054
0.0067181043
0.006457337
0.0062253889
0.0060127873
0.0058242324
0.0056642963
0.0055230071
0.005386565
0.0052618074
0.0051519234
0.0050469965
0.0049493064
0.0048588502
0.0047732247
0.0046928529
0.0046167848
0.0045441979
0.004475691
0.0044097618
0.0043466647
0.0042866734
0.0042286251
0.0041724389
0.0041185721
0.0040666062
0.0040156182
0.0039664087
0.0039189735
0.0038724216
0.0038266535
0.0037822439
0.0037391335
0.0036965372
0.0036544982
0.003613346
0.0035732019
0.0035334677
0.0034940847
0.0034550789
0.0034168051
0.0033790665
0.0033414066
0.0033038836
0.0032666923
0.0032300118
0.0031934181
0.0031567819
0.0031200497
0.0030835654
0.0030473664
0.003010885
0.0029742235
0.0029372751
0.0029004187
0.0028635998
0.0028262355
0.0027885204
0.0027503465
0.0027120274
0.0026734423
0.0026341026
0.0025941588
0.0025535526
0.0025125154
0.0024708398
0.0024281559
0.002384495
0.0023399749
0.002294647
0.0022480986
0.00220018
0.0021508786
0.0021003585
0.0020483628
0.0019944493
0.0019385832
0.0018809112
0.0018211595
0.0017587582
0.0016936622
0.0016258452
0.0015548918
0.0014802131
0.0014032203
0.0013266085
0.0012517454
0.0011784722
0.0011068177
0.0010366737
0.00096766365
0.00089984557
0.00083328988
0.00076816338
0.00070437178
0.00064184199
0.00058080303
0.00052142319
0.00046408742
0.00040930003
0.00035680482
0.00030952985
0.00026365914
0.00023708219
0.0001947693
0.00035539872
-0.00032437404
0.0061486307
0.0061871273
0.0062650569
0.0063619875
0.0064789359
0.0066142038
0.0067658073
0.006932644
0.0071142666
0.0073106956
0.007522401
0.0077503785
0.0079962397
0.0082625037
0.008552696
0.0088725366
0.0092291274
0.0096373862
0.010109894
0.010700808
0.011410662
0.012558157
0.013822814
0.019653232
0.016087279
0.0098634746
0.0085189268
0.0080192902
0.0074988328
0.0070554227
0.0067184079
0.0064575922
0.0062256062
0.006012975
0.0058243965
0.0056644409
0.0055231354
0.0053866799
0.0052619111
0.0051520174
0.0050470822
0.0049493849
0.0048589224
0.0047732914
0.0046929146
0.0046168422
0.0045442513
0.0044757408
0.0044098084
0.0043467084
0.0042867144
0.0042286637
0.0041724752
0.0041186064
0.0040666387
0.0040156489
0.0039664377
0.003919001
0.0038724477
0.0038266783
0.0037822675
0.0037391559
0.0036965586
0.0036545186
0.0036133654
0.0035732204
0.0035334854
0.0034941016
0.003455095
0.0034168205
0.0033790812
0.0033414207
0.0033038971
0.0032667052
0.0032300241
0.0031934299
0.0031567932
0.0031200606
0.0030835758
0.0030473763
0.0030108945
0.0029742326
0.0029372838
0.0029004271
0.0028636078
0.0028262432
0.0027885277
0.0027503536
0.0027120341
0.0026734488
0.0026341088
0.0025941648
0.0025535583
0.0025125209
0.002470845
0.0024281609
0.0023844998
0.0023399795
0.0022946514
0.0022481027
0.002200184
0.0021508824
0.0021003621
0.0020483663
0.0019944526
0.0019385863
0.0018809141
0.0018211623
0.0017587608
0.0016936647
0.0016258476
0.0015548941
0.0014802152
0.0014032224
0.0013266104
0.0012517472
0.0011784739
0.0011068194
0.0010366753
0.00096766514
0.000899847
0.00083329125
0.0007681647
0.00070437304
0.0006418432
0.00058080419
0.00052142431
0.0004640885
0.00040930107
0.00035680584
0.00030953084
0.00026366009
0.00023708314
0.00019477019
0.00035539981
-0.00032437336
0.0061486307
0.0061871273
0.0062650569
0.0063619875
0.0064789359
0.0066142038
0.0067658073
0.006932644
0.0071142666
0.0073106956
0.007522401
0.0077503785
0.0079962397
0.0082625037
0.008552696
0.0088725366
0.0092291274
0.0096373861
0.010109894
0.010700807
0.011410661
0.012558154
0.013822817
0.019651665
0.016094654
0.0098686946
0.0085205201
0.0080201093
0.0074993816
0.0070558465
0.0067187555
0.0064578836
0.006225854
0.0060131889
0.0058245834
0.0056646054
0.0055232814
0.0053868105
0.0052620289
0.0051521242
0.0050471796
0.0049494741
0.0048590044
0.004773367
0.0046929846
0.0046169071
0.0045443117
0.0044757973
0.0044098611
0.0043467578
0.0042867609
0.0042287074
0.0041725164
0.0041186453
0.0040666753
0.0040156836
0.0039664706
0.0039190322
0.0038724773
0.0038267064
0.0037822942
0.0037391813
0.0036965827
0.0036545416
0.0036133874
0.0035732413
0.0035335054
0.0034941207
0.0034551132
0.003416838
0.0033790978
0.0033414366
0.0033039123
0.0032667198
0.0032300381
0.0031934432
0.003156806
0.0031200728
0.0030835875
0.0030473875
0.0030109053
0.0029742429
0.0029372937
0.0029004366
0.0028636169
0.0028262519
0.0027885361
0.0027503616
0.0027120418
0.0026734561
0.0026341158
0.0025941715
0.0025535648
0.002512527
0.0024708509
0.0024281665
0.0023845052
0.0023399846
0.0022946563
0.0022481074
0.0022001885
0.0021508867
0.0021003662
0.0020483701
0.0019944562
0.0019385898
0.0018809175
0.0018211655
0.0017587639
0.0016936676
0.0016258503
0.0015548967
0.0014802176
0.0014032246
0.0013266126
0.0012517492
0.0011784759
0.0011068212
0.0010366771
0.00096766683
0.00089984862
0.00083329279
0.00076816618
0.00070437446
0.00064184457
0.00058080551
0.00052142558
0.00046408973
0.00040930225
0.00035680698
0.00030953195
0.00026366117
0.0002370842
0.0001947712
0.00035540104
-0.0003243726
0.0061486307
0.0061871273
0.0062650569
0.0063619875
0.0064789359
0.0066142038
0.0067658073
0.006932644
0.0071142666
0.0073106957
0.0075224011
0.0077503785
0.0079962397
0.0082625037
0.008552696
0.0088725366
0.0092291273
0.009637386
0.010109894
0.010700807
0.01141066
0.01255815
0.013822821
0.019649887
0.016101739
0.0098752059
0.0085224193
0.0080210714
0.0075000177
0.0070563339
0.0067191536
0.0064582167
0.0062261369
0.0060134328
0.0058247962
0.0056647927
0.0055234473
0.0053869589
0.0052621627
0.0051522455
0.00504729
0.0049495751
0.0048590972
0.0047734527
0.0046930638
0.0046169807
0.0045443802
0.0044758611
0.0044099208
0.0043468137
0.0042868134
0.0042287568
0.0041725629
0.0041186891
0.0040667168
0.0040157228
0.0039665077
0.0039190673
0.0038725106
0.0038267381
0.0037823243
0.00373921
0.00369661
0.0036545676
0.0036134121
0.0035732649
0.0035335279
0.0034941422
0.0034551338
0.0034168576
0.0033791166
0.0033414545
0.0033039294
0.0032667362
0.0032300538
0.0031934583
0.0031568204
0.0031200866
0.0030836007
0.0030474002
0.0030109174
0.0029742545
0.0029373048
0.0029004472
0.0028636271
0.0028262617
0.0027885454
0.0027503705
0.0027120504
0.0026734643
0.0026341237
0.002594179
0.002553572
0.0025125339
0.0024708575
0.0024281728
0.0023845112
0.0023399904
0.0022946618
0.0022481127
0.0022001935
0.0021508915
0.0021003707
0.0020483745
0.0019944604
0.0019385938
0.0018809212
0.0018211691
0.0017587672
0.0016936708
0.0016258534
0.0015548995
0.0014802203
0.0014032272
0.001326615
0.0012517515
0.001178478
0.0011068233
0.0010366791
0.00096766872
0.00089985043
0.00083329453
0.00076816785
0.00070437606
0.0006418461
0.00058080699
0.000521427
0.0004640911
0.00040930358
0.00035680826
0.0003095332
0.00026366238
0.0002370854
0.00019477232
0.00035540241
-0.00032437174
0.0061486307
0.0061871273
0.0062650569
0.0063619876
0.0064789359
0.0066142039
0.0067658073
0.0069326441
0.0071142666
0.0073106957
0.0075224011
0.0077503785
0.0079962398
0.0082625038
0.008552696
0.0088725366
0.0092291273
0.0096373859
0.010109894
0.010700806
0.011410659
0.012558145
0.013822826
0.019647791
0.016108215
0.0098828645
0.0085246832
0.0080222045
0.0075007565
0.0070568957
0.0067196105
0.0064585982
0.0062264603
0.0060137111
0.005825039
0.0056650061
0.0055236362
0.0053871277
0.0052623148
0.0051523832
0.0050474154
0.0049496899
0.0048592026
0.0047735498
0.0046931537
0.004617064
0.0045444577
0.0044759334
0.0044099884
0.0043468771
0.0042868728
0.0042288126
0.0041726155
0.0041187387
0.0040667636
0.004015767
0.0039665496
0.0039191071
0.0038725483
0.0038267739
0.0037823583
0.0037392423
0.0036966407
0.0036545969
0.00361344
0.0035732916
0.0035335533
0.0034941664
0.0034551569
0.0034168797
0.0033791377
0.0033414747
0.0033039488
0.0032667547
0.0032300715
0.0031934752
0.0031568366
0.0031201022
0.0030836156
0.0030474144
0.0030109311
0.0029742676
0.0029373174
0.0029004592
0.0028636386
0.0028262727
0.002788556
0.0027503807
0.00271206
0.0026734736
0.0026341325
0.0025941875
0.0025535801
0.0025125417
0.002470865
0.0024281799
0.0023845181
0.0023399969
0.002294668
0.0022481186
0.0022001992
0.0021508969
0.0021003759
0.0020483794
0.0019944651
0.0019385982
0.0018809255
0.0018211731
0.001758771
0.0016936744
0.0016258568
0.0015549027
0.0014802234
0.0014032301
0.0013266178
0.0012517541
0.0011784805
0.0011068257
0.0010366813
0.00096767085
0.00089985247
0.00083329648
0.00076816971
0.00070437786
0.00064184783
0.00058080865
0.0005214286
0.00046409264
0.00040930507
0.0003568097
0.0003095346
0.00026366373
0.00023708675
0.00019477359
0.00035540396
-0.00032437078
0.0061486307
0.0061871274
0.0062650569
0.0063619876
0.0064789359
0.0066142039
0.0067658073
0.0069326441
0.0071142667
0.0073106957
0.0075224011
0.0077503786
0.0079962398
0.0082625038
0.0085526961
0.0088725366
0.0092291272
0.0096373857
0.010109893
0.010700805
0.011410658
0.012558138
0.013822832
0.019645247
0.016113081
0.0098917244
0.0085273847
0.0080235425
0.0075016171
0.0070575447
0.0067201362
0.0064590359
0.0062268308
0.0060140297
0.0058253165
0.0056652498
0.0055238518
0.0053873203
0.0052624882
0.0051525401
0.0050475581
0.0049498204
0.0048593224
0.0047736602
0.0046932558
0.0046171587
0.0045445458
0.0044760155
0.0044100651
0.0043469489
0.0042869402
0.004228876
0.0041726751
0.004118795
0.0040668167
0.0040158172
0.0039665971
0.0039191521
0.0038725909
0.0038268143
0.0037823968
0.0037392789
0.0036966755
0.00365463
0.0036134716
0.0035733217
0.003533582
0.0034941938
0.0034551831
0.0034169047
0.0033791616
0.0033414976
0.0033039706
0.0032667756
0.0032300915
0.0031934943
0.0031568549
0.0031201197
0.0030836324
0.0030474305
0.0030109465
0.0029742823
0.0029373315
0.0029004727
0.0028636515
0.0028262851
0.0027885679
0.002750392
0.002712071
0.002673484
0.0026341425
0.0025941971
0.0025535893
0.0025125505
0.0024708733
0.0024281879
0.0023845257
0.0023400042
0.002294675
0.0022481253
0.0022002055
0.002150903
0.0021003817
0.0020483849
0.0019944703
0.0019386032
0.0018809302
0.0018211776
0.0017587753
0.0016936784
0.0016258606
0.0015549064
0.0014802268
0.0014032333
0.0013266208
0.001251757
0.0011784833
0.0011068283
0.0010366838
0.00096767325
0.00089985476
0.00083329867
0.00076817182
0.00070437987
0.00064184977
0.00058081051
0.0005214304
0.00046409437
0.00040930674
0.00035681132
0.00030953617
0.00026366525
0.00023708826
0.00019477501
0.00035540569
-0.0003243697
0.0061486307
0.0061871274
0.0062650569
0.0063619876
0.0064789359
0.0066142039
0.0067658074
0.0069326441
0.0071142667
0.0073106958
0.0075224012
0.0077503786
0.0079962398
0.0082625038
0.0085526961
0.0088725366
0.0092291272
0.0096373855
0.010109893
0.010700804
0.011410657
0.012558129
0.01382284
0.019642112
0.016115731
0.009901933
0.0085306108
0.0080251274
0.0075026224
0.0070582966
0.0067207422
0.0064595394
0.0062272563
0.006014395
0.0058256343
0.0056655288
0.0055240984
0.0053875404
0.0052626862
0.0051527192
0.005047721
0.0049499692
0.004859459
0.004773786
0.0046933721
0.0046172665
0.004544646
0.0044761089
0.0044101524
0.0043470305
0.0042870168
0.0042289479
0.0041727428
0.0041188588
0.0040668769
0.0040158741
0.0039666509
0.0039192031
0.0038726393
0.0038268602
0.0037824404
0.0037393203
0.003696715
0.0036546676
0.0036135074
0.0035733558
0.0035336145
0.0034942248
0.0034552127
0.003416933
0.0033791886
0.0033415234
0.0033039953
0.0032667992
0.0032301141
0.003193516
0.0031568756
0.0031201395
0.0030836514
0.0030474487
0.0030109639
0.002974299
0.0029373474
0.002900488
0.0028636662
0.0028262992
0.0027885813
0.0027504049
0.0027120833
0.0026734958
0.0026341538
0.0025942079
0.0025535996
0.0025125604
0.0024708828
0.002428197
0.0023845344
0.0023400125
0.0022946829
0.0022481328
0.0022002127
0.0021509098
0.0021003882
0.0020483911
0.0019944762
0.0019386089
0.0018809356
0.0018211827
0.0017587801
0.001693683
0.0016258649
0.0015549105
0.0014802307
0.001403237
0.0013266243
0.0012517603
0.0011784864
0.0011068313
0.0010366866
0.00096767595
0.00089985734
0.00083330114
0.00076817418
0.00070438214
0.00064185195
0.00058081261
0.00052143242
0.00046409632
0.00040930863
0.00035681314
0.00030953794
0.00026366696
0.00023708995
0.00019477661
0.00035540764
-0.00032436849
0.0061486307
0.0061871274
0.006265057
0.0063619876
0.006478936
0.006614204
0.0067658074
0.0069326442
0.0071142668
0.0073106958
0.0075224012
0.0077503787
0.0079962399
0.0082625039
0.0085526961
0.0088725365
0.009229127
0.0096373852
0.010109892
0.010700803
0.011410655
0.012558119
0.013822849
0.019638217
0.016116907
0.009913643
0.0085344608
0.0080270094
0.0075038006
0.0070591699
0.0067214428
0.0064601198
0.006227746
0.006014815
0.0058259994
0.0056658488
0.0055243811
0.0053877925
0.0052629129
0.0051529241
0.0050479072
0.0049501393
0.004859615
0.0047739296
0.0046935047
0.0046173894
0.0045447602
0.0044762153
0.0044102517
0.0043471235
0.004287104
0.0042290298
0.0041728199
0.0041189314
0.0040669454
0.0040159388
0.0039667122
0.003919261
0.0038726943
0.0038269124
0.0037824899
0.0037393674
0.0036967597
0.0036547102
0.0036135479
0.0035733944
0.0035336514
0.00349426
0.0034552463
0.0034169651
0.0033792193
0.0033415527
0.0033040233
0.003266826
0.0032301397
0.0031935405
0.0031568991
0.0031201619
0.0030836729
0.0030474692
0.0030109836
0.0029743179
0.0029373655
0.0029005053
0.0028636827
0.002826315
0.0027885965
0.0027504195
0.0027120972
0.0026735092
0.0026341666
0.0025942201
0.0025536113
0.0025125716
0.0024708935
0.0024282072
0.0023845442
0.0023400219
0.0022946919
0.0022481414
0.0022002209
0.0021509176
0.0021003956
0.0020483982
0.001994483
0.0019386152
0.0018809416
0.0018211884
0.0017587856
0.0016936882
0.0016258698
0.0015549151
0.001480235
0.0014032411
0.0013266282
0.001251764
0.0011784899
0.0011068346
0.0010366898
0.00096767899
0.00089986025
0.00083330393
0.00076817685
0.00070438471
0.00064185441
0.00058081498
0.0005214347
0.00046409852
0.00040931075
0.00035681519
0.00030953993
0.00026366889
0.00023709187
0.00019477841
0.00035540983
-0.00032436713
0.0061486307
0.0061871274
0.006265057
0.0063619877
0.006478936
0.006614204
0.0067658075
0.0069326442
0.0071142668
0.0073106959
0.0075224013
0.0077503788
0.00799624
0.0082625039
0.0085526961
0.0088725365
0.0092291269
0.0096373848
0.010109892
0.010700801
0.011410653
0.012558105
0.013822861
0.019633353
0.016117291
0.009927
0.008539049
0.0080292493
0.0075051857
0.007060187
0.0067222545
0.0064607906
0.0062283109
0.0060152987
0.0058264194
0.0056662168
0.0055247059
0.0053880818
0.0052631729
0.005153159
0.0050481205
0.0049503341
0.0048597935
0.0047740939
0.0046936564
0.0046175299
0.0045448908
0.0044763369
0.0044103652
0.0043472297
0.0042872035
0.0042291232
0.0041729078
0.0041190142
0.0040670235
0.0040160126
0.0039667819
0.0039193271
0.0038727568
0.0038269717
0.0037825463
0.003739421
0.0036968107
0.0036547586
0.0036135941
0.0035734384
0.0035336933
0.0034943
0.0034552845
0.0034170015
0.0033792541
0.0033415859
0.0033040551
0.0032668564
0.0032301688
0.0031935683
0.0031569257
0.0031201874
0.0030836973
0.0030474926
0.0030110059
0.0029743393
0.002937386
0.002900525
0.0028637015
0.002826333
0.0027886137
0.002750436
0.002712113
0.0026735243
0.0026341811
0.002594234
0.0025536246
0.0025125843
0.0024709056
0.0024282188
0.0023845552
0.0023400325
0.002294702
0.002248151
0.0022002301
0.0021509264
0.002100404
0.0020484062
0.0019944905
0.0019386225
0.0018809485
0.0018211949
0.0017587918
0.001693694
0.0016258754
0.0015549203
0.00148024
0.0014032458
0.0013266326
0.0012517682
0.0011784939
0.0011068384
0.0010366934
0.00096768244
0.00089986354
0.00083330708
0.00076817987
0.0007043876
0.0006418572
0.00058081766
0.00052143728
0.00046410101
0.00040931315
0.00035681751
0.00030954218
0.00026367107
0.00023709403
0.00019478044
0.00035541231
-0.00032436558
0.0061486307
0.0061871275
0.006265057
0.0063619877
0.0064789361
0.0066142041
0.0067658075
0.0069326443
0.0071142669
0.007310696
0.0075224014
0.0077503788
0.00799624
0.008262504
0.0085526961
0.0088725364
0.0092291267
0.0096373843
0.010109891
0.010700798
0.01141065
0.012558087
0.013822875
0.019627268
0.016116853
0.0099420106
0.0085445034
0.0080319192
0.0075068186
0.0070613744
0.006723197
0.0064615672
0.0062289637
0.0060158571
0.0058269036
0.0056666406
0.0055250797
0.0053884146
0.0052634718
0.0051534288
0.0050483654
0.0049505575
0.0048599983
0.0047742822
0.0046938302
0.0046176909
0.0045450402
0.004476476
0.004410495
0.0043473511
0.0042873172
0.00422923
0.0041730082
0.0041191087
0.0040671127
0.0040160968
0.0039668616
0.0039194025
0.0038728282
0.0038270395
0.0037826106
0.003739482
0.0036968687
0.0036548139
0.0036136467
0.0035734886
0.0035337411
0.0034943456
0.0034553279
0.003417043
0.0033792938
0.0033416238
0.0033040913
0.003266891
0.0032302019
0.0031935999
0.003156956
0.0031202164
0.003083725
0.0030475192
0.0030110313
0.0029743636
0.0029374093
0.0029005473
0.0028637229
0.0028263535
0.0027886333
0.0027504547
0.002712131
0.0026735415
0.0026341976
0.0025942497
0.0025536397
0.0025125987
0.0024709194
0.002428232
0.0023845678
0.0023400445
0.0022947135
0.002248162
0.0022002405
0.0021509364
0.0021004135
0.0020484152
0.0019944992
0.0019386306
0.0018809563
0.0018212023
0.0017587988
0.0016937006
0.0016258817
0.0015549262
0.0014802456
0.001403251
0.0013266376
0.001251773
0.0011784984
0.0011068427
0.0010366975
0.00096768634
0.00089986727
0.00083331065
0.0007681833
0.00070439089
0.00064186035
0.00058082069
0.0005214402
0.00046410382
0.00040931587
0.00035682014
0.00030954474
0.00026367353
0.00023709648
0.00019478275
0.00035541511
-0.00032436384
0.0061486307
0.0061871275
0.0062650571
0.0063619878
0.0064789361
0.0066142041
0.0067658076
0.0069326444
0.007114267
0.0073106961
0.0075224015
0.0077503789
0.0079962401
0.008262504
0.0085526961
0.0088725363
0.0092291264
0.0096373837
0.010109889
0.010700795
0.011410646
0.012558065
0.013822893
0.019619654
0.016115544
0.009958229
0.0085509613
0.008035104
0.0075087496
0.0070627641
0.0067242936
0.006462468
0.0062297197
0.0060165027
0.005827463
0.0056671298
0.0055255107
0.0053887981
0.0052638159
0.0051537393
0.005048647
0.0049508143
0.0048602335
0.0047744984
0.0046940297
0.0046178755
0.0045452116
0.0044766355
0.0044106438
0.0043474902
0.0042874475
0.0042293522
0.0041731231
0.004119217
0.0040672147
0.0040161931
0.0039669526
0.0039194886
0.0038729099
0.0038271169
0.003782684
0.0037395518
0.0036969351
0.003654877
0.0036137068
0.0035735458
0.0035337956
0.0034943976
0.0034553776
0.0034170904
0.003379339
0.003341667
0.0033041326
0.0032669304
0.0032302396
0.003193636
0.0031569905
0.0031202494
0.0030837566
0.0030475494
0.0030110603
0.0029743913
0.0029374359
0.0029005727
0.0028637473
0.0028263768
0.0027886557
0.0027504761