/*--------------------------------*- C++ -*----------------------------------*\
  =========                 |
  \\      /  F ield         | OpenFOAM: The Open Source CFD Toolbox
   \\    /   O peration     | Website:  https://openfoam.org
    \\  /    A nd           | Version:  12
     \\/     M anipulation  |
\*---------------------------------------------------------------------------*/
FoamFile
{
    format      ascii;
    class       surfaceScalarField;
    location    "700";
    object      phi;
}
// * * * * * * * * * * * * * * * * * * * * * * * * * * * * * * * * * * * * * //

dimensions      [0 3 -1 0 0 0 0];

internalField   nonuniform List<scalar> 
25880
(
2.0046328e-06
2.1298464e-11
2.0045801e-06
5.2769876e-11
2.0045124e-06
6.7648212e-11
2.0044367e-06
7.5689375e-11
2.0043515e-06
8.5277087e-11
2.0042558e-06
9.5665681e-11
2.0041489e-06
1.0690596e-10
2.0040294e-06
1.1948767e-10
2.0038956e-06
1.3381522e-10
2.0037453e-06
1.5028776e-10
2.0035759e-06
1.6940472e-10
2.003384e-06
1.9191029e-10
2.0031652e-06
2.1874526e-10
2.0029136e-06
2.5167727e-10
2.0026212e-06
2.9232909e-10
2.0022748e-06
3.4644419e-10
2.0018605e-06
4.1430293e-10
2.0013364e-06
5.2406821e-10
2.00069e-06
6.464549e-10
1.9997244e-06
9.6551918e-10
1.9985047e-06
1.2197318e-09
1.9952535e-06
3.2512167e-09
1.9933166e-06
1.9368941e-09
1.0363348e-06
9.569818e-07
6.9069185e-08
9.6726562e-07
5.7407321e-08
1.1661864e-08
5.3500383e-08
3.9069385e-09
5.0822149e-08
2.6782335e-09
4.8782486e-08
2.0396628e-09
4.7082123e-08
1.7003634e-09
4.5617991e-08
1.4641316e-09
4.4347475e-08
1.2705161e-09
4.3236197e-08
1.1112787e-09
4.2253155e-08
9.8304176e-10
4.1374494e-08
8.786605e-10
4.0583556e-08
7.9093814e-10
3.9867261e-08
7.1629479e-10
3.9213303e-08
6.5395815e-10
3.8611741e-08
6.0156255e-10
3.8055605e-08
5.5613549e-10
3.7539006e-08
5.1659937e-10
3.7056944e-08
4.820617e-10
3.6605433e-08
4.5151093e-10
3.6181006e-08
4.2442736e-10
3.5780729e-08
4.0027675e-10
3.540213e-08
3.7859928e-10
3.5043032e-08
3.5909773e-10
3.470161e-08
3.4142194e-10
3.4376256e-08
3.2535431e-10
3.4065488e-08
3.1076756e-10
3.3768058e-08
2.9743063e-10
3.3482867e-08
2.8519077e-10
3.3208878e-08
2.7398905e-10
3.2945215e-08
2.6366329e-10
3.2691139e-08
2.5407525e-10
3.2445921e-08
2.4521863e-10
3.2208886e-08
2.3703435e-10
3.1979481e-08
2.2940524e-10
3.1757202e-08
2.222787e-10
3.1541549e-08
2.1565323e-10
3.1332063e-08
2.0948603e-10
3.1128361e-08
2.0370198e-10
3.0930093e-08
1.9826777e-10
3.0736908e-08
1.9318531e-10
3.0548469e-08
1.8843908e-10
3.0364492e-08
1.8397691e-10
3.0184728e-08
1.7976438e-10
3.0008923e-08
1.7580439e-10
2.9836826e-08
1.7209693e-10
2.9668214e-08
1.6861228e-10
2.9502894e-08
1.6531987e-10
2.9340683e-08
1.6221173e-10
2.9181393e-08
1.5928994e-10
2.9024842e-08
1.5655061e-10
2.887087e-08
1.5397174e-10
2.8719336e-08
1.5153475e-10
2.8570097e-08
1.4923889e-10
2.842301e-08
1.4708691e-10
2.8277936e-08
1.4507357e-10
2.8134753e-08
1.4318365e-10
2.7993346e-08
1.4140667e-10
2.7853603e-08
1.3974288e-10
2.7715408e-08
1.3819524e-10
2.7578648e-08
1.367595e-10
2.7443223e-08
1.354254e-10
2.7309036e-08
1.3418712e-10
2.717599e-08
1.3304524e-10
2.7043988e-08
1.320028e-10
2.6912931e-08
1.3105705e-10
2.6782729e-08
1.3020122e-10
2.6653297e-08
1.2943231e-10
2.6524545e-08
1.2875188e-10
2.6396382e-08
1.2816315e-10
2.6268718e-08
1.2766446e-10
2.6141466e-08
1.2725171e-10
2.6014541e-08
1.2692441e-10
2.5887856e-08
1.2668586e-10
2.5761316e-08
1.2653916e-10
2.5634833e-08
1.2648357e-10
2.5508315e-08
1.2651781e-10
2.5381671e-08
1.2664442e-10
2.5254802e-08
1.2686867e-10
2.5127609e-08
1.2719329e-10
2.499999e-08
1.2761901e-10
2.4871841e-08
1.2814889e-10
2.4743052e-08
1.2878924e-10
2.4613506e-08
1.2954578e-10
2.4483084e-08
1.3042217e-10
2.435166e-08
1.3142351e-10
2.4219103e-08
1.3255676e-10
2.4085269e-08
1.3383441e-10
2.3950033e-08
1.3523557e-10
2.3813145e-08
1.3688786e-10
2.36801e-08
1.3304591e-10
2.3553827e-08
1.2627283e-10
2.3433772e-08
1.2005455e-10
2.3319441e-08
1.1433086e-10
2.3210383e-08
1.0905809e-10
2.3106189e-08
1.0419405e-10
2.3006494e-08
9.9695462e-11
2.2910969e-08
9.5524357e-11
2.2819321e-08
9.1648631e-11
2.273128e-08
8.8040345e-11
2.2646605e-08
8.4675317e-11
2.2565071e-08
8.1533691e-11
2.2486474e-08
7.8597696e-11
2.2410615e-08
7.5858347e-11
2.2337318e-08
7.3297124e-11
2.2266376e-08
7.094268e-11
2.219766e-08
6.8715722e-11
2.2130767e-08
6.6893096e-11
2.2065895e-08
6.4871736e-11
2.2001472e-08
6.4423159e-11
2.194064e-08
6.0831922e-11
2.1866201e-08
7.4438662e-11
4.6778231e-11
2.0345063e-06
4.3023444e-11
2.0344525e-06
1.0665008e-10
2.0343833e-06
1.3677783e-10
2.034306e-06
1.5305523e-10
2.0342188e-06
1.7243818e-10
2.034121e-06
1.934327e-10
2.0340118e-06
2.1614218e-10
2.0338897e-06
2.4155558e-10
2.0337531e-06
2.7048953e-10
2.0335996e-06
3.037496e-10
2.0334267e-06
3.4234337e-10
2.0332308e-06
3.8777213e-10
2.0330076e-06
4.4193335e-10
2.0327509e-06
5.0839271e-10
2.0324528e-06
5.9042221e-10
2.0320996e-06
6.9960705e-10
2.0316774e-06
8.3650683e-10
2.0311436e-06
1.057922e-09
2.0304853e-06
1.3047741e-09
2.0295026e-06
1.9481759e-09
2.0282616e-06
2.4607629e-09
2.0249558e-06
6.5569732e-09
2.0229764e-06
3.916314e-09
1.1278435e-06
1.8521147e-06
2.0584912e-07
1.88926e-06
1.728322e-07
4.467879e-08
1.6123772e-07
1.5501413e-08
1.5331719e-07
1.0598767e-08
1.4728158e-07
8.0752749e-09
1.4224547e-07
6.7364718e-09
1.3790408e-07
5.8055156e-09
1.3413238e-07
5.0422142e-09
1.3082995e-07
4.4137146e-09
1.2790591e-07
3.9070807e-09
1.2529018e-07
3.4943889e-09
1.2293376e-07
3.1473565e-09
1.2079819e-07
2.8518707e-09
1.1884725e-07
2.6048937e-09
1.170516e-07
2.3972154e-09
1.1539062e-07
2.2171177e-09
1.1384695e-07
2.0602665e-09
1.1240582e-07
1.9231946e-09
1.1105542e-07
1.8019091e-09
1.097855e-07
1.6943427e-09
1.0858738e-07
1.5983984e-09
1.0745373e-07
1.5122528e-09
1.063781e-07
1.4347274e-09
1.0535507e-07
1.364446e-09
1.0437989e-07
1.3005367e-09
1.0344816e-07
1.242504e-09
1.0255615e-07
1.1894365e-09
1.0170062e-07
1.1407207e-09
1.0087848e-07
1.0961271e-09
1.0008713e-07
1.0550164e-09
9.9324367e-08
1.0168368e-09
9.8588027e-08
9.8155906e-10
9.7876103e-08
9.4895756e-10
9.7186943e-08
9.1856595e-10
9.6519052e-08
8.9016981e-10
9.587094e-08
8.6376524e-10
9.5241239e-08
8.3918699e-10
9.4628805e-08
8.1613521e-10
9.40326e-08
7.9447275e-10
9.3451576e-08
7.7420992e-10
9.2884727e-08
7.5528777e-10
9.2331205e-08
7.374988e-10
9.1790267e-08
7.2070226e-10
9.126116e-08
7.0491136e-10
9.074313e-08
6.90127e-10
9.023551e-08
6.7623251e-10
8.9737725e-08
6.631047e-10
8.9249227e-08
6.5071012e-10
8.8769458e-08
6.3905857e-10
8.8297873e-08
6.2813575e-10
8.783399e-08
6.178546e-10
8.7377386e-08
6.0813878e-10
8.6927639e-08
5.9898581e-10
8.6484319e-08
5.904069e-10
8.604701e-08
5.8238289e-10
8.561534e-08
5.7485309e-10
8.5188974e-08
5.6777313e-10
8.4767571e-08
5.6114555e-10
8.4350785e-08
5.549819e-10
8.3938277e-08
5.4926696e-10
8.3529743e-08
5.4395948e-10
8.3124896e-08
5.3903393e-10
8.2723447e-08
5.3449443e-10
8.2325097e-08
5.3035284e-10
8.1929555e-08
5.265994e-10
8.1536549e-08
5.2320676e-10
8.114582e-08
5.2016138e-10
8.0757101e-08
5.1747084e-10
8.0370116e-08
5.15148e-10
7.9984594e-08
5.1318712e-10
7.9600274e-08
5.1157127e-10
7.9216901e-08
5.1029776e-10
7.8834206e-08
5.0938058e-10
7.8451912e-08
5.0883274e-10
7.8069744e-08
5.0865152e-10
7.7687431e-08
5.0883108e-10
7.7304694e-08
5.0938178e-10
7.6921237e-08
5.1032523e-10
7.6536758e-08
5.1167304e-10
7.6150949e-08
5.134279e-10
7.5763496e-08
5.1560165e-10
7.5374065e-08
5.1822019e-10
7.4982304e-08
5.2130721e-10
7.4587848e-08
5.2487736e-10
7.4190321e-08
5.2895067e-10
7.3789322e-08
5.3355574e-10
7.3384413e-08
5.3874344e-10
7.2975219e-08
5.4442961e-10
7.256098e-08
5.5112739e-10
7.2158323e-08
5.3570253e-10
7.1776126e-08
5.0847029e-10
7.1412714e-08
4.8346636e-10
7.1066596e-08
4.6044894e-10
7.0736411e-08
4.3924314e-10
7.0420925e-08
4.1967962e-10
7.0119036e-08
4.0158428e-10
6.9829756e-08
3.8480487e-10
6.9552192e-08
3.6921255e-10
6.9285537e-08
3.5469533e-10
6.9029056e-08
3.4115593e-10
6.8782075e-08
3.2851445e-10
6.8543973e-08
3.1669972e-10
6.8314156e-08
3.0567567e-10
6.8092085e-08
2.95368e-10
6.7877135e-08
2.8589244e-10
6.7668923e-08
2.7692856e-10
6.7466221e-08
2.6959437e-10
6.726964e-08
2.6145309e-10
6.70744e-08
2.5966266e-10
6.6890104e-08
2.4512816e-10
6.6664207e-08
3.0033559e-10
1.8813129e-10
2.0946986e-06
6.552917e-11
2.0946427e-06
1.6253874e-10
2.0945709e-06
2.085636e-10
2.0944905e-06
2.3341973e-10
2.0944e-06
2.6297191e-10
2.0942985e-06
2.9496704e-10
2.094185e-06
3.2956415e-10
2.0940583e-06
3.6826898e-10
2.0939165e-06
4.1232492e-10
2.0937573e-06
4.6295769e-10
2.0935779e-06
5.2169973e-10
2.0933749e-06
5.9083405e-10
2.0931436e-06
6.732455e-10
2.0928776e-06
7.7435619e-10
2.0925689e-06
8.9913866e-10
2.0922033e-06
1.0652099e-09
2.0917664e-06
1.2734066e-09
2.0912142e-06
1.6100949e-09
2.0905336e-06
1.9853961e-09
2.0895183e-06
2.9634577e-09
2.0882368e-06
3.7423099e-09
2.0848251e-06
9.9686342e-09
2.0827757e-06
5.965701e-09
1.2321206e-06
2.7027698e-06
3.3839487e-07
2.7829857e-06
2.8471034e-07
9.8363323e-08
2.6609722e-07
3.4114533e-08
2.5358774e-07
2.3108245e-08
2.4407088e-07
1.7592142e-08
2.3612636e-07
1.4680982e-08
2.2926761e-07
1.2664267e-08
2.2329788e-07
1.1011948e-08
2.180612e-07
9.650399e-09
2.1341633e-07
8.5519469e-09
2.0925432e-07
7.6563984e-09
2.0549912e-07
6.9025521e-09
2.0209095e-07
6.2600484e-09
1.9897323e-07
5.7226134e-09
1.9610003e-07
5.2704092e-09
1.9343917e-07
4.8779842e-09
1.9096348e-07
4.5359545e-09
1.8864978e-07
4.2368912e-09
1.8647957e-07
3.9721163e-09
1.8443676e-07
3.7371549e-09
1.8250768e-07
3.5274787e-09
1.8068081e-07
3.3391233e-09
1.78946e-07
3.1695344e-09
1.7729473e-07
3.0157248e-09
1.7571947e-07
2.8757932e-09
1.7421329e-07
2.7486828e-09
1.7277032e-07
2.6324078e-09
1.7138541e-07
2.5256252e-09
1.7005369e-07
2.4278504e-09
1.6877102e-07
2.3376877e-09
1.6753393e-07
2.2539249e-09
1.6633899e-07
2.1765049e-09
1.65183e-07
2.1049465e-09
1.6406334e-07
2.0382234e-09
1.6297765e-07
1.9758626e-09
1.6192355e-07
1.9178651e-09
1.6089886e-07
1.8638742e-09
1.5990177e-07
1.8132279e-09
1.5893062e-07
1.7656225e-09
1.5798374e-07
1.721088e-09
1.5705953e-07
1.6794999e-09
1.5615663e-07
1.6404001e-09
1.5527385e-07
1.6034748e-09
1.5441001e-07
1.5687587e-09
1.5356388e-07
1.5362577e-09
1.5273439e-07
1.5057152e-09
1.5192064e-07
1.4768574e-09
1.5112174e-07
1.4496108e-09
1.503368e-07
1.4240008e-09
1.4956493e-07
1.3999983e-09
1.4880538e-07
1.377411e-09
1.4805745e-07
1.3560673e-09
1.4732047e-07
1.3359644e-09
1.4659375e-07
1.3171288e-09
1.4587661e-07
1.2995207e-09
1.4516846e-07
1.2830052e-09
1.4446875e-07
1.2674813e-09
1.4377694e-07
1.2529579e-09
1.4309246e-07
1.2394616e-09
1.4241477e-07
1.2269608e-09
1.4174336e-07
1.2153633e-09
1.4107779e-07
1.2046103e-09
1.4041757e-07
1.1947141e-09
1.3976222e-07
1.1857019e-09
1.3911126e-07
1.1775534e-09
1.3846426e-07
1.1702073e-09
1.3782079e-07
1.1636323e-09
1.3718041e-07
1.1578478e-09
1.3654268e-07
1.1528831e-09
1.3590714e-07
1.1487267e-09
1.3527337e-07
1.1453402e-09
1.3464095e-07
1.1427176e-09
1.3400944e-07
1.1408916e-09
1.3337838e-07
1.1398927e-09
1.3274732e-07
1.1397153e-09
1.321158e-07
1.1403457e-09
1.3148338e-07
1.141808e-09
1.3084955e-07
1.1441521e-09
1.3021382e-07
1.147405e-09
1.2957567e-07
1.1515726e-09
1.2893459e-07
1.1566818e-09
1.2829002e-07
1.1627921e-09
1.2764137e-07
1.1699581e-09
1.2698803e-07
1.1782128e-09
1.2632938e-07
1.1876014e-09
1.2566475e-07
1.19819e-09
1.249934e-07
1.2100941e-09
1.243147e-07
1.2231251e-09
1.2362739e-07
1.2384346e-09
1.2295907e-07
1.2040232e-09
1.223245e-07
1.1430447e-09
1.2172092e-07
1.0870413e-09
1.211459e-07
1.0354743e-09
1.2059719e-07
9.879556e-10
1.2007276e-07
9.4410782e-10
1.195708e-07
9.0354195e-10
1.1908969e-07
8.6591852e-10
1.1862795e-07
8.3095029e-10
1.1818426e-07
7.9838749e-10
1.177574e-07
7.6801276e-10
1.1734627e-07
7.3964771e-10
1.1694983e-07
7.1313377e-10
1.1656712e-07
6.88391e-10
1.1619723e-07
6.6525331e-10
1.1583914e-07
6.4398269e-10
1.1549221e-07
6.2385669e-10
1.1515441e-07
6.0739873e-10
1.1482675e-07
5.8910954e-10
1.1450127e-07
5.8514683e-10
1.1419403e-07
5.5237223e-10
1.1381712e-07
6.7723964e-10
4.2358433e-10
2.1861066e-06
8.9189986e-11
2.1860477e-06
2.2139022e-10
2.185972e-06
2.8425938e-10
2.1858872e-06
3.181968e-10
2.1857917e-06
3.5846994e-10
2.1856847e-06
4.020489e-10
2.1855651e-06
4.4915293e-10
2.1854315e-06
5.0183072e-10
2.1852821e-06
5.6177393e-10
2.1851144e-06
6.3064904e-10
2.1849255e-06
7.1053824e-10
2.1847118e-06
8.0454326e-10
2.1844685e-06
9.1658234e-10
2.1841888e-06
1.0540215e-09
2.1838643e-06
1.2236112e-09
2.1834803e-06
1.4492848e-09
2.1830215e-06
1.7321553e-09
2.1824421e-06
2.1895442e-09
2.1817282e-06
2.6992758e-09
2.1806642e-06
4.0274974e-09
2.1793219e-06
5.0845415e-09
2.1757515e-06
1.3539082e-08
2.1735986e-06
8.1186032e-09
1.3494215e-06
3.5269469e-06
4.6493085e-07
3.6674764e-06
3.8973677e-07
1.735574e-07
3.6466046e-07
5.9190837e-08
3.4825124e-07
3.9517468e-08
3.3584497e-07
2.9998413e-08
3.2551196e-07
2.5013995e-08
3.1659375e-07
2.1582475e-08
3.0882689e-07
1.8778804e-08
3.0200757e-07
1.6469717e-08
2.9595266e-07
1.4606856e-08
2.9052141e-07
1.308765e-08
2.8561599e-07
1.1807974e-08
2.8115938e-07
1.0716662e-08
2.7707844e-07
9.8035477e-09
2.7331392e-07
9.0349357e-09
2.6982437e-07
8.367532e-09
2.6657475e-07
7.7855699e-09
2.635351e-07
7.2765467e-09
2.6068153e-07
6.825684e-09
2.5799326e-07
6.4254224e-09
2.5545263e-07
6.0681082e-09
2.5304475e-07
5.7470111e-09
2.5075647e-07
5.4578063e-09
2.4857678e-07
5.1954157e-09
2.4649596e-07
4.9566118e-09
2.4450502e-07
4.7396312e-09
2.4259634e-07
4.5410874e-09
2.4076327e-07
4.358695e-09
2.3899946e-07
4.1916573e-09
2.3729956e-07
4.0375894e-09
2.3565907e-07
3.894415e-09
2.3407352e-07
3.7620561e-09
2.3253876e-07
3.6397051e-09
2.3105138e-07
3.5255972e-09
2.2960832e-07
3.4189257e-09
2.2820648e-07
3.3197099e-09
2.2684301e-07
3.2273436e-09
2.2551555e-07
3.1406858e-09
2.2422195e-07
3.0592173e-09
2.2296004e-07
2.983003e-09
2.217277e-07
2.9118351e-09
2.2052318e-07
2.8449228e-09
2.1934493e-07
2.7817237e-09
2.1819138e-07
2.7223091e-09
2.1706094e-07
2.6666953e-09
2.1595222e-07
2.6144389e-09
2.1486401e-07
2.5650657e-09
2.1379517e-07
2.5184536e-09
2.1274452e-07
2.4746525e-09
2.117109e-07
2.4336159e-09
2.106933e-07
2.3950098e-09
2.0969083e-07
2.3585357e-09
2.087026e-07
2.324195e-09
2.0772769e-07
2.2920371e-09
2.0676522e-07
2.2619958e-09
2.0581439e-07
2.2338359e-09
2.0487449e-07
2.2073806e-09
2.0394479e-07
2.1826519e-09
2.0302456e-07
2.1596975e-09
2.0211305e-07
2.1384653e-09
2.0120962e-07
2.1187939e-09
2.0031365e-07
2.1005798e-09
1.9942452e-07
2.0838502e-09
1.9854157e-07
2.0686535e-09
1.9766416e-07
2.0549566e-09
1.9679172e-07
2.0426514e-09
1.9592367e-07
2.0316837e-09
1.9505942e-07
2.0220914e-09
1.9419838e-07
2.0139275e-09
1.9333993e-07
2.0071723e-09
1.9248352e-07
2.001759e-09
1.9162856e-07
1.9976778e-09
1.9077446e-07
1.9949892e-09
1.899206e-07
1.9937485e-09
1.8906637e-07
1.993946e-09
1.8821116e-07
1.9955576e-09
1.8735434e-07
1.9986285e-09
1.8649524e-07
2.0032481e-09
1.8563318e-07
2.0094653e-09
1.8476746e-07
2.0172907e-09
1.8389737e-07
2.0267727e-09
1.8302215e-07
2.038019e-09
1.8214098e-07
2.0511273e-09
1.8125303e-07
2.0661565e-09
1.8035745e-07
2.0831872e-09
1.794533e-07
2.102339e-09
1.7853958e-07
2.1238169e-09
1.7761541e-07
2.1472915e-09
1.7667906e-07
2.1747818e-09
1.7576815e-07
2.114939e-09
1.7490283e-07
2.0083624e-09
1.7407942e-07
1.9104472e-09
1.7329464e-07
1.8202588e-09
1.7254547e-07
1.7371271e-09
1.7182918e-07
1.6603968e-09
1.7114333e-07
1.5893898e-09
1.7048573e-07
1.5235158e-09
1.6985441e-07
1.4622755e-09
1.6924756e-07
1.4052344e-09
1.6866356e-07
1.3520139e-09
1.681009e-07
1.3023038e-09
1.6755821e-07
1.2558286e-09
1.6703415e-07
1.2124508e-09
1.6652752e-07
1.1718804e-09
1.6603692e-07
1.1345823e-09
1.655615e-07
1.099283e-09
1.6509845e-07
1.0704402e-09
1.6464922e-07
1.0383424e-09
1.6420284e-07
1.0315314e-09
1.637814e-07
9.738087e-10
1.6326418e-07
1.1944612e-09
7.4648484e-10
2.3100925e-06
1.1440877e-10
2.3100296e-06
2.8423902e-10
2.3099486e-06
3.6523248e-10
2.3098579e-06
4.0893134e-10
2.3097557e-06
4.6067116e-10
2.3096411e-06
5.1662191e-10
2.3095132e-06
5.7706945e-10
2.3093704e-06
6.4464073e-10
2.3092107e-06
7.2150487e-10
2.3090315e-06
8.0979687e-10
2.3088299e-06
9.121825e-10
2.3086018e-06
1.0326321e-09
2.3083422e-06
1.1761597e-09
2.308044e-06
1.3521935e-09
2.3076983e-06
1.5693665e-09
2.3072893e-06
1.8583129e-09
2.306801e-06
2.2204226e-09
2.3061847e-06
2.8058497e-09
2.3054259e-06
3.4581036e-09
2.3042959e-06
5.1574493e-09
2.3028716e-06
6.5088447e-09
2.2990865e-06
1.7324159e-08
2.2967941e-06
1.0411016e-08
1.4839364e-06
4.3398046e-06
5.9174539e-07
4.5596674e-06
4.9301411e-07
2.7228869e-07
4.6125575e-07
9.0949187e-08
4.4105826e-07
5.9714967e-08
4.2592321e-07
4.5133456e-08
4.133706e-07
3.7566614e-08
4.0255682e-07
3.2396251e-08
3.9314595e-07
2.8189673e-08
3.8488521e-07
2.4730461e-08
3.7755037e-07
2.1941692e-08
3.709701e-07
1.9667922e-08
3.6502581e-07
1.7752267e-08
3.596241e-07
1.6118371e-08
3.5467621e-07
1.4751431e-08
3.5011049e-07
1.3600658e-08
3.4587697e-07
1.2601058e-08
3.4193323e-07
1.1729305e-08
3.3824302e-07
1.0966756e-08
3.3477752e-07
1.0291189e-08
3.3151161e-07
9.6913247e-09
3.2842398e-07
9.1557411e-09
3.2549663e-07
8.6743641e-09
3.227137e-07
8.2407293e-09
3.200619e-07
7.84722e-09
3.175295e-07
7.48901e-09
3.1510564e-07
7.1634951e-09
3.1278114e-07
6.8655857e-09
3.1054797e-07
6.5918612e-09
3.0839847e-07
6.3411638e-09
3.0632615e-07
6.1099036e-09
3.0432561e-07
5.8949554e-09
3.0239144e-07
5.6962292e-09
3.0051862e-07
5.5125237e-09
2.9870305e-07
5.3411719e-09
2.96941e-07
5.1809677e-09
2.9522875e-07
5.0319636e-09
2.9356285e-07
4.8932474e-09
2.9194044e-07
4.7630914e-09
2.9035894e-07
4.64072e-09
2.8881569e-07
4.5262482e-09
2.8730816e-07
4.4193667e-09
2.8583421e-07
4.3188757e-09
2.8439198e-07
4.2239558e-09
2.8297956e-07
4.1347302e-09
2.8159502e-07
4.0512317e-09
2.8023667e-07
3.9727843e-09
2.7890307e-07
3.8986679e-09
2.7759282e-07
3.8287069e-09
2.7630449e-07
3.7629851e-09
2.7503667e-07
3.7014346e-09
2.7378813e-07
3.6435456e-09
2.725578e-07
3.5888643e-09
2.713446e-07
3.5374023e-09
2.7014739e-07
3.4892392e-09
2.6896511e-07
3.4442767e-09
2.6779679e-07
3.4021545e-09
2.6664157e-07
3.3626028e-09
2.6549856e-07
3.3256643e-09
2.6436684e-07
3.2914147e-09
2.6324553e-07
3.259776e-09
2.6213383e-07
3.2305e-09
2.6103098e-07
3.2034293e-09
2.5993621e-07
3.178613e-09
2.5884874e-07
3.1561271e-09
2.5776777e-07
3.1359219e-09
2.5669259e-07
3.1178311e-09
2.5562251e-07
3.1017729e-09
2.5455679e-07
3.0878113e-09
2.5349468e-07
3.0760295e-09
2.5243546e-07
3.0663976e-09
2.513784e-07
3.0588123e-09
2.5032282e-07
3.0532616e-09
2.4926797e-07
3.0498424e-09
2.4821307e-07
3.0486415e-09
2.4715738e-07
3.0496436e-09
2.4610012e-07
3.0528119e-09
2.4504053e-07
3.0582201e-09
2.4397777e-07
3.0660086e-09
2.4291098e-07
3.0762533e-09
2.418393e-07
3.0889707e-09
2.4076184e-07
3.1042375e-09
2.3967763e-07
3.1222234e-09
2.3858568e-07
3.1430813e-09
2.3748493e-07
3.1669015e-09
2.3637431e-07
3.1938107e-09
2.3525265e-07
3.2239979e-09
2.3411869e-07
3.2577794e-09
2.3297133e-07
3.2946524e-09
2.318084e-07
3.3377098e-09
2.3067663e-07
3.2467064e-09
2.2960113e-07
3.0838658e-09
2.2857737e-07
2.9342092e-09
2.2760131e-07
2.7963201e-09
2.2666924e-07
2.6691888e-09
2.2577782e-07
2.5518178e-09
2.2492404e-07
2.4431734e-09
2.241052e-07
2.3423576e-09
2.2331886e-07
2.2486117e-09
2.2256282e-07
2.1612745e-09
2.2183507e-07
2.0797692e-09
2.2113375e-07
2.0036242e-09
2.2045715e-07
1.9324215e-09
2.1980365e-07
1.8659539e-09
2.1917175e-07
1.8037793e-09
2.1855972e-07
1.7466179e-09
2.1796649e-07
1.6925078e-09
2.173886e-07
1.6483328e-09
2.1682784e-07
1.5990987e-09
2.1627049e-07
1.5888814e-09
2.1574422e-07
1.5000811e-09
2.150982e-07
1.8404782e-09
1.1496563e-09
2.468504e-06
1.4162642e-10
2.468436e-06
3.5222683e-10
2.4683482e-06
4.5300257e-10
2.4682498e-06
5.0734452e-10
2.4681389e-06
5.7151277e-10
2.4680147e-06
6.4084981e-10
2.4678761e-06
7.1571673e-10
2.4677213e-06
7.9936422e-10
2.4675484e-06
8.9447631e-10
2.4673545e-06
1.0036922e-09
2.4671364e-06
1.1303046e-09
2.4668898e-06
1.2792163e-09
2.4666093e-06
1.4566169e-09
2.4662874e-06
1.6741481e-09
2.4659143e-06
1.9424595e-09
2.4654732e-06
2.2993782e-09
2.464947e-06
2.7465709e-09
2.4642835e-06
3.4694256e-09
2.463467e-06
4.2745563e-09
2.4622526e-06
6.3718368e-09
2.4607232e-06
8.0382419e-09
2.4566637e-06
2.1383662e-08
2.4541926e-06
1.288218e-08
1.6409428e-06
5.1530543e-06
7.2694262e-07
5.4736676e-06
6.0167204e-07
3.9755927e-07
5.624124e-07
1.3020882e-07
5.3810395e-07
8.402342e-08
5.2006617e-07
6.3171232e-08
5.0517966e-07
5.2453125e-08
4.9238724e-07
4.518867e-08
4.8126889e-07
3.9308021e-08
4.7151692e-07
3.4482437e-08
4.6286221e-07
3.0596398e-08
4.5510036e-07
2.7429776e-08
4.4809042e-07
2.4762202e-08
4.4172143e-07
2.2487362e-08
4.3588799e-07
2.0584876e-08
4.3050534e-07
1.8983301e-08
4.2551453e-07
1.7591877e-08
4.2086535e-07
1.6378482e-08
4.1651491e-07
1.5317197e-08
4.1242918e-07
1.4376915e-08
4.0857854e-07
1.3541963e-08
4.0493782e-07
1.2796465e-08
4.0148578e-07
1.2126401e-08
3.9820374e-07
1.1522771e-08
3.9507601e-07
1.0974949e-08
3.920888e-07
1.0476222e-08
3.8922929e-07
1.0023002e-08
3.864867e-07
9.6081792e-09
3.8385156e-07
9.2269986e-09
3.8131484e-07
8.8778888e-09
3.7886891e-07
8.5558307e-09
3.7650741e-07
8.2564591e-09
3.7422396e-07
7.9796798e-09
3.7201265e-07
7.7238266e-09
3.6986867e-07
7.48516e-09
3.6778762e-07
7.2620096e-09
3.6576511e-07
7.054475e-09
3.6379708e-07
6.8612774e-09
3.6188018e-07
6.6799912e-09
3.6001136e-07
6.5095441e-09
3.5818749e-07
6.3501161e-09
3.5640558e-07
6.201276e-09
3.5466312e-07
6.0613366e-09
3.5295792e-07
5.9291519e-09
3.5128774e-07
5.8049141e-09
3.4965029e-07
5.6886776e-09
3.4804359e-07
5.5794855e-09
3.4646594e-07
5.4763251e-09
3.4491568e-07
5.3789639e-09
3.4339113e-07
5.2875293e-09
3.4189064e-07
5.201927e-09
3.4041275e-07
5.1214353e-09
3.389562e-07
5.0454155e-09
3.3751971e-07
4.973898e-09
3.3610194e-07
4.907e-09
3.3470164e-07
4.8445837e-09
3.3331765e-07
4.7861373e-09
3.3194898e-07
4.7312816e-09
3.3059455e-07
4.6800884e-09
3.292533e-07
4.632668e-09
3.2792416e-07
4.5889106e-09
3.266062e-07
4.5484625e-09
3.2529853e-07
4.5111029e-09
3.2400023e-07
4.4769113e-09
3.2271036e-07
4.4459976e-09
3.2142799e-07
4.4182909e-09
3.2015227e-07
4.3935537e-09
3.1888237e-07
4.3716728e-09
3.1761743e-07
4.352747e-09
3.1635657e-07
4.3368957e-09
3.1509889e-07
4.3240753e-09
3.1384356e-07
4.3141385e-09
3.1258975e-07
4.3070723e-09
3.1133657e-07
4.3030194e-09
3.1008311e-07
4.3021048e-09
3.0882845e-07
4.3043047e-09
3.0757169e-07
4.309567e-09
3.0631191e-07
4.3180023e-09
3.0504811e-07
4.3298133e-09
3.0377925e-07
4.3451072e-09
3.0250432e-07
4.363907e-09
3.0122223e-07
4.3863249e-09
2.9993185e-07
4.4126073e-09
2.9863196e-07
4.4429723e-09
2.9732131e-07
4.4775475e-09
2.959986e-07
4.5165156e-09
2.9466245e-07
4.5601517e-09
2.9331133e-07
4.6089039e-09
2.9194392e-07
4.6620627e-09
2.9055763e-07
4.7239969e-09
2.8920818e-07
4.5961548e-09
2.8792554e-07
4.366508e-09
2.8670435e-07
4.1553941e-09
2.8553984e-07
3.9608314e-09
2.8442762e-07
3.7814137e-09
2.833637e-07
3.6157382e-09
2.8234452e-07
3.462348e-09
2.813669e-07
3.3199817e-09
2.8042794e-07
3.1875737e-09
2.7952502e-07
3.0641945e-09
2.7865575e-07
2.9490328e-09
2.7781795e-07
2.8414266e-09
2.7700958e-07
2.7407897e-09
2.762287e-07
2.6468342e-09
2.7547354e-07
2.5589369e-09
2.7474204e-07
2.4781262e-09
2.7403293e-07
2.4016143e-09
2.7334206e-07
2.3392017e-09
2.7267162e-07
2.2695422e-09
2.7200511e-07
2.2553841e-09
2.7137573e-07
2.1294664e-09
2.7060313e-07
2.613079e-09
1.6317256e-09
2.6637017e-06
1.7133252e-10
2.6636273e-06
4.2663356e-10
2.663531e-06
5.49287e-10
2.6634229e-06
6.1538691e-10
2.6633013e-06
6.9319018e-10
2.6631649e-06
7.7718291e-10
2.6630128e-06
8.6781303e-10
2.6628432e-06
9.6901159e-10
2.6626536e-06
1.0840243e-09
2.6624413e-06
1.216039e-09
2.6622026e-06
1.3690287e-09
2.6619329e-06
1.5489084e-09
2.6616264e-06
1.7631414e-09
2.6612747e-06
2.0257708e-09
2.6608676e-06
2.3496279e-09
2.6603866e-06
2.7803419e-09
2.6598133e-06
3.3198552e-09
2.659091e-06
4.1917594e-09
2.658203e-06
5.1625785e-09
2.6568839e-06
7.6909383e-09
2.6552242e-06
9.6978513e-09
2.6508255e-06
2.5782414e-08
2.6481321e-06
1.557554e-08
1.825533e-06
5.9756535e-06
8.7763227e-07
6.4215683e-06
7.217915e-07
5.5340005e-07
6.7375771e-07
1.7824261e-07
6.4473758e-07
1.1304355e-07
6.2342155e-07
8.4487264e-08
6.0592019e-07
6.9954489e-08
5.9092169e-07
6.0187161e-08
5.7790573e-07
5.2323986e-08
5.6650054e-07
4.5887628e-08
5.5638559e-07
4.0711351e-08
5.4731877e-07
3.6496589e-08
5.3913376e-07
3.2947212e-08
5.3169965e-07
2.992147e-08
5.2489231e-07
2.7392224e-08
5.1861229e-07
2.5263315e-08
5.1279052e-07
2.3413652e-08
5.0736806e-07
2.1800939e-08
5.0229458e-07
2.0390682e-08
4.9753021e-07
1.9141277e-08
4.930403e-07
1.8031877e-08
4.8879536e-07
1.7041406e-08
4.8477055e-07
1.6151206e-08
4.8094402e-07
1.5349299e-08
4.7729746e-07
1.4621518e-08
4.7381473e-07
1.3958948e-08
4.7048088e-07
1.3356848e-08
4.6728333e-07
1.2805737e-08
4.6421102e-07
1.2299306e-08
4.612534e-07
1.183551e-08
4.5840158e-07
1.1407652e-08
4.5564812e-07
1.1009915e-08
4.5298559e-07
1.0642207e-08
4.504071e-07
1.0302317e-08
4.4790702e-07
9.9852454e-09
4.4548024e-07
9.6887861e-09
4.4312162e-07
9.4131008e-09
4.4082642e-07
9.1564745e-09
4.3859075e-07
8.915661e-09
4.3641104e-07
8.6892487e-09
4.3428366e-07
8.4774982e-09
4.3220511e-07
8.279832e-09
4.3017245e-07
8.0939888e-09
4.2818316e-07
7.9184428e-09
4.262346e-07
7.7534735e-09
4.2432412e-07
7.5991629e-09
4.2244939e-07
7.454218e-09
4.2060843e-07
7.3172821e-09
4.1879933e-07
7.1880639e-09
4.1702011e-07
7.0667443e-09
4.1526884e-07
6.9531969e-09
4.1354383e-07
6.8464469e-09
4.1184361e-07
6.7456391e-09
4.1016667e-07
6.6508322e-09
4.0851148e-07
6.5621897e-09
4.0687654e-07
6.4795254e-09
4.0526053e-07
6.402146e-09
4.0366227e-07
6.3295447e-09
4.0208053e-07
6.2618333e-09
4.0051403e-07
6.1991638e-09
3.9896155e-07
6.141387e-09
3.9742199e-07
6.0880225e-09
3.9589432e-07
6.0387762e-09
3.9437746e-07
5.9937676e-09
3.9287031e-07
5.9531476e-09
3.9137179e-07
5.9168181e-09
3.8988088e-07
5.884456e-09
3.8839664e-07
5.8559127e-09
3.8691806e-07
5.831331e-09
3.8544408e-07
5.810874e-09
3.8397368e-07
5.7944795e-09
3.8250587e-07
5.7819468e-09
3.8103968e-07
5.7732642e-09
3.7957407e-07
5.7686307e-09
3.7810796e-07
5.7682162e-09
3.7664028e-07
5.7719846e-09
3.7516998e-07
5.7798652e-09
3.7369596e-07
5.792015e-09
3.7221707e-07
5.8087115e-09
3.7073208e-07
5.8300973e-09
3.6923978e-07
5.8562013e-09
3.6773893e-07
5.887179e-09
3.6622817e-07
5.9233693e-09
3.6470607e-07
5.965067e-09
3.6317118e-07
6.0124413e-09
3.6162195e-07
6.065742e-09
3.6005676e-07
6.1253475e-09
3.584738e-07
6.1918592e-09
3.5687154e-07
6.2643246e-09
3.5524693e-07
6.348602e-09
3.5366529e-07
6.1777956e-09
3.5216177e-07
5.8700338e-09
3.5073012e-07
5.5870417e-09
3.4936477e-07
5.3261836e-09
3.4806058e-07
5.085597e-09
3.4681292e-07
4.8634045e-09
3.4561761e-07
4.657653e-09
3.4447094e-07
4.466657e-09
3.4336952e-07
4.2889934e-09
3.4231029e-07
4.1234197e-09
3.4129047e-07
3.9688506e-09
3.403075e-07
3.8244025e-09
3.3935899e-07
3.689294e-09
3.3844268e-07
3.563144e-09
3.375565e-07
3.4451176e-09
3.3669802e-07
3.3366072e-09
3.3586578e-07
3.2338525e-09
3.3505489e-07
3.1500953e-09
3.3426794e-07
3.0564899e-09
3.3348551e-07
3.0378204e-09
3.3274662e-07
2.868353e-09
3.3183969e-07
3.5200051e-09
2.1975283e-09
2.8985945e-06
2.0407743e-10
2.8985122e-06
5.0891342e-10
2.8984055e-06
6.5605436e-10
2.8982856e-06
7.3530159e-10
2.8981505e-06
8.2822835e-10
2.8979993e-06
9.2843732e-10
2.8978306e-06
1.0364787e-09
2.8976426e-06
1.1570332e-09
2.8974326e-06
1.2939654e-09
2.8971976e-06
1.451066e-09
2.8969336e-06
1.6330535e-09
2.8966355e-06
1.8469509e-09
2.8962971e-06
2.1016151e-09
2.8959091e-06
2.4137175e-09
2.8954603e-06
2.7984711e-09
2.8949306e-06
3.3100448e-09
2.8942998e-06
3.9506529e-09
2.8935059e-06
4.9856848e-09
2.8925307e-06
6.137702e-09
2.8910845e-06
9.1372216e-09
2.8892669e-06
1.1515402e-08
2.8844579e-06
3.059144e-08
2.8814936e-06
1.8539806e-08
2.04276e-06
6.8143871e-06
1.0502194e-06
7.4141089e-06
8.5865633e-07
7.4496314e-07
8.0013396e-07
2.3676498e-07
7.6556731e-07
1.4761019e-07
7.404418e-07
1.0961278e-07
7.1992188e-07
9.0474414e-08
7.0238648e-07
7.7722554e-08
6.8719355e-07
6.7516915e-08
6.738951e-07
5.9186086e-08
6.6211023e-07
5.2496217e-08
6.5155286e-07
4.7053964e-08
6.4202701e-07
4.2473058e-08
6.3337864e-07
3.8569845e-08
6.2546191e-07
3.5308947e-08
6.1816046e-07
3.2564765e-08
6.113935e-07
3.0180617e-08
6.0509201e-07
2.8102423e-08
5.9919708e-07
2.6285611e-08
5.9366214e-07
2.4676216e-08
5.884467e-07
2.3247322e-08
5.8351634e-07
2.1971763e-08
5.7884208e-07
2.082547e-08
5.7439841e-07
1.9792963e-08
5.7016401e-07
1.8855926e-08
5.6612008e-07
1.8002871e-08
5.6224922e-07
1.7227715e-08
5.5853675e-07
1.6518201e-08
5.5496984e-07
1.5866217e-08
5.5153618e-07
1.5269169e-08
5.4822543e-07
1.47184e-08
5.4502895e-07
1.4206401e-08
5.4193807e-07
1.3733089e-08
5.3894477e-07
1.3295611e-08
5.3604252e-07
1.2887495e-08
5.3322539e-07
1.2505921e-08
5.3048736e-07
1.2151127e-08
5.2782296e-07
1.1820882e-08
5.2522764e-07
1.1510978e-08
5.2269727e-07
1.1219617e-08
5.2022761e-07
1.0947157e-08
5.178146e-07
1.0692846e-08
5.1545484e-07
1.0453749e-08
5.1314538e-07
1.0227901e-08
5.1088316e-07
1.0015688e-08
5.086651e-07
9.8172296e-09
5.0648849e-07
9.6308301e-09
5.0435104e-07
9.4547302e-09
5.0225052e-07
9.2885794e-09
5.0018464e-07
9.1326238e-09
4.9815114e-07
8.9866972e-09
4.9614807e-07
8.849524e-09
4.9417371e-07
8.7199964e-09
4.9222633e-07
8.5982138e-09
4.9030412e-07
8.4843955e-09
4.8840535e-07
8.378296e-09
4.8652849e-07
8.2790061e-09
4.8467216e-07
8.1858706e-09
4.8283494e-07
8.0990544e-09
4.8101535e-07
8.0187593e-09
4.7921195e-07
7.9447877e-09
4.7742346e-07
7.8765074e-09
4.756487e-07
7.81354e-09
4.7388641e-07
7.7560569e-09
4.721353e-07
7.7042578e-09
4.7039411e-07
7.6580103e-09
4.6866167e-07
7.6168879e-09
4.6693688e-07
7.5807028e-09
4.6521856e-07
7.5496534e-09
4.6350548e-07
7.5239541e-09
4.6179644e-07
7.5035178e-09
4.6009031e-07
7.4880802e-09
4.5838594e-07
7.4776327e-09
4.5668213e-07
7.4724435e-09
4.5497761e-07
7.4727346e-09
4.5327114e-07
7.4784525e-09
4.515615e-07
7.4895037e-09
4.4984742e-07
7.5061033e-09
4.4812751e-07
7.5286173e-09
4.4640038e-07
7.5572276e-09
4.4466461e-07
7.5919681e-09
4.4291875e-07
7.6330465e-09
4.411612e-07
7.6809124e-09
4.3939032e-07
7.7359489e-09
4.3760439e-07