/*--------------------------------*- C++ -*----------------------------------*\
  =========                 |
  \\      /  F ield         | OpenFOAM: The Open Source CFD Toolbox
   \\    /   O peration     | Website:  https://openfoam.org
    \\  /    A nd           | Version:  12
     \\/     M anipulation  |
\*---------------------------------------------------------------------------*/
FoamFile
{
    format      ascii;
    class       volVectorField;
    location    "700";
    object      U;
}
// * * * * * * * * * * * * * * * * * * * * * * * * * * * * * * * * * * * * * //

dimensions      [0 1 -1 0 0 0 0];

internalField   nonuniform List<vector> 
7480
(
(0.9870002 0.00064907907 8.6415025e-17)
(0.97574335 0.0015154511 0)
(0.96329941 0.0021392925 0)
(0.95010825 0.0025404994 0)
(0.93657279 0.0028092395 0)
(0.92297016 0.0029750775 0)
(0.90940199 0.0030557568 0)
(0.89591142 0.0030589973 0)
(0.88253841 0.0030200611 0)
(0.8693175 0.0029334203 0)
(0.85627658 0.0028133525 0)
(0.84343782 0.0026695686 0)
(0.83082575 0.0025082829 0)
(0.81846775 0.002333773 0)
(0.8063964 0.0021492632 0)
(0.79465509 0.0019563041 0)
(0.7833077 0.0017551906 0)
(0.77244726 0.0015502942 0)
(0.76215208 0.0013473883 0)
(0.7524902 0.0011489449 0)
(0.7435217 0.00095561421 0)
(0.7352968 0.00077025401 0)
(0.72785141 0.00059685697 0)
(0.72120981 0.00043984375 0)
(0.71537008 0.00030321313 0)
(0.71028964 0.00019312971 0)
(0.70588923 0.00011442819 0)
(0.70206273 6.7484947e-05 0)
(0.69868297 4.8248343e-05 0)
(0.69561931 4.9890734e-05 0)
(0.69275927 6.3782691e-05 0)
(0.69002115 8.1495332e-05 0)
(0.68735393 9.7036357e-05 0)
(0.68473014 0.00010722878 0)
(0.6821372 0.00011173802 0)
(0.6795658 0.00011263387 0)
(0.67700385 0.00011250741 0)
(0.67443821 0.00011309239 0)
(0.67185864 0.000114822 0)
(0.6692625 0.00011689783 0)
(0.66665613 0.00011838356 0)
(0.6640505 0.00011875925 0)
(0.66145625 0.00011790057 0)
(0.65888002 0.00011607175 0)
(0.65632491 0.00011360488 0)
(0.65379305 0.00011076403 0)
(0.65128677 0.00010769537 0)
(0.64880816 0.00010447039 0)
(0.64635889 0.00010112239 0)
(0.64394048 9.7706973e-05 0)
(0.64155369 9.4319971e-05 0)
(0.63919826 9.1013439e-05 0)
(0.63687377 8.7787226e-05 0)
(0.63458039 8.462848e-05 0)
(0.63231819 8.1564201e-05 0)
(0.63008649 7.8610104e-05 0)
(0.62788449 7.5757623e-05 0)
(0.62571183 7.3001102e-05 0)
(0.62356788 7.0354365e-05 0)
(0.62145192 6.7803346e-05 0)
(0.61936331 6.5342087e-05 0)
(0.61730142 6.2978507e-05 0)
(0.61526548 6.070884e-05 0)
(0.61325483 5.8521635e-05 0)
(0.61126895 5.6415759e-05 0)
(0.60930722 5.4390257e-05 0)
(0.60736904 5.2437375e-05 0)
(0.6054539 5.0558298e-05 0)
(0.60356116 4.8751294e-05 0)
(0.60169027 4.7010623e-05 0)
(0.59984068 4.5337069e-05 0)
(0.5980118 4.3726705e-05 0)
(0.59620309 4.2176818e-05 0)
(0.59441403 4.0685842e-05 0)
(0.5926441 3.9250298e-05 0)
(0.59089279 3.7868964e-05 0)
(0.58915962 3.6539091e-05 0)
(0.58744412 3.5258662e-05 0)
(0.58574582 3.4025867e-05 0)
(0.58406427 3.2838756e-05 0)
(0.58239904 3.1695534e-05 0)
(0.58074971 3.0594472e-05 0)
(0.57911585 2.9533937e-05 0)
(0.57749707 2.8512395e-05 0)
(0.57589297 2.7528416e-05 0)
(0.57430314 2.6580705e-05 0)
(0.5727272 2.5668037e-05 0)
(0.57116472 2.4789489e-05 0)
(0.56961532 2.394398e-05 0)
(0.56807846 2.3131581e-05 0)
(0.56655385 2.2350698e-05 0)
(0.5650403 2.1605492e-05 0)
(0.56353853 2.0889005e-05 0)
(0.56204371 2.0226905e-05 0)
(0.56056354 1.9571204e-05 0)
(0.55907259 1.9106024e-05 0)
(0.55762031 1.7943551e-05 -3.7365382e-21)
(0.55606627 3.1075954e-05 7.4587416e-20)
(0.55477794 1.820573e-05 -2.4413326e-19)
(0.55236151 3.2728622e-05 -4.2320746e-18)
(0.99603085 0.0023949454 0)
(0.99637367 0.0034457444 0)
(0.99664047 0.0037582245 0)
(0.99639807 0.003646611 0)
(0.99562674 0.0034748028 0)
(0.99437533 0.0032867635 0)
(0.99262279 0.0030987153 0)
(0.99033502 0.0029290145 0)
(0.98750022 0.0027790058 0)
(0.98411969 0.0026516535 0)
(0.98019593 0.0025455387 0)
(0.97572935 0.0024552664 0)
(0.97072273 0.0023806304 0)
(0.96518022 0.002315361 0)
(0.95910316 0.0022561274 0)
(0.95249338 0.0021999544 0)
(0.94534354 0.0021390581 0)
(0.93767221 0.0020610848 0)
(0.92955391 0.0019664755 0)
(0.92105042 0.0018620333 0)
(0.91223411 0.0017490892 0)
(0.90319332 0.0016275515 0)
(0.89403673 0.0014973265 0)
(0.88487794 0.0013586202 0)
(0.87584529 0.0012132177 0)
(0.86707711 0.0010619066 0)
(0.85873466 0.00091239314 0)
(0.85094873 0.00077482615 0)
(0.8437889 0.00065429583 0)
(0.83725687 0.00055590346 0)
(0.83130106 0.00048246771 0)
(0.82583631 0.00043320576 0)
(0.82076014 0.00040486229 0)
(0.815978 0.00039156011 0)
(0.8114203 0.00038586174 0)
(0.80704268 0.00038155346 0)
(0.80281992 0.00037524623 0)
(0.79873862 0.00036585811 0)
(0.79478825 0.00035372944 0)
(0.79095697 0.0003397045 0)
(0.78723117 0.00032493247 0)
(0.7835962 0.00031056694 0)
(0.78003805 0.00029718153 0)
(0.77654635 0.00028484042 0)
(0.77311565 0.00027321433 0)
(0.76974473 0.00026204402 0)
(0.76643361 0.00025123992 0)
(0.76318104 0.00024079932 0)
(0.75998448 0.00023069031 0)
(0.75684181 0.00022091476 0)
(0.7537518 0.00021153676 0)
(0.75071331 0.00020254938 0)
(0.74772523 0.00019390956 0)
(0.74478663 0.00018559175 0)
(0.74189649 0.00017764036 0)
(0.73905338 0.00017005641 0)
(0.73625591 0.00016280322 0)
(0.73350311 0.00015585689 0)
(0.73079395 0.00014924403 0)
(0.72812688 0.00014293492 0)
(0.7255007 0.00013690349 0)
(0.72291442 0.00013115291 0)
(0.72036689 0.00012566831 0)
(0.71785699 0.00012042576 0)
(0.71538375 0.000115421 0)
(0.71294611 0.00011064618 0)
(0.71054303 0.00010608118 0)
(0.70817359 0.00010172372 0)
(0.70583679 9.7564532e-05 0)
(0.70353169 9.3588536e-05 0)
(0.7012574 8.9793446e-05 0)
(0.699013 8.6167539e-05 0)
(0.69679762 8.2702619e-05 0)
(0.69461044 7.9392412e-05 0)
(0.69245061 7.6227341e-05 0)
(0.69031736 7.3202344e-05 0)
(0.68820991 7.0309486e-05 0)
(0.68612752 6.7542599e-05 0)
(0.68406947 6.489591e-05 0)
(0.68203505 6.2363564e-05 0)
(0.6800236 5.9940175e-05 0)
(0.67803444 5.7620601e-05 0)
(0.67606695 5.5400007e-05 0)
(0.67412049 5.327386e-05 0)
(0.67219447 5.1237929e-05 0)
(0.67028828 4.9288317e-05 0)
(0.66840133 4.7421397e-05 0)
(0.66653301 4.5634064e-05 0)
(0.66468275 4.392331e-05 0)
(0.66284981 4.2287551e-05 0)
(0.66103373 4.0724089e-05 0)
(0.6592331 3.9236139e-05 0)
(0.65744851 3.7817974e-05 0)
(0.6556747 3.6495177e-05 0)
(0.65391967 3.5230407e-05 0)
(0.65215618 3.4187665e-05 0)
(0.65043662 3.3177191e-05 3.7366529e-21)
(0.64861074 3.4355127e-05 0)
(0.64707559 3.0217084e-05 0)
(0.6442607 3.7612165e-05 0)
(0.99631077 0.0021398684 0)
(0.996755 0.0027561751 0)
(0.99731883 0.0029500896 0)
(0.99774285 0.0030193543 0)
(0.99803601 0.0031122059 0)
(0.99827695 0.003217933 0)
(0.99848179 0.0033166961 0)
(0.99863964 0.003401824 0)
(0.99874623 0.0034731814 0)
(0.99880162 0.0035288061 0)
(0.99880085 0.0035661058 0)
(0.99873469 0.0035905411 0)
(0.9985917 0.0035895814 0)
(0.99835802 0.0035782883 0)
(0.99801564 0.0035504781 0)
(0.99753949 0.0035075096 0)
(0.99690052 0.0034487585 0)
(0.99602824 0.0033741197 0)
(0.99481602 0.0032839671 0)
(0.99318034 0.0031780194 0)
(0.9910358 0.003056589 0)
(0.98829124 0.0029210105 0)
(0.98484959 0.0027733387 0)
(0.98061935 0.0026169113 0)
(0.97551662 0.0024563845 0)
(0.96948363 0.0022981955 0)
(0.96247917 0.0021329821 0)
(0.95462719 0.0019583784 0)
(0.94609912 0.0017881933 0)
(0.93714462 0.0016251059 0)
(0.92805094 0.0014690429 0)
(0.91910168 0.0013196523 0)
(0.91053676 0.0011758798 0)
(0.90254163 0.0010440437 0)
(0.89519947 0.00093232809 0)
(0.88848296 0.00084279907 0)
(0.88230363 0.00077539128 0)
(0.87655099 0.00072772908 0)
(0.87112095 0.00069518057 0)
(0.86593829 0.00067120624 0)
(0.86095885 0.00064970193 0)
(0.85615939 0.00062698554 0)
(0.85152632 0.0006021985 0)
(0.84704752 0.00057606741 0)
(0.84270992 0.00054950901 0)
(0.83849988 0.00052348911 0)
(0.83440412 0.00049875283 0)
(0.83041067 0.00047558114 0)
(0.82651034 0.00045373675 0)
(0.82269756 0.00043296157 0)
(0.81896869 0.00041322371 0)
(0.81531996 0.00039445871 0)
(0.81174713 0.00037657349 0)
(0.80824642 0.00035950387 0)
(0.80481478 0.00034327608 0)
(0.80144944 0.00032785095 0)
(0.79814789 0.00031315303 0)
(0.79490798 0.00029913579 0)
(0.79172758 0.00028582336 0)
(0.78860438 0.00027315804 0)
(0.7855364 0.00026109116 0)
(0.78252192 0.00024961411 0)
(0.77955909 0.00023869419 0)
(0.77664618 0.00022828633 0)
(0.77378165 0.00021837511 0)
(0.77096391 0.00020894063 0)
(0.76819146 0.00019994517 0)
(0.7654629 0.00019137775 0)
(0.76277682 0.00018321758 0)
(0.76013189 0.00017543588 0)
(0.75752685 0.00016802298 0)
(0.75496044 0.00016095591 0)
(0.75243147 0.00015421719 0)
(0.74993878 0.00014779234 0)
(0.74748124 0.00014166249 0)
(0.74505778 0.0001358156 0)
(0.74266735 0.00013023573 0)
(0.74030895 0.00012490974 0)
(0.7379816 0.00011982532 0)
(0.73568436 0.0001149703 0)
(0.73341632 0.00011033337 0)
(0.73117658 0.00010590381 0)
(0.72896431 0.00010167151 0)
(0.72677867 9.7627007e-05 0)
(0.72461884 9.3761479e-05 0)
(0.72248404 9.0066731e-05 0)
(0.72037349 8.6535226e-05 0)
(0.7182864 8.3160169e-05 0)
(0.71622201 7.9935626e-05 0)
(0.71417943 7.6856693e-05 0)
(0.71215803 7.3920325e-05 0)
(0.71015621 7.1124652e-05 0)
(0.70817441 6.8474725e-05 0)
(0.70620718 6.5975343e-05 0)
(0.70426237 6.365414e-05 0)
(0.70231239 6.1578181e-05 0)
(0.70040987 5.9839866e-05 2.5790502e-21)
(0.69840151 5.8526389e-05 0)
(0.69670066 5.8372227e-05 0)
(0.69361672 6.0183963e-05 -2.9037151e-20)
(0.99643898 0.0020373028 0)
(0.99683202 0.0026552959 0)
(0.99735712 0.0029848152 0)
(0.99777768 0.0031378747 0)
(0.99808247 0.0032318913 0)
(0.9983415 0.0032887804 0)
(0.9985766 0.0032993174 0)
(0.99878354 0.00328725 0)
(0.9989657 0.0032606896 0)
(0.99913053 0.00322552 0)
(0.9992807 0.0031850176 0)
(0.99941817 0.0031404784 0)
(0.99954375 0.0030972839 0)
(0.99965723 0.0030540426 0)
(0.99975915 0.0030112955 0)
(0.99984835 0.0029691359 0)
(0.99992309 0.0029268059 0)
(0.99998033 0.002883575 0)
(1.0000146 0.0028393938 0)
(1.0000191 0.0027949273 0)
(0.99998586 0.002750823 0)
(0.99990332 0.0027073768 0)
(0.99975611 0.002664933 0)
(0.99952398 0.0026237587 0)
(0.99917873 0.0025833634 0)
(0.99867717 0.002542668 0)
(0.9979582 0.0025006198 0)
(0.99684929 0.0024554282 0)
(0.99519648 0.0024027564 0)
(0.99283626 0.0023394384 0)
(0.98961289 0.0022646292 0)
(0.9853989 0.002179245 0)
(0.98012628 0.0020884674 0)
(0.97378958 0.0019827711 0)
(0.96658274 0.001858959 0)
(0.95877946 0.0017293282 0)
(0.9506927 0.0015977292 0)
(0.94263156 0.0014666249 0)
(0.93485261 0.0013390845 0)
(0.92753328 0.0012229075 0)
(0.9207279 0.001123645 0)
(0.91439734 0.0010419661 0)
(0.90845735 0.00097676064 0)
(0.90281775 0.00092505848 0)
(0.89741242 0.00088191457 0)
(0.89220386 0.0008426592 0)
(0.88717406 0.00080449127 0)
(0.88231201 0.0007668395 0)
(0.87760676 0.00072985908 0)
(0.87304619 0.00069402859 0)
(0.86861762 0.00066003424 0)
(0.86430893 0.00062812014 0)
(0.86011013 0.00059808462 0)
(0.85601415 0.00056967284 0)
(0.85201565 0.00054282158 0)
(0.84810949 0.00051742461 0)
(0.8442906 0.00049334817 0)
(0.84055453 0.00047049805 0)
(0.83689741 0.00044886837 0)
(0.83331573 0.00042835018 0)
(0.82980638 0.00040885535 0)
(0.82636646 0.00039035631 0)
(0.82299309 0.00037279507 0)
(0.81968365 0.00035609676 0)
(0.81643584 0.00034022676 0)
(0.81324736 0.00032514714 0)
(0.81011606 0.00031079754 0)
(0.80703996 0.00029715267 0)
(0.80401713 0.00028417598 0)
(0.80104574 0.00027182138 0)
(0.79812408 0.00026006794 0)
(0.79525047 0.00024887865 0)
(0.79242333 0.00023822381 0)
(0.78964114 0.00022807813 0)
(0.78690241 0.00021841124 0)
(0.78420577 0.00020920181 0)
(0.78154984 0.00020042403 0)
(0.77893332 0.00019205587 0)
(0.77635496 0.00018407677 0)
(0.77381355 0.00017646666 0)
(0.77130792 0.00016920685 0)
(0.76883695 0.0001622796 0)
(0.76639954 0.0001556683 0)
(0.76399464 0.00014935734 0)
(0.76162122 0.0001433322 0)
(0.75927829 0.00013757934 0)
(0.75696487 0.00013208639 0)
(0.75467997 0.00012684191 0)
(0.75242267 0.00012183639 0)
(0.75019187 0.00011706053 0)
(0.74798677 0.0001125112 0)
(0.74580563 0.00010817879 0)
(0.74364869 0.00010408409 0)
(0.74151039 0.00010019817 0)
(0.73939826 9.6645824e-05 0)
(0.73728493 9.3318989e-05 0)
(0.73522226 9.0807513e-05 2.0658186e-21)
(0.73305626 8.8033377e-05 0)
(0.73121284 9.1939547e-05 0)
(0.72789716 8.6336018e-05 2.3452104e-20)
(0.99659837 0.0019779348 0)
(0.99691678 0.002555263 0)
(0.99737217 0.0028808218 0)
(0.99775792 0.0030246159 0)
(0.99805329 0.0031093083 0)
(0.99831121 0.0031673422 0)
(0.99854894 0.003201895 0)
(0.99876182 0.0032201733 0)
(0.99895223 0.0032297269 0)
(0.9991268 0.0032333999 0)
(0.99928913 0.0032310898 0)
(0.9994403 0.0032245433 0)
(0.99958122 0.0032122187 0)
(0.99971284 0.0031948846 0)
(0.99983659 0.0031721719 0)
(0.99995329 0.0031437631 0)
(1.0000632 0.0031090352 0)
(1.0001655 0.0030672305 0)
(1.0002587 0.003018425 0)
(1.0003415 0.002963311 0)
(1.0004131 0.0029027741 0)
(1.000472 0.0028380793 0)
(1.0005161 0.0027702868 0)
(1.000543 0.0027007317 0)
(1.0005508 0.0026316723 0)
(1.0005373 0.0025658256 0)
(1.0005011 0.0025055845 0)
(1.0004363 0.0024527427 0)
(1.0003343 0.00240916 0)
(1.0001817 0.0023755285 0)
(0.99995829 0.0023507703 0)
(0.9996325 0.002332339 0)
(0.99915181 0.0023147113 0)
(0.99843385 0.0022938889 0)
(0.99727899 0.0022661839 0)
(0.99549652 0.002226475 0)
(0.99290823 0.0021728493 0)
(0.98936832 0.0021070063 0)
(0.98479392 0.0020299656 0)
(0.97921604 0.0019349807 0)
(0.97284587 0.00182452 0)
(0.96596099 0.0017079597 0)
(0.95886503 0.0015890325 0)
(0.95183227 0.0014715594 0)
(0.94506558 0.0013627503 0)
(0.93864788 0.0012669462 0)
(0.93257406 0.0011847026 0)
(0.92679103 0.0011154342 0)
(0.92124054 0.0010565311 0)
(0.91588251 0.0010041006 0)
(0.91069624 0.00095520536 0)
(0.90567128 0.00090859149 0)
(0.90079932 0.00086380976 0)
(0.89607102 0.000820918 0)
(0.89147591 0.00078033326 0)
(0.88700351 0.00074217217 0)
(0.88264502 0.00070622934 0)
(0.87839382 0.00067228476 0)
(0.87424443 0.00064026761 0)
(0.87019155 0.0006100029 0)
(0.86623031 0.00058135338 0)
(0.8623563 0.00055425356 0)
(0.85856543 0.00052859785 0)
(0.85485409 0.00050426677 0)
(0.85121899 0.00048119648 0)
(0.84765694 0.00045932126 0)
(0.84416502 0.00043854874 0)
(0.84074056 0.00041883136 0)
(0.83738098 0.00040011045 0)
(0.8340839 0.00038231703 0)
(0.83084708 0.00036541368 0)
(0.82766835 0.00034934495 0)
(0.82454568 0.00033406498 0)
(0.82147714 0.00031953404 0)
(0.81846087 0.00030570714 0)
(0.81549512 0.00029255067 0)
(0.81257818 0.0002800263 0)
(0.80970842 0.0002681007 0)
(0.8068843 0.00025674278 0)
(0.80410431 0.00024592253 0)
(0.80136701 0.00023561194 0)
(0.79867102 0.00022578453 0)
(0.79601498 0.00021641549 0)
(0.79339761 0.00020748161 0)
(0.79081766 0.00019896124 0)
(0.78827391 0.00019083418 0)
(0.78576517 0.00018308202 0)
(0.78329025 0.00017568755 0)
(0.78084803 0.00016863669 0)
(0.77843723 0.00016191465 0)
(0.77605688 0.00015551768 0)
(0.77370506 0.00014942681 0)
(0.77138181 0.00014367998 0)
(0.76908153 0.00013820893 0)
(0.76681132 0.00013324802 0)
(0.76454423 0.00012847924 0)
(0.76233114 0.00012511834 1.7856963e-21)
(0.76001778 0.00012043831 3.6011107e-20)
(0.75804223 0.00012941542 0)
(0.75451187 0.00011406404 0)
(0.99675144 0.0019307669 0)
(0.99701063 0.0024535785 0)
(0.99740104 0.0027726056 0)
(0.99775388 0.0029345066 0)
(0.99803943 0.0030381808 0)
(0.99829279 0.0031131427 0)
(0.99852714 0.0031590023 0)
(0.9987385 0.0031837197 0)
(0.9989288 0.003195383 0)
(0.99910363 0.0031972353 0)
(0.99926623 0.003191012 0)
(0.99941836 0.0031783494 0)
(0.99956123 0.0031591852 0)
(0.99969586 0.0031354509 0)
(0.99982361 0.003107079 0)
(0.99994509 0.0030740454 0)
(1.0000605 0.0030360799 0)
(1.0001695 0.0029927507 0)
(1.0002711 0.002944375 0)
(1.0003644 0.0028917781 0)
(1.0004486 0.0028356828 0)
(1.0005229 0.0027768996 0)
(1.000587 0.0027165316 0)
(1.0006403 0.0026560173 0)
(1.0006823 0.0025970645 0)
(1.0007135 0.0025421266 0)
(1.0007347 0.002492344 0)
(1.0007464 0.0024481129 0)
(1.0007494 0.0024102674 0)
(1.0007442 0.0023782336 0)
(1.0007303 0.0023505615 0)
(1.0007056 0.0023254833 0)
(1.0006663 0.0023026113 0)
(1.0006074 0.0022818918 0)
(1.0005171 0.0022630789 0)
(1.0003762 0.0022466724 0)
(1.0001599 0.0022327673 0)
(0.9998297 0.0022200556 0)
(0.99932744 0.002205158 0)
(0.99853448 0.0021853496 0)
(0.99725418 0.0021570544 0)
(0.99530064 0.002116425 0)
(0.99250954 0.0020633191 0)
(0.98876949 0.0019974926 0)
(0.98407946 0.0019138131 0)
(0.97861193 0.0018156458 0)
(0.97260702 0.0017112148 0)
(0.96633778 0.0016035628 0)
(0.96005663 0.0014987656 0)
(0.95393018 0.0014024861 0)
(0.94802669 0.0013158348 0)
(0.94234485 0.0012395827 0)
(0.9368548 0.0011727483 0)
(0.93152905 0.0011127286 0)
(0.92635239 0.0010572067 0)
(0.92131801 0.0010048882 0)
(0.91642124 0.00095512072 0)
(0.91165615 0.00090779507 0)
(0.90701511 0.00086311989 0)
(0.90249029 0.00082101872 0)
(0.89807527 0.00078129358 0)
(0.89376483 0.00074381238 0)
(0.88955415 0.00070841255 0)
(0.88543861 0.00067492708 0)
(0.88141392 0.0006432539 0)
(0.87747609 0.00061328586 0)
(0.87362149 0.00058488699 0)
(0.8698468 0.00055797944 0)
(0.86614883 0.00053247501 0)
(0.8625246 0.00050827448 0)
(0.85897138 0.00048531752 0)
(0.85548651 0.00046352496 0)
(0.85206754 0.00044283008 0)
(0.84871209 0.00042317448 0)
(0.84541795 0.00040449477 0)
(0.84218298 0.00038674171 0)
(0.83900514 0.00036986142 0)
(0.83588249 0.00035380645 0)
(0.83281316 0.00033853267 0)
(0.82979536 0.00032399779 0)
(0.82682738 0.00031016229 0)
(0.82390756 0.00029698898 0)
(0.82103431 0.00028444307 0)
(0.81820609 0.00027249197 0)
(0.81542142 0.00026110535 0)
(0.81267886 0.00025025493 0)
(0.809977 0.00023991485 0)
(0.80731447 0.00023006088 0)
(0.80468992 0.0002206732 0)
(0.80210191 0.00021173042 0)
(0.79954926 0.0002032273 0)
(0.7970299 0.00019513429 0)
(0.79454366 0.00018750656 0)
(0.79208489 0.0001802335 0)
(0.78966029 0.00017366501 0)
(0.7872433 0.00016725375 0)
(0.78488394 0.00016291164 0)
(0.78242739 0.00015581329 0)
(0.78032458 0.00017086376 5.3489523e-20)
(0.77658715 0.0001438078 0)
(0.99689211 0.001890019 0)
(0.99710992 0.0023637979 0)
(0.99744579 0.0026749349 0)
(0.99776625 0.0028508437 0)
(0.99803846 0.0029670087 0)
(0.9982841 0.0030504157 0)
(0.9985129 0.003103063 0)
(0.9987213 0.0031334996 0)
(0.99891038 0.0031498856 0)
(0.99908467 0.0031561241 0)
(0.99924705 0.0031538879 0)
(0.99939922 0.0031450395 0)
(0.99954241 0.0031300133 0)
(0.99967766 0.003110236 0)
(0.99980619 0.0030856625 0)
(0.9999286 0.0030562235 0)
(1.0000451 0.003021666 0)
(1.0001554 0.0029816299 0)
(1.0002586 0.0029363302 0)
(1.0003542 0.0028864459 0)
(1.0004414 0.0028327052 0)
(1.0005198 0.0027759942 0)
(1.000589 0.0027173811 0)
(1.0006486 0.0026582202 0)
(1.0006984 0.0026002326 0)
(1.0007389 0.0025453701 0)
(1.0007715 0.0024947858 0)
(1.0007975 0.002449388 0)
(1.0008183 0.0024101934 0)
(1.0008357 0.0023770703 0)
(1.0008508 0.0023490138 0)
(1.0008639 0.0023248903 0)
(1.0008746 0.002304126 0)
(1.0008822 0.0022855316 0)
(1.0008851 0.0022681674 0)
(1.0008808 0.0022519976 0)
(1.0008665 0.0022364498 0)
(1.000838 0.0022209277 0)
(1.0007898 0.0022054904 0)
(1.0007131 0.0021900919 0)
(1.0005893 0.0021745726 0)
(1.0003921 0.0021591788 0)
(1.0000833 0.0021435045 0)
(0.99960575 0.002125844 0)
(0.99884492 0.0021044685 0)
(0.99761822 0.0020761758 0)
(0.99575038 0.0020372908 0)
(0.99309078 0.001988375 0)
(0.98953361 0.00192343 0)
(0.98514832 0.0018412755 0)
(0.98009623 0.0017506569 0)
(0.97460568 0.0016547282 0)
(0.96892137 0.0015587844 0)
(0.9632339 0.001467867 0)
(0.95764897 0.0013835266 0)
(0.95220092 0.0013070692 0)
(0.94688732 0.0012382218 0)
(0.94169794 0.0011753999 0)
(0.93662758 0.0011170103 0)
(0.93167549 0.0010619648 0)
(0.92684123 0.0010097251 0)
(0.92212198 0.00096025715 0)
(0.91751306 0.00091353095 0)
(0.91300974 0.00086939283 0)
(0.90860798 0.00082769942 0)
(0.90430403 0.00078830039 0)
(0.90009421 0.00075102045 0)
(0.89597495 0.00071575078 0)
(0.89194277 0.00068236804 0)
(0.88799448 0.00065073651 0)
(0.88412706 0.00062076827 0)
(0.88033755 0.00059235582 0)
(0.87662321 0.00056540684 0)
(0.87298137 0.00053983987 0)
(0.86940953 0.00051556933 0)
(0.86590527 0.00049252695 0)
(0.86246629 0.00047064017 0)
(0.85909036 0.00044984459 0)
(0.85577537 0.00043008046 0)
(0.85251928 0.00041129079 0)
(0.84932012 0.00039342242 0)
(0.84617601 0.00037642536 0)
(0.84308512 0.00036025293 0)
(0.84004569 0.00034486146 0)
(0.83705603 0.00033021029 0)
(0.83411447 0.00031626147 0)
(0.83121943 0.00030298034 0)
(0.82836931 0.00029033427 0)
(0.82556259 0.00027829651 0)
(0.82279764 0.00026683788 0)
(0.82007309 0.00025595068 0)
(0.81738673 0.00024559362 0)
(0.81473818 0.00023583872 0)
(0.81212171 0.00022653093 0)
(0.80954369 0.00021813938 0)
(0.80697786 0.00020987284 0)
(0.80447357 0.00020439283 0)
(0.80187507 0.00019450435 0)
(0.79964694 0.00021644985 5.0090125e-20)
(0.79570531 0.00017594179 0)
(0.99703108 0.001856589 0)
(0.99721468 0.0022860924 0)
(0.99750372 0.0025864893 0)
(0.99779292 0.0027703967 0)
(0.9980494 0.0028952616 0)
(0.99828513 0.0029857645 0)
(0.99850675 0.0030456497 0)
(0.99871088 0.0030827093 0)
(0.99889766 0.003104711 0)
(0.99907061 0.0031156653 0)
(0.9992322 0.0031174966 0)
(0.99938391 0.0031120751 0)
(0.99952689 0.0031000851 0)
(0.99966212 0.0030827524 0)
(0.99979069 0.0030602788 0)
(0.99991319 0.003032686 0)
(1.0000298 0.0029998432 0)
(1.0001403 0.0029615152 0)
(1.000244 0.0029179246 0)
(1.0003402 0.0028697332 0)
(1.0004284 0.0028176946 0)
(1.0005082 0.0027626914 0)
(1.0005793 0.0027057669 0)
(1.0006412 0.0026482337 0)
(1.000694 0.0025917269 0)
(1.0007382 0.0025381613 0)
(1.0007752 0.0024888054 0)
(1.0008064 0.0024445638 0)
(1.0008331 0.0024063108 0)
(1.0008573 0.002373895 0)
(1.0008805 0.0023464407 0)
(1.0009033 0.0023228416 0)
(1.0009259 0.0023022794 0)
(1.0009481 0.00228363 0)
(1.0009694 0.0022661955 0)
(1.000989 0.0022499743 0)
(1.0010064 0.0022345926 0)
(1.0010208 0.0022198417 0)
(1.0010312 0.0022056457 0)
(1.0010361 0.0021914374 0)
(1.0010328 0.0021769278 0)
(1.0010174 0.0021622153 0)
(1.000985 0.002147209 0)
(1.0009288 0.0021320538 0)
(1.0008383 0.0021165955 0)
(1.000691 0.0021005158 0)
(1.0004566 0.0020838962 0)
(1.0000878 0.002065811 0)
(0.99951738 0.0020457981 0)
(0.99858686 0.0020218897 0)
(0.99713382 0.0019898887 0)
(0.99500257 0.0019489393 0)
(0.99206434 0.0018935928 0)
(0.98833389 0.0018223691 0)
(0.98392183 0.0017420469 0)
(0.97901721 0.001655931 0)
(0.97384089 0.0015688896 0)
(0.96857293 0.0014847421 0)
(0.96332476 0.0014052554 0)
(0.95814494 0.001331778 0)
(0.95304747 0.0012642059 0)
(0.94803626 0.0012016065 0)
(0.94311577 0.0011428946 0)
(0.93829104 0.0010873118 0)
(0.93356473 0.0010346003 0)
(0.92893646 0.00098468527 0)
(0.92440441 0.00093743851 0)
(0.91996661 0.00089274232 0)
(0.91562095 0.0008504467 0)
(0.91136509 0.00081039065 0)
(0.90719655 0.00077246523 0)
(0.90311273 0.00073653554 0)
(0.89911112 0.00070248297 0)
(0.89518919 0.0006702019 0)
(0.89134449 0.00063958283 0)
(0.88757458 0.0006105362 0)
(0.88387712 0.00058296845 0)
(0.8802498 0.00055679603 0)
(0.8766904 0.00053194148 0)
(0.87319674 0.00050833111 0)
(0.86976673 0.00048589618 0)
(0.86639832 0.00046457216 0)
(0.86308954 0.00044429878 0)
(0.85983847 0.00042501963 0)
(0.85664324 0.00040668221 0)
(0.85350203 0.00038923747 0)
(0.85041307 0.00037264051 0)
(0.84737462 0.00035684905 0)
(0.84438497 0.00034182816 0)
(0.84144235 0.00032753975 0)
(0.83854521 0.00031397257 0)
(0.83569121 0.00030107258 0)
(0.83287976 0.000288928 0)
(0.83010511 0.00027733771 0)
(0.82737326 0.00026689257 0)
(0.82465825 0.00025654513 0)
(0.8220089 0.0002497569 0)
(0.81926814 0.00023672527 -1.466777e-20)
(0.81691502 0.00026632492 0)
(0.81276952 0.00021067505 -8.4452508e-21)
(0.99716683 0.0018279519 0)
(0.9973223 0.0022177285 0)
(0.9975712 0.002505562 0)
(0.99783119 0.0026937685 0)
(0.99807107 0.0028253083 0)
(0.99829556 0.0029219843 0)
(0.99850865 0.0029884139 0)
(0.99870714 0.0030315665 0)
(0.99889043 0.0030587836 0)
(0.9990611 0.0030741606 0)
(0.99922118 0.0030798074 0)
(0.99937188 0.0030776137 0)
(0.9995142 0.0030684927 0)
(0.99964902 0.0030536001 0)
(0.99977729 0.0030333116 0)
(0.99989957 0.0030077223 0)
(1.000016 0.0029767929 0)
(1.0001264 0.002940393 0)
(1.0002301 0.0028987599 0)
(1.0003265 0.0028525292 0)
(1.0004151 0.0028024451 0)
(1.0004957 0.0027493714 0)
(1.0005676 0.0026943368 0)
(1.0006309 0.0026386239 0)
(1.0006853 0.0025838026 0)
(1.0007316 0.0025316875 0)
(1.0007709 0.0024835387 0)
(1.0008047 0.0024402165 0)
(1.0008344 0.0024025392 0)
(1.0008618 0.0023704501 0)
(1.0008885 0.0023431558 0)
(1.0009152 0.0023196031 0)
(1.0009422 0.0022990183 0)
(1.0009695 0.0022804202 0)
(1.0009969 0.002263154 0)
(1.001024 0.002247173 0)
(1.0010506 0.0022321467 0)
(1.0010765 0.0022178133 0)
(1.0011014 0.0022039472 0)
(1.0011248 0.0021900281 0)
(1.0011458 0.0021758568 0)
(1.0011633 0.0021615363 0)
(1.0011761 0.0021470703 0)
(1.001183 0.0021325765 0)
(1.0011821 0.0021178531 0)
(1.0011699 0.0021028835 0)
(1.0011417 0.0020878109 0)
(1.0010905 0.0020728386 0)
(1.001008 0.0020577893 0)
(1.0008748 0.0020420176 0)
(1.0006616 0.002025342 0)
(1.000325 0.002007213 0)
(0.99980345 0.0019875218 0)
(0.99895895 0.0019646855 0)
(0.99764176 0.0019351689 0)
(0.99570121 0.0018967938 0)
(0.99301897 0.0018448338 0)
(0.98960055 0.0017794332 0)
(0.98553787 0.0017055838 0)
(0.98100192 0.0016268954 0)
(0.97618749 0.0015474276 0)
(0.97125211 0.0014695828 0)
(0.96629345 0.0013954234 0)
(0.96135908 0.0013259904 0)
(0.95647013 0.0012612469 0)
(0.95163972 0.0012004562 0)
(0.94687908 0.0011429055 0)
(0.94219632 0.0010882663 0)
(0.93759565 0.0010364014 0)
(0.93307873 0.00098719841 0)
(0.92864613 0.00094056317 0)
(0.92429769 0.00089635113 0)
(0.92003264 0.0008544345 0)
(0.91584976 0.00081469577 0)
(0.91174752 0.00077700782 0)
(0.90772421 0.00074126365 0)
(0.90377799 0.0007073509 0)
(0.89990694 0.00067516774 0)
(0.89610909 0.0006446189 0)
(0.89238246 0.00061561351 0)
(0.88872505 0.00058806654 0)
(0.88513487 0.00056189803 0)
(0.88160996 0.00053703312 0)
(0.87814837 0.00051340167 0)
(0.87474819 0.00049093821 0)
(0.87140754 0.0004695815 0)
(0.86812456 0.00044927535 0)
(0.86489739 0.0004299667 0)
(0.86172426 0.00041161142 0)
(0.85860324 0.00039416148 0)
(0.85553269 0.00037760111 0)
(0.85251014 0.00036186262 0)
(0.84953486 0.00034704963 0)
(0.84660105 0.00033291378 0)
(0.84371442 0.00032016936 0)
(0.84084925 0.0003075018 0)
(0.83805402 0.00029922157 7.1636464e-22)
(0.83516998 0.00028267839 0)
(0.83269134 0.00032067812 4.7299483e-20)
(0.82834089 0.0002481953 0)
(0.99729607 0.0018028648 0)
(0.99742905 0.0021572225 0)
(0.99764413 0.0024314691 0)
(0.99787763 0.0026212559 0)
(0.99810106 0.0027577044 0)
(0.99831385 0.0028594299 0)
(0.99851774 0.0029314734 0)
(0.99870966 0.0029801019 0)
(0.9988885 0.0030121619 0)
(0.99905605 0.003031761 0)
(0.99921388 0.0030411276 0)
(0.99936298 0.0030421595 0)
(0.99950416 0.0030359411 0)
(0.99963817 0.0030235839 0)
(0.99976582 0.0030055762 0)
(0.99988759 0.0029820875 0)
(1.0000036 0.0029531604 0)
(1.0001137 0.0029187586 0)
(1.0002172 0.0028791387 0)
(1.0003136 0.002834911 0)
(1.0004024 0.0027868077 0)
(1.0004833 0.0027356799 0)
(1.000556 0.0026825422 0)
(1.0006201 0.0026286447 0)
(1.0006757 0.0025754923 0)
(1.0007234 0.0025247944 0)
(1.0007644 0.0024777961 0)
(1.0007999 0.0024353547 0)
(1.0008315 0.0023982481 0)
(1.0008608 0.002366477 0)
(1.0008895 0.0023393364 0)
(1.0009182 0.0023158615 0)
(1.0009473 0.0022953154 0)
(1.0009771 0.0022767962 0)
(1.0010072 0.0022596542 0)
(1.0010375 0.0022437873 0)
(1.0010678 0.0022288842 0)
(1.0010982 0.0022146635 0)
(1.0011285 0.0022009011 0)
(1.0011584 0.0021871533 0)
(1.0011874 0.0021732319 0)
(1.0012151 0.0021592236 0)
(1.0012409 0.0021451694 0)
(1.0012645 0.0021311309 0)
(1.0012853 0.0021169195 0)
(1.0013024 0.0021025303 0)
(1.0013144 0.002088088 0)
(1.0013199 0.0020737535 0)
(1.0013172 0.00205925 0)
(1.0013029 0.0020444179 0)
(1.001272 0.002029553 0)
(1.001217 0.0020148393 0)
(1.0011289 0.0020000799 0)
(1.0009875 0.0019846167 0)
(1.0007624 0.001968078 0)
(1.0004088 0.0019500444 0)
(0.99985505 0.0019302854 0)
(0.99896974 0.001907017 0)
(0.99761236 0.0018775528 0)
(0.99563794 0.001837787 0)
(0.99296912 0.0017851212 0)
(0.98961971 0.0017223 0)
(0.98569299 0.0016525672 0)
(0.98135584 0.0015794312 0)
(0.97677618 0.0015055599 0)
(0.97208154 0.0014332618 0)
(0.96734809 0.0013642288 0)
(0.96261582 0.0012991344 0)
(0.95790868 0.0012376818 0)
(0.95324472 0.0011793531 0)
(0.94863729 0.0011238616 0)
(0.94409492 0.0010710543 0)
(0.93962274 0.0010208494 0)
(0.93522388 0.00097315778 0)
(0.93090022 0.00092786021 0)
(0.92665261 0.00088485387 0)
(0.9224811 0.00084402374 0)
(0.91838523 0.0008052604 0)
(0.91436416 0.00076845775 0)
(0.91041676 0.00073351251 0)
(0.90654167 0.00070032633 0)
(0.90273742 0.00066880555 0)
(0.89900241 0.00063886176 0)
(0.89533496 0.00061041153 0)
(0.89173335 0.00058337655 0)
(0.88819583 0.00055768324 0)
(0.88472063 0.00053326376 0)
(0.88130593 0.00051005384 0)
(0.87794995 0.00048799954 0)
(0.87465077 0.00046704229 0)
(0.87140669 0.00044716111 0)
(0.86821521 0.00042827401 0)
(0.8650755 0.00041049928 0)
(0.86198176 0.00039354061 0)
(0.85893948 0.0003782369 0)
(0.85592314 0.00036299678 0)
(0.85298105 0.00035302739 0)
(0.84995249 0.00033258907 0)
(0.84734749 0.00037974439 0)
(0.84279039 0.0002887031 0)
(0.99741768 0.0017805035 0)
(0.99753261 0.0021033642 0)
(0.99771934 0.0023635231 0)
(0.99792913 0.002552652 0)
(0.99813675 0.0026923792 0)
(0.99833796 0.0027981104 0)
(0.99853253 0.0028749723 0)
(0.99871747 0.0029285601 0)
(0.99889132 0.0029651436 0)
(0.99905514 0.0029887688 0)
(0.99921016 0.0030017407 0)
(0.99935712 0.0030059542 0)
(0.99949668 0.0030026147 0)
(0.99962948 0.0029928077 0)
(0.99975616 0.0029771046 0)
(0.99987712 0.0029557502 0)
(0.99999247 0.0029288612 0)
(1.000102 0.0028964849 0)
(1.0002051 0.0028589002 0)
(1.0003014 0.0028166971 0)
(1.0003903 0.0027705961 0)
(1.0004714 0.0027214359 0)
(1.0005445 0.0026702139 0)
(1.0006093 0.0026181461 0)
(1.0006659 0.0025666739 0)
(1.0007148 0.0025174116 0)
(1.0007571 0.002471587 0)
(1.000794 0.0024300559 0)
(1.000827 0.0023935571 0)
(1.0008578 0.0023621365 0)
(1.0008878 0.0023351782 0)
(1.0009178 0.002311802 0)
(1.0009482 0.0022913013 0)
(1.0009793 0.0022728362 0)
(1.0010109 0.0022557755 0)
(1.0010428 0.0022399806 0)