/*--------------------------------*- C++ -*----------------------------------*\
  =========                 |
  \\      /  F ield         | OpenFOAM: The Open Source CFD Toolbox
   \\    /   O peration     | Website:  https://openfoam.org
    \\  /    A nd           | Version:  12
     \\/     M anipulation  |
\*---------------------------------------------------------------------------*/
FoamFile
{
    format      ascii;
    class       volVectorField;
    location    "700";
    object      wallShearStress;
}
// * * * * * * * * * * * * * * * * * * * * * * * * * * * * * * * * * * * * * //

dimensions      [0 2 -2 0 0 0 0];

internalField   uniform (0 0 0);

boundaryField
{
    bottom
    {
        type            calculated;
        value           nonuniform List<vector> 
112
(
(-0.0077940662 -3.5683576e-05 0)
(-0.0059472811 -2.2279075e-07 -1.4476143e-17)
(-0.005479281 -7.5205476e-08 9.9877402e-18)
(-0.0051700102 -5.2822768e-08 -3.3808229e-18)
(-0.004946339 -4.0193487e-08 0)
(-0.0047641313 -3.3375972e-08 0)
(-0.0046079434 -2.8570243e-08 0)
(-0.0044727415 -2.4616516e-08 0)
(-0.0043550801 -2.1364107e-08 0)
(-0.0042515684 -1.8742282e-08 -2.3333573e-18)
(-0.0041594267 -1.6606055e-08 0)
(-0.0040766886 -1.4811711e-08 -1.8361817e-18)
(-0.004002004 -1.3285944e-08 1.6440313e-18)
(-0.0039341181 -1.2009448e-08 -1.4834981e-18)
(-0.0038718408 -1.0933759e-08 0)
(-0.0038143834 -1.0000604e-08 1.2315509e-18)
(-0.0037611444 -9.1877967e-09 0)
(-0.0037115568 -8.4765241e-09 -5.2049014e-19)
(-0.0036651919 -7.8467656e-09 0)
(-0.0036216839 -7.2876929e-09 -8.9277639e-19)
(-0.0035807095 -6.7883255e-09 8.3064287e-19)
(-0.0035420083 -6.3394222e-09 0)
(-0.0035053483 -5.9347172e-09 0)
(-0.0034705288 -5.5672781e-09 0)
(-0.0034373865 -5.2326938e-09 -6.3766052e-19)
(-0.003405765 -4.9279539e-09 0)
(-0.0033755262 -4.6486071e-09 0)
(-0.0033465592 -4.3916844e-09 0)
(-0.0033187565 -4.1556108e-09 0)
(-0.0032920189 -3.9372668e-09 -4.7775424e-19)
(-0.0032662716 -3.7341681e-09 4.5276292e-19)
(-0.0032414422 -3.545813e-09 0)
(-0.0032174578 -3.3708416e-09 0)
(-0.0031942575 -3.2072125e-09 0)
(-0.0031717914 -3.0539041e-09 3.6921372e-19)
(-0.0031500095 -2.9105893e-09 0)
(-0.0031288622 -2.7763281e-09 0)
(-0.0031083079 -2.649855e-09 -3.1973115e-19)
(-0.0030883119 -2.5305668e-09 0)
(-0.0030688391 -2.4182397e-09 0)
(-0.0030498545 -2.3124108e-09 0)
(-0.0030313267 -2.2122737e-09 2.6628003e-19)
(-0.0030132301 -2.1172435e-09 -1.2734688e-19)
(-0.0029955406 -2.0271691e-09 2.4372026e-19)
(-0.0029782323 -1.9419181e-09 0)
(-0.0029612807 -1.8609684e-09 0)
(-0.0029446658 -1.7838258e-09 -3.2116692e-19)
(-0.0029283697 -1.710327e-09 0)
(-0.0029123734 -1.6403657e-09 1.9668169e-19)
(-0.0028966585 -1.5737478e-09 0)
(-0.0028812075 -1.5101487e-09 0)
(-0.0028660058 -1.4492946e-09 -8.675403e-20)
(-0.0028510397 -1.3910772e-09 -8.3228174e-20)
(-0.002836295 -1.3354363e-09 0)
(-0.0028217573 -1.2822268e-09 -1.5328127e-19)
(-0.0028074132 -1.2312236e-09 0)
(-0.0027932515 -1.1822637e-09 0)
(-0.002779261 -1.1352804e-09 0)
(-0.0027654301 -1.0902128e-09 0)
(-0.0027517476 -1.046963e-09 0)
(-0.0027382023 -1.0053726e-09 0)
(-0.0027247852 -9.6534546e-10 0)
(-0.0027114863 -9.2683374e-10 0)
(-0.0026982961 -8.8978636e-10 0)
(-0.0026852045 -8.5412338e-10 -1.0163784e-19)
(-0.0026722025 -8.1975246e-10 0)
(-0.0026592809 -7.8660433e-10 -4.67606e-20)
(-0.0026464315 -7.5462668e-10 0)
(-0.0026336452 -7.2379905e-10 -4.2989846e-20)
(-0.0026209128 -6.9405561e-10 8.2411137e-20)
(-0.0026082254 -6.653312e-10 7.8966412e-20)
(-0.0025955746 -6.3757074e-10 -3.7819713e-20)
(-0.0025829521 -6.107523e-10 0)
(-0.0025703484 -5.8484868e-10 0)
(-0.0025577544 -5.5979805e-10 6.6327788e-20)
(-0.0025451615 -5.3556574e-10 -6.342967e-20)
(-0.0025325601 -5.1211953e-10 0)
(-0.0025199412 -4.8943511e-10 0)
(-0.0025072946 -4.6748098e-10 -5.529505e-20)
(-0.0024946105 -4.4622209e-10 0)
(-0.0024818782 -4.256279e-10 0)
(-0.0024690877 -4.0567817e-10 0)
(-0.0024562272 -3.8635538e-10 0)
(-0.0024432849 -3.6762558e-10 0)
(-0.0024302485 -3.4946226e-10 0)
(-0.0024171057 -3.3184642e-10 0)
(-0.0024038425 -3.1477155e-10 0)
(-0.0023904436 -2.9815109e-10 3.5127236e-20)
(-0.0023768996 -2.8221723e-10 -3.3234622e-20)
(-0.002363477 -2.6744049e-10 0)
(-0.0023505858 -2.5390406e-10 0)
(-0.0023383394 -2.4146982e-10 0)
(-0.0023266863 -2.3002355e-10 0)
(-0.0023155793 -2.1947584e-10 0)
(-0.0023049757 -2.0974162e-10 0)
(-0.002294837 -2.0073715e-10 0)
(-0.002285129 -1.9238658e-10 0)
(-0.0022758206 -1.8462468e-10 -2.1667537e-20)
(-0.0022668842 -1.77397e-10 0)
(-0.0022582941 -1.7065574e-10 0)
(-0.0022500275 -1.6435966e-10 0)
(-0.002242063 -1.5847593e-10 0)
(-0.0022343809 -1.5298701e-10 0)
(-0.0022269615 -1.4785186e-10 0)
(-0.0022197894 -1.4313226e-10 0)
(-0.0022128387 -1.3866895e-10 0)
(-0.00220611 -1.350194e-10 0)
(-0.0021995219 -1.3097134e-10 0)
(-0.0021931964 -1.3009229e-10 0)
(-0.0021866955 -2.3396482e-10 0)
(-0.0021810945 -1.5020913e-10 -1.7646899e-20)
(-0.0021718402 -1.7985579e-10 0)
)
;
    }
    back
    {
        type            empty;
    }
    front
    {
        type            empty;
    }
    inlet
    {
        type            calculated;
        value           uniform (0 0 0);
    }
    outlet
    {
        type            calculated;
        value           uniform (0 0 0);
    }
    top
    {
        type            calculated;
        value           uniform (0 0 0);
    }
    slipsurface
    {
        type            calculated;
        value           uniform (0 0 0);
    }
}


// ************************************************************************* //
