/*--------------------------------*- C++ -*----------------------------------*\
  =========                 |
  \\      /  F ield         | OpenFOAM: The Open Source CFD Toolbox
   \\    /   O peration     | Website:  https://openfoam.org
    \\  /    A nd           | Version:  12
     \\/     M anipulation  |
\*---------------------------------------------------------------------------*/
FoamFile
{
    format      ascii;
    class       volScalarField;
    location    "1900";
    object      k;
}
// * * * * * * * * * * * * * * * * * * * * * * * * * * * * * * * * * * * * * //

dimensions      [0 2 -2 0 0 0 0];

internalField   nonuniform List<scalar> 
7480
(
8.3952503e-09
8.1844442e-09
7.9799328e-09
7.8046913e-09
7.6802198e-09
7.6145178e-09
7.6404502e-09
7.7180754e-09
7.8720107e-09
8.0372476e-09
8.5544652e-09
7.1470594e-09
5.4424417e-05
0.0014634672
0.0037589877
0.005827763
0.0072544081
0.0080447268
0.0084667509
0.0084516547
0.0083613814
0.0081940043
0.0079883398
0.0077712032
0.0075515982
0.0073339848
0.0071224359
0.0069224626
0.006739465
0.0065708194
0.0064162804
0.0062763745
0.0061513025
0.0060406381
0.0059433757
0.0058581798
0.0057834623
0.0057177406
0.0056600129
0.005609526
0.0055652854
0.0055261223
0.0054910101
0.0054589315
0.005429446
0.005401259
0.0053741071
0.0053475502
0.0053211579
0.0052946482
0.0052677143
0.0052399918
0.0052112448
0.0051814664
0.0051508282
0.0051195637
0.0050878977
0.0050560583
0.0050242476
0.0049925977
0.0049611721
0.0049300025
0.0048991306
0.0048686283
0.0048385653
0.0048089788
0.0047799042
0.0047513673
0.0047233368
0.004695736
0.0046685078
0.0046416441
0.0046151578
0.0045890553
0.004563357
0.0045380849
0.0045132136
0.0044886899
0.004464479
0.0044405789
0.0044170005
0.0043937623
0.0043708781
0.0043483239
0.0043260549
0.0043040556
0.0042823252
0.0042608785
0.0042397304
0.0042188564
0.0041982209
0.0041778133
0.0041576397
0.0041376887
0.004117983
0.0040983329
0.0040791245
0.0040588239
0.0040416472
0.0040102643
8.5051756e-09
8.4457791e-09
8.3844585e-09
8.3211917e-09
8.2559506e-09
8.1885637e-09
8.1202535e-09
8.0478335e-09
7.9867418e-09
7.8705038e-09
7.9075556e-09
7.4244408e-09
5.2420322e-07
1.3688092e-05
8.4799047e-05
0.0002831239
0.00060079136
0.00096821761
0.0013222263
0.001603916
0.0018119141
0.0019676795
0.0020990232
0.0022247485
0.0023814899
0.0025548511
0.0027520178
0.0030001817
0.0032669352
0.0035413638
0.0038140659
0.0040763474
0.0043204863
0.0045406082
0.0047330586
0.0048968933
0.0050317547
0.0051411536
0.0052319595
0.0053079776
0.0053685882
0.0054143657
0.0054472572
0.005467783
0.0054799556
0.0054781255
0.0054707741
0.0054571038
0.0054380509
0.0054145509
0.0053872347
0.0053565855
0.0053237448
0.0052901125
0.0052568178
0.0052244652
0.0051933429
0.0051635982
0.0051348204
0.0051067293
0.0050792653
0.0050524638
0.0050263331
0.0050008656
0.0049760563
0.0049518739
0.0049283001
0.004905084
0.004881862
0.0048584924
0.0048350678
0.0048117461
0.0047886484
0.0047658426
0.0047433956
0.0047212437
0.0046991854
0.0046771127
0.0046550794
0.0046332056
0.0046115747
0.0045902574
0.0045691981
0.0045482525
0.0045273606
0.0045065769
0.0044859798
0.0044656518
0.0044455557
0.0044255871
0.0044057085
0.004385959
0.0043664107
0.0043470735
0.0043278783
0.0043087662
0.004289784
0.0042705525
0.004253451
0.0042232956
8.5097109e-09
8.451198e-09
8.3917832e-09
8.3313566e-09
8.269893e-09
8.2073886e-09
8.1438256e-09
8.0792726e-09
8.0134232e-09
7.947422e-09
7.8752238e-09
7.8243128e-09
2.4715774e-09
2.0744366e-08
3.8809185e-07
2.6824752e-06
1.132798e-05
2.9884736e-05
6.0266151e-05
0.00010168506
0.00015134159
0.00020577784
0.00026227849
0.00031880596
0.00037784523
0.00044128007
0.00051115774
0.0005940192
0.00069341791
0.00081630154
0.00097678338
0.0011592572
0.0013577455
0.0015705144
0.0017962965
0.0020330477
0.0022790823
0.0025331894
0.0027858967
0.0030295731
0.0032580631
0.0034643048
0.0036443726
0.0038001671
0.0039354505
0.0040541014
0.0041555371
0.0042395469
0.0043075106
0.0043616041
0.0043997192
0.004426514
0.0044457879
0.0044596917
0.0044692522
0.0044750981
0.0044781304
0.0044792605
0.0044790131
0.0044775221
0.0044749717
0.0044715553
0.0044674045
0.0044626855
0.0044575318
0.0044519842
0.0044460594
0.0044394221
0.0044318152
0.0044233476
0.0044142326
0.0044046237
0.0043946272
0.0043843266
0.0043738259
0.004363003
0.0043516356
0.0043397252
0.004327427
0.004314894
0.0043022125
0.0042894781
0.004276587
0.0042633865
0.0042498745
0.0042361641
0.0042223599
0.0042085681
0.004194714
0.004180682
0.0041664723
0.0041521643
0.0041378598
0.0041235637
0.0041091791
0.0040947084
0.0040801131
0.0040654424
0.0040520158
0.0040284569
8.5217985e-09
8.4631506e-09
8.4035968e-09
8.3430555e-09
8.2815105e-09
8.218963e-09
8.1554124e-09
8.0908842e-09
8.0253112e-09
7.9589925e-09
7.8908286e-09
7.825159e-09
7.7445083e-09
7.5932553e-09
7.8040739e-09
9.9236342e-09
2.5500273e-08
1.0510552e-07
4.271689e-07
1.2594914e-06
2.837734e-06
5.3109952e-06
8.7708123e-06
1.3284409e-05
1.8959501e-05
2.6063659e-05
3.4933953e-05
4.6120383e-05
6.0366089e-05
7.8637825e-05
0.00010265303
0.00013439913
0.00017692787
0.00023260196
0.00030413642
0.00039503958
0.00051086228
0.00065810627
0.00082602365
0.0010116662
0.0012179405
0.0014459214
0.0016914732
0.0019403892
0.0021844204
0.0024178303
0.0026349185
0.0028299773
0.0030037651
0.0031568823
0.0032905769
0.003408524
0.0035087135
0.0035929976
0.003663655
0.0037229839
0.0037737484
0.0038175629
0.0038538821
0.003884511
0.0039107708
0.0039336521
0.0039538937
0.0039719765
0.0039880746
0.0040022885
0.0040147361
0.0040254843
0.0040345266
0.0040419917
0.0040480398
0.0040528048
0.0040564277
0.0040590369
0.0040607576
0.0040614504
0.0040609848
0.0040595001
0.0040571922
0.0040541999
0.0040506059
0.0040465282
0.0040418214
0.0040363751
0.0040302731
0.0040236685
0.0040166685
0.0040093888
0.0040017131
0.0039935477
0.0039849471
0.0039760218
0.0039668879
0.003957531
0.0039478449
0.0039378821
0.0039275845
0.0039172232
0.0039074091
0.0038899967
8.5340206e-09
8.4753033e-09
8.4156805e-09
8.3550678e-09
8.2934484e-09
8.2308218e-09
8.1671924e-09
8.102566e-09
8.0369518e-09
7.9703506e-09
7.9028076e-09
7.8341779e-09
7.7651753e-09
7.693988e-09
7.6223663e-09
7.5525914e-09
7.4846517e-09
7.467509e-09
7.6978572e-09
8.798257e-09
1.2181975e-08
2.0696098e-08
3.9497915e-08
7.7202713e-08
1.4681621e-07
2.6649766e-07
4.6012852e-07
7.5978533e-07
1.2105247e-06
1.8757621e-06
2.853758e-06
4.2959394e-06
6.4404823e-06
9.6795166e-06
1.4623498e-05
2.2164651e-05
3.3714505e-05
5.1086743e-05
7.7973515e-05
0.00011785571
0.00017426454
0.00025209695
0.00035828064
0.00050087912
0.00066888334
0.00085588225
0.0010625033
0.0012894272
0.0015223911
0.0017536133
0.0019761075
0.0021844685
0.0023729738
0.0025423666
0.00269353
0.0028281783
0.0029500063
0.003056813
0.0031490434
0.0032287233
0.0032983696
0.0033602346
0.0034156665
0.0034652475
0.0035094667
0.0035490747
0.0035848791
0.0036167035
0.0036448705
0.0036700565
0.0036926375
0.003712919
0.0037311491
0.0037474942
0.0037620762
0.0037749543
0.0037861696
0.0037958581
0.0038041766
0.0038112498
0.0038171838
0.0038221182
0.003825914
0.0038285586
0.0038302058
0.0038310125
0.003831076
0.0038305165
0.0038291878
0.0038270564
0.0038242344
0.0038208474
0.0038170125
0.0038126899
0.0038077852
0.0038024034
0.0037964867
0.0037904475
0.0037842932
0.0037729723
8.5393107e-09
8.4805754e-09
8.4209365e-09
8.3603086e-09
8.2986744e-09
8.2360337e-09
8.1723908e-09
8.1077522e-09
8.0421256e-09
7.9755204e-09
7.9079457e-09
7.8394237e-09
7.769924e-09
7.6997468e-09
7.6282079e-09
7.5552025e-09
7.4817993e-09
7.4078845e-09
7.3343106e-09
7.2610366e-09
7.1898624e-09
7.1254585e-09
7.0787719e-09
7.0723261e-09
7.1471277e-09
7.3743106e-09
7.8717584e-09
8.8314865e-09
1.0572149e-08
1.3630752e-08
1.8957141e-08
2.8289499e-08
4.4982409e-08
7.5585163e-08
1.3326308e-07
2.4299594e-07
4.5526379e-07
8.5601625e-07
1.621313e-06
3.0584567e-06
5.6779863e-06
1.035437e-05
1.8724369e-05
3.3132482e-05
5.8727896e-05
0.00010027326
0.00016225268
0.00025113798
0.00037475403
0.00052815339
0.00070444758
0.00089800882
0.0011105207
0.0013295143
0.0015445973
0.0017494003
0.0019403163
0.00211398
0.0022728232
0.0024175655
0.00254937
0.0026688368
0.0027748533
0.0028689886
0.0029531195
0.0030291831
0.0030982967
0.0031604521
0.0032158819
0.003265562
0.0033104827
0.0033512926
0.0033883435
0.0034219383
0.0034524537
0.0034798621
0.0035044217
0.0035266052
0.0035466532
0.0035647517
0.0035810687
0.0035957533
0.003608844
0.0036203934
0.0036305412
0.0036394201
0.003647129
0.0036537961
0.003659301
0.0036636935
0.0036671171
0.0036696927
0.0036715313
0.003672579
0.0036727809
0.0036722908
0.0036710527
0.0036695763
0.0036673064
0.0036623544
8.5392768e-09
8.4805502e-09
8.4209211e-09
8.3603037e-09
8.2986804e-09
8.2360511e-09
8.1724199e-09
8.1077933e-09
8.0421791e-09
7.9755863e-09
7.9080254e-09
7.8395107e-09
7.7700588e-09
7.6996945e-09
7.6284355e-09
7.5562835e-09
7.4832441e-09
7.4093525e-09
7.3337855e-09
7.2572461e-09
7.1799974e-09
7.1024689e-09
7.0248624e-09
6.9469483e-09
6.8692863e-09
6.7916255e-09
6.7140668e-09
6.6371345e-09
6.5618027e-09
6.4898223e-09
6.4240223e-09
6.3704312e-09
6.3399024e-09
6.352755e-09
6.4504321e-09
6.7146773e-09
7.3248912e-09
8.6454655e-09
1.152363e-08
1.7970666e-08
3.3282098e-08
7.0143383e-08
1.6497657e-07
3.9670203e-07
9.7589764e-07
2.3410332e-06
5.2192536e-06
1.1057462e-05
2.2191879e-05
4.3625615e-05
8.1485231e-05
0.00014057111
0.00022790548
0.0003511761
0.00050098775
0.0006728158
0.00086029228
0.0010638653
0.0012696529
0.0014676509
0.0016536363
0.0018256763
0.0019831706
0.0021306117
0.0022674828
0.0023944544
0.0025090697
0.002612177
0.0027050683
0.0027893555
0.0028659958
0.0029354244
0.0029981508
0.0030549767
0.0031067984
0.0031538527
0.003196348
0.0032348316
0.0032698372
0.0033017545
0.0033308598
0.0033574092
0.0033812923
0.0034028732
0.0034224673
0.0034402382
0.0034563234
0.0034708645
0.0034839067
0.0034955121
0.0035058064
0.0035149014
0.0035229053
0.0035297903
0.0035355622
0.0035404021
0.0035442461
0.0035476839
0.0035496099
0.0035514818
8.5386507e-09
8.4799283e-09
8.4203031e-09
8.3596894e-09
8.2980698e-09
8.2354439e-09
8.1718162e-09
8.1071933e-09
8.0415829e-09
7.9749943e-09
7.9074382e-09
7.8389281e-09
7.7694812e-09
7.699116e-09
7.627851e-09
7.5557057e-09
7.4826988e-09
7.4088562e-09
7.3341833e-09
7.2586916e-09
7.1823923e-09
7.1052958e-09
7.0273735e-09
6.9485745e-09
6.8684366e-09
6.7874268e-09
6.7058278e-09
6.6237657e-09
6.5413664e-09
6.458753e-09
6.3763361e-09
6.2938868e-09
6.2113615e-09
6.1290154e-09
6.0471629e-09
5.9655934e-09
5.8847063e-09
5.8054394e-09
5.7300661e-09
5.6629384e-09
5.6180783e-09
5.6262281e-09
5.7785264e-09
6.3076244e-09
7.855228e-09
1.2570228e-08
2.650643e-08
7.0967084e-08
2.0645955e-07
6.1390539e-07
1.7722998e-06
4.484496e-06
1.0481181e-05
2.2406156e-05
4.6944695e-05
9.0258659e-05
0.0001572186
0.00025854508
0.00039097474
0.00054715709
0.00072153303
0.00090920735
0.0011061335
0.0012961347
0.001474875
0.0016417406
0.0017961923
0.0019426139
0.0020804723
0.0022094288
0.002326673
0.0024330395
0.0025299265
0.0026186261
0.0026998912
0.0027737685
0.0028405855
0.0029011761
0.0029563314
0.0030065588
0.0030523042
0.0030940946
0.0031320482
0.0031665257
0.0031979433
0.0032266361
0.0032528677
0.0032768548
0.0032984957
0.0033181418
0.0033360226
0.0033522701
0.0033670035
0.0033803085
0.0033922308
0.0034029297
0.0034123283
0.0034211054
0.0034276093
0.0034368907
8.5389069e-09
8.4801821e-09
8.4205543e-09
8.3599374e-09
8.2983144e-09
8.2356848e-09
8.1720532e-09
8.1074263e-09
8.0418117e-09
7.9752187e-09
7.9076579e-09
7.8391423e-09
7.7696881e-09
7.6993135e-09
7.6280374e-09
7.5558778e-09
7.4828555e-09
7.4089928e-09
7.3343156e-09
7.2588484e-09
7.1826145e-09
7.1056365e-09
7.0279348e-09
6.9495332e-09
6.8704413e-09
6.7906755e-09
6.7102602e-09
6.6292226e-09
6.5475914e-09
6.4653898e-09
6.3826435e-09
6.2993518e-09
6.2154798e-09
6.130879e-09
6.0454492e-09
5.9597008e-09
5.8738074e-09
5.7879182e-09
5.7021443e-09
5.6171718e-09
5.5325131e-09
5.4483146e-09
5.3653134e-09
5.2833687e-09
5.2036743e-09
5.1303231e-09
5.0765604e-09
5.0845049e-09
5.315279e-09
6.1681684e-09
9.6710442e-09
2.1003768e-08
6.6422374e-08
2.1340661e-07
7.3863676e-07
2.2722574e-06
6.0377565e-06
1.4317609e-05
3.2720156e-05
6.8291018e-05
0.00012700013
0.00021714994
0.0003418577
0.00049066903
0.00065780637
0.00083661744
0.0010242948
0.0012061523
0.0013770838
0.0015373443
0.0016869537
0.0018299817
0.0019656046
0.0020926665
0.0022091499
0.0023158768
0.0024138744
0.0025038266
0.0025860094
0.0026607777
0.0027288793
0.0027911669
0.0028479071
0.0028994283
0.0029463047
0.0029890987
0.0030282229
0.0030640401
0.0030965826
0.0031262408
0.0031533577
0.0031781753
0.0032009006
0.0032215528
0.00324031
0.003257455
0.0032729258
0.0032875262
0.0032990633
0.0033164537
8.5395247e-09
8.4807967e-09
8.4211655e-09
8.3605451e-09
8.2989183e-09
8.2362848e-09
8.1726492e-09
8.108018e-09
8.0423992e-09
7.975802e-09
7.908237e-09
7.8397172e-09
7.7702581e-09
7.6998777e-09
7.6285948e-09
7.5564281e-09
7.4833981e-09
7.4095272e-09
7.3348388e-09
7.2593564e-09
7.1831038e-09
7.1061058e-09
7.0283881e-09
6.9499777e-09
6.8709046e-09
6.7911986e-09
6.7108888e-09
6.6300048e-09
6.5485762e-09
6.4666337e-09
6.3842066e-09
6.301325e-09
6.2180197e-09
6.134318e-09
6.0502401e-09
5.9658172e-09
5.8810849e-09
5.7960814e-09
5.7108348e-09
5.6253803e-09
5.5396923e-09
5.4536423e-09
5.3667929e-09
5.2799092e-09
5.1932613e-09
5.1073496e-09
5.02257e-09
4.938585e-09
4.8565528e-09
4.7758601e-09
4.7014475e-09
4.6389012e-09
4.6522729e-09
4.8725299e-09
6.0667199e-09
1.0672653e-08
3.108331e-08
1.0620941e-07
4.1697743e-07
1.4987323e-06
4.5427884e-06
1.1563534e-05
2.83931e-05
6.264433e-05
0.00012080684
0.00021207286
0.0003363656
0.00048468983
0.00065002828
0.00082487925
0.0010052121
0.0011777779
0.0013396223
0.0014920434
0.0016358681
0.0017745468
0.0019065295
0.0020294944
0.0021427211
0.0022470191
0.0023432824
0.0024319091
0.0025129269
0.0025867775
0.0026542077
0.0027157483
0.0027718561
0.0028231286
0.0028698483
0.0029124035
0.002951243
0.0029867841
0.0030193834
0.0030491307
0.0030762514
0.0031011275
0.00312378
0.0031451944
0.0031623548
0.0031886524
8.5402391e-09
8.4815076e-09
8.4218729e-09
8.3612488e-09
8.2996181e-09
8.2369805e-09
8.1733406e-09
8.1087052e-09
8.0430822e-09
7.9764807e-09
7.9089117e-09
7.8403879e-09
7.7709244e-09
7.700539e-09
7.6292507e-09
7.5570786e-09
7.4840433e-09
7.410167e-09
7.3354727e-09
7.2599839e-09
7.1837241e-09
7.1067179e-09
7.0289909e-09
6.9505697e-09
6.8714823e-09
6.7917578e-09
6.7114261e-09
6.6305184e-09
6.5490667e-09
6.4671041e-09
6.3846644e-09
6.3017825e-09
6.218494e-09
6.134836e-09
6.0508469e-09
5.9665642e-09
5.8820249e-09
5.7972656e-09
5.7123237e-09
5.6272335e-09
5.5420296e-09
5.4567468e-09
5.371399e-09
5.2860152e-09
5.2006278e-09
5.1152689e-09
5.0299379e-09
4.9444975e-09
4.8582634e-09
4.7722629e-09
4.6868924e-09
4.6031612e-09
4.5206361e-09
4.4401342e-09
4.3625219e-09
4.2900828e-09
4.2494584e-09
4.3209332e-09
4.8859061e-09
7.8182083e-09
2.1487839e-08
7.9872664e-08
3.4107418e-07
1.363182e-06
4.5006537e-06
1.1987993e-05
3.1122007e-05
6.9635462e-05
0.00013540124
0.00023545186
0.00036746423
0.00052092634
0.00068784204
0.00086027898
0.0010325714
0.0011942653
0.001346719
0.0014912212
0.0016300145
0.001763288
0.0018894883
0.0020065472
0.0021149761
0.0022154968
0.0023083245
0.0023933966
0.0024711754
0.0025424721
0.0026076519
0.0026670349
0.0027211767
0.0027706382
0.0028159043
0.0028572226
0.0028948999
0.0029294068
0.0029608784
0.0029905533
0.0030146405
0.0030514814
8.5410669e-09
8.4823313e-09
8.4226922e-09
8.3620636e-09
8.3004281e-09
8.2377856e-09
8.1741408e-09
8.1095003e-09
8.0438721e-09
7.9772656e-09
7.9096916e-09
7.8411627e-09
7.771694e-09
7.7013029e-09
7.6300083e-09
7.5578298e-09
7.4847879e-09
7.4109045e-09
7.3362027e-09
7.2607059e-09
7.1844378e-09
7.1074229e-09
7.0296869e-09
6.9512565e-09
6.8721595e-09
6.7924248e-09
6.7120821e-09
6.6311624e-09
6.5496975e-09
6.4677202e-09
6.3852643e-09
6.3023648e-09
6.2190569e-09
6.1353773e-09
6.0513631e-09
5.9670524e-09
5.882484e-09
5.7976971e-09
5.7127314e-09
5.6276272e-09
5.5424249e-09
5.4571655e-09
5.3718928e-09
5.2866474e-09
5.2014687e-09
5.1163935e-09
5.031454e-09
4.9466857e-09
4.8620885e-09
4.7776923e-09
4.6935016e-09
4.6095792e-09
4.5256986e-09
4.4411305e-09
4.356863e-09
4.2740435e-09
4.1927674e-09
4.1133477e-09
4.0365215e-09
3.9632656e-09
3.9128418e-09
3.9384718e-09
4.427191e-09
7.2346459e-09
2.2023885e-08
9.0572608e-08
4.1724465e-07
1.7548937e-06
5.788827e-06
1.6321462e-05
4.246704e-05
9.2191729e-05
0.00017624592
0.00029224341
0.00043682868
0.00059744813
0.00076451054
0.00093185444
0.0010920917
0.0012431561
0.001386917
0.0015242782
0.001657313
0.0017846046
0.0019033398
0.0020137822
0.0021165067
0.0022117472
0.0022993581
0.0023796387
0.0024532355
0.0025205543
0.0025820672
0.0026382504
0.0026895091
0.0027363491
0.0027790166
0.00281905
0.0028518177
0.0029016156
8.5419532e-09
8.4832131e-09
8.4235694e-09
8.3629361e-09
8.3012957e-09
8.2386482e-09
8.1749982e-09
8.1103524e-09
8.044719e-09
7.9781073e-09
7.9105282e-09
7.8419944e-09
7.7725206e-09
7.702124e-09
7.6308236e-09
7.5586389e-09
7.4855906e-09
7.4117006e-09
7.3369916e-09
7.2614871e-09
7.1852109e-09
7.1081876e-09
7.0304428e-09
6.9520034e-09
6.8728971e-09
6.7931529e-09
6.7128007e-09
6.6318712e-09
6.5503964e-09
6.4684091e-09
6.3859431e-09
6.3030331e-09
6.2197146e-09
6.1360238e-09
6.0519979e-09
5.9676745e-09
5.8830921e-09
5.7982898e-09
5.7133072e-09
5.6281842e-09
5.5429613e-09
5.4576792e-09
5.3723791e-09
5.2871022e-09
5.20189e-09
5.1167838e-09
5.0318247e-09
4.9470536e-09
4.8625149e-09
4.7782484e-09
4.6942908e-09
4.610672e-09
4.5274218e-09
4.4445354e-09
4.3620186e-09
4.2799013e-09
4.1982187e-09
4.1162535e-09
4.0341433e-09
3.9530947e-09
3.8740932e-09
3.7966876e-09
3.7222614e-09
3.6515042e-09
3.6041535e-09
3.6548555e-09
4.3405717e-09
8.5496311e-09
3.2211706e-08
1.5766781e-07
7.4856979e-07
3.1322846e-06
9.7629297e-06
2.8607693e-05
6.9001841e-05
0.00014173164
0.00024881202
0.00038570361
0.00054229342
0.00070606537
0.0008687489
0.0010261562
0.0011745281
0.0013162362
0.0014514412
0.0015831633
0.0017097773
0.0018286037
0.0019395874
0.0020431453
0.0021393162
0.0022278556
0.002309183
0.0023838728
0.0024522185
0.0025146989
0.0025716267
0.0026247973
0.002668551
0.0027346765
8.5428125e-09
8.4840682e-09
8.4244203e-09
8.3637826e-09
8.3021377e-09
8.2394855e-09
8.1758307e-09
8.1111802e-09
8.045542e-09
7.9789257e-09
7.911342e-09
7.8428038e-09
7.7733256e-09
7.7029245e-09
7.6316192e-09
7.5594294e-09
7.4863758e-09
7.4124802e-09
7.3377652e-09
7.2622542e-09
7.185971e-09
7.1089404e-09
7.0311881e-09
6.9527407e-09
6.8736263e-09
6.7938738e-09
6.713513e-09
6.6325748e-09
6.5510912e-09
6.469095e-09
6.38662e-09
6.303701e-09
6.2203735e-09
6.1366737e-09
6.0526387e-09
5.9683064e-09
5.883715e-09
5.7989037e-09
5.713912e-09
5.6287798e-09
5.5435475e-09
5.4582556e-09
5.372945e-09
5.2876566e-09
5.2024313e-09
5.1173101e-09
5.0323339e-09
4.9475432e-09
4.8629786e-09
4.7786805e-09
4.6946889e-09
4.6110431e-09
4.5277819e-09
4.4449477e-09
4.3625784e-09
4.2807023e-09
4.1993495e-09
4.1185249e-09
4.0382157e-09
3.9584427e-09
3.8792159e-09
3.8001883e-09
3.7207591e-09
3.6425017e-09
3.5663253e-09
3.4923258e-09
3.4206619e-09
3.3576542e-09
3.3171256e-09
3.5176939e-09
5.0175311e-09
1.5155271e-08
7.4194176e-08
4.1949009e-07
1.9516649e-06
6.8699466e-06
2.2224365e-05
5.7870492e-05
0.00012554711
0.0002289589
0.00036210937
0.00051707992
0.00067827528
0.00083657023
0.00098994794
0.00113478
0.0012735187
0.001406349
0.0015359853
0.0016609689
0.0017786267
0.0018888194
0.0019918796
0.002087639
0.0021759225
0.0022572012
0.0023316481
0.0024011344
0.0024585942
0.0025452655
8.5436163e-09
8.4848682e-09
8.4252164e-09
8.3645747e-09
8.3029258e-09
8.2402693e-09
8.1766103e-09
8.1119555e-09
8.046313e-09
7.9796925e-09
7.9121049e-09
7.8435628e-09
7.7740808e-09
7.7036758e-09
7.6323664e-09
7.5601722e-09
7.4871139e-09
7.4132133e-09
7.3384928e-09
7.2629759e-09
7.1866865e-09
7.1096492e-09
7.0318899e-09
6.9534354e-09
6.8743136e-09
6.7945534e-09
6.7141847e-09
6.6332386e-09
6.5517469e-09
6.4697426e-09
6.3872594e-09
6.3043321e-09
6.2209963e-09
6.1372882e-09
6.0532449e-09
5.9689042e-09
5.8843046e-09
5.7994851e-09
5.7144852e-09
5.6293449e-09
5.5441045e-09
5.4588046e-09
5.3734861e-09
5.2881899e-09
5.2029568e-09
5.1178278e-09
5.0328437e-09
4.9480449e-09
4.8634716e-09
4.7791637e-09
4.6951605e-09
4.6115009e-09
4.5282233e-09
4.4453656e-09
4.3629653e-09
4.2810591e-09
4.1996821e-09
4.1188718e-09
4.0386651e-09
3.9590914e-09
3.8801707e-09
3.8019186e-09
3.7243065e-09
3.6473361e-09
3.5710609e-09
3.494853e-09
3.4185558e-09
3.3438928e-09
3.2710347e-09
3.2013014e-09
3.13555e-09
3.0796883e-09
3.1262857e-09
3.9028472e-09
9.4199478e-09
4.5696637e-08
2.9614883e-07
1.489151e-06
5.7318777e-06
2.0184442e-05
5.5038536e-05
0.00012354556
0.00022825757
0.00036194079
0.00051700537
0.00067580632
0.00082958207
0.00097782565
0.0011186458
0.0012540064
0.0013840284
0.0015112737
0.0016339337
0.0017494654
0.0018579438
0.0019595752
0.0020536884
0.0021420965
0.0022158169
0.0023275057
8.5443672e-09
8.4856155e-09
8.4259602e-09
8.3653148e-09
8.3036621e-09
8.2410019e-09
8.1773389e-09
8.1126802e-09
8.0470339e-09
7.9804096e-09
7.9128184e-09
7.8442729e-09
7.7747876e-09
7.7043792e-09
7.6330661e-09
7.560868e-09
7.4878055e-09
7.4139002e-09
7.3391747e-09
7.2636523e-09
7.1873569e-09
7.1103133e-09
7.0325474e-09
6.9540861e-09
6.8749571e-09
6.7951896e-09
6.7148135e-09
6.6338597e-09
6.5523603e-09
6.4703481e-09
6.3878571e-09
6.3049219e-09
6.2215781e-09
6.137862e-09
6.0538108e-09
5.9694621e-09
5.8848546e-09
5.8000272e-09
5.7150195e-09
5.6298714e-09
5.5446232e-09
5.4593157e-09
5.3739895e-09
5.2886856e-09
5.203445e-09
5.1183086e-09
5.033317e-09
4.9485109e-09
4.8639304e-09
4.7796153e-09
4.6956051e-09
4.6119385e-09
4.5286537e-09
4.4457884e-09
4.3633791e-09
4.281462e-09
4.2000721e-09
4.1192439e-09
4.039011e-09
3.9594067e-09
3.8804623e-09
3.8022093e-09
3.7246828e-09
3.6479064e-09
3.5719006e-09
3.4966577e-09
3.4221663e-09
3.3483552e-09
3.2754848e-09
3.201886e-09
3.1289767e-09
3.0588896e-09
2.9894998e-09
2.9300148e-09
2.8520863e-09
2.8652527e-09
3.3962471e-09
7.4247613e-09
3.6632109e-08
2.6839207e-07
1.4217798e-06
5.7690916e-06
2.1597258e-05
5.9698958e-05
0.00013481906
0.00024512574
0.00038276835
0.000537876
0.00069336698
0.00084210243
0.00098538957
0.0011220143
0.0012536611
0.0013809733
0.0015054638
0.0016251037
0.0017376685
0.0018454489
0.0019365375
0.0020765177
8.5450691e-09
8.4863142e-09
8.4266556e-09
8.3660069e-09
8.3043508e-09
8.241687e-09
8.1780206e-09
8.1133584e-09
8.0477086e-09
7.981081e-09
7.9134865e-09
7.844938e-09
7.7754498e-09
7.7050385e-09
7.6337222e-09
7.5615206e-09
7.4884543e-09
7.4145448e-09
7.3398146e-09
7.2642871e-09
7.1879861e-09
7.1109366e-09
7.0331645e-09
6.9546966e-09
6.8755609e-09
6.7957864e-09
6.7154031e-09
6.6344421e-09
6.5529352e-09
6.4709155e-09
6.3884169e-09
6.3054741e-09
6.2221227e-09
6.1383989e-09
6.0543401e-09
5.9699838e-09
5.8853687e-09
5.8005338e-09
5.7155185e-09
5.630363e-09
5.5451074e-09
5.4597924e-09
5.3744589e-09
5.2891477e-09
5.2038999e-09
5.1187562e-09
5.0337575e-09
4.9489442e-09
4.8643565e-09
4.7800344e-09
4.6960172e-09
4.6123437e-09
4.5290521e-09
4.44618e-09
4.3637642e-09
4.2818405e-09
4.2004441e-09
4.1196091e-09
4.0393687e-09
3.9597548e-09
3.8807988e-09
3.8025307e-09
3.72498e-09
3.6481754e-09
3.5721436e-09
3.4969121e-09
3.4225125e-09
3.3489549e-09
3.2762687e-09
3.2044085e-09
3.1333118e-09
3.0631243e-09
2.9932706e-09
2.9226601e-09
2.8550968e-09
2.7877275e-09
2.7315147e-09
2.6511023e-09
2.6554741e-09
3.1461235e-09
7.1212624e-09
3.8625609e-08
3.1726393e-07
1.7093018e-06
7.1287784e-06
2.6874144e-05
7.3340355e-05
0.00015890092
0.00027844845
0.00042174181
0.00057665994
0.0007274101
0.00087059159
0.0010086773
0.0011411972
0.0012691698
0.0013936034
0.0015171931
0.0016231424
0.0017911223
8.5457255e-09
8.4869677e-09
8.4273062e-09
8.3666545e-09
8.3049952e-09
8.2423283e-09
8.1786587e-09
8.1139933e-09
8.0483405e-09
7.9817099e-09
7.9141126e-09
7.8455614e-09
7.7760707e-09
7.7056568e-09
7.6343378e-09
7.5621331e-09
7.4890634e-09
7.4151501e-09
7.3404157e-09
7.2648833e-09
7.1885772e-09
7.1115221e-09
7.0337441e-09
6.95527e-09
6.8761279e-09
6.7963467e-09
6.7159566e-09
6.6349886e-09
6.5534747e-09
6.4714479e-09
6.388942e-09
6.3059919e-09
6.2226332e-09
6.1389022e-09
6.054836e-09
5.9704725e-09
5.8858502e-09
5.801008e-09
5.7159856e-09
5.6308229e-09
5.5455603e-09
5.4602383e-09
5.3748978e-09
5.2895796e-09
5.2043249e-09
5.1191743e-09
5.0341687e-09
4.9493486e-09
4.8647542e-09
4.7804254e-09
4.6964015e-09
4.6127213e-09
4.5294231e-09
4.4465444e-09
4.364122e-09
4.2821919e-09
4.2007891e-09
4.1199478e-09
4.0397012e-09
3.9600813e-09
3.8811193e-09
3.8028451e-09
3.7252875e-09
3.6484742e-09
3.5724316e-09
3.4971852e-09
3.4227596e-09
3.3491791e-09
3.2764634e-09
3.2046415e-09
3.1337349e-09
3.0637412e-09
2.994697e-09
2.9264028e-09
2.8591548e-09
2.7926655e-09
2.7249371e-09
2.6600338e-09
2.5955394e-09
2.5416668e-09
2.4660452e-09
2.4790937e-09
3.1033677e-09
8.4604763e-09
5.5718328e-08
4.7981525e-07
2.5356289e-06
1.1200831e-05
3.8538682e-05
9.9173693e-05
0.00019868028
0.00032881257
0.00047680545
0.00062902855
0.00077398898
0.00091216197
0.0010449713
0.0011756219
0.0012883721
0.0014776866
8.54634e-09
8.4875795e-09
8.4279153e-09
8.3672608e-09
8.3055988e-09
8.242929e-09
8.1792566e-09
8.1145884e-09
8.0489327e-09
7.9822995e-09
7.9146998e-09
7.8461463e-09
7.7766533e-09
7.7062372e-09
7.6349158e-09
7.5627085e-09
7.4896357e-09
7.415719e-09
7.3409806e-09
7.2654439e-09
7.1891329e-09
7.1120726e-09
7.0342891e-09
6.9558091e-09
6.8766609e-09
6.7968734e-09
6.7164768e-09
6.6355022e-09
6.5539815e-09
6.4719478e-09
6.3894351e-09
6.306478e-09
6.2231123e-09
6.1393743e-09
6.0553011e-09
5.9709307e-09
5.8863014e-09
5.8014524e-09
5.7164232e-09
5.6312537e-09
5.5459843e-09
5.4606556e-09
5.3753085e-09
5.2899837e-09
5.2047224e-09
5.1195653e-09
5.0345532e-09
4.9497267e-09
4.8651259e-09
4.7807907e-09
4.6967604e-09
4.6130739e-09
4.5297694e-09
4.4468845e-09
4.3644559e-09
4.2825196e-09
4.2011107e-09
4.1202633e-09
4.0400107e-09
3.9603848e-09
3.881417e-09
3.803137e-09
3.7255738e-09
3.6487549e-09
3.5727069e-09
3.4974549e-09
3.4230228e-09
3.3494334e-09
3.276708e-09
3.2048671e-09
3.1339313e-09
3.0639177e-09
2.994845e-09
2.9267397e-09
2.8595921e-09
2.7934651e-09
2.7281163e-09
2.6638621e-09
2.6004803e-09
2.5358527e-09
2.4739098e-09
2.4130214e-09
2.3602977e-09
2.2969585e-09
2.3461495e-09
3.4147109e-09
1.3285711e-08
1.2064156e-07
9.1447383e-07
4.4367429e-06
1.9448213e-05
6.0201634e-05
0.00014008858
0.00025580061
0.00039590999
0.00054585675
0.00069198709
0.0008329068
0.00095384157
0.0011532733
8.5469157e-09
8.4881527e-09
8.428486e-09
8.3678291e-09
8.3061645e-09
8.2434923e-09
8.1798173e-09
8.1151465e-09
8.0494885e-09
7.9828529e-09
7.915251e-09
7.8466955e-09
7.7772006e-09
7.7067826e-09
7.6354591e-09
7.5632495e-09
7.490174e-09
7.4162541e-09
7.3415122e-09
7.2659714e-09
7.1896559e-09
7.1125908e-09
7.034802e-09
6.9563165e-09
6.8771625e-09
6.797369e-09
6.7169662e-09
6.6359852e-09
6.5544581e-09
6.4724179e-09
6.3898985e-09
6.3069348e-09
6.2235624e-09
6.1398177e-09
6.0557378e-09
5.9713608e-09
5.8867249e-09
5.8018693e-09
5.7168335e-09
5.6316575e-09
5.5463817e-09
5.4610467e-09
5.3756932e-09
5.2903622e-09
5.2050946e-09
5.1199313e-09
5.034913e-09
4.9500804e-09
4.8654735e-09
4.7811322e-09
4.6970959e-09
4.6134034e-09
4.530093e-09
4.4472021e-09
4.3647677e-09
4.2828256e-09
4.2014109e-09
4.1205577e-09
4.0402993e-09
3.9606679e-09
3.8816944e-09
3.8034088e-09
3.7258401e-09
3.6490159e-09
3.5729625e-09
3.4977053e-09
3.4232681e-09
3.3496737e-09
3.2769435e-09
3.2050975e-09
3.1341544e-09
3.0641321e-09
2.9950462e-09
2.926914e-09
2.8597485e-09
2.7935623e-09
2.7283809e-09
2.6641934e-09
2.6010626e-09
2.5387368e-09
2.4775422e-09
2.4171092e-09
2.3557903e-09
2.2971587e-09
2.2403158e-09
2.1894164e-09
2.1407229e-09
2.3374466e-09
4.8130273e-09
2.9368377e-08
3.1452203e-07
2.0321327e-06
9.6203168e-06
3.6251526e-05
9.8522213e-05
0.00019955343
0.00033022173
0.000478725
0.00061285326
0.00082789912
8.5474552e-09
8.48869e-09
8.4290211e-09
8.3683619e-09
8.3066951e-09
8.2440206e-09
8.1803433e-09
8.1156703e-09
8.0500101e-09
7.9833725e-09
7.9157688e-09
7.8472115e-09
7.777715e-09
7.7072954e-09
7.6359701e-09
7.5637584e-09
7.4906806e-09
7.4167579e-09
7.3420126e-09
7.2664681e-09
7.1901485e-09
7.1130788e-09
7.035285e-09
6.9567943e-09
6.8776348e-09
6.7978357e-09
6.717427e-09
6.63644e-09
6.5549067e-09
6.4728602e-09
6.3903344e-09
6.3073643e-09
6.2239855e-09
6.1402344e-09
6.0561482e-09
5.9717648e-09
5.8871226e-09
5.8022607e-09
5.7172187e-09
5.6320365e-09
5.5467546e-09
5.4614134e-09
5.3760539e-09
5.2907169e-09
5.2054433e-09
5.1202741e-09
5.03525e-09
4.9504115e-09
4.8657989e-09
4.7814518e-09
4.6974098e-09
4.6137117e-09
4.5303956e-09
4.4474991e-09
4.3650591e-09
4.2831114e-09
4.2016912e-09
4.1208326e-09
4.0405688e-09
3.960932e-09
3.8819532e-09
3.8036624e-09
3.7260885e-09
3.649259e-09
3.5732006e-09
3.4979383e-09
3.4234962e-09
3.3498969e-09
3.2771619e-09
3.2053112e-09
3.1343637e-09
3.0643369e-09
2.9952469e-09
2.9271085e-09
2.8599356e-09
2.7937398e-09
2.7285344e-09
2.6643288e-09
2.6011317e-09
2.5389641e-09
2.4778166e-09
2.4177337e-09
2.3584769e-09
2.300425e-09
2.2425636e-09
2.1850648e-09
2.1281286e-09
2.0817454e-09
2.0113371e-09
2.0199486e-09
2.6917615e-09
1.0431683e-08
1.0395343e-07
9.1070699e-07
4.8579346e-06
2.2110374e-05
6.8658264e-05
0.00015991081
0.00026688058
0.00049146702
8.5479587e-09
8.4891915e-09
8.4295206e-09
8.3688595e-09
8.3071906e-09
8.2445141e-09
8.1808348e-09
8.1161599e-09
8.0504979e-09
7.9838585e-09
7.9162532e-09
7.8476944e-09
7.7781966e-09
7.7077756e-09
7.6364489e-09
7.5642354e-09
7.4911555e-09
7.4172303e-09
7.3424822e-09
7.2669343e-09
7.1906108e-09
7.1135368e-09
7.0357385e-09
6.957243e-09
6.8780783e-09
6.7982738e-09
6.7178596e-09
6.6368668e-09
6.5553276e-09
6.4732752e-09
6.3907434e-09
6.3077673e-09
6.2243824e-09
6.1406252e-09
6.0565329e-09
5.9721434e-09
5.8874952e-09
5.8026273e-09
5.7175794e-09
5.6323913e-09
5.5471035e-09
5.4617566e-09
5.3763914e-09
5.2910487e-09
5.2057695e-09
5.1205947e-09
5.0355651e-09
4.9507211e-09
4.8661029e-09
4.7817505e-09
4.6977031e-09
4.6139995e-09
4.5306781e-09
4.4477764e-09
4.3653311e-09
4.2833782e-09