/*--------------------------------*- C++ -*----------------------------------*\
  =========                 |
  \\      /  F ield         | OpenFOAM: The Open Source CFD Toolbox
   \\    /   O peration     | Website:  https://openfoam.org
    \\  /    A nd           | Version:  12
     \\/     M anipulation  |
\*---------------------------------------------------------------------------*/
FoamFile
{
    format      ascii;
    class       volScalarField;
    location    "1900";
    object      nut;
}
// * * * * * * * * * * * * * * * * * * * * * * * * * * * * * * * * * * * * * //

dimensions      [0 2 -1 0 0 0 0];

internalField   nonuniform List<scalar> 
7480
(
8.4231792e-11
8.2116718e-11
8.00648e-11
7.8306556e-11
7.70577e-11
7.6398494e-11
6.8767747e-11
5.9258279e-11
5.2489061e-11
4.71626e-11
4.4745203e-11
3.3365181e-11
2.3446116e-07
3.4420499e-06
5.5164682e-06
6.8687326e-06
7.6634912e-06
8.0701447e-06
8.2791178e-06
8.2717337e-06
8.2274393e-06
8.1446751e-06
7.8462868e-06
7.2032228e-06
6.6521182e-06
6.1828412e-06
5.7888748e-06
5.474332e-06
5.2180184e-06
5.0087626e-06
4.8409e-06
4.7108557e-06
4.6150616e-06
4.5496661e-06
4.5105955e-06
4.4938329e-06
4.4952536e-06
4.5104753e-06
4.5385536e-06
4.5789756e-06
4.6296951e-06
4.6881202e-06
4.7517651e-06
4.8187368e-06
4.8885201e-06
4.9581255e-06
5.0266588e-06
5.0929899e-06
5.1557521e-06
5.2136682e-06
5.268473e-06
5.3186729e-06
5.3625842e-06
5.3992828e-06
5.4286833e-06
5.4513628e-06
5.4681931e-06
5.4802248e-06
5.4893439e-06
5.4966437e-06
5.5024219e-06
5.5066794e-06
5.5095095e-06
5.5111389e-06
5.511795e-06
5.5116508e-06
5.5108443e-06
5.5097159e-06
5.5085561e-06
5.5073094e-06
5.5057512e-06
5.5037285e-06
5.5011943e-06
5.4981656e-06
5.4947012e-06
5.490962e-06
5.4870873e-06
5.4830525e-06
5.4787408e-06
5.4740812e-06
5.4690802e-06
5.463782e-06
5.4583144e-06
5.4527448e-06
5.4470195e-06
5.4410738e-06
5.4348755e-06
5.4284529e-06
5.4219122e-06
5.4152842e-06
5.408522e-06
5.4015847e-06
5.3944623e-06
5.3871894e-06
5.3798466e-06
5.3722169e-06
5.3647465e-06
5.3555625e-06
5.3491638e-06
5.3333559e-06
3.439273e-10
3.4097099e-10
3.3766491e-10
3.3419308e-10
3.3060279e-10
3.2689953e-10
3.2314276e-10
3.1920562e-10
3.1571229e-10
3.0995594e-10
3.1050948e-10
2.8912314e-10
2.0721285e-08
4.9289741e-07
2.1714358e-06
4.196705e-06
5.1955613e-06
5.4049076e-06
5.2517693e-06
5.0688757e-06
4.9863265e-06
4.9849072e-06
5.0521267e-06
5.1772723e-06
5.4305436e-06
5.7895693e-06
6.2644298e-06
6.9047882e-06
7.2467349e-06
7.6259796e-06
8.029508e-06
8.4448132e-06
8.8622487e-06
9.2745175e-06
9.6764788e-06
1.0066029e-05
1.0439524e-05
1.0799736e-05
1.1155634e-05
1.1510131e-05
1.1856078e-05
1.218808e-05
1.2504067e-05
1.280443e-05
1.3095586e-05
1.335726e-05
1.3604867e-05
1.3831221e-05
1.4035414e-05
1.4218338e-05
1.4379118e-05
1.4516157e-05
1.4630796e-05
1.4725811e-05
1.4804503e-05
1.4870121e-05
1.4925395e-05
1.4973288e-05
1.5017956e-05
1.5058997e-05
1.5095973e-05
1.512904e-05
1.5158788e-05
1.5185841e-05
1.5210657e-05
1.5233525e-05
1.5254705e-05
1.5274649e-05
1.5293135e-05
1.5309472e-05
1.5323351e-05
1.5334919e-05
1.5344473e-05
1.5352293e-05
1.5358682e-05
1.5363906e-05
1.5367835e-05
1.5370122e-05
1.5370653e-05
1.5369627e-05
1.5367316e-05
1.536401e-05
1.5359887e-05
1.5354751e-05
1.534836e-05
1.5340739e-05
1.5332066e-05
1.5322637e-05
1.5312604e-05
1.5301787e-05
1.5290032e-05
1.5277381e-05
1.5264031e-05
1.5250162e-05
1.5235689e-05
1.5220481e-05
1.5204523e-05
1.5186944e-05
1.5172668e-05
1.5139686e-05
3.4530074e-10
3.4502227e-10
3.4472268e-10
3.4440666e-10
3.4407543e-10
3.4372881e-10
3.4336548e-10
3.4298753e-10
3.4258111e-10
3.4219391e-10
3.4156453e-10
3.4188369e-10
1.0881633e-10
9.2039072e-10
1.732899e-08
1.1883515e-07
4.8168651e-07
1.1515403e-06
1.9677395e-06
2.6255524e-06
2.9735987e-06
3.082966e-06
3.0642539e-06
2.9952172e-06
2.9286721e-06
2.9515191e-06
3.0597229e-06
3.264605e-06
3.5540877e-06
3.923278e-06
4.3856277e-06
4.8905109e-06
5.4542783e-06
6.0817323e-06
6.7751393e-06
7.5365415e-06
8.3750049e-06
9.3109778e-06
1.0192772e-05
1.105243e-05
1.1929884e-05
1.2804771e-05
1.3660851e-05
1.4495098e-05
1.5309445e-05
1.6107235e-05
1.6872618e-05
1.7587292e-05
1.8262282e-05
1.8899547e-05
1.9372279e-05
1.9797657e-05
2.0184672e-05
2.0538908e-05
2.086388e-05
2.1162658e-05
2.1439272e-05
2.1697515e-05
2.1936832e-05
2.2157759e-05
2.2362122e-05
2.2552179e-05
2.2729963e-05
2.2897175e-05
2.305496e-05
2.3204043e-05
2.3345189e-05
2.3477991e-05
2.3601744e-05
2.371665e-05
2.3823447e-05
2.3922928e-05
2.4015805e-05
2.4102688e-05
2.4184242e-05
2.4260344e-05
2.4330389e-05
2.4394439e-05
2.4453083e-05
2.4506987e-05
2.4556633e-05
2.4602577e-05
2.4644635e-05
2.4682348e-05
2.4715781e-05
2.4745447e-05
2.4771822e-05
2.4795465e-05
2.4816216e-05
2.4833687e-05
2.4847965e-05
2.4859453e-05
2.486863e-05
2.487565e-05
2.4880084e-05
2.4882283e-05
2.4881222e-05
2.487992e-05
2.4872594e-05
2.4860222e-05
3.4586964e-10
3.4571552e-10
3.4555868e-10
3.4539764e-10
3.4523133e-10
3.4505942e-10
3.4488149e-10
3.4469815e-10
3.4450603e-10
3.443174e-10
3.4408397e-10
3.4399461e-10
3.4327787e-10
3.3942785e-10
3.5187423e-10
4.5137043e-10
1.1701618e-09
4.8647372e-09
1.9917889e-08
5.8959929e-08
1.32521e-07
2.4512445e-07
3.954199e-07
5.7642274e-07
7.8084643e-07
9.8865483e-07
1.1855946e-06
1.3682495e-06
1.5392965e-06
1.7039488e-06
1.8716327e-06
2.0500729e-06
2.2456112e-06
2.4990332e-06
2.8169408e-06
3.2041946e-06
3.6753638e-06
4.2435473e-06
4.9067539e-06
5.6890988e-06
6.6127407e-06
7.6837928e-06
8.8486754e-06
9.8862663e-06
1.0976901e-05
1.2110363e-05
1.327266e-05
1.4440433e-05
1.560685e-05
1.6760284e-05
1.7886074e-05
1.8982298e-05
2.0007226e-05
2.0976353e-05
2.1901735e-05
2.278246e-05
2.3619376e-05
2.438847e-05
2.5000668e-05
2.5570608e-05
2.6105604e-05
2.6611531e-05
2.7091987e-05
2.7548824e-05
2.7983235e-05
2.8396812e-05
2.8791885e-05
2.916746e-05
2.9521984e-05
2.9856321e-05
3.0172275e-05
3.0471597e-05
3.0755703e-05
3.1025649e-05
3.1282572e-05
3.1526301e-05
3.1756176e-05
3.1972685e-05
3.2176866e-05
3.2369758e-05
3.2552194e-05
3.2725167e-05
3.2888355e-05
3.3041356e-05
3.3184621e-05
3.3319029e-05
3.3445309e-05
3.3564348e-05
3.3675842e-05
3.3779458e-05
3.3875596e-05
3.3964968e-05
3.4048331e-05
3.4125857e-05
3.4196985e-05
3.4262554e-05
3.4320734e-05
3.4378511e-05
3.4415659e-05
3.4483841e-05
3.4637158e-10
3.4622586e-10
3.4607738e-10
3.4592465e-10
3.4576725e-10
3.4560503e-10
3.4543793e-10
3.4526584e-10
3.4508878e-10
3.4490635e-10
3.4472009e-10
3.4452313e-10
3.4434641e-10
3.4410977e-10
3.4388774e-10
3.4380049e-10
3.4384657e-10
3.4628739e-10
3.6036573e-10
4.158617e-10
5.8144201e-10
9.9757105e-10
1.92281e-09
3.795843e-09
7.2898321e-09
1.3357944e-08
2.3264329e-08
3.8692826e-08
6.1946399e-08
9.6114537e-08
1.456762e-07
2.1680698e-07
3.1833063e-07
4.5752211e-07
6.4158111e-07
8.7366657e-07
1.1548535e-06
1.4710242e-06
1.8377909e-06
2.2208505e-06
2.6272362e-06
3.1147188e-06
3.716816e-06
4.4428575e-06
5.2967035e-06
6.3014077e-06
7.4864103e-06
8.8449844e-06
9.953984e-06
1.1148381e-05
1.2417468e-05
1.3747845e-05
1.5109277e-05
1.6490591e-05
1.7873712e-05
1.9240789e-05
2.0592393e-05
2.187761e-05
2.3113156e-05
2.4312307e-05
2.547066e-05
2.6580868e-05
2.7628628e-05
2.8620997e-05
2.9570509e-05
3.0484007e-05
3.1367366e-05
3.2136814e-05
3.2825661e-05
3.3480686e-05
3.410595e-05
3.4704054e-05
3.5276435e-05
3.5824206e-05
3.634931e-05
3.6850789e-05
3.7327127e-05
3.7779591e-05
3.8210162e-05
3.8620582e-05
3.901214e-05
3.9386353e-05
3.9742506e-05
4.008022e-05
4.0400416e-05
4.0704423e-05
4.0993326e-05
4.1268457e-05
4.1529281e-05
4.1775643e-05
4.2008347e-05
4.222844e-05
4.2436996e-05
4.263419e-05
4.2819407e-05
4.2994148e-05
4.3155533e-05
4.3316034e-05
4.3433701e-05
4.36441e-05
3.4658677e-10
3.4644259e-10
3.4629584e-10
3.4614492e-10
3.4598939e-10
3.4582908e-10
3.4566391e-10
3.4549381e-10
3.453187e-10
3.4513856e-10
3.4495329e-10
3.4476329e-10
3.4456656e-10
3.4437574e-10
3.4415928e-10
3.4391108e-10
3.436787e-10
3.434569e-10
3.4328561e-10
3.4316692e-10
3.4319528e-10
3.4361241e-10
3.4493937e-10
3.4830623e-10
3.5581461e-10
3.7117613e-10
4.0063315e-10
4.545624e-10
5.5040086e-10
7.1788872e-10
1.0101158e-09
1.5252406e-09
2.4542418e-09
4.1732303e-09
7.4439298e-09
1.3723139e-08
2.5953955e-08
4.9110861e-08
9.3049802e-08
1.7403855e-07
3.1372527e-07
5.3528392e-07
8.6488527e-07
1.2961119e-06
1.851531e-06
2.4315705e-06
3.0024414e-06
3.6691715e-06
4.4608263e-06
5.4018924e-06
6.5322153e-06
7.8643827e-06
9.4381796e-06
1.0746998e-05
1.2029591e-05
1.339973e-05
1.4846842e-05
1.6343675e-05
1.789014e-05
1.9460888e-05
2.1032055e-05
2.2577103e-05
2.4051453e-05
2.5517127e-05
2.697319e-05
2.8405501e-05
2.9787113e-05
3.1109115e-05
3.2377214e-05
3.3599034e-05
3.4777684e-05
3.5906233e-05
3.6984596e-05
3.8019146e-05
3.9020996e-05
3.9915481e-05
4.0718566e-05
4.1486672e-05
4.2222959e-05
4.292958e-05
4.3607864e-05
4.4259887e-05
4.4883177e-05
4.5477256e-05
4.6044045e-05
4.6585641e-05
4.7103593e-05
4.7599761e-05
4.8072955e-05
4.8523152e-05
4.8951662e-05
4.9359966e-05
4.9749567e-05
5.0120585e-05
5.0472361e-05
5.0807114e-05
5.1120757e-05
5.1432608e-05
5.1672243e-05
5.209387e-05
3.465853e-10
3.4644158e-10
3.4629537e-10
3.4614503e-10
3.4599012e-10
3.4583047e-10
3.4566599e-10
3.4549661e-10
3.4532227e-10
3.451429e-10
3.4495848e-10
3.4476907e-10
3.4457472e-10
3.4437567e-10
3.4417174e-10
3.4396192e-10
3.4374534e-10
3.4352244e-10
3.4325366e-10
3.4297008e-10
3.4268309e-10
3.4241307e-10
3.4216968e-10
3.4194156e-10
3.4175604e-10
3.4160111e-10
3.4148206e-10
3.4142727e-10
3.414917e-10
3.4177369e-10
3.4244445e-10
3.4382034e-10
3.4651006e-10
3.5168286e-10
3.6175348e-10
3.815447e-10
4.2176332e-10
5.0451376e-10
6.8163501e-10
1.0775045e-09
2.0229408e-09
4.3213324e-09
1.0294273e-08
2.5024042e-08
6.1900799e-08
1.4788209e-07
3.2011566e-07
6.2799777e-07
1.0951062e-06
1.7489159e-06
2.4797788e-06
3.1621193e-06
3.9415638e-06
4.8556275e-06
5.9616928e-06
7.304794e-06
8.8843613e-06
1.0739936e-05
1.2205439e-05
1.359948e-05
1.5097264e-05
1.6684563e-05
1.8334898e-05
2.0050451e-05
2.1793165e-05
2.3542745e-05
2.5228553e-05
2.6921569e-05
2.8633373e-05
3.0338858e-05
3.1995208e-05
3.359885e-05
3.5163216e-05
3.6693674e-05
3.8187082e-05
3.9623371e-05
4.0995016e-05
4.2312038e-05
4.3580902e-05
4.4800503e-05
4.5971084e-05
4.7102541e-05
4.8092765e-05
4.9010638e-05
4.9891511e-05
5.073801e-05
5.1551837e-05
5.2335313e-05
5.3084924e-05
5.3801157e-05
5.4486367e-05
5.5142618e-05
5.5771918e-05
5.6373965e-05
5.6947855e-05
5.7496636e-05
5.8015031e-05
5.8530383e-05
5.8937457e-05
5.9644897e-05
3.4655968e-10
3.4641597e-10
3.4626975e-10
3.4611941e-10
3.4596449e-10
3.4580483e-10
3.4564035e-10
3.4547096e-10
3.452966e-10
3.4511724e-10
3.4493282e-10
3.4474338e-10
3.4454899e-10
3.4434964e-10
3.4414519e-10
3.439355e-10
3.4372032e-10
3.4349971e-10
3.4327281e-10
3.4303898e-10
3.4279753e-10
3.4254762e-10
3.4228646e-10
3.4201009e-10
3.4169387e-10
3.4135877e-10
3.4101741e-10
3.4067484e-10
3.4033634e-10
3.4000725e-10
3.39709e-10
3.3942911e-10
3.3916422e-10
3.3892721e-10
3.3873512e-10
3.3857632e-10
3.3847433e-10
3.3848821e-10
3.3876088e-10
3.3958659e-10
3.4180244e-10
3.4735135e-10
3.6207787e-10
4.0114679e-10
5.0711441e-10
8.2382058e-10
1.7634335e-09
4.7913911e-09
1.4130592e-08
4.2426314e-08
1.2255859e-07
3.0256816e-07
6.5463667e-07
1.2014225e-06
2.0051222e-06
2.8020875e-06
3.6121084e-06
4.5761859e-06
5.7362344e-06
7.142163e-06
8.8244855e-06
1.0788658e-05
1.2907046e-05
1.4347525e-05
1.5907377e-05
1.7581109e-05
1.9338742e-05
2.1187898e-05
2.3091715e-05
2.5022637e-05
2.6901094e-05
2.8806548e-05
3.0746e-05
3.2686523e-05
3.4581369e-05
3.6444934e-05
3.8289125e-05
4.0104349e-05
4.187251e-05
4.3584474e-05
4.5243934e-05
4.6860813e-05
4.84164e-05
4.9901607e-05
5.1325717e-05
5.2697072e-05
5.4016602e-05
5.529129e-05
5.6394818e-05
5.74366e-05
5.8438295e-05
5.9402155e-05
6.0330591e-05
6.122157e-05
6.2073843e-05
6.289187e-05
6.366936e-05
6.4442521e-05
6.5065139e-05
6.6136593e-05
3.4656984e-10
3.4642606e-10
3.4627978e-10
3.4612937e-10
3.4597436e-10
3.4581461e-10
3.4565003e-10
3.4548053e-10
3.4530606e-10
3.4512656e-10
3.4494199e-10
3.4475234e-10
3.4455764e-10
3.4435788e-10
3.4415293e-10
3.4394257e-10
3.4372666e-10
3.4350513e-10
3.4327808e-10
3.430455e-10
3.4280738e-10
3.4256357e-10
3.423138e-10
3.4205785e-10
3.4179477e-10
3.4152385e-10
3.4124469e-10
3.4095701e-10
3.4066048e-10
3.4035448e-10
3.4003833e-10
3.3970995e-10
3.3936534e-10
3.3899397e-10
3.3858748e-10
3.381717e-10
3.3775453e-10
3.3734291e-10
3.3694182e-10
3.36592e-10
3.362644e-10
3.3596696e-10
3.3574568e-10
3.3559356e-10
3.3559436e-10
3.3603783e-10
3.3783531e-10
3.438536e-10
3.6532615e-10
4.3087396e-10
6.8666839e-10
1.5156174e-09
4.8693949e-09
1.5874791e-08
5.5445558e-08
1.7016317e-07
4.3276488e-07
9.1451166e-07
1.7132503e-06
2.6403304e-06
3.547655e-06
4.566177e-06
5.8507079e-06
7.4045833e-06
9.2701968e-06
1.1440772e-05
1.3895432e-05
1.5602692e-05
1.7271205e-05
1.9067929e-05
2.0962722e-05
2.296444e-05
2.5029546e-05
2.7116839e-05
2.9166014e-05
3.1285866e-05
3.3458949e-05
3.5629137e-05
3.7769531e-05
3.9889668e-05
4.1991217e-05
4.4060458e-05
4.6089416e-05
4.8070047e-05
5.0003004e-05
5.187977e-05
5.3693297e-05
5.5452684e-05
5.7141291e-05
5.8755861e-05
6.0303705e-05
6.1793473e-05
6.3233464e-05
6.4520394e-05
6.5704998e-05
6.6846687e-05
6.7937819e-05
6.9023668e-05
6.9910777e-05
7.1425621e-05
3.4659465e-10
3.4645087e-10
3.4630459e-10
3.4615417e-10
3.4599916e-10
3.4583941e-10
3.4567481e-10
3.4550531e-10
3.4533082e-10
3.451513e-10
3.449667e-10
3.4477701e-10
3.4458221e-10
3.4438231e-10
3.4417717e-10
3.4396661e-10
3.437505e-10
3.4352877e-10
3.433014e-10
3.4306834e-10
3.4282957e-10
3.4258506e-10
3.423348e-10
3.4207876e-10
3.4181701e-10
3.4154957e-10
3.4127636e-10
3.409973e-10
3.4071224e-10
3.4042102e-10
3.4012338e-10
3.3981901e-10
3.395076e-10
3.391886e-10
3.3886098e-10
3.3852425e-10
3.3817813e-10
3.3782242e-10
3.3745628e-10
3.3707913e-10
3.3668678e-10
3.3626854e-10
3.3579382e-10
3.3530681e-10
3.3482243e-10
3.3437203e-10
3.3398284e-10
3.3363373e-10
3.3340397e-10
3.3325887e-10
3.3355764e-10
3.3477809e-10
3.4159914e-10
3.6402445e-10
4.6116133e-10
8.254919e-10
2.445607e-09
8.4948067e-09
3.3788028e-08
1.2191019e-07
3.5824975e-07
8.2357776e-07
1.6709936e-06
2.6953882e-06
3.7193764e-06
4.8699485e-06
6.3407333e-06
8.1430103e-06
1.031025e-05
1.2791425e-05
1.5530336e-05
1.7396811e-05
1.9222949e-05
2.1177563e-05
2.3236792e-05
2.5405327e-05
2.7641774e-05
2.9879623e-05
3.2157682e-05
3.4516825e-05
3.6914074e-05
3.9293229e-05
4.166932e-05
4.4049955e-05
4.641681e-05
4.8740033e-05
5.1013092e-05
5.3243378e-05
5.5434083e-05
5.7562484e-05
5.9625349e-05
6.162379e-05
6.3559023e-05
6.5415373e-05
6.7190163e-05
6.8892427e-05
7.0525817e-05
7.2129889e-05
7.3347493e-05
7.5383375e-05
3.4662336e-10
3.4647959e-10
3.4633332e-10
3.4618291e-10
3.4602792e-10
3.4586818e-10
3.457036e-10
3.455341e-10
3.4535963e-10
3.4518011e-10
3.4499552e-10
3.4480581e-10
3.4461097e-10
3.4441098e-10
3.4420574e-10
3.439951e-10
3.4377892e-10
3.4355714e-10
3.4332971e-10
3.4309661e-10
3.4285778e-10
3.4261318e-10
3.4236277e-10
3.4210652e-10
3.418444e-10
3.4157637e-10
3.413024e-10
3.4102249e-10
3.4073659e-10
3.4044471e-10
3.4014682e-10
3.398429e-10
3.3953295e-10
3.39217e-10
3.3889511e-10
3.3856726e-10
3.3823337e-10
3.3789329e-10
3.3754688e-10
3.3719379e-10
3.3683364e-10
3.3646601e-10
3.3608918e-10
3.3570223e-10
3.3530444e-10
3.3489497e-10
3.3447069e-10
3.3401926e-10
3.3349027e-10
3.3294987e-10
3.3242352e-10
3.3198507e-10
3.3160683e-10
3.3135022e-10
3.3129119e-10
3.3163099e-10
3.3452882e-10
3.4647298e-10
3.9900038e-10
6.5028938e-10
1.8197682e-09
6.8836573e-09
2.9823291e-08
1.1983159e-07
3.8258686e-07
9.0970273e-07
1.9126685e-06
3.0058019e-06
4.1793172e-06
5.5603367e-06
7.34889e-06
9.530089e-06
1.2118551e-05
1.4989724e-05
1.7912128e-05
1.9800909e-05
2.1823369e-05
2.3963511e-05
2.6220522e-05
2.8575522e-05
3.0983892e-05
3.3400414e-05
3.5930418e-05
3.854254e-05
4.1157964e-05
4.3782429e-05
4.64225e-05
4.9057957e-05
5.1667488e-05
5.4241588e-05
5.6779071e-05
5.926116e-05
6.1676363e-05
6.4038816e-05
6.6340508e-05
6.8566452e-05
7.0714232e-05
7.2821924e-05
7.4651907e-05
7.7550876e-05
3.4665665e-10
3.4651289e-10
3.4636663e-10
3.4621624e-10
3.4606125e-10
3.4590152e-10
3.4573695e-10
3.4556746e-10
3.4539298e-10
3.4521347e-10
3.4502887e-10
3.4483913e-10
3.4464425e-10
3.4444418e-10
3.4423884e-10
3.4402809e-10
3.4381182e-10
3.4358995e-10
3.4336245e-10
3.4312927e-10
3.4289036e-10
3.4264569e-10
3.4239521e-10
3.4213888e-10
3.4187667e-10
3.4160853e-10
3.4133442e-10
3.410543e-10
3.4076815e-10
3.4047592e-10
3.401776e-10
3.3987317e-10
3.395626e-10
3.3924588e-10
3.3892302e-10
3.3859401e-10
3.3825887e-10
3.3791761e-10
3.3757025e-10
3.372168e-10
3.3685728e-10
3.3649174e-10
3.3612038e-10
3.357432e-10
3.3536013e-10
3.3497093e-10
3.3457503e-10
3.3417206e-10
3.3375921e-10
3.3333558e-10
3.3289852e-10
3.324491e-10
3.3196764e-10
3.3139603e-10
3.3080302e-10
3.3027456e-10
3.2982291e-10
3.2947633e-10
3.2930247e-10
3.2939049e-10
3.3147875e-10
3.4016988e-10
3.8977668e-10
6.4931919e-10
2.0141699e-09
8.435463e-09
3.9406212e-08
1.6606713e-07
5.177524e-07
1.2609132e-06
2.4699086e-06
3.7218753e-06
5.1193678e-06
6.8692325e-06
9.1250465e-06
1.1871765e-05
1.4926468e-05
1.8172961e-05
2.0738723e-05
2.286951e-05
2.5119086e-05
2.7472748e-05
2.9948324e-05
3.2514812e-05
3.5075599e-05
3.7782469e-05
4.0601974e-05
4.3443211e-05
4.6310656e-05
4.9214219e-05
5.212929e-05
5.5017586e-05
5.7869228e-05
6.0693482e-05
6.3473053e-05
6.6189984e-05
6.883564e-05
7.1442512e-05
7.3764589e-05
7.7487923e-05
3.4669229e-10
3.4654855e-10
3.4640231e-10
3.4625193e-10
3.4609696e-10
3.4593725e-10
3.4577269e-10
3.4560321e-10
3.4542875e-10
3.4524924e-10
3.4506464e-10
3.448749e-10
3.4467999e-10
3.4447987e-10
3.4427446e-10
3.4406364e-10
3.4384732e-10
3.436254e-10
3.4339786e-10
3.4316464e-10
3.4292569e-10
3.4268098e-10
3.4243047e-10
3.421741e-10
3.4191184e-10
3.4164366e-10
3.4136951e-10
3.4108935e-10
3.4080315e-10
3.4051087e-10
3.4021249e-10
3.3990799e-10
3.3959733e-10
3.392805e-10
3.3895748e-10
3.3862826e-10
3.3829282e-10
3.3795118e-10
3.3760331e-10
3.3724924e-10
3.3688897e-10
3.3652252e-10
3.3614993e-10
3.3577123e-10
3.3538648e-10
3.3499573e-10
3.3459905e-10
3.3419649e-10
3.3378838e-10
3.3337478e-10
3.3295556e-10
3.3253009e-10
3.3209775e-10
3.3165533e-10
3.3120026e-10
3.307317e-10
3.3024899e-10
3.2969155e-10
3.2906542e-10
3.2846468e-10
3.2797697e-10
3.2756975e-10
3.2737064e-10
3.2744822e-10
3.2973829e-10
3.412015e-10
4.1339679e-10
8.3070878e-10
3.1913513e-09
1.5903902e-08
7.6402701e-08
3.1307901e-07
8.7785511e-07
2.0536326e-06
3.4008004e-06
4.891181e-06
6.7210126e-06
9.0745663e-06
1.2028522e-05
1.5326621e-05
1.8809148e-05
2.2069533e-05
2.4339508e-05
2.6713646e-05
2.9177639e-05
3.1785288e-05
3.4503248e-05
3.723239e-05
4.0124331e-05
4.3152827e-05
4.622079e-05
4.9337489e-05
5.2504303e-05
5.5689523e-05
5.8860333e-05
6.2009559e-05
6.5117617e-05
6.8209006e-05
7.0970327e-05
7.5481155e-05
3.4672682e-10
3.4658309e-10
3.4643688e-10
3.4628652e-10
3.4613158e-10
3.4597188e-10
3.4580734e-10
3.4563789e-10
3.4546345e-10
3.4528396e-10
3.4509938e-10
3.4490965e-10
3.4471473e-10
3.4451459e-10
3.4430914e-10
3.440983e-10
3.4388195e-10
3.4366003e-10
3.4343248e-10
3.4319927e-10
3.4296033e-10
3.4271563e-10
3.4246512e-10
3.4220877e-10
3.4194652e-10
3.4167835e-10
3.414042e-10
3.4112405e-10
3.4083785e-10
3.4054559e-10
3.4024722e-10
3.3994272e-10
3.3963207e-10
3.3931524e-10
3.3899223e-10
3.3866302e-10
3.3832759e-10
3.3798594e-10
3.3763808e-10
3.3728399e-10
3.3692369e-10
3.3655718e-10
3.3618448e-10
3.3580559e-10
3.3542055e-10
3.3502938e-10
3.346321e-10
3.3422875e-10
3.3381941e-10
3.3340413e-10
3.3298302e-10
3.3255615e-10
3.3212362e-10
3.3168585e-10
3.3124301e-10
3.3079459e-10
3.3034021e-10
3.298775e-10
3.2940259e-10
3.2891424e-10
3.284098e-10
3.2785607e-10
3.2719677e-10
3.2656434e-10
3.2604777e-10
3.2566292e-10
3.2543489e-10
3.259931e-10
3.2885668e-10
3.5611161e-10
5.1861161e-10
1.5987851e-09
7.9821765e-09
4.5848765e-08
2.1260021e-07
6.8995443e-07
1.8381051e-06
3.275275e-06
4.8899751e-06
6.8718646e-06
9.4012148e-06
1.2650275e-05
1.624947e-05
1.9999241e-05
2.3795712e-05
2.6237311e-05
2.8748835e-05
3.1345652e-05
3.4097187e-05
3.6972426e-05
3.9875166e-05
4.2981222e-05
4.6237491e-05
4.9548674e-05
5.2928693e-05
5.6372255e-05
5.982768e-05
6.3325586e-05
6.6472589e-05
7.1713528e-05
3.4675907e-10
3.4661537e-10
3.4646917e-10
3.4631884e-10
3.4616392e-10
3.4600425e-10
3.4583973e-10
3.456703e-10
3.4549588e-10
3.4531642e-10
3.4513185e-10
3.4494213e-10
3.4474721e-10
3.4454705e-10
3.4434158e-10
3.4413072e-10
3.4391436e-10
3.4369244e-10
3.434649e-10
3.4323169e-10
3.4299277e-10
3.4274809e-10
3.424976e-10
3.4224126e-10
3.4197904e-10
3.4171089e-10
3.4143676e-10
3.4115663e-10
3.4087046e-10
3.4057821e-10
3.4027986e-10
3.3997538e-10
3.3966475e-10
3.3934795e-10
3.3902496e-10
3.3869577e-10
3.3836037e-10
3.3801875e-10
3.3767091e-10
3.3731685e-10
3.3695658e-10
3.365901e-10
3.3621743e-10
3.3583859e-10
3.3545358e-10
3.3506244e-10
3.3466519e-10
3.3426186e-10
3.3385248e-10
3.3343709e-10
3.3301572e-10
3.3258842e-10
3.3215526e-10
3.3171629e-10
3.3127165e-10
3.3082145e-10
3.3036574e-10
3.2990489e-10
3.2943925e-10
3.2896873e-10
3.2849242e-10
3.2800908e-10
3.2751353e-10
3.2700318e-10
3.264794e-10
3.2588084e-10
3.2518779e-10
3.2456041e-10
3.2402418e-10
3.2372177e-10
3.2374604e-10
3.2483833e-10
3.3698778e-10
4.297865e-10
1.0597894e-09
5.2450063e-09
3.4676179e-08
1.7481808e-07
6.2628249e-07
1.8238884e-06
3.3754869e-06
5.1531603e-06
7.3602455e-06
1.0192543e-05
1.3816574e-05
1.7762597e-05
2.1800425e-05
2.5854554e-05
2.8547316e-05
3.1214749e-05
3.3974587e-05
3.6903566e-05
3.9952868e-05
4.3072597e-05
4.6415516e-05
4.9904291e-05
5.3467133e-05
5.7188567e-05
6.0580878e-05
6.6397201e-05
3.4678915e-10
3.4664547e-10
3.4649929e-10
3.4634898e-10
3.4619408e-10
3.4603442e-10
3.4586993e-10
3.4570052e-10
3.4552612e-10
3.4534667e-10
3.4516212e-10
3.4497241e-10
3.447775e-10
3.4457733e-10
3.4437184e-10
3.4416095e-10
3.4394458e-10
3.4372265e-10
3.4349511e-10
3.4326191e-10
3.43023e-10
3.4277833e-10
3.4252785e-10
3.4227153e-10
3.4200931e-10
3.4174117e-10
3.4146706e-10
3.4118694e-10
3.4090078e-10
3.4060855e-10
3.4031022e-10
3.4000575e-10
3.3969514e-10
3.3937835e-10
3.3905537e-10
3.3872619e-10
3.3839081e-10
3.380492e-10
3.3770137e-10
3.3734733e-10
3.3698708e-10
3.3662062e-10
3.3624797e-10
3.3586914e-10
3.3548416e-10
3.3509304e-10
3.3469582e-10
3.3429251e-10
3.3388317e-10
3.3346781e-10
3.3304649e-10
3.3261924e-10
3.3218611e-10
3.3174714e-10
3.3130238e-10
3.308519e-10
3.3039575e-10
3.29934e-10
3.2946679e-10
3.2899426e-10
3.2851651e-10
3.2803376e-10
3.2754664e-10
3.2705492e-10
3.265581e-10
3.2605311e-10
3.2553638e-10
3.2499852e-10
3.2446146e-10
3.2375567e-10
3.2301562e-10
3.2246741e-10
3.2189965e-10
3.2232125e-10
3.2063591e-10
3.2941514e-10
3.9912231e-10
8.9227839e-10
4.4886144e-09
3.3742877e-08
1.7870435e-07
6.7162944e-07
2.0337358e-06
3.7527038e-06
5.7370202e-06
8.2508319e-06
1.1567101e-05
1.5612377e-05
1.9914427e-05
2.423863e-05
2.8521752e-05
3.1331213e-05
3.4159299e-05
3.7103044e-05
4.0222817e-05
4.3450658e-05
4.6827242e-05
5.0508785e-05
5.3882521e-05
5.9959285e-05
3.4681722e-10
3.4667355e-10
3.4652739e-10
3.463771e-10
3.4622222e-10
3.4606259e-10
3.4589811e-10
3.4572872e-10
3.4555434e-10
3.4537491e-10
3.4519037e-10
3.4500067e-10
3.4480576e-10
3.4460558e-10
3.4440008e-10
3.4418917e-10
3.4397279e-10
3.4375086e-10
3.4352331e-10
3.4329011e-10
3.430512e-10
3.4280653e-10
3.4255607e-10
3.4229975e-10
3.4203754e-10
3.4176941e-10
3.4149531e-10
3.4121519e-10
3.4092904e-10
3.4063682e-10
3.4033849e-10
3.4003403e-10
3.3972342e-10
3.3940664e-10
3.3908367e-10
3.387545e-10
3.3841912e-10
3.3807752e-10
3.377297e-10
3.3737567e-10
3.3701542e-10
3.3664897e-10
3.3627632e-10
3.358975e-10
3.3551253e-10
3.3512142e-10
3.347242e-10
3.3432091e-10
3.3391157e-10
3.3349623e-10
3.3307491e-10
3.3264768e-10
3.3221456e-10
3.3177562e-10
3.3133089e-10
3.3088044e-10
3.3042432e-10
3.299626e-10
3.2949532e-10
3.2902255e-10
3.2854437e-10
3.2806086e-10
3.2757214e-10
3.2707841e-10
3.2657976e-10
3.2607651e-10
3.2556947e-10
3.2505758e-10
3.2454164e-10
3.2401501e-10
3.2346909e-10
3.22916e-10
3.2229155e-10
3.2147189e-10
3.2087024e-10
3.2018641e-10
3.2069269e-10
3.1822975e-10
3.2619951e-10
3.9532713e-10
9.152565e-10
5.0721853e-09
4.2480835e-08
2.2803097e-07
8.6590016e-07
2.4923509e-06
4.4399076e-06
6.7562797e-06
9.7221304e-06
1.3609894e-05
1.8095384e-05
2.2738016e-05
2.7346395e-05
3.1570751e-05
3.4560371e-05
3.7583351e-05
4.0747719e-05
4.4141842e-05
4.7207465e-05
5.311996e-05
3.4684342e-10
3.4669976e-10
3.4655362e-10
3.4640335e-10
3.4624849e-10
3.4608887e-10
3.4592441e-10
3.4575504e-10
3.4558068e-10
3.4540126e-10
3.4521674e-10
3.4502705e-10
3.4483214e-10
3.4463196e-10
3.4442644e-10
3.4421553e-10
3.4399913e-10
3.4377719e-10
3.4354964e-10
3.4331644e-10
3.4307753e-10
3.4283286e-10
3.425824e-10
3.4232609e-10
3.4206388e-10
3.4179575e-10
3.4152165e-10
3.4124154e-10
3.409554e-10
3.4066317e-10
3.4036485e-10
3.4006039e-10
3.3974979e-10
3.3943301e-10
3.3911004e-10
3.3878088e-10
3.384455e-10
3.381039e-10
3.3775609e-10
3.3740205e-10
3.3704181e-10
3.3667536e-10
3.3630272e-10
3.359239e-10
3.3553892e-10
3.3514782e-10
3.347506e-10
3.3434731e-10
3.3393797e-10
3.3352263e-10
3.3310132e-10
3.3267408e-10
3.3224097e-10
3.3180202e-10
3.313573e-10
3.3090685e-10
3.3045074e-10
3.2998903e-10
3.2952176e-10
3.2904902e-10
3.2857087e-10
3.2808737e-10
3.2759859e-10
3.2710461e-10
3.2660551e-10
3.2610139e-10
3.2559239e-10
3.2507877e-10
3.2456045e-10
3.2403841e-10
3.2351311e-10
3.2298254e-10
3.2244884e-10
3.2188852e-10
3.2133196e-10
3.2074397e-10
3.1989015e-10
3.1923434e-10
3.1851964e-10
3.1899248e-10
3.1661109e-10
3.2585603e-10
4.1742766e-10
1.1645082e-09
7.834725e-09
6.8823424e-08
3.5428541e-07
1.3789667e-06
3.2497302e-06
5.4574252e-06
8.2239796e-06
1.1882459e-05
1.6407475e-05
2.1351487e-05
2.6303491e-05
3.119882e-05
3.5142668e-05
3.8345067e-05
4.1259069e-05
4.6692986e-05
3.4686788e-10
3.4672425e-10
3.4657812e-10
3.4642786e-10
3.4627302e-10
3.4611342e-10
3.4594898e-10
3.4577962e-10
3.4560527e-10
3.4542588e-10
3.4524137e-10
3.4505169e-10
3.4485678e-10
3.446566e-10
3.4445107e-10
3.4424014e-10
3.4402373e-10
3.4380178e-10
3.4357423e-10
3.4334103e-10
3.4310212e-10
3.4285745e-10
3.4260699e-10
3.4235067e-10
3.4208847e-10
3.4182034e-10
3.4154624e-10
3.4126613e-10
3.4097999e-10
3.4068776e-10
3.4038944e-10
3.4008498e-10
3.3977438e-10
3.394576e-10
3.3913463e-10
3.3880546e-10
3.3847009e-10
3.3812849e-10
3.3778067e-10
3.3742664e-10
3.3706639e-10
3.3669994e-10
3.363273e-10
3.3594848e-10
3.355635e-10
3.351724e-10
3.3477518e-10
3.3437188e-10
3.3396255e-10
3.335472e-10
3.3312588e-10
3.3269864e-10
3.3226553e-10
3.3182658e-10
3.3138185e-10
3.309314e-10
3.3047529e-10
3.3001356e-10
3.295463e-10
3.2907355e-10
3.285954e-10
3.281119e-10
3.2762314e-10
3.2712918e-10
3.266301e-10
3.2612597e-10
3.2561688e-10
3.2510291e-10
3.2458413e-10
3.2406068e-10
3.2353283e-10
3.2300063e-10
3.2246448e-10
3.2192573e-10
3.2138202e-10
3.2083899e-10
3.2026729e-10
3.1970217e-10
3.1911478e-10
3.1823873e-10
3.175572e-10
3.168856e-10
3.171695e-10
3.1593795e-10
3.3054226e-10
4.9258448e-10
1.9613532e-09
1.8193791e-08
1.399869e-07
6.3791421e-07
2.2403887e-06
4.4500397e-06
7.0633335e-06
1.046091e-05
1.4953209e-05
2.0078627e-05
2.5376004e-05
3.0715226e-05
3.5387037e-05
4.0837193e-05
3.4689075e-10
3.4674712e-10
3.4660101e-10
3.4645077e-10
3.4629594e-10
3.4613636e-10
3.4597193e-10
3.4580259e-10
3.4562826e-10
3.4544888e-10
3.4526438e-10
3.4507471e-10
3.4487981e-10
3.4467962e-10
3.4447409e-10
3.4426315e-10
3.4404673e-10
3.4382478e-10
3.4359722e-10
3.4336401e-10
3.4312509e-10
3.4288043e-10
3.4262996e-10
3.4237365e-10
3.4211144e-10
3.4184331e-10
3.4156921e-10
3.412891e-10
3.4100294e-10
3.4071072e-10
3.4041239e-10
3.4010793e-10
3.3979732e-10
3.3948054e-10
3.3915757e-10
3.388284e-10
3.3849302e-10
3.3815142e-10
3.378036e-10
3.3744956e-10
3.3708931e-10
3.3672286e-10
3.3635021e-10
3.3597139e-10
3.3558641e-10
3.3519529e-10
3.3479807e-10
3.3439477e-10
3.3398543e-10
3.3357007e-10
3.3314875e-10
3.3272151e-10
3.3228838e-10
3.3184943e-10
3.3140469e-10
3.3095423e-10
3.3049811e-10
3.3003638e-10
3.295691e-10
3.2909635e-10
3.2861818e-10
3.2813468e-10
3.276459e-10
3.2715194e-10
3.2665285e-10
3.2614873e-10
3.2563965e-10
3.2512569e-10
3.2460693e-10
3.2408346e-10
3.2355536e-10
3.2302274e-10
3.2248564e-10
3.219444e-10
3.2139908e-10
3.2084982e-10
3.2029838e-10
3.1974259e-10
3.191889e-10
3.1860533e-10
3.180313e-10
3.174171e-10
3.1654054e-10
3.1587331e-10
3.1532679e-10
3.1547023e-10
3.1597508e-10
3.5349003e-10
7.4570936e-10
4.6527457e-09
5.099463e-08
3.2408363e-07
1.3680759e-06
3.4596577e-06
6.0342367e-06
9.304797e-06
1.371282e-05
1.9115264e-05
2.4195543e-05
3.2950708e-05
3.4691211e-10
3.467685e-10
3.4662241e-10
3.4647218e-10
3.4631736e-10
3.461578e-10
3.4599339e-10
3.4582406e-10
3.4564974e-10
3.4547037e-10
3.4528589e-10
3.4509623e-10
3.4490133e-10
3.4470114e-10
3.4449561e-10
3.4428466e-10
3.4406823e-10
3.4384627e-10
3.436187e-10
3.4338549e-10
3.4314657e-10
3.429019e-10
3.4265143e-10
3.4239511e-10
3.421329e-10
3.4186476e-10
3.4159066e-10
3.4131054e-10
3.4102438e-10
3.4073215e-10
3.4043382e-10
3.4012936e-10
3.3981874e-10
3.3950196e-10
3.3917898e-10
3.388498e-10
3.3851441e-10
3.3817281e-10
3.3782498e-10
3.3747094e-10
3.3711069e-10
3.3674422e-10
3.3637157e-10
3.3599274e-10
3.3560775e-10
3.3521663e-10
3.348194e-10
3.3441609e-10
3.3400674e-10
3.3359138e-10
3.3317005e-10
3.327428e-10
3.3230966e-10
3.318707e-10
3.3142595e-10
3.3097548e-10
3.3051935e-10
3.300576e-10
3.2959032e-10
3.2911755e-10
3.2863937e-10
3.2815585e-10
3.2766707e-10
3.2717308e-10
3.2667398e-10
3.2616985e-10
3.2566075e-10
3.2514678e-10
3.2462802e-10
3.2410455e-10
3.2357646e-10
3.2304384e-10
3.2250677e-10
3.2196534e-10
3.2141966e-10
3.2086974e-10
3.2031595e-10
3.1975835e-10
3.1919705e-10
3.1863389e-10
3.1806714e-10
3.1750186e-10
3.1690599e-10
3.16329e-10
3.1562915e-10
3.1482224e-10
3.1393709e-10
3.144959e-10
3.1120969e-10
3.2043191e-10
4.3757271e-10
1.7368443e-09
1.7707046e-08
1.5733976e-07
7.8340843e-07
2.7121493e-06
5.2678545e-06
8.6984715e-06
1.2212318e-05
2.1127189e-05
3.4693198e-10
3.4678839e-10
3.4664231e-10
3.4649209e-10
3.4633729e-10
3.4617774e-10
3.4601334e-10
3.4584403e-10
3.4566972e-10
3.4549037e-10
3.4530589e-10
3.4511624e-10