/*--------------------------------*- C++ -*----------------------------------*\
  =========                 |
  \\      /  F ield         | OpenFOAM: The Open Source CFD Toolbox
   \\    /   O peration     | Website:  https://openfoam.org
    \\  /    A nd           | Version:  12
     \\/     M anipulation  |
\*---------------------------------------------------------------------------*/
FoamFile
{
    format      ascii;
    class       volScalarField;
    location    "1900";
    object      omega;
}
// * * * * * * * * * * * * * * * * * * * * * * * * * * * * * * * * * * * * * //

dimensions      [0 0 -1 0 0 0 0];

internalField   nonuniform List<scalar> 
13056
(
414.06245
170.08939
96.548552
70.312006
58.810787
52.608089
48.730096
46.072286
44.142356
42.685734
41.555489
40.659631
39.937039
39.345317
38.854091
38.441061
38.089352
37.786493
37.520877
37.290696
37.065369
36.932449
36.511797
98.109778
15925793
15925793
15925793
15925793
15925793
15925793
15925793
15925793
15925793
15925793
15925793
15925793
15925793
15925793
15925793
15925793
15925793
15925793
15925793
15925793
15925793
15925793
15925793
15925793
15925793
15925793
15925793
15925793
15925793
15925793
15925793
15925793
15925793
15925793
15925793
15925793
15925793
15925793
15925793
15925793
15925793
15925793
15925793
15925793
15925793
15925793
15925793
15925793
15925793
15925793
15925793
15925793
15925793
15925793
15925793
15925793
15925793
15925793
15925793
15925793
15925793
15925793
15925793
15925793
15925793
15925793
15925793
15925793
15925793
15925793
15925793
15925793
15925793
15925793
15925793
15925793
15925793
15925793
15925793
15925793
15925793
15925793
15925793
15925793
15925793
15925793
15925793
15925793
15925793
15925793
15925793
15925793
15925793
15925793
15925793
15925793
15925793
15925793
15925793
15925793
15925793
15925793
15925793
15925793
15925793
15925793
15925793
15925793
15925793
15925793
15925793
15925793
414.06244
170.0894
96.548716
70.312142
58.8107
52.607651
48.729278
46.071118
44.140892
42.684021
41.553569
40.657539
39.9348
39.342953
38.851619
38.438496
38.086705
37.783773
37.518093
37.287853
37.06247
36.929527
36.508451
94.850369
2727967.3
2723730.4
2723622.6
2723622.6
2723615
2723603.4
2723592.3
2723582.8
2723574.8
2723568
2723561.9
2723556.6
2723551.8
2723547.4
2723543.3
2723539.6
2723536.1
2723532.9
2723530
2723527.2
2723524.6
2723522.1
2723519.8
2723517.6
2723515.6
2723513.6
2723511.7
2723509.9
2723508.2
2723506.5
2723505
2723503.4
2723502
2723500.6
2723499.2
2723497.9
2723496.6
2723495.3
2723494.1
2723492.9
2723491.8
2723490.7
2723489.6
2723488.5
2723487.5
2723486.4
2723485.4
2723484.4
2723483.5
2723482.5
2723481.6
2723480.7
2723479.8
2723478.9
2723478
2723477.1
2723476.3
2723475.4
2723474.6
2723473.8
2723473
2723472.2
2723471.4
2723470.6
2723469.8
2723469
2723468.2
2723467.4
2723466.7
2723465.9
2723465.2
2723464.4
2723463.6
2723462.9
2723462.1
2723461.4
2723460.6
2723459.9
2723459.1
2723458.3
2723457.6
2723456.8
2723456.1
2723455.3
2723454.5
2723453.7
2723452.9
2723452.1
2723451.3
2723450.5
2723449.8
2723449.1
2723448.4
2723447.7
2723447.1
2723446.5
2723445.9
2723445.4
2723444.9
2723444.4
2723443.9
2723443.4
2723443
2723442.5
2723442.1
2723441.7
2723441.3
2723440.9
2723440.6
2723440.2
2723439.9
2723439.3
414.06242
170.08945
96.549286
70.312563
58.810295
52.606013
48.726345
46.067025
44.135824
42.678149
41.547031
40.650443
39.927234
39.334987
38.843308
38.429886
38.077833
37.77467
37.508784
37.278355
37.052798
36.919758
36.497805
91.207847
912022.51
910424.29
910282.36
910281.4
910254.32
910219
910186.52
910159.04
910135.73
910115.6
910097.96
910082.33
910068.09
910055.06
910043.08
910032.05
910021.88
910012.44
910003.65
909995.44
909987.72
909980.44
909973.57
909967.06
909960.88
909955
909949.4
909944.05
909938.92
909934
909929.28
909924.73
909920.34
909916.11
909912.01
909908.05
909904.21
909900.48
909896.85
909893.31
909889.87
909886.5
909883.21
909879.99
909876.85
909873.78
909870.76
909867.81
909864.91
909862.06
909859.26
909856.5
909853.79
909851.12
909848.48
909845.88
909843.31
909840.78
909838.27
909835.79
909833.33
909830.9
909828.48
909826.09
909823.72
909821.36
909819.01
909816.68
909814.36
909812.06
909809.76
909807.47
909805.18
909802.9
909800.62
909798.34
909796.06
909793.78
909791.5
909789.2
909786.91
909784.6
909782.29
909779.95
909777.61
909775.25
909772.86
909770.46
909768.02
909765.62
909763.31
909761.12
909759.04
909757.05
909755.16
909753.36
909751.63
909749.98
909748.39
909746.87
909745.41
909744
909742.65
909741.34
909740.07
909738.85
909737.66
909736.5
909735.39
909734.24
909733.23
909731.58
414.06238
170.08955
96.550277
70.313283
58.809568
52.603141
48.721228
46.059903
44.127021
42.667961
41.535696
40.63815
39.914132
39.321196
38.828925
38.41499
38.062488
37.758926
37.492686
37.261934
37.036079
36.902862
36.479556
87.530833
424448.49
421869.35
421639.29
421632.1
421573.97
421500.69
421433.85
421377.37
421329.4
421287.93
421251.55
421219.28
421189.88
421162.95
421138.18
421115.38
421094.33
421074.8
421056.59
421039.56
421023.55
421008.46
420994.2
420980.69
420967.86
420955.65
420944.01
420932.88
420922.22
420911.99
420902.16
420892.69
420883.56
420874.75
420866.22
420857.95
420849.95
420842.17
420834.61
420827.24
420820.05
420813.03
420806.16
420799.45
420792.89
420786.47
420780.18
420774.01
420767.95
420762
420756.15
420750.39
420744.72
420739.13
420733.62
420728.18
420722.81
420717.5
420712.25
420707.06
420701.91
420696.82
420691.76
420686.75
420681.78
420676.83
420671.92
420667.04
420662.18
420657.34
420652.52
420647.71
420642.92
420638.14
420633.35
420628.57
420623.78
420619
420614.2
420609.39
420604.56
420599.72
420594.85
420589.95
420585.02
420580.05
420575.04
420569.98
420564.87
420559.8
420554.95
420550.34
420545.95
420541.77
420537.79
420534
420530.36
420526.88
420523.54
420520.34
420517.26
420514.29
420511.43
420508.67
420506.01
420503.42
420500.92
420498.48
420496.13
420493.7
420491.57
420488.1
414.06232
170.08969
96.551711
70.314324
58.808513
52.598978
48.713816
46.049589
44.114277
42.653213
41.519289
40.620356
39.895168
39.301235
38.808107
38.393429
38.040277
37.73614
37.469387
37.238166
37.011882
36.878406
36.453226
83.882983
238255.35
234342.36
233974.54
233949.6
233848.83
233725.07
233612.67
233517.64
233436.81
233366.88
233305.5
233250.99
233201.29
233155.76
233113.85
233075.23
233039.57
233006.45
232975.56
232946.66
232919.47
232893.83
232869.58
232846.6
232824.77
232803.97
232784.15
232765.19
232747.01
232729.57
232712.81
232696.64
232681.06
232666.01
232651.44
232637.32
232623.63
232610.34
232597.39
232584.79
232572.49
232560.46
232548.71
232537.21
232525.98
232514.98
232504.19
232493.61
232483.22
232473.02
232462.98
232453.09
232443.36
232433.76
232424.3
232414.96
232405.73
232396.6
232387.58
232378.65
232369.8
232361.04
232352.34
232343.71
232335.15
232326.64
232318.18
232309.77
232301.4
232293.07
232284.75
232276.46
232268.2
232259.95
232251.69
232243.43
232235.17
232226.91
232218.62
232210.31
232201.98
232193.61
232185.19
232176.72
232168.19
232159.6
232150.92
232142.17
232133.31
232124.54
232116.13
232108.16
232100.55
232093.31
232086.41
232079.82
232073.52
232067.48
232061.69
232056.13
232050.78
232045.63
232040.66
232035.87
232031.25
232026.76
232022.42
232018.17
232014.08
232009.87
232006.17
232000.13
414.06224
170.08988
96.553619
70.315715
58.807122
52.593456
48.703967
46.035872
44.097317
42.633578
41.49744
40.596656
39.869906
39.274642
38.78037
38.3647
38.010679
37.705773
37.438336
37.206488
36.97963
36.845811
36.41817
80.27221
151049.75
146083.71
145515.32
145451.99
145298.84
145116.29
144951.03
144811.11
144691.93
144588.7
144498
144417.37
144343.83
144276.37
144214.24
144156.92
144103.95
144054.71
144008.75
143965.71
143925.19
143886.96
143850.77
143816.45
143783.84
143752.75
143723.09
143694.72
143667.49
143641.36
143616.23
143591.98
143568.6
143546.01
143524.12
143502.9
143482.32
143462.33
143442.85
143423.89
143405.37
143387.25
143369.54
143352.22
143335.28
143318.69
143302.41
143286.44
143270.75
143255.34
143240.17
143225.23
143210.51
143195.99
143181.67
143167.53
143153.56
143139.74
143126.07
143112.53
143099.13
143085.83
143072.64
143059.55
143046.55
143033.63
143020.78
143008
142995.27
142982.6
142969.96
142957.35
142944.77
142932.21
142919.64
142907.06
142894.48
142881.88
142869.24
142856.57
142843.85
142831.08
142818.23
142805.29
142792.26
142779.13
142765.86
142752.47
142738.93
142725.5
142712.63
142700.42
142688.76
142677.66
142667.09
142656.99
142647.32
142638.05
142629.17
142620.64
142612.43
142604.52
142596.89
142589.53
142582.42
142575.53
142568.85
142562.32
142556.04
142549.56
142543.86
142534.58
414.06215
170.0901
96.556036
70.317495
58.805392
52.586492
48.691511
46.018496
44.075812
42.608664
41.469702
40.566557
39.837813
39.240851
38.745119
38.328182
37.973052
37.667164
37.398853
37.166205
36.938613
36.804361
36.37359
76.695083
104635.25
99030.663
98181.446
98047.288
97835.23
97592.358
97373.213
97187.32
97028.706
96891.123
96770.093
96662.352
96564.012
96473.717
96390.441
96313.522
96242.339
96176.109
96114.213
96056.191
96001.523
95949.879
95900.954
95854.521
95810.358
95768.212
95727.985
95689.472
95652.476
95616.95
95582.76
95549.754
95517.896
95487.108
95457.254
95428.288
95400.189
95372.87
95346.244
95320.299
95294.952
95270.154
95245.891
95222.158
95198.935
95176.174
95153.833
95131.9
95110.355
95089.164
95068.301
95047.749
95027.488
95007.504
94987.773
94968.282
94949.015
94929.954
94911.081
94892.394
94873.874
94855.499
94837.26
94819.154
94801.167
94783.284
94765.488
94747.773
94730.141
94712.569
94695.034
94677.53
94660.064
94642.615
94625.142
94607.648
94590.147
94572.617
94555.028
94537.372
94519.655
94501.849
94483.921
94465.868
94447.686
94429.339
94410.803
94392.081
94373.14
94354.349
94336.325
94319.217
94302.886
94287.328
94272.5
94258.333
94244.765
94231.757
94219.282
94207.3
94195.765
94184.642
94173.916
94163.566
94153.563
94143.865
94134.463
94125.265
94116.414
94107.296
94099.255
94086.179
414.06203
170.09035
96.559005
70.319707
58.80332
52.578001
48.676258
45.997171
44.049382
42.578016
41.435556
40.529487
39.798272
39.199204
38.701662
38.283153
37.926649
37.619543
37.350147
37.116506
36.888003
36.753223
36.31855
73.148894
77656.704
71889.113
70654.024
70403.171
70130.085
69834.137
69568.282
69342.258
69149.036
68981.196
68833.332
68701.491
68581.093
68470.395
68368.137
68273.531
68185.841
68104.132
68027.665
67955.887
67888.172
67824.122
67763.373
67705.651
67650.689
67598.182
67548.012
67499.932
67453.701
67409.265
67366.46
67325.102
67285.146
67246.499
67208.996
67172.578
67137.221
67102.818
67069.265
67036.545
67004.564
66973.261
66942.614
66912.613
66883.238
66854.428
66826.131
66798.333
66771.007
66744.114
66717.621
66691.507
66665.746
66640.32
66615.203
66590.375
66565.818
66541.509
66517.426
66493.564
66469.905
66446.414
66423.085
66399.912
66376.88
66353.965
66331.15
66308.425
66285.793
66263.226
66240.693
66218.187
66195.716
66173.256
66150.749
66128.204
66105.635
66083.016
66060.308
66037.499
66014.597
65991.567
65968.363
65944.984
65921.423
65897.633
65873.582
65849.272
65824.664
65800.233
65776.783
65754.514
65733.247
65712.977
65693.646
65675.168
65657.462
65640.478
65624.182
65608.524
65593.443
65578.895
65564.86
65551.311
65538.212
65525.508
65513.186
65501.128
65489.52
65477.562
65467.008
65449.842
414.06189
170.09062
96.562571
70.322404
58.800912
52.567896
48.658009
45.971587
44.017617
42.541135
41.394433
40.484811
39.750595
39.148968
38.649225
38.228807
37.87063
37.562042
37.291328
37.05648
36.826865
36.691461
36.251991
69.635466
60840.42
55387.334
53642.447
53218.035
52885.733
52552.187
52254.764
52001.381
51784.445
51595.807
51429.398
51280.787
51145.087
51020.148
50904.523
50797.348
50697.822
50604.927
50517.848
50435.976
50358.622
50285.345
50215.744
50149.516
50086.369
50025.964
49968.172
49912.719
49859.336
49807.962
49758.419
49710.497
49664.149
49619.272
49575.679
49533.304
49492.12
49452.011
49412.856
49374.635
49337.259
49300.656
49264.79
49229.649
49195.211
49161.405
49128.176
49095.502
49063.358
49031.697
49000.482
48969.688
48939.285
48909.256
48879.567
48850.197
48821.126
48792.324
48763.77
48735.456
48707.361
48679.445
48651.7
48624.12
48596.686
48569.373
48542.156
48515.029
48487.991
48461.01
48434.05
48407.102
48380.176
48353.241
48326.231
48299.154
48272.027
48244.819
48217.483
48190.003
48162.389
48134.599
48106.576
48078.319
48049.818
48021.015
47991.871
47962.39
47932.519
47902.837
47874.323
47847.223
47821.335
47796.64
47773.073
47750.53
47728.913
47708.165
47688.245
47669.094
47650.637
47632.823
47615.628
47599.019
47582.953
47567.365
47552.238
47537.428
47523.165
47508.465
47495.484
47474.361
414.06173
170.09088
96.566778
70.325645
58.798186
52.556099
48.636568
45.941424
43.980085
42.497496
41.345721
40.43185
39.694043
39.089352
38.586973
38.164267
37.804085
37.493722
37.221426
36.985131
36.754181
36.618055
36.172761
66.16213
49643.44
44925.278
42554.266
41897.352
41508.817
41156.633
40846.692
40582.447
40356.16
40159.417
39985.775
39830.55
39689.035
39558.626
39437.74
39325.48
39221.04
39123.392
39031.706
38945.358
38863.646
38786.119
38712.367
38642.082
38574.968
38510.675
38449.074
38389.886
38332.833
38277.852
38224.764
38173.35
38123.56
38075.292
38028.353
37982.67
37938.22
37894.883
37852.531
37811.14
37770.651
37730.981
37692.073
37653.91
37616.471
37579.684
37543.488
37507.861
37472.776
37438.187
37404.052
37370.344
37337.033
37304.099
37271.509
37239.239
37207.266
37175.561
37144.099
37112.874
37081.859
37051.015
37020.333
36989.804
36959.409
36929.12
36898.911
36868.773
36838.706
36808.676
36778.64
36748.591
36718.539
36688.447
36658.244
36627.938
36597.546
36567.034
36536.349
36505.472
36474.414
36443.127
36411.546
36379.668
36347.482
36314.921
36281.939
36248.539
36214.66
36180.958
36148.547
36117.715
36088.25
36060.118
36033.245
36007.517
35982.826
35959.107
35936.318
35914.39
35893.242
35872.817
35853.087
35834.017
35815.559
35797.639
35780.238
35763.191
35746.765
35729.824
35714.857
35690.482
414.06155
170.09111
96.571674
70.329495
58.795169
52.542551
48.611749
45.906369
43.936354
42.446559
41.288792
40.369899
39.627843
39.019526
38.514027
38.08861
37.726053
37.413586
37.139415
36.901405
36.668869
36.531923
36.079633
62.741334
41653.734
37990.116
34930.098
33992.476
33547.981
33192.337
32886.198
32625.713
32403.097
32209.989
32039.773
31887.669
31749.608
31622.422
31504.421
31394.702
31292.486
31196.799
31106.841
31022.008
30941.626
30865.262
30792.518
30723.102
30656.73
30593.064
30531.981
30473.22
30416.508
30361.785
30308.883
30257.589
30207.853
30159.581
30112.587
30066.796
30022.187
29978.65
29936.057
29894.381
29853.617
29813.674
29774.459
29735.952
29698.136
29660.943
29624.309
29588.211
29552.626
29517.51
29482.819
29448.528
29414.604
29381.032
29347.778
29314.816
29282.124
29249.674
29217.442
29185.42
29153.582
29121.887
29090.327
29058.894
29027.567
28996.316
28965.118
28933.962
28902.847
28871.738
28840.591
28809.399
28778.171
28746.869
28715.418
28683.827
28652.112
28620.238
28588.147
28555.82
28523.267
28490.437
28457.26
28423.732
28389.84
28355.512
28320.697
28285.396
28249.544
28213.833
28179.447
28146.701
28115.404
28085.491
28056.885
28029.47
28003.133
27977.809
27953.455
27930
27907.36
27885.475
27864.319
27843.854
27824.03
27804.768
27786.053
27767.704
27750.012
27731.746
27715.605
27689.286
414.06135
170.0913
96.5773
70.334024
58.791911
52.527215
48.583399
45.866133
43.886009
42.387798
41.223023
40.298249
39.551214
38.938647
38.429486
38.000889
37.635545
37.320606
37.044235
36.804211
36.569808
36.431952
35.971345
59.389554
35519.351
33133.144
29415.407
28167.835
27662.608
27310.013
27016.452
26768.124
26556.915
26374.624
26214.533
26071.818
25943.384
25825.323
25715.843
25614.034
25519.15
25430.297
25346.728
25267.875
25193.117
25122.046
25054.295
24989.591
24927.671
24868.227
24811.14
24756.177
24703.087
24651.809
24602.194
24554.047
24507.315
24461.919
24417.689
24374.548
24332.482
24291.394
24251.161
24211.753
24173.25
24135.547
24098.504
24062.093
24026.305
23991.077
23956.347
23922.093
23888.295
23854.914
23821.91
23789.252
23756.915
23724.887
23693.134
23661.63
23630.355
23599.283
23568.393
23537.676
23507.105
23476.642
23446.283
23416.018
23385.825
23355.677
23325.55
23295.437
23265.333
23235.204
23205.009
23174.742
23144.408
23113.971
23083.359
23052.578
23021.645
22990.521
22959.153
22927.521
22895.631
22863.431
22830.856
22797.897
22764.54
22730.712
22696.363
22661.489
22626.025
22590.653
22556.549
22524.042
22492.987
22463.273
22434.825
22407.531
22381.284
22356.022
22331.702
22308.259
22285.61
22263.697
22242.494
22221.967
22202.067
22182.716
22163.899
22145.435
22127.621
22109.205
22092.93
22066.355
414.06114
170.09138
96.583695
70.339308
58.788479
52.510095
48.551404
45.820474
43.828676
42.320722
41.147818
40.216215
39.463395
38.845884
38.332464
37.900164
37.531574
37.213757
36.93482
36.692449
36.455867
36.317027
35.846644
56.126758
30468.411
29482.819
25246.339
23699.177
23124.769
22773.072
22493.004
22258.489
22060.493
21890.902
21742.871
21611.499
21494.902
21388.17
21289.408
21197.686
21112.271
21032.349
20957.23
20886.377
20819.227
20755.402
20694.561
20636.452
20580.836
20527.434
20476.13
20426.725
20378.992
20332.866
20288.221
20244.881
20202.792
20161.889
20122.023
20083.116
20045.156
20008.065
19971.729
19936.111
19901.404
19867.484
19834.147
19801.356
19769.107
19737.349
19706.021
19675.101
19644.574
19614.408
19584.564
19555.013
19525.732
19496.714
19467.928
19439.347
19410.953
19382.726
19354.647
19326.704
19298.872
19271.121
19243.446
19215.836
19188.271
19160.724
19133.179
19105.625
19078.057
19050.444
19022.75
18994.968
18967.101
18939.115
18910.946
18882.6
18854.087
18825.372
18796.406
18767.17
18737.668
18707.851
18677.656
18647.076
18616.094
18584.642
18552.671
18520.175
18487.09
18454.056
18422.168
18391.754
18362.748
18334.968
18308.345
18282.777
18258.167
18234.459
18211.616
18189.576
18168.265
18147.63
18127.649
18108.289
18089.506
18071.228
18053.441
18035.974
18019.114
18001.654
17986.232
17961.006
414.06091
170.09132
96.590886
70.345425
58.784968
52.49124
48.515718
45.769216
43.764052
42.244906
41.062646
40.123173
39.363679
38.74046
38.222118
37.785539
37.413194
37.092046
36.810141
36.565052
36.325947
36.186075
35.704341
52.976624
26067.613
26497.489
21968.099
20166.96
19519.099
19164.301
18896.618
18675.82
18491.136
18334.424
18198.72
18079.035
17973.543
17877.537
17789.033
17707.055
17630.865
17559.707
17492.936
17430.041
17370.507
17313.981
17260.144
17208.759
17159.605
17112.43
17067.122
17023.506
16981.38
16940.677
16901.288
16863.057
16825.927
16789.846
16754.684
16720.363
16686.874
16654.152
16622.095
16590.661
16560.183
16530.506
16501.341
16472.646
16444.42
16416.621
16389.193
16362.112
16335.368
16308.937
16282.781
16256.872
16231.19
16205.732
16180.473
16155.382
16130.443
16105.645
16080.969
16056.402
16031.922
16007.501
15983.14
15958.827
15934.539
15910.257
15885.965
15861.656
15837.321
15812.933
15788.462
15763.903
15739.254
15714.485
15689.543
15664.43
15639.155
15613.684
15587.976
15562.013
15535.795
15509.279
15482.41
15455.18
15427.571
15399.521
15370.988
15341.961
15312.385
15282.83
15254.275
15227.041
15201.16
15176.359
15152.572
15129.711
15107.692
15086.465
15065.998
15046.238
15027.12
15008.597
14990.65
14973.251
14956.359
14939.911
14923.898
14908.159
14892.965
14877.2
14863.29
14840.492
414.06067
170.09106
96.59889
70.352451
58.7815
52.47076
48.476374
45.71228
43.691933
42.160025
40.967074
40.018593
39.25145
38.621685
38.097694
37.656198
37.279538
36.954562
36.669242
36.421025
36.179022
36.038122
35.54338
49.978212
22088.147
23836.959
19302.81
17310.907
16590.64
16228.755
15971.841
15764.235
15592.467
15448.213
15324.44
15216.092
15120.523
15034.131
14954.897
14881.79
14814.043
14750.941
14691.878
14636.361
14583.915
14534.208
14486.939
14441.882
14398.829
14357.553
14317.941
14279.843
14243.078
14207.575
14173.239
14139.934
14107.602
14076.195
14045.606
14015.759
13986.639
13958.2
13930.349
13903.038
13876.588
13850.87
13825.609
13800.755
13776.31
13752.242
13728.498
13705.052
13681.899
13659.021
13636.383
13613.955
13591.722
13569.684
13547.82
13526.098
13504.503
13483.03
13461.663
13440.387
13419.181
13398.024
13376.917
13355.85
13334.799
13313.747
13292.685
13271.604
13250.495
13229.335
13208.098
13186.781
13165.38
13143.868
13122.201
13100.382
13078.415
13056.27
13033.911
13011.324
12988.508
12965.422
12942.021
12918.297
12894.231
12869.77
12844.877
12819.542
12793.713
12767.89
12742.928
12719.14
12696.681
12675.153
12654.495
12634.633
12615.493
12597.035
12579.231
12562.034
12545.388
12529.255
12513.618
12498.451
12483.721
12469.372
12455.398
12441.654
12428.387
12414.592
12402.443
12382.483
414.06042
170.09052
96.607704
70.360461
58.778226
52.448836
48.433512
45.649715
43.612252
42.065901
40.860814
39.90209
39.126239
38.489011
37.958575
37.511467
37.129878
36.800525
36.511301
36.259504
36.014199
35.872139
35.363147
47.171436
18423.873
21285.557
17078.989
14971.6
14182.439
13807.97
13558.278
13361.695
13201.05
13067.572
12954.16
12855.702
12768.977
12691.144
12620.207
12555.078
12494.952
12439.133
12387.05
12338.229
12292.227
12248.736
12207.465
12168.194
12130.732
12094.869
12060.494
12027.475
11995.652
11964.949
11935.286
11906.544
11878.66
11851.596
11825.261
11799.58
11774.538
11750.099
11726.183
11702.738
11679.955
11657.771
11636.001
11614.588
11593.534
11572.817
11552.387
11532.217
11512.304
11492.635
11473.179
11453.907
11434.804
11415.875
11397.1
11378.449
11359.909
11341.476
11323.138
11304.881
11286.683
11268.529
11250.421
11232.349
11214.29
11196.23
11178.163
11160.081
11141.975
11123.823
11105.606
11087.322
11068.965
11050.511
11031.926
11013.213
10994.371
10975.374
10956.192
10936.815
10917.238
10897.426
10877.343
10856.979
10836.32
10815.317
10793.94
10772.178
10749.988
10727.799
10706.344
10685.9
10666.629
10648.157
10630.428
10613.377
10596.944
10581.093
10565.799
10551.024
10536.719
10522.853
10509.409
10496.367
10483.698
10471.353
10459.328
10447.496
10436.078
10424.177
10413.721
10396.498
414.06017
170.08963
96.617305
70.36952
58.775332
52.425732
48.387398
45.581727
43.525122
41.962538
40.743771
39.773476
38.987771
38.342089
37.804345
37.350866
36.963679
36.629352
36.33569
36.079815
35.830785
35.686965
35.163739
44.593781
15036.015
18734.846
15179.594
13043.552
12192.382
11799.774
11552.919
11364.491
11212.673
11087.875
10982.883
10892.514
10813.165
10742.48
10678.522
10620.142
10566.479
10516.847
10470.701
10427.582
10387.08
10348.903
10312.766
10278.454
10245.785
10214.568
10184.691
10156.037
10128.465
10101.897
10076.26
10051.452
10027.408
10004.094
9981.4348
9959.3597
9937.8474
9916.8731
9896.3684
9876.2801
9856.711
9837.6424
9818.9484
9800.5717
9782.5119
9764.7544
9747.255
9729.9846
9712.9411
9696.117
9679.485
9663.0156
9646.6957
9630.5312
9614.5073
9598.5942
9582.7787
9567.0602
9551.4303
9535.8729
9520.3696
9504.9072
9489.4894
9474.1069
9458.7381
9443.3712
9428.0022
9412.6252
9397.2294
9381.7967
9366.3126
9350.7755
9335.1787
9319.5002
9303.7192
9287.8345
9271.842
9255.7193
9239.4428
9223.0029
9206.3945
9189.589
9172.5546
9155.2852
9137.7649
9119.955
9101.8291
9083.3771
9064.5628
9045.7504
9027.561
9010.2119
8993.7904
8978.0518
8962.9456
8948.4166
8934.4136
8920.9066
8907.8734
8895.2807
8883.0891
8871.2702
8859.8114
8848.6933
8837.8916
8827.3657
8817.1127
8807.0194
8797.2843
8787.114
8778.2023
8763.4794
414.05994
170.0883
96.627644
70.379678
58.77303
52.401801
48.338449
45.508713
43.430876
41.850186
40.616103
39.632821
38.836036
38.180836
37.634853
37.174187
36.780676
36.440728
36.142048
35.881552
35.628366
35.481948
34.945569
42.276381
11926.669
16174.745
13517.611
11448.193
10546.744
10131.735
9883.2597
9699.9833
9554.6954
9436.5366
9338.0804
9254.0571
9180.6016
9115.6659
9057.3828
9004.526
8956.1718
8911.6243
8870.3622
8831.9381
8795.9766
8762.1956
8730.3066
8700.0967
8671.3953
8644.0231
8617.8711
8592.8309
8568.778
8545.634
8523.3315
8501.7816
8480.9216
8460.7152
8441.103
8422.018
8403.4347
8385.3345
8367.6606
8350.36
8333.4807
8317.0269
8300.9147
8285.088
8269.5434
8254.2717
8239.2347
8224.403
8209.7734
8195.3422
8181.086
8166.9768
8153.0017
8139.1667
8125.461
8111.857
8098.3411
8084.914
8071.57
8058.294
8045.0687
8031.8831
8018.7414
8005.6356
7992.5458
7979.4615
7966.3805
7953.2978
7940.2031
7927.0807
7913.9193
7900.7181
7887.4701
7874.1559
7860.7677
7847.2989
7833.7427
7820.0792
7806.2896
7792.3663
7778.3036
7764.0774
7749.6618
7735.0515
7720.2321
7705.1713
7689.8474
7674.2507
7658.3514
7642.458
7627.0936
7612.4314
7598.51
7585.1721
7572.3716
7560.0617
7548.199
7536.7581
7525.7192
7515.054
7504.7294
7494.7215
7485.0191
7475.6054
7466.4598
7457.5477
7448.8678
7440.3206
7432.0817
7423.4573
7415.9231
7403.4275
414.05973
170.08643
96.63864
70.390961
58.771557
52.377493
48.287246
45.431298
43.330113
41.729384
40.47828
39.480522
38.671361
38.005511
37.450298
36.981568
36.58096
36.234694
35.930375
35.664665
35.406901
35.256711
34.709928
40.24056
9127.3116
13657.332
12025.675
10120.337
9186.8476
8747.6088
8493.4611
8312.4598
8171.6066
8058.2906
7964.7318
7885.5417
7816.6973
7756.3269
7702.6319
7654.2693
7610.2454
7569.8485
7532.5729
7497.9815
7465.7429
7435.5716
7407.167
7380.3185
7354.8648
7330.6377
7307.5313
7285.4433
7264.2625
7243.9123
7224.3286
7205.4335
7187.1666
7169.4909
7152.3571
7135.7047
7119.5038
7103.7395
7088.3652
7073.3304
7058.6487
7044.3341
7030.332
7016.5897
7003.1005
6989.8588
6976.8325
6963.9928
6951.3348
6938.8567
6926.5397
6914.3576
6902.2972
6890.3638
6878.5499
6866.8309
6855.193
6843.6369
6832.1588
6820.7455
6809.3809
6798.0553
6786.7724
6775.5263
6764.2988
6753.0803
6741.8692
6730.6619
6719.4488
6708.2162
6696.9548
6685.6642
6674.338
6662.959
6651.5355
6640.0516
6628.4975
6616.8562
6605.1122
6593.2592
6581.2919
6569.1897
6556.9314
6544.5124
6531.9199
6519.1269
6506.1153
6492.8764
6479.3855
6465.9049
6452.877
6440.4418
6428.6095
6417.2778
6406.4054
6395.952
6385.8808
6376.17
6366.8019
6357.7524
6348.9936
6340.5051
6332.277
6324.2946
6316.5404
6308.9851
6301.6281
6294.3827
6287.4029
6280.0861
6273.7139
6263.0951
414.05955
170.08393
96.650178
70.403364
58.771162
52.353351
48.234553
45.350357
43.223742
41.601022
40.331146
39.31737
38.494482
37.816795
37.251307
36.773591
36.365062
36.011741
35.70112
35.429556
35.16682
35.011236
34.459318
38.495022
6596.1125
11287.817
10648.261
9001.8211
8063.2009
7601.0934
7337.9256
7156.5487
7018.2644
6908.2621
6818.2335
6742.6311
6677.3981
6620.7005
6570.7928
6526.1531
6485.7212
6448.7668
6414.7932
6383.3723
6354.2269
6327.0542
6301.537
6277.4681
6254.6948
6233.0585
6212.4573
6192.7935
6173.9664
6155.9029
6138.5412
6121.8123
6105.6592
6090.0443
6074.9252
6060.2484
6045.9815
6032.1104
6018.5974
6005.3965
5992.5
5979.9233
5967.6319
5955.5792
5943.7548
5932.1549
5920.7538
5909.524
5898.4586
5887.5566
5876.803
5866.1747
5855.6579
5845.2562
5834.9647
5824.7627
5814.6362
5804.585
5794.6065
5784.6899
5774.8206
5764.9894
5755.199
5745.4453
5735.7127
5725.9918
5716.281
5706.5776
5696.8735
5687.1567
5677.4187
5667.6591
5657.8728
5648.0449
5638.2015
5628.3145
5618.3713
5608.3572
5598.2591
5588.0717
5577.7902
5567.3972
5556.8748
5546.2188
5535.4183
5524.4505
5513.3
5501.9591
5490.4072
5478.8694
5467.7232
5457.0837
5446.9447
5437.2385
5427.9287
5418.9803
5410.3617
5402.0536
5394.0406
5386.3019
5378.8136
5371.5581
5364.5267
5357.7063
5351.0822
5344.6291
5338.347
5332.1604
5326.2039
5319.9561
5314.5311
5305.4385
414.05942
170.0807
96.662103
70.416838
58.772095
52.33
48.181312
45.267042
43.113013
41.466387
40.175986
39.144626
38.306624
37.615877
37.039031
36.551367
36.134059
35.772906
35.45529
35.177187
34.909134
34.745956
34.197903
37.034037
4506.4355
9138.8682
9354.7551
8040.1324
7132.9964
6652.9446
6378.4022
6194.2837
6056.8923
5948.8935
5861.2595
5788.2375
5725.9057
5672.2726
5625.6069
5584.1472
5546.7831
5512.7673
5481.6048
5452.8761
5426.3484
5401.7011
5378.608
5356.8679
5336.3357
5316.8613
5298.3471
5280.6993
5263.8249
5247.6557
5232.1321
5217.1913
5202.7811
5188.8633
5175.3999
5162.3446
5149.664
5137.3431
5125.3515
5113.6487
5102.215
5091.0617
5080.168
5069.4945
5059.0282
5048.7654
5038.6861
5028.7655
5018.9944
5009.3713
4999.885
4990.5158
4981.2494
4972.0871
4963.026
4954.0496
4945.144
4936.3073
4927.5378
4918.8273
4910.1628
4901.535
4892.9453
4884.3914
4875.8604
4867.3429
4858.8369
4850.3402
4841.8466
4833.3454
4824.8286
4816.2953
4807.7419
4799.1559
4790.5767
4781.9658
4773.3096
4764.5954
4755.8115
4746.9533
4738.0167
4728.987
4719.8486
4710.5976
4701.225
4691.7113
4682.0428
4672.2129
4662.2044
4652.2124
4642.5631
4633.3532
4624.5664
4616.1574
4608.0943
4600.3467
4592.8869
4585.6977
4578.7654
4572.0721
4565.5971
4559.3249
4553.2475
4547.3538
4541.631
4536.0573
4530.6325
4525.2915
4520.1511
4514.7618
4510.0952
4502.2198
414.05934
170.07668
96.674221
70.431278
58.774582
52.308123
48.128636
45.182774
42.999544
41.327201
40.014571
38.964077
38.109575
37.404532
36.815227
36.316631
35.88966
35.519878
35.194552
34.909185
34.635543
34.461891
33.932114
35.835913
2911.7125
7319.5821
8150.9708
7199.7621
6361.3429
5869.9712
5582.6876
5393.7405
5255.6835
5148.5222
5062.316
4991.0542
4931.1428
4880.1595
4836.289
4797.5589
4762.8343
4731.3513
4702.6086
4676.1942
4651.8372
4629.251
4608.1411
4588.3118
4569.6226
4551.9292
4535.1379
4519.1563
4503.8976
4489.2979
4475.2984
4461.8414
4448.8786
4436.3712
4424.2841
4412.5775
4401.2171
4390.1868
4379.4618
4369.0066
4358.794
4348.8304
4339.1046
4329.5839
4320.2528
4311.1077
4302.1332
4293.3069
4284.6179
4276.0639
4267.6368
4259.3198
4251.0986
4242.9722
4234.9392
4226.9867
4219.1012
4211.2792
4203.5194
4195.8159
4188.1574
4180.5343
4172.9468
4165.394
4157.8655
4150.3519
4142.8506
4135.36
4127.8754
4120.3873
4112.8878
4105.3758
4097.8492
4090.297
4082.7444
4075.1648
4067.5482
4059.8834
4052.16
4044.3733
4036.5204
4028.5889
4020.5645
4012.4436
4004.219
3995.8735
3987.3951
3978.778
3970.0077
3961.2548
3952.8048
3944.7406
3937.0398
3929.6714
3922.6081
3915.8232
3909.2919
3902.9988