/*--------------------------------*- C++ -*----------------------------------*\
  =========                 |
  \\      /  F ield         | OpenFOAM: The Open Source CFD Toolbox
   \\    /   O peration     | Website:  https://openfoam.org
    \\  /    A nd           | Version:  12
     \\/     M anipulation  |
\*---------------------------------------------------------------------------*/
FoamFile
{
    format      ascii;
    class       volScalarField;
    location    "1900";
    object      p;
}
// * * * * * * * * * * * * * * * * * * * * * * * * * * * * * * * * * * * * * //

dimensions      [0 2 -2 0 0 0 0];

internalField   nonuniform List<scalar> 
13056
(
0.0040416776
0.0040613657
0.0041048734
0.0041600127
0.0042248237
0.0042993627
0.0043830618
0.0044751962
0.0045754093
0.0046837491
0.0048005736
0.0049265407
0.0050626893
0.0052105867
0.0053725391
0.0055519882
0.0057540274
0.005986956
0.0062632002
0.0066092402
0.0070589273
0.007759405
0.0087348788
0.012109815
0.009053208
0.0041438683
0.0041761949
0.004630171
0.0046735015
0.0044764274
0.0042988694
0.0042050777
0.0041335679
0.0040591392
0.0039871978
0.0039216303
0.0038601804
0.0038024833
0.0037477408
0.0036967951
0.0036488734
0.003603447
0.0035603372
0.0035187713
0.0034793279
0.003440768
0.0034042201
0.0033690492
0.0033338413
0.0033009543
0.0032689518
0.003236478
0.0032060895
0.0031764262
0.0031461433
0.0031171837
0.0030892831
0.0030610398
0.0030327071
0.0030060548
0.0029797602
0.0029524873
0.0029255554
0.0029001266
0.0028747619
0.0028482949
0.0028222075
0.0027973687
0.0027726813
0.0027468941
0.0027211856
0.0026962777
0.0026717372
0.0026463875
0.0026205534
0.0025949491
0.002570219
0.0025451754
0.0025188232
0.0024925796
0.0024668202
0.0024411239
0.0024144666
0.0023871921
0.0023598535
0.0023331237
0.0023059237
0.0022772053
0.0022483174
0.0022195764
0.002190645
0.0021605576
0.0021295361
0.0020982171
0.0020670345
0.0020348466
0.0020009805
0.0019665225
0.0019320422
0.0018965113
0.0018590112
0.0018204908
0.001781617
0.0017413362
0.0016987417
0.0016546398
0.0016098523
0.0015629567
0.0015129934
0.001461486
0.0014079769
0.001351148
0.0012913603
0.0012304173
0.0011688014
0.0011073387
0.0010476531
0.0009889194
0.00093018431
0.00087216746
0.00081560272
0.00075973248
0.00070385913
0.00064868514
0.00059466667
0.00054199006
0.00048994759
0.00043840617
0.0003885023
0.00034045161
0.00029618816
0.00025314689
0.00022353093
0.00018195881
0.00030359689
-0.00023097801
0.0040416776
0.0040613657
0.0041048734
0.0041600127
0.0042248237
0.0042993627
0.0043830618
0.0044751962
0.0045754093
0.0046837491
0.0048005736
0.0049265407
0.0050626893
0.0052105867
0.0053725391
0.0055519882
0.0057540274
0.005986956
0.0062632001
0.0066092402
0.0070589272
0.0077594048
0.0087348788
0.012108768
0.0090539737
0.0041444714
0.0041762086
0.0046301812
0.0046735271
0.0044764551
0.0042988941
0.0042050989
0.0041335862
0.0040591553
0.003987212
0.0039216431
0.0038601922
0.0038024942
0.0037477508
0.0036968042
0.0036488819
0.0036034549
0.0035603445
0.0035187782
0.0034793343
0.003440774
0.0034042257
0.0033690545
0.0033338463
0.003300959
0.0032689563
0.0032364823
0.0032060935
0.0031764301
0.003146147
0.0031171872
0.0030892864
0.003061043
0.0030327102
0.0030060577
0.002979763
0.00295249
0.002925558
0.002900129
0.0028747643
0.0028482972
0.0028222097
0.0027973708
0.0027726833
0.0027468961
0.0027211875
0.0026962795
0.0026717389
0.0026463892
0.0026205551
0.0025949506
0.0025702205
0.0025451768
0.0025188246
0.0024925809
0.0024668215
0.0024411252
0.0024144678
0.0023871933
0.0023598546
0.0023331248
0.0023059248
0.0022772063
0.0022483183
0.0022195773
0.0021906459
0.0021605585
0.0021295369
0.002098218
0.0020670352
0.0020348473
0.0020009812
0.0019665232
0.0019320429
0.0018965119
0.0018590118
0.0018204913
0.0017816175
0.0017413367
0.0016987422
0.0016546402
0.0016098527
0.0015629572
0.0015129938
0.0014614864
0.0014079773
0.0013511483
0.0012913607
0.0012304176
0.0011688017
0.001107339
0.0010476534
0.00098891968
0.00093018458
0.00087216772
0.00081560297
0.00075973272
0.00070385936
0.00064868536
0.00059466688
0.00054199027
0.00048994779
0.00043840636
0.00038850248
0.0003404518
0.00029618834
0.00025314706
0.0002235311
0.00018195898
0.0003035971
-0.00023097787
0.0040416776
0.0040613657
0.0041048734
0.0041600127
0.0042248237
0.0042993627
0.0043830618
0.0044751962
0.0045754093
0.0046837491
0.0048005736
0.0049265407
0.0050626893
0.0052105867
0.0053725391
0.0055519882
0.0057540274
0.0059869559
0.0062632001
0.0066092401
0.0070589271
0.0077594043
0.0087348788
0.012107682
0.009054809
0.0041451561
0.0041762251
0.0046301936
0.0046735579
0.0044764883
0.0042989237
0.0042051242
0.0041336081
0.0040591745
0.003987229
0.0039216585
0.0038602063
0.0038025071
0.0037477627
0.0036968152
0.003648892
0.0036034643
0.0035603532
0.0035187863
0.003479342
0.0034407812
0.0034042325
0.0033690609
0.0033338523
0.0033009647
0.0032689617
0.0032364874
0.0032060984
0.0031764347
0.0031461514
0.0031171914
0.0030892904
0.0030610468
0.0030327138
0.0030060612
0.0029797663
0.0029524932
0.002925561
0.002900132
0.0028747671
0.0028482999
0.0028222123
0.0027973733
0.0027726857
0.0027468984
0.0027211898
0.0026962817
0.002671741
0.0026463912
0.002620557
0.0025949525
0.0025702223
0.0025451786
0.0025188263
0.0024925825
0.002466823
0.0024411267
0.0024144692
0.0023871947
0.0023598559
0.0023331261
0.002305926
0.0022772075
0.0022483195
0.0022195784
0.002190647
0.0021605595
0.0021295379
0.0020982189
0.0020670362
0.0020348482
0.002000982
0.001966524
0.0019320437
0.0018965127
0.0018590125
0.001820492
0.0017816182
0.0017413374
0.0016987428
0.0016546408
0.0016098533
0.0015629577
0.0015129943
0.0014614869
0.0014079778
0.0013511488
0.0012913611
0.001230418
0.0011688021
0.0011073394
0.0010476537
0.00098892002
0.0009301849
0.00087216803
0.00081560327
0.000759733
0.00070385964
0.00064868562
0.00059466714
0.00054199052
0.00048994803
0.00043840659
0.00038850271
0.00034045201
0.00029618855
0.00025314727
0.00022353131
0.00018195919
0.00030359734
-0.00023097771
0.0040416776
0.0040613657
0.0041048734
0.0041600127
0.0042248237
0.0042993627
0.0043830618
0.0044751962
0.0045754093
0.0046837491
0.0048005736
0.0049265407
0.0050626893
0.0052105867
0.0053725391
0.0055519882
0.0057540274
0.0059869559
0.0062632001
0.00660924
0.0070589269
0.0077594036
0.0087348788
0.012106512
0.0090556763
0.0041457542
0.0041762412
0.0046302058
0.004673588
0.0044765208
0.0042989526
0.004205149
0.0041336295
0.0040591933
0.0039872457
0.0039216736
0.0038602201
0.0038025198
0.0037477744
0.003696826
0.003648902
0.0036034735
0.0035603618
0.0035187943
0.0034793495
0.0034407883
0.0034042391
0.0033690671
0.0033338582
0.0033009703
0.0032689669
0.0032364924
0.0032061031
0.0031764392
0.0031461557
0.0031171955
0.0030892943
0.0030610505
0.0030327174
0.0030060646
0.0029797696
0.0029524963
0.0029255641
0.0029001349
0.0028747699
0.0028483026
0.0028222149
0.0027973758
0.0027726881
0.0027469007
0.002721192
0.0026962838
0.0026717431
0.0026463931
0.0026205589
0.0025949543
0.0025702241
0.0025451802
0.0025188279
0.0024925841
0.0024668245
0.0024411281
0.0024144706
0.002387196
0.0023598573
0.0023331274
0.0023059272
0.0022772087
0.0022483206
0.0022195795
0.002190648
0.0021605606
0.0021295389
0.0020982199
0.0020670371
0.0020348491
0.0020009829
0.0019665248
0.0019320445
0.0018965134
0.0018590133
0.0018204927
0.0017816189
0.001741338
0.0016987434
0.0016546414
0.0016098539
0.0015629583
0.0015129948
0.0014614874
0.0014079782
0.0013511492
0.0012913615
0.0012304184
0.0011688025
0.0011073397
0.001047654
0.00098892035
0.00093018522
0.00087216833
0.00081560356
0.00075973328
0.00070385991
0.00064868588
0.00059466739
0.00054199076
0.00048994827
0.00043840682
0.00038850293
0.00034045223
0.00029618876
0.00025314747
0.00022353151
0.00018195939
0.00030359758
-0.00023097756
0.0040416776
0.0040613657
0.0041048734
0.0041600127
0.0042248237
0.0042993627
0.0043830618
0.0044751962
0.0045754093
0.0046837491
0.0048005736
0.0049265407
0.0050626893
0.0052105867
0.0053725391
0.0055519881
0.0057540273
0.0059869559
0.0062632
0.0066092399
0.0070589267
0.0077594025
0.0087348789
0.01210513
0.0090565691
0.0041463123
0.0041762581
0.0046302187
0.004673619
0.0044765543
0.0042989824
0.0042051744
0.0041336516
0.0040592126
0.0039872629
0.003921689
0.0038602343
0.0038025328
0.0037477864
0.003696837
0.0036489122
0.003603483
0.0035603706
0.0035188026
0.0034793572
0.0034407955
0.0034042459
0.0033690735
0.0033338643
0.003300976
0.0032689723
0.0032364975
0.003206108
0.0031764438
0.0031461601
0.0031171997
0.0030892984
0.0030610544
0.0030327211
0.0030060681
0.0029797729
0.0029524995
0.0029255671
0.0029001378
0.0028747727
0.0028483053
0.0028222175
0.0027973783
0.0027726905
0.002746903
0.0027211942
0.0026962859
0.0026717452
0.0026463952
0.0026205608
0.0025949562
0.0025702259
0.002545182
0.0025188296
0.0024925857
0.0024668261
0.0024411296
0.0024144721
0.0023871974
0.0023598586
0.0023331287
0.0023059285
0.0022772099
0.0022483218
0.0022195806
0.0021906491
0.0021605616
0.0021295399
0.0020982208
0.002067038
0.00203485
0.0020009837
0.0019665257
0.0019320453
0.0018965142
0.001859014
0.0018204934
0.0017816195
0.0017413387
0.001698744
0.001654642
0.0016098544
0.0015629588
0.0015129953
0.0014614879
0.0014079787
0.0013511497
0.0012913619
0.0012304188
0.0011688029
0.0011073401
0.0010476544
0.00098892068
0.00093018554
0.00087216864
0.00081560386
0.00075973357
0.00070386018
0.00064868615
0.00059466764
0.00054199101
0.00048994851
0.00043840705
0.00038850316
0.00034045245
0.00029618897
0.00025314768
0.00022353172
0.00018195959
0.00030359783
-0.00023097741
0.0040416776
0.0040613657
0.0041048734
0.0041600127
0.0042248237
0.0042993627
0.0043830618
0.0044751962
0.0045754092
0.0046837491
0.0048005736
0.0049265407
0.0050626893
0.0052105867
0.0053725391
0.0055519881
0.0057540273
0.0059869558
0.0062631999
0.0066092397
0.0070589265
0.0077594009
0.0087348792
0.012103484
0.0090572978
0.0041468431
0.0041762778
0.0046302333
0.0046736526
0.0044765905
0.0042990144
0.0042052019
0.0041336753
0.0040592334
0.0039872813
0.0039217057
0.0038602495
0.0038025468
0.0037477992
0.0036968489
0.0036489231
0.0036034931
0.0035603801
0.0035188114
0.0034793654
0.0034408032
0.0034042532
0.0033690804
0.0033338708
0.0033009821
0.0032689781
0.003236503
0.0032061132
0.0031764488
0.0031461648
0.0031172042
0.0030893026
0.0030610585
0.003032725
0.0030060719
0.0029797765
0.002952503
0.0029255704
0.002900141
0.0028747758
0.0028483083
0.0028222203
0.002797381
0.0027726931
0.0027469055
0.0027211966
0.0026962883
0.0026717474
0.0026463973
0.0026205629
0.0025949582
0.0025702278
0.0025451838
0.0025188314
0.0024925874
0.0024668278
0.0024411312
0.0024144736
0.0023871989
0.00235986
0.00233313
0.0023059298
0.0022772112
0.002248323
0.0022195818
0.0021906502
0.0021605627
0.002129541
0.0020982218
0.002067039
0.0020348509
0.0020009847
0.0019665265
0.0019320461
0.001896515
0.0018590148
0.0018204942
0.0017816202
0.0017413393
0.0016987447
0.0016546426
0.001609855
0.0015629594
0.0015129959
0.0014614884
0.0014079792
0.0013511501
0.0012913624
0.0012304192
0.0011688033
0.0011073405
0.0010476548
0.00098892104
0.00093018588
0.00087216897
0.00081560417
0.00075973387
0.00070386048
0.00064868643
0.00059466792
0.00054199127
0.00048994876
0.0004384073
0.0003885034
0.00034045268
0.0002961892
0.0002531479
0.00022353194
0.0001819598
0.00030359809
-0.00023097725
0.0040416776
0.0040613657
0.0041048734
0.0041600127
0.0042248237
0.0042993627
0.0043830618
0.0044751962
0.0045754092
0.0046837491
0.0048005736
0.0049265407
0.0050626893
0.0052105867
0.0053725391
0.0055519881
0.0057540273
0.0059869557
0.0062631998
0.0066092395
0.0070589262
0.0077593989
0.0087348797
0.01210154
0.0090578242
0.0041473762
0.0041763052
0.0046302518
0.0046736906
0.0044766312
0.0042990505
0.0042052327
0.0041337019
0.0040592566
0.0039873019
0.0039217242
0.0038602664
0.0038025623
0.0037478135
0.003696862
0.0036489352
0.0036035044
0.0035603905
0.0035188211
0.0034793745
0.0034408118
0.0034042613
0.0033690879
0.0033338779
0.0033009889
0.0032689845
0.0032365091
0.003206119
0.0031764543
0.00314617
0.0031172091
0.0030893074
0.003061063
0.0030327293
0.003006076
0.0029797805
0.0029525068
0.0029255741
0.0029001445
0.0028747791
0.0028483115
0.0028222234
0.002797384
0.002772696
0.0027469083
0.0027211993
0.0026962908
0.0026717498
0.0026463997
0.0026205652
0.0025949604
0.0025702299
0.0025451859
0.0025188334
0.0024925893
0.0024668296
0.002441133
0.0024144753
0.0023872005
0.0023598616
0.0023331316
0.0023059313
0.0022772126
0.0022483244
0.0022195832
0.0021906515
0.0021605639
0.0021295421
0.002098223
0.0020670401
0.002034852
0.0020009857
0.0019665275
0.001932047
0.0018965159
0.0018590156
0.001820495
0.001781621
0.0017413401
0.0016987454
0.0016546433
0.0016098557
0.00156296
0.0015129965
0.001461489
0.0014079797
0.0013511507
0.0012913629
0.0012304197
0.0011688037
0.0011073409
0.0010476552
0.00098892143
0.00093018626
0.00087216933
0.00081560452
0.0007597342
0.0007038608
0.00064868674
0.00059466821
0.00054199156
0.00048994904
0.00043840757
0.00038850366
0.00034045294
0.00029618945
0.00025314814
0.00022353218
0.00018196003
0.00030359837
-0.00023097707
0.0040416776
0.0040613657
0.0041048734
0.0041600127
0.0042248237
0.0042993627
0.0043830618
0.0044751962
0.0045754092
0.0046837491
0.0048005736
0.0049265407
0.0050626893
0.0052105866
0.005372539
0.005551988
0.0057540272
0.0059869556
0.0062631996
0.0066092392
0.0070589258
0.0077593963
0.0087348804
0.012099255
0.0090581597
0.0041480313
0.004176353
0.0046302782
0.0046737365
0.0044766798
0.0042990932
0.004205269
0.0041337331
0.0040592839
0.0039873259
0.0039217458
0.0038602862
0.0038025804
0.0037478301
0.0036968772
0.0036489492
0.0036035173
0.0035604026
0.0035188323
0.003479385
0.0034408216
0.0034042705
0.0033690966
0.0033338861
0.0033009966
0.0032689918
0.003236516
0.0032061255
0.0031764605
0.0031461759
0.0031172148
0.0030893127
0.0030610681
0.0030327342
0.0030060807
0.0029797849
0.002952511
0.0029255782
0.0029001484
0.0028747829
0.0028483151
0.0028222269
0.0027973874
0.0027726992
0.0027469114
0.0027212023
0.0026962937
0.0026717526
0.0026464023
0.0026205677
0.0025949628
0.0025702323
0.0025451882
0.0025188356
0.0024925914
0.0024668316
0.002441135
0.0024144772
0.0023872024
0.0023598634
0.0023331333
0.0023059329
0.0022772142
0.0022483259
0.0022195846
0.0021906529
0.0021605653
0.0021295434
0.0020982242
0.0020670413
0.0020348531
0.0020009868
0.0019665286
0.0019320481
0.0018965169
0.0018590166
0.0018204959
0.0017816219
0.0017413409
0.0016987462
0.0016546441
0.0016098564
0.0015629607
0.0015129971
0.0014614896
0.0014079804
0.0013511512
0.0012913634
0.0012304202
0.0011688042
0.0011073414
0.0010476556
0.00098892186
0.00093018667
0.00087216972
0.0008156049
0.00075973457
0.00070386115
0.00064868708
0.00059466854
0.00054199188
0.00048994935
0.00043840787
0.00038850395
0.00034045322
0.00029618972
0.00025314841
0.00022353245
0.00018196029
0.00030359869
-0.00023097688
0.0040416776
0.0040613657
0.0041048734
0.0041600127
0.0042248237
0.0042993627
0.0043830618
0.0044751962
0.0045754092
0.0046837491
0.0048005736
0.0049265407
0.0050626893
0.0052105866
0.005372539
0.005551988
0.0057540271
0.0059869555
0.0062631994
0.0066092388
0.0070589252
0.0077593928
0.0087348813
0.01209657
0.0090582554
0.0041489528
0.0041764483
0.0046303211
0.0046737959
0.0044767414
0.0042991472
0.0042053147
0.0041337722
0.0040593178
0.0039873558
0.0039217725
0.0038603105
0.0038026026
0.0037478504
0.0036968958
0.0036489664
0.0036035332
0.0035604172
0.003518846
0.0034793978
0.0034408335
0.0034042817
0.0033691071
0.003333896
0.0033010059
0.0032690006
0.0032365243
0.0032061334
0.003176468
0.003146183
0.0031172215
0.0030893192
0.0030610742
0.00303274
0.0030060863
0.0029797903
0.0029525161
0.002925583
0.0029001531
0.0028747874
0.0028483194
0.0028222311
0.0027973913
0.002772703
0.002746915
0.0027212058
0.0026962971
0.0026717558
0.0026464055
0.0026205707
0.0025949657
0.0025702351
0.0025451908
0.0025188381
0.0024925939
0.002466834
0.0024411373
0.0024144795
0.0023872045
0.0023598654
0.0023331352
0.0023059349
0.002277216
0.0022483277
0.0022195863
0.0021906546
0.0021605669
0.002129545
0.0020982257
0.0020670427
0.0020348545
0.0020009881
0.0019665298
0.0019320493
0.001896518
0.0018590177
0.001820497
0.0017816229
0.0017413419
0.0016987471
0.001654645
0.0016098573
0.0015629615
0.0015129979
0.0014614904
0.001407981
0.0013511519
0.0012913641
0.0012304208
0.0011688048
0.0011073419
0.0010476562
0.00098892236
0.00093018715
0.00087217018
0.00081560534
0.00075973499
0.00070386155
0.00064868747
0.00059466892
0.00054199224
0.0004899497
0.00043840821
0.00038850428
0.00034045354
0.00029619004
0.00025314872
0.00022353275
0.00018196058
0.00030359904
-0.00023097665
0.0040416776
0.0040613657
0.0041048734
0.0041600127
0.0042248237
0.0042993627
0.0043830618
0.0044751962
0.0045754092
0.0046837491
0.0048005736
0.0049265406
0.0050626893
0.0052105866
0.005372539
0.0055519879
0.005754027
0.0059869554
0.0062631991
0.0066092383
0.0070589245
0.0077593884
0.0087348825
0.0120934
0.0090577776
0.0041502683
0.0041766403
0.0046303953
0.0046738776
0.0044768238
0.004299219
0.0042053752
0.0041338237
0.0040593624
0.0039873948
0.0039218074
0.003860342
0.0038026313
0.0037478766
0.0036969198
0.0036489884
0.0036035535
0.003560436
0.0035188634
0.003479414
0.0034408488
0.0034042959
0.0033691205
0.0033339085
0.0033010177
0.0032690117
0.0032365348
0.0032061434
0.0031764774
0.003146192
0.00311723
0.0030893272
0.0030610819
0.0030327474
0.0030060933
0.002979797
0.0029525225
0.0029255892
0.002900159
0.002874793
0.0028483248
0.0028222362
0.0027973963
0.0027727078
0.0027469196
0.0027212102
0.0026963013
0.0026717599
0.0026464093
0.0026205745
0.0025949693
0.0025702385
0.0025451942
0.0025188413
0.002492597
0.002466837
0.0024411401
0.0024144822
0.0023872072
0.002359868
0.0023331377
0.0023059372
0.0022772183
0.0022483299
0.0022195884
0.0021906566
0.0021605688
0.0021295468
0.0020982275
0.0020670444
0.0020348561
0.0020009897
0.0019665313
0.0019320507
0.0018965194
0.001859019
0.0018204982
0.0017816241
0.0017413431
0.0016987483
0.001654646
0.0016098583
0.0015629625
0.0015129988
0.0014614912
0.0014079819
0.0013511527
0.0012913648
0.0012304215
0.0011688055
0.0011073426
0.0010476568
0.00098892296
0.00093018772
0.00087217072
0.00081560586
0.0007597355
0.00070386204
0.00064868794
0.00059466937
0.00054199268
0.00048995012
0.00043840862
0.00038850467
0.00034045392
0.00029619041
0.00025314908
0.00022353312
0.00018196092
0.00030359947
-0.00023097639
0.0040416776
0.0040613657
0.0041048734
0.0041600127
0.0042248237
0.0042993627
0.0043830618
0.0044751962
0.0045754092
0.004683749
0.0048005736
0.0049265406
0.0050626892
0.0052105865
0.0053725389
0.0055519878
0.0057540269
0.0059869551
0.0062631988
0.0066092376
0.0070589236
0.0077593828
0.0087348842
0.012089652
0.0090564677
0.0041520918
0.0041770065
0.0046305244
0.004673993
0.0044769364
0.0042993167
0.0042054574
0.0041338934
0.0040594225
0.0039874474
0.0039218541
0.0038603842
0.0038026697
0.0037479117
0.0036969519
0.0036490177
0.0036035805
0.003560461
0.0035188866
0.0034794356
0.0034408689
0.0034043147
0.0033691381
0.0033339251
0.0033010333
0.0032690264
0.0032365487
0.0032061565
0.0031764898
0.0031462038
0.0031172412
0.0030893379
0.003061092
0.003032757
0.0030061025
0.0029798057
0.0029525309
0.0029255972
0.0029001666
0.0028748004
0.0028483319
0.002822243
0.0027974027
0.002772714
0.0027469255
0.0027212159
0.0026963067
0.0026717651
0.0026464144
0.0026205793
0.002594974
0.002570243
0.0025451985
0.0025188455
0.002492601
0.0024668408
0.0024411438
0.0024144857
0.0023872106
0.0023598713
0.0023331408
0.0023059402
0.0022772212
0.0022483327
0.0022195911
0.0021906592
0.0021605713
0.0021295492
0.0020982298
0.0020670466
0.0020348582
0.0020009917
0.0019665333
0.0019320526
0.0018965212
0.0018590207
0.0018204999
0.0017816257
0.0017413446
0.0016987497
0.0016546474
0.0016098596
0.0015629637
0.001513
0.0014614924
0.001407983
0.0013511537
0.0012913658
0.0012304225
0.0011688063
0.0011073434
0.0010476576
0.0009889237
0.00093018843
0.00087217141
0.00081560652
0.00075973613
0.00070386264
0.00064868852
0.00059466993
0.00054199322
0.00048995065
0.00043840912
0.00038850516
0.0003404544
0.00029619088
0.00025314953
0.00022353357
0.00018196135
0.0003036
-0.00023097606
0.0040416776
0.0040613657
0.0041048734
0.0041600127
0.0042248237
0.0042993627
0.0043830618
0.0044751962
0.0045754092
0.004683749
0.0048005736
0.0049265406
0.0050626892
0.0052105865
0.0053725388
0.0055519877
0.0057540267
0.0059869549
0.0062631984
0.0066092367
0.0070589224
0.0077593756
0.0087348863
0.012085228
0.0090546918
0.0041545088
0.004177652
0.0046307448
0.0046741558
0.0044770898
0.0042994495
0.004205569
0.0041339879
0.0040595038
0.0039875184
0.0039219172
0.0038604411
0.0038027214
0.0037479588
0.0036969949
0.0036490572
0.0036036168
0.0035604945
0.0035189177
0.0034794645
0.0034408959
0.00340434
0.0033691618
0.0033339473
0.0033010542
0.0032690461
0.0032365673
0.003206174
0.0031765064
0.0031462195
0.0031172561
0.0030893521
0.0030611055
0.0030327699
0.0030061147
0.0029798174
0.0029525421
0.0029256078
0.0029001768
0.0028748101
0.0028483412
0.0028222519
0.0027974113
0.0027727222
0.0027469334
0.0027212234
0.002696314
0.0026717721
0.0026464211
0.0026205858
0.0025949802
0.0025702489
0.0025452042
0.002518851
0.0024926063
0.0024668459
0.0024411487
0.0024144904
0.0023872151
0.0023598756
0.002333145
0.0023059442
0.0022772251
0.0022483364
0.0022195947
0.0021906626
0.0021605746
0.0021295524
0.0020982328
0.0020670495
0.002034861
0.0020009943
0.0019665358
0.001932055
0.0018965236
0.001859023
0.001820502
0.0017816278
0.0017413465
0.0016987516
0.0016546492
0.0016098613
0.0015629653
0.0015130016
0.0014614938
0.0014079844
0.001351155
0.001291367
0.0012304236
0.0011688074
0.0011073445
0.0010476586
0.00098892468
0.00093018936
0.0008721723
0.00081560738
0.00075973695
0.00070386343
0.00064868928
0.00059467067
0.00054199392
0.00048995133
0.00043840978
0.0003885058
0.00034045502
0.00029619148
0.00025315011
0.00022353415
0.00018196191
0.00030360068
-0.00023097564
0.0040416776
0.0040613657
0.0041048734
0.0041600127
0.0042248237
0.0042993627
0.0043830618
0.0044751962
0.0045754092
0.004683749
0.0048005735
0.0049265406
0.0050626891
0.0052105864
0.0053725387
0.0055519876
0.0057540265
0.0059869545
0.0062631978
0.0066092356
0.0070589209
0.0077593663
0.0087348892
0.01208002
0.0090528601
0.0041576094
0.0041787002
0.0046311142
0.0046743814
0.0044772933
0.0042996255
0.0042057172
0.0041341135
0.0040596121
0.0039876131
0.0039220012
0.0038605165
0.0038027899
0.0037480212
0.003697052
0.0036491095
0.0036036649
0.003560539
0.003518959
0.0034795029
0.0034409317
0.0034043735
0.0033691932
0.0033339768
0.0033010819
0.0032690722
0.0032365919
0.0032061974
0.0031765285
0.0031462404
0.003117276
0.0030893709
0.0030611235
0.003032787
0.003006131
0.0029798329
0.0029525569
0.002925622
0.0029001904
0.0028748231
0.0028483537
0.0028222639
0.0027974228
0.0027727331
0.0027469439
0.0027212335
0.0026963237
0.0026717814
0.00264643
0.0026205943
0.0025949884
0.0025702568
0.0025452118
0.0025188583
0.0024926133
0.0024668526
0.0024411552
0.0024144967
0.0023872211
0.0023598814
0.0023331506
0.0023059496
0.0022772302
0.0022483413
0.0022195994
0.0021906671
0.0021605789
0.0021295566
0.0020982368
0.0020670534
0.0020348647
0.0020009979
0.0019665392
0.0019320583
0.0018965267
0.0018590259
0.0018205049
0.0017816305
0.0017413491
0.001698754
0.0016546516
0.0016098636
0.0015629675
0.0015130036
0.0014614958
0.0014079862
0.0013511568
0.0012913687
0.0012304252
0.0011688089
0.0011073459
0.0010476599
0.00098892598
0.0009301906
0.00087217349
0.00081560851
0.00075973804
0.00070386448
0.00064869029
0.00059467164
0.00054199486
0.00048995223
0.00043841066
0.00038850664
0.00034045584
0.00029619228
0.00025315089
0.00022353492
0.00018196265
0.00030360159
-0.00023097507
0.0040416776
0.0040613657
0.0041048734
0.0041600127
0.0042248237
0.0042993627
0.0043830618
0.0044751962
0.0045754092
0.004683749
0.0048005735
0.0049265405
0.0050626891
0.0052105863
0.0053725386
0.0055519874
0.0057540262
0.0059869541
0.0062631971
0.0066092342
0.007058919
0.0077593544
0.0087348929
0.012073906
0.0090510282
0.0041615899
0.0041802649
0.0046317012
0.004674695
0.0044775603
0.0042998551
0.0042059109
0.0041342776
0.0040597534
0.0039877367
0.0039221097
0.0038606131
0.0038028776
0.0037481014
0.0036971253
0.0036491767
0.0036037269
0.0035605963
0.0035190122
0.0034795526
0.0034409781
0.0034044169
0.0033692339
0.003334015
0.0033011179
0.0032691062
0.003236624
0.0032062277
0.0031765573
0.0031462677
0.003117302
0.0030893956
0.003061147
0.0030328094
0.0030061524
0.0029798533
0.0029525764
0.0029256407
0.0029002082
0.0028748402
0.00284837
0.0028222795
0.0027974377
0.0027727475
0.0027469577
0.0027212467
0.0026963363
0.0026717936
0.0026464417
0.0026206056
0.0025949992
0.0025702672
0.0025452218
0.0025188679
0.0024926225
0.0024668615
0.0024411637
0.0024145049
0.002387229
0.002359889
0.0023331579
0.0023059566
0.002277237
0.0022483478
0.0022196056
0.0021906731
0.0021605847
0.0021295621
0.0020982421
0.0020670585
0.0020348696
0.0020010026
0.0019665437
0.0019320626
0.0018965308
0.0018590299
0.0018205087
0.0017816341
0.0017413526
0.0016987573
0.0016546547
0.0016098666
0.0015629703
0.0015130063
0.0014614984
0.0014079887
0.0013511591
0.0012913709
0.0012304273
0.0011688109
0.0011073478
0.0010476617
0.00098892769
0.00093019224
0.00087217505
0.00081561001
0.00075973948
0.00070386586
0.00064869162
0.00059467292
0.0005419961
0.00048995343
0.00043841181
0.00038850777
0.00034045692
0.00029619334
0.00025315192
0.00022353595
0.00018196363
0.0003036028
-0.00023097432
0.0040416776
0.0040613657
0.0041048734
0.0041600127
0.0042248237
0.0042993627
0.0043830617
0.0044751961
0.0045754092
0.004683749
0.0048005735
0.0049265405
0.005062689
0.0052105862
0.0053725384
0.0055519872
0.0057540259
0.0059869535
0.0062631961
0.0066092325
0.0070589166
0.0077593393
0.0087348976
0.01206674
0.0090491996
0.0041668872
0.0041824516
0.0046325809
0.0046751315
0.0044779089
0.0043001509
0.0042061593
0.0041344872
0.0040599331
0.0039878933
0.0039222469
0.003860735
0.0038029884
0.0037482025
0.0036972179
0.0036492618
0.0036038053
0.0035606689
0.0035190796
0.0034796154
0.0034410368
0.0034044719
0.0033692855
0.0033340636
0.0033011637
0.0032691494
0.0032366649
0.0032062664
0.0031765939
0.0031463026
0.0031173351
0.0030894271
0.003061177
0.003032838
0.0030061797
0.0029798794
0.0029526014
0.0029256646
0.002900231
0.0028748617
0.0028483906
0.0028222993
0.0027974567
0.0027727656
0.0027469751
0.0027212635
0.0026963524
0.002671809
0.0026464565
0.0026206198
0.0025950129
0.0025702804
0.0025452345
0.0025188801
0.0024926343
0.0024668728
0.0024411746
0.0024145154
0.0023872391
0.0023598987
0.0023331672
0.0023059656
0.0022772456
0.0022483561
0.0022196136
0.0021906808
0.0021605921
0.0021295692
0.0020982489
0.002067065
0.0020348759
0.0020010086
0.0019665495
0.0019320682
0.0018965361
0.001859035
0.0018205135
0.0017816388
0.0017413571
0.0016987616
0.0016546588
0.0016098704
0.0015629741
0.0015130099
0.0014615017
0.0014079918
0.0013511621
0.0012913738
0.00123043
0.0011688135
0.0011073502
0.0010476641
0.00098892993
0.00093019437
0.0008721771
0.00081561197
0.00075974136
0.00070386767
0.00064869336
0.0005946746
0.00054199772
0.00048995499
0.00043841332
0.00038850923
0.00034045834
0.00029619472
0.00025315326
0.00022353729
0.00018196491
0.00030360437
-0.00023097334
0.0040416776
0.0040613657
0.0041048734
0.0041600126
0.0042248237
0.0042993627
0.0043830617
0.0044751961
0.0045754091
0.0046837489
0.0048005734
0.0049265404
0.0050626889
0.0052105861
0.0053725382
0.0055519869
0.0057540254
0.0059869528
0.0062631949
0.0066092302
0.0070589134
0.0077593199
0.0087349037
0.012058349
0.0090474152
0.0041737112
0.0041853465
0.0046338493
0.0046757342
0.0044783619
0.0043005287
0.0042064751
0.0041347525
0.0040601597
0.00398809
0.0039224198
0.0038608894
0.0038031283
0.0037483302
0.0036973346
0.0036493688
0.003603904
0.0035607601
0.0035191643
0.0034796943
0.0034411105
0.0034045409
0.0033693502
0.0033341245
0.003301221
0.0032692034
0.0032367159
0.0032063148
0.0031766397
0.003146346
0.0031173764
0.0030894664
0.0030612144
0.0030328737
0.0030062138
0.0029799119
0.0029526324
0.0029256943
0.0029002593
0.0028748886
0.0028484162
0.0028223239
0.0027974803
0.0027727882
0.0027469968
0.0027212843
0.0026963725
0.0026718283
0.0026464751
0.0026206377
0.0025950301
0.0025702969
0.0025452503
0.0025188954
0.002492649
0.002466887
0.0024411882
0.0024145285
0.0023872517
0.0023599108
0.0023331789
0.0023059769
0.0022772565
0.0022483665
0.0022196237
0.0021906905
0.0021606014
0.0021295781
0.0020982575
0.0020670733
0.0020348838
0.0020010162
0.0019665568
0.0019320752
0.0018965429
0.0018590414
0.0018205197
0.0017816447
0.0017413627
0.001698767
0.001654664
0.0016098754
0.0015629788
0.0015130143
0.001461506
0.0014079959
0.001351166
0.0012913774
0.0012304335
0.0011688168
0.0011073534
0.001047667
0.00098893274
0.00093019707
0.00087217968
0.00081561445
0.00075974374
0.00070386996
0.00064869556
0.00059467672
0.00054199977
0.00048995697
0.00043841524
0.00038851108
0.00034046014
0.00029619648
0.00025315497
0.00022353899
0.00018196654
0.00030360637
-0.0002309721
0.0040416776
0.0040613657
0.0041048733
0.0041600126
0.0042248237
0.0042993627
0.0043830617
0.0044751961
0.0045754091
0.0046837489
0.0048005733
0.0049265403
0.0050626888
0.0052105859
0.005372538
0.0055519865
0.0057540248
0.0059869519
0.0062631934
0.0066092272
0.0070589094
0.0077592952
0.0087349114
0.012048553
0.0090457384
0.0041817928
0.0041889517
0.0046356154
0.0046765628
0.0044789509
0.0043010109
0.0042068768
0.0041350893
0.0040604467
0.0039883386
0.0039226384
0.0038610845
0.0038033048
0.0037484909
0.0036974814
0.0036495033
0.0036040277
0.0035608744
0.0035192703
0.0034797929
0.0034412026
0.0034046271
0.0033694309
0.0033342003
0.0033012924
0.0032692706
0.0032367795
0.0032063749
0.0031766966
0.0031464
0.0031174277
0.0030895151
0.0030612607
0.0030329179
0.0030062559
0.0029799521
0.0029526709
0.0029257311
0.0029002944
0.0028749221
0.0028484483
0.0028223546
0.0027975097
0.0027728165
0.0027470239
0.0027213104
0.0026963975
0.0026718523
0.0026464982
0.0026206599
0.0025950515
0.0025703175