/*--------------------------------*- C++ -*----------------------------------*\
  =========                 |
  \\      /  F ield         | OpenFOAM: The Open Source CFD Toolbox
   \\    /   O peration     | Website:  https://openfoam.org
    \\  /    A nd           | Version:  12
     \\/     M anipulation  |
\*---------------------------------------------------------------------------*/
FoamFile
{
    format      ascii;
    class       volVectorField;
    location    "1900";
    object      U;
}
// * * * * * * * * * * * * * * * * * * * * * * * * * * * * * * * * * * * * * //

dimensions      [0 1 -1 0 0 0 0];

internalField   nonuniform List<vector> 
13056
(
(1 2.3221724e-10 3.7121951e-24)
(0.99998254 8.4570836e-10 0)
(0.9999419 1.5429793e-09 0)
(0.99988763 2.1899837e-09 0)
(0.99982275 2.905092e-09 0)
(0.9997481 3.7346797e-09 0)
(0.99966438 4.6954268e-09 0)
(0.99957224 5.8130988e-09 0)
(0.999472 7.1289448e-09 0)
(0.99936359 8.6957548e-09 0)
(0.99924667 1.0578809e-08 0)
(0.99912054 1.2863554e-08 0)
(0.99898411 1.5665991e-08 0)
(0.99883576 1.9155076e-08 0)
(0.99867305 2.3563938e-08 0)
(0.99849258 2.9315006e-08 0)
(0.99828832 3.6863056e-08 0)
(0.99805387 4.7927063e-08 0)
(0.99776775 6.2323656e-08 0)
(0.99742931 9.2908328e-08 0)
(0.99690407 1.2256498e-07 0)
(0.99634888 3.6428595e-07 0)
(0.99387237 3.0576921e-07 -4.5885488e-21)
(0.99382757 0.00012223697 1.0986202e-16)
(0.026176885 0.00012478348 0)
(0.012808555 1.2804128e-06 -5.0073123e-17)
(0.012489669 7.5564676e-09 1.432885e-20)
(0.012510643 5.4629946e-09 6.4588489e-21)
(0.012261501 1.3884999e-08 0)
(0.011940223 1.5089563e-08 0)
(0.011639686 1.348175e-08 0)
(0.011380355 1.1525157e-08 0)
(0.011155783 9.9538038e-09 0)
(0.010957998 8.7327241e-09 0)
(0.010781535 7.7490682e-09 0)
(0.010622489 6.9951164e-09 0)
(0.010475389 6.4091218e-09 0)
(0.010338909 5.8889417e-09 0)
(0.010211885 5.4207372e-09 0)
(0.01009357 4.9932254e-09 0)
(0.0099832162 4.6128293e-09 0)
(0.0098797577 4.2797832e-09 0)
(0.0097823786 3.9828904e-09 0)
(0.0096904703 3.7196348e-09 0)
(0.0096033104 3.4848501e-09 0)
(0.0095204592 3.2724592e-09 0)
(0.0094415004 3.0778174e-09 0)
(0.0093661481 2.8988462e-09 0)
(0.0092940769 2.7375183e-09 0)
(0.0092249263 2.5872351e-09 0)
(0.0091586066 2.4479378e-09 0)
(0.0090947838 2.3237555e-09 0)
(0.0090331697 2.2069309e-09 0)
(0.0089737464 2.0967997e-09 0)
(0.0089162902 1.9976174e-09 0)
(0.0088605652 1.9044199e-09 0)
(0.0088065577 1.8152223e-09 0)
(0.008754147 1.7340274e-09 0)
(0.0087031017 1.6593544e-09 0)
(0.0086533731 1.5866177e-09 0)
(0.008604955 1.5179534e-09 0)
(0.0085576912 1.4557535e-09 0)
(0.0085114377 1.3968976e-09 0)
(0.0084662005 1.3410816e-09 0)
(0.0084218259 1.2899735e-09 0)
(0.0083782266 1.2414324e-09 0)
(0.0083354019 1.1935904e-09 0)
(0.0082933635 1.1465686e-09 0)
(0.0082520938 1.1020055e-09 0)
(0.008211498 1.0607546e-09 0)
(0.0081715065 1.0212914e-09 0)
(0.0081321095 9.8292897e-10 0)
(0.0080932821 9.4629263e-10 0)
(0.0080549652 9.1179309e-10 0)
(0.0080171103 8.7885055e-10 0)
(0.0079796912 8.4713369e-10 0)
(0.00794268 8.1638207e-10 0)
(0.00790606 7.86923e-10 0)
(0.007869783 7.5894571e-10 0)
(0.0078338227 7.3184972e-10 0)
(0.0077981618 7.0567873e-10 0)
(0.0077627687 6.8054663e-10 0)
(0.0077276124 6.5629381e-10 0)
(0.0076926843 6.328002e-10 0)
(0.0076579557 6.1033794e-10 0)
(0.0076233838 5.8858421e-10 0)
(0.0075889631 5.6735245e-10 0)
(0.0075546786 5.4686124e-10 0)
(0.0075205063 5.2705849e-10 0)
(0.0074864175 5.0795457e-10 0)
(0.0074523852 4.8939194e-10 0)
(0.007418398 4.7122998e-10 0)
(0.0073844534 4.5362901e-10 0)
(0.0073505103 4.3682317e-10 0)
(0.0073165239 4.2052555e-10 0)
(0.0072824868 4.0444383e-10 0)
(0.0072484058 3.8879932e-10 0)
(0.0072142382 3.7401207e-10 0)
(0.0071799024 3.5972615e-10 0)
(0.0071454094 3.4542463e-10 0)
(0.0071107771 3.3141465e-10 0)
(0.0070759615 3.180186e-10 0)
(0.0070409023 3.0506803e-10 0)
(0.0070055793 2.9225842e-10 0)
(0.0069700021 2.7975714e-10 0)
(0.0069341098 2.6784357e-10 0)
(0.0068978288 2.5624278e-10 0)
(0.0068611557 2.4475739e-10 0)
(0.0068240718 2.336388e-10 0)
(0.0067864964 2.2293349e-10 0)
(0.0067483763 2.1238163e-10 0)
(0.0067097097 2.0203274e-10 0)
(0.0066704213 1.9219896e-10 0)
(0.0066312698 1.8285435e-10 0)
(0.006593555 1.741105e-10 0)
(0.0065576013 1.664809e-10 0)
(0.0065231167 1.5944468e-10 0)
(0.006490139 1.52507e-10 0)
(0.0064585885 1.4606933e-10 0)
(0.0064283355 1.4022514e-10 0)
(0.0063992588 1.3482753e-10 0)
(0.0063712886 1.2970775e-10 0)
(0.0063443771 1.2488805e-10 0)
(0.0063184471 1.2046974e-10 0)
(0.0062934057 1.1642078e-10 0)
(0.006269189 1.1258896e-10 0)
(0.006245768 1.0892288e-10 0)
(0.0062231023 1.0548823e-10 0)
(0.006201136 1.0238865e-10 0)
(0.006179782 9.9540084e-11 0)
(0.0061590234 9.7195304e-11 0)
(0.0061386576 9.4593559e-11 0)
(0.0061190175 9.4432693e-11 0)
(0.0060986912 3.4182166e-10 0)
(0.0060807398 1.0932947e-10 1.5017021e-22)
(0.0060515465 2.6411181e-10 0)
(1 7.001032e-10 0)
(0.99998254 2.5497101e-09 0)
(0.9999419 4.651905e-09 0)
(0.99988763 6.6025665e-09 0)
(0.99982275 8.7585623e-09 0)
(0.99974809 1.125972e-08 0)
(0.99966438 1.4156329e-08 0)
(0.99957224 1.7526064e-08 0)
(0.99947199 2.149328e-08 0)
(0.99936359 2.6217126e-08 0)
(0.99924666 3.189441e-08 0)
(0.99912052 3.8782734e-08 0)
(0.99898409 4.7231819e-08 0)
(0.99883574 5.7751033e-08 0)
(0.99867303 7.104321e-08 0)
(0.99849255 8.8381873e-08 0)
(0.99828829 1.111381e-07 0)
(0.99805384 1.4449404e-07 0)
(0.99776772 1.8789708e-07 0)
(0.99742926 2.8010055e-07 0)
(0.99690402 3.6949449e-07 0)
(0.99634883 1.0981923e-06 0)
(0.99387234 9.2248429e-07 1.6992369e-20)
(0.99382765 0.0003611965 -1.4015786e-20)
(0.076470625 0.00036832085 0)
(0.03861796 7.2434294e-06 0)
(0.037655629 1.5654356e-07 2.227882e-20)
(0.037718779 1.1683795e-07 0)
(0.036967202 2.920828e-07 -4.597792e-21)
(0.035997677 3.1597351e-07 0)
(0.035091845 2.8182612e-07 0)
(0.034310248 2.4122694e-07 0)
(0.033633235 2.0848446e-07 0)
(0.033036936 1.8288372e-07 0)
(0.032504944 1.6225975e-07 0)
(0.032025462 1.4648152e-07 0)
(0.031581992 1.3421169e-07 0)
(0.031170538 1.2332207e-07 0)
(0.03078759 1.1351266e-07 0)
(0.030430901 1.0456349e-07 0)
(0.030098209 9.6599794e-08 0)
(0.029786305 8.9625958e-08 0)
(0.029492728 8.341174e-08 0)
(0.029215643 7.7895968e-08 0)
(0.028952873 7.2984164e-08 0)
(0.028703093 6.8531357e-08 0)
(0.028465049 6.4457784e-08 0)
(0.028237874 6.0715103e-08 0)
(0.028020593 5.7327141e-08 0)
(0.027812119 5.4185332e-08 0)
(0.027612175 5.1272902e-08 0)
(0.02741976 4.8662885e-08 0)
(0.027234007 4.6221003e-08 0)
(0.027054854 4.3918987e-08 0)
(0.026881632 4.1835285e-08 0)
(0.026713633 3.988426e-08 0)
(0.026550808 3.8020544e-08 0)
(0.026392796 3.6319059e-08 0)
(0.026238904 3.4750039e-08 0)
(0.026088982 3.3230463e-08 0)
(0.025943007 3.1795931e-08 0)
(0.025800512 3.0489621e-08 0)
(0.025661067 2.9254062e-08 0)
(0.025524685 2.8088654e-08 0)
(0.025390901 2.7020889e-08 0)
(0.025259453 2.6000834e-08 0)
(0.025130345 2.4996982e-08 0)
(0.025003607 2.4014526e-08 0)
(0.024879183 2.308359e-08 0)
(0.024756791 2.2217334e-08 0)
(0.024636224 2.1389468e-08 0)
(0.024517448 2.0586825e-08 0)
(0.024400389 1.9821413e-08 0)
(0.024284867 1.909827e-08 0)
(0.024170739 1.8407145e-08 0)
(0.024057927 1.7741997e-08 0)
(0.023946345 1.709956e-08 0)
(0.023835938 1.6483731e-08 0)
(0.023726567 1.589599e-08 0)
(0.023618153 1.5328005e-08 0)
(0.023510641 1.4780365e-08 0)
(0.023403934 1.4254998e-08 0)
(0.023297942 1.3746648e-08 0)
(0.023192638 1.3254011e-08 0)
(0.023087937 1.2783008e-08 0)
(0.022983707 1.232828e-08 0)
(0.022879932 1.188432e-08 0)
(0.022776568 1.1454158e-08 0)
(0.022673544 1.1039171e-08 0)
(0.022570771 1.0639286e-08 0)
(0.022468167 1.0251036e-08 0)
(0.0223657 9.8704818e-09 0)
(0.02226336 9.5014802e-09 0)
(0.022161027 9.1492978e-09 0)
(0.022058562 8.8084253e-09 0)
(0.021955944 8.471806e-09 0)
(0.021853193 8.1436885e-09 0)
(0.021750183 7.833763e-09 0)
(0.021646665 7.5348432e-09 0)
(0.021542672 7.2355036e-09 0)
(0.021438259 6.9417707e-09 0)
(0.021333294 6.6610099e-09 0)
(0.021227595 6.3899601e-09 0)
(0.0211211 6.1217894e-09 0)
(0.021013839 5.8597635e-09 0)
(0.020905628 5.6100865e-09 0)
(0.020796245 5.3672836e-09 0)
(0.020685679 5.1267968e-09 0)
(0.020573875 4.8937191e-09 0)
(0.02046059 4.6695211e-09 0)
(0.020345662 4.4486006e-09 0)
(0.020229087 4.2317878e-09 0)
(0.020110636 4.0257659e-09 0)
(0.019992599 3.8301213e-09 0)
(0.019878893 3.6469711e-09 0)
(0.019770496 3.4870681e-09 0)
(0.019666529 3.3397353e-09 0)
(0.019567105 3.1944783e-09 0)
(0.019471984 3.0595927e-09 0)
(0.019380774 2.9371363e-09 0)
(0.019293111 2.8241233e-09 0)
(0.019208784 2.7169259e-09 0)
(0.019127649 2.6159305e-09 0)
(0.019049473 2.5233543e-09 0)
(0.018973976 2.4385336e-09 0)
(0.018900966 2.3583141e-09 0)
(0.018830354 2.2815305e-09 0)
(0.01876202 2.2095188e-09 0)
(0.018695794 2.1445735e-09 0)
(0.018631415 2.0847995e-09 0)
(0.018568831 2.0358192e-09 0)
(0.018507434 1.9805961e-09 0)
(0.018448222 1.978148e-09 0)
(0.018386956 1.9242375e-09 0)
(0.018332834 2.3264873e-09 -2.3385987e-22)
(0.018244819 1.4777007e-09 4.240415e-23)
(1 1.1784151e-09 0)
(0.99998254 4.291693e-09 0)
(0.9999419 7.8301295e-09 0)
(0.99988763 1.1113528e-08 0)
(0.99982275 1.4742563e-08 0)
(0.99974809 1.8952603e-08 0)
(0.99966438 2.3828298e-08 0)
(0.99957224 2.9500387e-08 0)
(0.99947198 3.6178177e-08 0)
(0.99936358 4.4129542e-08 0)
(0.99924665 5.3685739e-08 0)
(0.99912051 6.5280362e-08 0)
(0.99898407 7.950205e-08 0)
(0.99883572 9.7208161e-08 0)
(0.998673 1.1958169e-07 0)
(0.99849252 1.4876616e-07 0)
(0.99828826 1.8706934e-07 0)
(0.9980538 2.4321336e-07 0)
(0.99776767 3.1626862e-07 0)
(0.99742922 4.7145758e-07 0)
(0.99690397 6.2195813e-07 0)
(0.99634878 1.8482938e-06 0)
(0.99387232 1.5536561e-06 -8.9818787e-21)
(0.99382782 0.00059117449 6.1163539e-54)
(0.12546621 0.00061001691 -8.1641356e-54)
(0.065006587 1.977256e-05 0)
(0.063384338 4.5472806e-07 -1.1870089e-20)
(0.063488995 3.3992654e-07 0)
(0.062223203 8.4857782e-07 0)
(0.06059009 9.1744293e-07 0)
(0.059065786 8.179308e-07 0)
(0.05775059 7.0019643e-07 0)
(0.056611132 6.0523985e-07 0)
(0.055607462 5.3092082e-07 0)
(0.054712061 4.7103788e-07 0)
(0.053905048 4.252361e-07 0)
(0.053158637 3.8961899e-07 0)
(0.052466112 3.580074e-07 0)
(0.051821565 3.2952935e-07 0)
(0.051221219 3.0355079e-07 0)
(0.050661258 2.8043325e-07 0)
(0.050136283 2.6018876e-07 0)
(0.049642153 2.4214969e-07 0)
(0.049175782 2.2613692e-07 0)
(0.048733503 2.1187897e-07 0)
(0.048313088 1.9895103e-07 0)
(0.047912428 1.871263e-07 0)
(0.047530056 1.7626252e-07 0)
(0.04716434 1.6642444e-07 0)
(0.04681345 1.5730528e-07 0)
(0.046476909 1.4885179e-07 0)
(0.046153045 1.4127201e-07 0)
(0.045840397 1.3418444e-07 0)
(0.04553885 1.2750306e-07 0)
(0.045247289 1.2145186e-07 0)
(0.044964522 1.1578799e-07 0)
(0.044690461 1.1037914e-07 0)
(0.044424498 1.0543912e-07 0)
(0.044165473 1.0088238e-07 0)
(0.043913133 9.6472224e-08 0)
(0.043667429 9.2309017e-08 0)
(0.043427583 8.8515324e-08 0)
(0.043192875 8.4927248e-08 0)
(0.042963324 8.1545305e-08 0)
(0.042738138 7.8446493e-08 0)
(0.042516887 7.5483904e-08 0)
(0.042299578 7.2568792e-08 0)
(0.042086258 6.9717575e-08 0)
(0.041876828 6.7015878e-08 0)
(0.041670818 6.4500234e-08 0)
(0.041467883 6.2096186e-08 0)
(0.041267965 5.9766392e-08 0)
(0.041070932 5.754506e-08 0)
(0.040876486 5.5445529e-08 0)
(0.040684388 5.3438527e-08 0)
(0.040494507 5.1507237e-08 0)
(0.040306694 4.9642826e-08 0)
(0.040120858 4.7855435e-08 0)
(0.039936765 4.6148529e-08 0)
(0.039754284 4.4499305e-08 0)
(0.039573323 4.2909683e-08 0)
(0.039393716 4.1384869e-08 0)
(0.039215309 3.9908953e-08 0)
(0.039038063 3.8478453e-08 0)
(0.038861832 3.7110888e-08 0)
(0.038686396 3.5791111e-08 0)
(0.038511721 3.4502494e-08 0)
(0.038337739 3.3253332e-08 0)
(0.03816433 3.2048404e-08 0)
(0.037991345 3.0887597e-08 0)
(0.037818643 2.9760656e-08 0)
(0.037646169 2.8655801e-08 0)
(0.037473913 2.7584364e-08 0)
(0.037301667 2.6561867e-08 0)
(0.037129199 2.557245e-08 0)
(0.036956472 2.459528e-08 0)
(0.036783522 2.3642539e-08 0)
(0.036610136 2.2742695e-08 0)
(0.036435896 2.1875009e-08 0)
(0.036260855 2.1006066e-08 0)
(0.036085107 2.0153211e-08 0)
(0.035908432 1.933805e-08 0)
(0.03573052 1.8551231e-08 0)
(0.035551267 1.7772746e-08 0)
(0.035370724 1.7011975e-08 0)
(0.035188585 1.6287072e-08 0)
(0.035004472 1.5582242e-08 0)
(0.034818368 1.48841e-08 0)
(0.034630179 1.4207372e-08 0)
(0.034439498 1.355649e-08 0)
(0.034246051 1.2915153e-08 0)
(0.034049831 1.228569e-08 0)
(0.033850456 1.168756e-08 0)
(0.033651775 1.11196e-08 0)
(0.033460384 1.0587879e-08 0)
(0.033277931 1.0123616e-08 0)
(0.033102934 9.6958943e-09 0)
(0.032935583 9.2742086e-09 0)
(0.032775474 8.8825937e-09 0)
(0.032621951 8.527062e-09 0)
(0.032474397 8.1989804e-09 0)
(0.032332457 7.8877816e-09 0)
(0.032195889 7.5945571e-09 0)
(0.032064304 7.325774e-09 0)
(0.031937228 7.07952e-09 0)
(0.031814337 6.8466429e-09 0)
(0.031695483 6.6237252e-09 0)
(0.031580463 6.414634e-09 0)
(0.031468992 6.2260611e-09 0)
(0.031360631 6.0524945e-09 0)
(0.031255291 5.9102651e-09 0)
(0.031151952 5.7498377e-09 0)
(0.031052285 5.7427004e-09 0)
(0.030949186 5.4953799e-09 0)
(0.030858088 6.7613745e-09 0)
(0.03070994 4.2112461e-09 0)
(1 1.6742938e-09 7.9555701e-24)
(0.99998254 6.0976404e-09 0)
(0.9999419 1.112505e-08 0)
(0.99988763 1.5790133e-08 0)
(0.99982275 2.0946326e-08 0)
(0.99974809 2.6928051e-08 0)
(0.99966437 3.3855581e-08 0)
(0.99957223 4.1914663e-08 0)
(0.99947198 5.1402673e-08 0)
(0.99936357 6.2700194e-08 0)
(0.99924663 7.627787e-08 0)
(0.99912049 9.2751744e-08 0)
(0.99898405 1.1295815e-07 0)
(0.99883569 1.3811521e-07 0)
(0.99867297 1.6990371e-07 0)
(0.99849249 2.1136916e-07 0)
(0.99828822 2.6579044e-07 0)
(0.99805376 3.455596e-07 0)
(0.99776763 4.4935665e-07 0)
(0.99742917 6.6984407e-07 0)
(0.99690392 8.8371048e-07 0)
(0.99634873 2.6259217e-06 0)
(0.9938723 2.2080719e-06 0)
(0.99382808 0.00081630149 -3.1557577e-54)
(0.173806 0.000854883 4.2519688e-54)
(0.092362468 3.9251013e-05 0)
(0.090059114 9.3706193e-07 0)
(0.0902017 7.0168699e-07 0)
(0.088402046 1.7487504e-06 0)
(0.08608035 1.8898548e-06 0)
(0.083915513 1.6842457e-06 0)
(0.082047703 1.4419493e-06 0)
(0.080429111 1.2465416e-06 0)
(0.079003314 1.093485e-06 0)
(0.077731355 9.7013602e-07 0)
(0.076584961 8.7580857e-07 0)
(0.075524638 8.0245783e-07 0)
(0.074540859 7.3735335e-07 0)
(0.073625234 6.7869956e-07 0)
(0.072772399 6.2519634e-07 0)
(0.071976927 5.7758606e-07 0)
(0.071231153 5.3589227e-07 0)
(0.07052919 4.9874062e-07 0)
(0.069866661 4.6576076e-07 0)
(0.069238353 4.3639659e-07 0)
(0.068641103 4.0976867e-07 0)
(0.068071919 3.8541591e-07 0)
(0.067528707 3.6304257e-07 0)
(0.06700916 3.4277644e-07 0)
(0.066510678 3.2399673e-07 0)
(0.06603257 3.0658776e-07 0)
(0.065572475 2.9097258e-07 0)
(0.065128317 2.7637662e-07 0)
(0.064699921 2.6261764e-07 0)
(0.064285711 2.5015152e-07 0)
(0.063884001 2.3848602e-07 0)
(0.063494653 2.2734818e-07 0)
(0.063116805 2.1717273e-07 0)
(0.06274882 2.07785e-07 0)
(0.062390333 1.9870346e-07 0)
(0.062041266 1.9013073e-07 0)
(0.061700519 1.8231503e-07 0)
(0.06136708 1.7492312e-07 0)
(0.061040966 1.6795946e-07 0)
(0.060721044 1.6157846e-07 0)
(0.060406715 1.5547466e-07 0)
(0.060097992 1.4946921e-07 0)
(0.059794934 1.4359809e-07 0)
(0.059497398 1.3803482e-07 0)
(0.059204719 1.3285226e-07 0)
(0.058916413 1.2789964e-07 0)
(0.058632394 1.2310158e-07 0)
(0.05835247 1.1852746e-07 0)
(0.058076219 1.1420288e-07 0)
(0.057803306 1.1006816e-07 0)
(0.057533545 1.060899e-07 0)
(0.057266721 1.0225079e-07 0)
(0.057002701 9.8569948e-08 0)
(0.056741157 9.5053353e-08 0)
(0.056481909 9.1655962e-08 0)
(0.056224818 8.8382217e-08 0)
(0.055969649 8.5242153e-08 0)
(0.055716183 8.220206e-08 0)
(0.055464368 7.9255159e-08 0)
(0.055213997 7.6438132e-08 0)
(0.054964754 7.3720321e-08 0)
(0.05471659 7.1066531e-08 0)
(0.054469409 6.8493137e-08 0)
(0.054223046 6.6011065e-08 0)
(0.053977284 6.3620324e-08 0)
(0.053731923 6.1299458e-08 0)
(0.053486885 5.9023705e-08 0)
(0.053242158 5.6816581e-08 0)
(0.052997446 5.4710444e-08 0)
(0.052752418 5.2672806e-08 0)
(0.052507019 5.0660236e-08 0)
(0.052261304 4.869761e-08 0)
(0.052014972 4.6844051e-08 0)
(0.051767425 4.5057043e-08 0)
(0.051518738 4.3267385e-08 0)
(0.051269048 4.1510583e-08 0)
(0.051018041 3.983147e-08 0)
(0.050765277 3.8210956e-08 0)
(0.050510606 3.6607571e-08 0)
(0.050254103 3.5040485e-08 0)
(0.049995332 3.3547303e-08 0)
(0.049733757 3.2095639e-08 0)
(0.049469351 3.0657694e-08 0)
(0.049201984 2.9263723e-08 0)
(0.048931077 2.7923076e-08 0)
(0.04865624 2.6602136e-08 0)
(0.048377462 2.5305583e-08 0)
(0.048094202 2.407357e-08 0)
(0.047811927 2.2903762e-08 0)
(0.047540009 2.1808544e-08 0)
(0.047280791 2.0852231e-08 0)
(0.047032165 1.9971263e-08 0)
(0.046794401 1.9102713e-08 0)
(0.046566928 1.8296059e-08 0)
(0.04634881 1.7563725e-08 0)
(0.046139173 1.6887982e-08 0)
(0.045937512 1.6247012e-08 0)
(0.045743485 1.5643018e-08 0)
(0.045556534 1.5089363e-08 0)
(0.045375992 1.4582135e-08 0)
(0.045201395 1.4102487e-08 0)
(0.045032533 1.364333e-08 0)
(0.044869119 1.3212611e-08 0)
(0.044710749 1.2824152e-08 0)
(0.044556797 1.2466607e-08 0)
(0.044407137 1.2173572e-08 0)
(0.044260323 1.1843034e-08 0)
(0.044118722 1.1827967e-08 0)
(0.043972275 1.1327983e-08 0)
(0.043842847 1.3934303e-08 0)
(0.043632365 8.6717344e-09 0)
(1 2.1951255e-09 0)
(0.99998254 7.9944585e-09 0)
(0.9999419 1.4585761e-08 0)
(0.99988763 2.0702064e-08 0)
(0.99982275 2.7462297e-08 0)
(0.99974809 3.5304918e-08 0)
(0.99966437 4.4387616e-08 0)
(0.99957223 5.4953915e-08 0)
(0.99947197 6.739368e-08 0)
(0.99936356 8.2205875e-08 0)
(0.99924662 1.0000754e-07 0)
(0.99912047 1.2160633e-07 0)
(0.99898402 1.4809875e-07 0)
(0.99883567 1.8108183e-07 0)
(0.99867294 2.2275921e-07 0)
(0.99849245 2.7712375e-07 0)
(0.99828818 3.4847432e-07 0)
(0.99805371 4.5305752e-07 0)
(0.99776758 5.8914359e-07 0)
(0.99742911 8.7821424e-07 0)
(0.99690386 1.1586342e-06 0)
(0.99634867 3.4426527e-06 0)
(0.9938723 2.8954921e-06 0)
(0.99382846 0.0010393216 0)
(0.22201561 0.0011032136 0)
(0.12108553 6.5612217e-05 0)
(0.11806774 1.6257393e-06 0)
(0.11823802 1.2207741e-06 1.2829781e-20)
(0.11587701 3.0340076e-06 0)
(0.11283273 3.2774229e-06 0)
(0.10999706 2.9197827e-06 0)
(0.10755046 2.4999618e-06 0)
(0.10542977 2.1614274e-06 0)
(0.10356153 1.896068e-06 0)
(0.10189488 1.6821699e-06 0)
(0.10039275 1.5186238e-06 0)
(0.099003365 1.3914512e-06 0)
(0.097714256 1.2785688e-06 0)
(0.096514438 1.1768669e-06 0)
(0.095396886 1.0840987e-06 0)
(0.094354486 1.0015493e-06 0)
(0.093377194 9.2925739e-07 0)
(0.0924573 8.6484034e-07 0)
(0.091589075 8.0765502e-07 0)
(0.090765684 7.5674043e-07 0)
(0.089982988 7.1056628e-07 0)
(0.089237068 6.6834143e-07 0)
(0.08852517 6.2954864e-07 0)
(0.087844284 5.944024e-07 0)
(0.087191005 5.6184158e-07 0)
(0.08656441 5.316571e-07 0)
(0.085961424 5.0457493e-07 0)
(0.085379326 4.7926773e-07 0)
(0.08481787 4.5541252e-07 0)
(0.084275007 4.3379169e-07 0)
(0.08374853 4.1356316e-07 0)
(0.083238244 3.9425342e-07 0)
(0.082743024 3.7660746e-07 0)
(0.082260737 3.603249e-07 0)
(0.081790896 3.4457973e-07 0)
(0.081333389 3.2971722e-07 0)
(0.080886786 3.1616118e-07 0)
(0.080449768 3.033404e-07 0)
(0.080022348 2.9126797e-07 0)
(0.079603033 2.8020516e-07 0)
(0.079191047 2.6961776e-07 0)
(0.078786415 2.5920171e-07 0)
(0.078389208 2.4902288e-07 0)
(0.077999227 2.3937773e-07 0)
(0.077615612 2.3038889e-07 0)
(0.077237733 2.2179881e-07 0)
(0.076865473 2.1347937e-07 0)
(0.076498572 2.0554908e-07 0)
(0.076136483 1.9804947e-07 0)
(0.075778771 1.9087782e-07 0)
(0.075425194 1.8397843e-07 0)
(0.075075463 1.773225e-07 0)
(0.074729401 1.7094043e-07 0)
(0.074386584 1.6484084e-07 0)
(0.07404678 1.5894847e-07 0)
(0.073709803 1.5327199e-07 0)
(0.073375339 1.478276e-07 0)
(0.073043106 1.4255543e-07 0)
(0.072713038 1.3744425e-07 0)
(0.072384866 1.3255873e-07 0)
(0.072058169 1.2784649e-07 0)
(0.071732882 1.2324499e-07 0)
(0.071408883 1.1878159e-07 0)
(0.071085958 1.1447681e-07 0)
(0.070763821 1.1033119e-07 0)
(0.070442206 1.063069e-07 0)
(0.070121013 1.0236026e-07 0)
(0.069800227 9.8532292e-08 0)
(0.069479463 9.4879766e-08 0)
(0.069158283 9.1346582e-08 0)
(0.068836612 8.7856625e-08 0)
(0.068514528 8.445269e-08 0)
(0.068191635 8.1238073e-08 0)
(0.06786715 7.8139361e-08 0)
(0.067541167 7.5035955e-08 0)
(0.067213869 7.1989088e-08 0)
(0.066884845 6.9077017e-08 0)
(0.066553517 6.6266916e-08 0)
(0.066219687 6.348646e-08 0)
(0.065883454 6.0768661e-08 0)
(0.06554425 5.8179065e-08 0)
(0.065201369 5.5661733e-08 0)
(0.064854774 5.3168105e-08 0)
(0.064504298 5.075053e-08 0)
(0.064149181 4.842556e-08 0)
(0.06378891 4.6134839e-08 0)
(0.063423473 4.3886299e-08 0)
(0.06305216 4.1749693e-08 0)
(0.062682138 3.972105e-08 0)
(0.06232569 3.7821684e-08 0)
(0.061985889 3.6163145e-08 0)
(0.061659975 3.4635367e-08 0)
(0.061348297 3.3129151e-08 0)
(0.061050107 3.1730186e-08 0)
(0.060764182 3.0460103e-08 0)
(0.060489374 2.9288241e-08 0)
(0.06022502 2.8176682e-08 0)
(0.059970673 2.7129176e-08 0)
(0.059725603 2.6168958e-08 0)
(0.059488933 2.5289295e-08 0)
(0.059260057 2.4457504e-08 0)
(0.059038697 2.3661208e-08 0)
(0.05882448 2.2914171e-08 0)
(0.058616875 2.2240409e-08 0)
(0.058415063 2.1620281e-08 0)
(0.058218876 2.1111922e-08 0)
(0.058026427 2.0538623e-08 0)
(0.057840802 2.0511589e-08 0)
(0.057648869 1.9652623e-08 0)
(0.057479201 2.4173375e-08 -3.0114618e-22)
(0.057203278 1.5035746e-08 5.4605764e-23)
(1 2.7486704e-09 0)
(0.99998254 1.0010412e-08 0)
(0.9999419 1.8263829e-08 0)
(0.99988763 2.592252e-08 0)
(0.99982275 3.4387582e-08 0)
(0.99974809 4.4208053e-08 0)
(0.99966437 5.558139e-08 0)
(0.99957222 6.8812514e-08 0)
(0.99947196 8.4389588e-08 0)
(0.99936354 1.0293738e-07 0)
(0.9992466 1.252285e-07 0)
(0.99912045 1.5227429e-07 0)
(0.998984 1.8544771e-07 0)
(0.99883563 2.2674852e-07 0)
(0.9986729 2.7893605e-07 0)
(0.99849241 3.4700998e-07 0)
(0.99828813 4.3635327e-07 0)
(0.99805366 5.6730897e-07 0)
(0.99776752 7.3771231e-07 0)
(0.99742905 1.0996713e-06 0)
(0.99690379 1.4507994e-06 0)
(0.9963486 4.3106487e-06 0)
(0.99387231 3.6262935e-06 0)
(0.99382899 0.0012620248 0)
(0.27051259 0.0013584905 0)
(0.1515769 9.9200622e-05 0)
(0.14778491 2.5636913e-06 0)
(0.14795817 1.9318907e-06 0)
(0.14500136 4.777744e-06 0)
(0.14119407 5.1584257e-06 0)
(0.13765141 4.5938024e-06 0)
(0.13459464 3.9336671e-06 0)
(0.13194422 3.401432e-06 0)
(0.12960902 2.983921e-06 0)
(0.12752575 2.6473e-06 0)
(0.12564804 2.3899607e-06 0)
(0.12391116 2.1898616e-06 0)
(0.12229957 2.0122326e-06 0)
(0.12079955 1.8521904e-06 0)
(0.11940232 1.7062094e-06 0)
(0.118099 1.57631e-06 0)
(0.11687703 1.4625497e-06 0)
(0.11572679 1.3611793e-06 0)
(0.11464112 1.2711867e-06 -6.2770812e-33)
(0.11361148 1.191063e-06 0)
(0.1126327 1.1183935e-06 0)
(0.11169989 1.051945e-06 0)
(0.11080959 9.9089675e-07 0)
(0.10995806 9.355768e-07 0)
(0.10914105 8.8433691e-07 0)
(0.10835737 8.3683595e-07 0)
(0.10760322 7.9420563e-07 0)
(0.10687518 7.5437948e-07 0)
(0.10617293 7.1683956e-07 0)
(0.10549392 6.8280508e-07 0)
(0.10483541 6.5096746e-07 0)
(0.10419714 6.2058176e-07 0)
(0.10357769 5.9280684e-07 0)
(0.10297442 5.6717397e-07 0)
(0.10238671 5.4239643e-07 0)
(0.10181441 5.1900876e-07 0)
(0.10125574 4.9766768e-07 0)
(0.10070907 4.7748434e-07 0)
(0.10017439 4.5848762e-07 0)
(0.099649837 4.4107884e-07 0)
(0.099134446 4.2441015e-07 0)
(0.098628261 4.0801224e-07 0)
(0.098131356 3.9199442e-07 0)
(0.097643476 3.7681625e-07 0)
(0.097163552 3.6266518e-07 0)
(0.09669081 3.4914159e-07 0)
(0.096225092 3.360481e-07 0)
(0.095766068 3.2356837e-07 0)
(0.095313056 3.1176336e-07 0)
(0.09486552 3.0047249e-07 0)
(0.094423158 2.8961167e-07 0)
(0.093985601 2.7913736e-07 0)
(0.093552622 2.6909314e-07 0)
(0.093123701 2.5948997e-07 0)
(0.092698552 2.5021363e-07 0)
(0.092276936 2.4127947e-07 0)
(0.091858457 2.3271102e-07 0)
(0.091442762 2.2441189e-07 0)
(0.091029776 2.1636509e-07 0)
(0.090619162 2.0867428e-07 0)
(0.090210389 2.0125807e-07 0)
(0.08980337 1.9401572e-07 0)
(0.089397961 1.8698871e-07 0)
(0.088993898 1.8021174e-07 0)
(0.088590817 1.7368652e-07 0)
(0.088188383 1.6735252e-07 0)
(0.087786471 1.6113984e-07 0)
(0.087385067 1.5511338e-07 0)
(0.086983691 1.4936361e-07 0)
(0.08658179 1.4380253e-07 0)
(0.086179268 1.3830911e-07 0)
(0.085776226 1.3295018e-07 0)
(0.085372173 1.2788953e-07 0)
(0.084966123 1.2301209e-07 0)
(0.084558192 1.1812709e-07 0)
(0.084148613 1.1333041e-07 0)
(0.083736874 1.0874602e-07 0)
(0.083322248 1.0432268e-07 0)
(0.082904485 9.9945907e-08 0)
(0.082483711 9.56673e-08 0)
(0.082059219 9.1590574e-08 0)
(0.081630122 8.7627998e-08 0)
(0.081196371 8.3702595e-08 0)
(0.08075776 7.9896599e-08 0)
(0.08031334 7.6236566e-08 0)
(0.079862464 7.2630555e-08 0)
(0.079405119 6.9090773e-08 0)
(0.078940418 6.5727208e-08 0)
(0.078477328 6.2533726e-08 0)
(0.078031221 5.9543632e-08 0)
(0.077605948 5.6932554e-08 0)
(0.077198053 5.4527459e-08 0)
(0.07680797 5.2156365e-08 0)
(0.076434767 4.9953959e-08 0)
(0.076076913 4.795444e-08 0)
(0.075732971 4.6109664e-08 0)
(0.07540211 4.4359815e-08 0)
(0.07508377 4.2710689e-08 0)
(0.074777043 4.119896e-08 0)
(0.074480828 3.9814109e-08 0)
(0.074194365 3.8504683e-08 0)
(0.073917309 3.7251071e-08 0)
(0.073649191 3.6074913e-08 0)
(0.07338935 3.5014082e-08 0)
(0.073136761 3.4037738e-08 0)
(0.072891211 3.3237136e-08 0)
(0.072650345 3.2334579e-08 0)
(0.07241801 3.2290302e-08 0)
(0.072177835 3.0937483e-08 0)
(0.071965471 3.8065115e-08 0)
(0.071620107 2.3661946e-08 -3.1138256e-23)
(1 3.3431781e-09 0)
(0.99998254 1.2175541e-08 0)
(0.9999419 2.2214063e-08 0)
(0.99988763 3.1529299e-08 0)
(0.99982275 4.1825398e-08 0)
(0.99974809 5.3770166e-08 0)
(0.99966437 6.7603774e-08 0)
(0.99957222 8.3697079e-08 0)
(0.99947195 1.0264381e-07 0)
(0.99936353 1.2520383e-07 0)
(0.99924658 1.5231684e-07 0)
(0.99912043 1.852129e-07 0)
(0.99898397 2.2556193e-07 0)
(0.9988356 2.7579618e-07 0)
(0.99867286 3.3927178e-07 0)
(0.99849236 4.2206974e-07 0)
(0.99828808 5.3073734e-07 0)
(0.9980536 6.9001692e-07 0)
(0.99776746 8.9727725e-07 0)
(0.99742898 1.3375143e-06 0)
(0.99690372 1.7646038e-06 0)
(0.99634852 5.2427662e-06 0)
(0.99387234 4.4114945e-06 0)
(0.99382972 0.0014856235 0)
(0.31960467 0.001622681 0)
(0.18421599 0.00014104764 0)
(0.17952472 3.824841e-06 0)
(0.17964617 2.8887217e-06 -3.3491891e-20)
(0.1760551 7.0813016e-06 1.5418861e-20)
(0.17144463 7.6401641e-06 0)
(0.16715909 6.8013256e-06 0)
(0.16346058 5.8246977e-06 0)
(0.1602524 5.0374003e-06 0)
(0.15742517 4.4192998e-06 0)
(0.15490269 3.9208206e-06 0)
(0.15262884 3.5398023e-06 0)
(0.15052528 3.2435414e-06 0)
(0.14857326 2.9805225e-06 0)
(0.14675618 2.7435337e-06 0)
(0.14506345 2.527365e-06 0)
(0.14348432 2.3350092e-06 0)
(0.14200363 2.1665469e-06 0)
(0.14060972 2.016426e-06 0)
(0.13929397 1.8831501e-06 6.7219343e-33)
(0.13804602 1.7644886e-06 0)
(0.13685963 1.6568573e-06 0)
(0.13572889 1.5584467e-06 0)
(0.1346496 1.4680313e-06 0)
(0.13361726 1.3860846e-06 0)
(0.13262671 1.310196e-06 0)
(0.13167651 1.2398433e-06 0)
(0.13076206 1.1766876e-06 0)
(0.12987924 1.1177001e-06 0)
(0.12902764 1.0621001e-06 0)
(0.1282042 1.0116762e-06 0)
(0.12740558 9.6451393e-07 0)
(0.12663146 9.1951087e-07 0)
(0.12588014 8.7836337e-07 0)
(0.12514842 8.4038323e-07 0)
(0.12443556 8.0368384e-07 0)
(0.12374134 7.6904422e-07 0)
(0.12306363 7.3742189e-07 0)
(0.12240047 7.0751508e-07 0)
(0.12175183 6.7937917e-07 0)
(0.12111544 6.535938e-07 0)
(0.12049016 6.2889245e-07 0)
(0.11987603 6.0459373e-07 0)
(0.11927315 5.8086816e-07 0)
(0.11868119 5.5838588e-07 0)
(0.11809886 5.3741637e-07 0)
(0.11752524 5.1737599e-07 0)
(0.11696013 4.9797905e-07 0)
(0.11640311 4.7949316e-07 0)
(0.11585338 4.6200213e-07 0)
(0.11531028 4.4526951e-07 0)
(0.11477345 4.2917637e-07 0)
(0.11424243 4.1366077e-07 0)
(0.11371695 3.9878085e-07 0)
(0.11319638 3.8454899e-07 0)
(0.11268039 3.7080221e-07 0)
(0.11216867 3.5756603e-07 0)
(0.11166074 3.448722e-07 0)
(0.11115618 3.3257472e-07 0)
(0.11065489 3.206494e-07 0)
(0.11015648 3.0925273e-07 0)
(0.10966029 2.982657e-07 0)
(0.10916621 2.8753551e-07 0)
(0.10867408 2.7712134e-07 0)
(0.10818357 2.6707806e-07 0)
(0.10769425 2.5740971e-07 0)
(0.1072057 2.48025e-07 0)
(0.10671777 2.3881863e-07 0)
(0.10623044 2.2988729e-07 0)
(0.10574315 2.2136673e-07 0)
(0.1052552 2.1312702e-07 0)
(0.10476649 2.0498691e-07 0)
(0.10427713 1.9704468e-07 0)
(0.10378655 1.8954485e-07 0)
(0.10329352 1.8231765e-07 0)
(0.1027982 1.7507894e-07 0)
(0.10230087 1.6797005e-07 0)
(0.10180091 1.6117588e-07 0)
(0.10129743 1.5462116e-07 0)
(0.10079013 1.4813527e-07 0)
(0.10027916 1.4179413e-07 0)
(0.099763672 1.3575224e-07 0)
(0.099242578 1.2988009e-07 0)
(0.098715818 1.2406279e-07 0)
(0.098183147 1.1842195e-07 0)
(0.097643411 1.1299768e-07 0)
(0.097095823 1.0765362e-07 0)
(0.096540364 1.0240742e-07 0)
(0.095975962 9.7422386e-08 0)
(0.095413503 9.2689583e-08 0)
(0.09487166 8.8258006e-08 0)
(0.094355112 8.4387988e-08 0)
(0.093859666 8.082346e-08 0)
(0.093385846 7.7309351e-08 0)
(0.09293252 7.4045045e-08 0)
(0.092497835 7.1081417e-08 0)
(0.092080042 6.8347309e-08 0)
(0.09167813 6.5753873e-08 0)
(0.091291425 6.3309545e-08 0)
(0.090918821 6.106882e-08 0)
(0.090558984 5.9016243e-08 0)
(0.090210989 5.7075543e-08 0)
(0.089874417 5.5217465e-08 0)
(0.0895487 5.347404e-08 0)
(0.089233036 5.1901495e-08 0)
(0.088926181 5.0454271e-08 0)
(0.088627874 4.9267157e-08 0)
(0.088335265 4.7929463e-08 0)
(0.088053003 4.7860987e-08 0)
(0.087761285 4.5853309e-08 -3.6683385e-23)
(0.087503281 5.6432557e-08 0)
(0.087083685 3.5064119e-08 0)
(1 3.9875091e-09 0)
(0.99998254 1.4522114e-08 0)
(0.9999419 2.649533e-08 0)
(0.99988763 3.7605959e-08 0)
(0.99982275 4.9886604e-08 0)
(0.99974809 6.4133798e-08 0)
(0.99966436 8.0634007e-08 0)
(0.99957221 9.9829547e-08 0)
(0.99947194 1.2242854e-07 0)
(0.99936352 1.4933727e-07 0)
(0.99924656 1.8167653e-07 0)
(0.9991204 2.2091339e-07 0)
(0.99898394 2.6903961e-07 0)
(0.99883556 3.289562e-07 0)
(0.99867282 4.0466608e-07 0)
(0.99849231 5.0342217e-07 0)
(0.99828802 6.3303368e-07 0)
(0.99805354 8.2301056e-07 0)
(0.99776739 1.070217e-06 0)
(0.99742891 1.5952867e-06 0)
(0.99690364 2.1047205e-06 0)
(0.99634844 6.2528569e-06 0)
(0.99387239 5.2629465e-06 0)
(0.99383067 0.0017108219 -7.9380518e-54)
(0.36948161 0.0018974846 1.1139528e-53)
(0.21931492 0.0001923404 -6.1486767e-19)
(0.21344646 5.5499821e-06 0)
(0.21340591 4.1733596e-06 -3.8621962e-20)
(0.20914354 1.0071733e-05 0)
(0.2037028 1.0855002e-05 0)