/*--------------------------------*- C++ -*----------------------------------*\
  =========                 |
  \\      /  F ield         | OpenFOAM: The Open Source CFD Toolbox
   \\    /   O peration     | Website:  https://openfoam.org
    \\  /    A nd           | Version:  12
     \\/     M anipulation  |
\*---------------------------------------------------------------------------*/
FoamFile
{
    format      ascii;
    class       volVectorField;
    location    "1900";
    object      U;
}
// * * * * * * * * * * * * * * * * * * * * * * * * * * * * * * * * * * * * * //

dimensions      [0 1 -1 0 0 0 0];

internalField   nonuniform List<vector> 
7480
(
(0.99717945 8.1007432e-05 1.4989861e-17)
(0.99545431 0.00018548052 0)
(0.99352814 0.00025519071 1.7963844e-19)
(0.99145694 0.00029809369 0)
(0.9892702 0.00032999103 0)
(0.98699002 0.00035200874 0)
(0.98462103 0.00036778679 0)
(0.98215765 0.00038026926 0)
(0.97959568 0.0003920266 0)
(0.97690662 0.00040065243 0)
(0.97413402 0.00042251793 0)
(0.97096901 0.00040427815 0)
(0.9683544 0.00063375845 0)
(0.96221001 0.00086044072 1.1769325e-16)
(0.95210784 0.0014577883 -2.6591721e-18)
(0.93960104 0.0019806608 0)
(0.92554144 0.0023183397 0)
(0.91058279 0.0025039086 0)
(0.89509386 0.0025823691 0)
(0.87950514 0.0025507993 0)
(0.8640128 0.0024702403 0)
(0.84878058 0.0023369757 0)
(0.83384977 0.0021313018 0)
(0.81901862 0.0018956606 0)
(0.80437094 0.0016871529 0)
(0.79007001 0.0015032179 0)
(0.77630132 0.0013244763 0)
(0.76341398 0.0011579345 0)
(0.75123075 0.0010172067 0)
(0.73978859 0.0008941058 0)
(0.72915476 0.00078231283 0)
(0.71938016 0.00067976905 0)
(0.71048623 0.00058587229 0)
(0.70246274 0.00050140205 0)
(0.69527187 0.00042706336 0)
(0.68885787 0.00036286956 0)
(0.68314805 0.00030819058 0)
(0.67807163 0.00026163391 0)
(0.67357097 0.00022150426 0)
(0.66959275 0.00018648236 0)
(0.66607369 0.00015658045 0)
(0.66294374 0.00013212911 0)
(0.66013632 0.00011270758 0)
(0.65759241 9.7059328e-05 0)
(0.65527309 8.5001724e-05 0)
(0.65311126 7.6605704e-05 0)
(0.65106798 7.1163635e-05 0)
(0.64910376 6.8014043e-05 0)
(0.6471844 6.6436755e-05 0)
(0.64528772 6.6509361e-05 0)
(0.64338195 6.8237707e-05 0)
(0.64143372 7.0840136e-05 0)
(0.63941946 7.3818059e-05 0)
(0.63733137 7.6664255e-05 0)
(0.63517403 7.9035705e-05 0)
(0.63295839 8.0661946e-05 0)
(0.63069717 8.1438504e-05 0)
(0.62840608 8.1216195e-05 0)
(0.62610418 8.0099591e-05 0)
(0.62380281 7.8522654e-05 0)
(0.62150611 7.6758505e-05 0)
(0.61921591 7.4900006e-05 0)
(0.61693625 7.2857898e-05 0)
(0.61467401 7.0629501e-05 0)
(0.61243483 6.8312902e-05 0)
(0.61022153 6.5939604e-05 0)
(0.6080377 6.3464219e-05 0)
(0.60588841 6.0926806e-05 0)
(0.60377445 5.8504641e-05 0)
(0.60169096 5.6287842e-05 0)
(0.59963326 5.4224013e-05 0)
(0.59760005 5.2259227e-05 0)
(0.59559123 5.037907e-05 0)
(0.59360651 4.854688e-05 0)
(0.59164729 4.6710019e-05 0)
(0.58971632 4.4886359e-05 0)
(0.58781327 4.3156645e-05 0)
(0.58593503 4.1535496e-05 0)
(0.5840787 4.0017141e-05 0)
(0.58224324 3.8561386e-05 0)
(0.58042875 3.7149581e-05 0)
(0.5786361 3.5755863e-05 0)
(0.57686719 3.437532e-05 0)
(0.57512143 3.307814e-05 0)
(0.5733958 3.1858258e-05 0)
(0.5716889 3.0693795e-05 0)
(0.56999987 2.9587766e-05 0)
(0.56832915 2.8490299e-05 0)
(0.56667857 2.7414496e-05 0)
(0.56504697 2.6409779e-05 0)
(0.56343189 2.5454445e-05 0)
(0.56183232 2.4543854e-05 0)
(0.56024797 2.36776e-05 0)
(0.55867754 2.2831614e-05 0)
(0.55712416 2.2057791e-05 0)
(0.55557015 2.1373612e-05 0)
(0.55405301 2.0236474e-05 0)
(0.55242722 3.3336116e-05 3.8777469e-20)
(0.55106525 2.2114537e-05 -2.1940894e-19)
(0.548555 3.3067728e-05 -5.1017046e-18)
(0.99846854 0.00034770443 0)
(0.99849086 0.0005162662 0)
(0.99854976 0.00061644795 -2.3231468e-19)
(0.99854884 0.00061385783 -2.9379477e-18)
(0.99852182 0.00062363299 0)
(0.99847432 0.00062986573 0)
(0.99841014 0.00063289119 0)
(0.99832544 0.00063563926 0)
(0.99821532 0.0006409949 0)
(0.99806561 0.0006467609 0)
(0.99787384 0.00067125717 0)
(0.99755994 0.00067979359 0)
(0.9971582 0.0008802859 0)
(0.99658013 0.0014057457 0)
(0.99574499 0.0020269167 0)
(0.99422863 0.0024020496 0)
(0.99176724 0.0025371441 0)
(0.98836058 0.0025551975 0)
(0.98411953 0.0025103861 0)
(0.97917028 0.0024353559 0)
(0.97353989 0.0023488159 0)
(0.96723026 0.0022654884 0)
(0.96031113 0.0022160093 0)
(0.95302535 0.0022010322 0)
(0.94537657 0.0021782248 0)
(0.93740469 0.0021234941 0)
(0.92912306 0.0020394519 0)
(0.92047817 0.0019260023 0)
(0.91165385 0.0017975983 0)
(0.90273184 0.001663133 0)
(0.89378325 0.0015234481 0)
(0.88486462 0.0013841493 0)
(0.87603954 0.0012466939 0)
(0.86737442 0.001113159 0)
(0.85893355 0.00098677519 0)
(0.85077507 0.0008702005 0)
(0.84294938 0.00076425745 0)
(0.83552371 0.00067122596 0)
(0.82846898 0.00059225349 0)
(0.82175375 0.00052422278 0)
(0.8153807 0.00046482396 0)
(0.80935229 0.00041378221 0)
(0.80366596 0.0003706027 0)
(0.7983003 0.00033388595 0)
(0.79322311 0.00030230347 0)
(0.78841844 0.00027600256 0)
(0.7838594 0.00025498411 0)
(0.77951798 0.00023805842 0)
(0.77537521 0.00022374248 0)
(0.77142292 0.00021347179 0)
(0.76757003 0.00020721507 0)
(0.76380224 0.00020261648 0)
(0.76012014 0.00019854957 0)
(0.75652664 0.00019437924 0)
(0.75302279 0.00019000482 0)
(0.74960454 0.00018531921 0)
(0.74626505 0.00018027439 0)
(0.74299864 0.00017488186 0)
(0.73978662 0.00016926087 0)
(0.7366191 0.00016358136 0)
(0.73349456 0.00015792631 0)
(0.73041474 0.00015229676 0)
(0.72738198 0.00014651161 0)
(0.72439965 0.00014062046 0)
(0.72146996 0.00013481066 0)
(0.71859277 0.0001290787 0)
(0.71576952 0.0001233508 0)
(0.71299898 0.00011776393 0)
(0.71027554 0.00011257876 0)
(0.70759368 0.0001078163 0)
(0.7049517 0.0001033109 0)
(0.70235095 9.8985412e-05 0)
(0.69979237 9.4850945e-05 0)
(0.69727538 9.0856263e-05 0)
(0.69480063 8.6926047e-05 0)
(0.69236824 8.3122001e-05 0)
(0.68997469 7.9572438e-05 0)
(0.6876161 7.6251864e-05 0)
(0.68529092 7.3124123e-05 0)
(0.68299932 7.0121849e-05 0)
(0.68074149 6.7227827e-05 0)
(0.67851785 6.4408345e-05 0)
(0.67632824 6.1669331e-05 0)
(0.67417032 5.9121396e-05 0)
(0.67204101 5.6722335e-05 0)
(0.66993972 5.4430928e-05 0)
(0.66786612 5.2255953e-05 0)
(0.66582047 5.0119891e-05 0)
(0.66380304 4.8059825e-05 0)
(0.66181155 4.6146667e-05 0)
(0.65984356 4.4326827e-05 0)
(0.65789854 4.2593469e-05 0)
(0.65597654 4.0950519e-05 0)
(0.65407537 3.9358918e-05 0)
(0.65219724 3.7926488e-05 0)
(0.65032394 3.6556715e-05 0)
(0.64849398 3.5718944e-05 0)
(0.64655937 3.6773769e-05 0)
(0.64491117 3.4834897e-05 0)
(0.64194817 3.7422378e-05 0)
(0.99850257 0.00034301269 0)
(0.99850923 0.00043731675 0)
(0.99854077 0.00045981732 0)
(0.9985551 0.00046016176 0)
(0.99854025 0.00046305133 0)
(0.99850538 0.00046794529 0)
(0.99845646 0.00047437634 0)
(0.99839037 0.0004834425 0)
(0.99830186 0.00049709018 0)
(0.99817969 0.00051500827 0)
(0.99801536 0.00055114217 0)
(0.99776282 0.00060765369 0)
(0.99741831 0.00084914423 0)
(0.99717923 0.0014284809 0)
(0.99721837 0.0020441154 0)
(0.99745919 0.0024942714 0)
(0.99771845 0.0027848413 0)
(0.99786237 0.0029912396 0)
(0.99783924 0.0031354341 0)
(0.99761549 0.0032217072 0)
(0.99715976 0.0032658118 0)
(0.99645149 0.0032847693 0)
(0.99547265 0.0032787549 0)
(0.99420748 0.0032531995 0)
(0.99263373 0.0031963446 0)
(0.99063913 0.0031118817 0)
(0.98813719 0.0030001578 0)
(0.98498322 0.0028762676 0)
(0.98119553 0.0027555463 0)
(0.97675072 0.0026322318 0)
(0.97160745 0.0024939533 0)
(0.96582341 0.0023389551 0)
(0.95943944 0.0021793997 0)
(0.9525146 0.0020194913 0)
(0.94513112 0.0018610763 0)
(0.93739009 0.0017055736 0)
(0.92940849 0.0015539017 0)
(0.92130563 0.0014082985 0)
(0.91321075 0.0012719166 0)
(0.90523099 0.0011464533 0)
(0.89745147 0.0010320635 0)
(0.88993995 0.00092900758 0)
(0.88274148 0.00084080916 0)
(0.87579404 0.00076717549 0)
(0.869096 0.00070383514 0)
(0.86267149 0.00064821456 0)
(0.85653368 0.00059906692 0)
(0.8506977 0.00055615529 0)
(0.84514761 0.00051867203 0)
(0.83985462 0.00048643735 0)
(0.83479942 0.00046064719 0)
(0.82996363 0.00044031139 0)
(0.82532428 0.00042259113 0)
(0.82086892 0.00040550236 0)
(0.81658603 0.00038878253 0)
(0.81245712 0.00037266244 0)
(0.80846442 0.00035731202 0)
(0.80458811 0.00034324572 0)
(0.80078104 0.00032998968 0)
(0.79704853 0.00031682328 0)
(0.79339629 0.00030377867 0)
(0.78982393 0.00029102129 0)
(0.78632758 0.00027837316 0)
(0.78290568 0.00026588236 0)
(0.77955777 0.00025379183 0)
(0.77628169 0.00024204013 0)
(0.77307701 0.00023062778 0)
(0.76993491 0.00021986522 0)
(0.76684606 0.00020995073 0)
(0.76380793 0.00020072056 0)
(0.76082176 0.00019188658 0)
(0.75788941 0.00018336668 0)
(0.75501124 0.0001752181 0)
(0.75218591 0.00016737869 0)
(0.74941362 0.00015976036 0)
(0.74669196 0.00015249991 0)
(0.74401505 0.00014576617 0)
(0.74137948 0.00013945555 0)
(0.73878507 0.0001334715 0)
(0.73623252 0.00012771595 0)
(0.73372176 0.00012217582 0)
(0.73125296 0.00011681914 0)
(0.72882428 0.00011167975 0)
(0.72643218 0.00010690815 0)
(0.72407389 0.00010240943 0)
(0.72174946 9.8104557e-05 0)
(0.71945878 9.4003491e-05 0)
(0.71720206 9.0008019e-05 0)
(0.71497837 8.618808e-05 0)
(0.71278472 8.2639502e-05 0)
(0.71061886 7.9267087e-05 0)
(0.70848057 7.6047091e-05 0)
(0.70637007 7.2993973e-05 0)
(0.7042846 7.0052964e-05 0)
(0.70222577 6.7422614e-05 0)
(0.70017512 6.4842221e-05 0)
(0.6981718 6.3330348e-05 0)
(0.69606582 6.0976604e-05 0)
(0.69426314 6.4404776e-05 0)
(0.69104708 5.9079343e-05 -4.1179226e-20)
(0.99853107 0.00033360635 0)
(0.99852831 0.00042234765 0)
(0.99855209 0.00047740381 0)
(0.99856392 0.00050945615 0)
(0.99854877 0.00053424107 0)
(0.99851363 0.00055698076 0)
(0.99846439 0.00057785697 0)
(0.99839836 0.00059828153 0)
(0.99831023 0.00062166959 0)
(0.99819041 0.00064952396 0)
(0.99802908 0.00069928859 0)
(0.99779664 0.00077053091 0)
(0.99749647 0.0010221145 0)
(0.99728432 0.0015264606 0)
(0.99731757 0.0020616336 0)
(0.9975672 0.0024751289 0)
(0.99789628 0.0027438433 0)
(0.99821174 0.0029168796 0)
(0.99849475 0.0030178227 0)
(0.99874544 0.0030587316 0)
(0.99895981 0.0030640028 0)
(0.99913595 0.0030496122 0)
(0.99927444 0.0030266596 0)
(0.99937459 0.0029967756 0)
(0.9994344 0.0029628812 0)
(0.99944211 0.0029248336 0)
(0.99937792 0.0028824642 0)
(0.99921342 0.0028388161 0)
(0.99891641 0.0027931298 0)
(0.99844548 0.0027403287 0)
(0.99775734 0.0026805671 0)
(0.99673494 0.002616484 0)
(0.99528926 0.0025471402 0)
(0.99333157 0.0024716201 0)
(0.99077219 0.0023897684 0)
(0.98752616 0.0023017736 0)
(0.98351996 0.0022060158 0)
(0.97869322 0.0020975154 0)
(0.97310739 0.0019796746 0)
(0.9668341 0.0018582188 0)
(0.95995541 0.0017335042 0)
(0.95259644 0.001606153 0)
(0.94492401 0.0014783835 0)
(0.93712615 0.0013575941 0)
(0.92934738 0.0012482886 0)
(0.92170271 0.0011478973 0)
(0.91428092 0.0010553133 0)
(0.90716787 0.0009749918 0)
(0.90027374 0.00090720675 0)
(0.8935986 0.00084901266 0)
(0.88721358 0.00079879478 0)
(0.88113675 0.00075351254 0)
(0.87537314 0.00071202646 0)
(0.86989665 0.00067393862 0)
(0.86466561 0.00063874846 0)
(0.85964473 0.00060623932 0)
(0.85481585 0.00057632571 0)
(0.85016112 0.00054876559 0)
(0.84567392 0.00052329761 0)
(0.84134242 0.00049942708 0)
(0.83714893 0.00047668784 0)
(0.83307618 0.00045513735 0)
(0.82910892 0.00043426182 0)
(0.82524335 0.00041381655 0)
(0.82147824 0.00039412964 0)
(0.81780863 0.00037517743 0)
(0.81422961 0.00035726219 0)
(0.81071798 0.00034072207 0)
(0.80726748 0.0003252977 0)
(0.80388477 0.00031060519 0)
(0.80057196 0.0002964285 0)
(0.79732838 0.00028278632 0)
(0.79415236 0.00026978158 0)
(0.79104159 0.00025730825 0)
(0.78799578 0.00024532388 0)
(0.78500788 0.00023407853 0)
(0.78206998 0.00022365536 0)
(0.7791814 0.0002137995 0)
(0.77634353 0.00020438866 0)
(0.77355689 0.0001953354 0)
(0.77082062 0.00018663846 0)
(0.76813459 0.00017828902 0)
(0.76549428 0.00017035898 0)
(0.76289524 0.00016299186 0)
(0.76033574 0.00015601898 0)
(0.75781655 0.0001493296 0)
(0.75533755 0.00014294361 0)
(0.75289879 0.00013676047 0)
(0.75049765 0.00013088741 0)
(0.74813057 0.00012542584 0)
(0.74579577 0.00012022918 0)
(0.7434934 0.00011525492 0)
(0.74122378 0.00011053955 0)
(0.73898337 0.00010601749 0)
(0.73677309 0.00010198636 0)
(0.73457458 9.7965244e-05 0)
(0.73242737 9.5657463e-05 0)
(0.73018022 9.142197e-05 0)
(0.72825238 9.9935422e-05 0)
(0.72482984 8.5155303e-05 3.3089408e-20)
(0.99855874 0.00033731019 0)
(0.99854956 0.00042464815 0)
(0.99856419 0.00048249596 0)
(0.99856969 0.00051102557 0)
(0.99855195 0.00052790097 0)
(0.99851577 0.00054309489 0)
(0.99846602 0.00055788247 0)
(0.99840024 0.00057391214 0)
(0.9983132 0.00059505577 0)
(0.99819634 0.00062482804 0)
(0.99804081 0.00067822972 0)
(0.99782751 0.00077043392 0)
(0.99756459 0.0010088844 0)
(0.99737686 0.0014592545 0)
(0.99740135 0.0019620033 0)
(0.99762451 0.0023703307 0)
(0.99793118 0.0026436141 0)
(0.99823412 0.0028222025 0)
(0.99851465 0.0029360104 0)
(0.99877469 0.0029992418 0)
(0.99901024 0.0030308187 0)
(0.99922038 0.0030450241 0)
(0.99940876 0.0030459726 0)
(0.99958159 0.0030400482 0)
(0.9997435 0.0030244614 0)
(0.99989429 0.0029969211 0)
(1.0000314 0.0029572078 0)
(1.0001524 0.0029076609 0)
(1.0002566 0.0028518582 0)
(1.0003449 0.0027921217 0)
(1.000415 0.002729422 0)
(1.0004598 0.0026648609 0)
(1.0004696 0.0026002017 0)
(1.0004305 0.0025371582 0)
(1.0003208 0.0024770831 0)
(1.0001069 0.002420481 0)
(0.99974153 0.0023670224 0)
(0.99914714 0.0023168607 0)
(0.99818928 0.0022684094 0)
(0.99674532 0.0022177286 0)
(0.99468737 0.0021621047 0)
(0.9918795 0.0021001681 0)
(0.98819292 0.0020335248 0)
(0.98361144 0.0019563354 0)
(0.97820719 0.00186361 0)
(0.97206285 0.0017620965 0)
(0.96529083 0.0016540126 0)
(0.95805948 0.0015413451 0)
(0.95058968 0.0014321575 0)
(0.94304943 0.0013328603 0)
(0.93559619 0.0012414186 0)
(0.92834347 0.0011559614 0)
(0.92140609 0.0010801372 0)
(0.91470865 0.0010151939 0)
(0.90822197 0.00095691123 0)
(0.90197018 0.00090239888 0)
(0.89597609 0.0008512106 0)
(0.89026288 0.00080413365 0)
(0.88484194 0.00076146418 0)
(0.87966308 0.00072191306 0)
(0.87468391 0.00068523259 0)
(0.86988045 0.00065132697 0)
(0.86523905 0.00061894698 0)
(0.86075848 0.00058760809 0)
(0.85642651 0.00055788652 0)
(0.85222644 0.00052995775 0)
(0.84814099 0.00050372242 0)
(0.84416431 0.00047933735 0)
(0.84029445 0.00045672145 0)
(0.83652651 0.00043536254 0)
(0.83285239 0.00041491431 0)
(0.82926553 0.00039534202 0)
(0.8257626 0.00037671794 0)
(0.82234076 0.0003588732 0)
(0.81899831 0.00034194119 0)
(0.81571954 0.00032624395 0)
(0.81249761 0.00031157329 0)
(0.80933821 0.00029752272 0)
(0.80624291 0.0002840551 0)
(0.80321048 0.00027113627 0)
(0.80023872 0.00025876091 0)
(0.79732704 0.000246988 0)
(0.79446637 0.00023592183 0)
(0.79165264 0.00022560002 0)
(0.78888624 0.00021577375 0)
(0.78616849 0.0002063314 0)
(0.7834987 0.00019731403 0)
(0.78087659 0.00018864207 0)
(0.77829676 0.00018045939 0)
(0.7757556 0.00017283461 0)
(0.77325234 0.00016556442 0)
(0.77078746 0.00015859322 0)
(0.76836121 0.00015199202 0)
(0.76596878 0.00014569026 0)
(0.7636103 0.0001400804 0)
(0.7612679 0.00013442584 0)
(0.75898147 0.000131234 0)
(0.75659859 0.00012491053 1.7993206e-20)
(0.75455135 0.00013917723 0)
(0.75093312 0.00011309623 0)
(0.99858485 0.00034324464 0)
(0.99857018 0.00042451442 0)
(0.99857619 0.00048056322 0)
(0.99857615 0.00051127073 0)
(0.99855703 0.00053305189 0)
(0.99852106 0.00055527462 0)
(0.99847176 0.00057866205 0)
(0.99840694 0.00060419825 0)
(0.99832164 0.00063565647 0)
(0.99820844 0.00067744914 0)
(0.99805989 0.00074428794 0)
(0.99786431 0.00085478096 0)
(0.99763373 0.001088554 0)
(0.99746956 0.0015026126 0)
(0.99748892 0.0019750267 0)
(0.99768896 0.0023667593 0)
(0.99797261 0.0026337225 0)
(0.99825929 0.0028103018 0)
(0.99852703 0.0029260197 0)
(0.99877624 0.0029923295 0)
(0.99900446 0.0030252078 0)
(0.99921073 0.0030341664 0)
(0.99939809 0.0030295568 0)
(0.9995716 0.0030150005 0)
(0.99973568 0.0029905669 0)
(0.99989119 0.0029547443 0)
(1.0000356 0.0029084373 0)
(1.0001664 0.0028548114 0)
(1.0002839 0.0027983107 0)
(1.0003903 0.002740685 0)
(1.0004865 0.0026808436 0)
(1.0005721 0.0026191925 0)
(1.0006467 0.0025577003 0)
(1.0007107 0.0024979502 0)
(1.0007655 0.0024410875 0)
(1.0008115 0.0023878812 0)
(1.0008484 0.0023390243 0)
(1.0008743 0.0022945842 0)
(1.0008828 0.0022540285 0)
(1.000863 0.0022176527 0)
(1.0007964 0.0021856757 0)
(1.0006501 0.002157793 0)
(1.0003664 0.0021328615 0)
(0.99986013 0.0021092191 0)
(0.99895614 0.002084184 0)
(0.99748953 0.0020540589 0)
(0.99530313 0.0020155688 0)
(0.99221882 0.0019709423 0)
(0.98820228 0.0019168145 0)
(0.98330274 0.001844808 0)
(0.97760871 0.0017595597 0)
(0.97123706 0.0016645386 0)
(0.96436695 0.0015622422 0)
(0.95723286 0.0014613168 0)
(0.95002691 0.0013680829 0)
(0.94290369 0.0012809839 0)
(0.93596156 0.0011985442 0)
(0.9293057 0.0011247552 0)
(0.9228456 0.0010604584 0)
(0.91655942 0.0010013932 0)
(0.91048843 0.00094545595 0)
(0.90466539 0.00089265935 0)
(0.89911513 0.00084304933 0)
(0.89379906 0.00079699391 0)
(0.88867501 0.00075413013 0)
(0.88372305 0.00071442909 0)
(0.87892992 0.00067732296 0)
(0.87431471 0.00064264184 0)
(0.86987316 0.00061030075 0)
(0.86558101 0.00058017686 0)
(0.86141502 0.0005517952 0)
(0.85736703 0.00052473869 0)
(0.85343402 0.00049906346 0)
(0.84960963 0.00047467862 0)
(0.84588415 0.0004516382 0)
(0.84225086 0.00043025023 0)
(0.83870608 0.00041033758 0)
(0.83524644 0.00039135396 0)
(0.83186753 0.00037321287 0)
(0.82856492 0.00035588001 0)
(0.82533516 0.00033930603 0)
(0.82217697 0.00032370052 0)
(0.81907399 0.00030912328 0)
(0.81602635 0.00029539838 0)
(0.81303734 0.00028224399 0)
(0.81010751 0.00026960482 0)
(0.80723488 0.0002575494 0)
(0.8044185 0.00024605999 0)
(0.80164879 0.00023529429 0)
(0.79892371 0.00022521201 0)
(0.7962439 0.00021556834 0)
(0.79360977 0.00020631349 0)
(0.79102115 0.00019757226 0)
(0.78847127 0.00018927283 0)
(0.78595971 0.00018188139 0)
(0.7834695 0.00017437918 0)
(0.78104098 0.00017015784 0)
(0.77851994 0.00016121559 0)
(0.77635206 0.00018214149 4.734868e-20)
(0.77253677 0.00014294604 0)
(0.99860938 0.00035050674 0)
(0.99859035 0.0004257443 0)
(0.99858912 0.0004812878 0)
(0.99858423 0.00051597119 0)
(0.99856362 0.00054206615 0)
(0.99852745 0.00056751123 0)
(0.99847815 0.00059352656 0)
(0.99841394 0.00062146281 0)
(0.9983303 0.00065550356 0)
(0.99822093 0.00070128499 0)
(0.99807986 0.00077308071 0)
(0.9979009 0.00089095982 0)
(0.99769871 0.0011160999 0)
(0.99755609 0.0014939837 0)
(0.99757201 0.0019305843 0)
(0.99775136 0.0023015992 0)
(0.99801388 0.0025622456 0)
(0.9982859 0.0027386345 0)
(0.99854327 0.0028572984 0)
(0.9987846 0.0029288608 0)
(0.9990075 0.002965651 0)
(0.99921032 0.0029810492 0)
(0.99939513 0.0029820223 0)
(0.99956631 0.0029733763 0)
(0.99972771 0.0029552449 0)
(0.99987995 0.0029265152 0)
(1.0000213 0.0028879469 0)
(1.00015 0.0028421395 0)
(1.0002664 0.0027925732 0)
(1.0003725 0.0027402791 0)
(1.0004695 0.0026842764 0)
(1.0005567 0.0026253821 0)
(1.0006338 0.0025657974 0)
(1.0007017 0.0025071361 0)
(1.000761 0.0024505677 0)
(1.0008128 0.0023970234 0)
(1.0008584 0.002347161 0)
(1.0008986 0.0023008737 0)
(1.0009346 0.002258402 0)
(1.000967 0.0022202847 0)
(1.0009967 0.0021863988 0)
(1.0010239 0.0021566207 0)
(1.0010482 0.002130792 0)
(1.0010675 0.0021084154 0)
(1.0010743 0.0020891861 0)
(1.0010524 0.0020727308 0)
(1.0009757 0.0020588268 0)
(1.0007898 0.0020466126 0)
(1.0004195 0.0020338509 0)
(0.99968648 0.0020181041 0)
(0.998391 0.0019963328 0)
(0.99635554 0.0019652243 0)
(0.99337765 0.0019253798 0)
(0.989417 0.0018731403 0)
(0.98458285 0.0018035089 0)
(0.97897995 0.0017211101 0)
(0.97275485 0.0016280011 0)
(0.96610651 0.0015289559 0)
(0.95926843 0.0014333241 0)
(0.95241082 0.0013451665 0)
(0.94565608 0.001263247 0)
(0.93909047 0.0011864627 0)
(0.9327862 0.0011183998 0)
(0.92658317 0.0010572558 0)
(0.92052074 0.00099863523 0)
(0.91465337 0.00094230476 0)
(0.90902839 0.00088906352 0)
(0.90363132 0.00083991617 0)
(0.89843121 0.00079455914 0)
(0.89341101 0.00075281945 0)
(0.88856155 0.00071370032 0)
(0.88388583 0.00067659694 0)
(0.87937377 0.00064173014 0)
(0.87500748 0.00060914188 0)
(0.87076781 0.00057860847 0)
(0.8666624 0.00055011886 0)
(0.862692 0.00052349109 0)
(0.85884023 0.00049830414 0)
(0.85509333 0.00047445795 0)
(0.85144391 0.0004517896 0)
(0.84788762 0.00043020008 0)
(0.84441918 0.00040986792 0)
(0.84103286 0.00039092021 0)
(0.83772428 0.00037316146 0)
(0.83449009 0.00035617673 0)
(0.83132746 0.00033990068 0)
(0.82823261 0.00032440275 0)
(0.82520372 0.00030978032 0)
(0.82222521 0.00029611666 0)
(0.81930007 0.00028320817 0)
(0.81642992 0.00027082334 0)
(0.81361422 0.00025894363 0)
(0.81085193 0.00024777685 0)
(0.80813339 0.00023724156 0)
(0.80545845 0.00022782983 0)
(0.80281157 0.0002182243 0)
(0.80023338 0.00021277825 0)
(0.79756689 0.00020079908 0)
(0.7952726 0.00022917593 4.4500982e-20)
(0.79125155 0.0001751553 0)
(0.99863257 0.00035911425 0)
(0.99861018 0.00042897885 0)
(0.99860286 0.00048387809 0)
(0.99859346 0.0005213513 0)
(0.99857114 0.00055038911 0)
(0.99853468 0.00057835905 0)
(0.99848559 0.00060747155 0)
(0.99842234 0.00063951892 0)
(0.9983409 0.00067880125 0)
(0.99823597 0.00073157797 0)
(0.99810305 0.00081130811 0)
(0.99793995 0.00093798611 0)
(0.99776283 0.0011586813 0)
(0.99763965 0.0015080346 0)
(0.99765356 0.0019139117 0)
(0.99781455 0.0022681259 0)
(0.99805713 0.0025250131 0)
(0.99831465 0.0027023969 0)
(0.99856161 0.0028240938 0)
(0.99879514 0.0029004452 0)
(0.99901278 0.0029426044 0)
(0.9992123 0.0029621675 0)
(0.99939495 0.0029665237 0)
(0.99956447 0.0029601713 0)
(0.9997242 0.0029435058 0)
(0.99987477 0.0029158169 0)
(1.0000146 0.0028778846 0)
(1.0001423 0.0028321623 0)
(1.0002579 0.0027819083 0)
(1.0003633 0.0027285092 0)
(1.0004594 0.0026716755 0)
(1.0005459 0.0026123954 0)
(1.0006223 0.0025527239 0)
(1.0006893 0.0024942188 0)
(1.0007481 0.0024380351 0)
(1.0007999 0.0023850721 0)
(1.0008458 0.0023358975 0)
(1.000887 0.0022904949 0)
(1.0009243 0.0022490461 0)
(1.0009586 0.0022118019 0)
(1.0009907 0.0021784666 0)
(1.0010211 0.0021489012 0)
(1.0010503 0.0021229922 0)
(1.0010788 0.0021004726 0)
(1.0011074 0.0020809825 0)
(1.0011361 0.0020640662 0)
(1.0011648 0.0020494149 0)
(1.0011931 0.0020365744 0)
(1.0012192 0.0020253122 0)
(1.0012368 0.0020158192 0)
(1.0012288 0.0020079105 0)
(1.0011662 0.0020009472 0)
(1.0009876 0.0019937838 0)
(1.0005975 0.0019841148 0)
(0.99977641 0.0019684063 0)
(0.99831224 0.0019432912 0)
(0.99601452 0.0019075416 0)
(0.9926685 0.0018585772 0)
(0.98835951 0.0017963608 0)
(0.98324539 0.0017223069 0)
(0.97747486 0.0016375065 0)
(0.97122879 0.0015450555 0)
(0.96473 0.0014515311 0)
(0.95817055 0.0013641733 0)
(0.95166201 0.001284329 0)
(0.94527648 0.0012088954 0)
(0.93911293 0.0011406174 0)
(0.93302653 0.0010788339 0)
(0.92703484 0.0010197674 0)
(0.9212079 0.00096289923 0)
(0.91560996 0.00090907636 0)
(0.910224 0.00085918095 0)
(0.90501672 0.00081278955 0)
(0.8999755 0.00076965345 0)
(0.89509917 0.00072904539 0)
(0.89039813 0.00069084157 0)
(0.88586709 0.00065534056 0)
(0.88148723 0.00062227322 0)
(0.87724553 0.00059119204 0)
(0.87313639 0.00056178159 0)
(0.86915265 0.00053399989 0)
(0.86528096 0.0005079985 0)
(0.86152672 0.00048374343 0)
(0.85788288 0.00046096945 0)
(0.85433757 0.00043932081 0)
(0.85088214 0.000418718 0)
(0.84751064 0.00039917464 0)
(0.84421866 0.0003807216 0)
(0.84100199 0.00036351797 0)
(0.83785597 0.00034733672 0)
(0.83477707 0.00033184099 0)
(0.83176269 0.00031700092 0)
(0.82881057 0.00030313633 0)
(0.82590708 0.00029010677 0)
(0.82305417 0.00027838562 0)
(0.82023799 0.0002663717 0)
(0.81749889 0.00025946952 0)
(0.81467584 0.00024406218 -7.3677814e-21)
(0.81224589 0.00028064572 0)
(0.80800494 0.00021006606 -1.197968e-20)
(0.99865462 0.00036872861 0)
(0.99862965 0.0004338255 0)
(0.99861722 0.0004877277 0)
(0.99860375 0.00052729948 0)
(0.99857973 0.00055916965 0)
(0.99854304 0.0005900158 0)
(0.99849434 0.00062253516 0)
(0.99843226 0.00065867124 0)
(0.99835325 0.00070262283 0)
(0.99825299 0.0007609469 0)
(0.99812838 0.00084629237 0)
(0.9979801 0.00097768397 0)
(0.99782493 0.0011915946 0)
(0.99771908 0.0015139463 0)
(0.99773207 0.0018893667 0)
(0.99787684 0.0022250441 0)
(0.99810062 0.0024753581 0)
(0.99834389 0.0026512482 0)
(0.99858055 0.0027739154 0)
(0.99880628 0.0028535507 0)
(0.99901846 0.0028996656 0)
(0.99921445 0.0029226509 0)
(0.99939481 0.0029299437 0)
(0.99956259 0.0029259014 0)
(0.99972072 0.0029113559 0)
(0.99986982 0.0028859961 0)
(1.0000086 0.002850667 0)
(1.0001355 0.0028077056 0)
(1.0002509 0.0027601412 0)
(1.0003561 0.0027094637 0)
(1.0004521 0.0026555743 0)
(1.0005386 0.0025992486 0)
(1.0006152 0.0025422809 0)
(1.0006825 0.0024861726 0)
(1.0007417 0.0024320478 0)
(1.0007938 0.0023807721 0)
(1.00084 0.0023329166 0)
(1.0008814 0.0022885581 0)
(1.0009189 0.0022478554 0)
(1.0009531 0.0022110509 0)
(1.0009849 0.0021780052 0)
(1.0010151 0.0021486802 0)
(1.0010443 0.0021230154 0)
(1.0010733 0.0021006714 0)
(1.0011025 0.0020811778 0)
(1.0011325 0.0020640026 0)
(1.0011632 0.0020487511 0)
(1.0011947 0.0020351776 0)
(1.0012268 0.002023248 0)
(1.0012596 0.0020129203 0)
(1.0012934 0.0020038249 0)
(1.001328 0.0019955103 0)
(1.0013627 0.0019872927 0)
(1.0013953 0.0019787532 0)
(1.0014154 0.0019699878 0)
(1.0014007 0.0019610668 0)
(1.0013054 0.0019514762 0)
(1.0010525 0.001941056 0)
(1.0004445 0.0019268236 0)
(0.9992448 0.0019039514 0)
(0.9972349 0.0018711377 0)
(0.99421884 0.0018236462 0)
(0.99012171 0.0017612645 0)
(0.98520797 0.0016907943 0)
(0.97966114 0.0016107754 0)
(0.97366243 0.0015235473 0)
(0.96742239 0.0014346396 0)
(0.96111585 0.0013507419 0)
(0.95484073 0.0012742366 0)
(0.94865734 0.001202162 0)
(0.94266057 0.0011364723 0)
(0.93670719 0.0010761391 0)
(0.93082883 0.0010177265 0)
(0.92510196 0.00096117897 0)
(0.91958569 0.00090771739 0)
(0.91425048 0.00085814089 0)
(0.90907766 0.0008120137 0)
(0.90406931 0.00076896758 0)
(0.89923447 0.00072853659 0)
(0.89457015 0.00069052866 0)
(0.89006257 0.0006550225 0)
(0.88569484 0.00062179992 0)
(0.88147063 0.00059055896 0)
(0.87738861 0.00056138764 0)
(0.87343476 0.00053397502 0)
(0.86959736 0.00050806389 0)
(0.86586968 0.00048360378 0)
(0.86224285 0.00046059213 0)
(0.85872337 0.00043914745 0)
(0.85529932 0.00041898861 0)
(0.85196095 0.00039978568 0)
(0.84870206 0.00038149017 0)
(0.84551744 0.00036440317 0)
(0.84240074 0.00034836323 0)
(0.83935159 0.00033395038 0)
(0.83635018 0.00031921819 0)
(0.83343555 0.00031064119 0)
(0.83044118 0.00029141131 0)
(0.82786321 0.00033697869 4.2732926e-20)
(0.82338353 0.00024800113 0)
(0.99867572 0.00037919138 0)
(0.99864879 0.00044012014 0)
(0.99863214 0.00049286294 0)
(0.99861508 0.00053411246 0)
(0.99858944 0.00056864724 0)
(0.99855255 0.00060225857 0)
(0.99850436 0.00063788464 0)
(0.99844358 0.00067769444 0)
(0.99836724 0.00072587585 0)
(0.99827189 0.00078915119 0)
(0.99815569 0.00087936854 0)
(0.99802135 0.001014046 0)
(0.99788559 0.0012216205 0)
(0.99779524 0.0015210296 0)
(0.99780818 0.0018692794 0)
(0.99793874 0.0021876041 0)
(0.99814498 0.0024316787 0)
(0.99837436 0.0026067326 0)
(0.99860085 0.0027310915 0)
(0.99881878 0.0028145208 0)
(0.99902532 0.0028650962 0)
(0.99921754 0.0028921841 0)
(0.99939537 0.0029030487 0)
(0.99956124 0.0029019366 0)
(0.99971764 0.0028900084 0)
(0.99986518 0.0028672384 0)
(1.0000027 0.0028344943 0)
(1.0001289 0.002793964 0)
(1.0002438 0.0027484322 0)
(1.0003488 0.0026994201 0)
(1.0004446 0.0026470164 0)
(1.0005311 0.0025919612 0)
(1.0006079 0.002535984 0)
(1.0006756 0.0024806398 0)
(1.0007353 0.0024270866 0)
(1.0007879 0.0023762082 0)
(1.0008347 0.0023286099 0)
(1.0008767 0.0022844437 0)
(1.0009147 0.002243876 0)
(1.0009494 0.0022071594 0)
(1.0009817 0.0021742153 0)
(1.0010123 0.0021449805 0)
(1.0010418 0.0021193529 0)
(1.0010709 0.002096982 0)
(1.0011002 0.0020774253 0)
(1.0011299 0.0020602141 0)
(1.0011603 0.0020450311 0)
(1.0011913 0.0020316739 0)
(1.0012233 0.0020199946 0)
(1.0012564 0.00200977 0)
(1.0012911 0.0020005441 0)
(1.0013277 0.0019918187 0)
(1.0013659 0.0019831003 0)
(1.0014048 0.0019741052 0)
(1.0014442 0.0019648812 0)
(1.0014837 0.0019553024 0)
(1.0015225 0.0019455607 0)
(1.0015595 0.0019355372 0)
(1.0015887 0.0019250413 0)
(1.0015909 0.0019144372 0)
(1.0015227 0.001903474 0)
(1.0013146 0.0018917094 0)
(1.0007601 0.0018774873 0)
(0.99960072 0.0018551379 0)
(0.99759998 0.0018226586 0)
(0.99456066 0.0017738352 0)
(0.99043111 0.00170939 0)
(0.9854864 0.0016388781 0)
(0.97997149 0.0015612751 0)
(0.97408455 0.0014781726 0)
(0.96802448 0.0013940105 0)
(0.96192781 0.001315205 0)
(0.95586747 0.0012432152 0)
(0.94989534 0.0011751437 0)
(0.94407051 0.0011126761 0)
(0.93824367 0.0010541084 0)
(0.93249148 0.00099678006 0)
(0.92690029 0.00094174146 0)
(0.92148972 0.00089026019 0)
(0.91623897 0.00084215335 0)
(0.91114474 0.00079717387 0)
(0.90621324 0.000754909 0)
(0.90145145 0.00071510332 0)
(0.89685388 0.00067813448 0)
(0.89240642 0.00064361408 0)
(0.88810544 0.00061106644 0)
(0.8839462 0.00058053506 0)
(0.87991428 0.00055185349 0)
(0.87600923 0.00052500422 0)
(0.8722259 0.00049990359 0)
(0.86855396 0.00047619294 0)
(0.86498345 0.00045375766 0)
(0.86150579 0.00043284894 0)
(0.85812225 0.00041323163 0)
(0.85482951 0.00039558516 0)
(0.85160083 0.00037765582 0)
(0.84847246 0.00036705326 0)
(0.84527181 0.0003433579 0)
(0.84252859 0.0003985784 0)
(0.83778689 0.00028927787 0)
(0.99869605 0.00039036768 0)
(0.99866765 0.00044769262 0)
(0.99864756 0.0004992202 0)
(0.99862739 0.00054177112 0)
(0.99860025 0.0005786931 0)
(0.9985632 0.00061489088 0)
(0.99851564 0.00065342977 0)
(0.99845636 0.00069672175 0)
(0.9983829 0.00074891599 0)
(0.99829265 0.00081667103 0)
(0.99818482 0.00091093841 0)
(0.9980635 0.0010474321 0)
(0.99794492 0.0012484029 0)
(0.9978683 0.0015272983 0)
(0.99788176 0.0018502936 0)
(0.99799989 0.0021512099 0)
(0.99818981 0.0023880645 0)
(0.9984057 0.0025613915 0)
(0.99862213 0.0026865127 0)
(0.99883226 0.0027726515 0)
(0.99903299 0.002826796 0)
(0.99922124 0.002857313 0)
(0.99939634 0.0028711593 0)
(0.99956014 0.0028725051 0)
(0.99971473 0.0028627681 0)
(0.99986063 0.0028421878 0)
(0.99999685 0.0028116855 0)
(1.0001222 0.0027733373 0)
(1.0002367 0.0027297365 0)
(1.0003413 0.0026824448 0)
(1.000437 0.0026317545 0)