/*--------------------------------*- C++ -*----------------------------------*\
  =========                 |
  \\      /  F ield         | OpenFOAM: The Open Source CFD Toolbox
   \\    /   O peration     | Website:  https://openfoam.org
    \\  /    A nd           | Version:  12
     \\/     M anipulation  |
\*---------------------------------------------------------------------------*/
FoamFile
{
    format      ascii;
    class       volScalarField;
    location    "1300";
    object      epsilon;
}
// * * * * * * * * * * * * * * * * * * * * * * * * * * * * * * * * * * * * * //

dimensions      [0 2 -3 0 0 0 0];

internalField   nonuniform List<scalar> 
7480
(
0.0027402523
0.0047854116
0.008519596
0.014880117
0.025279082
0.041573539
0.065894984
0.10024899
0.14589992
0.20263106
0.26820404
0.33851824
0.40830437
0.47222897
0.52593215
0.56695272
0.59353512
0.61205559
0.61138705
0.60607942
0.5945688
0.57877576
0.56048741
0.54120129
0.52212909
0.50423382
0.48826473
0.47476589
0.46408517
0.45633126
0.45129761
0.44844079
0.44695162
0.44594766
0.44471549
0.44286495
0.4403331
0.43727169
0.43389277
0.43035395
0.42672378
0.42301019
0.41921112
0.41534748
0.41146273
0.40760239
0.4037961
0.40005434
0.39637724
0.39276372
0.38921436
0.38572927
0.38230814
0.37894948
0.37565131
0.37241205
0.36923033
0.36610435
0.36303225
0.36001328
0.35704583
0.35412759
0.35125668
0.34843167
0.34565125
0.34291434
0.34021986
0.33756663
0.33495355
0.33237956
0.32984356
0.32734453
0.32488157
0.32245369
0.32005997
0.31769954
0.3153716
0.31307535
0.31081004
0.3085749
0.30636923
0.30419232
0.30204349
0.29992206
0.29782738
0.2957588
0.29371568
0.29169736
0.28970325
0.28773252
0.28578471
0.28385853
0.28195425
0.2800677
0.27820413
0.27634459
0.2745224
0.27262354
0.2710242
0.26808214
8.3924494e-05
0.00017264106
0.00029408977
0.0004747538
0.00076038287
0.0012263859
0.0019883412
0.0032037293
0.0050529214
0.0076956829
0.011215254
0.015656678
0.020965175
0.026879891
0.033040187
0.039121732
0.044758311
0.050188889
0.055069917
0.059868193
0.065174007
0.072087559
0.080778405
0.090189102
0.10041195
0.11166176
0.12397866
0.13707086
0.15047114
0.16346399
0.17507768
0.18436518
0.19068667
0.1939366
0.19455018
0.19330743
0.19104896
0.18844349
0.18586521
0.18342507
0.18108947
0.17879472
0.17651454
0.17426786
0.17209076
0.17000682
0.16801831
0.16611413
0.16428047
0.16250785
0.1607905
0.15912364
0.15750249
0.15592294
0.15438174
0.1528761
0.15140345
0.14996163
0.14854902
0.14716474
0.14580723
0.14447488
0.14316655
0.14188151
0.14061908
0.13937862
0.13815953
0.13696121
0.13578309
0.13462464
0.13348534
0.13236474
0.13126237
0.13017779
0.12911061
0.12806043
0.12702685
0.12600948
0.12500794
0.12402185
0.12305086
0.1220946
0.12115272
0.12022488
0.11931073
0.11840994
0.11752217
0.11664711
0.11578442
0.11493375
0.1140948
0.1132672
0.11245064
0.11164456
0.11084875
0.11006172
0.10928559
0.10850176
0.10780579
0.10661802
1.7643374e-05
2.9352832e-05
4.393365e-05
6.1663346e-05
8.3957152e-05
0.00011293961
0.00015137344
0.00020254327
0.00026996334
0.00035701943
0.00046664834
0.00060178543
0.00076520614
0.00095835774
0.0011805382
0.0014291691
0.0016981232
0.0019836608
0.0022797481
0.00258601
0.0029100725
0.003281707
0.0037430098
0.0043447469
0.00515593
0.0062714714
0.0078023312
0.01002045
0.013194322
0.017631956
0.024162544
0.032081853
0.041077135
0.050736516
0.060393007
0.069381348
0.07707794
0.083042874
0.087158767
0.089621314
0.090830002
0.091239502
0.091232113
0.091044734
0.090775865
0.090441901
0.090034589
0.089555204
0.089021446
0.088455476
0.087872433
0.087278377
0.086674663
0.086062328
0.085443284
0.084819534
0.084192551
0.083563359
0.082932786
0.08230157
0.081670483
0.081040184
0.08041127
0.07978433
0.079159921
0.078538556
0.077920704
0.077306771
0.076697111
0.076092047
0.075491874
0.074896862
0.074307247
0.073723241
0.073145039
0.072572803
0.072006666
0.071446734
0.070893091
0.070345798
0.069804897
0.069270412
0.068742347
0.068220693
0.067705428
0.067196516
0.066693913
0.066197568
0.065707413
0.065223384
0.064745385
0.064273354
0.063807108
0.063346699
0.062891579
0.062442357
0.061998011
0.061553149
0.061157388
0.060477763
1.0843278e-05
1.3719688e-05
1.7541549e-05
2.2039782e-05
2.7222703e-05
3.3237908e-05
4.0304206e-05
4.8673987e-05
5.8600788e-05
7.0311312e-05
8.3983404e-05
9.9756809e-05
0.00011774339
0.00013800586
0.00016052561
0.00018519608
0.0002117804
0.00024000949
0.00026955319
0.00030012817
0.00033155165
0.00036408508
0.00039838728
0.00043596912
0.00047928617
0.00053215666
0.00060005388
0.00069219406
0.00082384205
0.0010163426
0.0013228774
0.0018020635
0.0025397571
0.003633365
0.0053178553
0.0077451811
0.011297572
0.015954933
0.021346372
0.027092812
0.032776166
0.037995682
0.04242013
0.045883501
0.048407129
0.050158018
0.051365128
0.052232892
0.052891999
0.053401895
0.05378204
0.054043673
0.054203772
0.054282982
0.054298762
0.054262575
0.054181714
0.054061952
0.053908622
0.053726441
0.053519382
0.053290721
0.053043246
0.052779427
0.052501457
0.052211273
0.05191059
0.051600921
0.051283611
0.050959874
0.0506308
0.050297377
0.049960492
0.049620946
0.049279467
0.048936707
0.048593256
0.048249636
0.047906315
0.047563708
0.047222183
0.046882063
0.046543634
0.046207144
0.04587281
0.045540822
0.045211342
0.044884512
0.04456045
0.044239265
0.043921024
0.043605828
0.04329364
0.042984701
0.042678583
0.042376247
0.042076454
0.041777064
0.041511804
0.041051982
9.4962674e-06
1.0371011e-05
1.1713286e-05
1.3394968e-05
1.5346736e-05
1.7552578e-05
2.0029373e-05
2.2810908e-05
2.5936871e-05
2.9445313e-05
3.3367518e-05
3.7726854e-05
4.2539924e-05
4.7816471e-05
5.3557445e-05
5.9753862e-05
6.638344e-05
7.3413731e-05
8.0802369e-05
8.8502638e-05
9.6466481e-05
0.00010466248
0.00011308182
0.00012176301
0.00013080878
0.00014042097
0.00015091281
0.00016275835
0.00017673671
0.00019384922
0.00021607912
0.00024614585
0.00028820234
0.00034801308
0.00043697839
0.0005711324
0.00078495298
0.0011326206
0.0016803678
0.0025536421
0.0038803823
0.005810893
0.0085123631
0.011764984
0.015334562
0.018962499
0.022389955
0.025406211
0.027903162
0.029882675
0.031429013
0.032655419
0.033655721
0.034485997
0.035173416
0.035734366
0.036185505
0.036544484
0.036826599
0.037043203
0.037202793
0.037312494
0.037378652
0.037406794
0.037401585
0.037367
0.037306516
0.037223187
0.037119703
0.03699844
0.036861509
0.036710797
0.03654799
0.036374599
0.036191981
0.036001361
0.035803838
0.035600405
0.03539195
0.035179272
0.034963088
0.034744042
0.034522708
0.034299602
0.034075186
0.033849874
0.033624034
0.033398
0.033172062
0.032946494
0.032721515
0.032497365
0.032274156
0.032052226
0.031831348
0.031612475
0.031394713
0.031176712
0.030984977
0.030647772
9.1474582e-06
9.4166422e-06
9.9142056e-06
1.0617567e-05
1.1490248e-05
1.2505735e-05
1.3651538e-05
1.4925865e-05
1.6333239e-05
1.7880946e-05
1.9576522e-05
2.1426374e-05
2.3435338e-05
2.5606577e-05
2.7941384e-05
3.043895e-05
3.3095955e-05
3.590652e-05
3.8862122e-05
4.1952215e-05
4.5164697e-05
4.8487542e-05
5.1910191e-05
5.5426462e-05
5.903767e-05
6.275774e-05
6.6615095e-05
7.0657048e-05
7.4965246e-05
7.9653524e-05
8.4904274e-05
9.0993994e-05
9.8308789e-05
0.00010735865
0.00011894282
0.00013414885
0.00015481252
0.00018380839
0.00022537106
0.00028710511
0.00038100332
0.00052733437
0.000766121
0.001146052
0.0017657775
0.0027106188
0.0041237571
0.0060040055
0.0082362013
0.010662793
0.013113344
0.01542342
0.01747698
0.019225734
0.02068555
0.021907326
0.022943367
0.023829604
0.024586818
0.025229599
0.025772136
0.026228365
0.026610219
0.026927152
0.027186906
0.027396241
0.027561122
0.027686706
0.027777442
0.027837234
0.027869531
0.027877383
0.027863492
0.027830263
0.027779848
0.027714171
0.027634962
0.027543773
0.027441997
0.027330889
0.027211575
0.027085069
0.026952282
0.026814036
0.026671069
0.026524049
0.026373574
0.026220188
0.026064374
0.025906579
0.02574719
0.025586589
0.025425042
0.025262981
0.025100384
0.02493814
0.024775768
0.024612107
0.024469269
0.024213005
9.0303571e-06
9.1101305e-06
9.2864814e-06
9.575548e-06
9.9739978e-06
1.0470628e-05
1.1054648e-05
1.1718798e-05
1.2459441e-05
1.3275547e-05
1.4167553e-05
1.5136464e-05
1.6183302e-05
1.7308823e-05
1.8513364e-05
1.9796712e-05
2.1158035e-05
2.2595797e-05
2.4107666e-05
2.5690583e-05
2.7340834e-05
2.9054219e-05
3.08263e-05
3.2652852e-05
3.453053e-05
3.6457486e-05
3.8436282e-05
4.0474214e-05
4.2583397e-05
4.4783417e-05
4.7104956e-05
4.9595634e-05
5.2323481e-05
5.5380284e-05
5.8890609e-05
6.3028488e-05
6.801058e-05
7.4174056e-05
8.1976385e-05
9.2123303e-05
0.00010563001
0.00012398551
0.00014978132
0.00018685439
0.00024266302
0.00032795964
0.00046444715
0.00068468347
0.0010401112
0.0016065392
0.0024673773
0.0036734027
0.0051670588
0.0068541056
0.0086225893
0.010355439
0.011959763
0.013385661
0.014627567
0.015706267
0.01664726
0.017469433
0.01818548
0.018806226
0.019342544
0.019804646
0.020201237
0.020539621
0.020826197
0.021066676
0.021266084
0.021428837
0.021558839
0.021659565
0.021734108
0.021785234
0.021815414
0.021826869
0.021821587
0.021801358
0.02176779
0.021722329
0.021666281
0.02160082
0.021527008
0.021445801
0.021358063
0.021264578
0.021166048
0.021063118
0.020956359
0.020846314
0.020733417
0.020618205
0.020500862
0.020382238
0.020262211
0.020139745
0.020033548
0.019837622
8.9682264e-06
8.9920603e-06
9.0508028e-06
9.1617388e-06
9.3344871e-06
9.5710345e-06
9.8689153e-06
1.0224268e-05
1.0633592e-05
1.1094356e-05
1.1604984e-05
1.2164583e-05
1.2772652e-05
1.3428865e-05
1.4132926e-05
1.4884454e-05
1.5682932e-05
1.6527646e-05
1.741763e-05
1.8351655e-05
1.9328237e-05
2.0345637e-05
2.1401897e-05
2.2494944e-05
2.3622761e-05
2.4783538e-05
2.5976248e-05
2.7201128e-05
2.8459876e-05
2.9756208e-05
3.1096524e-05
3.2491208e-05
3.3955721e-05
3.5511812e-05
3.7188719e-05
3.9022755e-05
4.1081847e-05
4.3439693e-05
4.6188534e-05
4.9458974e-05
5.3427638e-05
5.8321248e-05
6.4472827e-05
7.2342995e-05
8.271436e-05
9.6655863e-05
0.00011600161
0.00014359514
0.00018433869
0.00024651047
0.0003445753
0.00050251252
0.00075665056
0.0011642414
0.0017934397
0.0026691391
0.0037622261
0.0050126422
0.0063411998
0.0076643588
0.0089138581
0.010052109
0.011071083
0.011978864
0.01278645
0.013502611
0.014134801
0.014690691
0.015178029
0.015603896
0.015974512
0.016295453
0.016571772
0.016808006
0.017008214
0.017176036
0.017314746
0.017427286
0.0175163
0.01758417
0.017633042
0.01766485
0.017681339
0.017684086
0.017674513
0.017653908
0.017623434
0.017584146
0.017536994
0.017482848
0.017422485
0.017356631
0.017285902
0.017210966
0.017132204
0.01705048
0.016965964
0.016877818
0.016801708
0.016655079
8.9135897e-06
8.9226461e-06
8.9425702e-06
8.98287e-06
9.052652e-06
9.1582863e-06
9.3029276e-06
9.4872759e-06
9.7106596e-06
9.9718924e-06
1.0269767e-05
1.0603252e-05
1.0971518e-05
1.1373895e-05
1.1809814e-05
1.2278747e-05
1.2780169e-05
1.3313524e-05
1.3878185e-05
1.4473442e-05
1.5098495e-05
1.5752433e-05
1.6434232e-05
1.7142778e-05
1.787692e-05
1.8635519e-05
1.9417583e-05
2.022246e-05
2.1049985e-05
2.1900684e-05
2.2775973e-05
2.3678511e-05
2.4612599e-05
2.558461e-05
2.6603552e-05
2.7680554e-05
2.8833835e-05
3.0086813e-05
3.1467766e-05
3.301293e-05
3.4768707e-05
3.6793239e-05
3.9180698e-05
4.2030702e-05
4.5490682e-05
4.975912e-05
5.5123902e-05
6.1978245e-05
7.095114e-05
8.3004732e-05
9.9678222e-05
0.00012342862
0.00015844154
0.00021180592
0.0002965076
0.00043183626
0.000650515
0.000997345
0.0015240708
0.0022344103
0.0031048787
0.0040918151
0.0051347851
0.0061721538
0.0071575845
0.0080675975
0.0088966025
0.0096469635
0.010322579
0.01092757
0.011466775
0.011945569
0.012369239
0.012742705
0.013070545
0.013357007
0.013605994
0.013821061
0.014005447
0.014162098
0.014293688
0.014402644
0.014491167
0.014561252
0.014614709
0.014653179
0.01467815
0.014690973
0.014692872
0.014684962
0.014668248
0.014643661
0.014612013
0.014574126
0.014530584
0.014482301
0.014429693
0.014372221
0.014322626
0.014219192
8.8550439e-06
8.8606863e-06
8.8693177e-06
8.8847376e-06
8.9120659e-06
8.9565172e-06
9.0224055e-06
9.112702e-06
9.2290903e-06
9.372284e-06
9.5423867e-06
9.739175e-06
9.962276e-06
1.0211262e-05
1.048569e-05
1.0785113e-05
1.1109083e-05
1.145714e-05
1.1828803e-05
1.2223559e-05
1.2640868e-05
1.3080141e-05
1.3540738e-05
1.402197e-05
1.4523114e-05
1.5043438e-05
1.5582235e-05
1.6138892e-05
1.6712968e-05
1.7304287e-05
1.7913018e-05
1.8539797e-05
1.9185884e-05
1.9853321e-05
2.0545191e-05
2.126553e-05
2.202036e-05
2.2818055e-05
2.3669272e-05
2.4587406e-05
2.558939e-05
2.6695247e-05
2.7934288e-05
2.9340504e-05
3.0956313e-05
3.2836474e-05
3.5052583e-05
3.771427e-05
4.0956974e-05
4.4970256e-05
5.0032021e-05
5.6531811e-05
6.5074083e-05
7.6596511e-05
9.2682722e-05
0.00011577478
0.00015018849
0.00020306371
0.00028748929
0.00042109199
0.00063690132
0.00097658421
0.0014576617
0.0020789923
0.0028182762
0.0036353631
0.0044814477
0.0053131161
0.0061023573
0.0068364421
0.007511637
0.0081277246
0.0086860096
0.0091890532
0.0096402788
0.0100434
0.010402122
0.010720052
0.011000646
0.011247151
0.011462592
0.011649768
0.011811256
0.011949423
0.012066436
0.012164275
0.012244751
0.012309514
0.012360066
0.012397782
0.012423907
0.012439588
0.012445848
0.012443681
0.012433873
0.012417429
0.01239497
0.012366358
0.012341414
0.012277885
8.7904651e-06
8.7954086e-06
8.8011507e-06
8.8088543e-06
8.8206838e-06
8.8395072e-06
8.8684405e-06
8.9103951e-06
8.9677725e-06
9.0423521e-06
9.1353297e-06
9.2474286e-06
9.3790254e-06
9.5302559e-06
9.7010945e-06
9.891405e-06
1.0100977e-05
1.0329546e-05
1.0576802e-05
1.0842402e-05
1.1125973e-05
1.1427112e-05
1.1745383e-05
1.2080318e-05
1.2431428e-05
1.2798209e-05
1.3180159e-05
1.3576805e-05
1.3987735e-05
1.4412646e-05
1.4851384e-05
1.5303994e-05
1.5770779e-05
1.6252375e-05
1.6749855e-05
1.7264751e-05
1.7799315e-05
1.8356782e-05
1.8941512e-05
1.9559114e-05
2.0216769e-05
2.0923013e-05
2.1689261e-05
2.2529559e-05
2.3460715e-05
2.4503615e-05
2.5683524e-05
2.7035368e-05
2.8602732e-05
3.0441095e-05
3.262228e-05
3.5251406e-05
3.8477962e-05
4.2499863e-05
4.7618099e-05
5.4266451e-05
6.3115151e-05
7.521647e-05
9.2366562e-05
0.00011735666
0.00015510525
0.00021468967
0.00030875002
0.00045938289
0.00069835594
0.0010466828
0.0015114214
0.002082483
0.0027333285
0.0034264386
0.0041248726
0.0048018125
0.005442295
0.0060394331
0.0065903912
0.0070945359
0.0075528179
0.0079672201
0.0083402353
0.0086745739
0.0089730214
0.0092383361
0.0094731803
0.009680084
0.0098614272
0.01001943
0.010156154
0.010273502
0.01037323
0.010456949
0.010526139
0.010582161
0.01062625
0.010659575
0.010683128
0.01069803
0.010705075
0.010704611
0.010703494
0.010678297
8.7197721e-06
8.7245539e-06
8.7296198e-06
8.7351958e-06
8.7420165e-06
8.7513117e-06
8.7647301e-06
8.7841712e-06
8.8115761e-06
8.8487442e-06
8.8972173e-06
8.9582323e-06
9.0327259e-06
9.1213686e-06
9.2246096e-06
9.3427194e-06
9.4758292e-06
9.6239608e-06
9.7870488e-06
9.9649606e-06
1.0157511e-05
1.036447e-05
1.0585569e-05
1.0820505e-05
1.1068949e-05
1.1330557e-05
1.1604974e-05
1.1891848e-05
1.2190852e-05
1.25017e-05
1.2824176e-05
1.3158153e-05
1.350362e-05
1.3860717e-05
1.4229778e-05
1.4611362e-05
1.5006336e-05
1.5416e-05
1.58422e-05
1.6287413e-05
1.6754896e-05
1.7248648e-05
1.7773797e-05
1.8336789e-05
1.8945393e-05
1.9609098e-05
2.0339147e-05
2.1149835e-05
2.2058938e-05
2.3088388e-05
2.4264881e-05
2.5623632e-05
2.7212486e-05
2.9091534e-05
3.1343626e-05
3.4080129e-05
3.747848e-05
4.1770464e-05
4.7311852e-05
5.4630959e-05
6.4530299e-05
7.8435019e-05
9.8524801e-05
0.00012850405
0.00017517301
0.00024840959
0.0003649542
0.00054985978
0.00082133761
0.0011889557
0.0016486341
0.002181741
0.0027587881
0.0033493295
0.0039299405
0.0044861535
0.0050100841
0.0054976641
0.0059471923
0.006358627
0.0067329947
0.00707193
0.0073774045
0.0076515612
0.0078965967
0.0081146856
0.008307935
0.0084783558
0.0086278467
0.0087581879
0.0088710369
0.0089679364
0.0090503053
0.0091194816
0.0091766441
0.0092230436
0.0092596143
0.0092872618
0.0093097948
0.0093224386
8.6432326e-06
8.6479298e-06
8.6528124e-06
8.6578343e-06
8.6631927e-06
8.6693227e-06
8.6769264e-06
8.6869665e-06
8.700608e-06
8.7191258e-06
8.7438063e-06
8.7758642e-06
8.8163846e-06
8.8662924e-06
8.926344e-06
8.9971329e-06
9.0791046e-06
9.1725743e-06
9.277744e-06
9.3947215e-06
9.5235363e-06
9.6641516e-06
9.8164743e-06
9.980364e-06
1.0155643e-05
1.0342106e-05
1.0539526e-05
1.0747666e-05
1.0966288e-05
1.119517e-05
1.1434116e-05
1.1682968e-05
1.1941626e-05
1.2210055e-05
1.248831e-05
1.2776558e-05
1.3075108e-05
1.3384472e-05
1.3705429e-05
1.4039088e-05
1.4386962e-05
1.4750993e-05
1.5133667e-05
1.5538137e-05
1.5968281e-05
1.6428839e-05
1.692545e-05
1.7464987e-05
1.8055865e-05
1.8708326e-05
1.94346e-05
2.0249739e-05
2.1173267e-05
2.2228791e-05
2.3447961e-05
2.4869072e-05
2.654804e-05
2.8557918e-05
3.0996627e-05
3.4002883e-05
3.7789575e-05
4.2667711e-05
4.9097637e-05
5.7775717e-05
6.988839e-05
8.7291713e-05
0.00011309852
0.00015301829
0.00021520072
0.00031404293
0.00046884454
0.00069578122
0.0010034787
0.0013900625
0.0018406124
0.0023310897
0.0028365879
0.0033375297
0.0038211252
0.0042797476
0.0047090787
0.0051070301
0.0054730647
0.0058076494
0.0061118692
0.0063871842
0.0066352648
0.0068578773
0.0070568093
0.0072338213
0.0073906141
0.0075288126
0.0076499494
0.0077554807
0.0078467333
0.007925074
0.0079915375
0.0080476321
0.0080940077
0.0081446762
8.56115e-06
8.5657652e-06
8.5705518e-06
8.5753988e-06
8.5803367e-06
8.5854951e-06
8.5911256e-06
8.5976313e-06
8.6055777e-06
8.6156777e-06
8.6287562e-06
8.6457022e-06
8.6674177e-06
8.6947739e-06
8.7285768e-06
8.7695444e-06
8.8182952e-06
8.8753443e-06
8.9411049e-06
9.0158957e-06
9.0999492e-06
9.1934208e-06
9.2963966e-06
9.4089032e-06
9.5309171e-06
9.6623733e-06
9.8031739e-06
9.9531966e-06
1.0112304e-05
1.0280352e-05
1.0457202e-05
1.0642726e-05
1.0836819e-05
1.1039402e-05
1.1250436e-05
1.1469934e-05
1.1697977e-05
1.1934744e-05
1.2180545e-05
1.2435865e-05
1.2701402e-05
1.2978103e-05
1.3267207e-05
1.3570315e-05
1.3889435e-05
1.422706e-05
1.4586195e-05
1.4970463e-05
1.5384251e-05
1.5832856e-05
1.6322581e-05
1.6860934e-05
1.7457276e-05
1.8122698e-05
1.8871513e-05
1.9720678e-05
2.069236e-05
2.1815914e-05
2.3127855e-05
2.4676337e-05
2.652941e-05
2.8781052e-05
3.1559283e-05
3.5051094e-05
3.9553335e-05
4.5489163e-05
5.3505511e-05
6.4698555e-05
8.0749038e-05
0.00010458499
0.00014126724
0.00019803176
0.00028851014
0.00042753389
0.00062890089
0.00089991976
0.0012382649
0.0016303404
0.0020558068
0.0024943059
0.002929913
0.0033518975
0.0037535176
0.0041307844
0.0044816547
0.0048054325
0.005102309
0.0053730488
0.0056187778
0.0058408335
0.0060406646
0.0062197612
0.0063796088
0.006521666
0.0066473174
0.0067579918
0.0068547596
0.0069397501
0.0070103032
0.0070995327
8.4738301e-06
8.47836e-06
8.4830599e-06
8.4878072e-06
8.4925887e-06
8.497436e-06
8.5024272e-06
8.5077068e-06
8.513506e-06
8.5201564e-06
8.5280915e-06
8.537837e-06
8.5499901e-06
8.5651937e-06
8.5841076e-06
8.6073819e-06
8.6356354e-06
8.6694381e-06
8.709299e-06
8.7556604e-06
8.808896e-06
8.8693104e-06
8.9371421e-06
9.0125677e-06
9.0957083e-06
9.1866362e-06
9.2853815e-06
9.3919394e-06
9.5062778e-06
9.6283449e-06
9.7580773e-06
9.8954055e-06
1.004026e-05
1.0192579e-05
1.0352311e-05
1.0519423e-05
1.0693915e-05
1.0875829e-05
1.1065273e-05
1.1262444e-05
1.1467654e-05
1.1681354e-05
1.190416e-05
1.2136894e-05
1.2380615e-05
1.263666e-05
1.2906682e-05
1.3192682e-05
1.3497085e-05
1.3822812e-05
1.417335e-05
1.4552805e-05
1.496617e-05
1.5419303e-05
1.5919484e-05
1.6475357e-05
1.7097473e-05
1.779945e-05
1.8597933e-05
1.9513645e-05
2.0574087e-05
2.1815408e-05
2.3285295e-05
2.5047212e-05
2.7193749e-05
2.9852729e-05
3.3196452e-05
3.7521167e-05
4.3240365e-05
5.1001651e-05
6.1883492e-05
7.7503379e-05
0.00010088441
0.00013668516
0.00019248201
0.000280004
0.00041227096
0.00060021055
0.00084911791
0.0011548471
0.0015041891
0.0018795857
0.0022644692
0.002646131
0.0030158703
0.0033680726
0.003699364
0.004007981
0.0042932745
0.0045553453
0.0047947925
0.0050125337
0.0052096826
0.0053874625
0.0055471353
0.0056900675
0.0058172518
0.0059314112
0.0060263917
0.0061547614
8.3815856e-06
8.3860286e-06
8.3906402e-06
8.3952981e-06
8.3999792e-06
8.4046882e-06
8.409447e-06
8.4143009e-06
8.4193321e-06
8.4246721e-06
8.430514e-06
8.4371189e-06
8.4448162e-06
8.4539982e-06
8.4651078e-06
8.4786236e-06
8.4950428e-06
8.5148642e-06
8.5385728e-06
8.5666269e-06
8.5994488e-06
8.6374177e-06
8.6808643e-06
8.7300704e-06
8.7852686e-06
8.8466451e-06
8.914343e-06
8.9884664e-06
9.0690858e-06
9.1562438e-06
9.2499605e-06
9.3502387e-06
9.4570685e-06
9.5704315e-06
9.6903049e-06
9.8166664e-06
9.9495015e-06
1.0088812e-05
1.0234628e-05
1.0387022e-05
1.0546126e-05
1.0712149e-05
1.0885392e-05
1.1066273e-05
1.1255349e-05
1.1453345e-05
1.1661176e-05
1.1879974e-05
1.2111119e-05
1.2356287e-05
1.2617487e-05
1.2897093e-05
1.3197953e-05
1.3523405e-05
1.3877481e-05
1.4264979e-05
1.4691575e-05
1.516433e-05
1.5691815e-05
1.6284377e-05
1.6955104e-05
1.7720392e-05
1.8601701e-05
1.9625766e-05
2.0828918e-05
2.2260184e-05
2.3981598e-05
2.6087547e-05
2.8708555e-05
3.2026849e-05
3.6334063e-05
4.2059485e-05
4.9905136e-05
6.0966424e-05
7.7019842e-05
0.00010114448
0.00013802882
0.00019575004
0.0002847671
0.00041625589
0.00059877642
0.00083456377
0.0011172338
0.0014337832
0.0017691131
0.0021099372
0.0024463003
0.0027713443
0.0030806128
0.0033714342
0.0036424205
0.0038930762
0.0041235228
0.0043342905
0.0045261762
0.0047002372
0.0048571867
0.0050002396
0.0051195314
0.0052873001
8.2847386e-06
8.2890941e-06
8.2936157e-06
8.2981836e-06
8.3027729e-06
8.3073818e-06
8.3120162e-06
8.3166895e-06
8.3214274e-06
8.3262754e-06
8.3313074e-06
8.3366344e-06
8.3424113e-06
8.3488413e-06
8.3561762e-06
8.364713e-06
8.3747871e-06
8.3867629e-06
8.401023e-06
8.4179571e-06
8.4379514e-06
8.4613787e-06
8.4885902e-06
8.519909e-06
8.5556268e-06
8.5960008e-06
8.6412536e-06
8.6915732e-06
8.7471153e-06
8.8080061e-06
8.8743454e-06
8.9462095e-06
9.023655e-06
9.106721e-06
9.1954327e-06
9.2898042e-06
9.389844e-06
9.49556e-06
9.6069677e-06
9.7240992e-06
9.847013e-06
9.9758059e-06
1.0110625e-05
1.0251681e-05
1.0399268e-05
1.0553776e-05
1.0715714e-05
1.0885725e-05
1.1064607e-05
1.1253338e-05
1.1453107e-05
1.1665327e-05
1.1891692e-05
1.2134192e-05
1.23952e-05
1.2677533e-05
1.2984489e-05
1.3320054e-05
1.3689022e-05
1.4097094e-05
1.4551252e-05
1.5059957e-05
1.5634003e-05
1.6286554e-05
1.7034436e-05
1.789977e-05
1.8909705e-05
2.0102051e-05
2.1527662e-05
2.3253421e-05
2.5376796e-05
2.803456e-05
3.1430693e-05
3.5866655e-05
4.1830377e-05
5.0085623e-05
6.1821597e-05
7.9066735e-05
0.00010506251
0.00014517511
0.00020742045
0.00030151067
0.00043672239
0.0006187453
0.00084635656
0.0011112257
0.0014008939
0.0017026918
0.0020061863
0.0023037249
0.0025900577
0.0028617999
0.0031169612
0.0033545427
0.0035742502
0.0037763734
0.0039609881
0.0041315744
0.0042742956
0.0044809242
8.1836201e-06
8.1878877e-06
8.1923183e-06
8.1967947e-06
8.2012919e-06
8.2058068e-06
8.2103411e-06
8.2148992e-06
8.2194886e-06
8.2241232e-06
8.2288271e-06
8.2336407e-06
8.2386266e-06
8.243875e-06
8.2495089e-06
8.2556865e-06
8.2626018e-06
8.2704831e-06
8.2795883e-06
8.2901995e-06
8.3026161e-06
8.317147e-06
8.3341024e-06
8.3537874e-06
8.3764955e-06
8.4025038e-06
8.4320692e-06
8.4654255e-06
8.5027828e-06
8.5443266e-06
8.5902188e-06
8.640598e-06
8.6955812e-06
8.7552653e-06
8.819728e-06
8.8890306e-06
8.9632207e-06
9.0423359e-06
9.1264091e-06
9.2154743e-06
9.3095728e-06
9.4087613e-06
9.5131198e-06
9.6227614e-06
9.7378432e-06
9.8585799e-06
9.9852554e-06
1.0118237e-05
1.0257988e-05
1.0405087e-05
1.0560245e-05
1.0724316e-05
1.0898333e-05
1.1083517e-05
1.1281316e-05
1.1493449e-05
1.172193e-05
1.1969146e-05
1.2237944e-05
1.2531684e-05
1.2854396e-05
1.3210869e-05
1.3607028e-05
1.4050041e-05
1.4548715e-05
1.5114275e-05
1.5760239e-05
1.6504503e-05
1.7370112e-05
1.8386621e-05
1.9594043e-05
2.1046141e-05
2.2818038e-05
2.5013783e-05
2.7788594e-05
3.1372529e-05
3.6098002e-05
4.2534225e-05
5.1539634e-05
6.4535894e-05
8.383098e-05
0.00011318591
0.00015862384
0.00022807442
0.00033025914
0.00047226296
0.00065619123
0.0008776172
0.0011270211
0.0013930993
0.0016656052
0.0019365367
0.0022001491
0.0024525529
0.0026912958
0.002915097
0.0031227724
0.0033176349
0.0034815395
0.0037250034
8.0785672e-06
8.0827469e-06
8.0870859e-06
8.0914698e-06
8.0958738e-06
8.1002944e-06
8.1047325e-06
8.1091901e-06
8.1136697e-06
8.1181748e-06
8.1227122e-06
8.1272938e-06
8.1319405e-06
8.1366865e-06
8.1415829e-06
8.1467025e-06
8.1521424e-06
8.1580265e-06
8.1645057e-06
8.1717572e-06
8.1799823e-06
8.1894022e-06
8.2002536e-06
8.2127833e-06
8.2272434e-06
8.243886e-06
8.2629586e-06
8.2846997e-06
8.3093363e-06
8.3370809e-06
8.3681299e-06
8.4026621e-06
8.4408384e-06
8.4828011e-06
8.528674e-06
8.5785631e-06
8.6325578e-06
8.6907335e-06
8.7531541e-06
8.8198761e-06
8.8909524e-06
8.9664376e-06
9.046393e-06
9.1308934e-06
9.2200349e-06
9.3139438e-06
9.4127857e-06
9.5167748e-06
9.6261853e-06
9.7413623e-06
9.8627349e-06
9.9908274e-06
1.0126276e-05
1.0269841e-05
1.0422431e-05
1.0585119e-05
1.0759172e-05
1.094608e-05
1.1147608e-05
1.1365828e-05
1.16032e-05
1.1862614e-05
1.2147555e-05
1.2462207e-05
1.2811595e-05
1.3201947e-05
1.3640692e-05
1.4137245e-05
1.4703393e-05
1.5353957e-05
1.6107986e-05
1.699017e-05
1.8033432e-05
1.9281316e-05
2.0794393e-05
2.2658298e-05
2.4989475e-05
2.7969063e-05
3.1861508e-05
3.7069524e-05
4.4258933e-05
5.4476386e-05
6.9455607e-05
9.1975565e-05
0.00012658405
0.00017964696
0.00025888685
0.00037160069
0.00052174628
0.0007077599
0.0009228009
0.0011572345
0.0014014583
0.0016474986
0.0018893771
0.0021230357
0.0023450326
0.0025577663
0.0027383293
0.0030140785
7.9699212e-06
7.974013e-06
7.9782603e-06
7.9825509e-06
7.9868609e-06
7.9911865e-06
7.9955283e-06
7.9998877e-06
8.0042659e-06
8.008664e-06
8.0130829e-06
8.0175249e-06
8.0219951e-06
8.0265033e-06
8.0310668e-06
8.0357138e-06
8.0404859e-06
8.0454412e-06
8.0506567e-06
8.0562296e-06
8.0622784e-06
8.0689422e-06
8.0763793e-06
8.0847645e-06
8.0942872e-06
8.1051473e-06
8.1175517e-06
8.131711e-06
8.1478355e-06
8.1661321e-06
8.1868018e-06
8.2100364e-06
8.2360169e-06
8.2649115e-06
8.2968739e-06
8.3320431e-06
8.3705427e-06
8.4124823e-06
8.457958e-06
8.5070551e-06
8.5598498e-06
8.6164126e-06
8.6768111e-06
8.7411149e-06
8.8094005e-06
8.8817574e-06
8.9582946e-06
9.0391475e-06
9.1244861e-06
9.2145233e-06
9.309524e-06
9.4098141e-06
9.5157914e-06
9.6279366e-06
9.7468251e-06
9.8731426e-06
1.00077e-05
1.0151451e-05
1.0305523e-05
1.0471238e-05
1.0650154e-05
1.0844094e-05
1.1055218e-05
1.1286099e-05
1.1539782e-05
1.1819966e-05
1.2131028e-05
1.2478344e-05
1.2868505e-05
1.3309639e-05
1.3811864e-05
1.4387893e-05
1.5054086e-05
1.5831383e-05
1.6747437e-05
1.7839749e-05
1.9157371e-05
2.0770516e-05
2.2777928e-05
2.5319422e-05
2.8609541e-05
3.2970837e-05
3.8908046e-05
4.7243003e-05
5.9318817e-05
7.7312885e-05
0.00010473427
0.00014672517
0.00020995236
0.00030135868
0.00042575839
0.00058349225
0.00076989049
0.00097697283
0.001195999
0.0014194653
0.001640573
0.0018597623
0.0020487972
0.0023481914
7.8580247e-06
7.862029e-06
7.8661845e-06
7.8703818e-06
7.8745974e-06
7.8788274e-06
7.8830724e-06
7.8873335e-06
7.8916119e-06
7.8959077e-06
7.9002207e-06
7.9045503e-06
7.9088963e-06
7.9132597e-06
7.9176439e-06
7.922057e-06
7.9265132e-06
7.9310352e-06
7.9356567e-06
7.9404241e-06
7.9453984e-06
7.9506566e-06
7.956292e-06
7.9624144e-06
7.9691495e-06
7.9766377e-06
7.9850322e-06
7.9944971e-06
8.0052042e-06
8.017331e-06
8.0310577e-06
8.0465641e-06
8.0640272e-06
8.0836185e-06
8.1055017e-06
8.129831e-06
8.1567499e-06
8.1863907e-06
8.2188742e-06
8.2543104e-06
8.2927992e-06
8.3344319e-06
8.3792926e-06
8.4274611e-06
8.4790159e-06
8.534038e-06
8.5926157e-06
8.6548493e-06
8.7208566e-06
8.7907794e-06
8.8647904e-06
8.9430994e-06
9.0259617e-06
9.1136866e-06
9.2066453e-06
9.3052818e-06
9.4101232e-06
9.5217923e-06
9.6410237e-06
9.7686797e-06
9.9057745e-06
1.0053493e-05
1.0213226e-05
1.0386617e-05
1.0575597e-05
1.0782472e-05
1.1009962e-05
1.1261329e-05
1.154051e-05
1.1852281e-05
1.2202459e-05
1.2598187e-05
1.3048387e-05
1.3564209e-05
1.4159838e-05
1.4853812e-05
1.5669779e-05
1.6639547e-05
1.7806233e-05
1.9227924e-05
2.0987698e-05
2.320444e-05
2.6052188e-05
2.9796913e-05
3.4853361e-05
4.1878974e-05
5.1953965e-05
6.6837614e-05
8.9340554e-05
0.00012370376
0.00017564812
0.0002515446
0.00035646262
0.00049191088
0.00065480563
0.00083883155
0.0010352065
0.0012421533
0.0014259423
0.0017339691
7.7432196e-06
7.7471368e-06
7.751201e-06
7.7553052e-06
7.7594263e-06
7.7635607e-06
7.7677087e-06
7.7718715e-06
7.77605e-06
7.7802444e-06
7.7844544e-06
7.7886786e-06
7.7929155e-06
7.7971634e-06
7.8014209e-06
7.8056882e-06
7.8099677e-06
7.8142658e-06
7.818594e-06
7.8229706e-06
7.8274226e-06
7.8319871e-06
7.8367125e-06
7.8416598e-06
7.8469031e-06
7.8525304e-06
7.858643e-06
7.8653551e-06
7.8727923e-06
7.8810909e-06
7.890395e-06
7.9008553e-06
7.9126259e-06
7.9258623e-06
7.9407191e-06
7.9573475e-06
7.9758937e-06
7.9964974e-06
8.0192914e-06
8.0444e-06
8.0719398e-06
8.102019e-06
8.134738e-06
8.1701907e-06
8.2084661e-06
8.2496502e-06
8.2938294e-06
8.3410929e-06
8.391537e-06
8.4452697e-06
8.5024151e-06
8.5631188e-06
8.6275536e-06
8.6959258e-06
8.7684819e-06
8.8455158e-06
8.9273763e-06
9.0144765e-06
9.1073038e-06
9.206431e-06
9.3125311e-06
9.4263912e-06
9.5489312e-06
9.6812314e-06
9.8245561e-06
9.9803994e-06
1.0150514e-05
1.0336977e-05
1.0542257e-05
1.0769312e-05
1.1021693e-05
1.130368e-05
1.1620504e-05
1.1978577e-05
1.2385834e-05
1.285233e-05
1.3390656e-05
1.4017008e-05
1.4752623e-05
1.5625132e-05
1.6671932e-05
1.794425e-05
1.9513187e-05
2.1480825e-05
2.3997363e-05
2.7287535e-05
3.170084e-05
3.7791437e-05
4.645414e-05
5.9145717e-05
7.8205305e-05
0.00010721011
0.0001511096
0.00021568092
0.00030586981
0.00042407519
0.00056719142
0.00073582948
0.00089382142
0.0011863906
7.6258447e-06
7.6296756e-06
7.6336491e-06
7.6376606e-06
7.6416878e-06
7.6457268e-06
7.6497781e-06
7.6538428e-06
7.6579217e-06
7.662015e-06
7.6661226e-06
7.6702432e-06
7.674375e-06
7.6785157e-06
7.6826627e-06
7.6868137e-06
7.6909666e-06
7.6951212e-06
7.6992791e-06
7.7034451e-06
7.7076286e-06
7.7118442e-06
7.7161134e-06
7.7204658e-06
7.7249401e-06
7.7295852e-06
7.7344612e-06