/*--------------------------------*- C++ -*----------------------------------*\
  =========                 |
  \\      /  F ield         | OpenFOAM: The Open Source CFD Toolbox
   \\    /   O peration     | Website:  https://openfoam.org
    \\  /    A nd           | Version:  12
     \\/     M anipulation  |
\*---------------------------------------------------------------------------*/
FoamFile
{
    format      ascii;
    class       volVectorField;
    location    "1300";
    object      U;
}
// * * * * * * * * * * * * * * * * * * * * * * * * * * * * * * * * * * * * * //

dimensions      [0 1 -1 0 0 0 0];

internalField   nonuniform List<vector> 
7480
(
(0.99632809 0.00031185695 0)
(0.99394398 0.00033987088 -3.6961772e-20)
(0.9909094 0.00050937996 0)
(0.98718945 0.00068295288 0)
(0.98270254 0.00086669372 0)
(0.97737908 0.00099461089 -1.6669706e-17)
(0.97111805 0.0010756592 -3.0726416e-19)
(0.96389561 0.0013063468 0)
(0.95565722 0.0015501311 0)
(0.94638405 0.0017852133 0)
(0.93611105 0.0020047683 0)
(0.92491237 0.0021997446 0)
(0.91289387 0.0023613223 0)
(0.90019083 0.0024768562 0)
(0.88695218 0.0025649221 0)
(0.87333372 0.0025648304 0)
(0.85950621 0.0025401834 0)
(0.84558398 0.0024675377 0)
(0.83174706 0.0023505135 0)
(0.81811158 0.0022012167 0)
(0.8048005 0.0020215742 0)
(0.79194905 0.0018156289 0)
(0.77971427 0.001594695 0)
(0.76822453 0.0013695075 0)
(0.75758131 0.0011458424 0)
(0.74786449 0.0009296986 0)
(0.7391236 0.00072580327 0)
(0.73137985 0.00054088247 0)
(0.72461917 0.00038221653 0)
(0.71877289 0.00025615545 0)
(0.71372041 0.00016814506 0)
(0.70930872 0.00011779883 0)
(0.70536972 9.8824992e-05 0)
(0.70174608 0.00010144004 0)
(0.6983185 0.00011448517 0)
(0.6950137 0.00012858043 0)
(0.69179588 0.00013801481 0)
(0.68865206 0.00014083043 0)
(0.68557554 0.00013870152 0)
(0.68255507 0.00013469753 0)
(0.67957463 0.00013121711 0)
(0.67661922 0.0001291042 0)
(0.67368189 0.00012782806 0)
(0.67076593 0.00012649345 0)
(0.66787989 0.00012454441 0)
(0.66503098 0.0001218643 0)
(0.66222218 0.00011864348 0)
(0.65945359 0.00011513687 0)
(0.65672489 0.00011152845 0)
(0.6540363 0.00010786971 0)
(0.65138827 0.00010416877 0)
(0.64878125 0.00010044106 0)
(0.64621545 9.6742772e-05 0)
(0.64369026 9.3139242e-05 0)
(0.6412047 8.9638392e-05 0)
(0.63875825 8.6228189e-05 0)
(0.6363506 8.2922017e-05 0)
(0.63398085 7.9738067e-05 0)
(0.63164795 7.666275e-05 0)
(0.62935144 7.3688902e-05 0)
(0.62709043 7.0842108e-05 0)
(0.62486364 6.811374e-05 0)
(0.62267021 6.5492799e-05 0)
(0.62050927 6.2985624e-05 0)
(0.61837979 6.0578398e-05 0)
(0.61628104 5.8262866e-05 0)
(0.61421222 5.6045258e-05 0)
(0.61217237 5.3916809e-05 0)
(0.61016076 5.1872412e-05 0)
(0.60817658 4.9914889e-05 0)
(0.60621895 4.8037127e-05 0)
(0.60428709 4.6236802e-05 0)
(0.60238022 4.4511003e-05 0)
(0.6004976 4.2855174e-05 0)
(0.59863849 4.1267117e-05 0)
(0.59680219 3.9742712e-05 0)
(0.59498804 3.8279474e-05 0)
(0.5931954 3.6874915e-05 0)
(0.59142363 3.5526454e-05 0)
(0.58967212 3.4231636e-05 0)
(0.58794028 3.2988092e-05 0)
(0.58622754 3.1793621e-05 0)
(0.58453335 3.0646158e-05 0)
(0.58285716 2.9543787e-05 0)
(0.58119844 2.8484687e-05 0)
(0.57955666 2.7467218e-05 0)
(0.57793132 2.6489777e-05 0)
(0.57632187 2.555119e-05 0)
(0.57472781 2.465003e-05 0)
(0.57314846 2.3786366e-05 0)
(0.57158349 2.2957536e-05 0)
(0.57003147 2.2169165e-05 0)
(0.56849323 2.1411074e-05 0)
(0.56696343 2.0716481e-05 0)
(0.56545002 2.0022865e-05 0)
(0.56392737 1.9548875e-05 0)
(0.56244091 1.8317652e-05 -9.2185076e-21)
(0.56085712 3.1891855e-05 8.0457041e-20)
(0.55955146 1.8414175e-05 -2.5139582e-19)
(0.55709225 3.35478e-05 -4.287232e-18)
(0.99783041 0.00049219761 0)
(0.99772879 0.00072911963 0)
(0.99762873 0.00093056537 0)
(0.99747391 0.0010909668 -5.717147e-19)
(0.99726549 0.0012407947 0)
(0.99700935 0.0013941542 0)
(0.99668912 0.001577029 0)
(0.99626568 0.0017698351 0)
(0.99568967 0.001922562 0)
(0.99490643 0.0020464844 0)
(0.99385079 0.0021465908 0)
(0.99244954 0.0022210009 0)
(0.99062781 0.0022687823 0)
(0.98831322 0.002293489 0)
(0.98544293 0.0022906097 0)
(0.98196242 0.0022786853 0)
(0.97783557 0.002252052 0)
(0.9730243 0.0022144713 0)
(0.96752725 0.0021691645 0)
(0.96133212 0.0021207923 0)
(0.954441 0.0020708275 0)
(0.94684833 0.0020124712 0)
(0.93859242 0.0019331829 0)
(0.9297744 0.0018347068 0)
(0.92049185 0.0017246746 0)
(0.91085905 0.0016039455 0)
(0.90101779 0.0014744007 0)
(0.89112159 0.001336819 0)
(0.88133559 0.0011921873 0)
(0.87183491 0.0010420781 0)
(0.86281833 0.0008949418 0)
(0.8544425 0.00076132248 0)
(0.84677815 0.00064658386 0)
(0.83980806 0.00055542808 0)
(0.83345719 0.00048939374 0)
(0.8276144 0.00044666281 0)
(0.82216163 0.00042238307 0)
(0.81700433 0.00040932482 0)
(0.81208042 0.00040015985 0)
(0.80735492 0.00039012566 0)
(0.80280994 0.00037744091 0)
(0.79843298 0.00036227513 0)
(0.79421049 0.00034543769 0)
(0.79012646 0.00032813502 0)
(0.78616327 0.00031156929 0)
(0.78230418 0.00029636044 0)
(0.77853642 0.00028244472 0)
(0.77485319 0.0002694633 0)
(0.77125164 0.00025719937 0)
(0.76772935 0.00024552678 0)
(0.76428254 0.00023439348 0)
(0.76090696 0.00022375749 0)
(0.75759929 0.00021361406 0)
(0.75435704 0.00020397196 0)
(0.75117795 0.00019477281 0)
(0.74806002 0.00018597389 0)
(0.74500139 0.00017758795 0)
(0.74199993 0.00016962059 0)
(0.73905357 0.00016202769 0)
(0.73616061 0.00015478224 0)
(0.73331941 0.00014790527 0)
(0.73052816 0.00014135778 0)
(0.72778544 0.00013511535 0)
(0.72508979 0.00012918752 0)
(0.7224396 0.00012354124 0)
(0.7198335 0.00011815766 0)
(0.71727015 0.00011304177 0)
(0.71474807 0.00010816839 0)
(0.71226602 0.00010352352 0)
(0.70982272 9.9106663e-05 0)
(0.70741688 9.4898606e-05 0)
(0.70504729 9.0890971e-05 0)
(0.70271277 8.7073791e-05 0)
(0.7004122 8.3435555e-05 0)
(0.69814448 7.9969105e-05 0)
(0.69590853 7.6663346e-05 0)
(0.69370335 7.3510591e-05 0)
(0.69152796 7.0503126e-05 0)
(0.68938141 6.7633432e-05 0)
(0.68726279 6.4894497e-05 0)
(0.68517124 6.2279648e-05 0)
(0.68310589 5.9782674e-05 0)
(0.68106593 5.7397755e-05 0)
(0.67905057 5.5119473e-05 0)
(0.67705902 5.2942735e-05 0)
(0.67509053 5.0862876e-05 0)
(0.67314436 4.8875476e-05 0)
(0.67121975 4.6976872e-05 0)
(0.66931598 4.5163138e-05 0)
(0.66743217 4.343258e-05 0)
(0.66556779 4.1780948e-05 0)
(0.66372117 4.0213817e-05 0)
(0.66189295 3.8719395e-05 0)
(0.66007743 3.7337378e-05 0)
(0.65828258 3.6000199e-05 0)
(0.65648175 3.4940699e-05 0)
(0.65472166 3.3847436e-05 9.3344063e-21)
(0.65286164 3.5093378e-05 0)
(0.6513035 3.041361e-05 0)
(0.64844248 3.8636026e-05 0)
(0.99789953 0.00049604837 0)
(0.99786663 0.00069530291 0)
(0.99785823 0.00084861749 0)
(0.99783493 0.00098765256 0)
(0.99780419 0.0011411211 0)
(0.99778185 0.0013151828 0)
(0.9977733 0.0015009341 0)
(0.99777814 0.0016868141 0)
(0.99779988 0.0018768453 0)
(0.99784106 0.002076331 0)
(0.99789889 0.0022794827 0)
(0.99796792 0.0024772824 0)
(0.99804018 0.0026627468 0)
(0.99810484 0.0028297656 0)
(0.99814996 0.0029759121 0)
(0.99816019 0.0030973269 0)
(0.99811804 0.0031926967 0)
(0.99800598 0.0032606791 0)
(0.99780016 0.0033010652 0)
(0.99747278 0.0033121938 0)
(0.99699037 0.003298228 0)
(0.99631437 0.0032572208 0)
(0.99534795 0.0031911316 0)
(0.99395917 0.0031017182 0)
(0.99203683 0.0029899409 0)
(0.98946667 0.0028585956 0)
(0.98612661 0.0027111857 0)
(0.98189821 0.0025525101 0)
(0.97667484 0.0023892252 0)
(0.97038003 0.0022291346 0)
(0.96297164 0.0020635449 0)
(0.95459888 0.0018907314 0)
(0.94548762 0.0017232762 0)
(0.93596232 0.0015626852 0)
(0.92637411 0.0014083883 0)
(0.91704945 0.0012584981 0)
(0.9082529 0.0011161876 0)
(0.90014887 0.00099042981 0)
(0.89275421 0.00088703833 0)
(0.8859858 0.00080736469 0)
(0.87971984 0.00074960198 0)
(0.87383353 0.00070905368 0)
(0.86823724 0.00067867051 0)
(0.86287885 0.00065179602 0)
(0.85773184 0.00062444197 0)
(0.85278059 0.00059581353 0)
(0.84801081 0.00056654972 0)
(0.84340702 0.0005375923 0)
(0.83895284 0.00050993358 0)
(0.83463238 0.00048408671 0)
(0.83043213 0.00046002811 0)
(0.82634241 0.0004374491 0)
(0.82235688 0.00041614665 0)
(0.8184702 0.00039605289 0)
(0.81467667 0.00037704455 0)
(0.81097088 0.00035902277 0)
(0.80734831 0.00034195975 0)
(0.80380503 0.0003258165 0)
(0.80033749 0.0003104961 0)
(0.79694256 0.00029594458 0)
(0.79361722 0.00028217836 0)
(0.79035852 0.00026911649 0)
(0.78716401 0.00025670436 0)
(0.78403139 0.00024494331 0)
(0.78095823 0.00023377344 0)
(0.77794242 0.0002231556 0)
(0.77498194 0.00021308646 0)
(0.77207474 0.00020351918 0)
(0.76921898 0.00019442393 0)
(0.76641291 0.00018579145 0)
(0.76365475 0.00017758595 0)
(0.76094285 0.00016978771 0)
(0.75827562 0.00016237503 0)
(0.75565156 0.00015532479 0)
(0.75306918 0.00014862067 0)
(0.75052705 0.00014224085 0)
(0.74802384 0.00013616867 0)
(0.74555824 0.00013038785 0)
(0.74312899 0.00012488277 0)
(0.74073491 0.00011963882 0)
(0.73837482 0.00011464219 0)
(0.73604761 0.00010987998 0)
(0.73375222 0.00010534013 0)
(0.73148759 0.00010101139 0)
(0.72925272 9.6883228e-05 0)
(0.72704662 9.2945909e-05 0)
(0.72486833 8.9190387e-05 0)
(0.72271689 8.5608662e-05 0)
(0.72059139 8.2193267e-05 0)
(0.71849073 7.8938624e-05 0)
(0.71641419 7.5839477e-05 0)
(0.71435992 7.2896646e-05 0)
(0.71232837 7.0106838e-05 0)
(0.71031369 6.7495275e-05 0)
(0.70832356 6.504194e-05 0)
(0.70633126 6.2931613e-05 0)
(0.70438325 6.1051471e-05 6.5140977e-21)
(0.70233645 5.9705828e-05 0)
(0.70060825 5.8912595e-05 0)
(0.69747362 6.1722637e-05 -2.7001941e-20)
(0.99793266 0.0005086828 0)
(0.99790234 0.00069761565 0)
(0.99789973 0.00085883297 0)
(0.99789173 0.0010117497 0)
(0.99788115 0.0011729613 0)
(0.99788003 0.0013443691 0)
(0.99789418 0.0015211017 0)
(0.99792569 0.0017029226 0)
(0.99797823 0.0018898733 0)
(0.9980539 0.0020740982 0)
(0.99815193 0.0022478623 0)
(0.99827064 0.002404965 0)
(0.99840678 0.0025412417 0)
(0.99855561 0.0026539848 0)
(0.99871244 0.0027427256 0)
(0.99887195 0.002805257 0)
(0.99902929 0.0028456502 0)
(0.99918176 0.0028653521 0)
(0.99932464 0.002865357 0)
(0.99945293 0.0028523575 0)
(0.99956401 0.0028288284 0)
(0.99965528 0.0027968075 0)
(0.99972167 0.002757461 0)
(0.99975513 0.0027127083 0)
(0.99974592 0.0026650786 0)
(0.99968186 0.002616531 0)
(0.99954582 0.002569029 0)
(0.99931501 0.0025241123 0)
(0.99895742 0.0024821904 0)
(0.99842426 0.0024420655 0)
(0.99763604 0.0024027523 0)
(0.99639063 0.0023613934 0)
(0.99449815 0.0023120512 0)
(0.99175762 0.0022504953 0)
(0.9879878 0.0021749518 0)
(0.98306227 0.0020895883 0)
(0.97692161 0.0019906937 0)
(0.96969617 0.0018719845 0)
(0.96168036 0.0017411272 0)
(0.95323986 0.0016059846 0)
(0.9447483 0.0014701884 0)
(0.93652372 0.001337415 0)
(0.9287882 0.0012162073 0)
(0.92161084 0.0011127302 0)
(0.91494822 0.0010278941 0)
(0.90870352 0.00096049577 0)
(0.90277919 0.00090677783 0)
(0.89710862 0.00086117011 0)
(0.89165657 0.00081910956 0)
(0.88640578 0.00077842529 0)
(0.8813436 0.00073876737 0)
(0.87645631 0.00070044527 0)
(0.87172889 0.00066403481 0)
(0.86714647 0.00062993743 0)
(0.86269611 0.00059805291 0)
(0.85836807 0.00056809774 0)
(0.85415507 0.00053991235 0)
(0.8500505 0.00051338231 0)
(0.84604792 0.0004883432 0)
(0.84214169 0.00046468307 0)
(0.83832675 0.00044237439 0)
(0.8345985 0.00042127309 0)
(0.83095302 0.00040128365 0)
(0.82738664 0.00038238762 0)
(0.82389574 0.0003644872 0)
(0.82047725 0.00034751225 0)
(0.81712824 0.00033144213 0)
(0.81384586 0.00031620256 0)
(0.81062756 0.00030174152 0)
(0.80747091 0.00028803512 0)
(0.80437355 0.00027502705 0)
(0.8013333 0.00026268179 0)
(0.79834806 0.00025096231 0)
(0.79541587 0.00023983096 0)
(0.79253482 0.00022925927 0)
(0.78970307 0.00021921216 0)
(0.7869189 0.00020966141 0)
(0.78418064 0.0002005799 0)
(0.78148671 0.00019194186 0)
(0.77883558 0.00018372318 0)
(0.77622578 0.00017590111 0)
(0.7736559 0.00016845446 0)
(0.77112459 0.00016136338 0)
(0.76863055 0.00015460936 0)
(0.7661725 0.00014817515 0)
(0.76374923 0.0001420447 0)
(0.76135954 0.00013620326 0)
(0.75900224 0.00013063739 0)
(0.75667622 0.00012533529 0)
(0.75438016 0.00012028629 0)
(0.75211314 0.0001154845 0)
(0.74987314 0.00011092288 0)
(0.74766039 0.00010661192 0)
(0.74546895 0.00010254886 0)
(0.74330611 9.8793144e-05 0)
(0.74114544 9.5406686e-05 0)
(0.73903257 9.2687848e-05 5.2319717e-21)
(0.73682362 8.9825692e-05 0)
(0.73494875 9.2967722e-05 0)
(0.73157698 8.8431408e-05 2.1878284e-20)
(0.99796944 0.0005263509 0)
(0.99793102 0.00070361033 0)
(0.9979231 0.00086289615 0)
(0.99791632 0.0010140513 0)
(0.9979105 0.0011707265 0)
(0.99791489 0.0013364717 0)
(0.99793468 0.0015090463 0)
(0.99797188 0.0016872931 0)
(0.99802935 0.0018685099 0)
(0.99810908 0.0020467009 0)
(0.99821095 0.0022175944 0)
(0.99833363 0.0023767454 0)
(0.99847427 0.0025201051 0)
(0.99862872 0.0026445948 0)
(0.99879295 0.0027488915 0)
(0.998962 0.0028312683 0)
(0.99913162 0.0028939854 0)
(0.99929922 0.0029368114 0)
(0.99946135 0.0029609736 0)
(0.99961494 0.002967787 0)
(0.99975873 0.0029606608 0)
(0.99989242 0.0029394211 0)
(1.0000142 0.0029046915 0)
(1.0001215 0.0028580123 0)
(1.0002127 0.0028019539 0)
(1.000286 0.002739195 0)
(1.0003393 0.0026720342 0)
(1.0003705 0.0026030737 0)
(1.0003779 0.0025353883 0)
(1.0003598 0.0024724795 0)
(1.0003149 0.0024171461 0)
(1.0002363 0.0023710344 0)
(1.0001131 0.0023350985 0)
(0.99992574 0.0023086917 0)
(0.99964553 0.0022897331 0)
(0.99922299 0.0022733293 0)
(0.99858658 0.0022541284 0)
(0.99754947 0.0022279243 0)
(0.99588056 0.0021900418 0)
(0.9933607 0.0021375212 0)
(0.98980652 0.0020713763 0)
(0.98510762 0.0019925812 0)
(0.97929116 0.0018947091 0)
(0.9726021 0.0017807135 0)
(0.96536691 0.0016604304 0)
(0.95793846 0.0015376111 0)
(0.95062842 0.001418328 0)
(0.94363905 0.001310168 0)
(0.93703405 0.0012159793 0)
(0.9307858 0.0011361729 0)
(0.9248294 0.0010691775 0)
(0.91910882 0.0010112757 0)
(0.9135913 0.00095874344 0)
(0.90826111 0.00090933895 0)
(0.90310812 0.0008622284 0)
(0.89812169 0.00081731958 0)
(0.89328967 0.00077492343 0)
(0.8885996 0.00073519211 0)
(0.88404074 0.00069792072 0)
(0.87960491 0.00066286973 0)
(0.87528523 0.00062994007 0)
(0.87107514 0.00059891192 0)
(0.8669687 0.00056963218 0)
(0.8629605 0.0005420393 0)
(0.8590456 0.0005159748 0)
(0.85521971 0.00049132333 0)
(0.85147883 0.00046803578 0)
(0.84781909 0.00044599964 0)
(0.8442371 0.00042513083 0)
(0.84072967 0.00040538253 0)
(0.83729374 0.00038667138 0)
(0.8339265 0.0003689401 0)
(0.83062529 0.00035213116 0)
(0.8273876 0.00033618782 0)
(0.82421104 0.00032106537 0)
(0.82109334 0.00030671191 0)
(0.81803234 0.00029308441 0)
(0.815026 0.00028014199 0)
(0.81207235 0.000267846 0)
(0.80916952 0.00025616038 0)
(0.80631571 0.0002450512 0)
(0.8035092 0.00023448684 0)
(0.80074833 0.00022443776 0)
(0.79803152 0.00021487643 0)
(0.79535724 0.00020577718 0)
(0.792724 0.00019711619 0)
(0.79013038 0.00018887159 0)
(0.78757493 0.00018102318 0)
(0.78505633 0.00017355376 0)
(0.78257305 0.00016644633 0)
(0.78012396 0.00015969366 0)
(0.77770686 0.00015327898 0)
(0.77532173 0.00014722805 0)
(0.77296259 0.00014150417 0)
(0.77063628 0.00013625881 0)
(0.76831678 0.00013139656 0)
(0.76604882 0.00012775801 4.5291919e-21)
(0.76368795 0.00012288125 3.9114139e-20)
(0.76167685 0.00013102273 0)
(0.75808466 0.00011673779 0)
(0.99801128 0.00054605283 0)
(0.99796516 0.00071166724 0)
(0.99794892 0.00086650998 0)
(0.99793903 0.0010155948 0)
(0.99793365 0.0011699439 0)
(0.99793947 0.0013327609 0)
(0.99796068 0.0015021129 0)
(0.99799908 0.0016762844 0)
(0.99805713 0.0018528358 0)
(0.99813668 0.0020270827 0)
(0.99823769 0.0021947401 0)
(0.99835878 0.0023510423 0)
(0.9984973 0.0024917025 0)
(0.99864941 0.0026135402 0)
(0.99881125 0.0027150366 0)
(0.99897851 0.0027946721 0)
(0.99914723 0.0028539226 0)
(0.99931475 0.0028930109 0)
(0.99947799 0.0029127685 0)
(0.99963408 0.0029161526 0)
(0.99978195 0.0029053493 0)
(0.99992122 0.0028813539 0)
(1.0000504 0.0028453856 0)
(1.0001675 0.0027994115 0)
(1.0002709 0.0027458018 0)
(1.0003599 0.0026868157 0)
(1.0004344 0.0026250185 0)
(1.000494 0.0025629569 0)
(1.0005391 0.0025035425 0)
(1.0005707 0.0024499662 0)
(1.0005907 0.0024035277 0)
(1.0006007 0.0023645913 0)
(1.0006021 0.0023330832 0)
(1.0005949 0.0023073135 0)
(1.0005775 0.0022847054 0)
(1.0005455 0.0022634988 0)
(1.0004934 0.0022432535 0)
(1.0004099 0.0022240319 0)
(1.0002744 0.0022063677 0)
(1.0000588 0.0021906248 0)
(0.9997207 0.002175957 0)
(0.99919508 0.002159098 0)
(0.99834553 0.0021370415 0)
(0.99694579 0.0021058478 0)
(0.99478087 0.002061485 0)
(0.99166963 0.0020049242 0)
(0.98749275 0.0019322266 0)
(0.98232284 0.001840353 0)
(0.97638443 0.001737108 0)
(0.96997619 0.0016284589 0)
(0.96341005 0.0015193526 0)
(0.95693487 0.0014165239 0)
(0.9506779 0.0013235048 0)
(0.94466786 0.0012414318 0)
(0.93888041 0.0011698114 0)
(0.93328345 0.0011062449 0)
(0.92785688 0.0010481284 0)
(0.92259144 0.00099377461 0)
(0.91748143 0.00094233905 0)
(0.91251997 0.00089364166 0)
(0.90769818 0.00084784871 0)
(0.90300696 0.00080482412 0)
(0.89843883 0.00076434947 0)
(0.89398751 0.00072629992 0)
(0.88964713 0.00069044721 0)
(0.88541227 0.00065662588 0)
(0.88127785 0.00062474762 0)
(0.87723914 0.000594647 0)
(0.87329197 0.00056619722 0)
(0.8694324 0.00053932 0)
(0.86565672 0.00051389676 0)
(0.86196149 0.00048984109 0)
(0.8583435 0.00046706863 0)
(0.85479972 0.0004454981 0)
(0.85132728 0.0004250637 0)
(0.84792346 0.00040569246 0)
(0.84458568 0.00038732274 0)
(0.84131151 0.00036989653 0)
(0.83809862 0.00035335929 0)
(0.83494478 0.00033766016 0)
(0.83184785 0.00032275149 0)
(0.82880582 0.00030858889 0)
(0.82581672 0.00029513095 0)
(0.82287868 0.0002823391 0)
(0.81998991 0.00027017747 0)
(0.81714864 0.00025861268 0)
(0.81435321 0.00024761422 0)
(0.81160196 0.00023715364 0)
(0.8088933 0.00022720705 0)
(0.80622553 0.00021774983 0)
(0.80359727 0.00020877244 0)
(0.80100615 0.00020024694 0)
(0.79845192 0.00019221442 0)
(0.79592853 0.00018460098 0)
(0.7934424 0.00017765609 0)
(0.79096786 0.00017110781 0)
(0.78854892 0.00016640987 0)
(0.78604024 0.00015898934 0)
(0.78389777 0.00017315214 5.5501766e-20)
(0.78009255 0.00014710555 0)
(0.99805572 0.00056704975 0)
(0.99800488 0.00072205891 0)
(0.99798109 0.00087173398 0)
(0.99796677 0.0010182474 0)
(0.99795972 0.0011699338 0)
(0.99796477 0.0013292994 0)
(0.99798533 0.0014947124 0)
(0.99802304 0.0016645048 0)
(0.99808 0.0018364761 0)
(0.99815784 0.0020064132 0)
(0.99825649 0.0021700336 0)
(0.99837467 0.0023228472 0)
(0.99850987 0.0024608488 0)
(0.99865854 0.0025810096 0)
(0.99881696 0.0026817544 0)
(0.9989811 0.0027617036 0)
(0.99914718 0.0028218832 0)
(0.9993125 0.0028627017 0)
(0.99947413 0.0028850435 0)
(0.99962937 0.0028911062 0)
(0.99977706 0.0028833852 0)
(0.99991665 0.0028628368 0)
(1.0000467 0.0028303949 0)
(1.0001655 0.0027878272 0)
(1.0002719 0.0027374127 0)
(1.0003652 0.0026814469 0)
(1.000445 0.0026223412 0)
(1.0005116 0.0025626428 0)
(1.0005653 0.0025049934 0)
(1.0006076 0.0024520581 0)
(1.0006411 0.0024053963 0)
(1.000668 0.0023656639 0)
(1.0006906 0.0023331194 0)
(1.0007108 0.0023065413 0)
(1.0007294 0.002283923 0)
(1.0007455 0.002263934 0)
(1.0007581 0.0022455072 0)
(1.0007651 0.0022277738 0)
(1.0007638 0.0022106391 0)
(1.0007506 0.0021939981 0)
(1.0007208 0.0021774238 0)
(1.000668 0.0021609237 0)
(1.0005817 0.0021444279 0)
(1.0004391 0.0021277644 0)
(1.0002083 0.0021111155 0)
(0.99984002 0.0020935547 0)
(0.99926307 0.0020736683 0)
(0.99830633 0.002049085 0)
(0.99676591 0.0020155062 0)
(0.99444911 0.0019709221 0)
(0.99120162 0.0019123521 0)
(0.9870016 0.0018360151 0)
(0.98199539 0.0017465724 0)
(0.97641999 0.0016502216 0)
(0.97055519 0.0015521603 0)
(0.96464018 0.0014580916 0)
(0.95881722 0.0013706765 0)
(0.95313975 0.001291436 0)
(0.94761124 0.001220249 0)
(0.94222173 0.001155581 0)
(0.93696542 0.0010957537 0)
(0.93184128 0.0010395551 0)
(0.92684841 0.00098641673 0)
(0.92198309 0.00093631667 0)
(0.9172397 0.00088912536 0)
(0.91261287 0.00084466547 0)
(0.90809788 0.00080280914 0)
(0.9036902 0.00076333789 0)
(0.89938553 0.00072608569 0)
(0.89517966 0.00069094089 0)
(0.8910686 0.00065774307 0)
(0.88704862 0.00062637133 0)
(0.88311619 0.00059670978 0)
(0.87926794 0.00056864745 0)
(0.87550069 0.00054209251 0)
(0.87181139 0.00051694663 0)
(0.86819716 0.0004931258 0)
(0.86465525 0.00047055144 0)
(0.86118302 0.00044915002 0)
(0.85777797 0.0004288531 0)
(0.85443766 0.00040959668 0)
(0.85115981 0.00039132121 0)
(0.84794218 0.00037397121 0)
(0.84478265 0.000357495 0)
(0.84167916 0.00034184459 0)
(0.83862972 0.00032697531 0)
(0.83563244 0.00031284634 0)
(0.83268541 0.00029941949 0)
(0.82978685 0.00028666275 0)
(0.82693484 0.00027454257 0)
(0.82412779 0.00026304599 0)
(0.82136317 0.00025213264 0)
(0.81864048 0.00024185841 0)
(0.81595361 0.00023211001 0)
(0.81330859 0.0002232384 0)
(0.81068004 0.00021478101 0)
(0.8081114 0.00020885779 0)
(0.8054561 0.00019850821 0)
(0.80318419 0.00021952782 5.206296e-20)
(0.79916865 0.00017992431 0)
(0.99810059 0.00058862586 0)
(0.99804787 0.00073431648 0)
(0.99801876 0.00087869583 0)
(0.99800047 0.0010220431 0)
(0.9979911 0.0011704951 0)
(0.99799436 0.001326012 0)
(0.99801316 0.0014872495 0)
(0.99804905 0.0016526117 0)
(0.99810388 0.0018199691 0)
(0.99817906 0.0019854626 0)
(0.99827454 0.0021450163 0)
(0.9983891 0.0022944537 0)
(0.99852042 0.0024299821 0)
(0.99866517 0.0025486434 0)
(0.9988198 0.0026487686 0)
(0.99898044 0.0027290312 0)
(0.99914347 0.0027900851 0)
(0.99930616 0.0028323479 0)
(0.99946565 0.0028566222 0)
(0.99961936 0.002864819 0)
(0.999766 0.0028592168 0)
(0.99990488 0.0028408031 0)
(1.0000346 0.0028105908 0)
(1.0001536 0.0027703079 0)
(1.0002607 0.0027221669 0)
(1.0003554 0.0026684158 0)
(1.0004373 0.0026113946 0)
(1.0005066 0.0025535602 0)
(1.0005639 0.0024975077 0)
(1.0006107 0.0024458735 0)
(1.0006494 0.0024002516 0)
(1.0006823 0.0023613976 0)
(1.0007119 0.002329458 0)
(1.0007403 0.0023032878 0)
(1.0007686 0.0022811454 0)
(1.0007968 0.0022615717 0)
(1.0008244 0.0022433597 0)
(1.0008504 0.0022257525 0)
(1.0008739 0.0022087585 0)
(1.0008941 0.0021923663 0)
(1.00091 0.0021764825 0)
(1.0009207 0.0021610732 0)
(1.0009243 0.0021456502 0)
(1.0009175 0.0021299884 0)
(1.0008957 0.0021141749 0)
(1.0008522 0.0020983183 0)
(1.0007793 0.0020824254 0)
(1.0006596 0.0020661101 0)
(1.0004636 0.0020491789 0)
(1.0001485 0.0020312802 0)
(0.99965162 0.0020116031 0)
(0.99884128 0.0019886274 0)
(0.9975317 0.0019589099 0)
(0.99554125 0.0019199992 0)
(0.99271099 0.0018673335 0)
(0.98901287 0.0017982652 0)
(0.98455232 0.0017179564 0)
(0.97953089 0.0016310125 0)
(0.97419556 0.0015427184 0)
(0.96875172 0.0014571752 0)
(0.96332708 0.0013764567 0)
(0.95797746 0.0013019844 0)
(0.95271932 0.001233611 0)
(0.94755782 0.0011703623 0)
(0.94249834 0.0011111188 0)
(0.93754599 0.001055164 0)
(0.93270264 0.0010023098 0)
(0.92796708 0.00095239642 0)
(0.9233371 0.00090527506 0)
(0.91881027 0.0008608197 0)
(0.91438388 0.00081883817 0)
(0.91005504 0.00077918496 0)
(0.90582069 0.00074171754 0)
(0.90167782 0.00070629557 0)
(0.89762344 0.00067280029 0)
(0.89365461 0.00064110662 0)
(0.88976846 0.00061110612 0)
(0.88596219 0.0005826973 0)
(0.88223311 0.00055578532 0)
(0.87857857 0.00053028195 0)
(0.87499602 0.00050610469 0)
(0.871483 0.00048317679 0)
(0.86803712 0.00046142677 0)
(0.86465608 0.00044078805 0)
(0.86133765 0.00042119875 0)
(0.85807965 0.00040260128 0)
(0.85488 0.00038494298 0)
(0.85173662 0.00036817442 0)
(0.84864754 0.00035225413 0)
(0.84561065 0.00033713834 0)
(0.84262419 0.00032280948 0)
(0.83968547 0.00030921362 0)
(0.83679378 0.00029642067 0)
(0.83394295 0.00028427627 0)
(0.83113864 0.00027323512 0)
(0.82835573 0.00026263224 0)
(0.82563725 0.00025530356 0)
(0.822835 0.00024165797 -1.6019427e-20)
(0.82043399 0.00027030517 0)
(0.81620832 0.00021541208 -7.953888e-21)
(0.99814484 0.00061029867 0)
(0.99809211 0.00074777378 0)
(0.99805987 0.00088693574 0)
(0.99803885 0.0010267739 0)
(0.99802756 0.0011716793 0)
(0.99802894 0.0013231675 0)
(0.99804561 0.0014801032 0)
(0.99807914 0.0016409446 0)
(0.99813122 0.0018036205 0)
(0.99820311 0.0019646096 0)
(0.99829482 0.0021200758 0)
(0.99840523 0.0022661005 0)
(0.99853219 0.002399072 0)
(0.9986726 0.0025161045 0)
(0.99882306 0.0026154622 0)
(0.99897989 0.0026958462 0)
(0.99913958 0.0027576118 0)
(0.99929937 0.0028011365 0)
(0.99945648 0.0028271429 0)
(0.99960838 0.0028373319 0)
(0.99975367 0.0028337696 0)
(0.99989153 0.0028175142 0)
(1.0000206 0.0027896146 0)
(1.0001393 0.0027517404 0)
(1.0002466 0.0027060159 0)
(1.0003419 0.0026546283 0)
(1.000425 0.0025998592 0)
(1.0004958 0.0025441085 0)
(1.0005552 0.0024898968 0)
(1.0006045 0.0024397468 0)
(1.0006461 0.0023952415 0)
(1.0006822 0.0023571235 0)
(1.0007152 0.0023255705 0)
(1.0007473 0.0022995939 0)
(1.0007797 0.0022775425 0)
(1.0008126 0.0022580071 0)
(1.0008456 0.0022398879 0)
(1.0008782 0.0022224928 0)
(1.0009097 0.0022057953 0)
(1.0009399 0.0021898007 0)
(1.0009684 0.0021743941 0)
(1.0009952 0.0021594091 0)
(1.0010195 0.0021443902 0)
(1.0010405 0.0021291765 0)
(1.0010569 0.0021138826 0)
(1.0010671 0.0020986296 0)
(1.0010698 0.0020833531 0)
(1.001062 0.0020678896 0)
(1.0010392 0.0020523731 0)
(1.0009945 0.0020369403 0)
(1.0009192 0.0020215635 0)
(1.0007972 0.0020058009 0)
(1.0005989 0.0019891377 0)
(1.0002807 0.001971086 0)
(0.99977997 0.001951328 0)
(0.99896356 0.0019285036 0)
(0.99766483 0.0018993657 0)
(0.99571499 0.0018611214 0)
(0.99297873 0.001808796 0)
(0.98945722 0.001742592 0)
(0.98525174 0.001667507 0)
(0.98055416 0.0015877917 0)
(0.97557686 0.0015075826 0)
(0.97048685 0.0014291971 0)
(0.96538348 0.0013548535 0)
(0.96031342 0.0012854662 0)
(0.95529816 0.0012208281 0)
(0.95035207 0.0011601315 0)
(0.9454867 0.0011027369 0)
(0.9407093 0.0010484017 0)
(0.93602311 0.00099696408 0)
(0.93142926 0.0009483055 0)
(0.9269278 0.00090228322 0)
(0.92251807 0.00085874747 0)
(0.91819875 0.00081756804 0)
(0.91396808 0.00077860258 0)
(0.90982411 0.00074172387 0)
(0.9057647 0.00070681071 0)
(0.90178758 0.0006737485 0)
(0.89789046 0.0006424295 0)
(0.894071 0.00061275243 0)
(0.89032686 0.00058462267 0)
(0.88665574 0.00055795186 0)
(0.88305535 0.00053265751 0)
(0.87952343 0.00050866282 0)
(0.87605777 0.00048589615 0)
(0.87265619 0.00046429182 0)
(0.86931654 0.00044378806 0)
(0.86603673 0.0004243328 0)
(0.86281454 0.00040587094 0)
(0.85964809 0.00038837927 0)
(0.85653455 0.00037178934 0)
(0.85347307 0.00035618413 0)
(0.85045742 0.0003413671 0)
(0.84749297 0.00032789802 0)
(0.84455478 0.00031489947 0)
(0.84168566 0.00030597111 1.8472342e-21)
(0.83873546 0.00028864717 0)
(0.83620488 0.00032567683 4.9338946e-20)
(0.83176796 0.00025376397 0)
(0.99818815 0.00063179823 0)
(0.99813646 0.0007619428 0)
(0.99810267 0.00089601667 0)
(0.99808016 0.0010321815 0)
(0.99806774 0.0011734096 0)
(0.99806772 0.0013208065 0)
(0.99808247 0.0014733749 0)
(0.99811361 0.001629634 0)
(0.99816274 0.0017875909 0)
(0.99823105 0.0019440312 0)
(0.99831864 0.0020953566 0)
(0.99842453 0.002237884 0)
(0.99854673 0.0023681833 0)
(0.99868241 0.0024834544 0)
(0.99882833 0.0025819177 0)
(0.998981 0.0026622856 0)
(0.99913703 0.0027246685 0)
(0.99929364 0.0027693773 0)
(0.99944811 0.0027970577 0)
(0.99959795 0.0028092136 0)
(0.99974167 0.0028077167 0)
(0.9998783 0.0027936641 0)
(1.0000065 0.0027681181 0)
(1.0001248 0.0027326887 0)
(1.000232 0.002689414 0)
(1.0003277 0.0026404199 0)
(1.0004115 0.0025879297 0)
(1.0004835 0.0025342825 0)
(1.0005443 0.002481913 0)
(1.0005955 0.0024332298 0)
(1.000639 0.0023898059 0)
(1.0006773 0.0023524039 0)
(1.0007125 0.002321227 0)
(1.0007468 0.0022954068 0)
(1.0007814 0.0022734208 0)
(1.0008166 0.0022539441 0)
(1.0008522 0.0022359386 0)
(1.0008878 0.0022187301 0)
(1.0009228 0.0022022433 0)
(1.0009572 0.0021864612 0)
(1.0009908 0.0021712535 0)
(1.0010237 0.0021564521 0)
(1.0010555 0.0021416678 0)
(1.0010857 0.002126754 0)
(1.0011139 0.0021118205 0)
(1.0011395 0.0020970049 0)
(1.0011622 0.0020822383 0)
(1.001181 0.0020673739 0)
(1.0011948 0.0020525202 0)
(1.0012019 0.0020377736 0)
(1.0012004 0.0020230506 0)
(1.0011874 0.0020081156 0)
(1.0011577 0.0019930215 0)
(1.0011033 0.0019780382 0)
(1.0010146 0.0019630525 0)
(1.0008716 0.0019475063 0)
(1.0006415 0.001930848 0)
(1.0002762 0.0019125688 0)
(0.99969733 0.0018923841 0)
(0.99876245 0.0018684128 0)
(0.9973182 0.0018379771 0)
(0.99520645 0.001796041 0)
(0.99236003 0.0017407062 0)
(0.98880557 0.0016757217 0)
(0.98467235 0.0016044237 0)
(0.98014707 0.0015303193 0)
(0.97540497 0.0014559279 0)
(0.97056957 0.0013837432 0)
(0.96571049 0.0013152606 0)
(0.96086482 0.0012508015 0)
(0.95605653 0.0011899414 0)
(0.95130341 0.0011322359 0)
(0.94661748 0.0010774377 0)
(0.94200604 0.0010254265 0)
(0.93747339 0.00097611025 0)
(0.93302203 0.00092936034 0)
(0.92865314 0.00088505603 0)
(0.92436696 0.00084307627 0)
(0.92016298 0.00080329993 0)
(0.91604024 0.00076560859 0)
(0.91199744 0.00072988801 0)
(0.90803299 0.00069602948 0)
(0.90414518 0.00066393 0)
(0.90033214 0.00063349247 0)
(0.89659192 0.00060462581 0)
(0.89292254 0.00057724457 0)
(0.88932197 0.00055126999 0)
(0.88578813 0.00052662765 0)
(0.88231899 0.00050325438 0)
(0.87891235 0.00048108325 0)
(0.87556629 0.00046008467 0)
(0.87227798 0.00044017514 0)
(0.86904643 0.0004214499 0)
(0.86586546 0.00040366961 0)
(0.86274021 0.00038749989 0)
(0.85964591 0.00037184234 0)
(0.85662529 0.00036110642 0)
(0.85352603 0.00033970713 0)
(0.85086513 0.00038588287 0)
(0.84621531 0.00029518745 0)
(0.99823054 0.00065297505 0)
(0.99818046 0.00077651577 0)
(0.99814615 0.00090562875 0)
(0.99812302 0.0010380112 0)
(0.99811018 0.0011754945 0)
(0.9981094 0.0013187977 0)
(0.99812274 0.0014670016 0)
(0.99815182 0.0016186828 0)
(0.99819817 0.0017719331 0)
(0.99826294 0.0019238122 0)
(0.99834633 0.0020709591 0)
(0.9984475 0.0022099195 0)
(0.99856472 0.0023374464 0)
(0.99869536 0.002450835 0)
(0.99883642 0.0025482805 0)
(0.99898459 0.0026284976 0)
(0.99913662 0.0026913943 0)
(0.99928973 0.0027371989 0)
(0.99944127 0.0027664774 0)
(0.99958879 0.0027805496 0)
(0.99973069 0.0027811062 0)
(0.99986589 0.0027692537 0)
(0.99999305 0.0027460599 0)
(1.0001107 0.0027130783 0)
(1.0002177 0.0026722627 0)
(1.0003136 0.0026256752 0)
(1.0003979 0.0025754781 0)
(1.0004708 0.0025239457 0)
(1.0005329 0.002473428 0)
(1.0005855 0.00242623 0)
(1.0006307 0.0023839108 0)
(1.0006707 0.0023472549 0)
(1.0007075 0.0023164871 0)