/*--------------------------------*- C++ -*----------------------------------*\
  =========                 |
  \\      /  F ield         | OpenFOAM: The Open Source CFD Toolbox
   \\    /   O peration     | Website:  https://openfoam.org
    \\  /    A nd           | Version:  12
     \\/     M anipulation  |
\*---------------------------------------------------------------------------*/
FoamFile
{
    format      ascii;
    class       volScalarField;
    location    "1300";
    object      yPlus;
}
// * * * * * * * * * * * * * * * * * * * * * * * * * * * * * * * * * * * * * //

dimensions      [];

internalField   uniform 0;

boundaryField
{
    inlet
    {
        type            calculated;
        value           uniform 0;
    }
    top
    {
        type            calculated;
        value           uniform 0;
    }
    outlet
    {
        type            calculated;
        value           uniform 0;
    }
    slipsurface
    {
        type            calculated;
        value           uniform 0;
    }
    bottom
    {
        type            calculated;
        value           nonuniform List<scalar> 
100
(
15.353433
18.489061
22.408591
26.986308
32.200426
38.008438
44.31577
50.968364
57.759781
64.442993
70.755791
76.465835
81.39567
85.439244
88.562461
90.807554
92.205136
93.154364
93.120431
92.850174
92.258608
91.434401
90.461016
89.411308
88.348424
87.327327
86.395536
85.591905
84.945184
84.46944
84.157707
83.979752
83.886691
83.823834
83.74656
83.630237
83.470562
83.27667
83.061614
82.835181
82.60161
82.361296
82.113991
81.860946
81.604931
81.348923
81.094912
80.843647
80.595193
80.349533
80.106764
79.86695
79.630129
79.396253
79.165241
78.937036
78.711592
78.488832
78.268674
78.051109
77.836069
77.62343
77.413096
77.205004
76.999095
76.795326
76.593656
76.394028
76.196397
76.000715
75.806931
75.614997
75.424876
75.236519
75.049885
74.864933
74.681627
74.499931
74.31981
74.141229
73.964154
73.788553
73.614393
73.441643
73.270269
73.10024
72.931524
72.764087
72.597896
72.432904
72.269089
72.106358
71.944753
71.783934
71.624363
71.464425
71.307001
71.142212
71.002821
70.744966
)
;
    }
    frontandback
    {
        type            empty;
    }
}


// ************************************************************************* //
