/*--------------------------------*- C++ -*----------------------------------*\
  =========                 |
  \\      /  F ield         | OpenFOAM: The Open Source CFD Toolbox
   \\    /   O peration     | Website:  https://openfoam.org
    \\  /    A nd           | Version:  12
     \\/     M anipulation  |
\*---------------------------------------------------------------------------*/
FoamFile
{
    format      ascii;
    class       volScalarField;
    location    "1300";
    object      epsilon;
}
// * * * * * * * * * * * * * * * * * * * * * * * * * * * * * * * * * * * * * //

dimensions      [0 2 -3 0 0 0 0];

internalField   nonuniform List<scalar> 
7480
(
0.016597408
0.067893261
0.16522699
0.29536271
0.43360874
0.55751769
0.65376745
0.71857628
0.75480447
0.76838178
0.76569766
0.75225472
0.7322536
0.7086612
0.68346137
0.65793563
0.63291842
0.6089827
0.58650724
0.56576453
0.54696908
0.53029941
0.51589595
0.50384911
0.49418581
0.48681892
0.48145002
0.47765753
0.47488029
0.47252128
0.4700955
0.46732396
0.46413713
0.46062526
0.45692866
0.45315783
0.44935924
0.44552742
0.44163893
0.43768461
0.43368322
0.42967231
0.42569037
0.4217619
0.41789514
0.41408999
0.41034602
0.40666462
0.40304742
0.399495
0.39600655
0.39258017
0.38921393
0.38590658
0.38265698
0.37946333
0.37632361
0.37323644
0.37020107
0.36721561
0.36427827
0.36138751
0.35854184
0.35574004
0.3529811
0.35026397
0.34758757
0.34495094
0.34235299
0.33979274
0.33726923
0.3347815
0.33232862
0.32990972
0.32752394
0.32517046
0.32284849
0.32055723
0.31829595
0.31606391
0.3138604
0.31168474
0.30953626
0.30741431
0.30531826
0.30324747
0.30120132
0.29917918
0.29718045
0.29520435
0.29325042
0.29131721
0.28940527
0.2875096
0.28563701
0.28376438
0.28193257
0.2800107
0.27840402
0.27542527
0.00023099436
0.0010217892
0.0033348866
0.007853004
0.014508553
0.022889406
0.032075399
0.040919433
0.048622567
0.054835956
0.059537875
0.063019919
0.065786789
0.068365528
0.071293764
0.075136831
0.080777713
0.08841492
0.096801679
0.10595015
0.11605691
0.12723108
0.13937767
0.15215041
0.16513233
0.17765543
0.18885596
0.19789986
0.20417496
0.20749479
0.20815206
0.20679152
0.20419056
0.20105045
0.19785382
0.19482553
0.19199721
0.18931128
0.18670519
0.18415559
0.18167867
0.17930466
0.17705183
0.17492105
0.17289687
0.17096026
0.16909704
0.16729837
0.16555763
0.16386848
0.1622253
0.16062366
0.15906014
0.15753177
0.15603593
0.15457045
0.15313365
0.15172423
0.15034081
0.14898286
0.14764932
0.14633922
0.14505181
0.14378646
0.14254266
0.14131987
0.14011754
0.13893516
0.1377722
0.13662817
0.13550262
0.1343951
0.13330519
0.13223245
0.1311765
0.13013692
0.12911333
0.12810535
0.12711261
0.12613474
0.1251714
0.12422222
0.12328687
0.12236502
0.12145633
0.12056049
0.11967717
0.11880607
0.11794687
0.11709924
0.11626287
0.11543739
0.11462251
0.11381751
0.11302252
0.11223512
0.11145899
0.11067214
0.1099745
0.10878181
2.5282393e-05
6.0560755e-05
0.00012797292
0.00023285934
0.00037643947
0.00056001594
0.00078305089
0.0010412242
0.0013266485
0.0016287231
0.0019356306
0.0022369121
0.0025259854
0.002801833
0.003070755
0.0033466025
0.0036590746
0.0040480707
0.004555237
0.0052325913
0.0061473628
0.0073842605
0.0090694369
0.011467586
0.014773436
0.019246998
0.025720168
0.033474854
0.04224302
0.051705413
0.061334523
0.070533712
0.078732853
0.085453003
0.090429443
0.093682674
0.095466497
0.096171398
0.096205608
0.095901594
0.095465533
0.094985035
0.094476372
0.093926413
0.093329387
0.092695249
0.092041641
0.091382911
0.090725204
0.090068579
0.089411533
0.08875361
0.088095366
0.087437426
0.086780096
0.086123541
0.085467987
0.084813762
0.084161141
0.083510453
0.082862214
0.082216924
0.081575025
0.080936932
0.080303043
0.079673715
0.07904925
0.078429911
0.077815928
0.077207507
0.07660483
0.076008059
0.075417337
0.074832785
0.0742545
0.073682561
0.073117027
0.072557941
0.072005326
0.071459195
0.070919545
0.070386362
0.069859618
0.069339276
0.068825291
0.068317608
0.067816165
0.067320893
0.066831714
0.066348548
0.065871292
0.065399864
0.064934089
0.064473951
0.064018996
0.063569527
0.063124954
0.062678917
0.06228198
0.061599961
1.1989749e-05
1.751287e-05
2.6541628e-05
3.8889958e-05
5.4288751e-05
7.2550928e-05
9.3527647e-05
0.00011702165
0.00014274786
0.00017033488
0.00019934076
0.00022929073
0.00025973322
0.00029030198
0.0003207801
0.00035112452
0.00038164872
0.00041299828
0.00044639209
0.00048376318
0.00052759051
0.00058185483
0.00065190183
0.00074657834
0.00087968629
0.0010696422
0.0013628628
0.0018089728
0.0024772449
0.0034493513
0.0048926223
0.006973495
0.0098364627
0.013938833
0.018864218
0.024349122
0.030038476
0.035576458
0.040617463
0.04488049
0.048226007
0.050674132
0.052371257
0.053524098
0.054329591
0.054925797
0.055383914
0.055729098
0.055969401
0.05611487
0.056181541
0.05618636
0.056142056
0.056056315
0.055934035
0.055779409
0.055596531
0.055389123
0.055160271
0.054912487
0.054648039
0.05436903
0.054077371
0.053774766
0.053462738
0.05314265
0.052815716
0.052483031
0.052145578
0.051804242
0.051459824
0.051113051
0.050764582
0.050415014
0.050064882
0.049714669
0.049364808
0.049015687
0.048667653
0.048321013
0.047976042
0.047632982
0.047292046
0.046953419
0.046617262
0.046283717
0.045952902
0.04562492
0.045299856
0.044977784
0.044658746
0.044342817
0.044029943
0.043720325
0.043413548
0.043110455
0.04280991
0.042509482
0.042243032
0.041781247
9.7801557e-06
1.1211923e-05
1.3614039e-05
1.6863143e-05
2.0827354e-05
2.5409348e-05
3.0543921e-05
3.6183206e-05
4.2284401e-05
4.8803142e-05
5.5690993e-05
6.2895222e-05
7.0360607e-05
7.8032744e-05
8.5862708e-05
9.3809695e-05
0.00010185027
0.00010998274
0.00011823742
0.00012670024
0.00013549098
0.0001448367
0.00015503713
0.00016653694
0.00018002098
0.00019633962
0.00021711079
0.0002445693
0.00028192765
0.00033370159
0.00040760793
0.00051633021
0.00067770444
0.00093349897
0.0013363589
0.001944855
0.0028929196
0.0042780985
0.0062330129
0.0089126293
0.012105507
0.015606298
0.019185294
0.022613004
0.025687727
0.028287759
0.030385004
0.032033539
0.033332481
0.034381065
0.035249849
0.03597677
0.036579952
0.037072338
0.037468507
0.037783713
0.038030823
0.038219268
0.038356123
0.038447367
0.038498431
0.038514148
0.038498667
0.038455552
0.038387944
0.038298639
0.038190111
0.038064559
0.037923937
0.037769997
0.037604312
0.037428298
0.037243232
0.037050267
0.036850444
0.036644704
0.036433895
0.036218787
0.036000073
0.035778379
0.03555427
0.035328257
0.035100796
0.034872302
0.034643143
0.034413652
0.034184128
0.033954837
0.033726018
0.033497887
0.033270622
0.03304442
0.032819361
0.032595744
0.032373321
0.032152985
0.03193384
0.031714444
0.03152128
0.031181885
9.2378209e-06
9.6607972e-06
1.0466488e-05
1.164201e-05
1.3134278e-05
1.4890405e-05
1.6870247e-05
1.9045685e-05
2.1396607e-05
2.3907313e-05
2.6564183e-05
2.9354375e-05
3.2265214e-05
3.5283986e-05
3.8398235e-05
4.1596057e-05
4.4866934e-05
4.8202565e-05
5.1597889e-05
5.5054229e-05
5.8578758e-05
6.2190153e-05
6.591949e-05
6.9813737e-05
7.3945681e-05
7.8412087e-05
8.3358717e-05
8.9007914e-05
9.5655402e-05
0.00010370636
0.0001137064
0.00012653383
0.00014325194
0.0001658372
0.00019725589
0.00024152768
0.00030622421
0.00040255858
0.00054909836
0.00078169328
0.001143332
0.0017157649
0.0025814899
0.0038330649
0.005560066
0.0076559908
0.009987405
0.012408909
0.014767806
0.016934196
0.018829504
0.02043501
0.021780233
0.022915483
0.02388627
0.024722222
0.025440345
0.02605303
0.026572759
0.027011959
0.02738135
0.027689429
0.027943142
0.028148592
0.028311258
0.028435934
0.028526774
0.028587427
0.028621137
0.028630786
0.028618942
0.028587899
0.028539714
0.028476234
0.028399123
0.02830988
0.028209858
0.02810028
0.027982251
0.02785677
0.027724741
0.027586983
0.027444235
0.027297167
0.027146384
0.026992434
0.026835811
0.026676964
0.026516297
0.026354181
0.026190936
0.026026887
0.025862248
0.025697405
0.025532293
0.025367758
0.025203274
0.025037643
0.024892983
0.024633985
9.0665795e-06
9.1932033e-06
9.4708567e-06
9.9286484e-06
1.0562599e-05
1.1352625e-05
1.227619e-05
1.3314227e-05
1.4452187e-05
1.567919e-05
1.698688e-05
1.8368503e-05
1.9818282e-05
2.1331024e-05
2.2901884e-05
2.4526261e-05
2.6199817e-05
2.7918582e-05
2.9679097e-05
3.1478919e-05
3.3316836e-05
3.5193607e-05
3.711265e-05
3.9080607e-05
4.1109031e-05
4.3215272e-05
4.542436e-05
4.7774246e-05
5.0316837e-05
5.3124551e-05
5.6284423e-05
5.9934088e-05
6.4221759e-05
6.9370347e-05
7.5708364e-05
8.3667344e-05
9.3897018e-05
0.00010731964
0.00012525737
0.0001499537
0.00018471846
0.00023552149
0.00031157622
0.0004279789
0.00061261721
0.00089899371
0.0013583933
0.0020460151
0.0030645446
0.0043774919
0.0059276868
0.0076258813
0.0093678069
0.011051332
0.01259983
0.013975482
0.015177699
0.016227018
0.017147087
0.01795525
0.018662963
0.019279772
0.019815399
0.020279263
0.020679541
0.02102308
0.02131584
0.02156319
0.021769916
0.021940238
0.022077896
0.022186233
0.022268241
0.022326601
0.022363718
0.022381758
0.022382672
0.022368222
0.022339999
0.02229944
0.022247848
0.022186402
0.022116167
0.022038113
0.021953114
0.021861966
0.021765391
0.021664041
0.021558511
0.021449342
0.021337016
0.021221997
0.021104648
0.020985447
0.020864515
0.020742659
0.020619694
0.020494541
0.020386007
0.020186599
8.9886611e-06
9.0279803e-06
9.1206141e-06
9.2937107e-06
9.5618961e-06
9.9265465e-06
1.0380954e-05
1.0915553e-05
1.1520981e-05
1.2189239e-05
1.2913842e-05
1.3689599e-05
1.45123e-05
1.5378448e-05
1.6285042e-05
1.722942e-05
1.8209163e-05
1.9222045e-05
2.0266021e-05
2.13393e-05
2.2440413e-05
2.3568354e-05
2.4722788e-05
2.590424e-05
2.7114456e-05
2.8356823e-05
2.96367e-05
3.0962399e-05
3.2345763e-05
3.3803779e-05
3.5357447e-05
3.7035305e-05
3.8882535e-05
4.0954343e-05
4.3316967e-05
4.6058316e-05
4.9293957e-05
5.3181341e-05
5.7914864e-05
6.377907e-05
7.11683e-05
8.070358e-05
9.3293369e-05
0.00011026957
0.00013385846
0.00016732466
0.0002171086
0.00029210141
0.00041073496
0.00059633644
0.00089198615
0.0013460057
0.0020293333
0.0029383003
0.0040436372
0.0052890325
0.0066016091
0.0079058238
0.0091399092
0.010268787
0.011283844
0.012191951
0.013003529
0.013726988
0.014369068
0.01493655
0.015436543
0.015875779
0.0162602
0.016595096
0.016885293
0.017135174
0.017348676
0.017529341
0.017680366
0.017804636
0.017904761
0.017983097
0.018041776
0.018082729
0.018107707
0.018118293
0.018115926
0.018101912
0.018077433
0.018043566
0.018001288
0.017951487
0.017894969
0.017832471
0.017764656
0.017692146
0.017615464
0.017535201
0.017451662
0.017365649
0.017277267
0.017185603
0.017106531
0.016955509
8.9288994e-06
8.9442904e-06
8.9759682e-06
9.0385873e-06
9.1460785e-06
9.3073781e-06
9.5256244e-06
9.7996461e-06
1.0125946e-05
1.0500212e-05
1.0918181e-05
1.137602e-05
1.1870426e-05
1.2398598e-05
1.2958154e-05
1.3547043e-05
1.4163469e-05
1.4805827e-05
1.5472667e-05
1.6162684e-05
1.6874722e-05
1.7607801e-05
1.8361168e-05
1.9134369e-05
1.9927353e-05
2.0740629e-05
2.157539e-05
2.2433768e-05
2.3319059e-05
2.4236202e-05
2.519178e-05
2.6194354e-05
2.7256593e-05
2.8395397e-05
2.9631254e-05
3.0989998e-05
3.2503551e-05
3.421173e-05
3.6168358e-05
3.8450204e-05
4.1141643e-05
4.4361322e-05
4.8273796e-05
5.3102672e-05
5.9153977e-05
6.6862371e-05
7.6975113e-05
9.0498504e-05
0.00010922164
0.00013573524
0.00017478718
0.00023347938
0.00032573586
0.00046986952
0.00069891317
0.001053385
0.0015806578
0.0022825212
0.0031376024
0.004106661
0.0051351573
0.0061659615
0.0071533351
0.0080714999
0.0089124053
0.0096772708
0.010369635
0.010993101
0.01155174
0.012050331
0.012493841
0.012886963
0.013234053
0.01353919
0.013806162
0.014038445
0.01423922
0.014411397
0.014557631
0.014680343
0.014781739
0.014863827
0.014928437
0.014977234
0.015011734
0.015033317
0.015043242
0.015042654
0.015032594
0.015014014
0.014987777
0.014954684
0.014915432
0.014870744
0.014821109
0.014767366
0.014709856
0.014647931
0.014594651
0.014485766
8.8680509e-06
8.8773114e-06
8.8908138e-06
8.9143726e-06
8.9559498e-06
9.0233319e-06
9.1223784e-06
9.2563886e-06
9.4263589e-06
9.6316497e-06
9.870677e-06
1.0141444e-05
1.044187e-05
1.0769974e-05
1.1123943e-05
1.1502153e-05
1.1903157e-05
1.2325658e-05
1.2768489e-05
1.3230601e-05
1.3711048e-05
1.4208989e-05
1.4723701e-05
1.5254594e-05
1.5801254e-05
1.6363498e-05
1.6941428e-05
1.7535515e-05
1.8146692e-05
1.8776511e-05
1.9427236e-05
2.0101909e-05
2.0804836e-05
2.1541983e-05
2.2320964e-05
2.3151406e-05
2.4045175e-05
2.5016732e-05
2.6083975e-05
2.7271435e-05
2.8607506e-05
3.0127041e-05
3.1874716e-05
3.3904935e-05
3.630851e-05
3.9182785e-05
4.267558e-05
4.6979147e-05
5.2392067e-05
5.9301799e-05
6.836565e-05
8.0509045e-05
9.7347437e-05
0.00012126858
0.00015652836
0.00020990518
0.00029362015
0.0004237999
0.00063073392
0.00095099574
0.0014068035
0.0019992107
0.0027101438
0.0035056801
0.0043417484
0.0051752735
0.0059751233
0.0067250226
0.0074191805
0.008056515
0.008637633
0.0091642912
0.0096392819
0.010065946
0.01044773
0.010788029
0.011090145
0.011357229
0.01159224
0.011797938
0.011976887
0.012131451
0.012263811
0.012375968
0.01246976
0.012546872
0.012608845
0.012657089
0.012692892
0.012717436
0.012731794
0.012736959
0.012733817
0.012723239
0.012705899
0.01268271
0.012654208
0.012620108
0.012590662
0.01252049
8.801952e-06
8.80955e-06
8.8180768e-06
8.8292766e-06
8.8465768e-06
8.8744089e-06
8.9173389e-06
8.9793008e-06
9.0631391e-06
9.1705052e-06
9.3020143e-06
9.4575184e-06
9.6363766e-06
9.8376757e-06
1.0060382e-05
1.0303437e-05
1.0565809e-05
1.0846519e-05
1.1144656e-05
1.1459372e-05
1.1789891e-05
1.2135504e-05
1.2495572e-05
1.2869535e-05
1.3256926e-05
1.3657392e-05
1.407072e-05
1.4496868e-05
1.4936003e-05
1.5388565e-05
1.5855315e-05
1.6337375e-05
1.683636e-05
1.7354565e-05
1.7895059e-05
1.8461832e-05
1.9059908e-05
1.9695484e-05
2.0376031e-05
2.1111241e-05
2.1912836e-05
2.2794761e-05
2.3774097e-05
2.4870559e-05
2.6112749e-05
2.7533559e-05
2.9176862e-05
3.1096256e-05
3.3363155e-05
3.6090868e-05
3.9422918e-05
4.3551511e-05
4.8772398e-05
5.5495756e-05
6.4367606e-05
7.6374091e-05
9.3166829e-05
0.00011726229
0.00015309246
0.00020839808
0.00029448643
0.00042992258
0.00064237081
0.0009570506
0.0013840174
0.0019180172
0.0025395157
0.0032164815
0.0039127306
0.0045983031
0.0052542875
0.0058711521
0.0064446655
0.0069731766
0.0074567066
0.0078965462
0.0082947447
0.0086537016
0.0089759694
0.0092641478
0.0095207975
0.0097483863
0.0099492616
0.010125635
0.010279575
0.010413007
0.010527716
0.010625349
0.010707428
0.010775352
0.010830406
0.010873778
0.010906543
0.010929731
0.010944204
0.010950971
0.010950733
0.010943652
0.010937134
0.010903973
8.7300495e-06
8.7369886e-06
8.7441203e-06
8.7517461e-06
8.7610543e-06
8.7739989e-06
8.7930965e-06
8.8211084e-06
8.8606759e-06
8.9140235e-06
8.982802e-06
9.0680683e-06
9.1703552e-06
9.2897831e-06
9.4261751e-06
9.5791564e-06
9.7482319e-06
9.9328411e-06
1.0132396e-05
1.0346307e-05
1.0573997e-05
1.0814918e-05
1.106855e-05
1.1334417e-05
1.1612091e-05
1.1901207e-05
1.2201474e-05
1.251269e-05
1.2834759e-05
1.3167718e-05
1.3511761e-05
1.3867261e-05
1.4234818e-05
1.4615336e-05
1.5010089e-05
1.5420806e-05
1.5849738e-05
1.6299739e-05
1.6774293e-05
1.7277787e-05
1.7815623e-05
1.8394269e-05
1.9021531e-05
1.9706362e-05
2.0460376e-05
2.1297367e-05
2.223465e-05
2.3293137e-05
2.4497659e-05
2.5884578e-05
2.7499536e-05
2.9399788e-05
3.1662783e-05
3.4398254e-05
3.7768582e-05
4.1988122e-05
4.7380617e-05
5.4416506e-05
6.3813251e-05
7.6786575e-05
9.5202661e-05
0.00012216649
0.00016309707
0.00022654752
0.00032543889
0.0004814445
0.00071578676
0.0010412987
0.0014592033
0.0019582308
0.0025147843
0.0030994619
0.0036859554
0.0042559415
0.0047987218
0.005308504
0.0057823174
0.0062190892
0.0066191037
0.0069834936
0.0073138724
0.0076121277
0.0078802851
0.0081204097
0.0083345428
0.008524663
0.0086926618
0.0088403293
0.0089693472
0.0090812872
0.0091776109
0.0092596782
0.0093287392
0.0093859789
0.0094324339
0.0094692286
0.0094971985
0.0095170216
0.009533181
0.0095364285
8.6525047e-06
8.6590089e-06
8.6656037e-06
8.6721812e-06
8.679069e-06
8.6869798e-06
8.6970179e-06
8.7106434e-06
8.729551e-06
8.7554933e-06
8.7901098e-06
8.8348023e-06
8.8906686e-06
8.9584906e-06
9.0387592e-06
9.131719e-06
9.2374193e-06
9.3557625e-06
9.4865458e-06
9.6294958e-06
9.7842945e-06
9.9505995e-06
1.012806e-05
1.0316327e-05
1.051507e-05
1.0723979e-05
1.0942785e-05
1.1171259e-05
1.1409231e-05
1.1656596e-05
1.191333e-05
1.2179502e-05
1.2455297e-05
1.2741043e-05
1.3037256e-05
1.3344682e-05
1.3664344e-05
1.3997589e-05
1.4346116e-05
1.4712062e-05
1.5098088e-05
1.5507427e-05
1.5943997e-05
1.6412348e-05
1.6918053e-05
1.7467751e-05
1.8069518e-05
1.8733094e-05
1.9469632e-05
2.0293847e-05
2.1224269e-05
2.2283281e-05
2.3499713e-05
2.4910282e-05
2.6566285e-05
2.8534016e-05
3.0902021e-05
3.3793834e-05
3.7398918e-05
4.1984736e-05
4.7942304e-05
5.5863624e-05
6.6695217e-05
8.1963126e-05
0.00010409366
0.00013741932
0.0001887649
0.00026838988
0.0003939654
0.00058230287
0.00084613363
0.0011891818
0.001604162
0.0020725641
0.0025703419
0.0030752521
0.003570989
0.0040472244
0.0044977952
0.0049192169
0.0053098817
0.0056694964
0.0059986138
0.0062983138
0.0065700016
0.0068152658
0.0070357793
0.0072332342
0.007409298
0.0075655852
0.0077036396
0.007824926
0.0079308195
0.0080226265
0.0081015308
0.0081687662
0.0082252677
0.0082722816
0.0083112624
0.0083510126
8.5695822e-06
8.5757264e-06
8.5819788e-06
8.588146e-06
8.5942797e-06
8.6006007e-06
8.6075155e-06
8.6156556e-06
8.6258797e-06
8.6392295e-06
8.6568507e-06
8.6799038e-06
8.7094815e-06
8.7465469e-06
8.7918973e-06
8.8461516e-06
8.9097557e-06
8.9829994e-06
9.0660397e-06
9.1589249e-06
9.2616184e-06
9.374019e-06
9.495979e-06
9.6273201e-06
9.767846e-06
9.9173554e-06
1.0075652e-05
1.0242553e-05
1.0417899e-05
1.0601561e-05
1.0793447e-05
1.0993513e-05
1.1201775e-05
1.1418319e-05
1.1643327e-05
1.1877103e-05
1.2120099e-05
1.2372944e-05
1.2636471e-05
1.2911752e-05
1.3200143e-05
1.3503326e-05
1.3823364e-05
1.4162703e-05
1.4524282e-05
1.4911598e-05
1.5328835e-05
1.5781024e-05
1.6273927e-05
1.6814618e-05
1.7411863e-05
1.8076112e-05
1.8820351e-05
1.9660357e-05
2.061653e-05
2.1715207e-05
2.2989429e-05
2.4481835e-05
2.6252688e-05
2.8383553e-05
3.0984001e-05
3.4210605e-05
3.8309899e-05
4.3628626e-05
5.0683717e-05
6.0313077e-05
7.3852248e-05
9.3397121e-05
0.00012277217
0.00016772389
0.00023747797
0.00034645597
0.00050878163
0.00073558231
0.0010308112
0.0013884298
0.0017927292
0.0022236457
0.0026626578
0.0030959046
0.0035141804
0.0039116829
0.0042849781
0.0046323343
0.004953204
0.0052478238
0.0055169438
0.0057616415
0.0059831894
0.0061829637
0.0063623813
0.006522858
0.0066657784
0.0067924882
0.006904252
0.007002377
0.0070878458
0.0071625001
0.0072246273
0.0073013701
8.4815588e-06
8.4873908e-06
8.4933575e-06
8.4992622e-06
8.5050802e-06
8.5108669e-06
8.5167518e-06
8.5229675e-06
8.5298787e-06
8.5379918e-06
8.547944e-06
8.5604737e-06
8.5763772e-06
8.5964603e-06
8.6214947e-06
8.6521822e-06
8.6891318e-06
8.7328474e-06
8.7837267e-06
8.8420659e-06
8.9080696e-06
8.981863e-06
9.0635045e-06
9.1529985e-06
9.250308e-06
9.3553664e-06
9.4680877e-06
9.5883753e-06
9.7161308e-06
9.8512609e-06
9.9936842e-06
1.0143337e-05
1.0300182e-05
1.0464215e-05
1.063548e-05
1.0814082e-05
1.1000206e-05
1.1194136e-05
1.139627e-05
1.1607143e-05
1.1827454e-05
1.2058091e-05
1.2300164e-05
1.2555023e-05
1.2824295e-05
1.3109923e-05
1.3414223e-05
1.373997e-05
1.4090378e-05
1.4469257e-05
1.4881221e-05
1.5331735e-05
1.5827419e-05
1.637617e-05
1.698766e-05
1.7674079e-05
1.8450404e-05
1.9335016e-05
2.035217e-05
2.1533457e-05
2.2919901e-05
2.4565192e-05
2.6547114e-05
2.8971371e-05
3.1980653e-05
3.579898e-05
4.0765393e-05
4.736081e-05
5.6395718e-05
6.9102645e-05
8.7497253e-05
0.00011512399
0.00015717329
0.00022276667
0.00032360376
0.00047213282
0.00067743958
0.00094234562
0.0012603866
0.0016174034
0.0019963739
0.0023820278
0.0027629194
0.0031312398
0.0034819256
0.0038119221
0.0041196307
0.0044044674
0.0046665373
0.004906408
0.0051249479
0.0053232103
0.0055023555
0.0056635956
0.0058081432
0.0059372895
0.0060519763
0.0061546321
0.0062402091
0.0063545491
8.3887213e-06
8.3942802e-06
8.399992e-06
8.405673e-06
8.4112799e-06
8.4168182e-06
8.4223233e-06
8.4278705e-06
8.4335942e-06
8.4397047e-06
8.4464996e-06
8.4543665e-06
8.4637743e-06
8.4752554e-06
8.4893808e-06
8.5067326e-06
8.5278785e-06
8.5533496e-06
8.5836249e-06
8.6191214e-06
8.6601897e-06
8.7071139e-06
8.7601146e-06
8.8193551e-06
8.884948e-06
8.9569636e-06
9.0354378e-06
9.1203797e-06
9.2117788e-06
9.3096116e-06
9.4138477e-06
9.5244547e-06
9.6414047e-06
9.7646806e-06
9.894284e-06
1.0030244e-05
1.0172631e-05
1.0321565e-05
1.0477231e-05
1.0639893e-05
1.0809906e-05
1.0987739e-05
1.1173995e-05
1.1369423e-05
1.1574944e-05
1.1791668e-05
1.2020927e-05
1.2264317e-05
1.2523711e-05
1.2801304e-05
1.3099713e-05
1.3422023e-05
1.3771906e-05
1.4153709e-05
1.4572601e-05
1.5034901e-05
1.5548283e-05
1.6121939e-05
1.6767385e-05
1.7499036e-05
1.8335369e-05
1.9299267e-05
2.0421429e-05
2.1742862e-05
2.3315877e-05
2.5214319e-05
2.7544798e-05
3.0450769e-05
3.4144183e-05
3.8970569e-05
4.5417181e-05
5.4295772e-05
6.6817083e-05
8.5114197e-05
0.00011256738
0.00015447497
0.00021949
0.0003181256
0.00046077099
0.00065466408
0.00090034692
0.0011902675
0.0015112491
0.0018488103
0.0021905292
0.0025271696
0.0028523495
0.0031618921
0.0034532712
0.0037251551
0.0039770529
0.0042090527
0.0044216417
0.0046155648
0.0047917302
0.0049512316
0.0050948157
0.0052254316
0.0053345002
0.0054868405
8.29137e-06
8.2966878e-06
8.3021691e-06
8.3076442e-06
8.3130663e-06
8.3184263e-06
8.3237309e-06
8.3290016e-06
8.3342827e-06
8.3396513e-06
8.3452281e-06
8.3511871e-06
8.357762e-06
8.3652465e-06
8.3739886e-06
8.3843798e-06
8.3968405e-06
8.4118038e-06
8.4296994e-06
8.4509404e-06
8.4759114e-06
8.5049607e-06
8.5383951e-06
8.5764782e-06
8.6194305e-06
8.6674317e-06
8.7206247e-06
8.7791192e-06
8.8429967e-06
8.9123156e-06
8.9871149e-06
9.0674193e-06
9.1532436e-06
9.2445979e-06
9.3414931e-06
9.4439477e-06
9.5519952e-06
9.6656924e-06
9.7851282e-06
9.9104333e-06
1.0041791e-05
1.0179448e-05
1.0323733e-05
1.0475063e-05
1.0633962e-05
1.0801074e-05
1.0977179e-05
1.1163219e-05
1.1360312e-05
1.1569775e-05
1.1793162e-05
1.2032307e-05
1.228937e-05
1.2566896e-05
1.2867873e-05
1.319587e-05
1.3555164e-05
1.3950818e-05
1.4388974e-05
1.4877085e-05
1.5424484e-05
1.604251e-05
1.6745428e-05
1.7551958e-05
1.8485199e-05
1.9575575e-05
2.0864678e-05
2.2407066e-05
2.4276041e-05
2.6582243e-05
2.9476609e-05
3.3183706e-05
3.8043814e-05
4.4602134e-05
5.3697218e-05
6.6649071e-05
8.5699453e-05
0.00011432044
0.00015835707
0.00022596836
0.00032666604
0.00046908687
0.00065791057
0.00089101858
0.0011597312
0.0014518246
0.0017551527
0.0020597873
0.0023584325
0.0026460447
0.002919341
0.003176354
0.0034160762
0.0036381717
0.0038427812
0.0040304613
0.0042014928
0.0043591828
0.0044911918
0.0046813288
8.189818e-06
8.1949207e-06
8.2001918e-06
8.2054744e-06
8.2107223e-06
8.2159217e-06
8.2210705e-06
8.2261735e-06
8.2312441e-06
8.2363081e-06
8.2414091e-06
8.2466158e-06
8.2520294e-06
8.2577892e-06
8.2640764e-06
8.2711138e-06
8.2791626e-06
8.2885159e-06
8.2994898e-06
8.3124142e-06
8.3276222e-06
8.3454413e-06
8.3661847e-06
8.3901451e-06
8.4175908e-06
8.448762e-06
8.4838709e-06
8.5231008e-06
8.566608e-06
8.6145234e-06
8.6669548e-06
8.7239892e-06
8.7856966e-06
8.8521328e-06
8.9233436e-06
8.9993698e-06
9.0802521e-06
9.1660365e-06
9.2567812e-06
9.352563e-06
9.4534848e-06
9.5596847e-06
9.6713452e-06
9.7887036e-06
9.9120613e-06
1.0041795e-05
1.0178367e-05
1.0322343e-05
1.0474401e-05
1.0635345e-05
1.0806129e-05
1.0987878e-05
1.1181914e-05
1.1389791e-05
1.1613327e-05
1.1854661e-05
1.211633e-05
1.2401314e-05
1.2713161e-05
1.3056088e-05
1.3435243e-05
1.3856821e-05
1.4328332e-05
1.4859309e-05
1.5461366e-05
1.6149158e-05
1.6941695e-05
1.7863448e-05
1.8945634e-05
2.0231866e-05
2.1780239e-05
2.3670856e-05
2.6016804e-05
2.8986528e-05
3.2824721e-05
3.7900994e-05
4.4823019e-05
5.4505565e-05
6.8484364e-05
8.9186333e-05
0.00012059579
0.00016887046
0.0002419108
0.00034814298
0.00049412368
0.00068143113
0.00090539941
0.0011566317
0.0014241503
0.0016980343
0.0019705123
0.0022359547
0.0024905182
0.002731735
0.0029581715
0.0031692433
0.003364294
0.0035466685
0.0036999844
0.0039265384
8.0843886e-06
8.089297e-06
8.0943752e-06
8.099477e-06
8.1045581e-06
8.1096034e-06
8.1146076e-06
8.1195703e-06
8.1244949e-06
8.1293895e-06
8.1342687e-06
8.1391568e-06
8.1440925e-06
8.1491338e-06
8.1543629e-06
8.1598896e-06
8.1658539e-06
8.1724256e-06
8.179803e-06
8.1882092e-06
8.1978868e-06
8.2090918e-06
8.2220871e-06
8.2371362e-06
8.2544971e-06
8.274418e-06
8.2971329e-06
8.3228589e-06
8.3517944e-06
8.3841179e-06
8.419988e-06
8.4595432e-06
8.5029037e-06
8.5501725e-06
8.6014378e-06
8.6567759e-06
8.7162547e-06
8.7799371e-06
8.8478854e-06
8.9201662e-06
8.9968553e-06
9.0780445e-06
9.1638481e-06
9.2544103e-06
9.3499123e-06
9.4505808e-06
9.5566963e-06
9.668603e-06
9.7867183e-06
9.9115422e-06
1.004367e-05
1.0183807e-05
1.0332785e-05
1.0491579e-05
1.0661332e-05
1.0843382e-05
1.10393e-05
1.1250927e-05
1.1480428e-05
1.1730346e-05
1.2003721e-05
1.2304179e-05
1.2636029e-05
1.3004572e-05
1.3416207e-05
1.3878781e-05
1.4402092e-05
1.4998481e-05
1.568326e-05
1.6476557e-05
1.7404544e-05
1.8501654e-05
1.9813803e-05
2.1405234e-05
2.3364932e-05
2.5817954e-05
2.8954496e-05
3.3049632e-05
3.8532071e-05
4.6098879e-05
5.6842822e-05
7.2554709e-05
9.6086551e-05
0.00013205759
0.00018681521
0.00026791688
0.00038239216
0.00053396431
0.00072102988
0.00093692309
0.0011722756
0.0014176975
0.0016653432
0.001909272
0.0021452674
0.0023706288
0.0025829817
0.0027851369
0.0029563017
0.0032158614
7.975412e-06
7.980143e-06
7.9850427e-06
7.9899739e-06
7.9948951e-06
7.9997907e-06
8.0046543e-06
8.0094834e-06
8.0142782e-06
8.0190409e-06
8.023776e-06
8.0284913e-06
8.0332001e-06
8.0379238e-06
8.0426952e-06
8.0475618e-06
8.052589e-06
8.0578626e-06
8.0634908e-06
8.0696043e-06
8.0763558e-06
8.0839178e-06
8.0924794e-06
8.1022427e-06
8.1134183e-06
8.126221e-06
8.140866e-06
8.1575642e-06
8.1765197e-06
8.1979264e-06
8.2219661e-06
8.2488065e-06
8.2786009e-06
8.3114877e-06
8.3475909e-06
8.3870212e-06
8.4298776e-06
8.4762495e-06
8.5262191e-06
8.5798646e-06
8.6372634e-06
8.6984966e-06
8.7636537e-06
8.8328379e-06
8.9061716e-06
8.9838023e-06
9.0659091e-06
9.15271e-06
9.2444689e-06
9.3415026e-06
9.4441903e-06
9.5529825e-06
9.6684117e-06
9.7911045e-06
9.921796e-06
1.0061346e-05
1.0210759e-05
1.0371212e-05
1.0544078e-05
1.0730961e-05
1.093375e-05
1.1154679e-05
1.1396375e-05
1.1661991e-05
1.1955299e-05
1.2280835e-05
1.2644118e-05
1.3051953e-05
1.3512628e-05
1.4036582e-05
1.4637054e-05
1.533092e-05
1.6139818e-05
1.7092527e-05
1.8227424e-05
1.9595735e-05
2.1270137e-05
2.3351485e-05
2.5984766e-05
2.9391021e-05
3.3901625e-05
4.0030777e-05
4.8624935e-05
6.1036452e-05
7.9451652e-05
0.00010737709
0.00014989234
0.00021353419
0.00030509517
0.00042933544
0.00058673771
0.00077292102
0.00098019921
0.0012000214
0.00142476
0.0016485557
0.0018662525
0.0020792419
0.0022618437
0.0025476852
7.8632224e-06
7.8677897e-06
7.8725231e-06
7.877293e-06
7.8820605e-06
7.8868105e-06
7.8915362e-06
7.8962342e-06
7.9009032e-06
7.9055432e-06
7.9101553e-06
7.9147418e-06
7.9193067e-06
7.9238568e-06
7.9284036e-06
7.9329649e-06
7.9375676e-06
7.9422495e-06
7.9470624e-06
7.9520734e-06
7.9573668e-06
7.9630443e-06
7.969225e-06
7.9760442e-06
7.9836518e-06
7.9922095e-06
8.0018885e-06
8.012866e-06
8.0253221e-06
8.0394366e-06
8.0553866e-06
8.0733431e-06
8.0934698e-06
8.115921e-06
8.1408408e-06
8.1683628e-06
8.1986101e-06
8.231696e-06
8.2677244e-06
8.306792e-06
8.3489898e-06
8.3944056e-06
8.4431275e-06
8.4952472e-06
8.5508636e-06
8.6100878e-06
8.6730471e-06
8.739891e-06
8.8107963e-06
8.8859724e-06
8.9656682e-06
9.0501791e-06
9.1398537e-06
9.2351027e-06
9.3364081e-06
9.4443342e-06
9.5595405e-06
9.6827956e-06
9.8149972e-06
9.9571892e-06
1.011059e-05
1.0276631e-05
1.0456983e-05
1.0653622e-05
1.0868886e-05
1.1105551e-05
1.1366938e-05
1.1657059e-05
1.1980743e-05
1.2343897e-05
1.275383e-05
1.3219646e-05
1.3752708e-05
1.4367549e-05
1.5082944e-05
1.5923095e-05
1.6920504e-05
1.8118702e-05
1.9576746e-05
2.1378939e-05
2.3645692e-05
2.6551712e-05
3.0366537e-05
3.5504744e-05
4.2620519e-05
5.2786496e-05
6.7738008e-05
9.0229461e-05
0.00012439779
0.00017581991
0.00025075367
0.0003543094
0.00048826191
0.00064997512
0.00083325905
0.0010307031
0.0012342054
0.0014429613
0.0016260186
0.0019262007
7.7481547e-06
7.75257e-06
7.7571475e-06
7.7617642e-06
7.766384e-06
7.7709926e-06
7.7755831e-06
7.7801516e-06
7.7846961e-06
7.7892157e-06
7.7937101e-06
7.7981797e-06
7.8026252e-06
7.8070483e-06
7.8114523e-06
7.8158426e-06
7.8202286e-06
7.8246247e-06
7.8290522e-06
7.8335415e-06
7.8381333e-06
7.8428805e-06
7.8478496e-06
7.8531205e-06
7.8587877e-06
7.8649589e-06
7.8717544e-06
7.8793057e-06
7.8877528e-06
7.8972427e-06
7.9079266e-06
7.9199573e-06
7.9334874e-06
7.9486666e-06
7.9656406e-06
7.9845495e-06
8.0055269e-06
8.0286992e-06
8.0541853e-06
8.0820971e-06
8.1125395e-06
8.1456122e-06
8.1814111e-06
8.2200302e-06
8.2615642e-06
8.3061114e-06
8.353777e-06
8.4046769e-06
8.4589417e-06
8.5167209e-06
8.5781875e-06
8.6435439e-06
8.7130264e-06
8.7869117e-06
8.8655236e-06
8.9492406e-06
9.038504e-06
9.133828e-06
9.2358117e-06
9.3451508e-06
9.4626542e-06
9.5892653e-06
9.7260825e-06
9.8743906e-06
1.0035698e-05
1.0211778e-05
1.0404728e-05
1.0617042e-05
1.085169e-05
1.1112239e-05
1.140301e-05
1.1729285e-05
1.2097529e-05
1.2515771e-05
1.2994116e-05
1.3545263e-05
1.4185579e-05
1.4936329e-05
1.5825226e-05
1.6889755e-05
1.8181231e-05
1.9770273e-05
2.1758857e-05
2.4295867e-05
2.7602747e-05
3.2023037e-05
3.8098945e-05
4.6700989e-05
5.9238491e-05
7.7964507e-05
0.00010631952
0.00014908689
0.0002119191
0.00029990287
0.00041548683
0.00055750079
0.00071994205
0.00090180632
0.0010680712
0.0013629127
7.6305424e-06
7.6348155e-06
7.6392461e-06
7.6437171e-06
7.6481949e-06
7.6526662e-06
7.6571243e-06
7.6615652e-06
7.6659865e-06
7.6703866e-06
7.6747647e-06
7.6791203e-06
7.683453e-06
7.6877627e-06
7.6920498e-06
7.6963151e-06
7.7005611e-06
7.7047918e-06
7.7090145e-06
7.7132408e-06
7.7174877e-06
7.7217794e-06
7.7261485e-06
7.7306371e-06
7.7352982e-06
7.7401959e-06
7.7454059e-06
7.7510151e-06
7.7571212e-06
7.7638315e-06
7.7712613e-06
7.7795326e-06