/*--------------------------------*- C++ -*----------------------------------*\
  =========                 |
  \\      /  F ield         | OpenFOAM: The Open Source CFD Toolbox
   \\    /   O peration     | Website:  https://openfoam.org
    \\  /    A nd           | Version:  12
     \\/     M anipulation  |
\*---------------------------------------------------------------------------*/
FoamFile
{
    format      ascii;
    class       volScalarField;
    location    "1300";
    object      epsilon;
}
// * * * * * * * * * * * * * * * * * * * * * * * * * * * * * * * * * * * * * //

dimensions      [0 2 -3 0 0 0 0];

internalField   nonuniform List<scalar> 
13056
(
0.0018182801
0.0015054448
0.0013161765
0.0012368769
0.0011981365
0.0011738164
0.0011564692
0.0011435169
0.0011336262
0.0011259484
0.0011199133
0.0011151297
0.0011113225
0.0011082942
0.0011059001
0.0011040326
0.0011026121
0.0011015856
0.0011008715
0.0011007625
0.0010994289
0.0011065924
0.0010777712
0.00225816
66.401315
82.151888
76.159617
70.137776
65.65603
62.014642
58.924118
56.285308
54.020513
52.053977
50.324662
48.788162
47.412436
46.170913
45.040402
44.003986
43.04885
42.163741
41.339596
40.568946
39.845534
39.164164
38.520254
37.910025
37.330274
36.778119
36.251253
35.74755
35.264923
34.801653
34.356222
33.927142
33.513106
33.113068
32.726043
32.351043
31.98725
31.63399
31.290569
30.95628
30.63054
30.312866
30.002764
29.699713
29.403259
29.113052
28.828758
28.549982
28.276329
28.007545
27.743391
27.483569
27.227776
26.975749
26.727302
26.482246
26.240336
26.001317
25.76502
25.5313
25.299979
25.07085
24.843702
24.618422
24.394893
24.17294
23.952378
23.733059
23.514876
23.297714
23.081396
22.865735
22.650635
22.435995
22.221644
22.007408
21.793158
21.578787
21.364141
21.149034
20.933308
20.71684
20.499456
20.280945
20.061141
19.839884
19.616951
19.39207
19.165102
18.940708
18.725882
18.522472
18.329522
18.146138
17.97151
17.804967
17.645895
17.493709
17.347879
17.207945
17.0735
16.944153
16.819536
16.699269
16.583061
16.470453
16.36141
16.254521
16.151496
16.045446
15.951821
15.799859
0.0018173802
0.0015046636
0.0013154225
0.00123611
0.0011973613
0.001173038
0.0011556894
0.0011427361
0.0011328446
0.0011251661
0.0011191304
0.0011143462
0.0011105385
0.0011075097
0.0011051151
0.001103247
0.001101826
0.0011007989
0.0011000842
0.0010999753
0.0010986377
0.0011058204
0.0010768996
0.0022501362
38.115977
44.422909
40.671237
37.235171
34.726279
32.708653
31.007577
29.561997
28.325933
27.255934
26.317434
25.485446
24.742034
24.07237
23.463558
22.906249
22.393356
21.918661
21.477177
21.064802
20.678099
20.314219
19.970656
19.645344
19.336531
19.042644
18.762424
18.494714
18.238377
17.992481
17.756203
17.528735
17.309369
17.09754
16.892713
16.694354
16.502022
16.315352
16.133969
15.957492
15.785607
15.618055
15.454568
15.294867
15.138707
14.985901
14.83627
14.6896
14.545682
14.404379
14.265563
14.129074
13.99475
13.862451
13.732079
13.603531
13.476678
13.351383
13.227557
13.105123
12.983987
12.864038
12.745166
12.627309
12.510406
12.394365
12.279088
12.164497
12.050536
11.937144
11.824229
11.711692
11.599483
11.487549
11.375801
11.264147
11.152522
11.040869
10.929108
10.817142
10.70489
10.592288
10.479246
10.365654
10.251427
10.136483
10.020707
9.9039579
9.7861649
9.6697479
9.5583311
9.4528679
9.3528578
9.2578324
9.1673686
9.0811149
8.9987511
8.9199712
8.8444984
8.7720927
8.7025419
8.6356418
8.5712002
8.5090201
8.4489496
8.3907493
8.3344018
8.2791741
8.2259553
8.1711698
8.122823
8.0443693
0.0018143214
0.001501934
0.001312701
0.0012333189
0.0011945306
0.0011701874
0.0011528261
0.0011398633
0.0011299641
0.001122279
0.0011162378
0.0011114487
0.0011076366
0.0011046038
0.0011022054
0.0011003336
0.0010989088
0.0010978781
0.0010971594
0.0010970468
0.0010957022
0.0011029065
0.0010738264
0.0022388407
35.319694
37.098521
33.194972
30.089629
27.891123
26.150962
24.697941
23.471162
22.427419
21.527576
20.741019
20.045814
19.426346
18.869739
18.364822
17.903576
17.479925
17.088522
16.725114
16.386205
16.068869
15.770688
15.489531
15.223653
14.971572
14.731952
14.503733
14.28594
14.077614
13.877978
13.686339
13.502021
13.32443
13.153096
12.987572
12.827409
12.67224
12.521763
12.375665
12.233627
12.09539
11.960738
11.829451
11.701296
11.57607
11.45362
11.333797
11.216425
11.101331
10.988403
10.877535
10.768597
10.661455
10.555994
10.452134
10.349792
10.248862
10.149231
10.050829
9.9535922
9.8574439
9.7622952
9.6680558
9.5746777
9.4821108
9.3902806
9.2991088
9.2085326
9.1185079
9.0289858
8.9398924
8.8511496
8.7627185
8.6745569
8.5865939
8.4987583
8.4109975
8.3232682
8.2355076
8.1476402
8.0596026
7.9713455
7.8827995
7.7938796
7.7045204
7.6146591
7.5242066
7.4330554
7.3411519
7.2503846
7.1635736
7.0814532
7.003626
6.9297208
6.8594024
6.7923922
6.7284368
6.6672942
6.6087462
6.5526032
6.4986974
6.4468682
6.3969642
6.3488306
6.302348
6.2573286
6.2137591
6.1710651
6.1299468
6.0876061
6.0502794
5.9897387
0.0018090301
0.0014971944
0.0013079534
0.0012284439
0.0011895837
0.0011652034
0.0011478181
0.001134837
0.0011249229
0.0011172255
0.0011111737
0.0011063753
0.0011025549
0.0010995144
0.0010971088
0.00109523
0.0010937983
0.0010927605
0.0010920344
0.0010919145
0.0010905595
0.001097783
0.0010684926
0.0022245699
35.776963
34.612361
30.391509
27.364817
25.276237
23.64291
22.287743
21.147606
20.17986
19.346999
18.61998
17.978119
17.406793
16.893945
16.429087
16.004756
15.615302
15.25572
14.922061
14.611076
14.320044
14.046721
13.789127
13.545646
13.314905
13.095659
12.886932
12.68782
12.497433
12.315056
12.140052
11.971791
11.809726
11.653425
11.502476
11.356461
11.215045
11.077947
10.94488
10.81555
10.689717
10.567185
10.44775
10.331196
10.217339
10.106036
9.9971533
9.8905264
9.7859962
9.6834619
9.5828261
9.4839678
9.3867653
9.2911133
9.1969385
9.104165
9.0126947
8.9224264
8.8332943
8.745241
8.6581969
8.5720802
8.4868087
8.4023392
8.318626
8.2356012
8.1531936
8.0713459
7.9900187
7.9091678
7.8287258
7.7486223
7.6688224
7.5892881
7.5099554
7.4307601
7.351655
7.2726014
7.193543
7.114412
7.0351518
6.9557184
6.8760501
6.7960708
6.7157225
6.6349494
6.5536723
6.4717955
6.3892725
6.3077992
6.2299042
6.156242
6.0864529
6.0202013
5.9571838
5.8971483
5.8398654
5.7851167
5.732705
5.6824588
5.6342269
5.587864
5.5432336
5.5001962
5.4586442
5.4184079
5.3794767
5.3413292
5.3046064
5.2667694
5.2334481
5.1794237
0.001801394
0.0014903512
0.0013010906
0.001221394
0.0011824282
0.0011579928
0.0011405718
0.0011275633
0.001117627
0.0011099111
0.0011038434
0.0010990312
0.0010951983
0.0010921464
0.00108973
0.0010878407
0.0010863987
0.0010853505
0.0010846132
0.0010844821
0.0010831133
0.001090348
0.0010608044
0.0022064293
35.71468
32.859976
28.449331
25.504349
23.516143
21.97679
20.705788
19.63893
18.734564
17.956911
17.278465
16.679714
16.146947
15.668862
15.235599
14.840178
14.477325
14.142346
13.831551
13.541905
13.270865
13.016337
12.776471
12.549759
12.334921
12.130791
11.93646
11.751087
11.57384
11.404052
11.241134
11.084496
10.933627
10.788127
10.64761
10.511689
10.380047
10.252427
10.128561
10.008173
9.891041
9.7769821
9.6658069
9.5573137
9.4513295
9.3477243
9.2463719
9.1471193
9.0498177
8.9543741
8.8606983
8.7686771
8.6781968
8.5891591
8.5014966
8.4151388
8.3299939
8.2459674
8.1629983
8.0810335
8.0000082
7.919846
7.84047
7.7618406
7.6839154
7.6066307
7.5299202
7.4537304
7.3780252
7.3027631
7.2278814
7.1533144
7.0790298
7.0049923
6.9311423
6.8574199
6.783781
6.7101898
6.636594
6.5629302
6.4891457
6.4151998
6.3410351
6.2665805
6.191782
6.1165879
6.0409244
5.9647024
5.8878788
5.8120328
5.7395174
5.6709415
5.6059706
5.5442927
5.4856254
5.429734
5.3764052
5.3254355
5.2766415
5.2298638
5.1849613
5.1417988
5.1002495
5.0601832
5.0215
4.9840409
4.9477979
4.9122789
4.8780951
4.8428471
4.8118315
4.7615519
0.001791268
0.0014812836
0.001291999
0.0012120532
0.0011729458
0.0011484363
0.001130967
0.0011179217
0.0011079555
0.0011002145
0.0010941255
0.0010892946
0.0010854449
0.0010823776
0.0010799466
0.0010780433
0.0010765873
0.001075525
0.0010747729
0.0010746264
0.0010732402
0.0010804764
0.0010506336
0.0021832866
34.77179
31.199321
26.714559
23.865811
21.980118
20.533367
19.343991
18.347609
17.503865
16.778815
16.146518
15.588629
15.092321
14.647032
14.243529
13.875293
13.53741
13.225492
12.936097
12.666398
12.414023
12.177019
11.953662
11.742549
11.542487
11.352386
11.171403
10.998754
10.833664
10.675514
10.523755
10.377838
10.237287
10.10173
9.970809
9.8441614
9.7214935
9.6025668
9.4871312
9.3749295
9.2657546
9.1594379
9.0558029
8.9546613
8.8558516
8.7592535
8.6647502
8.5721985
8.4814594
8.3924472
8.3050779
8.2192461
8.1348455
8.0517844
7.9700007
7.8894288
7.8099828
7.7315744
7.654147
7.5776514
7.5020274
7.4272032
7.353107
7.2797023
7.2069497
7.1347893
7.0631593
6.9920097
6.9213068
6.8510121
6.7810667
6.7114091
6.6420094
6.5728345
6.5038286
6.4349355
6.3661139
6.2973304
6.2285359
6.1596709
6.0906859
6.021543
5.952188
5.8825544
5.8125913
5.74225
5.6714614
5.6001415
5.5282499
5.4572647
5.3893878
5.3251896
5.2643588
5.2066043
5.1516627
5.099315
5.0493619
5.0016139
4.9558997
4.9120703
4.8699941
4.8295449
4.790604
4.7530499
4.7167893
4.6816725
4.6476941
4.614387
4.5823368
4.5492633
4.5201804
4.4730348
0.0017784811
0.0014698516
0.0012805477
0.0012002879
0.0011610003
0.0011363963
0.0011188655
0.0011057732
0.0010957689
0.0010879961
0.0010818798
0.001077025
0.001073154
0.0010700669
0.0010676173
0.0010656961
0.0010642223
0.0010631421
0.001062371
0.0010622048
0.0010607971
0.0010680257
0.00103783
0.0021539649
33.138327
29.553788
25.077446
22.332042
20.547789
19.190725
18.079667
17.150618
16.36465
15.689664
15.101256
14.582214
14.120544
13.706399
13.331154
12.988727
12.674544
12.384514
12.115429
11.864659
11.629995
11.409621
11.201931
11.00562
10.819578
10.642792
10.474475
10.313902
10.160351
10.013245
9.8720781
9.7363378
9.6055809
9.479462
9.3576504
9.2398068
9.1256584
9.0149844
8.9075527
8.8031233
8.7015039
8.6025383
8.5060628
8.4119018
8.3199048
8.2299607
8.1419612
8.0557729
7.971266
7.8883612
7.806981
7.7270271
7.6484004
7.5710154
7.4948146
7.4197375
7.3457038
7.272631
7.2004667
7.1291653
7.0586707
6.9889159
6.919834
6.851391
6.7835504
6.7162562
6.6494508
6.5830872
6.5171344
6.4515564
6.386298
6.321302
6.2565403
6.1919819
6.1275748
6.0632663
5.9990178
5.9347978
5.8705606
5.8062503
5.7418205
5.6772354
5.6124446
5.5473853
5.4820098
5.4162723
5.3501077
5.2834372
5.2162229
5.1498467
5.0863674
5.0263194
4.9694128
4.9153767
4.8639658
4.8149757
4.7682209
4.7235247
4.6807273
4.63969
4.60029
4.5624095
4.5259379
4.4907614
4.4567934
4.4238932
4.3920571
4.3608432
4.3308104
4.2997973
4.2725407
4.2283553
0.0017628449
0.0014559032
0.0012665976
0.0011859565
0.001146447
0.0011217264
0.00110412
0.0010909699
0.0010809186
0.0010731066
0.0010669568
0.0010620726
0.0010581751
0.0010550638
0.0010525913
0.001050648
0.0010491522
0.0010480498
0.0010472553
0.0010470647
0.0010456313
0.0010528435
0.0010222323
0.0021172803
31.0298
27.927523
23.518283
20.878246
19.192094
17.920646
16.88392
16.018618
15.287275
14.65959
14.112642
13.630294
13.20134
12.816608
12.468055
12.15001
11.858217
11.588869
11.338979
11.106102
10.888182
10.683533
10.49066
10.308352
10.135576
9.9713909
9.815065
9.6659257
9.5233011
9.386658
9.2555253
9.1294282
9.0079541
8.890783
8.7776081
8.6681139
8.562047
8.4592028
8.3593661
8.2623138
8.167867
8.0758813
7.9862049
7.8986746
7.8131502
7.7295289
7.6477106
7.5675712
7.4889898
7.4118931
7.3362093
7.261847
7.1887141
7.1167309
7.0458444
6.9759985
6.9071183
6.8391273
6.7719765
6.7056238
6.6400172
6.5750942
6.5107923
6.4470803
6.383924
6.3212715
6.2590689
6.1972724
6.1358532
6.074778
6.013995
5.9534509
5.8931195
5.832972
5.7729597
5.7130335
5.6531572
5.5933014
5.5334234
5.4734709
5.4134002
5.3531782
5.2927574
5.2320791
5.1710984
5.1097723
5.04804
4.9858274
4.9230989
4.8611441
4.8018849
4.7458209
4.6926825
4.6422181
4.5941993
4.548436
4.5047556
4.4629937
4.4230016
4.3846501
4.347825
4.3124164
4.2783214
4.2454341
4.2136736
4.1829082
4.1531358
4.1239394
4.0958499
4.0668261
4.041329
3.9999951
0.0017441627
0.0014392847
0.0012500116
0.0011689195
0.0011291431
0.001104282
0.0010865846
0.0010733652
0.0010632575
0.0010553984
0.0010492082
0.0010442886
0.0010403594
0.0010372188
0.0010347187
0.0010327487
0.0010312265
0.0010300975
0.0010292749
0.0010290548
0.0010275911
0.0010347785
0.0010036805
0.0020720663
28.609628
26.330473
22.032391
19.496878
17.904395
16.714073
15.747533
14.942331
14.262446
13.679305
13.171399
12.723611
12.325469
11.968437
11.64503
11.349958
11.079264
10.829409
10.597614
10.381608
10.179481
9.989665
9.8107732
9.641679
9.4814261
9.3291376
9.1841354
9.0457958
8.9134953
8.786739
8.6650907
8.5481101
8.4354139
8.3267054
8.2217006
8.1201065
8.0216878
7.926255
7.8336088
7.7435422
7.6558889
7.5705154
7.4872813
7.4060348
7.3266457
7.249019
7.173062
7.0986596
7.0256994
6.9541135
6.8838354
6.8147806
6.7468633
6.6800095
6.6141702
6.5492934
6.4853097
6.4221478
6.3597623
6.2981143
6.2371554
6.1768277
6.1170729
6.0578621
5.9991636
5.9409293
5.8831087
5.8256612
5.7685601
5.7117744
5.6552559
5.5989549
5.5428469
5.4869053
5.4310847
5.3753392
5.3196349
5.2639446
5.2082284
5.1524374
5.0965308
5.0404776
4.9842335
4.9277435
4.8709657
4.8138598
4.7563688
4.6984234
4.6399902
4.5822706
4.5270553
4.4748101
4.4252852
4.3782468
4.3334828
4.2908167
4.2500881
4.2111442
4.1738469
4.1380762
4.1037259
4.0706939
4.0388844
4.0081988
3.9785622
3.9498512
3.922065
3.8948116
3.8685931
3.8414883
3.8176853
3.7790969
0.0017222406
0.0014198505
0.0012306656
0.0011490516
0.0011089597
0.0010839322
0.0010661273
0.0010528261
0.001042652
0.0010347371
0.0010284993
0.0010235378
0.001019571
0.0010163957
0.001013863
0.0010118614
0.0010103079
0.0010091475
0.0010082916
0.0010080367
0.0010065377
0.0010136923
0.00098202906
0.0020172222
25.997286
24.768526
20.617476
18.184057
16.680332
15.566575
14.666149
13.917513
13.28604
12.744799
12.273621
11.85835
11.4892
11.158233
10.858494
10.585049
10.334219
10.102722
9.8879722
9.6878603
9.5006142
9.3247782
9.1590658
9.002431
8.8539872
8.7129208
8.578602
8.4504533
8.3278972
8.2104743
8.0977811
7.98941
7.8850052
7.7842916
7.6870068
7.5928791
7.50169
7.4132642
7.3274174
7.2439577
7.1627309
7.0836133
7.0064753
6.9311761
6.857595
6.7856439
6.7152373
6.6462685
6.5786332
6.5122684
6.4471129
6.3830883
6.3201152
6.2581247
6.1970714
6.1369076
6.0775687
6.0189885
5.961125
5.9039422
5.8473953
5.7914305
5.7359938
5.6810582
5.6265945
5.5725579
5.5189017
5.465588
5.4125921
5.3598852
5.3074225
5.2551578
5.2030683
5.1511293
5.0992985
5.0475332
4.995802
4.9440793
4.892328
4.8405027
4.7885653
4.7364867
4.6842258
4.6317312
4.5789636
4.5258855
4.4724437
4.4185734
4.3642435
4.310571
4.259221
4.2106275
4.1645589
4.1207984
4.0791495
4.0394485
4.0015465
3.9653019
3.9305865
3.8972891
3.865311
3.8345576
3.8049399
3.7763663
3.7487673
3.7220279
3.6961482
3.6707606
3.6463381
3.6210788
3.5989024
3.5629502
0.0016968984
0.0013974741
0.0012084606
0.0011262543
0.0010857946
0.0010605724
0.0010426423
0.001029246
0.0010189945
0.0010110149
0.0010047214
0.00099971112
0.00099570038
0.00099248465
0.00098991373
0.00098787533
0.00098628531
0.00098508814
0.00098419363
0.000983898
0.00098235849
0.00098947258
0.00095716214
0.0019517902
23.282833
23.243732
19.271506
16.937077
15.517004
14.475312
13.637073
12.941632
12.355679
11.853831
11.417188
11.0325
10.69062
10.384174
10.106703
9.8536108
9.6214788
9.4072632
9.2085625
9.0234192
8.85019
8.6875247
8.5342311
8.3893388
8.2520267
8.1215407
7.9972962
7.8787593
7.7653954
7.6567787
7.5525361
7.4522908
7.355713
7.2625479
7.1725529
7.0854769
7.0011171
6.9193113
6.8398893
6.7626737
6.6875213
6.614318
6.5429438
6.4732689
6.4051811
6.3385988
6.2734434
6.2096161
6.1470204
6.0855977
6.0252917
5.9660298
5.9077386
5.8503542
5.7938347
5.7381359
5.6831982
5.6289603
5.5753831
5.5224332
5.4700696
5.4182422
5.3669008
5.3160207
5.2655748
5.2155215
5.1658176
5.1164279
5.0673294
5.0184955
4.9698846
4.921454
4.8731824
4.8250467
4.7770079
4.7290263
4.6810725
4.633123
4.5851431
4.5370906
4.4889301
4.4406345
4.3921655
4.3434753
4.2945273
4.2452864
4.1957031
4.1457171
4.0952993
4.0454862
3.9978236
3.9527147
3.909945
3.8693142
3.8306402
3.7937714
3.7585701
3.7249051
3.6926578
3.6617251
3.6320156
3.6034417
3.5759208
3.5493681
3.5237192
3.4988672
3.4748126
3.4512122
3.4285096
3.4050201
3.3844015
3.3509739
0.0016679812
0.00137206
0.0011833347
0.0011004683
0.0010595854
0.0010341381
0.001016064
0.0010025584
0.00099221791
0.00098416356
0.00097780598
0.00097273938
0.00096867794
0.0009654155
0.00096280048
0.00096071953
0.00095908738
0.00095784788
0.0009569089
0.00095656642
0.00095498092
0.00096204656
0.00092900981
0.001875061
20.538463
21.755066
17.992511
15.753934
14.412345
13.438312
12.658488
12.013026
11.469842
11.005011
10.600826
10.244887
9.9286462
9.6452543
9.3887264
9.1547793
8.940237
8.7422826
8.5586857
8.3876319
8.2275988
8.0773349
7.9357369
7.8019052
7.6750797
7.5545631
7.4398128
7.3303354
7.2256373
7.1253237
7.02905
6.9364686
6.8472742
6.7612306
6.6781142
6.5976931
6.5197793
6.4442227
6.3708666
6.2995471
6.2301316
6.1625144
6.0965853
6.0322242
5.9693272
5.907819
5.8476269
5.7886602
5.7308292
5.6740797
5.6183599
5.5636029
5.5097407
5.4567143
5.4044848
5.3530116
5.3022396
5.2521122
5.202593
5.1536514
5.1052493
5.0573407
5.0098789
4.9628411
4.9162022
4.869924
4.8239662
4.7782963
4.732893
4.6877318
4.6427742
4.5979805
4.553331
4.5088043
4.4643642
4.419974
4.3756064
4.3312396
4.2868414
4.2423727
4.1978004
4.1530997
4.1082347
4.063161
4.0178448
3.9722532
3.9263403
3.8800501
3.8333554
3.7872163
3.7430646
3.7012744
3.6616475
3.6239988
3.5881601
3.5539913
3.5213652
3.4901604
3.4602672
3.4315905
3.4040459
3.377552
3.3520328
3.3274095
3.3036228
3.2805733
3.2582623
3.2363696
3.21531
3.1935136
3.1743834
3.143368
0.001635372
0.0013435544
0.0011552759
0.0010716878
0.0010303237
0.0010046189
0.00098638049
0.00097275065
0.00096230892
0.0009541695
0.00094773876
0.00094260782
0.00093848843
0.00093517257
0.00093250713
0.00093037755
0.00092869727
0.00092740947
0.0009264199
0.00092602402
0.00092438693
0.0009313954
0.00089756593
0.0017867019
17.826037
20.298995
16.77854
14.633146
13.364888
12.454207
11.729161
11.130598
10.62756
10.197478
9.823769
9.4948308
9.2026739
8.9409403
8.7040906
8.4881358
8.2901265
8.1074588
7.9380633
7.7802591
7.6326375
7.4940395
7.3634451
7.2400212
7.1230651
7.0119326
6.9061204
6.8051732
6.7086359
6.6161427
6.5273756
6.4420145
6.3597771
6.2804447
6.2038113
6.1296634
6.0578267
5.9881625
5.9205266
5.854768
5.7907639
5.7284166
5.6676248
5.6082779
5.5502799
5.4935609
5.4380542
5.3836761
5.3303441
5.2780078
5.2266194
5.1761175
5.1264394
5.0775304
5.0293547
4.9818748
4.9350401
4.8887983
4.8431156
4.7979638
4.753308
4.7091055
4.6653134
4.6219104
4.5788735
4.5361673
4.4937548
4.4516057
4.4097006
4.3680166
4.3265182
4.2851688
4.24395
4.2028421
4.1618118
4.1208248
4.079856
4.0388852
3.9978828
3.9568122
3.9156431
3.8743522
3.8329064
3.7912645
3.749395
3.7072676
3.6648396
3.622059
3.5789007
3.536252
3.4954367
3.4568009
3.4201618
3.3853489
3.3522068
3.3206065
3.2904305
3.2615669
3.2339145
3.2073855
3.181902
3.157389
3.1337762
3.1109908
3.0889783
3.0676465
3.0469968
3.0267323
3.0072387
2.9870579
2.9693465
2.9406303
0.0015990028
0.0013119566
0.0011243331
0.0010399723
0.00099806783
0.00097207138
0.00095364776
0.00093987812
0.00092932242
0.00092108706
0.00091457368
0.00090936995
0.00090518496
0.0009018086
0.00089908608
0.00089690143
0.00089516671
0.00089382434
0.00089277778
0.00089232163
0.00089062746
0.00089756803
0.00086290644
0.0016868904
15.198068
18.871114
15.627516
13.573584
12.37359
11.522042
10.848256
10.293628
9.8282153
9.4307095
9.0855761
8.7819621
8.5123976
8.270983
8.0525977
7.8535286
7.6710375
7.5027205
7.3466589
7.2012969
7.0653319
6.9376921
6.8174354
6.7037908
6.5961092
6.4937966
6.3963865
6.3034589
6.214595
6.1294562
6.0477492
5.9691798
5.8934874
5.8204696
5.7499368
5.6816926
5.615576
5.5514587
5.4892082
5.4286856
5.3697774
5.3123935
5.2564406
5.2018173
5.1484347
5.0962284
5.0451369
4.9950836
4.9459923
4.8978162
4.8505115
4.8040217
4.7582892
4.7132636
4.6689114
4.6251986
4.5820786
4.539503
4.4974407
4.4558657
4.4147459
4.374042
4.3337146
4.2937436
4.2541081
4.2147756
4.1757118
4.1368889
4.0982888
4.0598905
4.0216613
3.9835674
3.9455917
3.9077161
3.8699098
3.8321413
3.7943873
3.7566291
3.7188394
3.6809844
3.643036
3.6049728
3.566764
3.5283716
3.4897663
3.4509203
3.4117938
3.372339
3.3325323
3.2931923
3.2555403
3.2198959
3.186091
3.1539682
3.123385
3.0942223
3.0663721
3.0397312
3.0142064
2.989717
2.9661913
2.94356
2.9217585
2.9007196
2.8803931
2.8606939
2.8416237
2.8229073
2.8049026
2.7862594
2.7698972
2.743367
0.0015588658
0.0012773281
0.0010906263
0.0010054582
0.00096295494
0.00093663194
0.00091800179
0.00090407668
0.00089339412
0.00088505173
0.00087844599
0.00087316078
0.00086890228
0.00086545809
0.00086267153
0.00086042516
0.00085862947
0.00085722605
0.00085611595
0.00085559237
0.0008538361
0.00086069408
0.00082520716
0.0015764403
12.703822
17.463559
14.537026
12.574281
11.43765
10.641109
10.015171
9.5016158
9.0714003
8.7043761
8.3859882
8.106083
7.8576736
7.6352873
7.434196
7.2509453
7.0829933
6.9281233
6.7845577
6.6508578
6.5258202
6.4084542
6.2978909
6.1934174
6.0944347
6.0003957
5.9108683
5.8254656
5.7438026
5.6655662
5.5904863
5.5182927
5.4487452
5.3816567
5.316853
5.2541538
5.1934102
5.1345037
5.0773129
5.0217103
4.967591
4.9148718
4.8634672
4.8132843
4.7642411
4.7162778
4.6693382
4.6233522
4.5782495
4.5339869
4.4905238
4.447809
4.4057892
4.364418
4.3236645
4.2834975
4.2438743
4.2047504
4.1660971
4.1278903
4.0901006
4.052692
4.0156282
3.9788906
3.94246
3.9063065
3.8703987
3.8347108
3.7992261
3.7639254
3.7287787
3.6937547
3.6588376
3.6240108
3.589246
3.554514
3.5197935
3.4850672
3.4503098
3.4154903
3.3805828
3.3455674
3.3104158
3.2750927
3.2395714
3.2038258
3.1678195
3.1315081
3.09487
3.0586586
3.0239983
2.9911836
2.9600599
2.930483
2.9023214
2.8754661
2.8498178
2.8252815
2.8017717
2.7792141
2.7575429
2.7366944
2.7166091
2.6972253
2.6784968
2.6603452
2.6427723
2.625524
2.6089308
2.591747
2.5766641
2.5522066
0.0015150224
0.0012397994
0.0010543532
0.0009683671
0.00092521047
0.0008985264
0.00087966888
0.00086557315
0.00085475119
0.00084629088
0.00083958314
0.00083420778
0.00082986782
0.00082634841
0.00082349082
0.00082117599
0.00081931273
0.00081784173
0.00081666153
0.00081606325
0.00081424075
0.0008209948
0.0007847598
0.0014568888
10.386135
16.068268
13.504079
11.63424
10.556353
9.8107961
9.2293928
8.7541427
8.3567802
8.0182169
7.7248078
7.4670512
7.2384088
7.0338038
6.8488751
6.6804104
6.5260502
6.3837526
6.2518719
6.1290783
6.0142613
5.9065058
5.8050112
5.7091187
5.6182762
5.5319804
5.4498313
5.3714727
5.2965515
5.2247783
5.1559042
5.0896818
5.0258901
4.9643559
4.9049195
4.8474155
4.7917068
4.7376837
4.6852352
4.6342443
4.5846144
4.5362686
4.4891288
4.4431098
4.3981362
4.3541527
4.3111077
4.2689373
4.2275769
4.1869863
4.1471284
4.1079563
4.0694212
4.0314805
3.9941055
3.9572676
3.9209279
3.8850455
3.8495937
3.8145506
3.7798892
3.7455765
3.7115791
3.6778798
3.644461
3.6112954
3.5783541
3.5456134
3.5130579
3.4806699
3.4484219
3.4162853
3.3842452
3.3522865
3.3203833
3.2885086
3.2566429
3.2247702
3.1928673
3.1609057
3.1288615
3.0967164
3.0644441
3.0320125
2.9993966
2.9665727
2.933507
2.9001588
2.8665079
2.8332465
2.8014076
2.771262
2.7426681
2.7154932
2.6896171
2.6649397
2.64137
2.6188208
2.5972136
2.5764805
2.5565609
2.5373966
2.5189327
2.5011127
2.4838943
2.4672054
2.4510477
2.4351873
2.4199286
2.4041255
2.3902522
2.3677542
0.0014676099
0.0011995742
0.0010157921
0.00092900991
0.0008851533
0.00085807601
0.00083897199
0.00082469192
0.00081371914
0.00080513087
0.00079831208
0.00079283832
0.0007884093
0.00078480752
0.00078187212
0.00077948228
0.00077754504
0.00077600007
0.00077474347
0.00077406321
0.000772172
0.00077879032
0.00074198409
0.0013305223
8.2741222
14.681741
12.52479
10.752242
9.7289288
9.030458
8.4903805
8.0507616
7.6839897
7.3719376
7.1018016
6.8646867
6.6544703
6.4664413
6.2965811
6.1419035
6.0002183
5.8696461
5.7486645
5.6360449
5.5307633
5.4319748
5.3389427
5.2510587
5.1678138
5.0887462
5.0134853
4.9417037
4.8730779
4.8073404
4.7442624
4.6836176
4.6252028
4.5688578
4.5144363
4.4617871
4.4107837
4.3613249
4.3133091
4.2666294
4.2211967
4.1769401
4.1337882
4.0916633
4.0504959
4.010235
3.9708333
3.9322325
3.8943735
3.8572189
3.8207348
3.7848784
3.7496051
3.7148756
3.6806635
3.6469425
3.6136774
3.5808304
3.5483771
3.5162973
3.4845662
3.4531538
3.4220294
3.3911771
3.3605807
3.3302155
3.3000547
3.2700768
3.2402674
3.2106103
3.1810806
3.1516517
3.1223101
3.0930418
3.0638232
3.0346294
3.0054425
2.976248
2.9470244
2.9177456
2.8883896
2.8589396
2.8293714
2.7996555
2.769769
2.73969
2.7093875
2.678824
2.647981
2.617493
2.5883071
2.5606716
2.534457
2.5095418
2.4858161
2.463188
2.4415745
2.4208957
2.4010796
2.3820641
2.3637939
2.3462156
2.3292788
2.3129318
2.2971359
2.281825
2.2670008
2.2524486
2.2384474
2.2239464
2.2112133
2.1905617
0.0014168449
0.0011569291
0.00097529946
0.00088778531
0.00084319546
0.00081569778
0.00079633152
0.00078185618
0.00077072335
0.00076199874
0.00075506118
0.00074948183
0.00074495698
0.00074126641
0.00073824702
0.00073577617
0.00073375906
0.00073213423
0.0007307955
0.00073002622
0.00072806627
0.0007345021
0.00069743367
0.0012003311
6.3905371
13.3015
11.59404
9.9266797
8.9544348
8.2993209
7.797474
7.3909101
7.0525511
6.7651327
6.5166268
6.2987007
6.1056166
5.9330008
5.7771524
5.6352969
5.5054006
5.3857349
5.2748923
5.1717379
5.0753282
4.9848837
4.8997269
4.8192962
4.7431231
4.6707839
4.6019359
4.536278
4.4735142
4.4133976
4.3557177
4.300268
4.2468617
4.1953511
4.1456019
4.0974763
4.0508575
4.0056524
3.961768
3.9191068
3.8775868
3.8371427
3.797709
3.7592151
3.7215973
3.6848082
3.6488046
3.6135335
3.5789411
3.5449922
3.511656
3.4788936
3.4466643
3.4149319
3.3836721
3.3528608
3.3224659
3.2924531
3.2627997
3.233487
3.2044926
3.1757892
3.1473486
3.119156
3.0911966
3.0634479
3.0358855
3.0084896
2.9812469
2.9541428
2.9271542
2.900257
2.8734387
2.8466865
2.8199787
2.7932926
2.7666119
2.739923
2.7132065
2.6864384
2.6595984
2.6326713
2.6056348
2.5784617
2.5511312
2.5236231
2.4959089
2.4679545
2.4397425
2.4118536
2.3851542
2.3598719
2.3358882
2.313092
2.2913829
2.2706772
2.2508989
2.2319749
2.2138394
2.1964359
2.1797137
2.163624
2.1481208
2.1331568
2.1186966
2.1046798
2.0911079
2.0777845
2.0649644
2.0516875
2.0400257
2.0211084
0.0013630227
0.0011122079
0.00093330057
0.00084517115
0.00079983463
0.00077189777
0.00075225908
0.00073758197
0.00072628344
0.00071741694
0.00071035513
0.00070466482
0.00070003891
0.00069625445
0.00069314605
0.00069058924
0.00068848732
0.00068677766
0.00068535206
0.00068448724
0.00068246208
0.00068864861
0.00065179369
0.0010698625
4.7520159
11.926162
10.705479
9.1554063
8.2316705
7.6164105
7.1498295
6.7738513
6.4618175
6.1972325
5.9687791
5.7686458
5.5914504
5.4331293
5.2902757
5.1603127
5.0413517
4.9318029
4.8303658
4.7359929
4.6478146
4.5651125
4.4872635
4.4137498
4.3441402
4.2780463
4.2151513
4.1551784
4.0978571
4.0429596
3.9902925
3.9396672
3.8909128
3.8438925
3.7984835
3.7545602
3.7120152
3.6707624
3.6307171
3.5917904
3.5539069
3.5170063
3.481029
3.4459106
3.4115928
3.3780319
3.3451881
3.3130136
3.2814591
3.250492
3.2200841
3.1902
3.1608027
3.131859
3.1033463
3.0752428
3.0475194
3.0201445
2.9930974
2.9663609
2.9399145
2.9137334
2.887792
2.8620763
2.836573
2.8112616
2.7861198
2.7611295
2.7362784
2.7115531
2.6869328
2.6623953
2.6379291
2.6135224
2.5891556
2.5648079
2.5404642
2.5161123
2.4917344
2.4673083
2.4428159
2.4182429
2.393569
2.3687692
2.3438247
2.3187168
2.2934194
2.2679015
2.2421469
2.2166859
2.1923097
2.1692262
2.1473273
2.1265118
2.1066879
2.0877794
2.0697169
2.052434
2.0358703
2.0199746
2.0047005
1.9900035
1.9758417
1.9621717
1.9489615
1.9361559
1.9237561
1.9115832
1.8998688
1.8877387
1.87708
1.8597863
0.0013065117
0.001065812
0.00089027397
0.00080170789
0.00075563836
0.00072725591
0.00070734273
0.00069246377
0.00068099905
0.00067198931
0.0006648012
0.00065899742
0.00065426763
0.00065038623
0.00064718563
0.00064453956
0.00064234944
0.00064055141
0.00063903568
0.00063806977
0.00063598748
0.00064183343
0.00060586837
0.00094295271
3.3696807
10.554163
9.8525167
8.4356358
7.559105
6.9805058
6.5463807
6.1986373
5.9109394
5.6674703
5.4575628
5.2738874
5.1113906
4.966293
4.8354593
4.7164974
4.6076522
4.5074622
4.4147265
4.3284777
4.2479152
4.1723766
4.1012895
4.0341767
3.970641
3.910327
3.8529419
3.7982312
3.7459481
3.6958824
3.6478563
3.6016981
3.5572511
3.5143891
3.4729996
3.4329685
3.3941969
3.3566054
3.3201166
3.2846499
3.2501358
3.2165187
3.1837444
3.1517544
3.1204954
3.0899267
3.0600122
3.0307085
3.0019706
2.9737684
2.9460759
2.9188611
2.8920903
2.8657333
2.839769
2.8141776
2.7889326
2.7640055
2.7393769
2.7150311
2.6909496
2.6671098
2.6434883
2.6200721
2.5968492
2.5738009
2.5509069
2.5281507
2.5055209
2.4830053
2.4605851
2.43824
2.4159592
2.3937322
2.3715411
2.3493668
2.3271956
2.3050164
2.2828127
2.2605646
2.2382554
2.215872
2.1933958
2.1708041
2.1480796
2.1252053
2.1021573
2.0789073
2.0554406
2.0322401
2.0100273
1.9889917
1.9690349
1.9500644
1.9319971
1.9147632
1.8982999
1.8825464
1.867448
1.8529578
1.8390339
1.8256355
1.8127245
1.8002614
1.7882171
1.7765413
1.765235
1.7541356
1.7434528
1.7323933
1.722671
1.7068921
0.001247744
0.0010181855
0.00084672929
0.00075797443
0.00071121995
0.00068240212
0.00066222324
0.00064715087
0.00063552644
0.00062637782
0.00061906607
0.00061315026
0.00060831712
0.00060433869
0.00060104532
0.00059830903
0.00059602951
0.00059414161
0.00059253459
0.00059146346
0.00058933755
0.00059472519
0.00056056019
0.00082333856
2.2516473
9.1841168
9.0279658
7.7638076
6.9348203
6.3901115
5.985819
5.6640932
5.39885
5.1748697
4.9820781
4.8135914
4.6646604
4.5317661
4.4120231
4.3032115
4.2036999
4.1121446
4.0274368
3.9486836
3.8751477
3.8062187
3.7413709
3.6801642
3.6222335
3.5672534
3.5149533
3.4650994
3.4174664
3.3718608
3.3281189
3.2860844
3.2456142
3.2065915
3.1689135
3.1324764
3.0971894
3.0629793
3.0297754
2.9975045
2.9661029
2.9355193
2.9057042
2.8766046
2.8481719
2.8203684
2.793161
2.7665105
2.7403761
2.7147296