/*--------------------------------*- C++ -*----------------------------------*\
  =========                 |
  \\      /  F ield         | OpenFOAM: The Open Source CFD Toolbox
   \\    /   O peration     | Website:  https://openfoam.org
    \\  /    A nd           | Version:  12
     \\/     M anipulation  |
\*---------------------------------------------------------------------------*/
FoamFile
{
    format      ascii;
    class       volScalarField;
    location    "1300";
    object      nut;
}
// * * * * * * * * * * * * * * * * * * * * * * * * * * * * * * * * * * * * * //

dimensions      [0 2 -1 0 0 0 0];

internalField   nonuniform List<scalar> 
7480
(
2.2949353e-06
3.6702656e-06
4.9368308e-06
5.9915535e-06
6.8095751e-06
7.4046878e-06
7.8083909e-06
8.0583234e-06
8.1915331e-06
8.2403572e-06
8.2307508e-06
8.1822984e-06
8.1091285e-06
8.0210871e-06
7.9248613e-06
7.8249485e-06
7.7244861e-06
7.6258573e-06
7.5308641e-06
7.4410163e-06
7.3576864e-06
7.2821685e-06
7.215632e-06
7.1590242e-06
7.1129608e-06
7.077439e-06
7.0513248e-06
7.032761e-06
7.0191043e-06
7.0074623e-06
6.9954504e-06
6.9816756e-06
6.9657693e-06
6.948156e-06
6.9295193e-06
6.9104044e-06
6.8910413e-06
6.871398e-06
6.8513486e-06
6.8308388e-06
6.8099588e-06
6.7888998e-06
6.7678628e-06
6.7469793e-06
6.7262969e-06
6.7058191e-06
6.6855477e-06
6.6654946e-06
6.6456728e-06
6.6260904e-06
6.6067473e-06
6.5876374e-06
6.5687544e-06
6.5500954e-06
6.5316581e-06
6.5134362e-06
6.4954221e-06
6.4776116e-06
6.4600039e-06
6.4425916e-06
6.4253676e-06
6.408326e-06
6.3914614e-06
6.3747693e-06
6.3582467e-06
6.34189e-06
6.3256958e-06
6.3096605e-06
6.2937805e-06
6.2780522e-06
6.262472e-06
6.2470364e-06
6.2317421e-06
6.2165857e-06
6.2015641e-06
6.1866743e-06
6.1719131e-06
6.1572778e-06
6.1427653e-06
6.128373e-06
6.114098e-06
6.0999377e-06
6.0858895e-06
6.0719509e-06
6.0581192e-06
6.0443919e-06
6.0307665e-06
6.0172402e-06
6.0038104e-06
5.9904733e-06
5.9772273e-06
5.9640636e-06
5.9509874e-06
5.9379654e-06
5.9250457e-06
5.9120692e-06
5.89932e-06
5.8858846e-06
5.8746056e-06
5.8535788e-06
9.353966e-06
2.6855117e-06
1.2645411e-06
9.4769111e-07
9.5737578e-07
1.076146e-06
1.2379746e-06
1.420894e-06
1.6121909e-06
1.8044217e-06
1.9968902e-06
2.1912894e-06
2.389032e-06
2.5955745e-06
2.8217946e-06
3.0837983e-06
3.4095628e-06
3.8218653e-06
4.2909026e-06
4.8141829e-06
5.3959574e-06
6.0392654e-06
6.7422205e-06
7.505685e-06
8.313463e-06
9.1362034e-06
9.9397853e-06
1.0688073e-05
1.134764e-05
1.1903202e-05
1.2360474e-05
1.2738503e-05
1.3060674e-05
1.3345831e-05
1.3604068e-05
1.3837006e-05
1.4042233e-05
1.4218378e-05
1.4367809e-05
1.4496409e-05
1.4611104e-05
1.4717147e-05
1.4817395e-05
1.4912041e-05
1.5000614e-05
1.5083192e-05
1.5160518e-05
1.5233451e-05
1.53025e-05
1.5367794e-05
1.5429327e-05
1.5487199e-05
1.5541625e-05
1.5592799e-05
1.5640814e-05
1.5685736e-05
1.5727671e-05
1.5766747e-05
1.5802976e-05
1.5836614e-05
1.58677e-05
1.5896295e-05
1.5922496e-05
1.5946417e-05
1.5968155e-05
1.5987802e-05
1.6005448e-05
1.6021169e-05
1.6035042e-05
1.6047142e-05
1.605754e-05
1.6066305e-05
1.6073505e-05
1.6079205e-05
1.608347e-05
1.608636e-05
1.6087933e-05
1.6088247e-05
1.6087355e-05
1.6085311e-05
1.6082164e-05
1.6077964e-05
1.6072757e-05
1.6066588e-05
1.6059501e-05
1.6051536e-05
1.6042734e-05
1.6033134e-05
1.6022772e-05
1.6011687e-05
1.5999907e-05
1.5987479e-05
1.5974407e-05
1.5960784e-05
1.5946495e-05
1.5931912e-05
1.5916361e-05
1.590086e-05
1.5886582e-05
1.5856046e-05
7.7887369e-05
3.3039309e-05
1.5963925e-05
8.9866573e-06
5.7128803e-06
3.9567966e-06
2.919634e-06
2.2656546e-06
1.8332649e-06
1.5370836e-06
1.3289816e-06
1.1802131e-06
1.07279e-06
9.9522688e-07
9.4035538e-07
9.036955e-07
8.847488e-07
8.7865455e-07
9.1717141e-07
1.0106109e-06
1.1636776e-06
1.3823681e-06
1.6746608e-06
2.0289423e-06
2.4728088e-06
3.0453059e-06
3.8249168e-06
4.7862759e-06
5.8920269e-06
7.1001454e-06
8.3683365e-06
9.6440887e-06
1.0865463e-05
1.1983455e-05
1.297116e-05
1.3827709e-05
1.4572772e-05
1.5236065e-05
1.5844913e-05
1.6416342e-05
1.6955548e-05
1.7460476e-05
1.7927588e-05
1.8357765e-05
1.8755983e-05
1.9128661e-05
1.9480841e-05
1.9815049e-05
2.0132085e-05
2.0432517e-05
2.0717487e-05
2.0988487e-05
2.1246784e-05
2.149318e-05
2.172821e-05
2.1952406e-05
2.2166351e-05
2.2370588e-05
2.2565524e-05
2.2751332e-05
2.29285e-05
2.309747e-05
2.3258608e-05
2.3412241e-05
2.355867e-05
2.3698174e-05
2.3831017e-05
2.3957442e-05
2.4077681e-05
2.4191957e-05
2.4300481e-05
2.4403458e-05
2.4501084e-05
2.4593551e-05
2.4681043e-05
2.4763737e-05
2.4841805e-05
2.4915413e-05
2.4984721e-05
2.5049885e-05
2.5111057e-05
2.5168382e-05
2.5222001e-05
2.5272051e-05
2.5318664e-05
2.5361969e-05
2.5402089e-05
2.5439146e-05
2.5473256e-05
2.5504537e-05
2.5533092e-05
2.555905e-05
2.5582469e-05
2.5603583e-05
2.5622212e-05
2.5639141e-05
2.5652891e-05
2.5667318e-05
2.5675195e-05
2.5686289e-05
0.00016298007
0.00011195668
7.4134903e-05
5.0762397e-05
3.6468574e-05
2.7352543e-05
2.1252005e-05
1.6997221e-05
1.3928089e-05
1.1652235e-05
9.9251102e-06
8.5875418e-06
7.5319364e-06
6.6839648e-06
5.9900092e-06
5.4109282e-06
4.9166022e-06
4.4831776e-06
4.092971e-06
3.7364062e-06
3.3937278e-06
3.0835125e-06
2.7803173e-06
2.4925584e-06
2.2239139e-06
1.9878524e-06
1.7970146e-06
1.6723033e-06
1.6977496e-06
1.9062999e-06
2.2784275e-06
2.826904e-06
3.5929898e-06
4.659138e-06
5.9619983e-06
7.405027e-06
8.9292703e-06
1.0459406e-05
1.1919849e-05
1.3260666e-05
1.4464517e-05
1.5543784e-05
1.6528082e-05
1.7447992e-05
1.8323354e-05
1.9160165e-05
1.9955877e-05
2.0707284e-05
2.1415415e-05
2.2085325e-05
2.2722857e-05
2.3331933e-05
2.3914276e-05
2.447081e-05
2.5002857e-05
2.5512174e-05
2.6000383e-05
2.6468665e-05
2.6917929e-05
2.7348964e-05
2.7762637e-05
2.8159776e-05
2.854111e-05
2.89073e-05
2.9258967e-05
2.9596683e-05
2.9920973e-05
3.0232328e-05
3.0531206e-05
3.0818044e-05
3.1093252e-05
3.1357223e-05
3.1610331e-05
3.1852937e-05
3.2085386e-05
3.230801e-05
3.2521131e-05
3.2725058e-05
3.292009e-05
3.310652e-05
3.3284628e-05
3.3454688e-05
3.3616965e-05
3.3771716e-05
3.3919192e-05
3.4059634e-05
3.4193281e-05
3.4320362e-05
3.4441101e-05
3.4555722e-05
3.4664428e-05
3.4767454e-05
3.4864944e-05
3.4957256e-05
3.5044226e-05
3.5126981e-05
3.5203253e-05
3.5280405e-05
3.5337828e-05
3.5437894e-05
0.00019945994
0.00017421971
0.0001436583
0.00011609438
9.4063125e-05
7.7129974e-05
6.4164825e-05
5.4143214e-05
4.6291796e-05
4.0054434e-05
3.5033863e-05
3.094376e-05
2.7573879e-05
2.4766004e-05
2.2401636e-05
2.039018e-05
1.8660377e-05
1.7155478e-05
1.5829759e-05
1.4644833e-05
1.3569265e-05
1.2576754e-05
1.1643143e-05
1.0747056e-05
9.8657418e-06
8.9904629e-06
8.0915652e-06
7.1931385e-06
6.2836536e-06
5.4152841e-06
4.6119446e-06
3.8995725e-06
3.3185686e-06
2.880707e-06
2.6488282e-06
2.7327991e-06
3.061886e-06
3.6603282e-06
4.5740808e-06
5.8444852e-06
7.345949e-06
8.9884154e-06
1.0685101e-05
1.2346006e-05
1.3910486e-05
1.5354496e-05
1.668665e-05
1.7933296e-05
1.9120604e-05
2.0262825e-05
2.1361732e-05
2.2413818e-05
2.3417726e-05
2.4376555e-05
2.5295445e-05
2.617841e-05
2.7027471e-05
2.7843804e-05
2.862889e-05
2.9384504e-05
3.0112254e-05
3.081341e-05
3.1489071e-05
3.2140318e-05
3.2768186e-05
3.33736e-05
3.3957396e-05
3.4520355e-05
3.5063211e-05
3.5586646e-05
3.6091304e-05
3.6577791e-05
3.7046684e-05
3.7498532e-05
3.7933861e-05
3.8353172e-05
3.8756951e-05
3.9145663e-05
3.951976e-05
3.9879677e-05
4.0225839e-05
4.0558657e-05
4.0878531e-05
4.1185848e-05
4.1480987e-05
4.1764318e-05
4.2036199e-05
4.2296985e-05
4.2547016e-05
4.2786634e-05
4.3016158e-05
4.3235939e-05
4.3446222e-05
4.3647496e-05
4.3839633e-05
4.4024114e-05
4.4197702e-05
4.437243e-05
4.4508175e-05
4.4747927e-05
0.00021102715
0.00020193202
0.00018649801
0.00016773219
0.00014870433
0.00013116791
0.0001157527
0.00010248992
9.1171017e-05
8.1523887e-05
7.3284735e-05
6.6221057e-05
6.0138719e-05
5.4875488e-05
5.0297309e-05
4.6293811e-05
4.2773545e-05
3.9660258e-05
3.6889939e-05
3.4407384e-05
3.2165892e-05
3.0123576e-05
2.8243964e-05
2.6493504e-05
2.4842196e-05
2.3265622e-05
2.1733891e-05
2.0221368e-05
1.8701344e-05
1.716699e-05
1.5586744e-05
1.4008448e-05
1.2401971e-05
1.0794554e-05
9.2209129e-06
7.7686836e-06
6.4721458e-06
5.3798088e-06
4.5387636e-06
3.9465859e-06
3.7574112e-06
3.9238789e-06
4.4395066e-06
5.3434591e-06
6.6597239e-06
8.2337587e-06
9.9810938e-06
1.1796879e-05
1.3590762e-05
1.5304895e-05
1.6921026e-05
1.8450619e-05
1.9915792e-05
2.1332352e-05
2.270422e-05
2.402846e-05
2.5303052e-05
2.6530014e-05
2.7713424e-05
2.8856471e-05
2.9960797e-05
3.1027592e-05
3.2058378e-05
3.3054833e-05
3.4018412e-05
3.4950316e-05
3.5851669e-05
3.6723564e-05
3.7567013e-05
3.8382943e-05
3.9172223e-05
3.9935677e-05
4.0674083e-05
4.1388174e-05
4.2078651e-05
4.2746183e-05
4.3391411e-05
4.4014953e-05
4.4617404e-05
4.5199342e-05
4.5761325e-05
4.6303897e-05
4.6827586e-05
4.7332906e-05
4.782036e-05
4.829044e-05
4.8743626e-05
4.918039e-05
4.9601193e-05
5.0006493e-05
5.0396724e-05
5.0772351e-05
5.113373e-05
5.1481474e-05
5.1815496e-05
5.2137671e-05
5.2443551e-05
5.2751099e-05
5.2994638e-05
5.3425483e-05
0.00021493858
0.00021207159
0.00020591874
0.00019645305
0.0001846641
0.00017179449
0.00015883285
0.00014639564
0.00013479951
0.00012416787
0.00011451399
0.00010579358
9.7936388e-05
9.0862689e-05
8.4492139e-05
7.8748386e-05
7.3561002e-05
6.8866048e-05
6.4606019e-05
6.0728874e-05
5.7187904e-05
5.3940507e-05
5.0947817e-05
4.8174002e-05
4.5585448e-05
4.3151492e-05
4.0842027e-05
3.8626639e-05
3.6474464e-05
3.4358141e-05
3.2250147e-05
3.0134636e-05
2.79963e-05
2.5823641e-05
2.3592081e-05
2.1337619e-05
1.904394e-05
1.675273e-05
1.4516711e-05
1.2366335e-05
1.038885e-05
8.6354373e-06
7.1625448e-06
6.030452e-06
5.2365702e-06
4.9754169e-06
5.1278823e-06
5.722318e-06
6.8141507e-06
8.2807056e-06
1.0008674e-05
1.1892576e-05
1.3826007e-05
1.5729438e-05
1.7564536e-05
1.9328593e-05
2.1035602e-05
2.2697174e-05
2.4315182e-05
2.5886092e-05
2.7407891e-05
2.8882162e-05
3.0311748e-05
3.1698581e-05
3.3043726e-05
3.4348291e-05
3.561366e-05
3.6841177e-05
3.8031992e-05
3.9187165e-05
4.030774e-05
4.1394706e-05
4.2448989e-05
4.3471464e-05
4.4462971e-05
4.5424312e-05
4.6356254e-05
4.7259538e-05
4.8134879e-05
4.8982966e-05
4.9804473e-05
5.0600051e-05
5.1370336e-05
5.2115951e-05
5.2837503e-05
5.3535589e-05
5.4210796e-05
5.4863699e-05
5.5494865e-05
5.6104855e-05
5.6694209e-05
5.7263498e-05
5.7813176e-05
5.8343979e-05
5.8855844e-05
5.9351084e-05
5.9823803e-05
6.0299061e-05
6.068007e-05
6.1353158e-05
0.00021676066
0.00021587723
0.00021371919
0.00020974319
0.0002038431
0.00019632134
0.00018767958
0.00017842576
0.00016897432
0.00015962305
0.00015056735
0.00014192466
0.00013375776
0.00012609265
0.00011893137
0.00011226101
0.00010605959
0.00010030011
9.4953053e-05
8.9987827e-05
8.5373844e-05
8.1080969e-05
7.7079791e-05
7.3341762e-05
6.9839018e-05
6.6544542e-05
6.3431975e-05
6.0474951e-05
5.7646682e-05
5.4920526e-05
5.2270215e-05
4.9673494e-05
4.7096973e-05
4.4513298e-05
4.1899697e-05
3.9249482e-05
3.6546279e-05
3.3785303e-05
3.0961907e-05
2.812177e-05
2.5244834e-05
2.2377391e-05
1.95551e-05
1.684069e-05
1.4268732e-05
1.1960517e-05
9.9448489e-06
8.3158958e-06
7.0827874e-06
6.4098096e-06
6.2746698e-06
6.6562921e-06
7.603804e-06
8.9995983e-06
1.0726189e-05
1.2669829e-05
1.4713781e-05
1.6766951e-05
1.8781406e-05
2.0746847e-05
2.2669637e-05
2.4554159e-05
2.6397729e-05
2.8195764e-05
2.9946643e-05
3.1651432e-05
3.3311467e-05
3.4927437e-05
3.6499946e-05
3.8029906e-05
3.9518332e-05
4.0966148e-05
4.2374236e-05
4.3743482e-05
4.5074756e-05
4.6368892e-05
4.7626704e-05
4.8848985e-05
5.0036504e-05
5.1190014e-05
5.2310247e-05
5.3397922e-05
5.4453741e-05
5.5478396e-05
5.6472565e-05
5.7436919e-05
5.837212e-05
5.9278821e-05
6.0157666e-05
6.10093e-05
6.1834343e-05
6.2633453e-05
6.3407166e-05
6.415632e-05
6.4880865e-05
6.5583571e-05
6.6256886e-05
6.6934e-05
6.7481981e-05
6.8447753e-05
0.00021819049
0.00021785209
0.00021709787
0.00021558241
0.00021301825
0.00020928235
0.0002044312
0.00019864718
0.00019216721
0.00018522817
0.00017803725
0.00017076156
0.00016352864
0.00015643168
0.00014953598
0.00014288508
0.00013650603
0.0001304135
0.00012461302
0.00011910339
0.00011387846
0.00010892848
0.00010424103
9.9801708e-05
9.5594605e-05
9.1602589e-05
8.7807664e-05
8.419099e-05
8.0732767e-05
7.7412319e-05
7.4208232e-05
7.110035e-05
6.8064671e-05
6.5076041e-05
6.2110146e-05
5.9147813e-05
5.6170445e-05
5.3163526e-05
5.0104441e-05
4.6983282e-05
4.3793632e-05
4.0539089e-05
3.7222073e-05
3.386433e-05
3.048309e-05
2.7128819e-05
2.3824554e-05
2.063714e-05
1.7598418e-05
1.4825221e-05
1.2387101e-05
1.0380456e-05
8.8328828e-06
7.9197063e-06
7.6212812e-06
7.9244052e-06
8.8587529e-06
1.0271986e-05
1.2066088e-05
1.4109891e-05
1.6276561e-05
1.8473581e-05
2.0655086e-05
2.2809205e-05
2.4935079e-05
2.7028928e-05
2.908415e-05
3.1096152e-05
3.3063589e-05
3.4986392e-05
3.6864396e-05
3.8697506e-05
4.0486005e-05
4.2230403e-05
4.3931248e-05
4.5589127e-05
4.7204687e-05
4.8778599e-05
5.0311544e-05
5.1804211e-05
5.3257293e-05
5.4671483e-05
5.6047473e-05
5.7385956e-05
5.8687621e-05
5.9953157e-05
6.1183252e-05
6.2378591e-05
6.3539858e-05
6.4667739e-05
6.5762904e-05
6.6826061e-05
6.7857803e-05
6.8859042e-05
6.9829715e-05
7.077306e-05
7.1679689e-05
7.2591798e-05
7.3335771e-05
7.4643661e-05
0.00021968477
0.00021947301
0.00021913909
0.00021853742
0.00021748342
0.00021580755
0.00021340222
0.00021024078
0.00020636862
0.00020187961
0.00019689126
0.0001915255
0.0001858967
0.0001801056
0.0001742372
0.00016836104
0.00016253257
0.00015679494
0.0001511809
0.00014571449
0.00014041255
0.00013528598
0.00013034082
0.00012557902
0.00012099918
0.00011659701
0.00011236582
0.00010829689
0.00010437966
0.00010060186
9.6949685e-05
9.3408755e-05
8.9962854e-05
8.6593766e-05
8.3281956e-05
8.0008525e-05
7.6754959e-05
7.3504612e-05
7.0238705e-05
6.6939471e-05
6.3592251e-05
6.0187943e-05
5.6719694e-05
5.3191334e-05
4.9578067e-05
4.588503e-05
4.2145975e-05
3.8354776e-05
3.4539156e-05
3.0757289e-05
2.7037531e-05
2.3452959e-05
2.0044396e-05
1.6938029e-05
1.4217787e-05
1.1983986e-05
1.0282921e-05
9.340829e-06
9.046574e-06
9.4561455e-06
1.0505766e-05
1.2067206e-05
1.4019576e-05
1.6217233e-05
1.8533024e-05
2.0886489e-05
2.3242008e-05
2.5586887e-05
2.7912312e-05
3.020854e-05
3.2467975e-05
3.4686631e-05
3.6862533e-05
3.8994243e-05
4.108074e-05
4.3121555e-05
4.5116569e-05
4.7065845e-05
4.8969594e-05
5.0828148e-05
5.2641922e-05
5.4411387e-05
5.6137066e-05
5.7819516e-05
5.9459323e-05
6.1057095e-05
6.2613461e-05
6.4129064e-05
6.5604556e-05
6.7040609e-05
6.8437887e-05
6.9797102e-05
7.1118859e-05
7.2404104e-05
7.3652726e-05
7.4868422e-05
7.6039813e-05
7.7218844e-05
7.8187078e-05
7.9885251e-05
0.00022134587
0.00022115623
0.0002209296
0.00022061844
0.00022014113
0.00021939343
0.00021827042
0.00021668885
0.00021460094
0.00021199713
0.00020890074
0.00020535855
0.00020143121
0.00019718518
0.00019268695
0.00018799936
0.00018317954
0.000178278
0.00017333836
0.00016839764
0.00016348659
0.00015863034
0.0001538489
0.00014915774
0.00014456826
0.00014008822
0.00013572216
0.00013147179
0.00012733627
0.00012331249
0.00011939519
0.00011557752
0.00011185089
0.00010820469
0.0001046264
0.00010110224
9.7617572e-05
9.4157805e-05
9.0707573e-05
8.7250779e-05
8.3771637e-05
8.0256599e-05
7.6693368e-05
7.3076276e-05
6.9389979e-05
6.5624297e-05
6.1783781e-05
5.7868051e-05
5.3869748e-05
4.9810204e-05
4.5663627e-05
4.1483141e-05
3.7289577e-05
3.3133226e-05
2.9068801e-05
2.5171689e-05
2.1494241e-05
1.8193871e-05
1.5352572e-05
1.3050593e-05
1.1462087e-05
1.0645853e-05
1.058608e-05
1.1279406e-05
1.2597941e-05
1.4432079e-05
1.6623614e-05
1.9020668e-05
2.1515444e-05
2.4050065e-05
2.6597564e-05
2.9141228e-05
3.1666774e-05
3.416335e-05
3.6624291e-05
3.9045502e-05
4.1424036e-05
4.3757803e-05
4.6045472e-05
4.8286221e-05
5.0479562e-05
5.2625269e-05
5.4723319e-05
5.6773836e-05
5.877706e-05
6.0733322e-05
6.2643025e-05
6.4506631e-05
6.6324647e-05
6.8097626e-05
6.9826138e-05
7.1510822e-05
7.3152231e-05
7.4751278e-05
7.630776e-05
7.7825795e-05
7.9291874e-05
8.0768325e-05
8.1988075e-05
8.412315e-05
0.00022319485
0.00022300493
0.00022279974
0.00022256763
0.00022228019
0.00022189075
0.00022133842
0.00022055722
0.00021948674
0.00021808069
0.00021631156
0.0002141712
0.00021166862
0.00020882613
0.00020567528
0.00020225312
0.00019859916
0.00019475315
0.00019075347
0.00018663613
0.0001824341
0.00017817698
0.00017389091
0.00016959856
0.00016531916
0.00016106872
0.00015686013
0.00015270341
0.00014860593
0.00014457257
0.00014060591
0.00013670648
0.00013287292
0.00012910184
0.00012538784
0.00012172361
0.00011810024
0.00011450772
0.00011093499
0.0001073699
0.0001037994
0.00010021066
9.659087e-05
9.2930261e-05
8.9216765e-05
8.5437947e-05
8.158656e-05
7.7657436e-05
7.3643472e-05
6.9546304e-05
6.5353792e-05
6.1061543e-05
5.6711236e-05
5.2270907e-05
4.7765409e-05
4.3232535e-05
3.8696959e-05
3.4226939e-05
2.9900799e-05
2.5773419e-05
2.196928e-05
1.8620498e-05
1.5824812e-05
1.3724508e-05
1.2475878e-05
1.2037519e-05
1.2432505e-05
1.3552949e-05
1.5293897e-05
1.7484843e-05
1.9956378e-05
2.2581653e-05
2.5285495e-05
2.802767e-05
3.0782736e-05
3.3531199e-05
3.6258871e-05
3.8956469e-05
4.1617769e-05
4.4238271e-05
4.6814765e-05
4.9345035e-05
5.182754e-05
5.4261232e-05
5.6645438e-05
5.8979767e-05
6.1264048e-05
6.3498279e-05
6.568259e-05
6.7817226e-05
6.9902509e-05
7.1938868e-05
7.3926691e-05
7.586676e-05
7.7758701e-05
7.9606988e-05
8.1395841e-05
8.3198504e-05
8.4695713e-05
8.7312435e-05
0.00022523493
0.00022504126
0.0002248374
0.00022462252
0.00022438878
0.00022411941
0.00022378735
0.00022335644
0.00022278505
0.00022203102
0.00022105657
0.00021983207
0.00021833808
0.0002165658
0.00021451629
0.00021219887
0.00020962935
0.00020682816
0.00020381875
0.00020062616
0.00019727593
0.00019379324
0.00019020226
0.00018652572
0.00018278453
0.00017899758
0.00017518164
0.00017135131
0.00016751901
0.00016369507
0.00015988774
0.00015610337
0.00015234642
0.0001486195
0.0001449233
0.0001412566
0.0001376163
0.00013399772
0.00013039474
0.00012679985
0.00012320424
0.00011959824
0.00011597139
0.00011231393
0.00010861558
0.00010486514
0.00010105264
9.7169612e-05
9.3207573e-05
8.9161259e-05
8.5021775e-05
8.0779141e-05
7.6443765e-05
7.2006373e-05
6.7456251e-05
6.2822806e-05
5.8099925e-05
5.3312203e-05
4.8471649e-05
4.3608816e-05
3.8780235e-05
3.4066591e-05
2.9551716e-05
2.5336091e-05
2.1582631e-05
1.8390698e-05
1.591599e-05
1.4337662e-05
1.3634383e-05
1.3826507e-05
1.4834743e-05
1.6545302e-05
1.8774377e-05
2.1340673e-05
2.4105728e-05
2.6982879e-05
2.9921434e-05
3.2888108e-05
3.5858562e-05
3.88156e-05
4.1747596e-05
4.4646404e-05
4.7506122e-05
5.03225e-05
5.3092483e-05
5.5813864e-05
5.8485068e-05
6.1104992e-05
6.3672899e-05
6.6188335e-05
6.8651058e-05
7.1061035e-05
7.3418286e-05
7.5723286e-05
7.7975348e-05
8.0179193e-05
8.2316596e-05
8.4472168e-05
8.6271082e-05
8.9411885e-05
0.00022746694
0.0002272696
0.00022706332
0.0002268501
0.00022662856
0.00022639378
0.00022613591
0.0002258392
0.00022548202
0.00022503814
0.00022447893
0.00022377597
0.00022290354
0.00022184056
0.0002205717
0.00021908782
0.00021738583
0.00021546805
0.00021334143
0.00021101665
0.00020850717
0.0002058284
0.00020299697
0.00020003007
0.0001969449
0.00019375824
0.00019048609
0.00018714345
0.00018374409
0.00018030045
0.00017682358
0.0001733231
0.00016980715
0.00016628236
0.00016275383
0.00015922496
0.00015569747
0.00015217144
0.00014864541
0.00014511642
0.00014158005
0.00013803061
0.00013446116
0.00013086424
0.00012723185
0.00012355508
0.00011982478
0.00011603215
0.00011216841
0.00010822606
0.00010419678
0.00010007022
9.5843687e-05
9.1511548e-05
8.7064058e-05
8.250492e-05
7.7829672e-05
7.3041266e-05
6.8148267e-05
6.3150735e-05
5.8075848e-05
5.2948823e-05
4.7782247e-05
4.2630386e-05
3.7582964e-05
3.2727651e-05
2.8175447e-05
2.4102425e-05
2.0608919e-05
1.7894697e-05
1.6103886e-05
1.526162e-05
1.5370824e-05
1.6379961e-05
1.8147355e-05
2.0475567e-05
2.3176165e-05
2.6105741e-05
2.9171748e-05
3.231654e-05
3.5500995e-05
3.8697158e-05
4.1885544e-05
4.5052643e-05
4.8188779e-05
5.1286914e-05
5.4341921e-05
5.7350031e-05
6.030847e-05
6.3215203e-05
6.6068755e-05
6.8868101e-05
7.1612482e-05
7.4301733e-05
7.6934597e-05
7.9515826e-05
8.202451e-05
8.4556981e-05
8.6679606e-05
9.0383974e-05
0.00022989184
0.00022969133
0.00022948232
0.0002292675
0.00022904717
0.00022882026
0.00022858378
0.00022833204
0.00022805583
0.00022774218
0.00022737465
0.00022693418
0.00022640043
0.00022575319
0.00022497379
0.00022404614
0.00022295753
0.000221699
0.00022026544
0.00021865539
0.00021687073
0.0002149162
0.00021279893
0.00021052791
0.0002081135
0.000205567
0.00020290017
0.00020012498
0.0001972532
0.00019429628
0.00019126508
0.00018816976
0.00018501966
0.00018182318
0.00017858766
0.00017531926
0.00017202284
0.00016870192
0.00016535864
0.00016199376
0.00015860667
0.0001551954
0.00015175666
0.00014828608
0.00014477843
0.00014122751
0.00013762638
0.00013396763
0.00013024351
0.00012644653
0.00012256897
0.00011860161
0.00011453758
0.00011037037
0.000106091
0.0001016948
9.7175689e-05
9.2531377e-05
8.7760182e-05
8.2848882e-05
7.7825207e-05
7.2677791e-05
6.7414038e-05
6.2054945e-05
5.663693e-05
5.1185641e-05
4.5736639e-05
4.0393961e-05
3.5237292e-05
3.0418092e-05
2.6103615e-05
2.2412688e-05
1.9593809e-05
1.7723566e-05
1.6873243e-05
1.7043665e-05
1.8176928e-05
2.0097079e-05
2.2594798e-05
2.5478784e-05
2.860643e-05
3.1884049e-05
3.5250417e-05
3.8663068e-05
4.2092063e-05
4.5516522e-05
4.8921663e-05
5.2296778e-05
5.5634036e-05
5.8927656e-05
6.2173336e-05
6.5367882e-05
6.8508862e-05
7.1594781e-05
7.4623282e-05
7.7598741e-05
8.0497159e-05
8.342681e-05
8.5892084e-05
9.0195548e-05
0.00023251088
0.00023230761
0.00023209608
0.00023187922
0.00023165764
0.00023143129
0.00023119947
0.00023096045
0.00023071095
0.0002304456
0.00023015662
0.00022983376
0.00022946455
0.00022903491
0.00022852987
0.00022793443
0.00022723436
0.00022641688
0.00022547122
0.00022438892
0.00022316402
0.00022179307
0.000220275
0.00021861091
0.00021680384
0.00021485842
0.00021278061
0.00021057736
0.00020825634
0.00020582569
0.00020329377
0.000200669
0.00019795966
0.00019517375
0.00019231878
0.00018940168
0.00018642859
0.00018340479
0.00018033455
0.00017722108
0.00017406647
0.00017087165
0.00016763632
0.00016435902
0.00016103731
0.0001576677
0.00015424573
0.00015076618
0.00014722312
0.00014361026
0.00013992101
0.00013614773
0.00013228304
0.00012831999
0.00012425038
0.00012006716
0.00011576294
0.00011133163
0.00010676851
0.00010206326
9.7220067e-05
9.2233753e-05
8.7093402e-05
8.1822369e-05
7.6411531e-05
7.0883092e-05
6.5244353e-05
5.9535668e-05
5.3804486e-05
4.8077469e-05
4.2465396e-05
3.7057183e-05
3.2042904e-05
2.7568085e-05
2.3811068e-05
2.1002586e-05
1.9198491e-05
1.8485602e-05
1.8877948e-05
2.0258207e-05
2.2426378e-05
2.5163872e-05
2.8281947e-05
3.1643928e-05
3.515863e-05
3.8764272e-05
4.2417614e-05
4.608834e-05
4.9755084e-05
5.3402487e-05
5.701934e-05
6.0597381e-05
6.413041e-05
6.761407e-05
7.1043744e-05
7.4422584e-05
7.7722743e-05
8.1064412e-05
8.3886846e-05
8.8819339e-05
0.00023532544
0.00023511971
0.00023490592
0.00023468708
0.00023446384
0.00023423635
0.00023400453
0.00023376797
0.00023352569
0.00023327581
0.00023301521
0.00023273922
0.0002324415
0.00023211402
0.00023174727
0.00023133058
0.0002308526
0.00023030181
0.00022966702
0.0002289378
0.00022810493
0.00022716062
0.00022609869
0.00022491469
0.00022360586
0.00022217104
0.00022061062
0.00021892627
0.00021712086
0.0002151982
0.00021316291
0.00021102021
0.00020877577
0.00020643552
0.00020400551
0.00020149171
0.00019889987
0.0001962354
0.00019350313
0.00019070732
0.00018785143
0.00018493812
0.00018196908
0.00017894505
0.00017586578
0.0001727301
0.00016953586
0.00016628002
0.00016295868
0.0001595673
0.00015610081
0.00015255325
0.00014891826
0.00014518936
0.00014135933
0.00013742096
0.00013336673
0.00012918933
0.0001248823
0.00012043646
0.00011584749
0.00011110988
0.00010621493
0.00010116315
9.5944912e-05
9.0575611e-05
8.5043668e-05
7.9364043e-05
7.3559481e-05
6.7637822e-05
6.1641786e-05
5.5620314e-05
4.9642143e-05
4.3791536e-05
3.8196452e-05
3.3055641e-05
2.8521566e-05
2.4847269e-05
2.2156313e-05
2.0578288e-05
2.0191161e-05
2.0952304e-05
2.2695329e-05
2.5197731e-05
2.8237619e-05
3.163584e-05
3.5265904e-05
3.9041811e-05
4.2903954e-05
4.6810535e-05
5.0732138e-05
5.4647753e-05
5.8542086e-05
6.2404174e-05
6.6224461e-05
7.000296e-05
7.3706415e-05
7.7466378e-05
8.0653692e-05
8.6236731e-05
0.00023833699
0.00023812903
0.00023791315
0.00023769245
0.00023746755
0.00023723862
0.00023700568
0.0002367687
0.00023652745
0.00023628139
0.00023602944
0.00023576978
0.00023549962
0.00023521508
0.00023491104
0.00023458121
0.0002342182
0.00023381378
0.00023335912
0.00023284515
0.00023226283
0.00023160354
0.00023085932
0.00023002306
0.00022908873
0.00022805143
0.00022690746
0.00022565431
0.00022429062
0.00022281612
0.00022123152
0.00021953843
0.00021773923
0.00021583693
0.00021383507
0.00021173757
0.00020954854
0.00020727219
0.00020491266
0.0002024739
0.00019995951
0.00019737266
0.00019471591
0.00019199118
0.00018919962
0.00018634165
0.00018341684
0.00018042394
0.0001773609
0.00017422488
0.0001710124
0.00016771921
0.00016434036
0.00016087049
0.00015730356
0.00015363314
0.00014985234
0.00014595397
0.00014193111
0.00013777541
0.00013347987
0.00012903768
0.00012444009
0.00011968161
0.00011475372
0.0001096561
0.00010438015
9.8923803e-05
9.3295873e-05
8.7496217e-05
8.1536705e-05
7.5437358e-05
6.9228132e-05
6.2946144e-05
5.6650567e-05
5.0439678e-05
4.4391014e-05
3.8689837e-05
3.3500114e-05
2.9060753e-05
2.5569663e-05
2.3174851e-05
2.201871e-05
2.2129287e-05
2.3388957e-05
2.5590545e-05
2.8494737e-05
3.1886257e-05
3.5601929e-05
3.9527869e-05
4.3585245e-05
4.7718878e-05
5.1889928e-05
5.6071066e-05
6.0241052e-05
6.4392141e-05
6.8482166e-05
7.2652209e-05
7.6201006e-05
8.2442647e-05
0.00024154706
0.00024133704
0.00024111921
0.00024089673
0.00024067024
0.00024043984
0.00024020558
0.00023996747
0.00023972551
0.00023947958
0.00023922937
0.00023897426
0.0002387132
0.00023844453
0.00023816587
0.00023787401
0.00023756485
0.00023723339
0.00023687383
0.00023647969
0.00023604395
0.00023555932
0.0002350184
0.00023441393
0.00023373899
0.00023298718
0.00023215273
0.00023123064
0.00023021675
0.00022910775
0.00022790123
0.00022659562
0.00022519022
0.00022368505
0.00022208087
0.00022037904
0.00021858142
0.00021669027
0.00021470812
0.00021263767
0.00021048167
0.00020824274
0.00020592332
0.0002035255
0.00020105093
0.00019850078
0.00019587561
0.00019317534
0.00019039921
0.00018754578
0.00018461295
0.0001815979
0.00017849713
0.00017530654
0.00017202139
0.00016863635
0.00016514556
0.00016154261
0.00015782092
0.00015397305
0.00014999158
0.00014586917
0.00014159736
0.0001371686
0.00013257392
0.00012780749
0.00012286076
0.00011772732
0.00011240303
0.00010688321
0.0001011692
9.5263796e-05
8.9176194e-05
8.2919988e-05
7.6517303e-05
7.0014358e-05
6.3448882e-05
5.6908725e-05
5.0493057e-05
4.4321054e-05
3.8579107e-05
3.3480499e-05
2.9269402e-05
2.6127352e-05
2.4246419e-05
2.3713405e-05
2.4467163e-05
2.6329364e-05
2.9057491e-05
3.2409211e-05
3.6186814e-05
4.0246886e-05
4.4489178e-05
4.8843863e-05
5.3260204e-05
5.7710797e-05
6.2136073e-05
6.6681557e-05
7.0568957e-05
7.7454284e-05
0.00024495721
0.00024474526
0.00024452556
0.00024430138
0.00024407332
0.00024384149
0.00024360588
0.00024336652
0.00024312342
0.00024287658
0.00024262595
0.00024237134
0.00024211239
0.0002418485
0.00024157868
0.00024130149
0.00024101491
0.0002407163
0.00024040237
0.00024006911
0.00023971189
0.00023932551
0.00023890431
0.00023844232
0.00023793338
0.00023737131
0.00023675007
0.00023606388
0.00023530735
0.00023447557
0.00023356422
0.00023256959
0.00023148865
0.00023031903
0.00022905906
0.00022770769
0.00022626448
0.00022472954
0.00022310342
0.00022138709
0.00021958178
0.00021768895
0.00021571009
0.00021364671
0.00021150015
0.00020927153
0.00020696167
0.00020457094
0.00020209929
0.00019954611
0.00019691026
0.00019419001
0.00019138298
0.00018848625
0.00018549624
0.00018240878
0.00017921911
0.00017592185
0.00017251122
0.00016898074
0.0001653235
0.00016153239
0.00015759951
0.00015351694
0.00014927585
0.00014486835
0.00014028554
0.00013551868
0.00013055985
0.0001254024
0.00012003828
0.00011446255
0.00010867557
0.00010267771
9.6472091e-05
9.0076199e-05
8.3505057e-05
7.6794818e-05
6.9996835e-05
6.3169776e-05
5.6409578e-05
4.9849403e-05
4.3634941e-05
3.7976734e-05
3.3121285e-05
2.9305229e-05
2.6759513e-05
2.5617088e-05
2.5872549e-05
2.7383798e-05
2.99157e-05
3.3207918e-05
3.7032472e-05
4.1217147e-05
4.5637633e-05
5.0216261e-05
5.4854587e-05
5.968876e-05
6.3855247e-05
7.1327391e-05
0.00024856905
0.00024835524
0.00024813375
0.0002479079
0.0002476783
0.00024744503
0.00024720808
0.00024696744
0.00024672312
0.00024647512
0.00024622346
0.00024596809
0.00024570891
0.0002454457
0.00024517811
0.00024490554
0.00024462713
0.00024434162
0.00024404733
0.0002437421
0.00024342323
0.00024308748
0.0002427311
0.00024234986
0.00024193911
0.00024149387
0.00024100896
0.00024047906
0.00023989887
0.00023926319
0.00023856703
0.00023780572
0.00023697495
0.00023607087
0.00023509013
0.00023402988
0.00023288781
0.00023166212
0.00023035152
0.00022895518
0.00022747268
0.00022590394
0.00022424917
0.00022250875
0.00022068316
0.00021877291
0.00021677842
0.00021469993
0.00021253745
0.00021029067
0.0002079589
0.000205541
0.00020303539
0.00020043994
0.00019775203
0.00019496844
0.00019208542
0.00018909861
0.00018600314
0.00018279352
0.0001794637
0.00017600722
0.00017241692
0.00016868532
0.00016480414
0.00016076509
0.00015655931
0.00015217748
0.00014761026
0.00014284884
0.00013788345
0.00013270602
0.00012730838
0.00012168443
0.00011583
0.00010974686
0.00010343581
9.6907532e-05
9.0182976e-05
8.3288122e-05
7.6265395e-05
6.918324e-05
6.2120223e-05
5.519329e-05
4.8563404e-05
4.2419382e-05
3.7005169e-05
3.2596413e-05
2.9452166e-05
2.7751516e-05
2.7539885e-05
2.8712981e-05
3.1049168e-05
3.4277865e-05
3.8143988e-05
4.2457211e-05
4.7030935e-05
5.1956243e-05
5.6268431e-05
6.4188067e-05
0.00025238423
0.00025216861
0.00025194535
0.00025171784
0.0002514867
0.00025125199
0.00025101368
0.00025077175
0.00025052617
0.00025027697
0.00025002413