/*--------------------------------*- C++ -*----------------------------------*\
  =========                 |
  \\      /  F ield         | OpenFOAM: The Open Source CFD Toolbox
   \\    /   O peration     | Website:  https://openfoam.org
    \\  /    A nd           | Version:  12
     \\/     M anipulation  |
\*---------------------------------------------------------------------------*/
FoamFile
{
    format      ascii;
    class       volScalarField;
    location    "1300";
    object      p;
}
// * * * * * * * * * * * * * * * * * * * * * * * * * * * * * * * * * * * * * //

dimensions      [0 2 -2 0 0 0 0];

internalField   nonuniform List<scalar> 
7480
(
0.0087626357
0.0080237876
0.0069018544
0.0063267904
0.0060163957
0.0057336614
0.0054667311
0.0052388728
0.0050406471
0.0048617814
0.0046956493
0.0045400965
0.0043954954
0.0042566041
0.0041236989
0.0039952263
0.003871039
0.0037538205
0.0036446233
0.0035429123
0.003449408
0.0033649194
0.003290223
0.0032261153
0.0031729656
0.0031297097
0.0030962312
0.0030708678
0.0030492785
0.0030283526
0.0030055622
0.0029798087
0.0029510174
0.0029210599
0.0028908085
0.002859252
0.0028263865
0.0027920304
0.0027563559
0.0027203697
0.002684255
0.0026475498
0.002610474
0.0025733022
0.0025365564
0.0025000622
0.0024633288
0.0024263686
0.0023897278
0.0023534341
0.0023169149
0.0022801898
0.0022436292
0.0022072313
0.0021705679
0.002133696
0.0020968514
0.0020599548
0.0020227064
0.0019852947
0.0019477608
0.0019098871
0.0018717114
0.0018333077
0.0017945453
0.0017553998
0.0017159391
0.0016760499
0.0016357297
0.0015950058
0.0015537808
0.0015120765
0.0014698648
0.0014271211
0.00138384
0.0013399725
0.0012955226
0.0012504649
0.0012047863
0.0011584752
0.0011115215
0.0010639181
0.0010156626
0.00096675771
0.00091721462
0.00086705195
0.00081630854
0.00076502629
0.00071331369
0.0006612217
0.00060909804
0.00055679689
0.00050574641
0.00045411545
0.00040902052
0.00035773318
0.00033867056
0.00025827328
0.00055529479
-0.00045858609
0.008282683
0.0076191391
0.0067870161
0.0063261645
0.0060670643
0.0058163801
0.0055672739
0.0053449407
0.0051483785
0.0049660774
0.0047945832
0.0046327565
0.0044819943
0.0043373095
0.0041991959
0.0040666177
0.0039391447
0.0038177844
0.0037038599
0.0035980279
0.0035006724
0.0034122945
0.0033336058
0.0032652692
0.0032073092
0.0031584757
0.0031190184
0.0030880217
0.0030616562
0.0030371309
0.0030121719
0.0029855858
0.0029569063
0.0029276031
0.0028981011
0.0028670217
0.0028342985
0.0027998502
0.0027639896
0.002727816
0.0026915228
0.0026546386
0.0026173784
0.0025800031
0.0025430382
0.0025063147
0.0024693507
0.0024321631
0.0023952985
0.0023587817
0.0023220403
0.0022850992
0.0022483304
0.0022117312
0.002174872
0.0021378119
0.0021007872
0.0020637174
0.0020263026
0.0019887327
0.001951047
0.0019130278
0.0018747134
0.0018361773
0.0017972882
0.0017580218
0.0017184457
0.0016784462
0.0016380208
0.0015971965
0.0015558756
0.00151408
0.0014717811
0.0014289542
0.0013855937
0.0013416505
0.0012971284
0.0012520018
0.0012062574
0.0011598836
0.0011128699
0.0010652094
0.0010168993
0.0009679424
0.00091834961
0.0008681395
0.00081735081
0.00076602534
0.00071427152
0.0006621402
0.00060997916
0.00055764229
0.00050655834
0.00045489496
0.00040977164
0.00035845543
0.00033935426
0.00025906034
0.0005561353
-0.00045792762
0.0080001861
0.007527688
0.0068508843
0.0063751334
0.0060736394
0.0057960115
0.0055294668
0.0052948178
0.0050907573
0.0049049103
0.0047331391
0.004573893
0.0044257047
0.0042859889
0.0041533656
0.0040269752
0.0039062772
0.0037915597
0.0036843009
0.003585608
0.0034956832
0.0034148428
0.0033435742
0.0032822851
0.0032309006
0.0031883187
0.0031529343
0.0031230209
0.0030960798
0.0030693745
0.0030410115
0.0030102219
0.0029767905
0.0029427828
0.0029093666
0.0028754924
0.0028410314
0.0028057494
0.0027697144
0.0027337603
0.0026977547
0.0026609986
0.0026236785
0.0025861214
0.002548935
0.0025119848
0.0024748038
0.0024374157
0.0024003633
0.0023636608
0.0023267352
0.0022896195
0.002252686
0.0022159274
0.0021789105
0.0021416979
0.0021045268
0.0020673149
0.0020297609
0.0019920578
0.0019542436
0.0019160995
0.0018776653
0.0018390141
0.0018000137
0.0017606402
0.0017209613
0.0016808625
0.0016403417
0.0015994258
0.0015580167
0.0015161363
0.001473756
0.0014308511
0.0013874156
0.0013434004
0.0012988092
0.0012536163
0.0012078083
0.0011613735
0.0011143013
0.0010665846
0.0010182207
0.00096921208
0.00091956976
0.00086931216
0.00081847794
0.00076710883
0.0007153132
0.00066314182
0.00061094254
0.00055856891
0.00050745044
0.00045575309
0.00041060052
0.00035925095
0.00034013181
0.0002599215
0.00055702219
-0.00045727666
0.0077561694
0.0073644487
0.0067699542
0.0063180049
0.0060251119
0.0057669859
0.0055201371
0.005301554
0.0051092998
0.0049323399
0.0047666299
0.0046116919
0.0044642777
0.004325364
0.0041921768
0.0040643753
0.0039416232
0.0038242338
0.003713754
0.0036112962
0.0035171171
0.0034316518
0.0033555468
0.0032894981
0.0032339162
0.0031884053
0.0031508436
0.0031196976
0.0030935633
0.0030693955
0.0030448202
0.0030185389
0.0029901442
0.0029597721
0.0029276659
0.0028938772
0.002858305
0.0028209156
0.0027821415
0.0027434785
0.002705329
0.0026671774
0.0026291087
0.0025913047
0.0025541874
0.0025173714
0.0024802227
0.0024427495
0.0024055541
0.0023686809
0.0023315725
0.0022942841
0.0022571867
0.0022202653
0.0021830853
0.0021457172
0.0021083989
0.0020710442
0.0020333494
0.0019955117
0.0019575676
0.0019192973
0.0018807418
0.0018419739
0.00180286
0.0017633771
0.0017235929
0.0016833921
0.0016427731
0.0016017627
0.0015602621
0.001518294
0.0014758291
0.0014328427
0.0013893289
0.0013452383
0.0013005748
0.0012553122
0.0012094373
0.0011629383
0.0011158044
0.0010680285
0.0010196077
0.00097054457
0.00092084988
0.00087054202
0.0008196596
0.00076824425
0.00071640431
0.00066419042
0.00061195049
0.00055953777
0.00050838233
0.00045664874
0.00041146382
0.00036007795
0.00034094203
0.00026067816
0.00055789715
-0.00045669099
0.0075330582
0.007195767
0.0066895129
0.0062867898
0.0060080346
0.0057596967
0.0055179536
0.0053006649
0.0051067212
0.0049275543
0.0047596359
0.0046025505
0.0044539741
0.0043144659
0.0041813184
0.0040541441
0.003932614
0.0038169476
0.0037084145
0.0036079623
0.0035158856
0.0034326086
0.003358647
0.0032945032
0.0032403939
0.0031956896
0.003158177
0.0031263629
0.0030987707
0.0030724342
0.00304534
0.0030167989
0.0029871917
0.0029561674
0.0029241792
0.0028920826
0.0028593005
0.0028254423
0.0027903842
0.0027541946
0.0027169751
0.0026788449
0.0026398832
0.0026005117
0.0025617149
0.0025235231
0.0024854627
0.0024474836
0.0024101311
0.0023732794
0.0023361804
0.0022988421
0.0022616541
0.0022246152
0.0021873014
0.0021498028
0.0021123571
0.0020748731
0.0020370469
0.001999084
0.0019610183
0.0019226278
0.0018839561
0.0018450757
0.0018058516
0.0017662618
0.0017263743
0.0016860724
0.0016453555
0.0016042504
0.0015626577
0.0015206005
0.0014780493
0.0014349795
0.0013913851
0.0013472165
0.0013024777
0.0012571425
0.0012111976
0.001164631
0.0011174321
0.0010695935
0.0010211123
0.00097199105
0.00092224044
0.00087187879
0.00082094464
0.00076947956
0.00071759183
0.000665332
0.00061304797
0.0005605928
0.00050939682
0.00045762375
0.00041240205
0.00036097651
0.00034181626
0.00026146106
0.0005588015
-0.00045600011
0.0073341009
0.007046808
0.0066158254
0.0062520998
0.0059812105
0.0057381304
0.0055033621
0.0052909034
0.0051002207
0.0049241231
0.0047591516
0.0046047077
0.0044587316
0.0043211205
0.0041897173
0.0040640409
0.0039438399
0.0038293149
0.0037215547
0.0036214557
0.0035294132
0.0034459231
0.0033714558
0.0033064322
0.0032510298
0.0032047075
0.0031656026
0.0031322691
0.0031032811
0.0030759648
0.0030484154
0.0030198906
0.0029903164
0.0029590785
0.002926611
0.0028935952
0.0028595047
0.002824433
0.0027886757
0.0027521034
0.002715261
0.0026786842
0.0026421227
0.0026054401
0.002568508
0.0025311424
0.0024932724
0.0024547662
0.0024164618
0.0023786723
0.0023408394
0.0023030079
0.0022655946
0.0022285037
0.0021911663
0.0021536253
0.0021161165
0.0020785508
0.0020406308
0.0020025759
0.0019644155
0.0019259258
0.0018871558
0.0018481789
0.0018088584
0.0017691738
0.0017291936
0.0016887999
0.0016479933
0.0016068007
0.0015651218
0.0015229808
0.0014803476
0.0014371979
0.0013935258
0.0013492815
0.0013044691
0.0012590625
0.0012130482
0.0011664144
0.0011191502
0.0010712486
0.0010227064
0.00097352615
0.00092371852
0.00087330179
0.00082231446
0.00077079805
0.0007188608
0.00066655321
0.00061422312
0.0005617235
0.00051048461
0.00045866992
0.00041340798
0.00036194018
0.00034274935
0.00026230308
0.00055971354
-0.00045515312
0.0071546266
0.0069114122
0.0065433949
0.0062130187
0.0059513355
0.005715253
0.0054886966
0.0052817676
0.0050946093
0.0049211972
0.0047584581
0.0046056729
0.0044610685
0.0043243276
0.0041937879
0.00406891
0.0039495144
0.0038357965
0.0037287087
0.0036291132
0.0035374388
0.0034541479
0.0033796818
0.0033144334
0.0032585176
0.0032114849
0.0031716777
0.0031375644
0.0031077202
0.0030796946
0.0030516114
0.0030226103
0.0029925331
0.0029609278
0.0029282198
0.0028950142
0.0028609129
0.0028259873
0.0027902969
0.0027536264
0.0027164999
0.0026793565
0.0026421338
0.0026049424
0.0025675968
0.002530411
0.0024936473
0.0024570299
0.0024203761
0.0023834989
0.002346217
0.0023083748
0.0022705273
0.0022328936
0.0021950643
0.0021571594
0.0021194648
0.0020818341
0.0020438779
0.0020057872
0.0019675787
0.0019290284
0.0018901951
0.0018511522
0.0018117603
0.0017720019
0.0017319477
0.0016914785
0.0016505967
0.0016093293
0.0015675755
0.0015253607
0.0014826545
0.0014394328
0.0013956899
0.0013513759
0.0013064952
0.0012610215
0.0012149417
0.0011682439
0.0011209173
0.0010729548
0.0010243533
0.00097511538
0.0009252517
0.00087478055
0.0008237404
0.00077217278
0.00072018588
0.00066783018
0.00061545344
0.00056290865
0.00051162565
0.00045976834
0.00041446355
0.00036295181
0.00034372572
0.00026318437
0.00056059675
-0.00045413868
0.006990467
0.0067841586
0.0064699845
0.0061711562
0.0059209011
0.0056927224
0.005474028
0.0052723458
0.0050884671
0.0049175524
0.0047568621
0.0046056604
0.0044624476
0.0043267811
0.0041973057
0.0040734524
0.0039550759
0.003842362
0.0037361407
0.003637219
0.0035460353
0.0034630307
0.0033886329
0.0033232041
0.0032668306
0.0032190742
0.003178408
0.0031433314
0.003112449
0.0030835189
0.0030547287
0.0030251749
0.0029946815
0.0029628505
0.0029300037
0.0028966685
0.0028624991
0.0028274961
0.0027916981
0.0027549784
0.0027178266
0.0026806538
0.0026434365
0.0026061925
0.0025687369
0.0025313722
0.0024942727
0.0024573664
0.0024202672
0.0023831098
0.0023463345
0.002309706
0.0022730428
0.0022361651
0.0021988781
0.0021611177
0.0021232536
0.0020853203
0.0020470562
0.0020087382
0.0019704136
0.00193181
0.0018929465
0.001853874
0.0018144447
0.0017746444
0.0017345455
0.0016940258
0.0016530904
0.0016117673
0.0015699554
0.0015276817
0.0014849154
0.0014416335
0.0013978303
0.0013534557
0.001308515
0.0012629817
0.0012168428
0.0011700866
0.0011227025
0.0010746834
0.0010260263
0.00097673384
0.00092681678
0.00087629341
0.00082520226
0.00077358487
0.00072154942
0.00066914642
0.00061672346
0.00056413376
0.00051280633
0.0004609062
0.0004155566
0.00036399988
0.00034473427
0.00026408957
0.00056142164
-0.00045293629
0.0068395184
0.006663637
0.006395291
0.0061262494
0.0058889263
0.0056693611
0.005458527
0.005262248
0.0050818302
0.0049135473
0.004755011
0.0046055105
0.0044637792
0.0043292952
0.0042009335
0.0040781406
0.0039607944
0.0038490754
0.0037437094
0.003645446
0.003554731
0.0034719937
0.0033976455
0.0033320163
0.0032751659
0.0032266632
0.0031851157
0.0031490825
0.0031172022
0.0030873879
0.0030578974
0.0030278235
0.0029969425
0.0029648632
0.0029318282
0.0028983063
0.0028639919
0.0028288642
0.0027929822
0.0027562539
0.0027191092
0.0026819376
0.0026447185
0.0026074523
0.0025700021
0.0025326229
0.0024954725
0.0024584575
0.0024212342
0.0023839972
0.0023470796
0.0023102944
0.0022732775
0.0022361121
0.0021991462
0.0021622091
0.0021251459
0.0020877755
0.0020499348
0.0020117611
0.0019733757
0.0019345952
0.0018955454
0.0018563471
0.001816853
0.0017770217
0.0017369014
0.001696358
0.0016553963
0.0016140435
0.0015721969
0.0015298851
0.0014870772
0.0014437511
0.001399902
0.0013554797
0.0013104904
0.0012649076
0.0012187188
0.0011719124
0.001124478
0.0010764087
0.0010277017
0.0009783597
0.00092839359
0.00087782179
0.00082668288
0.00077501848
0.00072293679
0.00067048841
0.00061802072
0.0005653873
0.00051401594
0.00046207359
0.00041667779
0.00036507572
0.00034576652
0.00026500975
0.00056216118
-0.0004515171
0.006700242
0.0065493089
0.0063195721
0.0060780772
0.0058546178
0.0056444093
0.0054417282
0.0052512236
0.0050746071
0.0049091835
0.0047529512
0.0046052627
0.0044650675
0.0043318201
0.0042045893
0.0040828633
0.0039665394
0.0038557952
0.0037512698
0.0036536577
0.0035634079
0.0034809378
0.0034066397
0.0033408142
0.0032834973
0.0032342701
0.0031918641
0.0031548985
0.0031220433
0.003091353
0.0030611623
0.003030561
0.0029992731
0.0029669206
0.00293368
0.0028999602
0.0028654987
0.0028302618
0.0027943096
0.0027575639
0.0027204066
0.0026832063
0.002645949
0.0026086426
0.0025711794
0.0025337839
0.0024966099
0.0024595682
0.002422356
0.0023851293
0.0023481625
0.0023112597
0.0022741234
0.0022369023
0.0021998691
0.0021628102
0.0021254608
0.0020879343
0.0020504474
0.0020128353
0.0019749511
0.0019366186
0.0018978651
0.0018587741
0.001819229
0.0017792841
0.0017390627
0.0016984578
0.0016574672
0.0016160985
0.001574237
0.0015319096
0.0014890826
0.0014457335
0.0014018574
0.0013574043
0.0013123815
0.0012667626
0.0012205359
0.0011736901
0.0011262151
0.0010781042
0.0010293551
0.00097997043
0.00092996141
0.00087934659
0.0008281647
0.00077645748
0.00072433316
0.00067184251
0.00061933264
0.00056665769
0.0005152438
0.00046326065
0.00041781791
0.00036617075
0.00034681422
0.00026593662
0.00056278798
-0.00044984845
0.0065711366
0.0064407122
0.0062433249
0.0060269458
0.0058178117
0.0056175444
0.0054233004
0.0052389459
0.0050665056
0.0049042163
0.0047504828
0.0046047552
0.0044661901
0.0043342655
0.0042082179
0.0040875922
0.0039723055
0.0038625355
0.0037588501
0.0036618927
0.003572111
0.0034899104
0.0034156644
0.0033496471
0.0032918755
0.003241944
0.0031986945
0.0031608076
0.0031269891
0.003095425
0.0030645274
0.0030333851
0.0030016768
0.0029690368
0.0029355818
0.0029016621
0.0028670517
0.0028317042
0.0027956743
0.0027588985
0.002721719
0.0026844824
0.0026471873
0.0026098458
0.0025723653
0.0025349481
0.0024977398
0.002460661
0.0024234292
0.0023861767
0.0023491695
0.0023122331
0.0022751077
0.0022378974
0.0022008123
0.002163648
0.002126209
0.0020886504
0.002051138
0.0020133516
0.0019752329
0.0019369723
0.0018985539
0.0018598513
0.0018206822
0.0017810654
0.0017410344
0.0017004633
0.0016594218
0.0016179863
0.0015760773
0.0015337272
0.0014908893
0.0014475325
0.0014036481
0.0013591836
0.0013141458
0.0012685078
0.0012222584
0.0011753868
0.0011278835
0.0010797421
0.0010309607
0.00098154226
0.00093149833
0.00088084765
0.00082962915
0.00077788476
0.00072572279
0.00067319425
0.00062064594
0.00056793271
0.00051647865
0.00046445701
0.00041896727
0.00036727596
0.00034786877
0.00026686096
0.00056327445
-0.00044789389
0.0064509027
0.006337433
0.0061670896
0.0059733815
0.0057786287
0.0055886594
0.0054030407
0.0052251561
0.005057258
0.0048983991
0.0047473939
0.0046038146
0.0044670162
0.0043365339
0.0042117528
0.0040922844
0.0039780693
0.0038692886
0.0037664529
0.0036701594
0.0035808515
0.0034989239
0.0034247319
0.0033585267
0.0033003101
0.0032496909
0.0032056099
0.0031668119
0.0031320423
0.0030996084
0.0030679987
0.0030363049
0.0030041667
0.0029712262
0.0029375466
0.0029034218
0.0028686559
0.0028331917
0.0027970783
0.0027602663
0.0027230617
0.0026857883
0.0026484555
0.002611077
0.0025735743
0.0025361299
0.0024988798
0.0024617542
0.0024244951
0.0023872193
0.0023501751
0.0023132065
0.0022760668
0.00223883
0.002201699
0.0021645054
0.002127077
0.0020895203
0.0020519397
0.0020140646
0.0019759062
0.0019376425
0.0018991291
0.0018602325
0.0018210297
0.0017815948
0.0017418323
0.0017015702
0.0016608357
0.0016196117
0.0015777787
0.0015354167
0.0014925401
0.0014491536
0.0014052552
0.0013607856
0.0013157456
0.0012701045
0.0012238491
0.0011769679
0.0011294511
0.0010812928
0.0010324912
0.00098305013
0.00093298119
0.00088230359
0.00083105651
0.00077928217
0.00072708898
0.00067452826
0.00062194645
0.00056919934
0.00051770847
0.0004656516
0.00042011553
0.00036838175
0.00034892104
0.00026777265
0.00056357848
-0.00044561289
0.0063384516
0.0062390813
0.0060913333
0.0059179281
0.0057372986
0.0055577859
0.0053808867
0.0052097195
0.0050466906
0.0048915487
0.0047435078
0.0046022799
0.0044674069
0.0043385055
0.0042150943
0.0040968582
0.0039837658
0.0038760045
0.0037740398
0.0036784282
0.0035896072
0.0035079615
0.0034338304
0.0033674446
0.0033087949
0.0032575057
0.0032126076
0.0031729111
0.0031372045
0.0031039069
0.0030715816
0.0030393275
0.0030067504
0.0029734964
0.0029395809
0.0029052448
0.0028703165
0.0028347303
0.0027985294
0.002761676
0.0027244428
0.0026871307
0.0026497582
0.0026123407
0.0025748131
0.0025373393
0.002500046
0.0024628719
0.0024255836
0.0023882821
0.0023511951
0.0023141821
0.0022770111
0.0022397468
0.002202582
0.0021653636
0.0021279238
0.0020903415
0.0020527163
0.0020148263
0.00197668
0.0019383901
0.0018998081
0.0018608625
0.0018216651
0.0017821613
0.0017422406
0.0017019381
0.0016612965
0.0016202513
0.0015786867
0.0015365992
0.0014939169
0.0014506157
0.0014067262
0.0013622379
0.0013171833
0.001271537
0.0012252823
0.0011784029
0.0011308866
0.0010827259
0.0010339183
0.00098446752
0.00093438551
0.00088369178
0.00083242588
0.00078063038
0.00072841386
0.00067582805
0.00062321898
0.00057044358
0.00051892035
0.0004668325
0.00042125161
0.00036947773
0.00034996122
0.00026866154
0.00056365918
-0.00044296405
0.0062328611
0.0061452803
0.0060164224
0.005861086
0.0056940936
0.0055250361
0.00535687
0.0051925942
0.0050347101
0.004883545
0.0047386936
0.0046000187
0.0044672371
0.0043400626
0.0042181367
0.004101221
0.0039893153
0.0038826168
0.0037815561
0.0036866542
0.0035983418
0.0035169946
0.0034429375
0.0033763841
0.0033173175
0.0032653794
0.0032196819
0.0031791022
0.0031424744
0.003108321
0.0030752785
0.0030424565
0.0030094318
0.0029758517
0.0029416895
0.002907136
0.0028720388
0.0028363258
0.0028000331
0.0027631326
0.0027258666
0.0026885134
0.0026510993
0.0026136413
0.0025760862
0.0025385815
0.0025012443
0.0024640215
0.0024267018
0.002389372
0.0023522398
0.0023151792
0.0022779745
0.0022406817
0.0022034781
0.0021662222
0.0021287531
0.002091142
0.0020534874
0.0020155836
0.0019774256
0.0019391067
0.0019004979
0.0018615493
0.0018223447
0.0017827976
0.0017428352
0.0017025391
0.0016618232
0.0016206446
0.0015790518
0.00153702
0.001494482
0.0014514169
0.0014077665
0.0013634422
0.0013184618
0.0012728309
0.0012265719
0.0011796893
0.001132175
0.0010840191
0.0010352164
0.00098576838
0.00093568607
0.00088498848
0.00083371515
0.00078190889
0.00072967846
0.00067707605
0.00062444727
0.00057165037
0.00052010037
0.00046798684
0.00042236347
0.00037055266
0.00035097871
0.00026951552
0.00056347812
-0.00043989806
0.0061333442
0.0060556706
0.0059426321
0.0058032976
0.0056492947
0.0054905594
0.0053310712
0.0051737937
0.0050212778
0.0048743183
0.0047328635
0.0045969333
0.0044664077
0.0043411068
0.0042207865
0.0041052859
0.0039946397
0.0038890569
0.0037889421
0.003694786
0.0036070119
0.0035259874
0.0034520243
0.0033853223
0.00332586
0.0032732977
0.0032268225
0.0031853782
0.0031478469
0.0031128477
0.0030790884
0.0030456926
0.0030122125
0.002978295
0.0029438756
0.0029090986
0.0028738265
0.0028379818
0.0028015929
0.0027646396
0.0027273363
0.0026899396
0.0026524819
0.0026149819
0.0025773972
0.0025398597
0.0025024779
0.0024652057
0.0024278526
0.0023904925
0.0023533142
0.0023162053
0.002278966
0.0022416426
0.0022043968
0.0021670993
0.0021295983
0.0020919569
0.0020542671
0.0020163353
0.0019781506
0.0019398033
0.0019011769
0.0018622182
0.0018229971
0.0017834321
0.0017434589
0.0017031503
0.0016624102
0.0016212119
0.0015796042
0.0015374884
0.0014948608
0.0014517645
0.0014081556
0.001363983
0.0013192141
0.0012737787
0.0012276483
0.0011808251
0.0011333287
0.0010851771
0.0010363788
0.00098693766
0.00093686294
0.00088617179
0.00083490229
0.00078309653
0.00073086284
0.00067825366
0.00062561403
0.00057280364
0.00052123359
0.00046910071
0.00042343812
0.00037159427
0.00035196203
0.00027032064
0.00056299617
-0.00043635859
0.0060392274
0.0059699167
0.0058701601
0.0057449454
0.0056031764
0.0054545208
0.0053035947
0.0051533632
0.0050063893
0.0048638332
0.0047259626
0.0045929562
0.0044648451
0.0043415608
0.0042229666
0.0041089785
0.0039996689
0.0038952607
0.00379614
0.0037027721
0.0036155721
0.0035349004
0.0034610576
0.0033942317
0.0033344
0.0032812426
0.0032340152
0.0031917282
0.0031533139
0.0031174814
0.0030830079
0.003049034
0.0030150919
0.0029808267
0.0029461407
0.0029111344
0.0028756815
0.0028397002
0.0028032109
0.0027661993
0.0027288544
0.0026914116
0.0026539086
0.0026163652
0.0025787483
0.0025411764
0.002503749
0.0024664267
0.0024290384
0.0023916461
0.0023544211
0.0023172633
0.0022799876
0.0022426317
0.0022053425
0.0021680025
0.0021304686
0.0020927951
0.0020550662
0.0020171022
0.0019788885
0.0019405097
0.0019018569
0.0018628748
0.0018236283
0.0017840446
0.0017440606
0.0017037373
0.0016629921
0.0016217877
0.0015801603
0.0015380279
0.0014954018
0.0014522599
0.0014085603
0.0013643259
0.0013195393
0.0012741731
0.0012281929
0.0011815521
0.0011342109
0.0010861565
0.0010374035
0.0009879799
0.00093791449
0.00088723231
0.00083597228
0.00078417524
0.00073194796
0.00067934209
0.00062670128
0.00057388649
0.00052230419
0.00047015931
0.00042446167
0.00037258934
0.00035289878
0.0002710628
0.00056217112
-0.00043228944
0.0059499332
0.0058877095
0.0057991412
0.0056863536
0.0055559988
0.0054170913
0.005274558
0.0051313664
0.0049900613
0.0048520759
0.0047179576
0.0045880403
0.004462495
0.004341365
0.0042246151
0.0041122372
0.004004343
0.0039011718
0.0038030973
0.0037105637
0.0036239782
0.0035436943
0.0034700031
0.0034030832
0.003342913
0.0032891932
0.0032412434
0.0031981391
0.0031588647
0.003122214
0.0030870313
0.0030524771
0.0030180678
0.002983446
0.0029484845
0.0029132435
0.0028776044
0.0028414819
0.002804888
0.0027678128
0.0027304222
0.0026929309
0.0026553806
0.0026177923
0.0025801412
0.002542533
0.0025050592
0.0024676863
0.0024302609
0.0023928348
0.0023555625
0.002318355
0.0022810413
0.0022436512
0.0022063178
0.0021689344
0.0021313662
0.0020936588
0.0020558895
0.002017892
0.0019796483
0.0019412358
0.0019025523
0.0018635433
0.0018242682
0.0017846596
0.0017446546
0.0017043092
0.0016635474
0.0016223304
0.0015806909
0.0015385574
0.0014959314
0.0014527753
0.0014090638
0.001364806
0.001319961
0.0012745323
0.0012285098
0.0011818808
0.0011346267
0.0010867169
0.0010381176
0.00098881288
0.00093881712
0.00088816824
0.00083692463
0.00078513928
0.00073292267
0.00068032661
0.00062769269
0.00057488225
0.00052329595
0.00047114714
0.00042541947
0.00037352377
0.00035377584
0.00027172641
0.00056094485
-0.00042762992
0.0058649633
0.0058087668
0.0057296591
0.0056277927
0.0055080043
0.0053784431
0.005244086
0.0051078796
0.004972325
0.0048390468
0.0047088291
0.0045821524
0.0044593162
0.0043404722
0.0042256821
0.0041150108
0.0040086114
0.0039067415
0.0038097676
0.0037181171
0.0036321893
0.003552332
0.0034788276
0.0034118477
0.0033513737
0.0032971278
0.0032484887
0.003204596
0.0031644873
0.0031270359
0.0030911513
0.0030560165
0.0030211361
0.0029861501
0.0029509051
0.0029154245
0.0028795945
0.0028433264
0.002806624
0.0027694803
0.0027320399
0.0026944979
0.0026568986
0.002619264
0.0025815765
0.0025439305
0.0025064095
0.0024689855
0.0024315214
0.0023940598
0.0023567395
0.0023194816
0.0022821284
0.0022447027
0.0022073245
0.0021698966
0.0021322925
0.00209455
0.0020567394
0.0020187072
0.0019804321
0.0019419844
0.0019032689
0.0018642317
0.0018249266
0.0017852899
0.0017452603
0.0017048889
0.0016641041
0.0016228671
0.001581209
0.0015390616
0.0014964221
0.0014532581
0.0014095468
0.0013652864
0.0013204348
0.0012749895
0.0012289315
0.0011822524
0.0011349501
0.0010870214
0.0010384615
0.00098925875
0.0009393976
0.00088887266
0.00083771487
0.00078597708
0.00073378459
0.00068120314
0.0006285798
0.00057577885
0.0005241948
0.00047204931
0.00042629675
0.00037438287
0.00035457951
0.00027229434
0.00055926176
-0.00042231584
0.0057838864
0.0057328329
0.0056617587
0.0055694845
0.005459415
0.0053387461
0.0052123074
0.005082988
0.0049532224
0.0048247571
0.0046985675
0.0045752686
0.0044552756
0.0043388436
0.0042261251
0.0041172557
0.0040124307
0.0039119274
0.00381611
0.0037253929
0.0036401684
0.0035607787
0.0034874995
0.0034204969
0.0033597571
0.0033050243
0.0032557324
0.0032110832
0.0031701682
0.003131936
0.0030953594
0.0030596457
0.003024292
0.0029889354
0.0029534
0.0029176754
0.00288165
0.0028452324
0.002808418
0.0027712011
0.0027337072
0.0026961122
0.0026584624
0.0026207803
0.0025830546
0.0025453692
0.0025078004
0.0024703248
0.0024328205
0.002395322
0.002357953
0.002320644
0.0022832501
0.0022457875
0.0022083635
0.0021708903
0.002133249
0.0020954702
0.0020576174
0.0020195494
0.0019812416
0.0019427576
0.001904009
0.0018649424
0.0018256059
0.0017859398
0.0017458841
0.0017054851
0.001664675
0.0016234152
0.0015817341
0.0015395661
0.001496907
0.0014537277
0.0014100045
0.0013657342
0.0013208785
0.0012754312
0.0012293703
0.0011826828
0.0011353587
0.0010873928
0.001038789
0.00098955518
0.00093970326
0.00088924371
0.0008381947
0.00078657394
0.00073447403
0.00068195009
0.00062935661
0.0005765723
0.00052499397
0.00047285564
0.00042708125
0.00037515276
0.00035529631
0.0002727484
0.00055706724
-0.00041628231
0.0057063268
0.005659677
0.0055954547
0.0055116077
0.0054104315
0.0052981653
0.0051793527
0.0050567834
0.0049328047
0.0048092266
0.0046871713
0.0045673718
0.0044503465
0.0043364457
0.004225907
0.0041189332
0.0040157618
0.0039166914
0.0038220876
0.0037323555
0.0036478814
0.0035690026
0.0034959893
0.0034290039
0.003368039
0.0033128612
0.0032629555
0.0032175843
0.0031758935
0.0031369029
0.0030996462
0.0030633573
0.0030275295
0.0029917975
0.0029559657
0.0029199931
0.0028837686
0.0028471979
0.002810268
0.0027729738
0.0027354228
0.0026977729
0.0026600712
0.0026223406
0.0025845749
0.0025468489
0.0025092317
0.0024717042
0.0024341584
0.0023966215
0.0023592034
0.0023218428
0.002284407
0.002246906
0.0022094357
0.0021719163
0.0021342366
0.0020964204
0.0020585248
0.0020204196
0.001982078
0.0019435568
0.001904774
0.0018656769
0.0018263079
0.0017866112
0.0017465283
0.0017061004
0.0016652638
0.0016239798
0.0015822738
0.0015400831
0.0014974023
0.0014542031
0.0014104615
0.0013661744
0.0013213056
0.001275848
0.0012297807
0.00118309
0.0011357638
0.0010877937
0.0010391769
0.00098991676
0.00094002829
0.00088953519
0.00083847852
0.00078689588
0.00073487915
0.0006824586
0.00062995569
0.00057723299
0.00052568341
0.00047356119
0.00042776704
0.00037582393
0.00035591556
0.00027307095
0.00055430877
-0.00040946761
0.0056319563
0.0055890909
0.0055307395
0.0054543035
0.0053612324
0.0052568588
0.0051453521
0.0050293622
0.004911131
0.0047924833
0.0046746461
0.0045584514
0.004444507
0.0043332493
0.0042249942
0.0041200076
0.0040185685
0.0039209979
0.0038276661
0.0037389719
0.0036552965
0.0035769737
0.003504269
0.0034373432
0.0033761962
0.0033206172
0.0032701392
0.0032240831
0.0031816491
0.0031419244
0.0031040019
0.0030671436
0.0030308425
0.0029947314
0.0029585982
0.0029223743
0.0028859473
0.0028492202
0.002812172
0.0027747964
0.0027371851
0.0026994785
0.0026617237
0.0026239437
0.0025861366
0.0025483689
0.0025107029
0.0024731233
0.0024355348
0.0023979583
0.0023604907
0.0023230782
0.0022855992
0.0022480587
0.0022105414
0.0021729751
0.0021352558
0.0020974012
0.002059462
0.0020213187
0.0019829422
0.001944383
0.001905565
0.0018664362
0.0018270339
0.0017873057
0.0017471944
0.0017067367
0.0016658725
0.001624563
0.001582831
0.0015406164
0.0014979124
0.0014546914
0.0014109294
0.0013666227
0.001321736
0.0012762621
0.0012301809
0.001183479
0.001136145
0.0010881706
0.0010395514
0.00099028844
0.00094039186
0.00088988033
0.00083879441
0.00078717986
0.0007351465
0.00068274489
0.00063030216
0.00057766593
0.00052619482
0.00047413129
0.00042834088
0.00037638947
0.000356432
0.00027324824
0.00055094397
-0.00040182039
0.0055604865
0.0055208869
0.0054675897
0.0053976808
0.0053119743
0.0052149758
0.0051104339
0.0050008244
0.0048882668
0.0047745627
0.0046610043
0.0045485024
0.0044377399
0.0043292289
0.004223356
0.0041204454
0.0040208165
0.0039248132
0.0038328124
0.00374521
0.0036623833
0.0035846631
0.0035123119
0.0034454899
0.0033842057
0.0033282713
0.0032772649
0.0032305631
0.0031874205
0.0031469884
0.0031084164
0.0030709965
0.0030342243
0.0029977319
0.0029612933
0.0029248155
0.0028881831
0.0028512966
0.0028141272
0.0027766668
0.0027389921
0.0027012272
0.0026634184
0.0026255882
0.0025877385
0.002549928
0.0025122131
0.0024745814
0.0024369493
0.002399332
0.0023618146
0.0023243498
0.0022868267
0.0022492456
0.0022116807
0.002174067
0.002136307
0.002098413
0.0020604296
0.0020222472
0.0019838348
0.0019452369
0.0019063827
0.0018672213
0.0018277848
0.001788024
0.0017478835
0.0017073951
0.0016665022
0.0016251664
0.0015834073
0.0015411678
0.0014984395
0.0014551955
0.0014114118
0.001367084
0.0013221777
0.001276685
0.0012305864
0.0011838686
0.0011365207
0.0010885345
0.0010399065
0.00099063792
0.00094073823
0.00089022407
0.00083913229
0.00078750411
0.0007354469
0.00068301575
0.00063055084
0.00057791932
0.00052648463
0.00047448766
0.00042873871
0.00037681212
0.000356831
0.00027326368
0.00054695877
-0.00039331304
0.0054916639
0.0054548956
0.0054059704
0.0053418219
0.0052627929
0.0051726555
0.0050747229
0.004971271
0.0048642832
0.0047555067
0.0046462649
0.0045375257
0.0044300328
0.0043243626
0.0042209643
0.0041202153
0.0040224731
0.0039281042
0.0038374945
0.0037510387
0.0036691119
0.0035920426
0.0035200914
0.0034534196
0.0033920452
0.0033358031
0.0032843138
0.0032370079
0.0031931933
0.0031520821
0.0031128794
0.0030749075
0.0030376682
0.0030007938
0.0029640468
0.0029273127
0.0028904725
0.0028534241
0.0028161311
0.0027785825
0.0027408417
0.002703017
0.0026651532
0.0026272724