/*--------------------------------*- C++ -*----------------------------------*\
  =========                 |
  \\      /  F ield         | OpenFOAM: The Open Source CFD Toolbox
   \\    /   O peration     | Website:  https://openfoam.org
    \\  /    A nd           | Version:  12
     \\/     M anipulation  |
\*---------------------------------------------------------------------------*/
FoamFile
{
    format      ascii;
    class       surfaceScalarField;
    location    "1300";
    object      phi;
}
// * * * * * * * * * * * * * * * * * * * * * * * * * * * * * * * * * * * * * //

dimensions      [0 3 -1 0 0 0 0];

internalField   nonuniform List<scalar> 
14782
(
0.00078667061
7.065158e-06
-0.00079373576
0.00077716135
9.5092543e-06
0.00076672563
1.0435723e-05
0.00075603083
1.06948e-05
0.00074519483
1.0835998e-05
0.00073431654
1.0878285e-05
0.00072347213
1.0844411e-05
0.00071270994
1.0762192e-05
0.000702056
1.0653936e-05
0.00069153476
1.0521245e-05
0.00068116586
1.0368896e-05
0.00067096712
1.0198742e-05
0.00066096231
1.0004809e-05
0.00065117255
9.789761e-06
0.00064162991
9.5426453e-06
0.00063237688
9.253022e-06
0.0006234752
8.90168e-06
0.00061499445
8.4807579e-06
0.00060699387
8.0005778e-06
0.00059952424
7.469632e-06
0.00059263003
6.8942055e-06
0.0005863459
6.2841328e-06
0.00058069594
5.6499584e-06
0.00057568922
5.0067177e-06
0.00057130879
4.3804289e-06
0.00056750527
3.8035199e-06
0.00056420484
3.300439e-06
0.00056131497
2.8898633e-06
0.00055873159
2.583377e-06
0.00055635736
2.3742354e-06
0.00055411394
2.243416e-06
0.00055194809
2.1658506e-06
0.0005498275
2.1205899e-06
0.00054773638
2.0911182e-06
0.00054566661
2.069773e-06
0.00054360904
2.0575684e-06
0.00054155395
2.0550924e-06
0.00053949198
2.0619738e-06
0.00053741756
2.0744212e-06
0.00053533237
2.0851856e-06
0.00053324346
2.0889119e-06
0.00053115915
2.0843082e-06
0.00052908657
2.0725851e-06
0.0005270295
2.0570643e-06
0.00052499029
2.0392068e-06
0.00052297079
2.0195018e-06
0.00052097264
1.9981518e-06
0.00051899719
1.9754524e-06
0.00051704588
1.9513123e-06
0.00051511982
1.9260522e-06
0.00051321902
1.9008027e-06
0.00051134313
1.8758923e-06
0.00050949215
1.8509772e-06
0.00050766632
1.8258326e-06
0.0005058652
1.8011147e-06
0.0005040882
1.7770094e-06
0.00050233491
1.7532813e-06
0.00050060505
1.7298649e-06
0.00049889786
1.707193e-06
0.00049721287
1.6849873e-06
0.00049554967
1.6631979e-06
0.00049390759
1.6420848e-06
0.00049228603
1.6215515e-06
0.00049068463
1.6014083e-06
0.00048910285
1.5817714e-06
0.0004875402
1.5626563e-06
0.00048599629
1.5439123e-06
0.0004844706
1.5256829e-06
0.00048296266
1.5079401e-06
0.00048147207
1.4905936e-06
0.00047999832
1.4737537e-06
0.00047854098
1.4573365e-06
0.00047709962
1.44136e-06
0.00047567381
1.4258131e-06
0.00047426316
1.4106504e-06
0.00047286725
1.3959087e-06
0.0004714857
1.3815425e-06
0.00047011815
1.3675594e-06
0.0004687642
1.3539429e-06
0.00046742352
1.340683e-06
0.00046609575
1.32777e-06
0.00046478055
1.3151947e-06
0.0004634776
1.3029502e-06
0.00046218657
1.291031e-06
0.00046090714
1.2794332e-06
0.00045963898
1.2681582e-06
0.00045838178
1.2572054e-06
0.00045713518
1.2465954e-06
0.00045589886
1.2363237e-06
0.00045467237
1.2264865e-06
0.00045345537
1.2170029e-06
0.00045224704
1.2083277e-06
0.00045104723
1.1998124e-06
0.00044985337
1.1938578e-06
0.00044866733
1.1860364e-06
0.00044747711
1.1902189e-06
0.00044629768
1.1794328e-06
0.00044504405
1.2536336e-06
0.00044398657
1.0574833e-06
1.5936562e-06
0.00082508999
6.7875692e-06
-0.0008248124
0.00082532637
9.2728746e-06
0.00082524334
1.0518751e-05
0.00082482637
1.1111765e-05
0.00082402076
1.1641614e-05
0.00082278634
1.2112699e-05
0.00082111437
1.2516383e-05
0.00081899653
1.288003e-05
0.00081642893
1.3221542e-05
0.0008134097
1.3540476e-05
0.00080994089
1.3837703e-05
0.00080602262
1.4117012e-05
0.00080166067
1.4366762e-05
0.00079685468
1.4595748e-05
0.00079160727
1.4790056e-05
0.00078591607
1.4944224e-05
0.0007797851
1.5032644e-05
0.00077325238
1.5013482e-05
0.00076637461
1.4878347e-05
0.00075920721
1.4637037e-05
0.00075181648
1.4284934e-05
0.00074428376
1.3816852e-05
0.00073670094
1.3232782e-05
0.00072916801
1.2539648e-05
0.00072179569
1.1752745e-05
0.00071470712
1.0892091e-05
0.00070802373
9.9838303e-06
0.00070182986
9.083727e-06
0.00069615509
8.2581519e-06
0.0006909794
7.5499235e-06
0.00068624632
6.9764965e-06
0.00068187848
6.5336902e-06
0.00067779366
6.2054089e-06
0.000673924
5.9607813e-06
0.00067022258
5.7711966e-06
0.00066665981
5.6203356e-06
0.0006632198
5.4950991e-06
0.00065989259
5.3891874e-06
0.00065666866
5.2983494e-06
0.00065353777
5.2160769e-06
0.0006504884
5.1382822e-06
0.00064750848
5.0642292e-06
0.00064458801
4.9930523e-06
0.00064172027
4.9247999e-06
0.00063890262
4.8568633e-06
0.00063613456
4.7875558e-06
0.00063341553
4.7171833e-06
0.00063074386
4.6471211e-06
0.00062811776
4.5774114e-06
0.00062553598
4.5078384e-06
0.00062299736
4.4394215e-06
0.00062050093
4.3723237e-06
0.00061804591
4.3059917e-06
0.00061563162
4.2401282e-06
0.0006132569
4.1758347e-06
0.00061092057
4.1133394e-06
0.00060862171
4.0521372e-06
0.00060635956
3.9920213e-06
0.0006041329
3.9338485e-06
0.00060194066
3.877226e-06
0.00059978198
3.8218746e-06
0.0005976559
3.768164e-06
0.00059556149
3.7159697e-06
0.00059349792
3.664978e-06
0.00059146432
3.6153733e-06
0.00058945979
3.5671798e-06
0.00058748358
3.5201204e-06
0.00058553486
3.4744107e-06
0.0005836128
3.4299967e-06
0.00058171669
3.3867061e-06
0.00057984573
3.3447059e-06
0.00057799922
3.3038506e-06
0.00057617643
3.2641539e-06
0.00057437666
3.2255834e-06
0.00057259926
3.1880489e-06
0.00057084357
3.151598e-06
0.00056910897
3.1161458e-06
0.00056739483
3.0816903e-06
0.00056570058
3.0481934e-06
0.00056402564
3.0156264e-06
0.00056236945
2.9839625e-06
0.00056073147
2.9531758e-06
0.00055911117
2.9232451e-06
0.00055750805
2.894153e-06
0.0005559216
2.8658862e-06
0.00055435131
2.8384403e-06
0.00055279671
2.8118151e-06
0.00055125726
2.7860362e-06
0.00054973246
2.761124e-06
0.00054822175
2.7371964e-06
0.00054672447
2.7142829e-06
0.00054523995
2.6928537e-06
0.00054376704
2.6727208e-06
0.00054230478
2.6561163e-06
0.00054085031
2.6405084e-06
0.00053940123
2.6392987e-06
0.00053794591
2.6347515e-06
0.00053649428
2.7052677e-06
0.00053492208
2.6296808e-06
3.0939515e-06
0.00085287024
6.4952023e-06
-0.00085257787
0.0008533082
8.8349078e-06
0.00085368349
1.0143469e-05
0.00085397579
1.0819463e-05
0.00085422436
1.1393044e-05
0.00085442086
1.1916192e-05
0.00085457356
1.2363682e-05
0.00085468561
1.2767986e-05
0.00085475646
1.3150691e-05
0.00085478048
1.351646e-05
0.00085475204
1.386614e-05
0.00085466256
1.4206492e-05
0.00085450177
1.452755e-05
0.00085425568
1.4841843e-05
0.00085390602
1.5139712e-05
0.00085342981
1.5420431e-05
0.00085278495
1.5677501e-05
0.00085189581
1.5902624e-05
0.00085068099
1.6093164e-05
0.00084906853
1.6249501e-05
0.00084698287
1.6370594e-05
0.00084434355
1.6456169e-05
0.00084106989
1.6506446e-05
0.00083708672
1.6522814e-05
0.00083233344
1.6506027e-05
0.00082676697
1.6458566e-05
0.00082042079
1.6330003e-05
0.00081342094
1.6083585e-05
0.00080594669
1.57324e-05
0.00079822717
1.5269438e-05
0.00079050651
1.4697158e-05
0.00078300935
1.4030852e-05
0.00077591767
1.3297091e-05
0.00076934783
1.2530624e-05
0.0007633255
1.1793524e-05
0.00075780133
1.1144504e-05
0.00075269067
1.0605762e-05
0.00074790169
1.0178161e-05
0.0007433572
9.842844e-06
0.00073900607
9.5672039e-06
0.00073481936
9.3249916e-06
0.00073078092
9.1026739e-06
0.00072687978
8.8941918e-06
0.00072310504
8.6995377e-06
0.00071944545
8.5164519e-06
0.00071588956
8.3434501e-06
0.00071242648
8.1802581e-06
0.00070904707
8.0265367e-06
0.00070574506
7.8794189e-06
0.0007025166
7.7362958e-06
0.00069935838
7.5976414e-06
0.00069626694
7.4637642e-06
0.00069323893
7.3340078e-06
0.00069027149
7.2075592e-06
0.00068736204
7.0852902e-06
0.00068450829
6.9670913e-06
0.0006817083
6.8521293e-06
0.00067896028
6.7400347e-06
0.00067626223
6.6319002e-06
0.00067361235
6.5271068e-06
0.0006710091
6.4251199e-06
0.0006684509
6.3263661e-06
0.00066593622
6.2306559e-06
0.00066346368
6.1375094e-06
0.00066103194
6.0471193e-06
0.00065863963
5.959485e-06
0.00065628557
5.8741876e-06
0.00065396851
5.7914691e-06
0.00065168728
5.7112259e-06
0.00064944079
5.6331908e-06
0.00064722795
5.557554e-06
0.00064504769
5.4841015e-06
0.00064289902
5.4128241e-06
0.00064078095
5.3436552e-06
0.00063869255
5.2764511e-06
0.0006366329
5.2112529e-06
0.00063460111
5.1479303e-06
0.00063259634
5.086459e-06
0.00063061776
5.0267707e-06
0.00062866458
4.9688095e-06
0.00062673602
4.9125224e-06
0.00062483134
4.8578592e-06
0.00062294981
4.8047769e-06
0.00062109072
4.7532388e-06
0.00061925339
4.703216e-06
0.00061743714
4.6546913e-06
0.00061564129
4.6076614e-06
0.00061386518
4.562148e-06
0.0006121081
4.5182038e-06
0.00061036936
4.4759419e-06
0.00060864808
4.4355629e-06
0.00060694352
4.3974119e-06
0.00060525411
4.3621253e-06
0.00060357928
4.330947e-06
0.0006019145
4.3052963e-06
0.00060026035
4.293439e-06
0.00059859567
4.2994394e-06
0.00059696513
4.3358096e-06
0.000595087
4.5078072e-06
4.6607991e-06
0.00088141597
6.2693082e-06
-0.00088119007
0.00088182946
8.4214156e-06
0.00088221839
9.7545408e-06
0.00088252319
1.0514661e-05
0.00088278301
1.1133221e-05
0.00088300615
1.1693053e-05
0.00088319887
1.2170966e-05
0.0008833692
1.2597657e-05
0.00088352309
1.2996796e-05
0.00088366248
1.3377075e-05
0.00088378886
1.3739755e-05
0.0008839052
1.4090151e-05
0.00088400985
1.4422907e-05
0.00088410483
1.474686e-05
0.00088418877
1.5055769e-05
0.00088426085
1.534835e-05
0.00088431884
1.5619511e-05
0.00088435866
1.5862803e-05
0.00088437503
1.6076795e-05
0.00088436155
1.6262982e-05
0.00088430949
1.6422661e-05
0.00088420696
1.6558695e-05
0.00088403823
1.6675172e-05
0.000883782
1.6779046e-05
0.00088340682
1.6881204e-05
0.00088286775
1.6997637e-05
0.00088206236
1.7135402e-05
0.00088084604
1.7299905e-05
0.00087907936
1.7499073e-05
0.00087662106
1.7727741e-05
0.00087334567
1.7972547e-05
0.00086916631
1.8210216e-05
0.00086404935
1.8414051e-05
0.00085807574
1.8504224e-05
0.000851451
1.8418265e-05
0.00084443352
1.8161986e-05
0.00083729789
1.7741395e-05
0.00083029442
1.7181629e-05
0.00082361542
1.6521846e-05
0.00081736508
1.5817537e-05
0.00081155164
1.5138438e-05
0.00080612116
1.4533156e-05
0.00080099699
1.4018356e-05
0.00079610988
1.358665e-05
0.00079141396
1.3212375e-05
0.00078688445
1.287296e-05
0.00078250826
1.2556445e-05
0.00077827553
1.2259265e-05
0.00077417619
1.1978757e-05
0.00077019943
1.1713055e-05
0.00076633417
1.146291e-05
0.00076257058
1.1227348e-05
0.00075890118
1.1003412e-05
0.00075532051
1.0788224e-05
0.00075182384
1.0581965e-05
0.00074840664
1.0384293e-05
0.00074506476
1.019401e-05
0.00074179456
1.0010233e-05
0.00073859266
9.8337986e-06
0.00073545618
9.6635854e-06
0.00073238251
9.4987924e-06
0.00072936902
9.3398499e-06
0.0007264133
9.1863757e-06
0.00072351321
9.0376047e-06
0.00072066667
8.8936571e-06
0.00071787171
8.7544498e-06
0.00071512652
8.6193706e-06
0.00071242936
8.4886306e-06
0.00070977855
8.3620346e-06
0.00070717256
8.239187e-06
0.00070460985
8.1202644e-06
0.00070208899
8.004959e-06
0.0006996086
7.8932141e-06
0.00069716735
7.7849069e-06
0.00069476397
7.6798239e-06
0.00069239725
7.5779801e-06
0.00069006599
7.4791865e-06
0.00068776907
7.3833814e-06
0.00068550538
7.2904539e-06
0.00068327389
7.2003086e-06
0.00068107355
7.112856e-06
0.0006789034
7.028011e-06
0.00067676248
6.9456997e-06
0.00067464986
6.8658568e-06
0.00067256465
6.7884296e-06
0.00067050596
6.7133803e-06
0.00066847292
6.6406959e-06
0.00066646468
6.5703866e-06
0.00066448035
6.5025366e-06
0.00066251905
6.4372396e-06
0.00066057972
6.3748913e-06
0.00065866149
6.3156493e-06
0.00065676248
6.2611346e-06
0.00065488218
6.2112451e-06
0.00065301519
6.1722834e-06
0.00065116346
6.1451731e-06
0.00064930053
6.1623708e-06
0.00064749151
6.1448295e-06
0.00064535295
6.6463638e-06
6.3357732e-06
0.00091093339
6.0919645e-06
-0.00091075604
0.00091129357
8.061233e-06
0.0009116601
9.3880105e-06
0.00091196133
1.0213435e-05
0.00091221997
1.087458e-05
0.00091244996
1.1463056e-05
0.00091265324
1.1967691e-05
0.00091283595
1.2414947e-05
0.00091300258
1.2830161e-05
0.00091315623
1.3223425e-05
0.00091329866
1.3597329e-05
0.00091343191
1.3956901e-05
0.00091355555
1.4299266e-05
0.00091367205
1.4630359e-05
0.0009137814
1.4946416e-05
0.00091388439
1.5245361e-05
0.00091398088
1.5523025e-05
0.00091406961
1.5774073e-05
0.00091414941
1.5997e-05
0.00091421938
1.619301e-05
0.0009142784
1.6363639e-05
0.00091432481
1.6512281e-05
0.00091435652
1.664346e-05
0.00091437145
1.6764118e-05
0.00091436765
1.6885008e-05
0.00091434391
1.7021374e-05
0.0009142965
1.7182815e-05
0.00091421863
1.7377772e-05
0.00091410077
1.7616932e-05
0.00091392733
1.7901182e-05
0.00091367475
1.8225134e-05
0.00091330466
1.8580305e-05
0.00091275671
1.8961997e-05
0.00091190339
1.9357547e-05
0.00091056658
1.9755073e-05
0.0009085787
2.0149862e-05
0.00090579163
2.0528471e-05
0.0009021005
2.0872755e-05
0.00089748011
2.1142243e-05
0.00089203849
2.1259154e-05
0.00088599714
2.1179785e-05
0.00087962023
2.0910071e-05
0.00087317113
2.046745e-05
0.00086686796
1.9889827e-05
0.00086084281
1.9237518e-05
0.00085513276
1.8583017e-05
0.00084971227
1.7976928e-05
0.00084453099
1.7440544e-05
0.0008395443
1.6965454e-05
0.00083472442
1.6532937e-05
0.00083005676
1.6130563e-05
0.00082553264
1.5751469e-05
0.00082114408
1.539197e-05
0.00081688217
1.5050135e-05
0.00081273726
1.472688e-05
0.00080870054
1.4421015e-05
0.000804765
1.4129547e-05
0.00080092514
1.3850091e-05
0.00079717592
1.3583017e-05
0.00079351276
1.3326747e-05
0.00078993146
1.3080099e-05
0.00078642807
1.2843238e-05
0.00078299909
1.261536e-05
0.00077964138
1.2395307e-05
0.00077635198
1.2183062e-05
0.00077312806
1.197837e-05
0.0007699671
1.1780329e-05
0.00076686668
1.1589048e-05
0.00076382453
1.1404186e-05
0.00076083855
1.1225169e-05
0.0007579067
1.1052112e-05
0.00075502708
1.0884577e-05
0.00075219787
1.0722426e-05
0.00074941733
1.0565451e-05
0.00074668381
1.0413344e-05
0.00074399572
1.0266072e-05
0.00074135154
1.0123365e-05
0.00073874981
9.9851081e-06
0.00073618913
9.85113e-06
0.00073366816
9.721282e-06
0.00073118559
9.5954241e-06
0.00072874018
9.4734244e-06
0.00072633071
9.3551662e-06
0.00072395602
9.2405456e-06
0.00072161498
9.1294758e-06
0.00071930647
9.021889e-06
0.00071702941
8.9177547e-06
0.00071478273
8.8170633e-06
0.00071256534
8.7199257e-06
0.00071037618
8.6264061e-06
0.00070821397
8.5371037e-06
0.00070607766
8.4519565e-06
0.00070396515
8.3736479e-06
0.00070187584
8.3005475e-06
0.00069980378
8.2443501e-06
0.00069775161
8.1973415e-06
0.00069568921
8.2247695e-06
0.00069369693
8.1371126e-06
0.00069131017
9.0331153e-06
8.1386533e-06
0.00094144521
5.9503916e-06
-0.00094130363
0.00094175735
7.7490906e-06
0.0009420982
9.0471613e-06
0.00094239456
9.9170714e-06
0.00094265366
1.0615487e-05
0.00094288689
1.1229823e-05
0.00094309569
1.1758891e-05
0.00094328414
1.2226491e-05
0.0009434563
1.2658006e-05
0.00094361529
1.3064432e-05
0.00094376314
1.3449484e-05
0.000943902
1.3818038e-05
0.00094403223
1.4169036e-05
0.00094415572
1.4506869e-05
0.00094427286
1.4829278e-05
0.00094438421
1.5134015e-05
0.00094448971
1.5417516e-05
0.0009445886
1.5675186e-05
0.0009446801
1.5905505e-05
0.00094476345
1.6109662e-05
0.00094483777
1.6289312e-05
0.00094490258
1.6447469e-05
0.00094495742
1.6588622e-05
0.00094500172
1.6719821e-05
0.00094503546
1.6851263e-05
0.00094505954
1.69973e-05
0.00094507428
1.7168075e-05
0.00094508013
1.7371921e-05
0.00094507809
1.7618969e-05
0.00094506802
1.7911251e-05
0.00094504854
1.8244616e-05
0.00094501672
1.861212e-05
0.00094496879
1.9009926e-05
0.00094489656
1.9429786e-05
0.00094478528
1.9866346e-05
0.00094461455
2.0320596e-05
0.00094435432
2.0788702e-05
0.00094395922
2.1267855e-05
0.00094334707
2.1754395e-05
0.00094237038
2.2235837e-05
0.0009408494
2.2700771e-05
0.00093861973
2.313974e-05
0.0009355512
2.3535983e-05
0.00093158956
2.385146e-05
0.00092681319
2.4013886e-05
0.00092141447
2.3981738e-05
0.00091563373
2.3757667e-05
0.00090971761
2.3356672e-05
0.00090386429
2.2818774e-05
0.00089818604
2.2211178e-05
0.00089271575
2.1600858e-05
0.0008874398
2.1027413e-05
0.00088233186
2.0499918e-05
0.00087737197
2.0010026e-05
0.00087254952
1.9549328e-05
0.00086785904
1.9111489e-05
0.00086329562
1.8692966e-05
0.00085885297
1.8292742e-05
0.00085452373
1.7912256e-05
0.00085030126
1.7549221e-05
0.0008461801
1.7201257e-05
0.00084215546
1.6867881e-05
0.00083822288
1.6547934e-05
0.00083437822
1.6239967e-05
0.00083061754
1.5943746e-05
0.00082693722
1.5658693e-05
0.00082333401
1.5383532e-05
0.00081980483
1.5118237e-05
0.00081634674
1.4862269e-05
0.00081295709
1.4614822e-05
0.0008096333
1.4375905e-05
0.00080637296
1.4144911e-05
0.0008031738
1.392159e-05
0.00080003363
1.3705619e-05
0.00079695041
1.3496567e-05
0.00079392215
1.3294328e-05
0.00079094698
1.3098537e-05
0.00078802309
1.2909e-05
0.00078514875
1.2725472e-05
0.00078232229
1.2547734e-05
0.00077954214
1.2375582e-05
0.00077680673
1.2208825e-05
0.00077411461
1.2047292e-05
0.00077146433
1.1890828e-05
0.0007688545
1.1739302e-05
0.00076628378
1.1592607e-05
0.00076375085
1.1450687e-05
0.00076125441
1.1313502e-05
0.00075879315
1.1181186e-05
0.00075636579
1.1053763e-05
0.00075397086
1.0932039e-05
0.0007516071
1.0815713e-05
0.00074927218
1.0708571e-05
0.00074696537
1.0607354e-05
0.00074468026
1.052946e-05
0.00074241995
1.0457657e-05
0.00074015128
1.0493432e-05
0.00073796764
1.0320757e-05
0.00073533224
1.1668516e-05
1.008401e-05
0.00097298435
5.8340201e-06
-0.00097286798
0.00097325664
7.4768063e-06
0.00097357033
8.7334711e-06
0.00097385733
9.6300653e-06
0.0009741148
1.0358015e-05
0.00097434969
1.0994933e-05
0.00097456254
1.1546048e-05
0.00097475581
1.2033216e-05
0.00097493303
1.2480789e-05
0.00097509706
1.2900396e-05
0.00097524993
1.3296619e-05
0.0009753936
1.3674369e-05
0.00097552877
1.4033864e-05
0.000975657
1.4378638e-05
0.0009757789
1.470738e-05
0.00097589493
1.5017981e-05
0.00097600509
1.5307358e-05
0.00097610872
1.5571554e-05
0.00097620515
1.5809078e-05
0.00097629384
1.6020973e-05
0.0009763742
1.620895e-05
0.00097644575
1.6375921e-05
0.00097650806
1.6526309e-05
0.00097656089
1.6666987e-05
0.00097660433
1.6807831e-05
0.00097663945
1.6962177e-05
0.00097666745
1.7140076e-05
0.00097668951
1.7349856e-05
0.00097670752
1.7600966e-05
0.00097672275
1.7896018e-05
0.00097673575
1.8231612e-05
0.00097674638
1.8601498e-05
0.00097675438
1.9001924e-05
0.00097675843
1.9425735e-05
0.00097675644
1.986834e-05
0.00097674605
2.0330978e-05
0.00097672361
2.0811142e-05
0.00097668439
2.1307073e-05
0.00097662154
2.1817246e-05
0.00097652146
2.2335918e-05
0.00097636227
2.2859963e-05
0.00097611272
2.3389287e-05
0.00097572632
2.3922386e-05
0.00097512048
2.44573e-05
0.00097415178
2.4982589e-05
0.00097264695
2.5486567e-05
0.00097044823
2.5956384e-05
0.0009674308
2.6374107e-05
0.00096357511
2.6674462e-05
0.00095899123
2.6795058e-05
0.00095386646
2.6725631e-05
0.00094842908
2.6464786e-05
0.00094289073
2.6038276e-05
0.00093739665
2.5504097e-05
0.00093201639
2.4929594e-05
0.00092676685
2.4361028e-05
0.00092164281
2.3817005e-05
0.00091663712
2.3298432e-05
0.00091174679
2.2802589e-05
0.00090697133
2.2324673e-05
0.00090230931
2.1863284e-05
0.00089775708
2.1420108e-05
0.00089331013
2.0994889e-05
0.00088896424
2.0585852e-05
0.00088471562
2.019237e-05
0.00088056063
1.9813683e-05
0.00087649578
1.9448373e-05
0.00087251764
1.9096377e-05
0.00086862296
1.8756956e-05
0.00086480871
1.8429066e-05
0.00086107198
1.8112634e-05
0.00085741
1.7806892e-05
0.00085382012
1.751147e-05
0.00085029982
1.722592e-05
0.0008468467
1.6949684e-05
0.00084345846
1.6682576e-05
0.00084013287
1.6424119e-05
0.00083686784
1.6174035e-05
0.00083366131
1.5931996e-05
0.00083051134
1.5697703e-05
0.00082741605
1.5470881e-05
0.0008243736
1.5251267e-05
0.00082138227
1.503863e-05
0.00081844034
1.4832755e-05
0.00081554618
1.4633459e-05
0.0008126982
1.444059e-05
0.00080989483
1.4254054e-05
0.00080713455
1.4073781e-05
0.00080441582
1.3899915e-05
0.00080173715
1.373244e-05
0.00079909682
1.3572363e-05
0.0007964934
1.3419136e-05
0.0007939243
1.3277667e-05
0.00079138865
1.3143011e-05
0.00078887962
1.3038483e-05
0.00078640062
1.2936659e-05
0.00078391579
1.2978268e-05
0.0007815305
1.2706048e-05
0.00077863957
1.4559438e-05
1.2184815e-05
0.0010055857
5.7362253e-06
-0.0010054879
0.0010058239
7.2385823e-06
0.0010061104
8.446989e-06
0.0010063845
9.3559307e-06
0.0010066376
1.0104918e-05
0.0010068723
1.0760205e-05
0.0010070878
1.1330615e-05
0.001007285
1.1835996e-05
0.0010074667
1.2299044e-05
0.0010076355
1.2731625e-05
0.0010077931
1.3138986e-05
0.0010079414
1.3526105e-05
0.0010080811
1.3894127e-05
0.0010082137
1.4246072e-05
0.0010083398
1.4581287e-05
0.0010084598
1.489793e-05
0.0010085738
1.5193343e-05
0.0010086813
1.5464134e-05
0.0010087815
1.570889e-05
0.0010088739
1.5928514e-05
0.0010089582
1.6124711e-05
0.0010090337
1.630034e-05
0.0010091003
1.6459759e-05
0.0010091576
1.6609637e-05
0.001009206
1.6759433e-05
0.0010092466
1.6921635e-05
0.0010092805
1.7106169e-05
0.0010093091
1.7321236e-05
0.0010093343
1.7575728e-05
0.0010093578
1.7872555e-05
0.0010093805
1.8208919e-05
0.0010094027
1.8579273e-05
0.0010094247
1.897995e-05
0.0010094459
1.9404509e-05
0.0010094657
1.9848595e-05
0.0010094835
2.0313125e-05
0.0010094986
2.0796042e-05
0.00100951
2.1295666e-05
0.0010095166
2.1810656e-05
0.0010095161
2.2336431e-05
0.0010095051
2.2870926e-05
0.0010094793
2.3415119e-05
0.0010094326
2.3969125e-05
0.0010093563
2.4533609e-05
0.0010092336
2.5105231e-05
0.001009038
2.5682168e-05
0.0010087304
2.6263974e-05
0.0010082537
2.685087e-05
0.0010074953
2.7432782e-05
0.0010062952
2.7995158e-05
0.0010044949
2.8525936e-05
0.001001952
2.9007682e-05
0.00099860818
2.938214e-05
0.00099452428
2.9587997e-05
0.00098984813
2.9605745e-05
0.00098478331
2.9425846e-05
0.00097953055
2.906976e-05
0.00097423705
2.8591928e-05
0.00096898456
2.8055083e-05
0.00096380605
2.7503187e-05
0.00095871148
2.6957851e-05
0.00095370537
2.6426219e-05
0.00094879266
2.5907601e-05
0.0009439774
2.5401113e-05
0.00093926083
2.4908937e-05
0.00093464195
2.443256e-05
0.00093011898
2.3971341e-05
0.00092568987
2.3525489e-05
0.00092135241
2.3094417e-05
0.00091710423
2.267725e-05
0.00091294276
2.2274107e-05
0.00090886545
2.1884197e-05
0.00090486978
2.1507144e-05
0.00090095322
2.1142471e-05
0.00089711335
2.0789559e-05
0.00089334774
2.0448188e-05
0.00088965405
2.0117806e-05
0.00088603001
1.9798081e-05
0.00088247338
1.9488618e-05
0.00087898203
1.9189054e-05
0.00087555386
1.8899051e-05
0.00087218684
1.8618286e-05
0.00086887901
1.8346467e-05
0.00086562844
1.8083324e-05
0.00086243327
1.7828623e-05
0.0008592917
1.7582162e-05
0.00085620194
1.7343815e-05
0.00085316225
1.7113473e-05
0.00085017087
1.6891295e-05
0.00084722609
1.6677218e-05
0.000844326
1.647245e-05
0.00084146894
1.6276197e-05
0.00083865212
1.6094494e-05
0.00083587444
1.5920689e-05
0.00083312876
1.5784157e-05
0.00083041868
1.5646739e-05
0.00082770577
1.5691184e-05
0.00082510697
1.5304846e-05
0.00082194989
1.7716514e-05
1.44537e-05
0.0010392826
5.6525925e-06
-0.001039199
0.0010394914
7.0297533e-06
0.0010397521
8.1863133e-06
0.0010400116
9.0964523e-06
0.0010402579
9.8586269e-06
0.0010404903
1.0527754e-05
0.0010407066
1.111435e-05
0.0010409065
1.1636071e-05
0.001041092
1.2113603e-05
0.0010412649
1.2558675e-05
0.0010414269
1.2976964e-05
0.0010415796
1.3373473e-05
0.0010417237
1.3750018e-05
0.0010418604
1.4109298e-05
0.0010419906
1.445114e-05
0.0010421145
1.4774011e-05
0.0010422322
1.507564e-05
0.0010423432
1.5353136e-05
0.0010424469
1.5605203e-05
0.0010425428
1.5832628e-05
0.0010426304
1.6037088e-05
0.0010427094
1.6221386e-05
0.0010427793
1.6389806e-05
0.0010428401
1.6548813e-05
0.0010428921
1.6707434e-05
0.0010429364
1.6877389e-05
0.0010429741
1.7068426e-05
0.0010430068
1.72886e-05
0.0010430362
1.7546296e-05
0.0010430641
1.7844659e-05
0.0010430915
1.8181458e-05
0.0010431191
1.8551763e-05
0.001043147
1.8952032e-05
0.001043175
1.9376453e-05
0.0010432028
1.9820845e-05
0.0010432302
2.0285731e-05
0.0010432569
2.0769331e-05
0.0010432826
2.1269954e-05
0.001043307
2.1786268e-05
0.0010433292
2.2314203e-05
0.0010433483
2.285189e-05
0.001043363
2.3400385e-05
0.001043372
2.3960088e-05
0.0010433738
2.4531836e-05
0.0010433654
2.5113622e-05
0.0010433425
2.5705091e-05
0.0010432988
2.6307611e-05
0.0010432266
2.6923098e-05
0.0010431112
2.7548198e-05
0.0010429271
2.8179276e-05
0.0010426366
2.8816446e-05
0.0010421853
2.945893e-05
0.0010414707
3.0096782e-05
0.0010403445
3.0714184e-05
0.0010386526
3.1297681e-05
0.0010362562
3.1822165e-05
0.0010330961
3.2229851e-05
0.0010292206
3.2467519e-05
0.0010247628
3.2512856e-05
0.0010199102
3.2355749e-05
0.0010148449
3.2023134e-05
0.0010097
3.1571152e-05
0.0010045523
3.1055312e-05
0.00099943885
3.0514554e-05
0.00099437824
2.9969554e-05
0.00098938347
2.9427329e-05
0.00098446488
2.8889928e-05
0.00097962904
2.8361333e-05
0.00097487916
2.7844293e-05
0.00097021657
2.733984e-05
0.00096564151
2.6849162e-05
0.0009611536
2.6372116e-05
0.00095675181
2.5908927e-05
0.00095243475
2.545953e-05
0.00094820078
2.5023534e-05
0.00094404805
2.4600915e-05
0.00093997464
2.419122e-05
0.00093597852
2.3794201e-05
0.00093205764
2.3409497e-05
0.00092820993
2.3036763e-05
0.00092443332
2.267566e-05
0.00092072575
2.2325853e-05
0.00091708519
2.1987028e-05
0.00091350963
2.165889e-05
0.00090999707
2.1341176e-05
0.00090654558
2.1033654e-05
0.00090315322
2.0736178e-05
0.00089981808
2.0448614e-05
0.00089653823
2.017114e-05
0.00089331179
1.9903658e-05
0.00089013666
1.964758e-05
0.00088701099
1.9401872e-05
0.00088393178
1.9173705e-05
0.00088089775
1.8954715e-05
0.00087790146
1.8780449e-05
0.00087494665
1.860155e-05
0.00087199238
1.8645445e-05
0.00086916705
1.813018e-05
0.00086573078
2.1152781e-05
1.6903459e-05
0.0010741079
5.5795804e-06
-0.0010740349
0.001074292
6.8456282e-06
0.0010745293
7.9489939e-06
0.0010747739
8.8519051e-06
0.0010750119
9.6206416e-06
0.0010752403
1.0299338e-05
0.0010754557
1.0898921e-05
0.001075657
1.1434798e-05
0.0010758451
1.1925482e-05
0.0010760215
1.2382278e-05
0.0010761874
1.2811071e-05
0.001076344
1.3216813e-05
0.0010764923
1.3601784e-05
0.0010766331
1.3968468e-05
0.0010767672
1.4317049e-05
0.0010768949
1.4646301e-05
0.0010770162
1.4954305e-05
0.0010771308
1.5238619e-05
0.0010772379
1.5498083e-05
0.0010773371
1.5733395e-05
0.001077428
1.5946195e-05
0.0010775102
1.6139226e-05
0.0010775833
1.6316686e-05
0.0010776473
1.6484827e-05
0.0010777024
1.6652256e-05
0.0010777498
1.6829987e-05
0.0010777907
1.7027538e-05
0.0010778265
1.7252806e-05
0.0010778591
1.7513731e-05
0.0010778901
1.7813634e-05
0.0010779208
1.815082e-05
0.0010779516
1.852093e-05
0.001077983
1.8920592e-05
0.0010780149
1.9344541e-05
0.001078047
1.9788788e-05
0.0010780792
2.025351e-05
0.0010781115
2.0737097e-05
0.0010781436
2.1237851e-05
0.0010781754
2.1754422e-05
0.0010782065
2.2283118e-05
0.0010782363
2.2822122e-05
0.0010782643
2.3372378e-05
0.00107829
2.3934365e-05
0.0010783129
2.4508877e-05
0.0010783322
2.5094327e-05
0.0010783467
2.5690657e-05
0.0010783547
2.6299561e-05
0.0010783547
2.6923116e-05
0.0010783438
2.7559107e-05
0.0010783173
2.8205753e-05
0.0010782685
2.8865258e-05
0.0010781885
2.9538985e-05
0.0010780613
3.0223905e-05
0.0010778597
3.0915822e-05
0.0010775433
3.1614051e-05
0.0010770499
3.2315597e-05
0.0010762715
3.3008252e-05
0.0010750641
3.3674958e-05
0.0010732763
3.4300613e-05
0.0010707898
3.4842246e-05
0.0010675695
3.5243408e-05
0.0010636753
3.54654e-05
0.0010592486
3.5481946e-05
0.001054467
3.5296217e-05
0.0010494882
3.4948311e-05
0.0010444225
3.4493014e-05
0.0010393337
3.39788e-05
0.001034257
3.3438044e-05
0.0010292156
3.2885651e-05
0.0010242269
3.2328581e-05
0.0010193027
3.1773302e-05
0.0010144508
3.1224073e-05
0.0010096756
3.06841e-05
0.00100498
3.015511e-05
0.0010003656
2.963796e-05
0.00099583286
2.913364e-05
0.00099138168
2.86424e-05
0.00098701137
2.8164505e-05
0.00098272091
2.7699961e-05
0.00097850897
2.7248699e-05
0.00097437406
2.6810577e-05
0.00097031451
2.63854e-05
0.00096632858
2.5972956e-05
0.00096241445
2.5573018e-05
0.00095857026
2.5185371e-05
0.0009547941
2.4809814e-05
0.00095108405
2.444623e-05
0.00094743816
2.4094498e-05
0.00094385445
2.3754849e-05
0.00094033094
2.3427174e-05
0.00093686541
2.3113109e-05
0.00093345587
2.2811407e-05
0.0009300992
2.253038e-05
0.00092679393
2.2259979e-05
0.00092353238
2.2042003e-05
0.00092031842
2.1815512e-05
0.00091710868
2.1855189e-05
0.00091404296
2.1195895e-05
0.0009103129
2.4882838e-05
1.9547223e-05
0.0011100962
5.5144423e-06
-0.0011100311
0.0011102599
6.6820025e-06
0.0011104766
7.7322838e-06
0.0011107068
8.6216377e-06
0.001110936
9.3914993e-06
0.0011111593
1.0076004e-05
0.0011113727
1.0685565e-05
0.0011115741
1.1233362e-05
0.0011117639
1.1735693e-05
0.0011119429
1.2203246e-05
0.0011121121
1.2641933e-05
0.0011122723
1.3056578e-05
0.0011124243
1.3449764e-05
0.001112569
1.3823815e-05
0.0011127069
1.4179173e-05
0.0011128383
1.4514903e-05
0.0011129632
1.4829401e-05
0.0011130811
1.5120623e-05
0.0011131917
1.5387556e-05
0.0011132942
1.5630831e-05
0.0011133884
1.5852048e-05
0.0011134737
1.6053886e-05
0.00111355
1.6240443e-05
0.001113617
1.6417755e-05
0.0011136753
1.6594021e-05
0.0011137257
1.67796e-05
0.0011137695
1.6983737e-05
0.0011138081
1.7214165e-05
0.0011138434
1.7478426e-05
0.0011138771
1.7779978e-05
0.0011139103
1.8117618e-05
0.0011139437
1.8487534e-05
0.0011139777
1.8886554e-05
0.0011140123
1.9309906e-05
0.0011140473
1.9753802e-05
0.0011140827
2.0218134e-05
0.0011141184
2.0701405e-05
0.0011141543
2.120192e-05
0.0011141904
2.1718315e-05
0.0011142263
2.2247216e-05
0.0011142616
2.2786841e-05
0.001114296
2.3337982e-05
0.0011143293
2.3901117e-05
0.0011143612
2.4476966e-05
0.0011143913
2.5064192e-05
0.0011144192
2.5662806e-05
0.0011144442
2.6274502e-05
0.001114466
2.6901309e-05
0.0011144836
2.7541486e-05
0.0011144957
2.8193733e-05
0.0011145004
2.8860565e-05
0.0011144956
2.9543757e-05
0.001114478
3.0241531e-05
0.0011144419
3.0951876e-05
0.0011143795
3.1676491e-05
0.0011142793
3.2415781e-05
0.0011141213
3.3166247e-05
0.0011138726
3.3923664e-05
0.0011134861
3.4687072e-05
0.0011128808
3.5447607e-05
0.0011119346
3.6189585e-05
0.0011105031
3.689689e-05
0.0011084482
3.7536817e-05
0.0011056875
3.8056959e-05
0.0011022253
3.8410506e-05