/*--------------------------------*- C++ -*----------------------------------*\
  =========                 |
  \\      /  F ield         | OpenFOAM: The Open Source CFD Toolbox
   \\    /   O peration     | Website:  https://openfoam.org
    \\  /    A nd           | Version:  12
     \\/     M anipulation  |
\*---------------------------------------------------------------------------*/
FoamFile
{
    format      ascii;
    class       volScalarField;
    location    "1300";
    object      yPlus;
}
// * * * * * * * * * * * * * * * * * * * * * * * * * * * * * * * * * * * * * //

dimensions      [];

internalField   uniform 0;

boundaryField
{
    inlet
    {
        type            calculated;
        value           uniform 0;
    }
    top
    {
        type            calculated;
        value           uniform 0;
    }
    outlet
    {
        type            calculated;
        value           uniform 0;
    }
    slipsurface
    {
        type            calculated;
        value           uniform 0;
    }
    bottom
    {
        type            calculated;
        value           nonuniform List<scalar> 
100
(
116.34799
115.19925
113.92738
112.57746
111.19034
109.79409
108.399
107.00956
105.62997
104.26381
102.914
101.5829
100.27314
98.987639
97.7299
96.504562
95.318425
94.181405
93.10194
92.087422
91.144434
90.278539
89.493793
88.793022
88.176279
87.639287
87.17385
86.768879
86.411008
86.086466
85.783359
85.493034
85.21008
84.931584
84.656216
84.383004
84.110678
83.837853
83.563439
83.287145
83.009638
82.732079
82.455603
82.180927
81.908388
81.638217
81.370665
81.105958
80.844278
80.585793
80.330589
80.078641
79.82991
79.584417
79.342171
79.103103
78.867132
78.634223
78.404311
78.177319
77.953184
77.731841
77.513207
77.297215
77.083813
76.872936
76.664522
76.458517
76.254856
76.05348
75.854332
75.657352
75.462483
75.269668
75.078854
74.88999
74.703023
74.517905
74.334585
74.153018
73.973157
73.794957
73.618376
73.443369
73.269895
73.097912
72.927378
72.758248
72.590481
72.424017
72.25883
72.094779
71.931962
71.769821
71.609209
71.447419
71.289291
71.120597
70.98146
70.718661
)
;
    }
    frontandback
    {
        type            empty;
    }
}


// ************************************************************************* //
