#      distance             U_x             U_y             U_z wallShearStr... wallShearStr... wallShearStr...               p           omega               k             nut
              0       0.9994482               0               0               0               0               0    0.0046624547       103.68494   1.3851584e-05   1.3359299e-07
   0.0021021021      0.99943224               0               0               0               0               0    0.0046806476       103.68414   1.3837518e-05   1.3345836e-07
   0.0042042042      0.99941628               0               0               0               0               0    0.0046988405       103.68334   1.3823452e-05   1.3332374e-07
   0.0063063063      0.99940031               0               0               0               0               0    0.0047170335       103.68254   1.3809386e-05   1.3318911e-07
   0.0084084084      0.99938435               0               0               0               0               0    0.0047352264       103.68173    1.379532e-05   1.3305449e-07
    0.010510511      0.99936618               0               0               0               0               0    0.0047558468       103.68181    1.378238e-05   1.3292959e-07
    0.012612613      0.99934664               0               0               0               0               0     0.004777975       103.68242   1.3770139e-05   1.3281074e-07
    0.014714715       0.9993271               0               0               0               0               0    0.0048001031       103.68304   1.3757898e-05   1.3269189e-07
    0.016816817      0.99930756               0               0               0               0               0    0.0048222313       103.68366   1.3745657e-05   1.3257304e-07
    0.018918919      0.99928802               0               0               0               0               0    0.0048443594       103.68428   1.3733416e-05   1.3245419e-07
    0.021021021       0.9992679               0               0               0               0               0    0.0048671047       103.68509   1.3721363e-05   1.3233691e-07
    0.023123123      0.99924395               0               0               0               0               0    0.0048939989        103.6872   1.3710572e-05   1.3223015e-07
    0.025225225         0.99922               0               0               0               0               0    0.0049208931       103.68931   1.3699781e-05   1.3212339e-07
    0.027327327      0.99919605               0               0               0               0               0    0.0049477873       103.69143    1.368899e-05   1.3201663e-07
    0.029429429       0.9991721               0               0               0               0               0    0.0049746815       103.69354   1.3678199e-05   1.3190987e-07
    0.031531532      0.99914675               0               0               0               0               0    0.0050030637       103.69605   1.3667712e-05   1.3180554e-07
    0.033633634      0.99911731               0               0               0               0               0    0.0050357923       103.69972   1.3658114e-05   1.3170833e-07
    0.035735736      0.99908787               0               0               0               0               0    0.0050685208       103.70338   1.3648515e-05   1.3161112e-07
    0.037837838      0.99905843               0               0               0               0               0    0.0051012494       103.70705   1.3638916e-05   1.3151391e-07
     0.03993994        0.999029               0               0               0               0               0    0.0051339779       103.71071   1.3629318e-05    1.314167e-07
    0.042042042      0.99899324               0               0               0               0               0    0.0051733244       103.71582   1.3620644e-05   1.3132661e-07
    0.044144144      0.99895689               0               0               0               0               0    0.0052132912       103.72107   1.3612057e-05   1.3123718e-07
    0.046246246      0.99892054               0               0               0               0               0    0.0052532579       103.72631    1.360347e-05   1.3114776e-07
    0.048348348      0.99888387               0               0               0               0               0    0.0052935599       103.73162   1.3594915e-05   1.3105857e-07
     0.05045045      0.99883869               0               0               0               0               0    0.0053426637       103.73849   1.3587213e-05   1.3097566e-07
    0.052552553      0.99879351               0               0               0               0               0    0.0053917675       103.74535   1.3579511e-05   1.3089275e-07
    0.054654655      0.99874833               0               0               0               0               0    0.0054408713       103.75222   1.3571808e-05   1.3080984e-07
    0.056756757      0.99869665               0               0               0               0               0    0.0054965629          103.76   1.3564547e-05   1.3073005e-07
    0.058858859      0.99863985               0               0               0               0               0    0.0055574482       103.76849   1.3557633e-05   1.3065273e-07
    0.060960961      0.99858305               0               0               0               0               0    0.0056183334       103.77698   1.3550719e-05    1.305754e-07
    0.063063063      0.99851971               0               0               0               0               0    0.0056858875       103.78629   1.3544125e-05   1.3050016e-07
    0.065165165      0.99844752               0               0               0               0               0    0.0057624576       103.79668   1.3537962e-05   1.3042773e-07
    0.067267267      0.99837532               0               0               0               0               0    0.0058390277       103.80708     1.35318e-05   1.3035529e-07
    0.069369369      0.99828991               0               0               0               0               0     0.005928193       103.81805   1.3525983e-05   1.3028549e-07
    0.071471471      0.99819508               0               0               0               0               0    0.0060263385       103.82942   1.3520412e-05   1.3021756e-07
    0.073573574      0.99810024               0               0               0               0               0     0.006124484        103.8408   1.3514841e-05   1.3014963e-07
    0.075675676      0.99797582               0               0               0               0               0    0.0062543182       103.85777   1.3510367e-05    1.300853e-07
    0.077777778      0.99785107               0               0               0               0               0    0.0063845122       103.87481   1.3505906e-05   1.3002102e-07
     0.07987988      0.99768881               0               0               0               0               0    0.0065438151       103.88347   1.3500624e-05   1.2995932e-07
    0.081981982      0.99750132               0               0               0               0               0    0.0067226882       103.88649    1.349479e-05   1.2989937e-07
    0.084084084      0.99728999               0               0               0               0               0     0.006937168       103.91556   1.3492413e-05    1.298402e-07
    0.086186186       0.9970385               0               0               0               0               0    0.0072116269       103.98851   1.3495863e-05   1.2978234e-07
    0.088288288      0.99664758               0  -3.2479364e-22               0               0               0    0.0075259683       103.98803   1.3489423e-05   1.2972087e-07
     0.09039039      0.99589129               0  -1.5007265e-21               0               0               0     0.007944824       103.79511   1.3457068e-05   1.2964994e-07
    0.092492492      0.99516655               0   9.5397071e-18               0               0               0     0.008557166       108.37479   1.3627486e-05   1.2714982e-07
    0.094594595      0.99452499               0   4.4242839e-17               0               0               0    0.0096797039       125.53915   1.4332592e-05   1.1824429e-07
    0.096696697      0.90648632               0   6.7277134e-17   -0.0004607637  -3.0801834e-06               0     0.010453117       1403710.6   1.3623972e-05   1.0091869e-07
    0.098798799      0.64593486               0   6.7278363e-17   -0.0018310269  -1.2240328e-05               0     0.010537396       5577792.3   1.0124808e-05   6.6972716e-08
      0.1009009      0.38543221               0   5.2171022e-17   -0.0029016203  -1.7538418e-05   8.0173047e-20    0.0096916035       9751093.7   6.3027843e-06   3.6891675e-08
       0.103003      0.12499462               0   1.6918922e-17   -0.0035726538  -1.7687103e-05   2.6724349e-19    0.0076057169        13923355   2.0502829e-06   1.1963871e-08
     0.10510511               0               0               0   -0.0035253296  -1.3035889e-05   4.6346965e-19    0.0059451884        15925793   1.3250449e-08               0
     0.10720721               0               0               0   -0.0028150629  -3.9550502e-06   6.6814524e-19    0.0046772049        15925793   2.0781339e-08               0
     0.10930931               0               0               0   -0.0025183635  -2.0111358e-07   5.9619649e-19    0.0042382282        15925793   2.6610707e-08               0
     0.11141141               0               0               0   -0.0025018623  -5.6237981e-08   3.3683033e-19    0.0043609167        15925793   3.1287267e-08               0
     0.11351351               0               0               0   -0.0024881252  -7.3479782e-09   1.1559299e-19    0.0044855893        15925793   3.3370771e-08               0
     0.11561562               0               0               0   -0.0024758366  -8.7593238e-09  -8.5662904e-20    0.0046113016        15925793   3.4095381e-08               0
     0.11771772               0               0               0   -0.0024518298  -1.0692741e-08  -9.4349593e-20    0.0046220682        15925793   3.3797427e-08               0
     0.11981982               0               0               0   -0.0024227893  -1.2850421e-08  -2.0315927e-20    0.0045834585        15925793   3.3060219e-08               0
     0.12192192               0               0               0   -0.0023921827  -1.3348155e-08               0    0.0045048924        15925793   3.2175878e-08               0
     0.12402402               0               0               0    -0.002360984  -1.3218102e-08               0    0.0044112149        15925793   3.1235892e-08               0
     0.12612613               0               0               0   -0.0023322805   -1.258027e-08               0    0.0043368483        15925793   3.0385997e-08               0
     0.12822823               0               0               0   -0.0023044826  -1.1758132e-08               0    0.0042694907        15925793   2.9568801e-08               0
     0.13033033               0               0               0   -0.0022795798  -1.0953569e-08               0    0.0042214754        15925793   2.8842906e-08               0
     0.13243243               0               0               0   -0.0022557851  -1.0155734e-08               0    0.0041808645        15925793   2.8151961e-08               0
     0.13453453               0               0               0   -0.0022342289  -9.4758974e-09  -1.4527113e-19    0.0041437941        15925793   2.7527726e-08               0
     0.13663664               0               0               0    -0.002213663  -8.8482617e-09  -3.5480752e-19    0.0041082901        15925793   2.6933002e-08               0
     0.13873874               0               0               0    -0.002194722  -8.3079571e-09  -4.2953567e-19    0.0040729263        15925793   2.6388677e-08               0
     0.14084084               0               0               0   -0.0021766818  -7.8160626e-09  -4.2953571e-19    0.0040376402        15925793    2.587229e-08               0
     0.14294294               0               0               0   -0.0021598067  -7.3862281e-09  -4.0612457e-19    0.0040037651        15925793   2.5392864e-08               0
     0.14504505               0               0               0   -0.0021438012  -7.0027126e-09  -3.6524038e-19     0.003970943        15925793   2.4941024e-08               0
     0.14714715               0               0               0   -0.0021285433   -6.662901e-09  -2.7241438e-19    0.0039394781        15925793   2.4512016e-08               0
     0.14924925               0               0               0   -0.0021140942  -6.3703791e-09  -1.2338501e-19    0.0039094819        15925793   2.4107714e-08               0
     0.15135135               0               0               0    -0.002100088   -6.097463e-09   -1.953284e-20    0.0038802751        15925793   2.3716845e-08               0
     0.15345345               0               0               0   -0.0020868504   -5.858568e-09   5.9253284e-21    0.0038524382        15925793   2.3349286e-08               0
     0.15555556               0               0               0   -0.0020738574  -5.6260116e-09  -7.6051203e-21    0.0038250228        15925793   2.2989581e-08               0
     0.15765766               0               0               0   -0.0020616945  -5.4149541e-09  -1.5337753e-19    0.0037990373        15925793   2.2656512e-08               0
     0.15975976               0               0               0   -0.0020495952  -5.2053435e-09  -2.7347966e-19    0.0037731725        15925793   2.2325492e-08               0
     0.16186186               0               0               0   -0.0020384002  -5.0162938e-09  -2.8807779e-20    0.0037490238        15925793   2.2023585e-08               0
     0.16396396               0               0               0   -0.0020272053  -4.8272441e-09    2.158641e-19    0.0037248752        15925793   2.1721677e-08               0
     0.16606607               0               0               0   -0.0020167863  -4.6562977e-09   2.4550249e-19    0.0037023273        15925793   2.1444367e-08               0
     0.16816817               0               0               0   -0.0020064741  -4.4878464e-09   2.4550252e-19    0.0036800002        15925793   2.1170446e-08               0
     0.17027027               0               0               0   -0.0019966853  -4.3336941e-09   1.4118306e-19    0.0036586706        15925793    2.091276e-08               0
     0.17237237               0               0               0   -0.0019871587  -4.1867082e-09  -1.5419827e-20    0.0036378411        15925793   2.0663211e-08               0
     0.17447447               0               0               0   -0.0019779255  -4.0477463e-09  -1.0521166e-19    0.0036175725        15925793    2.042263e-08               0
     0.17657658               0               0               0   -0.0019690868  -3.9195685e-09  -1.0521167e-19    0.0035980578        15925793   2.0194103e-08               0
     0.17867868               0               0               0   -0.0019603457  -3.7938776e-09  -1.1060165e-19    0.0035787159        15925793   1.9968536e-08               0
     0.18078078               0               0               0   -0.0019521199  -3.6813069e-09  -1.4442712e-19    0.0035602855        15925793   1.9758583e-08               0
     0.18288288               0               0               0    -0.001943894  -3.5687361e-09  -1.7825258e-19    0.0035418551        15925793    1.954863e-08               0
     0.18498498               0               0               0   -0.0019361379  -3.4680645e-09  -1.1928081e-19     0.003524308        15925793    1.935275e-08               0
     0.18708709               0               0               0   -0.0019284561  -3.3692773e-09    -4.56127e-20    0.0035069009        15925793   1.9159098e-08               0
     0.18918919               0               0               0   -0.0019210346  -3.2765334e-09   3.0165279e-20    0.0034899583        15925793   1.8973168e-08               0
     0.19129129               0               0               0   -0.0019138371   -3.188992e-09   1.0775961e-19    0.0034734157        15925793   1.8793885e-08               0
     0.19339339               0               0               0    -0.001906719  -3.1030598e-09   1.5839576e-19    0.0034570226        15925793   1.8616939e-08               0
      0.1954955               0               0               0   -0.0018999608  -3.0244314e-09   8.6670558e-20     0.003441308        15925793     1.84506e-08               0
      0.1975976               0               0               0   -0.0018932027  -2.9458029e-09   1.4945354e-20    0.0034255934        15925793   1.8284261e-08               0
      0.1996997               0               0               0   -0.0018867625  -2.8731314e-09               0    0.0034106034        15925793   1.8127151e-08               0
      0.2018018               0               0               0    -0.001880406  -2.8020279e-09               0    0.0033958041        15925793    1.797247e-08               0
      0.2039039               0               0               0   -0.0018741859  -2.7335731e-09  -2.0240182e-20     0.003381182        15925793   1.7821701e-08               0
     0.20600601               0               0               0   -0.0018681984  -2.6696386e-09  -7.5022579e-20    0.0033668622        15925793   1.7677609e-08               0
     0.20810811               0               0               0    -0.001862211  -2.6057041e-09  -1.2980498e-19    0.0033525425        15925793   1.7533517e-08               0
     0.21021021               0               0               0   -0.0018565286  -2.5474538e-09  -1.3458129e-19     0.003338828        15925793   1.7398137e-08               0
     0.21231231               0               0               0   -0.0018508754  -2.4897464e-09  -1.3458131e-19    0.0033251712        15925793    1.726359e-08               0
     0.21441441               0               0               0   -0.0018453524  -2.4341261e-09  -1.1221457e-19    0.0033118646        15925793     1.71327e-08               0
     0.21651652               0               0               0   -0.0018400089  -2.3813833e-09   -5.901031e-20    0.0032990407        15925793   1.7006852e-08               0
     0.21861862               0               0               0   -0.0018346655  -2.3286405e-09  -5.8060488e-21    0.0032862168        15925793   1.6881004e-08               0
     0.22072072               0               0               0   -0.0018295779  -2.2806888e-09               0    0.0032736358        15925793   1.6762249e-08               0
     0.22282282               0               0               0   -0.0018245215  -2.2333241e-09               0    0.0032610845        15925793   1.6644363e-08               0
     0.22492492               0               0               0   -0.0018195484  -2.1874771e-09               0    0.0032486954        15925793    1.652878e-08               0
     0.22702703               0               0               0   -0.0018147495  -2.1448131e-09               0    0.0032366465        15925793   1.6418026e-08               0
     0.22912913               0               0               0   -0.0018099507  -2.1021492e-09               0    0.0032245975        15925793   1.6307272e-08               0
     0.23123123               0               0               0    -0.001805324  -2.0617774e-09  -2.7821423e-20    0.0032130623        15925793   1.6201218e-08               0
     0.23333333               0               0               0   -0.0018007659  -2.0223197e-09  -6.6737909e-20     0.003201732        15925793   1.6097038e-08               0
     0.23543544               0               0               0   -0.0017962227  -1.9830964e-09  -1.0071712e-19    0.0031904148        15925793   1.5993258e-08               0
     0.23753754               0               0               0   -0.0017918916  -1.9472184e-09  -6.4240563e-20    0.0031792843        15925793   1.5895187e-08               0
     0.23963964               0               0               0   -0.0017875605  -1.9113404e-09  -2.7764009e-20    0.0031681538        15925793   1.5797115e-08               0
     0.24174174               0               0               0    -0.001783306  -1.8767368e-09   9.1574845e-21    0.0031571392        15925793    1.570111e-08               0
     0.24384384               0               0               0   -0.0017791805  -1.8442749e-09   4.6826785e-20    0.0031463192        15925793   1.5608578e-08               0
     0.24594595               0               0               0   -0.0017750549   -1.811813e-09   8.4496086e-20    0.0031354992        15925793   1.5516046e-08               0
     0.24804805               0               0               0   -0.0017710516  -1.7807902e-09   7.5774934e-20    0.0031250662        15925793   1.5426777e-08               0
     0.25015015               0               0               0   -0.0017671185  -1.7505913e-09   4.0492108e-20    0.0031148547        15925793   1.5339378e-08               0
     0.25225225               0               0               0   -0.0017631853  -1.7203924e-09   5.2092822e-21    0.0031046432        15925793   1.5251979e-08               0
     0.25435435               0               0               0   -0.0017594088  -1.6922897e-09               0    0.0030946871        15925793   1.5168673e-08               0
     0.25645646               0               0               0   -0.0017556593  -1.6645501e-09               0    0.0030847751        15925793   1.5086077e-08               0
     0.25855856               0               0               0   -0.0017519134  -1.6368671e-09   5.8297341e-22    0.0030748652        15925793   1.5003571e-08               0
     0.26066066               0               0               0   -0.0017483317  -1.6118787e-09   2.8889677e-20    0.0030650506        15925793   1.4925354e-08               0
     0.26276276               0               0               0   -0.0017447501  -1.5868904e-09   5.7196381e-20    0.0030552361        15925793   1.4847136e-08               0
     0.26486486               0               0               0   -0.0017411899  -1.5621518e-09    8.157611e-20    0.0030454833        15925793   1.4769482e-08               0
     0.26696697               0               0               0   -0.0017377631   -1.538964e-09    8.157613e-20    0.0030361146        15925793    1.469532e-08               0
     0.26906907               0               0               0   -0.0017343362  -1.5157762e-09   8.1576149e-20    0.0030267458        15925793   1.4621159e-08               0
     0.27117117               0               0               0   -0.0017309401  -1.4928747e-09   7.5985526e-20    0.0030174816        15925793   1.4547783e-08               0
     0.27327327               0               0               0   -0.0017276631  -1.4710851e-09    4.868519e-20    0.0030086236        15925793   1.4477459e-08               0
     0.27537538               0               0               0   -0.0017243861  -1.4492956e-09   2.1384855e-20    0.0029997656        15925793   1.4407136e-08               0
     0.27747748               0               0               0   -0.0017211397  -1.4279306e-09  -5.0942465e-21    0.0029909208        15925793   1.4337582e-08               0
     0.27957958               0               0               0   -0.0017180041  -1.4081005e-09  -2.8604531e-20    0.0029821243        15925793   1.4270815e-08               0
     0.28168168               0               0               0   -0.0017148685  -1.3882703e-09  -5.2114816e-20    0.0029733277        15925793   1.4204048e-08               0
     0.28378378               0               0               0   -0.0017117551  -1.3687498e-09    -7.15754e-20     0.002964542        15925793   1.4137846e-08               0
     0.28588589               0               0               0   -0.0017087484  -1.3507175e-09  -7.1575419e-20    0.0029558088        15925793   1.4074358e-08               0
     0.28798799               0               0               0   -0.0017057416  -1.3326852e-09  -7.1575438e-20    0.0029470756        15925793    1.401087e-08               0
     0.29009009               0               0               0   -0.0017027433   -1.314744e-09  -7.0009725e-20    0.0029383742        15925793   1.3947597e-08               0
     0.29219219               0               0               0   -0.0016998584  -1.2980292e-09  -4.7388207e-20    0.0029301009        15925793   1.3887213e-08               0
     0.29429429               0               0               0   -0.0016969735  -1.2813143e-09  -2.4766688e-20    0.0029218277        15925793    1.382683e-08               0
      0.2963964               0               0               0   -0.0016940886  -1.2645995e-09  -2.1451691e-21    0.0029135544        15925793   1.3766447e-08               0
      0.2984985               0               0               0   -0.0016913077  -1.2492113e-09               0    0.0029056483        15925793   1.3708575e-08               0
      0.3006006               0               0               0   -0.0016885376  -1.2339621e-09               0    0.0028977806        15925793   1.3650966e-08               0
      0.3027027               0               0               0   -0.0016857676  -1.2187129e-09               0    0.0028899129        15925793   1.3593357e-08               0
      0.3048048               0               0               0   -0.0016830689  -1.2043367e-09   1.2557033e-20    0.0028820453        15925793   1.3537413e-08               0
     0.30690691               0               0               0   -0.0016804041  -1.1903759e-09   3.1088489e-20    0.0028741777        15925793   1.3482262e-08               0
     0.30900901               0               0               0   -0.0016777393  -1.1764151e-09   4.9619944e-20    0.0028663102        15925793    1.342711e-08               0
     0.31111111               0               0               0   -0.0016751132  -1.1627277e-09   5.7688328e-20    0.0028584633        15925793   1.3372899e-08               0
     0.31321321               0               0               0    -0.001672549   -1.149479e-09   4.8963131e-20    0.0028506495        15925793   1.3320197e-08               0
     0.31531532               0               0               0   -0.0016699849  -1.1362303e-09   4.0237933e-20    0.0028428357        15925793   1.3267495e-08               0
     0.31741742               0               0               0   -0.0016674228  -1.1229925e-09   3.1668799e-20    0.0028350304        15925793   1.3214845e-08               0
     0.31951952               0               0               0   -0.0016649577  -1.1102539e-09    3.031121e-20    0.0028276174        15925793   1.3164591e-08               0
     0.32162162               0               0               0   -0.0016624926  -1.0975153e-09   2.8953621e-20    0.0028202044        15925793   1.3114337e-08               0
     0.32372372               0               0               0   -0.0016600275  -1.0847768e-09   2.7596031e-20    0.0028127914        15925793   1.3064082e-08               0
     0.32582583               0               0               0   -0.0016576192  -1.0724626e-09   3.1938869e-20    0.0028055882        15925793   1.3015194e-08               0
     0.32792793               0               0               0   -0.0016552509  -1.0604475e-09   4.0298972e-20    0.0027985329        15925793   1.2967267e-08               0
     0.33003003               0               0               0   -0.0016528827  -1.0484325e-09   4.8659074e-20    0.0027914775        15925793    1.291934e-08               0
     0.33213213               0               0               0   -0.0016505215  -1.0364931e-09   5.5164559e-20    0.0027844239        15925793   1.2871581e-08               0
     0.33423423               0               0               0    -0.001648245  -1.0254603e-09   3.9451585e-20    0.0027773899        15925793   1.2825831e-08               0
     0.33633634               0               0               0   -0.0016459685  -1.0144275e-09   2.3738612e-20     0.002770356        15925793   1.2780081e-08               0
     0.33843844               0               0               0    -0.001643692  -1.0033948e-09   8.0256389e-21     0.002763322        15925793    1.273433e-08               0
     0.34054054               0               0               0   -0.0016414573  -9.9278744e-10  -1.0041835e-20    0.0027562966        15925793   1.2689585e-08               0
     0.34264264               0               0               0   -0.0016392662  -9.8262427e-10  -3.0567425e-20    0.0027492802        15925793   1.2645889e-08               0
     0.34474474               0               0               0   -0.0016370751   -9.724611e-10  -5.1093015e-20    0.0027422637        15925793   1.2602192e-08               0
     0.34684685               0               0               0    -0.001634884  -9.6229793e-10  -7.1618606e-20    0.0027352472        15925793   1.2558496e-08               0
     0.34894895               0               0               0   -0.0016327599  -9.5262635e-10  -7.5318566e-20    0.0027284576        15925793    1.251641e-08               0
     0.35105105               0               0               0   -0.0016306504  -9.4306288e-10  -7.5318595e-20    0.0027217178        15925793   1.2474677e-08               0
     0.35315315               0               0               0    -0.001628541   -9.334994e-10  -7.5318624e-20     0.002714978        15925793   1.2432944e-08               0