#      distance             U_x             U_y             U_z wallShearStr... wallShearStr... wallShearStr...               p           omega               k             nut
  3.0219182e-06       0.0184379    2.628486e-09  -3.4461411e-23               0               0               0   0.00023276746       5570601.8   3.9968301e-07   3.7391023e-13
  5.0865428e-06     0.031038049   6.6679152e-09  -1.4611558e-23               0               0               0   0.00023276767       1240850.2   1.8252629e-06   3.4559056e-12
  7.2269684e-06     0.044100104   1.3130669e-08  -3.7643289e-23               0               0               0   0.00023276789       495682.18   5.7569192e-06   1.9325655e-11
  9.4750924e-06     0.057816697   2.2379208e-08  -5.6458894e-23               0               0               0   0.00023276811       256764.63   1.4417823e-05   7.8819696e-11
  1.1864417e-05     0.072385832      3.4925e-08  -2.3401029e-23               0               0               0   0.00023276834       152802.44   3.1086385e-05   2.5990375e-10
  1.4430548e-05     0.088006925   5.1502422e-08    7.888273e-23               0               0               0    0.0002327686       99058.222   6.0518677e-05    7.365883e-10
  1.7211727e-05      0.10486876   7.3069553e-08   1.2748082e-22               0               0               0   0.00023276888       68139.937   0.00010940375   1.8611151e-09
  2.0249401e-05      0.12312322   1.0082127e-07   2.8786676e-23               0               0               0    0.0002327692       49052.784   0.00018656261   4.2814175e-09
  2.3588836e-05      0.14283967   1.3618138e-07  -3.0451972e-23               0               0               0   0.00023276959        36671.31   0.00030228848   9.0656111e-09
  2.7279799e-05      0.16394574   1.8073931e-07  -1.5225986e-23               0               0               0   0.00023277007       28321.838   0.00046603828   1.7755312e-08
  3.1377293e-05      0.18618228   2.3612892e-07               0               0               0               0    0.0002327707        22484.26   0.00068235616   3.2248262e-08
  3.5942381e-05      0.20911582   3.0391205e-07   7.1949654e-23               0               0               0   0.00023277152       18244.026   0.00094682973    5.449733e-08
  4.1043091e-05      0.23222714   3.8556018e-07   1.0791294e-22               0               0               0   0.00023277261       15039.651     0.001245333   8.6183084e-08
  4.6755437e-05      0.25503562   4.8251976e-07   1.2149738e-22               0               0               0   0.00023277402       12530.036    0.0015580319   1.2857477e-07
  5.3164546e-05      0.27720478   5.9646768e-07   1.2828743e-22               0               0               0   0.00023277582        10510.29    0.0018656968   1.8205251e-07
  6.0365928e-05      0.29857478   7.2962977e-07  -1.9330832e-22               0               0               0   0.00023277807       8853.5806    0.0021545097   2.4683799e-07
    6.84669e-05      0.31908974   8.8472443e-07  -4.1173467e-22               0               0               0   0.00023278086       7476.9385    0.0024168756   3.2495186e-07
  7.7588184e-05      0.33871272   1.0647649e-06  -2.1503878e-22               0               0               0   0.00023278433         6324.55      0.00264933   4.1961693e-07
   8.786571e-05      0.35741913   1.2731212e-06   6.1355571e-23               0               0               0   0.00023278863         5357.54    0.0028511058   5.3377106e-07
  9.9452634e-05      0.37521876   1.5136666e-06   2.7236209e-22               0               0               0   0.00023279388       4546.6259    0.0030237008   6.6994545e-07
  0.00011252163      0.39216389   1.7909357e-06   5.6553045e-23               0               0               0   0.00023280019       3867.6651    0.0031701524   8.2954935e-07
  0.00012726745      0.40834869   2.1104263e-06  -1.5311975e-22               0               0               0   0.00023280768       3299.2833    0.0032942007   1.0127852e-06
  0.00014390985      0.42388519   2.4787198e-06  -3.8032033e-23               0               0               0   0.00023281648       2822.4273    0.0033995561   1.2215796e-06
  0.00016269684      0.43886739   2.9032376e-06   6.8210352e-23               0               0               0   0.00023282682       2421.0101    0.0034893263   1.4605678e-06
  0.00018390838      0.45336311   3.3922783e-06   5.4410004e-22               0               0               0   0.00023283895       2082.0044    0.0035659008    1.734458e-06
  0.00020786057      0.46742754   3.9554266e-06   6.7966396e-22               0               0               0   0.00023285317       1794.8366    0.0036312186   2.0475804e-06
  0.00023491035      0.48111003   4.6037625e-06   2.0377427e-22               0               0               0   0.00023286978       1550.8455    0.0036869339    2.404804e-06
  0.00026546084      0.49445454   5.3499852e-06               0               0               0               0   0.00023288913       1342.9266    0.0037344419    2.811596e-06
   0.0002999673      0.50750015   6.2086646e-06               0               0               0               0   0.00023291162       1165.2412    0.0037749096   3.2740859e-06
  0.00033894396      0.52028165   7.1965302e-06  -1.8512529e-22               0               0               0    0.0002329377       1012.9789     0.003809308   3.7991355e-06
  0.00038297165      0.53283002   8.3327962e-06  -3.7025058e-22               0               0               0   0.00023296791       882.16491    0.0038384401   4.3944113e-06
  0.00043270649      0.54517295   9.6395362e-06   8.0096015e-22               0               0               0   0.00023300282       769.50525    0.0038629665   5.0684612e-06
  0.00048888965      0.55733527   1.1142118e-05   1.5554419e-21               0               0               0   0.00023304312       672.26052    0.0038834259   5.8307911e-06
  0.00055235838      0.56933939    1.286971e-05   5.6935649e-22               0               0               0   0.00023308956       588.14493    0.0039002528   6.6919406e-06
   0.0006240585      0.58120564   1.4855872e-05               0               0               0               0   0.00023314301       515.24451    0.0039137916   7.6635537e-06
  0.00070505852      0.59295262   1.7139245e-05   2.3905931e-22               0               0               0   0.00023320444       451.95114    0.0039243075   8.7584376e-06
  0.00079656552      0.60459749    1.976436e-05   4.7811863e-22               0               0               0   0.00023327495       396.90912    0.0039319953   9.9906053e-06
  0.00089994316      0.61615628     2.27826e-05   2.3905931e-22               0               0               0   0.00023335578       348.97178    0.0039369858   1.1375288e-05
    0.001016732      0.62764417   2.6253331e-05               0               0               0               0   0.00023344831       307.16625    0.0039393499   1.2928906e-05
   0.0011486725      0.63907572   3.0245251e-05    1.041729e-21               0               0               0   0.00023355409       270.66462     0.003939102   1.4668979e-05
   0.0012977308      0.65046513   3.4838014e-05  -7.8789722e-22               0               0               0   0.00023367484       238.76037    0.0039362005   1.6613946e-05
   0.0014661282      0.66182657   4.0124185e-05   -3.490541e-21               0               0               0   0.00023381245       210.84901    0.0039305478   1.8782865e-05
   0.0016563743      0.67317438   4.6211618e-05  -2.6967156e-21               0               0               0   0.00023396903       186.41208     0.003921988   2.1194951e-05
   0.0018713042      0.68452347   5.3226376e-05  -1.5854717e-21               0               0               0   0.00023414683       165.00392    0.0039103031    2.386888e-05
   0.0021141207      0.69588962   6.1316333e-05  -5.4967088e-22               0               0               0   0.00023434832       146.24071    0.0038952075   2.6821796e-05
   0.0023884425      0.70728987   7.0655681e-05  -4.0098846e-22               0               0               0   0.00023457607       129.79138    0.0038763403   3.0067918e-05
   0.0026983575      0.71874307   8.1450604e-05   1.2443678e-21               0               0               0   0.00023483277       115.36992    0.0038532549   3.3616618e-05
   0.0030484842      0.73027042   9.3946509e-05  -2.2368248e-21               0               0               0   0.00023512112       102.72911     0.003825405   3.7469828e-05
   0.0034440402      0.74189616   0.00010843734  -5.6990019e-21               0               0               0   0.00023544367       91.655139    0.0037921266   4.1618578e-05
   0.0038909203      0.75364856   0.00012527772  -1.8168208e-21               0               0               0   0.00023580264       81.963244    0.0037526147   4.6038468e-05
    0.004395784      0.76556097   0.00014489901   3.1397527e-21               0               0               0   0.00023619963       73.494034    0.0037058924   5.0683829e-05
   0.0049661549      0.77767337   0.00016783129  -4.6845665e-21               0               0               0   0.00023663518       66.110547    0.0036507706   5.5480365e-05
   0.0056105328      0.79003425   0.00019473361  -1.3757702e-20               0               0               0    0.0002371081       59.695947    0.0035857953   6.0316116e-05
   0.0063385204       0.8027032    0.0002264323   5.3445681e-21               0               0               0   0.00023761341       54.151924    0.0035091795   6.5030735e-05
   0.0071609664      0.81575431   0.00026395018   1.8558445e-20               0               0               0    0.0002381383       49.397925    0.0034187178   6.9403392e-05
   0.0080901272        0.829293   0.00030865551   2.9366983e-20               0               0               0   0.00023866695       45.366202    0.0033113837    7.300286e-05
   0.0091398493       0.8434913   0.00036255747   3.4053938e-20               0               0               0   0.00023918464        41.98801    0.0031823912   7.5150133e-05
    0.010325776        0.858598   0.00042857026   1.6024002e-20               0               0               0   0.00023965515       39.180252      0.00302409   7.5298505e-05
     0.01166558      0.87491335   0.00051062904   4.0565544e-21               0               0               0    0.0002400081       36.833174    0.0028246242   7.3110025e-05
    0.013179228      0.89277144   0.00061404088   1.7909542e-20               0               0               0    0.0002401514       34.786949    0.0025665943   6.8305611e-05
    0.014889277      0.91247576   0.00074574927   1.6570968e-20               0               0               0   0.00023993694       32.818543    0.0022283413   6.0909913e-05
    0.016821209      0.93403214   0.00091052953   5.0714609e-20               0               0               0   0.00023904343       30.697456    0.0017936203   5.1466382e-05
    0.019003816      0.95679106    0.0011121044   7.7419513e-20               0               0               0   0.00023727429       28.146556    0.0012635043   4.0159564e-05
    0.021469624      0.97883308    0.0013395408   4.3864697e-20               0               0               0   0.00023446818       23.077359   0.00068845278    2.626844e-05
    0.024255377      0.99526694    0.0015166033    2.405466e-20               0               0               0   0.00022960104       14.332476   0.00023566306     1.21293e-05
    0.027402591       1.0024697     0.001584323   5.5562492e-21               0               0               0     0.000222788       7.3126266    3.669042e-05    3.115063e-06
    0.030958166        1.003776    0.0015883059               0               0               0               0   0.00021582965       5.3270005   1.7761359e-06   3.2427687e-07
    0.034975088       1.0038178    0.0015795066               0               0               0               0   0.00020933849       5.2603574   6.5595386e-07   1.2469789e-07
    0.039513219       1.0038154    0.0015693771   1.9703162e-20               0               0               0   0.00020287765        5.261848   6.5391264e-07   1.2427305e-07
    0.044640187       1.0038176    0.0015601525   2.9551654e-20               0               0               0   0.00019621905       5.2622592   6.5412434e-07   1.2430341e-07
    0.050432395       1.0038245    0.0015498656   9.8484561e-21               0               0               0   0.00018936015       5.2622371   6.5413621e-07   1.2430619e-07
    0.056976161       1.0038303    0.0015380543               0               0               0               0   0.00018239864       5.2622294   6.5413298e-07   1.2430576e-07
    0.064369002       1.0038309    0.0015254752               0               0               0               0   0.00017550928       5.2622237   6.5413178e-07   1.2430567e-07
    0.072721087       1.0038279    0.0015117663               0               0               0               0   0.00016884506       5.2622135   6.5413017e-07    1.243056e-07
    0.082156882       1.0038227    0.0014970813               0               0               0               0    0.0001624934        5.262196   6.5412762e-07   1.2430553e-07
    0.092817002        1.003815    0.0014811895               0               0               0               0   0.00015653528       5.2621689   6.5412382e-07   1.2430545e-07
