#      distance             U_x             U_y             U_z wallShearStr... wallShearStr... wallShearStr...               p           omega               k             nut
  3.0219182e-06     0.018437892   2.6284561e-09  -3.4461379e-23               0               0               0   0.00023276698       5570601.8   3.9968255e-07   3.7390983e-13
  5.0865428e-06     0.031038035   6.6678396e-09  -1.4611542e-23               0               0               0   0.00023276719       1240850.2   1.8252608e-06   3.4559019e-12
  7.2269684e-06     0.044100084   1.3130521e-08  -3.7643246e-23               0               0               0   0.00023276741       495682.18   5.7569128e-06   1.9325633e-11
  9.4750924e-06     0.057816671   2.2378954e-08  -5.6458831e-23               0               0               0   0.00023276763       256764.63   1.4417807e-05   7.8819609e-11
  1.1864417e-05       0.0723858   3.4924604e-08  -2.3400988e-23               0               0               0   0.00023276787       152802.43   3.1086351e-05   2.5990347e-10
  1.4430548e-05     0.088006886    5.150184e-08   7.8882671e-23               0               0               0   0.00023276812        99058.22   6.0518611e-05   7.3658751e-10
  1.7211727e-05      0.10486872    7.306873e-08   1.2748069e-22               0               0               0    0.0002327684       68139.935   0.00010940363   1.8611131e-09
  2.0249401e-05      0.12312316   1.0082013e-07    2.878669e-23               0               0               0   0.00023276872       49052.781   0.00018656241   4.2814132e-09
  2.3588836e-05      0.14283961   1.3617985e-07  -3.0451847e-23               0               0               0   0.00023276911       36671.308   0.00030228817   9.0656025e-09
  2.7279799e-05      0.16394567    1.807373e-07  -1.5225924e-23               0               0               0   0.00023276959       28321.835   0.00046603782   1.7755297e-08
  3.1377293e-05       0.1861822   2.3612629e-07               0               0               0               0   0.00023277022       22484.258   0.00068235553   3.2248237e-08
  3.5942381e-05      0.20911574   3.0390868e-07   7.1949586e-23               0               0               0   0.00023277104       18244.024   0.00094682893   5.4497291e-08
  4.1043091e-05      0.23222705   3.8555592e-07   1.0791284e-22               0               0               0   0.00023277213       15039.649     0.001245332   8.6183029e-08
  4.6755437e-05      0.25503553   4.8251444e-07   1.2149727e-22               0               0               0   0.00023277355       12530.034    0.0015580308    1.285747e-07
  5.3164546e-05      0.27720468   5.9646112e-07   1.2828731e-22               0               0               0   0.00023277535       10510.288    0.0018656956   1.8205243e-07
  6.0365928e-05      0.29857468   7.2962175e-07  -1.9330804e-22               0               0               0   0.00023277759       8853.5793    0.0021545084   2.4683788e-07
    6.84669e-05      0.31908964   8.8471472e-07  -4.1173397e-22               0               0               0   0.00023278039       7476.9375    0.0024168743   3.2495173e-07
  7.7588184e-05      0.33871261   1.0647532e-06  -2.1503824e-22               0               0               0   0.00023278386       6324.5492    0.0026493287   4.1961677e-07
   8.786571e-05      0.35741902   1.2731071e-06   6.1355704e-23               0               0               0   0.00023278815       5357.5392    0.0028511044   5.3377087e-07
  9.9452634e-05      0.37521865   1.5136499e-06   2.7236199e-22               0               0               0    0.0002327934       4546.6253    0.0030236995   6.6994523e-07
  0.00011252163      0.39216377   1.7909159e-06   5.6552761e-23               0               0               0   0.00023279971       3867.6645    0.0031701511   8.2954912e-07
  0.00012726745      0.40834857   2.1104029e-06  -1.5312023e-22               0               0               0    0.0002328072       3299.2828    0.0032941993   1.0127849e-06
  0.00014390985      0.42388507   2.4786923e-06  -3.8032313e-23               0               0               0     0.000232816        2822.427    0.0033995547   1.2215794e-06
  0.00016269684      0.43886727   2.9032052e-06   6.8210084e-23               0               0               0   0.00023282634       2421.0097     0.003489325   1.4605675e-06
  0.00018390838      0.45336299   3.3922403e-06   5.4409912e-22               0               0               0   0.00023283847       2082.0041    0.0035658995   1.7344577e-06
  0.00020786057      0.46742742   3.9553822e-06   6.7966311e-22               0               0               0   0.00023285269       1794.8363    0.0036312173     2.04758e-06
  0.00023491035      0.48110991   4.6037107e-06   2.0377407e-22               0               0               0    0.0002328693       1550.8452    0.0036869327   2.4048036e-06
  0.00026546084      0.49445441   5.3499247e-06               0               0               0               0   0.00023288865       1342.9264    0.0037344407   2.8115956e-06
   0.0002999673      0.50750002   6.2085943e-06               0               0               0               0   0.00023291114       1165.2411    0.0037749085   3.2740855e-06
  0.00033894396      0.52028152   7.1964485e-06  -1.8512454e-22               0               0               0   0.00023293722       1012.9787    0.0038093069   3.7991351e-06
  0.00038297165      0.53282989   8.3327014e-06  -3.7024908e-22               0               0               0   0.00023296743       882.16477    0.0038384391   4.3944109e-06
  0.00043270649      0.54517281   9.6394263e-06    8.009594e-22               0               0               0   0.00023300235       769.50512    0.0038629655   5.0684608e-06
  0.00048888965      0.55733514   1.1141991e-05   1.5554394e-21               0               0               0   0.00023304264        672.2604    0.0038834249   5.8307908e-06
  0.00055235838      0.56933926   1.2869563e-05   5.6935543e-22               0               0               0   0.00023308908       588.14481    0.0039002519   6.6919405e-06
   0.0006240585       0.5812055   1.4855702e-05               0               0               0               0   0.00023314253       515.24441    0.0039137908   7.6635537e-06
  0.00070505852      0.59295247   1.7139048e-05   2.3905831e-22               0               0               0   0.00023320396       451.95105    0.0039243069   8.7584379e-06
  0.00079656552      0.60459734   1.9764133e-05   4.7811663e-22               0               0               0   0.00023327447       396.90904    0.0039319948   9.9906059e-06
  0.00089994316      0.61615614   2.2782339e-05   2.3905831e-22               0               0               0    0.0002333553       348.97172    0.0039369854   1.1375289e-05
    0.001016732      0.62764402   2.6253031e-05               0               0               0               0   0.00023344782       307.16619    0.0039393496   1.2928908e-05
   0.0011486725      0.63907556   3.0244906e-05   1.0417277e-21               0               0               0    0.0002335536       270.66456    0.0039391019   1.4668982e-05
   0.0012977308      0.65046498   3.4837617e-05   -7.878961e-22               0               0               0   0.00023367435       238.76033    0.0039362006   1.6613949e-05
   0.0014661282      0.66182641    4.012373e-05  -3.4905348e-21               0               0               0   0.00023381196       210.84898    0.0039305481   1.8782869e-05
   0.0016563743      0.67317422   4.6211097e-05  -2.6967074e-21               0               0               0   0.00023396854       186.41205    0.0039219885   2.1194957e-05
   0.0018713042      0.68452331   5.3225779e-05  -1.5854648e-21               0               0               0   0.00023414634       165.00389    0.0039103037   2.3868887e-05
   0.0021141207      0.69588945   6.1315651e-05  -5.4966846e-22               0               0               0   0.00023434782        146.2407    0.0038952084   2.6821805e-05
   0.0023884425       0.7072897   7.0654903e-05  -4.0098667e-22               0               0               0   0.00023457557       129.79137    0.0038763415   3.0067929e-05
   0.0026983575      0.71874291   8.1449718e-05   1.2443698e-21               0               0               0   0.00023483227       115.36992    0.0038532564   3.3616631e-05
   0.0030484842      0.73027025   9.3945503e-05  -2.2368207e-21               0               0               0   0.00023512061       102.72912    0.0038254068   3.7469843e-05
   0.0034440402        0.741896   0.00010843621  -5.6989986e-21               0               0               0   0.00023544316       91.655154    0.0037921287   4.1618595e-05
   0.0038909203       0.7536484   0.00012527644  -1.8168213e-21               0               0               0   0.00023580214       81.963268    0.0037526172   4.6038485e-05
    0.004395784      0.76556081   0.00014489756   3.1397392e-21               0               0               0   0.00023619912       73.494068    0.0037058953   5.0683844e-05
   0.0049661549      0.77767321   0.00016782967  -4.6845779e-21               0               0               0   0.00023663467       66.110591    0.0036507739   5.5480377e-05
   0.0056105328      0.79003411   0.00019473182   -1.375769e-20               0               0               0   0.00023710758       59.696003     0.003585799   6.0316122e-05
   0.0063385204      0.80270307   0.00022643033   5.3445761e-21               0               0               0    0.0002376129       54.151992    0.0035091836   6.5030729e-05
   0.0071609664      0.81575419   0.00026394805   1.8558437e-20               0               0               0   0.00023813779       49.398006    0.0034187222   6.9403367e-05
   0.0080901272      0.82929291   0.00030865325   2.9365245e-20               0               0               0   0.00023866644       45.366297    0.0033113884   7.3002807e-05
   0.0091398493      0.84349124   0.00036255514    3.405134e-20               0               0               0   0.00023918414       41.988121    0.0031823961   7.5150036e-05
    0.010325776      0.85859799   0.00042856797   1.6023123e-20               0               0               0   0.00023965467       39.180379    0.0030240946   7.5298348e-05
     0.01166558      0.87491341     0.000510627   4.0565422e-21               0               0               0   0.00024000763       36.833314     0.002824628   7.3109795e-05
    0.013179228      0.89277158   0.00061403939    1.790961e-20               0               0               0   0.00024015095       34.787097    0.0025665964    6.830531e-05
    0.014889277      0.91247602   0.00074574876    1.657109e-20               0               0               0   0.00023993651       32.818688    0.0022283406   6.0909566e-05
    0.016821209      0.93403251   0.00091053039   5.0714822e-20               0               0               0   0.00023904302       30.697585    0.0017936159   5.1466035e-05
    0.019003816      0.95679151    0.0011121071   7.7419785e-20               0               0               0   0.00023727388        28.14665    0.0012634959   4.0159191e-05
    0.021469624      0.97883352    0.0013395443   4.3864682e-20               0               0               0   0.00023446772       23.077319   0.00068844252   2.6268027e-05
    0.024255377      0.99526723    0.0015166054    2.405439e-20               0               0               0   0.00022960053       14.332317   0.00023565605   1.2128991e-05
    0.027402591       1.0024697    0.0015843232   5.5561085e-21               0               0               0   0.00022278751        7.312535   3.6688381e-05   3.1149424e-06
    0.030958166        1.003776    0.0015883051               0               0               0               0   0.00021582922        5.326993     1.77602e-06   3.2425742e-07
    0.034975088       1.0038179    0.0015795056               0               0               0               0    0.0002093381       5.2603575   6.5595338e-07    1.246978e-07
    0.039513219       1.0038154    0.0015693761   1.9703175e-20               0               0               0   0.00020287728       5.2618482   6.5391265e-07   1.2427305e-07
    0.044640187       1.0038176    0.0015601516   2.9551673e-20               0               0               0    0.0001962187       5.2622593   6.5412435e-07   1.2430341e-07
    0.050432395       1.0038245    0.0015498647   9.8484624e-21               0               0               0    0.0001893598       5.2622372   6.5413622e-07   1.2430619e-07
    0.056976161       1.0038303    0.0015380534               0               0               0               0   0.00018239831       5.2622295   6.5413299e-07   1.2430576e-07
    0.064369002       1.0038309    0.0015254744               0               0               0               0   0.00017550898       5.2622238   6.5413179e-07   1.2430567e-07
    0.072721087       1.0038279    0.0015117655               0               0               0               0   0.00016884477       5.2622136   6.5413017e-07    1.243056e-07
    0.082156882       1.0038227    0.0014970805               0               0               0               0   0.00016249313       5.2621961   6.5412763e-07   1.2430553e-07
    0.092817002        1.003815    0.0014811887               0               0               0               0   0.00015653503       5.2621689   6.5412383e-07   1.2430545e-07
