#      distance             U_x             U_y             U_z wallShearStr... wallShearStr... wallShearStr...               p           omega               k             nut
    0.001215373      0.62966151   9.8854661e-05               0               0               0               0   0.00015938916       356.91804    0.0041861417   1.5160235e-05
   0.0020572852       0.6869973   0.00011958092               0               0               0               0   0.00016348876       180.47874    0.0041284459   2.5066837e-05
   0.0029273097      0.72303689    0.0001441875               0               0               0               0   0.00016872353       119.73055    0.0039713908    3.468098e-05
   0.0038263852      0.75019321   0.00017325196               0               0               0               0   0.00017465925       89.971181    0.0038430945   4.3783401e-05
   0.0047554818      0.77243424   0.00020660341               0               0               0               0   0.00018099829       72.469142    0.0037249127   5.2171814e-05
   0.0057156019      0.79159546   0.00024411626               0               0               0               0   0.00018752519       61.054319    0.0036077124   5.9648337e-05
   0.0067077814      0.80869427   0.00028575827               0               0               0               0   0.00019406376       53.114331    0.0034871816   6.6051163e-05
   0.0077330908      0.82435894   0.00033157371               0               0               0               0   0.00020045203       47.357457    0.0033608587   7.1240023e-05
   0.0087926364      0.83901813   0.00038177445               0               0               0               0   0.00020653384       43.071727    0.0032268789   7.5007282e-05
   0.0098875613      0.85301602   0.00043681321               0               0               0               0   0.00021214709       39.820619    0.0030828136   7.6910144e-05
    0.011019047      0.86665999   0.00049739946               0               0               0               0   0.00021709638       37.303085    0.0029250897   7.6703052e-05
    0.012188314      0.88019958   0.00056461512               0               0               0               0   0.00022117304       35.292372    0.0027491297   7.4569877e-05
    0.013396624      0.89381725   0.00063992873               0               0               0               0   0.00022422586       33.603998    0.0025496132   7.0738625e-05
    0.014645281      0.90763948   0.00072488025               0               0               0               0   0.00022619886       32.077484    0.0023212065   6.5469273e-05
    0.015935632      0.92171106    0.0008204553               0               0               0               0   0.00022711586       30.573647    0.0020602266   5.9221937e-05
    0.017269069      0.93591383   0.00092617889               0               0               0               0   0.00022704096       28.986254    0.0017678441   5.2724741e-05
    0.018647031      0.94987104    0.0010390078               0               0               0               0   0.00022605132       27.282291    0.0014549881   4.6779342e-05
    0.020071004      0.96302274    0.0011539186               0               0               0               0   0.00022428514       25.486989    0.0011401378   4.1376674e-05
    0.021542526      0.97503778    0.0012670203               0               0               0               0   0.00022197442       23.532392   0.00083493629   3.4512421e-05
    0.023063183      0.98587421    0.0013757915               0               0               0               0   0.00021932304       21.086829   0.00054506592   2.5312944e-05
    0.024634616      0.99493907    0.0014703921               0               0               0               0   0.00021640831       17.524777   0.00029267115   1.5827294e-05
    0.026258521       1.0008344    0.0015309137               0               0               0               0   0.00021332368        12.69048    0.0001166323   8.1275737e-06
     0.02793665       1.0032359    0.0015528038               0               0               0               0   0.00021030858        8.302266   3.1257964e-05    3.149071e-06
    0.029670814       1.0037213     0.001554581               0               0               0               0   0.00020749694       6.2086991   5.6802131e-06   8.3610233e-07
    0.031462883       1.0037558    0.0015516509               0               0               0               0   0.00020478416        5.784332   1.2887815e-06   2.2141176e-07
    0.033314791       1.0037536    0.0015480834               0               0               0               0   0.00020203026       5.7421149   8.3848847e-07   1.4601378e-07
    0.035228536       1.0037519    0.0015426422               0               0               0               0   0.00019912822       5.7389273   8.0335741e-07   1.3997944e-07
    0.037206184       1.0037506    0.0015394714               0               0               0               0   0.00019608115       5.7387046   8.0084806e-07   1.3954733e-07
    0.039249867       1.0037489     0.001541542               0               0               0               0   0.00019303082       5.7386861   8.0067736e-07   1.3951801e-07
     0.04136179       1.0037464    0.0015430861               0               0               0               0   0.00019004019       5.7386804   8.0066547e-07   1.3951608e-07
    0.043544233       1.0037435    0.0015423336               0               0               0               0   0.00018705538       5.7386746   8.0066375e-07   1.3951592e-07
     0.04579955       1.0037405    0.0015404225               0               0               0               0   0.00018402376       5.7386679   8.0066253e-07   1.3951586e-07
    0.048130175       1.0037379    0.0015380033               0               0               0               0   0.00018091075       5.7386604   8.0066122e-07   1.3951582e-07
    0.050538621       1.0037396    0.0015366969               0               0               0               0   0.00017772193       5.7386527      8.0066e-07    1.395158e-07
    0.053027488         1.00375    0.0015415496               0               0               0               0   0.00017455907       5.7386442   8.0065876e-07   1.3951579e-07
    0.055599461       1.0037627    0.0015534983               0               0               0               0   0.00017161102       5.7386327   8.0065685e-07   1.3951573e-07
    0.058257315       1.0037711     0.001563947               0               0               0               0   0.00016896201       5.7386191   8.0065448e-07   1.3951565e-07
    0.061003917       1.0037765    0.0015703205               0               0               0               0   0.00016654569       5.7386048   8.0065208e-07   1.3951558e-07
    0.063842231       1.0037809     0.001574898               0               0               0               0   0.00016430924       5.7385892   8.0064955e-07   1.3951552e-07
     0.06677532       1.0037844    0.0015773428               0               0               0               0   0.00016223039        5.738572   8.0064681e-07   1.3951546e-07
    0.069806347       1.0037875    0.0015775984               0               0               0               0   0.00016030488       5.7385532   8.0064384e-07    1.395154e-07
    0.072938584       1.0037903    0.0015751152               0               0               0               0   0.00015853556       5.7385325   8.0064057e-07   1.3951533e-07
    0.076175409       1.0037908    0.0015701999               0               0               0               0   0.00015687767       5.7385098   8.0063702e-07   1.3951526e-07
    0.079520315       1.0037881    0.0015630729               0               0               0               0   0.00015526295       5.7384851   8.0063317e-07   1.3951519e-07
    0.082976911       1.0037834    0.0015552934               0               0               0               0   0.00015366049       5.7384582   8.0062897e-07   1.3951512e-07
    0.086548926       1.0037778    0.0015478505               0               0               0               0   0.00015207643        5.738429   8.0062443e-07   1.3951503e-07
    0.090240215       1.0037717    0.0015407786               0               0               0               0    0.0001505138       5.7383977   8.0061953e-07   1.3951494e-07
     0.09405476       1.0037662     0.001533909               0               0               0               0   0.00014896576       5.7383709   8.0061522e-07   1.3951484e-07
