/*--------------------------------*- C++ -*----------------------------------*\
  =========                 |
  \\      /  F ield         | OpenFOAM: The Open Source CFD Toolbox
   \\    /   O peration     | Website:  https://openfoam.org
    \\  /    A nd           | Version:  12
     \\/     M anipulation  |
\*---------------------------------------------------------------------------*/
FoamFile
{
    format      ascii;
    class       volScalarField;
    location    "400";
    object      k;
}
// * * * * * * * * * * * * * * * * * * * * * * * * * * * * * * * * * * * * * //

dimensions      [0 2 -2 0 0 0 0];

internalField   nonuniform List<scalar> 
7480
(
9.1321265e-06
9.5180523e-06
1.0336861e-05
1.2715499e-05
0.0017675593
0.0035111389
0.0049553322
0.006028799
0.0067625276
0.0072236114
0.0074849996
0.0076040179
0.0076235759
0.0075749518
0.0074807841
0.0073572372
0.007215899
0.0070659222
0.0069170699
0.0067703156
0.0066275626
0.0064893038
0.0063576487
0.0062345091
0.0061211633
0.0060183848
0.0059264527
0.0058451602
0.0057739344
0.0057119549
0.0056582378
0.0056117602
0.0055716399
0.005537146
0.0055074036
0.0054813959
0.0054580546
0.0054364889
0.0054160516
0.0053962851
0.0053767799
0.0053571656
0.005337157
0.0053165421
0.0052952164
0.0052731412
0.0052502778
0.0052264905
0.0052016485
0.005175768
0.0051489778
0.0051214015
0.0050931408
0.0050643606
0.0050353134
0.0050062049
0.004977104
0.0049480221
0.0049190182
0.0048901847
0.0048615637
0.0048331801
0.0048051063
0.0047774166
0.0047501151
0.0047231953
0.0046966609
0.0046704721
0.0046445608
0.0046189183
0.0045935846
0.0045685547
0.0045438298
0.0045194682
0.0044954453
0.0044716947
0.00444822
0.0044250064
0.0044020312
0.0043793373
0.0043569397
0.0043348119
0.0043129561
0.0042913416
0.0042699406
0.0042487767
0.004227861
0.0042071934
0.0041867537
0.004166518
0.0041464922
0.0041266695
0.0041070578
0.0040876297
0.0040684049
0.0040491672
0.0040306097
0.0040107651
0.0039932987
0.0039668002
8.9478864e-06
8.8221839e-06
8.7067336e-06
8.631837e-06
4.7738513e-05
0.00014931202
0.00031206721
0.000520234
0.0007516636
0.000986117
0.0012045112
0.0013984582
0.0015687612
0.001722543
0.0018690968
0.0020187856
0.0021843926
0.0023869992
0.0026128126
0.0028404452
0.0030741459
0.0033132088
0.0035546305
0.0037950046
0.0040309493
0.0042582168
0.0044728254
0.0046714858
0.0048516307
0.0050115681
0.005150654
0.0052694754
0.005369825
0.0054548345
0.0055249811
0.0055800375
0.0056198754
0.0056465294
0.0056616076
0.0056665387
0.0056628972
0.0056523544
0.0056363577
0.0056158643
0.005591688
0.0055645695
0.005535203
0.0055041873
0.0054720332
0.0054394083
0.0054069148
0.0053749754
0.0053438535
0.0053137343
0.0052847786
0.0052568728
0.0052296315
0.0052028588
0.0051765124
0.005150658
0.005125395
0.0051007742
0.0050767486
0.0050532192
0.0050301045
0.0050073194
0.0049845649
0.0049616938
0.0049387533
0.0049158634
0.0048931414
0.0048706679
0.0048484681
0.0048265446
0.004804764
0.0047829979
0.0047612263
0.0047395241
0.004717988
0.0046966706
0.004675607
0.0046547277
0.0046339256
0.0046131837
0.0045925583
0.0045721025
0.0045518631
0.0045318127
0.0045118766
0.0044920336
0.0044723158
0.0044527684
0.0044334129
0.004414182
0.0043950834
0.004375975
0.0043573119
0.0043378048
0.0043221142
0.0042880539
8.9433451e-06
8.8096216e-06
8.6758232e-06
8.542772e-06
9.0513173e-06
1.1697438e-05
1.8654797e-05
3.194598e-05
5.2804612e-05
8.1718843e-05
0.00011804196
0.00016044363
0.00020747734
0.00025788702
0.0003107264
0.00036553383
0.00042262794
0.00048389766
0.00054882921
0.00061892147
0.00069625418
0.00078457946
0.00088741941
0.0010087777
0.0011534174
0.0013105505
0.0014770926
0.0016535489
0.00183996
0.0020359261
0.0022406903
0.002453498
0.0026715606
0.0028850529
0.0030921691
0.003289918
0.0034739359
0.0036411078
0.0037923091
0.0039272224
0.0040469648
0.0041528417
0.004244333
0.0043205031
0.0043831391
0.0044339684
0.004474724
0.0045040661
0.0045255975
0.0045413855
0.0045526401
0.0045601898
0.0045647947
0.0045673245
0.0045684719
0.0045684722
0.0045672822
0.0045649374
0.0045616529
0.0045577289
0.0045533752
0.0045486646
0.004543552
0.0045379681
0.0045319153
0.0045253543
0.0045179216
0.0045096368
0.0045006936
0.0044912881
0.0044815494
0.0044715386
0.0044612801
0.0044507919
0.0044398478
0.0044283545
0.004416403
0.0044041335
0.0043916762
0.0043790981
0.0043664344
0.00435356
0.0043403661
0.0043268898
0.0043132462
0.0042995198
0.0042857691
0.0042719327
0.0042579194
0.0042437443
0.0042294792
0.0042151941
0.0042009104
0.004186544
0.0041720765
0.0041575248
0.0041430422
0.0041280073
0.0041154764
0.0040888947
8.9432395e-06
8.8091834e-06
8.6750281e-06
8.540884e-06
8.415978e-06
8.3325702e-06
8.3606254e-06
8.6167049e-06
9.2641724e-06
1.0526172e-05
1.2643111e-05
1.5842495e-05
2.0314855e-05
2.6203426e-05
3.3609864e-05
4.2608161e-05
5.3273006e-05
6.5754818e-05
8.0215079e-05
9.6857246e-05
0.00011592988
0.00013783094
0.0001631233
0.00019257532
0.00022725323
0.00026786296
0.00031514897
0.00037021641
0.00043470066
0.00051096625
0.00060237862
0.00071355229
0.00084291327
0.0009857979
0.0011432011
0.0013164878
0.0015062856
0.0017099667
0.0019169472
0.002122705
0.0023235923
0.0025166142
0.0026987922
0.0028687015
0.0030249923
0.0031666069
0.0032942681
0.0034084212
0.0035095429
0.0035961122
0.0036702126
0.0037337599
0.0037886237
0.0038367672
0.0038792108
0.0039155405
0.0039458556
0.0039718328
0.0039946393
0.0040151161
0.004033587
0.0040501348
0.0040648015
0.0040777424
0.0040891953
0.0040992294
0.004107732
0.0041147247
0.0041204134
0.0041250024
0.0041286146
0.0041312955
0.0041330887
0.0041340516
0.0041339519
0.0041327996
0.0041307732
0.0041280354
0.0041247108
0.0041208683
0.0041165493
0.0041115844
0.0041059147
0.0040996499
0.0040929338
0.0040858616
0.0040784965
0.004070742
0.0040625172
0.0040538864
0.0040449533
0.0040357999
0.0040264385
0.0040167699
0.0040067834
0.0039965881
0.003986202
0.0039753451
0.0039660244
0.0039454965
8.9432475e-06
8.8091814e-06
8.6750392e-06
8.5408938e-06
8.4069317e-06
8.2737897e-06
8.143134e-06
8.0184688e-06
7.9059466e-06
7.8156004e-06
7.7620918e-06
7.7653207e-06
7.8505281e-06
8.0482061e-06
8.3942077e-06
8.9297552e-06
9.701764e-06
1.0764305e-05
1.2180464e-05
1.4021645e-05
1.6366408e-05
1.9308287e-05
2.2963442e-05
2.7478414e-05
3.3049591e-05
3.9923765e-05
4.8389008e-05
5.8797172e-05
7.1600086e-05
8.7397619e-05
0.00010700636
0.00013158176
0.00016239514
0.00020070702
0.0002482087
0.00030731603
0.00038144138
0.0004752286
0.00059227514
0.00072591359
0.00087559324
0.0010401285
0.0012193176
0.0014080357
0.0016000472
0.0017911621
0.0019776846
0.002156406
0.002325105
0.0024838003
0.0026300052
0.0027631557
0.0028842559
0.0029952987
0.0030953689
0.0031835823
0.0032610249
0.0033295001
0.0033909666
0.0034466215
0.0034967524
0.0035418177
0.0035824159
0.0036192976
0.0036529932
0.0036834433
0.0037101687
0.0037340747
0.003755727
0.0037754199
0.0037932672
0.0038093219
0.003823725
0.0038366029
0.0038479415
0.0038577901
0.0038663006
0.0038736241
0.0038798751
0.0038851264
0.003889433
0.0038926404
0.0038947823
0.0038960204
0.0038964947
0.0038962978
0.0038954935
0.0038939623
0.0038916664
0.0038887243
0.0038852559
0.0038813438
0.0038769874
0.0038720793
0.0038666452
0.003860845
0.0038546424
0.0038479084
0.0038421338
0.0038264209
8.9432701e-06
8.8092137e-06
8.6750817e-06
8.5409377e-06
8.4068441e-06
8.2728713e-06
8.1391113e-06
8.0057057e-06
7.8728888e-06
7.7410505e-06
7.610818e-06
7.4831567e-06
7.3594767e-06
7.2417401e-06
7.1325839e-06
7.0354387e-06
6.9546747e-06
6.8957963e-06
6.8657544e-06
6.8731864e-06
6.9284471e-06
7.0442099e-06
7.2364209e-06
7.5253547e-06
7.9380559e-06
8.5103583e-06
9.2882666e-06
1.0331328e-05
1.1718596e-05
1.3556372e-05
1.598862e-05
1.9217574e-05
2.3519393e-05
2.9265106e-05
3.6951882e-05
4.7269086e-05
6.1190335e-05
8.0096624e-05
0.00010584817
0.00014010563
0.00018483968
0.0002425044
0.0003165705
0.00041006516
0.00052522493
0.0006578655
0.00080701307
0.00097006329
0.0011439576
0.0013215263
0.00149912
0.001673319
0.0018414317
0.0020017872
0.0021552188
0.0022995258
0.0024330129
0.0025557515
0.0026692564
0.0027736404
0.0028674359
0.00295205
0.0030288515
0.0030992344
0.0031636973
0.0032221459
0.0032745633
0.0033219691
0.0033652952
0.0034048969
0.0034409929
0.0034738764
0.0035039613
0.0035314946
0.0035561397
0.0035783208
0.0035984649
0.0036168034
0.0036334581
0.0036485196
0.0036620779
0.0036741596
0.0036848462
0.0036942652
0.0037025351
0.0037097502
0.0037159756
0.003721114
0.0037252007
0.0037283873
0.0037307873
0.0037324776
0.0037334491
0.0037336069
0.0037330306
0.0037319016
0.0037301545
0.0037277387
0.0037258747
0.0037147011
8.9433019e-06
8.8092505e-06
8.6751199e-06
8.5409753e-06
8.4068794e-06
8.2728946e-06
8.1390815e-06
8.0055002e-06
7.8722142e-06
7.7392915e-06
7.6068085e-06
7.4748546e-06
7.3435451e-06
7.2130249e-06
7.0834812e-06
6.9551593e-06
6.8283803e-06
6.7035625e-06
6.5812505e-06
6.4621469e-06
6.3471323e-06
6.2373077e-06
6.1340663e-06
6.0391788e-06
5.9549634e-06
5.8844918e-06
5.8317693e-06
5.8020962e-06
5.8026484e-06
5.8433188e-06
5.9379245e-06
6.1064871e-06
6.378415e-06
6.7963504e-06
7.4224064e-06
8.3491398e-06
9.7164783e-06
1.1736934e-05
1.4735994e-05
1.9170932e-05
2.5681619e-05
3.5164128e-05
4.8890532e-05
6.8539641e-05
9.6273257e-05
0.00013420345
0.0001847977
0.00025104677
0.00033682654
0.00044288494
0.00056601186
0.0007055708
0.0008592212
0.0010228988
0.0011887554
0.0013541906
0.0015166203
0.0016739785
0.001824936
0.0019707353
0.0021091102
0.0022386912
0.0023596558
0.0024731495
0.0025783128
0.0026740128
0.0027610837
0.0028407907
0.0029140636
0.0029808099
0.0030414959
0.0030969287
0.0031478602
0.0031945949
0.003236958
0.0032753985
0.0033105583
0.0033428039
0.0033723283
0.0033993442
0.0034240845
0.0034464116
0.0034666439
0.0034850785
0.0035018798
0.0035171639
0.0035309999
0.003543426
0.0035545325
0.0035644352
0.0035732298
0.0035809936
0.0035877262
0.0035933834
0.0035980897
0.0036020189
0.0036050913
0.003607294
0.0036097459
0.0036031696
8.943344e-06
8.809298e-06
8.675171e-06
8.5410293e-06
8.4069354e-06
8.2729509e-06
8.1391359e-06
8.0055492e-06
7.8722501e-06
7.7392983e-06
7.6067535e-06
7.4746756e-06
7.3431248e-06
7.212163e-06
7.0818519e-06
6.9522561e-06
6.8234432e-06
6.6954859e-06
6.5684641e-06
6.4424682e-06
6.3176012e-06
6.1939823e-06
6.0717521e-06
5.9510799e-06
5.8321746e-06
5.7153003e-06
5.6007908e-06
5.4890743e-06
5.380715e-06
5.276471e-06
5.1773793e-06
5.0849102e-06
5.0011984e-06
4.9293417e-06
4.8738842e-06
4.8416704e-06
4.8432636e-06
4.8952582e-06
5.0247541e-06
5.2755536e-06
5.7171459e-06
6.46142e-06
7.6898613e-06
9.6911599e-06
1.2913657e-05
1.8011922e-05
2.592799e-05
3.7998589e-05
5.6107432e-05
8.2533173e-05
0.00011953964
0.00016974876
0.0002363347
0.00032380668
0.00042943168
0.00055118414
0.00068812848
0.00083771445
0.00099516127
0.0011515413
0.001306491
0.0014583663
0.0016058989
0.0017487835
0.0018875533
0.0020196847
0.0021442291
0.0022614979
0.0023721092
0.0024732303
0.0025659395
0.0026514448
0.0027304991
0.0028030526
0.0028691388
0.0029294242
0.0029846812
0.0030352635
0.0030815043
0.0031238807
0.003162854
0.0031983713
0.0032307311
0.0032603768
0.003287608
0.0033126048
0.0033355099
0.003356292
0.0033752028
0.0033924818
0.0034082548
0.0034226174
0.003435616
0.0034473151
0.0034578124
0.0034672547
0.0034755653
0.0034827546
0.0034899827
0.0034881958
8.9433927e-06
8.8093532e-06
8.6752309e-06
8.541092e-06
8.4069994e-06
8.2730145e-06
8.1391979e-06
8.0056092e-06
7.8723079e-06
7.7393536e-06
7.6068057e-06
7.4747232e-06
7.3431646e-06
7.212188e-06
7.0818503e-06
6.9522078e-06
6.8233158e-06
6.6952284e-06
6.5679992e-06
6.441681e-06
6.3163262e-06
6.1919863e-06
6.068713e-06
5.9465581e-06
5.8255747e-06
5.7058182e-06
5.5873478e-06
5.4702273e-06
5.3545286e-06
5.2403352e-06
5.1277481e-06
5.0168952e-06
4.9079472e-06
4.8011364e-06
4.6967877e-06
4.5953712e-06
4.4975907e-06
4.4045256e-06
4.3179104e-06
4.2405758e-06
4.1770856e-06
4.1349799e-06
4.1269692e-06
4.1747552e-06
4.3159592e-06
4.6150438e-06
5.1817124e-06
6.2031259e-06
7.9954797e-06
1.1064396e-05
1.6165985e-05
2.4405791e-05
3.7364804e-05
5.7372516e-05
8.6811802e-05
0.00012816827
0.00018435264
0.00025924952
0.00035527085
0.00046714377
0.00059364115
0.00073297643
0.00088143197
0.0010325297
0.0011806101
0.0013268792
0.0014702119
0.0016094714
0.0017461103
0.0018773952
0.0020020364
0.0021200469
0.0022319486
0.0023356151
0.0024311183
0.0025193843
0.0026009699
0.0026757373
0.0027441619
0.002806993
0.0028648245
0.0029176504
0.0029658362
0.003009994
0.0030505356
0.0030877415
0.0031219279
0.0031531891
0.0031817732
0.0032079991
0.0032321144
0.0032542772
0.0032745264
0.0032929313
0.0033097769
0.0033252243
0.0033392166
0.0033518211
0.0033643627
0.0033675647
8.9434467e-06
8.8094141e-06
8.6752967e-06
8.5411608e-06
8.4070696e-06
8.2730847e-06
8.1392671e-06
8.0056769e-06
7.8723738e-06
7.7394175e-06
7.6068673e-06
7.4747823e-06
7.343221e-06
7.2122412e-06
7.0819e-06
6.9522532e-06
6.8233557e-06
6.6952609e-06
6.5680211e-06
6.4416872e-06
6.3163088e-06
6.1919338e-06
6.0686083e-06
5.9463767e-06
5.8252822e-06
5.7053663e-06
5.5866694e-06
5.4692305e-06
5.3530871e-06
5.238276e-06
5.1248333e-06
5.012795e-06
4.9021985e-06
4.7930835e-06
4.6854936e-06
4.5794799e-06
4.475106e-06
4.3724567e-06
4.2716539e-06
4.172884e-06
4.0764366e-06
3.9827785e-06
3.8926869e-06
3.8074883e-06
3.7295089e-06
3.6628417e-06
3.6146796e-06
3.5978751e-06
3.6357164e-06
3.7705541e-06
4.0782811e-06
4.6937684e-06
5.8553322e-06
7.9829396e-06
1.1740271e-05
1.8132237e-05
2.8627185e-05
4.5384535e-05
7.1219214e-05
0.00010869868
0.00016063062
0.00023076108
0.00032131289
0.00042991101
0.00055206347
0.0006861431
0.00082865092
0.00097500867
0.0011173659
0.001258479
0.0013973517
0.0015328111
0.001666232
0.0017951274
0.0019181371
0.002035064
0.002146164
0.0022490884
0.0023443397
0.002432673
0.0025144894
0.0025895353
0.0026583514
0.0027215704
0.0027795381
0.0028326501
0.0028814488
0.0029261824
0.0029670829
0.0030045755
0.0030390658
0.003070801
0.0030999142
0.0031265334
0.0031509881
0.0031735175
0.0031941661
0.0032128998
0.0032313932
0.0032396274
8.9435047e-06
8.8094795e-06
8.6753673e-06
8.5412347e-06
8.4071452e-06
8.2731606e-06
8.1393422e-06
8.0057505e-06
7.8724455e-06
7.7394869e-06
7.6069344e-06
7.4748469e-06
7.343283e-06
7.2123007e-06
7.0819569e-06
6.9523075e-06
6.8234072e-06
6.6953097e-06
6.568067e-06
6.4417301e-06
6.3163483e-06
6.1919693e-06
6.068639e-06
5.9464016e-06
5.8252996e-06
5.7053737e-06
5.5866633e-06
5.4692057e-06
5.3530363e-06
5.238189e-06
5.1246955e-06
5.0125861e-06
4.9018894e-06
4.7926323e-06
4.6848407e-06
4.5785385e-06
4.4737488e-06
4.3704941e-06
4.2687972e-06
4.1686833e-06
4.070182e-06
3.9733311e-06
3.8781847e-06
3.784827e-06
3.6933989e-06
3.6041444e-06
3.5174923e-06
3.4342125e-06
3.355715e-06
3.2846261e-06
3.2258292e-06
3.1883612e-06
3.1891239e-06
3.2604472e-06
3.4630982e-06
3.9098248e-06
4.8081561e-06
6.5370893e-06
9.7491691e-06
1.5466437e-05
2.5201713e-05
4.120482e-05
6.6400322e-05
0.00010385659
0.00015641095
0.00022801092
0.00031907573
0.00042884448
0.00055099948
0.00068328369
0.00082223497
0.00096396474
0.0011019368
0.0012382612
0.0013727603
0.0015046158
0.0016345592
0.001760016
0.0018799033
0.0019941881
0.0021025305
0.0022028809
0.0022961142
0.0023826456
0.0024623955
0.0025357372
0.0026032735
0.0026653118
0.002722093
0.0027741366
0.0028219435
0.0028658399
0.0029061307
0.0029430489
0.0029769294
0.0030081161
0.0030368188
0.0030629605
0.003088596
0.0031028715
8.9435662e-06
8.8095485e-06
8.6754417e-06
8.5413126e-06
8.4072249e-06
8.2732408e-06
8.1394218e-06
8.0058288e-06
7.8725219e-06
7.7395612e-06
7.6070063e-06
7.4749164e-06
7.34335e-06
7.212365e-06
7.0820184e-06
6.9523662e-06
6.8234631e-06
6.6953627e-06
6.5681171e-06
6.4417772e-06
6.3163925e-06
6.1920106e-06
6.0686774e-06
5.9464371e-06
5.8253322e-06
5.7054036e-06
5.5866903e-06
5.4692296e-06
5.3530571e-06
5.2382061e-06
5.1247083e-06
5.0125936e-06
4.90189e-06
4.7926238e-06
4.6848194e-06
4.5784994e-06
4.4736842e-06
4.3703926e-06
4.2686413e-06
4.1684459e-06
4.0698205e-06
3.9727777e-06
3.8773292e-06
3.7834867e-06
3.6912636e-06
3.6006775e-06
3.5117552e-06
3.4245413e-06
3.3391158e-06
3.2556292e-06
3.1743661e-06
3.0958648e-06
3.0211511e-06
2.9522207e-06
2.8929652e-06
2.8509164e-06
2.8406971e-06
2.8911784e-06
3.0595064e-06
3.4566698e-06
4.2946728e-06
5.9741801e-06
9.2043347e-06
1.5147974e-05
2.553437e-05
4.2973118e-05
7.0581781e-05
0.00011184162
0.00016988046
0.0002476954
0.00034436767
0.00045871615
0.00058361559
0.00071572857
0.00085218965
0.00098949283
0.0011229418
0.0012551734
0.0013854574
0.0015141323
0.0016400796
0.0017613313
0.0018772938
0.0019879855
0.0020916124
0.002188004
0.0022776489
0.0023606619
0.0024371003
0.0025074415
0.0025721275
0.0026314858
0.0026859911
0.002735996
0.0027818222
0.0028239129
0.0028626597
0.0028979906
0.0029323666
0.0029543688
8.9436305e-06
8.8096203e-06
8.6755191e-06
8.5413937e-06
8.4073081e-06
8.2733246e-06
8.1395052e-06
8.005911e-06
7.8726024e-06
7.7396396e-06
7.6070824e-06
7.47499e-06
7.3434209e-06
7.2124332e-06
7.0820838e-06
6.9524287e-06
6.8235227e-06
6.6954193e-06
6.5681708e-06
6.441828e-06
6.3164403e-06
6.1920555e-06
6.0687194e-06
5.9464763e-06
5.8253688e-06
5.7054375e-06
5.5867218e-06
5.4692588e-06
5.353084e-06
5.2382309e-06
5.1247311e-06
5.0126145e-06
4.9019091e-06
4.7926411e-06
4.6848348e-06
4.5785127e-06
4.473695e-06
4.3704004e-06
4.2686452e-06
4.1684443e-06
4.069811e-06
3.9727565e-06
3.87729e-06
3.7834191e-06
3.6911499e-06
3.6004873e-06
3.5114352e-06
3.4239968e-06
3.3381756e-06
3.2539779e-06
3.1714161e-06
3.0905164e-06
3.0113318e-06
2.9339712e-06
2.8586576e-06
2.7858384e-06
2.7164074e-06
2.6521702e-06
2.5968079e-06
2.5577832e-06
2.5501746e-06
2.6049123e-06
2.7855189e-06
3.2210932e-06
4.1671405e-06
6.1214714e-06
9.968964e-06
1.7176688e-05
2.9957509e-05
5.1393833e-05
8.4929007e-05
0.00013437102
0.0002033339
0.00029112586
0.00039697089
0.00051756962
0.00064502582
0.00077691285
0.000911009
0.0010433433
0.0011727289
0.0013011164
0.0014278098
0.0015529688
0.001674281
0.0017906701
0.0019020676
0.0020074111
0.0021055001
0.0021967933
0.0022815222
0.0023596755
0.0024317098
0.0024980005
0.0025588193
0.0026146546
0.0026660183
0.0027128784
0.0027580848
0.0027900703
8.9436972e-06
8.8096944e-06
8.675599e-06
8.5414775e-06
8.407394e-06
8.2734114e-06
8.1395918e-06
8.0059965e-06
7.8726863e-06
7.7397215e-06
7.607162e-06
7.4750671e-06
7.3434954e-06
7.2125049e-06
7.0821527e-06
6.9524947e-06
6.8235857e-06
6.6954793e-06
6.5682277e-06
6.4418819e-06
6.3164911e-06
6.1921032e-06
6.0687642e-06
5.9465182e-06
5.8254078e-06
5.7054739e-06
5.5867556e-06
5.4692902e-06
5.3531131e-06
5.2382579e-06
5.1247561e-06
5.0126377e-06
4.9019307e-06
4.7926611e-06
4.6848534e-06
4.57853e-06
4.4737111e-06
4.3704152e-06
4.2686589e-06
4.1684569e-06
4.0698224e-06
3.9727665e-06
3.8772983e-06
3.7834251e-06
3.6911528e-06
3.6004854e-06
3.5114257e-06
3.4239744e-06
3.3381309e-06
3.2538935e-06
3.1712594e-06
3.0902254e-06
3.0107883e-06
2.9329467e-06
2.8567049e-06
2.7820791e-06
2.7091112e-06
2.6378964e-06
2.5686443e-06
2.5018004e-06
2.4382974e-06
2.3800996e-06
2.3313752e-06
2.3009479e-06
2.3074244e-06
2.3907517e-06
2.635989e-06
3.2225167e-06
4.5182404e-06
7.2323238e-06
1.2613474e-05
2.2688142e-05
4.0500257e-05
6.9529987e-05
0.00011356612
0.00017697053
0.00025973673
0.00036062246
0.00047712387
0.00060216773
0.00073075673
0.00086156781
0.00099215894
0.0011195535
0.0012455305
0.0013700189
0.0014937284
0.0016142387
0.0017301806
0.0018413557
0.0019469719
0.002045408
0.0021371503
0.0022224352
0.0023011569
0.0023737085
0.0024406058
0.0025017726
0.0025603252
0.0026050301
8.943766e-06
8.8097706e-06
8.6756809e-06
8.5415633e-06
8.4074822e-06
8.2735007e-06
8.139681e-06
8.0060848e-06
7.8727732e-06
7.7398065e-06
7.6072447e-06
7.4751473e-06
7.343573e-06
7.2125797e-06
7.0822246e-06
6.9525636e-06
6.8236515e-06
6.695542e-06
6.5682874e-06
6.4419384e-06
6.3165445e-06
6.1921535e-06
6.0688114e-06
5.9465624e-06
5.8254492e-06
5.7055125e-06
5.5867916e-06
5.4693237e-06
5.3531442e-06
5.2382868e-06
5.124783e-06
5.0126628e-06
4.901954e-06
4.7926829e-06
4.6848737e-06
4.5785489e-06
4.4737288e-06
4.3704318e-06
4.2686744e-06
4.1684715e-06
4.069836e-06
3.9727792e-06
3.8773101e-06
3.7834362e-06
3.691163e-06
3.6004948e-06
3.511434e-06
3.4239815e-06
3.3381363e-06
3.2538963e-06
3.1712579e-06
3.0902162e-06
3.0107651e-06
2.9328969e-06
2.8566035e-06
2.7818766e-06
2.7087078e-06
2.637091e-06
2.5670258e-06
2.498525e-06
2.4316299e-06
2.3664443e-06
2.3032082e-06
2.2424575e-06
2.1853634e-06
2.1345123e-06
2.0956268e-06
2.0813341e-06
2.119639e-06
2.2728166e-06
2.678007e-06
3.6322297e-06
5.7510763e-06
1.0174126e-05
1.881263e-05
3.4729681e-05
6.1589245e-05
0.00010327639
0.00016429444
0.00024515533
0.0003440963
0.0004583075
0.00058204884
0.00070847221
0.00083651014
0.00096486161
0.0010902545
0.0012137799
0.0013361981
0.0014581825
0.0015772894
0.0016920813
0.0018022857
0.0019070941
0.0020048498
0.002095996
0.0021808584
0.0022589417
0.0023334084
0.0023938852
8.9438367e-06
8.8098484e-06
8.6757644e-06
8.5416509e-06
8.4075724e-06
8.2735921e-06
8.1397725e-06
8.0061756e-06
7.8728626e-06
7.739894e-06
7.6073301e-06
7.4752302e-06
7.3436533e-06
7.2126572e-06
7.0822992e-06
6.9526351e-06
6.82372e-06
6.6956074e-06
6.5683495e-06
6.4419974e-06
6.3166003e-06
6.1922062e-06
6.0688609e-06
5.9466089e-06
5.8254926e-06
5.7055531e-06
5.5868295e-06
5.469359e-06
5.3531772e-06
5.2383175e-06
5.1248116e-06
5.0126894e-06
4.9019788e-06
4.792706e-06
4.6848954e-06
4.5785691e-06
4.4737477e-06
4.3704495e-06
4.268691e-06
4.1684871e-06
4.0698507e-06
3.9727929e-06
3.877323e-06
3.7834483e-06
3.6911744e-06
3.6005054e-06
3.511444e-06
3.4239908e-06
3.338145e-06
3.2539043e-06
3.1712651e-06
3.0902226e-06
3.0107702e-06
2.9329002e-06
2.8566037e-06
2.781871e-06
2.708691e-06
2.6370518e-06
2.566941e-06
2.4983462e-06
2.4312556e-06
2.3656604e-06
2.3015591e-06
2.2389674e-06
2.1779394e-06
2.1186164e-06
2.0613389e-06
2.0068939e-06
1.9570851e-06
1.9160672e-06
1.8933972e-06
1.9110768e-06
2.0203476e-06
2.3388668e-06
3.1310815e-06
4.9770018e-06
9.0018483e-06
1.7148273e-05
3.2591826e-05
5.9245088e-05
0.00010116564
0.00016288672
0.00024462478
0.00034419411
0.00045805921
0.00058113493
0.00070591527
0.00083156855
0.0009574733
0.0010806948
0.0012019589
0.0013225571
0.0014426615
0.0015599237
0.0016730762
0.0017817188
0.0018849246
0.0019809319
0.0020729719
0.0021519326
8.9439092e-06
8.8099277e-06
8.6758494e-06
8.54174e-06
8.4076641e-06
8.2736852e-06
8.1398659e-06
8.0062685e-06
7.8729542e-06
7.7399839e-06
7.6074179e-06
7.4753156e-06
7.343736e-06
7.2127372e-06
7.0823762e-06
6.9527091e-06
6.8237908e-06
6.695675e-06
6.568414e-06
6.4420586e-06
6.3166583e-06
6.1922609e-06
6.0689124e-06
5.9466573e-06
5.825538e-06
5.7055956e-06
5.5868692e-06
5.4693961e-06
5.3532117e-06
5.2383497e-06
5.1248416e-06
5.0127174e-06
4.902005e-06
4.7927305e-06
4.6849183e-06
4.5785906e-06
4.4737678e-06
4.3704683e-06
4.2687087e-06
4.1685037e-06
4.0698663e-06
3.9728076e-06
3.8773368e-06
3.7834612e-06
3.6911865e-06
3.6005169e-06
3.5114547e-06
3.4240008e-06
3.3381544e-06
3.2539131e-06
3.1712734e-06
3.0902302e-06
3.0107773e-06
2.9329067e-06
2.8566097e-06
2.7818762e-06
2.7086952e-06
2.6370545e-06
2.5669409e-06
2.4983407e-06
2.4312391e-06
2.3656208e-06
2.3014702e-06
2.238772e-06
2.1775128e-06
2.1176833e-06
2.059286e-06
2.0023506e-06
1.9469695e-06
1.8933841e-06
1.8421871e-06
1.7947942e-06
1.7546083e-06
1.7298001e-06
1.7398548e-06
1.8320967e-06
2.1197742e-06
2.8673203e-06
4.6755612e-06
8.7507094e-06
1.7214607e-05
3.3523307e-05
6.1868149e-05
0.00010652314
0.00017149917
0.00025668688
0.00035893358
0.00047380497
0.00059641588
0.00071975175
0.00084334029
0.0009667664
0.0010877762
0.0012069282
0.00132595
0.0014440581
0.0015592435
0.0016701844
0.001779048
0.0018772675
8.9439831e-06
8.8100084e-06
8.6759356e-06
8.5418303e-06
8.4077572e-06
8.2737798e-06
8.139961e-06
8.0063631e-06
7.8730478e-06
7.7400759e-06
7.6075078e-06
7.4754032e-06
7.343821e-06
7.2128194e-06
7.0824554e-06
6.9527853e-06
6.8238639e-06
6.6957448e-06
6.5684805e-06
6.4421219e-06
6.3167183e-06
6.1923176e-06
6.0689659e-06
5.9467075e-06
5.8255852e-06
5.7056398e-06
5.5869106e-06
5.4694348e-06
5.3532478e-06
5.2383834e-06
5.1248731e-06
5.0127468e-06
4.9020324e-06
4.7927562e-06
4.6849423e-06
4.5786131e-06
4.4737888e-06
4.3704881e-06
4.2687272e-06
4.1685211e-06
4.0698827e-06
3.972823e-06
3.8773513e-06
3.7834748e-06
3.6911993e-06
3.6005289e-06
3.511466e-06
3.4240114e-06
3.3381643e-06
3.2539224e-06
3.1712821e-06
3.0902384e-06
3.0107849e-06
2.9329138e-06
2.8566162e-06
2.7818822e-06
2.7087008e-06
2.6370596e-06
2.5669455e-06
2.4983447e-06
2.4312422e-06
2.3656224e-06
2.3014688e-06
2.2387645e-06
2.177492e-06
2.1176335e-06
2.0591712e-06
2.0020888e-06
1.946373e-06
1.8920191e-06
1.8390441e-06
1.7875159e-06
1.7376289e-06
1.6898882e-06
1.6455533e-06
1.6077768e-06
1.5844435e-06
1.5951131e-06
1.6890996e-06
1.9891214e-06
2.7921772e-06
4.7878022e-06
9.3795286e-06
1.9051551e-05
3.7670328e-05
6.9747827e-05
0.00011977607
0.00019051517
0.00028108433
0.00038723377
0.00050368737
0.00062564171
0.00074750329
0.00086921092
0.000990194
0.0011089688
0.0012262619
0.0013436829
0.0014618952
0.0015741318
8.9440586e-06
8.8100903e-06
8.6760229e-06
8.5419217e-06
8.4078514e-06
8.2738757e-06
8.1400575e-06
8.0064594e-06
7.8731431e-06
7.7401696e-06
7.6075996e-06
7.4754927e-06
7.343908e-06
7.2129036e-06
7.0825367e-06
6.9528635e-06
6.8239389e-06
6.6958166e-06
6.568549e-06
6.442187e-06
6.3167801e-06
6.192376e-06
6.069021e-06
5.9467594e-06
5.825634e-06
5.7056856e-06
5.5869534e-06
5.4694749e-06
5.3532853e-06
5.2384184e-06
5.1249058e-06
5.0127773e-06
4.902061e-06
4.7927829e-06
4.6849673e-06
4.5786365e-06
4.4738109e-06
4.3705087e-06
4.2687467e-06
4.1685394e-06
4.0698999e-06
3.9728392e-06
3.8773665e-06
3.7834891e-06
3.6912128e-06
3.6005415e-06
3.5114778e-06
3.4240225e-06
3.3381747e-06
3.2539322e-06
3.1712912e-06
3.0902469e-06
3.0107929e-06
2.9329212e-06
2.8566231e-06
2.7818887e-06
2.7087067e-06
2.6370651e-06
2.5669506e-06
2.4983494e-06
2.4312465e-06
2.3656263e-06
2.3014722e-06
2.2387673e-06
2.1774939e-06
2.1176335e-06
2.0591674e-06
2.0020765e-06
1.9463413e-06
1.8919426e-06
1.8388619e-06
1.7870838e-06
1.7365999e-06
1.6874213e-06
1.6396062e-06
1.593334e-06
1.5490945e-06
1.5081615e-06
1.4738494e-06
1.4547801e-06
1.4732093e-06
1.5873345e-06
1.9472363e-06
2.927995e-06
5.4028687e-06
1.1128014e-05
2.3178449e-05
4.5912571e-05
8.410373e-05
0.00014227063
0.00022082915
0.00031791415
0.00042806244
0.00054603498
0.00066697234
0.00078725102
0.00090731997
0.0010256135
0.0011444896
0.0012604886
8.9441354e-06
8.8101734e-06
8.6761112e-06
8.5420141e-06
8.4079467e-06
8.2739727e-06
8.1401553e-06
8.006557e-06
7.8732399e-06
7.740265e-06
7.6076931e-06
7.475584e-06
7.3439968e-06
7.2129896e-06
7.0826198e-06
6.9529435e-06
6.8240157e-06
6.6958902e-06
6.5686193e-06
6.4422539e-06
6.3168436e-06
6.1924362e-06
6.0690778e-06
5.946813e-06
5.8256843e-06
5.7057329e-06
5.5869977e-06
5.4695163e-06
5.3533241e-06
5.2384546e-06
5.1249397e-06
5.012809e-06
4.9020907e-06
4.7928107e-06
4.6849934e-06
4.5786609e-06
4.4738337e-06
4.3705302e-06
4.2687668e-06
4.1685584e-06
4.0699177e-06
3.972856e-06
3.8773823e-06
3.783504e-06
3.6912267e-06
3.6005547e-06
3.5114902e-06
3.4240341e-06
3.3381856e-06
3.2539424e-06
3.1713008e-06
3.0902559e-06
3.0108012e-06
2.932929e-06
2.8566304e-06
2.7818954e-06
2.708713e-06
2.6370709e-06
2.566956e-06
2.4983543e-06
2.431251e-06
2.3656304e-06
2.301476e-06
2.2387708e-06
2.177497e-06
2.1176363e-06
2.0591698e-06
2.0020782e-06
1.9463417e-06
1.8919403e-06
1.8388534e-06
1.7870608e-06
1.7365418e-06
1.6872771e-06
1.63925e-06
1.592451e-06
1.5468897e-06
1.5026259e-06
1.4598508e-06
1.4191067e-06
1.3818596e-06
1.3520733e-06
1.3404616e-06
1.3758451e-06
1.5361331e-06
2.0281595e-06
3.3798192e-06
6.7929897e-06
1.460229e-05
3.0711336e-05
5.9874836e-05
0.00010704865
0.00017512163
0.00026299505
0.00036687781
0.00048049893
0.00059970229
0.00071884564
0.00083980492
0.00095732526
8.9442136e-06
8.8102575e-06
8.6762004e-06
8.5421074e-06
8.4080428e-06
8.2740707e-06
8.1402541e-06
8.0066559e-06
7.873338e-06
7.7403619e-06
7.6077882e-06
7.4756769e-06
7.3440872e-06
7.2130774e-06
7.0827047e-06
6.9530253e-06
6.8240943e-06
6.6959655e-06
6.5686912e-06
6.4423225e-06
6.3169088e-06
6.1924979e-06
6.0691362e-06
5.946868e-06
5.8257361e-06
5.7057815e-06
5.5870434e-06
5.4695591e-06
5.3533641e-06
5.2384921e-06
5.1249747e-06
5.0128418e-06
4.9021213e-06
4.7928394e-06
4.6850203e-06
4.5786862e-06
4.4738574e-06
4.3705524e-06
4.2687878e-06
4.168578e-06
4.0699362e-06
3.9728734e-06
3.8773986e-06
3.7835193e-06
3.6912412e-06
3.6005683e-06
3.511503e-06
3.4240461e-06
3.3381968e-06
3.2539529e-06
3.1713107e-06
3.0902651e-06
3.0108098e-06
2.932937e-06
2.8566379e-06
2.7819024e-06
2.7087194e-06
2.6370769e-06
2.5669615e-06
2.4983594e-06
2.4312558e-06
2.3656348e-06
2.30148e-06
2.2387745e-06
2.1775004e-06
2.1176394e-06
2.0591725e-06
2.0020807e-06
1.9463439e-06
1.8919421e-06
1.8388548e-06
1.7870611e-06
1.73654e-06
1.6872702e-06
1.6392307e-06
1.5924004e-06
1.5467593e-06
1.5022907e-06
1.4589856e-06
1.416857e-06
1.3759777e-06
1.3365831e-06
1.2993605e-06
1.2662367e-06
1.2426155e-06
1.2436253e-06
1.3116775e-06
1.5647953e-06
2.3231993e-06
4.4000028e-06
9.5474671e-06
2.1004331e-05
4.3452522e-05
8.1948167e-05
0.00014100016
0.00022051939
0.00031819805
0.00042752443
0.00054593024
0.00066446903
8.944293e-06
8.8103426e-06
8.6762905e-06
8.5422014e-06
8.4081398e-06
8.2741695e-06
8.1403539e-06
8.0067558e-06
7.8734373e-06
7.74046e-06
7.6078847e-06
7.4757713e-06
7.3441792e-06
7.2131667e-06
7.0827911e-06
6.9531087e-06
6.8241745e-06
6.6960424e-06
6.5687647e-06
6.4423926e-06
6.3169754e-06
6.1925611e-06
6.069196e-06
5.9469244e-06
5.8257892e-06
5.7058315e-06
5.5870903e-06
5.469603e-06
5.3534053e-06
5.2385306e-06
5.1250107e-06
5.0128755e-06
4.9021529e-06
4.792869e-06
4.6850481e-06
4.5787122e-06
4.4738819e-06
4.3705754e-06
4.2688093e-06
4.1685983e-06
4.0699553e-06
3.9728913e-06
3.8774155e-06
3.7835352e-06
3.6912561e-06
3.6005823e-06
3.5115162e-06
3.4240585e-06
3.3382085e-06
3.2539638e-06
3.1713209e-06
3.0902746e-06
3.0108187e-06
2.9329453e-06
2.8566456e-06
2.7819095e-06
2.7087261e-06
2.637083e-06
2.5669672e-06
2.4983647e-06
2.4312606e-06
2.3656392e-06
2.3014841e-06
2.2387782e-06
2.1775038e-06