/*--------------------------------*- C++ -*----------------------------------*\
  =========                 |
  \\      /  F ield         | OpenFOAM: The Open Source CFD Toolbox
   \\    /   O peration     | Website:  https://openfoam.org
    \\  /    A nd           | Version:  12
     \\/     M anipulation  |
\*---------------------------------------------------------------------------*/
FoamFile
{
    format      ascii;
    class       volScalarField;
    location    "400";
    object      omega;
}
// * * * * * * * * * * * * * * * * * * * * * * * * * * * * * * * * * * * * * //

dimensions      [0 0 -1 0 0 0 0];

internalField   nonuniform List<scalar> 
7480
(
99.668428
99.668428
99.668428
99.668428
467.2634
658.56525
782.36823
862.95912
913.96453
944.60884
961.5474
969.16199
970.40758
967.30798
961.27669
953.30585
944.10464
934.24196
924.34916
914.49104
904.79863
895.31134
886.18277
877.5587
869.54494
862.2139
855.6033
849.71492
844.52199
839.97706
836.01805
832.57741
829.59594
827.02399
824.79991
822.85018
821.09642
819.47274
817.93104
816.43716
814.96036
813.47258
811.95208
810.38251
808.7556
807.06806
805.31651
803.49013
801.57832
799.58171
797.50964
795.37112
793.17352
790.92926
788.65767
786.37471
784.08568
781.79146
779.49664
777.20859
774.93071
772.66509
770.41763
768.19447
765.99617
763.8224
761.67368
759.54699
757.43696
755.34303
753.26859
751.21341
749.17776
747.16661
745.17811
743.20695
741.25355
739.31681
737.39497
735.49176
733.60857
731.74331
729.89632
728.06513
726.24748
724.44549
722.66022
720.89179
719.13857
717.39862
715.67255
713.95986
712.26134
710.5747
708.90175
707.2238
705.60105
703.86204
702.32819
699.99419
53.580609
53.534848
53.495612
53.439864
60.46593
74.60438
96.918717
126.88596
163.04499
203.17133
244.36791
284.24283
318.84331
346.78514
369.57398
388.70588
404.51774
415.60938
423.1415
426.10463
427.70601
430.61211
434.65456
439.15751
443.5643
447.3395
450.10079
451.63066
451.83441
450.7199
448.38174
444.98918
440.77462
436.04084
430.90855
425.36682
419.35698
413.11612
406.80684
400.54624
394.43306
388.54308
382.92798
377.60562
372.57665
367.83751
363.38274
359.25388
355.43869
351.91373
348.65625
345.64182
342.84191
340.2256
337.76891
335.4495
333.24147
331.12981
329.10401
327.15921
325.29332
323.49972
321.77017
320.09878
318.48159
316.91185
315.37943
313.88201
312.41954
310.99166
309.59989
308.24609
306.92649
305.63964
304.38446
303.15511
301.94937
300.77015
299.61661
298.48772
297.38537
296.30617
295.24695
294.20836
293.18916
292.18926
291.20951
290.24835
289.30462
288.3766
287.4642
286.56801
285.68733
284.82081
283.96941
283.12438
282.30317
281.48132
280.744
279.43422
52.974078
52.262006
51.558291
50.862852
50.289264
50.016542
50.328553
51.531136
53.89417
57.794663
63.497656
71.146966
80.695827
91.942121
104.62248
118.44059
133.06818
147.69271
160.98613
172.87689
183.72003
194.3019
205.1376
216.59884
228.96583
240.3917
249.98594
257.91323
264.26114
269.05357
272.25412
273.76906
273.51645
271.63255
268.5747
265.10572
261.95913
258.98358
256.06847
253.12222
250.15616
247.20932
244.19151
240.96161
237.60986
234.21065
230.82746
227.53208
224.39258
221.41523
218.59327
215.91751
213.38064
210.97945
208.71029
206.57567
204.5764
202.69533
200.91752
199.23344
197.63609
196.11629
194.66366
193.26963
191.92895
190.63597
189.3822
188.16772
186.99338
185.85836
184.76171
183.70252
182.67704
181.68285
180.71617
179.77339
178.85417
177.96054
177.09221
176.24796
175.42805
174.62892
173.84762
173.08471
172.34017
171.61399
170.9064
170.2155
169.53975
168.87819
168.23095
167.59852
166.98027
166.3748
165.7819
165.19871
164.62914
164.07357
163.56179
162.79145
52.965319
52.234261
51.502326
50.770029
50.039414
49.315206
48.606973
47.930663
47.309064
46.780322
46.392933
46.2044
46.277317
46.674884
47.459841
48.69713
50.45937
52.80401
55.761154
59.359188
63.631246
68.638997
74.467238
81.221357
89.025378
97.348226
106.06227
115.07655
124.34443
133.86359
143.66865
153.79947
162.76203
170.00381
175.63654
179.92044
183.16386
185.40908
186.67287
186.93699
186.22644
184.69804
182.81677
181.0019
179.15931
177.22693
175.21627
173.17721
171.12096
168.90355
166.59711
164.25931
161.93833
159.67959
157.49652
155.38792
153.36309
151.42869
149.58821
147.84344
146.18848
144.61251
143.1047
141.65876
140.27284
138.94568
137.68261
136.47639
135.32212
134.21584
133.15409
132.13348
131.14961
130.1996
129.27996
128.38946
127.52827
126.69684
125.89401
125.11789
124.36755
123.63901
122.93008
122.24159
121.57371
120.92605
120.29825
119.68789
119.09326
118.51397
117.95025
117.40232
116.86934
116.34958
115.84263
115.34733
114.86485
114.3971
113.96841
113.37232
52.965367
52.233892
51.501206
50.767642
50.033529
49.299252
48.565309
47.832498
47.101944
46.375397
45.655468
44.945897
44.251805
43.579799
42.938098
42.336982
41.789101
41.310155
40.917831
40.632203
40.475694
40.475194
40.664211
41.08503
41.795213
42.849315
44.310077
46.253161
48.773051
51.988536
56.04783
61.137566
67.351382
74.200698
81.596572
89.489343
97.885803
106.8242
115.66848
123.16417
129.20213
133.76103
137.05075
139.39707
140.88574
141.55915
141.4783
140.74185
139.61394
138.43077
137.12595
135.68998
134.16205
132.62115
131.00555
129.27188
127.47265
125.66008
123.88155
122.15733
120.47993
118.84586
117.25716
115.72204
114.24625
112.82775
111.46907
110.1696
108.92828
107.7421
106.60625
105.51541
104.46585
103.45516
102.48901
101.56496
100.67883
99.828184
99.010455
98.22292
97.463686
96.729906
96.020808
95.336747
94.676947
94.040211
93.425489
92.830076
92.252639
91.69317
91.151626
90.627695
90.120188
89.627151
89.14834
88.683185
88.231976
87.795444
87.39658
86.873721
52.965617
52.234173
51.501488
50.767873
50.033629
49.299071
48.564512
47.830271
47.096687
46.364118
45.63296
44.903664
44.176763
43.452895
42.732831
42.017515
41.30812
40.606103
39.913283
39.231899
38.564653
37.914804
37.286265
36.684078
36.114985
35.587658
35.113542
34.706859
34.386496
34.177916
34.115718
34.248448
34.640946
35.361688
36.499989
38.178636
40.569947
43.913491
48.50009
54.360358
61.060207
68.464024
76.458817
84.812246
92.494304
98.957308
104.10743
107.89989
110.48017
112.23426
113.24451
113.59034
113.36308
112.69777
111.87402
110.94505
109.88766
108.72385
107.5179
106.26359
104.89723
103.4675
102.0162
100.57988
99.167053
97.770302
96.389869
95.040893
93.736625
92.4783
91.262688
90.087583
88.954406
87.863094
86.81718
85.816282
84.857982
83.940173
83.05978
82.213488
81.398831
80.619216
79.873382
79.158355
78.471616
77.811147
77.175186
76.561818
75.970542
75.400994
74.852278
74.323376
73.812761
73.318671
72.8411
72.379482
71.933446
71.502631
71.108755
70.616858
52.965909
52.234507
51.501832
50.768213
50.033958
49.299382
48.564798
47.830514
47.096841
46.364097
45.632596
44.902654
44.174601
43.448766
42.725477
42.00507
41.287892
40.574304
39.864689
39.159456
38.459052
37.76396
37.07472
36.391944
35.716366
35.048873
34.390566
33.742821
33.107425
32.486781
31.884162
31.303956
30.752682
30.239154
29.776156
29.382459
29.085743
28.928134
28.974603
29.312861
30.047373
31.325457
33.362008
36.454857
40.952232
46.672745
53.269589
60.542112
68.152343
75.117115
80.97697
85.665274
89.161665
91.505203
93.006034
93.883869
94.221431
94.100229
93.627476
92.997239
92.267585
91.430334
90.512453
89.560907
88.544547
87.431243
86.25664
85.060766
83.867016
82.671168
81.478278
80.300585
79.150126
78.029776
76.937102
75.875516
74.850665
73.864451
72.914991
72.000277
71.119482
70.275686
69.468891
68.696613
67.95639
67.246044
66.563137
65.909479
65.284615
64.685802
64.110872
63.558166
63.026172
62.514076
62.021633
61.547713
61.091243
60.651102
60.24795
59.764292
52.966232
52.234878
51.502229
50.768623
50.034371
49.29979
48.565194
47.830891
47.097196
46.364425
45.632892
44.902915
44.174808
43.448888
42.725464
42.004845
41.287332
40.573223
39.862814
39.156395
38.454253
37.756672
37.063928
36.376298
35.694058
35.017488
34.346876
33.68252
33.024738
32.373878
31.730339
31.094593
30.467246
29.849079
29.241145
28.64493
28.062621
27.497564
26.955106
26.44327
25.974208
25.567256
25.254439
25.087385
25.149158
25.54858
26.431245
28.013655
30.612889
34.614481
39.833934
45.931286
52.67186
59.359316
65.219439
70.02759
73.772013
76.489086
78.243191
79.279457
79.833231
79.981041
79.79855
79.38686
78.873921
78.268596
77.573439
76.821143
76.031161
75.131582
74.162894
73.163257
72.152575
71.130145
70.096531
69.064097
68.046697
67.049149
66.073132
65.12228
64.20075
63.308339
62.446354
61.616671
60.819633
60.053947
59.317579
58.612296
57.938586
57.294051
56.676341
56.083606
55.515228
54.972618
54.453314
53.955198
53.476513
53.015982
52.593812
52.103055
52.966574
52.235272
51.502654
50.769064
50.034819
49.300234
48.565627
47.831312
47.097602
46.364816
45.633268
44.903276
44.175154
43.449217
42.725775
42.005132
41.287591
40.573446
39.862988
39.156501
38.454264
37.756547
37.063611
36.375711
35.693093
35.015997
34.344656
33.679295
33.020133
32.367381
31.721244
31.081924
30.449625
29.824551
29.206916
28.596952
27.994924
27.401152
26.81607
26.240292
25.674716
25.120718
24.58054
24.057977
23.559691
23.096201
22.684539
22.354849
22.159579
22.187027
22.556079
23.432613
25.071886
27.84265
32.024452
37.172302
43.064481
49.140269
54.683879
59.248529
62.816297
65.450298
67.235402
68.290412
68.855662
69.086112
69.037971
68.768724
68.384849
67.917212
67.363233
66.749317
66.092751
65.351915
64.540995
63.691782
62.820399
61.926432
61.018764
60.111205
59.213888
58.326724
57.453267
56.60068
55.772972
54.970931
54.19534
53.44686
52.726693
52.035041
51.371377
50.73455
50.123831
49.540607
48.983324
48.449835
47.937793
47.447197
46.998501
46.487009
52.966931
52.235681
51.503097
50.769525
50.035288
49.300702
48.566089
47.831764
47.098042
46.365242
45.63368
44.903672
44.175535
43.449581
42.726121
42.005461
41.287902
40.573739
39.863262
39.156756
38.454499
37.756759
37.063799
36.375871
35.69322
35.016083
34.344691
33.679264
33.020014
32.367143
31.720845
31.081306
30.448702
29.823201
29.204966
28.594148
27.990891
27.395334
26.807611
26.227861
25.656231
25.092886
24.538032
23.991953
23.455093
22.928161
22.412322
21.909606
21.423702
20.961514
20.53477
20.162975
19.882917
19.761515
19.907993
20.46603
21.659634
23.829355
27.383356
31.926539
37.234591
42.70441
47.696126
51.830814
55.005818
57.322953
58.893559
59.826943
60.298833
60.502832
60.480782
60.272975
59.963455
59.57758
59.116389
58.597463
58.033595
57.385651
56.678529
55.936641
55.171637
54.3819
53.57822
52.772584
51.97087
51.177441
50.39857
49.637161
48.894703
48.174116
47.478038
46.806929
46.16021
45.538275
44.94205
44.370769
43.822546
43.296656
42.815419
42.266444
52.967299
52.236101
51.503552
50.770001
50.035773
49.30119
48.566571
47.832237
47.098505
46.365691
45.634115
44.904093
44.17594
43.449971
42.726495
42.005819
41.288243
40.574064
39.863571
39.157048
38.454774
37.757018
37.064041
36.376096
35.693428
35.016275
34.344867
33.679423
33.020156
32.367268
31.720951
31.08139
30.44876
29.823227
29.20495
28.594075
27.990739
27.395071
26.807187
26.227197
25.655205
25.091302
24.535575
23.988103
23.448968
22.918259
22.396083
21.88259
21.378017
20.882778
20.397616
19.923845
19.463937
19.022728
18.609618
18.240378
17.944493
17.77988
17.850884
18.29794
19.343932
21.334573
24.627557
28.891471
33.870358
38.78878
43.139504
46.681957
49.319972
51.187101
52.417385
53.126013
53.468606
53.58943
53.537766
53.345389
53.071834
52.728428
52.319643
51.857093
51.347173
50.761645
50.130791
49.468561
48.778007
48.067777
47.349609
46.62927
45.909917
45.198138
44.499829
43.817591
43.153339
42.508558
41.885204
41.28451
40.706471
40.148652
39.636057
39.045216
52.967677
52.23653
51.504017
50.770488
50.036272
49.301691
48.56707
47.832728
47.098985
46.366159
45.634569
44.904533
44.176365
43.450381
42.726889
42.006196
41.288604
40.574408
39.863898
39.157358
38.455067
37.757293
37.064299
36.376338
35.693655
35.016487
34.345064
33.679606
33.020326
32.367425
31.721097
31.081524
30.448884
29.823341
29.205054
28.594169
27.990822
27.395141
26.807242
26.227234
25.655216
25.091277
24.535495
23.98794
23.448673
22.917745
22.395206
21.881092
21.375441
20.878289
20.389688
19.909716
19.438511
18.976343
18.523751
18.081765
17.652376
17.239663
16.852087
16.504851
16.226579
16.076394
16.16164
16.636648
17.754185
19.905949
23.241571
27.472419
32.097304
36.429756
40.081112
42.93125
44.965044
46.33574
47.193481
47.657043
47.849371
47.882269
47.78114
47.584866
47.322499
46.998197
46.618612
46.193166
45.704421
45.163094
44.58581
43.979616
43.349323
42.705038
42.054462
41.402358
40.754868
40.11614
39.489068
38.877311
38.28357
37.705482
37.170984
36.549347
52.968064
52.236966
51.50449
50.770983
50.03678
49.302204
48.56758
47.833232
47.09948
46.366642
45.635039
44.904989
44.176806
43.450806
42.727299
42.00659
41.288981
40.574767
39.864241
39.157684
38.455375
37.757585
37.064574
36.376596
35.693897
35.016713
34.345276
33.679805
33.020511
32.367598
31.721258
31.081675
30.449024
29.823472
29.205177
28.594283
27.990929
27.395241
26.807336
26.227321
25.655296
25.09135
24.535561
23.987997
23.448718
22.917775
22.395211
21.88106
21.375345
20.878085
20.38929
19.908965
19.437112
18.973731
18.518831
18.072448
17.634669
17.205699
16.786
16.376532
15.979242
15.598325
15.24278
14.929452
14.692294
14.603503
14.785343
15.43015
16.854457
19.471969
23.045363
27.306993
31.462243
35.044578
37.890921
39.984437
41.39081
42.286448
42.801412
43.049843
43.111646
43.0626
42.917149
42.708452
42.443217
42.125019
41.758621
41.343026
40.871799
40.361552
39.821596
39.256654
38.676407
38.087494
37.494174
36.902867
36.318957
35.741607
35.202246
34.567707
52.968458
52.237408
51.504968
50.771485
50.037295
49.302725
48.568102
47.833748
47.099987
46.367138
45.635523
44.905458
44.177261
43.451246
42.727722
42.006996
41.289371
40.57514
39.864596
39.158022
38.455696
37.757888
37.06486
36.376866
35.69415
35.016951
34.345499
33.680013
33.020706
32.36778
31.721428
31.081834
30.449174
29.823613
29.205308
28.594407
27.991045
27.39535
26.807438
26.227418
25.655387
25.091436
24.535641
23.988072
23.448788
22.91784
22.395271
21.881114
21.375393
20.878124
20.389315
19.908968
19.437076
18.973626
18.518596
18.071963
17.6337
17.203778
16.782182
16.368919
15.964055
15.567784
15.180596
14.803565
14.439015
14.092255
13.774765
13.508349
13.34262
13.378547
13.772124
14.796723
16.89629
20.004476
23.891915
27.801149
31.232866
33.967815
35.98837
37.358302
38.219817
38.726564
38.979601
39.058544
39.027058
38.909581
38.735782
38.510695
38.236592
37.914893
37.550296
37.130798
36.673068
36.186799
35.675692
35.148314
34.612081
34.067986
33.550616
32.929035
52.96886
52.237856
51.505451
50.771993
50.037817
49.303255
48.568631
47.834274
47.100505
46.367646
45.636018
44.90594
44.177728
43.451697
42.728157
42.007415
41.289772
40.575525
39.864963
39.158372
38.456028
37.758203
37.065157
36.377145
35.694413
35.017199
34.345731
33.680231
33.02091
32.367971
31.721607
31.082002
30.449331
29.823761
29.205448
28.594538
27.991169
27.395467
26.807548
26.227521
25.655485
25.091528
24.535728
23.988154
23.448866
22.917913
22.39534
21.881179
21.375454
20.87818
20.389367
19.909016
19.437119
18.973662
18.518622
18.071973
17.633681
17.203705
16.782
16.368519
15.963212
15.56603
15.17694
14.795939
14.423101
14.058676
13.703317
13.358491
13.027661
12.719026
12.44948
12.255913
12.223546
12.492465
13.310251
15.098285
17.917816
21.523735
25.174716
28.38853
30.929154
32.786806
34.042457
34.821669
35.27573
35.500364
35.575853
35.544434
35.441399
35.289238
35.090597
34.845745
34.5562
34.227188
33.846411
33.429294
32.985792
32.516112
32.056183
31.48387
52.969268
52.238308
51.505938
50.772505
50.038345
49.30379
48.569169
47.834808
47.101032
46.368163
45.636523
44.906432
44.178206
43.45216
42.728604
42.007845
41.290185
40.57592
39.865341
39.158732
38.45637
37.758527
37.065464
36.377434
35.694686
35.017455
34.345971
33.680456
33.021122
32.36817
31.721793
31.082177
30.449496
29.823915
29.205593
28.594675
27.991298
27.395588
26.807663
26.22763
25.655588
25.091625
24.53582
23.988241
23.448948
22.917991
22.395413
21.881248
21.375519
20.878241
20.389425
19.90907
19.43717
18.973709
18.518666
18.072013
17.633716
17.203735
16.782022
16.368527
15.963193
15.565958
15.176758
14.795525
14.422194
14.056704
13.699015
13.34914
13.007209
12.673647
12.349524
12.037402
11.743758
11.482978
11.286295
11.230238
11.450826
12.190979
13.876125
16.555299
19.953506
23.350049
26.287018
28.566193
30.197506
31.282577
31.943533
32.319003
32.498862
32.554377
32.514769
32.417457
32.276634
32.094237
31.868052
31.601425
31.296742
30.942054
30.577401
30.099236
52.969683
52.238765
51.506429
50.773021
50.038877
49.304331
48.569712
47.835349
47.101567
46.368689
45.637038
44.906934
44.178694
43.452632
42.72906
42.008285
41.290608
40.576325
39.865728
39.159101
38.456721
37.75886
37.065779
36.377732
35.694966
35.017719
34.346219
33.68069
33.02134
32.368375
31.721986
31.082358
30.449666
29.824075
29.205744
28.594817
27.991432
27.395715
26.807782
26.227743
25.655695
25.091726
24.535916
23.988331
23.449033
22.918072
22.39549
21.88132
21.375587
20.878306
20.389485
19.909127
19.437223
18.973759
18.518713
18.072057
17.633757
17.203773
16.782057
16.368559
15.963221
15.565982
15.176773
14.795526
14.422165
14.056612
13.698787
13.34861
13.006005
12.67091
12.343304
12.023256
11.711077
11.407643
11.11512
10.839232
10.593505
10.4081
10.360033
10.589498
11.354031
13.105371
15.766327
18.985673
22.102956
24.71794
26.685943
28.051666
28.937064
29.463565
29.751608
29.881899
29.909621
29.857055
29.760036
29.624008
29.451167
29.23445
29.000966
28.6643
52.970104
52.239226
51.506924
50.77354
50.039413
49.304877
48.570262
47.835897
47.102109
46.369223
45.637562
44.907445
44.179191
43.453114
42.729526
42.008734
41.29104
40.576739
39.866124
39.159479
38.457081
37.759201
37.066102
36.378037
35.695254
35.01799
34.346475
33.680929
33.021566
32.368586
31.722184
31.082544
30.449841
29.824241
29.205899
28.594963
27.99157
27.395845
26.807906
26.22786
25.655805
25.091831
24.536014
23.988425
23.449122
22.918156
22.395569
21.881395
21.375657
20.878372
20.389548
19.909186
19.437279
18.973811
18.518762
18.072103
17.6338
17.203813
16.782095
16.368594
15.963254
15.566012
15.176801
14.795551
14.422187
14.056628
13.698794
13.348599
13.005953
12.670768
12.342952
12.02242
11.709097
11.40294
11.103994
10.812521
10.529329
10.256519
9.9998863
9.7735394
9.6105898
9.5977774
9.8901458
10.78274
12.671759
15.417952
18.4655
21.262012
23.505876
25.128781
26.214285
26.89642
27.290116
27.492868
27.575078
27.572702
27.506076
27.405401
27.282348
27.096193
52.970531
52.239691
51.507421
50.774062
50.039952
49.305426
48.570816
47.836451
47.102659
46.369765
45.638093
44.907964
44.179696
43.453605
42.730001
42.009192
41.29148
40.577162
39.866529
39.159865
38.457449
37.759551
37.066433
36.37835
35.695549
35.018268
34.346737
33.681176
33.021797
32.368803
31.722388
31.082736
30.450021
29.82441
29.206059
28.595114
27.991712
27.395979
26.808033
26.22798
25.655919
25.091938
24.536116
23.988521
23.449213
22.918242
22.39565
21.881472
21.37573
20.878441
20.389613
19.909247
19.437336
18.973865
18.518812
18.07215
17.633845
17.203855
16.782134
16.36863
15.963287
15.566043
15.17683
14.795578
14.422212
14.056651
13.698815
13.348617
13.005968
12.670776
12.342947
12.022386
11.708994
11.402674
11.103332
10.810887
10.525288
10.246573
9.9750079
9.7114515
9.4582373
9.222086
9.0193852
8.8916888
8.9415435
9.360646
10.516687
12.632265
15.442507
18.266645
20.673561
22.505135
23.770961
24.586839
25.081264
25.354435
25.480497
25.518252
25.495815
25.425349
52.970964
52.240161
51.507922
50.774587
50.040495
49.30598
48.571374
47.83701
47.103214
46.370313
45.638631
44.908491
44.18021
43.454103
42.730484
42.009658
41.291929
40.577593
39.866942
39.160259
38.457824
37.759907
37.066771
36.37867
35.695851
35.018553
34.347005
33.681428
33.022034
32.369026
31.722598
31.082933
30.450206
29.824585
29.206223
28.595269
27.991858
27.396117
26.808163
26.228103
25.656035
25.092048
24.53622
23.98862
23.449306
22.91833
22.395734
21.881551
21.375804
20.878511
20.389679
19.90931
19.437395
18.97392
18.518864
18.072199
17.63389
17.203897
16.782174
16.368667
15.963322
15.566075
15.17686
14.795606
14.422237
14.056675
13.698837
13.348637
13.005986
12.670793
12.342962
12.022398
11.709001
11.40267
11.103304
10.8108
10.525056
10.245974
9.9734684
9.7074923
9.4480953
9.1956056
8.951068
8.7174753
8.5034692
8.330362
8.2580422
8.4162985
9.0606514
10.609771
12.992546
15.700639
18.190647
20.168098
21.585269
22.518457
23.098495
23.432171
23.611968
23.690637
52.971403
52.240635
51.508426
50.775115
50.04104
49.306536
48.571937
47.837573
47.103774
46.370867
45.639176
44.909024
44.18073
43.454609
42.730974
42.010132
41.292385
40.578032
39.867362
39.160661
38.458207
37.760271
37.067116
36.378997
35.69616
35.018844
34.347279
33.681686
33.022277
32.369254
31.722812
31.083134
30.450396
29.824763
29.206391
28.595427
27.992007
27.396258
26.808296
26.228229
25.656154
25.092161
24.536327
23.98872
23.449401
22.91842
22.395819
21.881631
21.375881
20.878583
20.389747
19.909373
19.437455
18.973977
18.518917
18.072249
17.633937
17.203941
16.782214
16.368705
15.963357
15.566108
15.176891
14.795634
14.422264
14.0567
13.69886
13.348658
13.006006
12.67081
12.342978
12.022413
11.709014
11.402682
11.103314
10.810805
10.525051
10.245947
9.9733844
9.7072597
9.4474742
9.1939447
8.9466354
8.705639
8.4714209
8.2454219
8.0320884
7.8439008
7.7133901
7.7313455
8.0773917
9.1155961
11.050003
13.571212
16.057938
18.120349
19.647247
20.674056
21.330516
21.73111
52.971848
52.241113
51.508932
50.775645
50.041588
49.307096
48.572503
47.83814
47.104339
46.371426
45.639727
44.909564
44.181257
43.455123
42.731472
42.010613
41.292849
40.578478
39.86779
39.16107
38.458597
37.760642
37.067468
36.37933
35.696475
35.019142
34.347559
33.68195
33.022525
32.369487
31.723031
31.08334
30.45059
29.824946
29.206563
28.595589
27.99216
27.396402
26.808432
26.228358
25.656276
25.092276
24.536436
23.988823
23.449499
22.918512
22.395906
21.881713
21.375958
20.878656
20.389816
19.909438
19.437516
18.974034
18.518971
18.072299
17.633984
17.203985
16.782255
16.368744
15.963393
15.566142
15.176922
14.795663
14.42229
14.056724
13.698882
13.348679
13.006025
12.670828
12.342995
12.022428
11.709028
11.402694
11.103325
10.810815
10.52506
10.245953
9.9733867
9.7072527
9.4474433
9.1938502
8.9463684
8.7049011
8.4693739
8.2397781
8.0163007
7.7996938
7.5922834
7.4014558
7.2468289
7.1871323
7.3556031
8.0271185
9.5735527
11.863278
14.26951
16.358327
17.957321
19.080724
52.972298
52.241595
51.509442
50.776178
50.042137
49.307657
48.573071
47.838711
47.104908
46.37199
45.640283
44.91011
44.181791
43.455642
42.731976
42.011101
41.29332
40.578931
39.868224
39.161486
38.458994
37.76102
37.067827
36.37967
35.696796
35.019445
34.347845
33.682219
33.022778
32.369726
31.723255
31.083551
30.450788
29.825132
29.206739
28.595755
27.992316
27.396549
26.808571
26.228489
25.6564
25.092393
24.536546
23.988928
23.449597
22.918606
22.395994
21.881797
21.376037
20.87873
20.389886
19.909504
19.437578
18.974092
18.519025
18.07235
17.634032
17.204029
16.782297
16.368783
15.963429
15.566175
15.176953
14.795692
14.422317
14.056749
13.698905
13.3487
13.006044
12.670846
12.343011
12.022443
11.709041
11.402707
11.103336
10.810826
10.525069
10.245961
9.9733938
9.7072585
9.447447
9.1938496
8.946357
8.7048607
8.4692524
8.239429
8.0152994
7.7968092
7.5840106
7.377291
7.1779761
6.99048
6.8278568
6.7272595
6.7917107
7.2365656
8.4694121
10.473587
12.785449
14.909618
52.972754
52.24208
51.509955
50.776712
50.042689
49.308221
48.573642
47.839286
47.105481
46.372559
45.640844
44.910661
44.18233
43.456168
42.732487
42.011596
41.293798
40.57939
39.868665
39.161908
38.459397
37.761404
37.068192
36.380016
35.697124
35.019754
34.348137
33.682493
33.023036
32.369969
31.723484
31.083766
30.45099
29.825322
29.206918
28.595923
27.992475
27.396699
26.808713
26.228622
25.656526
25.092513
24.536659
23.989034
23.449698
22.918701
22.396084
21.881881
21.376116
20.878805
20.389956
19.90957
19.43764
18.97415
18.51908
18.072401
17.63408
17.204074
16.782339
16.368822
15.963466
15.566209
15.176984
14.795721
14.422344
14.056774
13.698928
13.348721
13.006064
12.670864
12.343027
12.022457
11.709055
11.402719
11.103347
10.810836
10.525078
10.245969
9.9734009
9.7072648
9.4474524
9.1938541
8.9463603
8.7048617
8.4692482
8.2394105
8.0152406
7.7966322
7.5834871
7.375728
7.1733419
6.97652
6.7860763
6.6047323
6.4415279
6.3220164
6.3276144
6.6256307
7.6797788
9.4415647
52.973215
52.24257
51.51047
50.777249
50.043243
49.308787
48.574216
47.839862
47.106058
46.373131
45.64141
44.911217
44.182875
43.456699
42.733003
42.012096
41.294281
40.579856
39.869112
39.162337
38.459807
37.761794
37.068562
36.380367
35.697456
35.020068
34.348433
33.682773
33.0233
32.370216
31.723716
31.083985
30.451196
29.825516
29.2071
28.596095
27.992637
27.396852
26.808856
26.228758
25.656655
25.092634
24.536773
23.989142
23.4498
22.918797
22.396175
21.881967
21.376197
20.878881
20.390028
19.909638
19.437703
18.974209
18.519135
18.072453
17.634128
17.204119
16.782381
16.368861
15.963502
15.566242
15.177015
14.79575
14.42237
14.056798
13.698951
13.348742
13.006083
12.670881
12.343043
12.022472
11.709068
11.402731
11.103358
10.810845
10.525087
10.245977
9.9734076
9.7072707
9.4474575
9.1938585
8.946364
8.7048647
8.4692504
8.2394114
8.0152386
7.7966228
7.5834561
7.375632
7.173049
6.9756193
6.7832962
6.5961636
6.4147406
6.2408409
6.0811363
5.9537354
5.9470475
6.1469847
52.973681
52.243064
51.510988
50.777788
50.043799
49.309355
48.574791
47.840442
47.106637
46.373707
45.641979
44.911778
44.183424
43.457235
42.733525
42.012602
41.29477
40.580327
39.869566
39.162771
38.460222
37.76219
37.068939
36.380725
35.697795
35.020388
34.348735
33.683057
33.023567
32.370468
31.723953
31.084207
30.451406
29.825713
29.207286
28.59627
27.992801
27.397007
26.809003
26.228896
25.656785
25.092757
24.536889
23.989252
23.449903
22.918894
22.396267
21.882053
21.376278
20.878958
20.3901
19.909705
19.437766
18.974269
18.519191
18.072505
17.634176
17.204164
16.782423
16.368899
15.963538
15.566276
15.177046
14.795778
14.422397
14.056823
13.698973
13.348762
13.006101
12.670898
12.343058
12.022486
11.709081
11.402742
11.103368
10.810854
10.525095
10.245984
9.9734139
9.7072761
9.4474621
9.1938624
8.9463673
8.7048674
8.4692524
8.2394129
8.0152395
7.7966228
7.5834545
7.3756262
7.1730309
6.9755631
6.7831202
6.5956092
6.4129659
6.2352159
6.0627162
5.8967055
5.7452586
5.6149666
52.974152
52.243561
51.511509
50.778329
50.044355
49.309924
48.575368
47.841023
47.107218
46.374285
45.642552
44.912342
44.183977
43.457776
42.734052
42.013113
41.295265
40.580804
39.870024
39.163211
38.460642
37.762591
37.069321
36.381087
35.698138
35.020713
34.349042
33.683347
33.02384
32.370724
31.724194
31.084434
30.451619
29.825914
29.207475
28.596447
27.992969
27.397164
26.809151
26.229036
25.656917
25.092881
24.537007
23.989362
23.450007
22.918993
22.396359
21.88214
21.37636
20.879035
20.390172
19.909773
19.43783
18.974328
18.519247
18.072557
17.634225
17.204209
16.782464
16.368938
15.963574
15.566309
15.177077
14.795806
14.422423
14.056846
13.698995
13.348782
13.006119
12.670915
12.343073
12.022499
11.709093
11.402753
11.103378
10.810863
10.525102
10.24599
9.9734194
9.7072808
9.4474661
9.1938657
8.9463699
8.7048694
8.4692539
8.2394139
8.01524
7.7966229
7.583454
7.3756252
7.1730289
6.9755585
6.7831081
6.5955733
6.4128523
6.23485
6.0614936
5.8927749
5.7291927
5.5710754
52.974627
52.244061
51.512032
50.778871
50.044914
49.310494
48.575947
47.841605
47.107802
46.374866
45.643127
44.912909
44.184535
43.458321
42.734583
42.013629
41.295764
40.581286
39.870488
39.163656
38.461068
37.762998
37.069708
36.381455
35.698486
35.021042
34.349353
33.68364
33.024116
32.370985
31.724439
31.084664
30.451835
29.826117
29.207666
28.596628
27.993138
27.397324
26.809302
26.229178
25.657051
25.093007
24.537125
23.989474
23.450113
22.919092
22.396453
21.882228
21.376443
20.879113
20.390245
19.909841
19.437894
18.974388
18.519302
18.072609
17.634273
17.204254
16.782506
16.368977
15.963609
15.566342
15.177107
14.795834
14.422448
14.056869
13.699016
13.348801
13.006137
12.67093
12.343087
12.022512
11.709104
11.402763
11.103386
10.81087
10.525109
10.245996
9.9734243
9.7072849
9.4474694
9.1938683
8.9463719
8.7048707
8.4692547
8.2394141
8.0152398
7.7966222
7.583453
7.3756238
7.1730271
6.9755564
6.7831052
6.5955689
6.4128429
6.2348249
6.061413
5.8925151
5.7280548
5.5680236
52.975108
52.244565
51.512557
50.779415
50.045473
49.311065
48.576526
47.842189
47.108387
46.375449
45.643705
44.91348
44.185095
43.45887
42.735118
42.014149
41.296268
40.581773
39.870957
39.164106
38.461499
37.763409
37.070099
36.381827
35.69884
35.021377
34.349669
33.683938
33.024397
32.371249
31.724688
31.084898
30.452055
29.826324
29.20786
28.59681
27.99331
27.397486
26.809454
26.229322
25.657186
25.093134
24.537245
23.989587
23.450219
22.919192
22.396547
21.882317
21.376526
20.87919
20.390318
19.90991
19.437958
18.974447
18.519358
18.07266
17.634321
17.204298
16.782547
16.369015
15.963644
15.566374
15.177136
14.795861
14.422473
14.056892
13.699036
13.34882
13.006153
12.670945
12.343101
12.022524
11.709114
11.402772
11.103394
10.810877
10.525115
10.246001
9.9734283
9.7072881
9.4474718
9.19387
8.946373
8.7048712
8.4692546
8.2394136
8.0152388
7.7966209
7.5834513
7.3756217
7.1730247
6.9755537
6.7831023
6.5955656
6.4128392
6.23482
6.0614054
5.8924972
5.7279779
5.5678168
52.975592
52.245073
51.513085
50.779961
50.046034
49.311637
48.577106
47.842774
47.108973
46.376034
45.644285
44.914052
44.185658
43.459421
42.735656
42.014673
41.296776
40.582264
39.871429
39.16456
38.461934
37.763825
37.070496
36.382204
35.699197
35.021715
34.349989
33.68424
33.024681
32.371517
31.72494
31.085135
30.452278
29.826534
29.208057
28.596996
27.993484
27.39765
26.809608
26.229467
25.657322
25.093263
24.537366
23.989701
23.450326
22.919292
22.396641
21.882405
21.376609
20.879268
20.390391
19.909978
19.438021
18.974507
18.519413
18.072711
17.634368
17.204342
16.782588
16.369052
15.963679
15.566405
15.177165
14.795887
14.422497
14.056914