/*--------------------------------*- C++ -*----------------------------------*\
  =========                 |
  \\      /  F ield         | OpenFOAM: The Open Source CFD Toolbox
   \\    /   O peration     | Website:  https://openfoam.org
    \\  /    A nd           | Version:  12
     \\/     M anipulation  |
\*---------------------------------------------------------------------------*/
FoamFile
{
    format      ascii;
    class       volScalarField;
    location    "400";
    object      p;
}
// * * * * * * * * * * * * * * * * * * * * * * * * * * * * * * * * * * * * * //

dimensions      [0 2 -2 0 0 0 0];

internalField   nonuniform List<scalar> 
7480
(
0.0087440797
0.0076982477
0.0065744773
0.0060521464
0.0057161443
0.0054574437
0.0052495764
0.0050605659
0.0048984535
0.004764106
0.0046480598
0.004529926
0.0044062655
0.0042808514
0.0041559517
0.0040326984
0.00391321
0.003805463
0.0037058427
0.0036009984
0.0034943088
0.0033964721
0.003310273
0.0032350514
0.0031729499
0.0031192196
0.0030660955
0.0030181225
0.0029787443
0.0029462675
0.0029191531
0.0028982984
0.0028823764
0.0028635592
0.0028408155
0.002818625
0.0027980836
0.0027793156
0.0027639025
0.0027442854
0.0027156959
0.0026849213
0.0026562604
0.0026296049
0.002603326
0.0025722966
0.0025358784
0.002499043
0.0024642091
0.0024307574
0.0023928816
0.0023496564
0.0023067972
0.002268639
0.0022317716
0.0021905886
0.0021472852
0.0021063087
0.0020678742
0.0020272587
0.0019833299
0.0019413423
0.0019016214
0.0018602608
0.001816784
0.0017757436
0.0017353749
0.0016917806
0.0016479807
0.0016059178
0.0015625693
0.0015167298
0.0014733123
0.0014298893
0.0013827299
0.0013372964
0.0012925325
0.0012440029
0.0011964962
0.0011498131
0.0010999105
0.0010510919
0.0010025419
0.0009506341
0.00089964513
0.00084855494
0.00079558242
0.00074297551
0.00068905176
0.00063526049
0.00058097374
0.00052524571
0.00047081339
0.00041560391
0.00036313025
0.00030822103
0.00027522804
0.00016369492
0.00036051212
-0.00031276244
0.0082303613
0.0073055762
0.0064241888
0.0060075505
0.0057891989
0.0055891777
0.0053900171
0.0051951971
0.0050219152
0.0048666738
0.0047259703
0.0045900635
0.0044544732
0.0043211505
0.0041911364
0.0040654174
0.0039465059
0.0038367305
0.0037344242
0.0036296837
0.0035229388
0.0034248422
0.0033382658
0.003262539
0.0032000347
0.0031456893
0.0030915796
0.003042498
0.0030018219
0.0029679225
0.0029393512
0.0029170972
0.002899859
0.0028798091
0.0028559679
0.0028326352
0.0028109011
0.0027910754
0.0027748133
0.0027543272
0.0027248888
0.0026934084
0.0026641331
0.0026369514
0.002610211
0.0025787186
0.0025418891
0.0025047692
0.0024697304
0.0024360697
0.0023979495
0.0023544911
0.0023114417
0.0022731214
0.0022360852
0.0021947318
0.0021512796
0.0021101645
0.0020715884
0.002030817
0.0019867348
0.0019446108
0.0019047517
0.001863246
0.0018196303
0.0017784665
0.001737974
0.0016942571
0.0016503488
0.0016081832
0.0015647299
0.0015187911
0.0014752836
0.0014317672
0.0013845178
0.0013390063
0.0012941648
0.0012455598
0.0011979861
0.0011512356
0.0011012665
0.001052388
0.001003779
0.00095181489
0.00090077526
0.00084963486
0.00079661387
0.00074396131
0.00068999377
0.00063616182
0.00058183578
0.0005260703
0.00047160289
0.00041635883
0.00036385628
0.00030891191
0.00027585286
0.00016497761
0.00036354235
-0.00031024018
0.0079248215
0.0072688342
0.0065408159
0.0061037335
0.0058546654
0.0056119265
0.005377839
0.0051650367
0.0049830457
0.0048258944
0.0046857963
0.0045554459
0.0044272448
0.0043014389
0.0041782555
0.0040588573
0.0039460971
0.0038393988
0.003738212
0.003636654
0.0035338266
0.0034389673
0.0033551454
0.0032815456
0.0032205722
0.0031664912
0.0031119721
0.0030624894
0.0030212976
0.0029867997
0.0029576468
0.0029350158
0.0029167321
0.0028949981
0.0028700142
0.0028457694
0.0028230952
0.0028024721
0.0027857601
0.0027647522
0.00273466
0.0027026257
0.0026727888
0.002645131
0.0026179954
0.0025860443
0.0025485127
0.0025106961
0.0024752933
0.0024414102
0.0024030411
0.0023593521
0.0023161408
0.0022777084
0.0022405365
0.0021990108
0.0021554129
0.0021141755
0.0020754753
0.0020345541
0.0019903219
0.0019480789
0.0019080984
0.0018664559
0.0018227073
0.001781437
0.0017408306
0.0016969894
0.0016529744
0.0016107099
0.0015671507
0.0015211089
0.0014775149
0.0014339041
0.0013865589
0.0013409697
0.0012960477
0.0012473604
0.0011997181
0.0011528971
0.0011028551
0.0010539136
0.001005241
0.00095321391
0.00090212004
0.0008509247
0.0007978498
0.00074514698
0.0006911299
0.00063725265
0.00058288236
0.00052707418
0.00047256722
0.00041728304
0.00036474731
0.00030976182
0.00027663611
0.00016714478
0.00036895699
-0.00030612545
0.0077056458
0.0071876606
0.0065162558
0.0060639068
0.0058058562
0.0055750796
0.0053530606
0.005156759
0.0049873213
0.0048393707
0.0047020671
0.0045727547
0.0044444525
0.0043172213
0.0041929462
0.004072518
0.0039576445
0.0038483151
0.0037449252
0.0036430399
0.0035409352
0.0034462618
0.003362427
0.0032886744
0.0032262373
0.0031700698
0.0031151784
0.0030662195
0.003025666
0.0029921552
0.0029642798
0.0029431979
0.0029256381
0.0029038297
0.002879118
0.0028553003
0.0028329263
0.0028117661
0.0027942536
0.0027726895
0.0027420266
0.0027096879
0.0026795728
0.002651733
0.0026245344
0.0025923403
0.0025542043
0.0025158006
0.0024801779
0.00244625
0.0024077432
0.0023638716
0.0023205363
0.0022820475
0.002244723
0.0022028676
0.0021590184
0.0021176852
0.0020789247
0.0020379039
0.00199356
0.0019512468
0.0019111929
0.0018694498
0.0018255946
0.0017842407
0.0017435327
0.0016995775
0.0016554688
0.0016131216
0.0015694672
0.00152333
0.001479664
0.0014359705
0.0013885358
0.0013428785
0.0012978825
0.0012491148
0.00120141
0.0011545235
0.0011044106
0.0010554117
0.0010066791
0.00095459015
0.0009034453
0.00085219736
0.00079907013
0.0007463191
0.00069225345
0.00063833265
0.00058391933
0.00052806912
0.00047352356
0.0004181996
0.00036562999
0.00031060795
0.00027741888
0.00016991682
0.0003759301
-0.00030124665
0.0074992631
0.0070693223
0.0064769519
0.0060543056
0.0058047849
0.0055891444
0.0053714735
0.0051755951
0.0050033925
0.0048504565
0.0047081246
0.0045746368
0.0044441782
0.0043158543
0.0041922754
0.0040733038
0.0039592689
0.0038507396
0.0037481272
0.0036478508
0.003547831
0.0034542385
0.0033707276
0.0032968647
0.0032331314
0.0031758687
0.0031213353
0.0030726027
0.0030316018
0.0029974876
0.0029689488
0.0029466387
0.0029271177
0.0029044244
0.0028798481
0.0028566182
0.0028351367
0.0028146155
0.0027977736
0.0027771293
0.0027470305
0.002715353
0.0026853297
0.0026569265
0.0026293883
0.0025969428
0.0025585247
0.0025200741
0.0024845494
0.0024507549
0.0024122059
0.0023681235
0.0023246224
0.0022860987
0.0022486764
0.0022065208
0.0021624388
0.0021210263
0.0020822314
0.0020411357
0.0019966995
0.0019543545
0.0019142676
0.0018724472
0.0018284852
0.0017869919
0.0017461346
0.0017020807
0.0016579063
0.001615505
0.0015717769
0.0015255609
0.0014818446
0.0014380781
0.0013905505
0.0013448305
0.001299765
0.0012509166
0.0012031528
0.0011562034
0.0011060201
0.0010569674
0.0010081761
0.00095602293
0.00090482676
0.00085352522
0.00080034442
0.00074754497
0.00069342936
0.00063946406
0.00058500619
0.00052911204
0.00047452639
0.00041916092
0.00036655448
0.00031149917
0.00027823085
0.00017309361
0.00038376576
-0.00029587513
0.0073082538
0.0069509331
0.0064407077
0.0060481071
0.00579733
0.0055826002
0.0053660338
0.0051698742
0.0049981091
0.0048455127
0.0047048113
0.0045728585
0.0044444645
0.0043185292
0.0041969572
0.0040794811
0.0039664098
0.0038585432
0.0037560836
0.0036561749
0.0035570889
0.0034639123
0.0033803445
0.0033062373
0.00324175
0.00318394
0.0031294825
0.0030805223
0.0030388237
0.0030038493
0.0029743983
0.0029507396
0.0029296378
0.0029065342
0.0028819559
0.0028585022
0.0028366139
0.0028157361
0.002797857
0.0027765599
0.002746727
0.0027156589
0.0026861313
0.0026581905
0.0026315364
0.0025999704
0.0025621354
0.0025242526
0.0024885586
0.0024542697
0.0024155413
0.0023713247
0.002327845
0.002289504
0.00225219
0.0022099912
0.0021658096
0.002124296
0.0020854646
0.0020443258
0.0019998043
0.0019574177
0.0019172789
0.0018753654
0.0018312949
0.0017896764
0.0017486962
0.0017045583
0.0016603316
0.0016178963
0.0015741175
0.0015278425
0.0014840985
0.0014402341
0.0013925674
0.0013467881
0.0013016711
0.0012527547
0.001204947
0.0011579476
0.0011076978
0.0010585916
0.0010097426
0.00095752486
0.00090627908
0.00085492462
0.00080169084
0.00074884418
0.00069467772
0.00064066681
0.00058616265
0.0005302226
0.00047559573
0.00042018727
0.00036754081
0.00031245508
0.00027908229
0.00017656374
0.00039194623
-0.00028999166
0.0071336147
0.0068347054
0.0063959877
0.0060318164
0.0057818038
0.0055709211
0.0053621261
0.0051703621
0.0050015927
0.004850178
0.0047103294
0.0045780348
0.0044498866
0.0043243846
0.0042029006
0.0040854492
0.0039725134
0.0038647381
0.0037621276
0.0036624847
0.0035644302
0.0034720102
0.0033887184
0.0033146396
0.0032496684
0.0031913825
0.0031368519
0.0030875999
0.0030453563
0.0030097864
0.0029797315
0.0029551342
0.0029331901
0.0029098677
0.0028851626
0.0028613141
0.0028389388
0.0028175387
0.0027984634
0.0027765257
0.0027469915
0.0027159904
0.0026863272
0.0026582531
0.0026312012
0.0025995118
0.0025620768
0.0025248712
0.0024895681
0.0024557041
0.0024176737
0.0023740215
0.0023311248
0.0022928674
0.0022550524
0.0022125208
0.0021682933
0.0021268788
0.0020882369
0.002047179
0.0020026415
0.0019602108
0.0019199977
0.0018780205
0.001833909
0.0017922756
0.0017512387
0.0017070018
0.0016627215
0.0016202574
0.0015764312
0.0015300923
0.0014863217
0.0014423581
0.0013945616
0.0013487433
0.0013035886
0.0012546132
0.001206778
0.0011597456
0.0011094122
0.0010602245
0.0010113181
0.00095904666
0.0009077637
0.00085636629
0.00080308458
0.00075019077
0.00069597326
0.00064191837
0.00058736881
0.00053138338
0.0004767165
0.00042126506
0.00036857612
0.00031346363
0.00027996173
0.00018026013
0.00040007585
-0.00028352637
0.0069736033
0.0067207517
0.0063434865
0.0060094275
0.0057649321
0.0055592167
0.0053578945
0.0051696999
0.0050020253
0.0048508667
0.0047109046
0.0045781539
0.0044504014
0.0043260328
0.0042055051
0.0040890043
0.0039770495
0.0038700542
0.0037679274
0.0036690071
0.0035721962
0.0034806873
0.0033977253
0.0033236393
0.0032581842
0.0031993671
0.0031446668
0.0030951461
0.0030524058
0.0030162229
0.0029854837
0.0029598958
0.0029370199
0.0029132047
0.0028881628
0.0028639048
0.0028411454
0.0028193938
0.0027995863
0.0027773094
0.0027481251
0.0027171955
0.0026873829
0.0026589509
0.0026312261
0.0025992727
0.0025620461
0.0025249087
0.0024895358
0.0024553862
0.0024173546
0.0023742142
0.0023320984
0.0022943315
0.0022566818
0.0022143612
0.0021705605
0.0021296465
0.0020909805
0.0020493577
0.0020045982
0.0019622399
0.0019221701
0.0018803076
0.0018362403
0.0017946544
0.0017535493
0.0017092372
0.0016649805
0.0016225229
0.0015786285
0.0015321989
0.001488411
0.0014444001
0.0013965377
0.0013506995
0.0013055011
0.0012564609
0.0012086046
0.0011615424
0.0011111197
0.0010618572
0.001012905
0.00096058837
0.00090927846
0.00085784893
0.00080451001
0.00075154781
0.00069727668
0.00064318771
0.00058860168
0.00053257676
0.0004778713
0.00042237555
0.00036964352
0.00031450986
0.00028085816
0.00018413479
0.00040782429
-0.00027642673
0.00682648
0.0066102059
0.0062856742
0.0059821148
0.0057458419
0.0055450267
0.0053503781
0.0051662709
0.0050004799
0.0048505642
0.0047114559
0.0045795211
0.0044526299
0.0043295028
0.0042099313
0.0040943239
0.0039831355
0.0038766556
0.0037747969
0.0036763288
0.0035804109
0.0034895826
0.0034068089
0.0033326146
0.0032666808
0.0032073424
0.003152439
0.0031026584
0.0030594183
0.0030225917
0.0029911392
0.0029645956
0.002940806
0.0029164842
0.0028911603
0.0028665791
0.0028434674
0.0028213544
0.0028008314
0.0027781152
0.0027491485
0.0027182443
0.0026883291
0.0026596799
0.0026315692
0.0025996108
0.0025627128
0.0025256398
0.0024901082
0.0024554899
0.0024173032
0.0023744181
0.0023324737
0.0022944114
0.0022564613
0.0022143185
0.0021711427
0.0021310348
0.002092681
0.002050857
0.0020062854
0.0019643373
0.0019245447
0.0018823559
0.0018378541
0.0017963075
0.0017553037
0.001711102
0.0016669627
0.0016245704
0.0015805978
0.0015341056
0.0014903826
0.0014463661
0.0013984274
0.0013525653
0.0013073394
0.0012582415
0.0012103669
0.0011632675
0.001112778
0.0010634917
0.001014511
0.0009621429
0.00091080367
0.00085934351
0.00080594574
0.00075291694
0.00069859755
0.00064448296
0.00058986835
0.00053380415
0.00047904371
0.00042349328
0.00037072343
0.00031558103
0.00028176487
0.00018814494
0.00041488397
-0.00026865399
0.0066904986
0.0065036613
0.0062240102
0.0059499099
0.0057238151
0.0055283402
0.0053404063
0.0051613065
0.0049981387
0.0048497616
0.0047116447
0.0045804457
0.0044542696
0.0043319734
0.0042132516
0.004098494
0.0039880624
0.0038821753
0.003780752
0.003682876
0.003587919
0.0034979048
0.0034154839
0.003341315
0.003275058
0.0032153066
0.003160222
0.0031102083
0.0030664959
0.0030290437
0.0029968934
0.002969444
0.0029447698
0.002919929
0.0028943091
0.002869383
0.0028458732
0.0028233516
0.002802128
0.0027789585
0.0027501716
0.0027193258
0.0026893297
0.002660477
0.002631992
0.0025999947
0.0025633642
0.0025263376
0.0024906918
0.0024558197
0.0024177131
0.0023751693
0.0023333204
0.0022949201
0.0022566451
0.0022145894
0.002171603
0.0021314305
0.0020926259
0.0020506921
0.002006686
0.0019654966
0.0019262723
0.0018838809
0.0018392401
0.0017979933
0.0017572875
0.001712865
0.0016683311
0.0016259566
0.0015820669
0.0015356953
0.0014921237
0.0014481362
0.0014001056
0.0013542693
0.0013090883
0.0012599463
0.0012120428
0.0011649105
0.0011143756
0.0010650856
0.0010160787
0.00096365463
0.00091229092
0.00086080201
0.00080736116
0.00075429765
0.0006999425
0.00064580106
0.00059115439
0.00053504837
0.00048023201
0.00042463043
0.00037182532
0.00031668687
0.00028268448
0.00019224121
0.00042093696
-0.00026016808
0.0065642163
0.0064013914
0.006159715
0.0059132991
0.0056989192
0.0055095437
0.0053283281
0.0051546557
0.0049944945
0.004847815
0.0047108622
0.0045806005
0.0044553346
0.0043340561
0.0042164245
0.0041026969
0.0039931617
0.0038879969
0.0037871317
0.0036898936
0.0035958417
0.0035066048
0.0034245226
0.0033503471
0.0032837648
0.0032235844
0.0031682507
0.0031179604
0.0030737573
0.0030356611
0.0030027906
0.0029744439
0.0029488854
0.0029234877
0.0028975332
0.0028722416
0.0028483177
0.0028253768
0.0028034971
0.0027798857
0.0027512386
0.0027204557
0.0026903652
0.0026612948
0.0026324434
0.0026003851
0.0025639942
0.0025270249
0.0024912855
0.0024561937
0.0024181279
0.0023759015
0.0023341454
0.0022955433
0.0022571653
0.0022153102
0.0021724451
0.0021320919
0.0020928928
0.0020509529
0.0020071773
0.0019659662
0.0019263903
0.0018837547
0.0018395957
0.0017990777
0.0017588927
0.001714289
0.0016695518
0.001627385
0.0015837144
0.001537186
0.0014933361
0.0014493438
0.0014013649
0.0013557121
0.0013106263
0.0012614542
0.001213548
0.0011664494
0.0011159078
0.0010666058
0.0010175669
0.00096510437
0.00091373362
0.00086221583
0.00080873561
0.00075565287
0.00070127091
0.00064710196
0.00059242028
0.00053627861
0.00048143056
0.0004257944
0.00037294878
0.00031781805
0.00028360602
0.00019637639
0.00042568986
-0.00025090527
0.0064464452
0.0063034392
0.0060938041
0.0058728945
0.005671223
0.0054886868
0.0053141451
0.0051461357
0.004989414
0.0048447642
0.0047092719
0.0045802111
0.0044560433
0.0043358843
0.0042193792
0.0041066763
0.0039980244
0.0038935831
0.0037933005
0.0036966983
0.0036034941
0.0035150126
0.0034332961
0.0033591481
0.003292306
0.0032317553
0.0031761829
0.0031256352
0.0030809749
0.0030422592
0.0030086826
0.0029794758
0.0029530625
0.0029270989
0.0029007963
0.0028751415
0.0028508039
0.0028274374
0.0028049355
0.0027808832
0.0027523261
0.0027216001
0.0026914073
0.0026621193
0.0026329265
0.0026008018
0.0025646352
0.0025277343
0.0024919055
0.0024566
0.0024185564
0.0023766265
0.0023349688
0.002296194
0.0022577004
0.0022160085
0.0021732603
0.0021327818
0.0020934406
0.0020516342
0.002008002
0.0019666234
0.0019266935
0.0018840186
0.0018401002
0.0017994873
0.0017589425
0.0017142558
0.0016700182
0.0016285202
0.0015851673
0.0015384875
0.0014944888
0.0014506112
0.0014027226
0.0013569694
0.0013116631
0.0012625005
0.0012147527
0.0011677814
0.0011172532
0.0010679512
0.0010189281
0.00096648198
0.00091511453
0.00086356026
0.00081005672
0.00075696911
0.00070255962
0.00064836544
0.00059365675
0.00053748688
0.00048261525
0.00042695017
0.00037406358
0.00031894311
0.0002845062
0.00020049443
0.00042882051
-0.00024088485
0.0063361742
0.006209698
0.0060270821
0.0058293165
0.0056408309
0.0054658009
0.0052979523
0.0051357764
0.0049829094
0.0048406301
0.0047068455
0.0045791815
0.0044562495
0.0043372865
0.0042219541
0.0041103297
0.0040026269
0.0038989893
0.0037993844
0.0037034841
0.0036111329
0.0035234211
0.0034421161
0.0033680384
0.0033009901
0.003240109
0.0031842887
0.0031334728
0.0030883576
0.0030490201
0.0030147287
0.0029846752
0.0029574166
0.0029308626
0.0029041814
0.0028781482
0.0028533814
0.0028295701
0.0028064661
0.0027819705
0.0027534566
0.0027227807
0.0026924821
0.0026629773
0.0026334619
0.0026012594
0.0025652931
0.0025284611
0.0024925415
0.0024570335
0.0024190078
0.0023773608
0.0023358099
0.0022968744
0.002258258
0.002216713
0.0021740827
0.0021335002
0.0020940249
0.0020522973
0.0020087933
0.0019673035
0.0019272282
0.0018846861
0.0018408834
0.0018000049
0.001759149
0.0017145421
0.0016704542
0.0016288328
0.0015851777
0.0015386572
0.0014952131
0.001451769
0.0014040188
0.0013581389
0.0013126898
0.001263623
0.0012159347
0.0011687891
0.0011181616
0.0010689773
0.0010200871
0.00096768232
0.00091632809
0.00086477826
0.00081131109
0.00075822906
0.00070377919
0.00064957875
0.00059486116
0.00053866323
0.00048376782
0.00042807944
0.00037515648
0.00032005237
0.00028537172
0.00020452908
0.00042997104
-0.00023025698
0.0062325366
0.0061199803
0.0059601712
0.0057831665
0.0056079185
0.0054409427
0.0052798561
0.0051236141
0.0049749389
0.0048353502
0.004703509
0.0045774386
0.0044559022
0.0043382461
0.0042241663
0.0041136934
0.004007005
0.0039042331
0.0038053692
0.0037102046
0.003618687
0.0035317282
0.0034508511
0.0033768673
0.0033096495
0.0032484691
0.0031923959
0.0031413058
0.0030957461
0.0030557977
0.003020798
0.0029899219
0.0029618396
0.0029346852
0.0029076067
0.002881189
0.0028559884
0.0028317254
0.0028080457
0.0027831143
0.0027546064
0.0027239745
0.0026935698
0.0026638494
0.0026340288
0.0026017401
0.0025659532
0.0025291927
0.0024931871
0.0024574924
0.0024194813
0.0023781002
0.0023366593
0.0022975741
0.0022588374
0.0022174304
0.0021749203
0.0021342431
0.0020946284
0.0020529633
0.0020095902
0.001968012
0.0019278009
0.0018853496
0.0018416333
0.0018005596
0.0017596134
0.0017151885
0.0016710908
0.0016292018
0.00158536
0.0015390123
0.0014955419
0.0014518672
0.0014041742
0.0013586278
0.0013135947
0.0012647571
0.0012170938
0.0011697658
0.0011190938
0.001070049
0.0010210638
0.00096849362
0.00091722655
0.00086580698
0.0008124037
0.0007593316
0.0007048755
0.00065072759
0.00059601375
0.00053977967
0.00048487587
0.00042917484
0.0003762146
0.00032113622
0.00028619192
0.00020842418
0.0004289109
-0.00021917092
0.0061347887
0.0060340584
0.0058935384
0.0057350024
0.0055727124
0.0054141821
0.0052599461
0.0051096902
0.0049654741
0.0048288842
0.0046992283
0.0045749498
0.0044549708
0.0043387352
0.0042259855
0.0041167275
0.0040111105
0.0039092618
0.0038112006
0.0037168132
0.0036261291
0.0035399238
0.0034595053
0.0033856566
0.0033183188
0.0032568825
0.0032005662
0.0031492045
0.0031032142
0.0030626686
0.0030269682
0.0029952894
0.0029664008
0.0029386342
0.0029111357
0.0028843217
0.0028586785
0.0028339533
0.0028097156
0.002784351
0.0027558099
0.0027252081
0.0026946932
0.0026647561
0.0026346443
0.0026022612
0.002566632
0.0025299433
0.0024938554
0.0024579862
0.0024199839
0.00237885
0.002337521
0.0022982988
0.0022594454
0.0022181644
0.002175772
0.0021350067
0.0020952556
0.0020536488
0.002010406
0.0019687472
0.0019283946
0.001886014
0.0018423854
0.0018011477
0.0017601111
0.0017158321
0.0016717127
0.0016296456
0.0015858406
0.0015396422
0.0014959651
0.0014520665
0.0014044707
0.0013589027
0.0013137398
0.0012649186
0.0012175276
0.0011705264
0.0011200602
0.0010711574
0.0010220042
0.00096929932
0.00091819083
0.00086672152
0.0008131499
0.00076013895
0.00070579695
0.0006517262
0.0005970205
0.00054078671
0.00048592372
0.00043021597
0.00037721488
0.00032218305
0.00028695372
0.00021212055
0.00042560524
-0.00020772681
0.00604229
0.0059516872
0.0058275256
0.0056853231
0.0055354713
0.005385608
0.0052383067
0.0050940609
0.0049545099
0.0048212038
0.0046939708
0.0045716744
0.0044534085
0.0043387089
0.0042273714
0.0041193974
0.0040149164
0.0039140556
0.0038168618
0.0037232972
0.0036334542
0.0035480042
0.00346807
0.003394393
0.0033269775
0.0032653209
0.0032087687
0.0031571336
0.0031107217
0.0030695897
0.0030331958
0.0030007321
0.002971054
0.0029426669
0.0029147281
0.0028875073
0.0028614156
0.0028362213
0.0028114429
0.0027856509
0.0027570432
0.0027264582
0.0026958322
0.0026656804
0.002635292
0.0026028094
0.0025673182
0.002530701
0.0024945359
0.0024585046
0.0024205073
0.0023796042
0.0023383896
0.0022990439
0.0022600777
0.0022189109
0.0021766339
0.002135789
0.0020959073
0.0020543522
0.0020112336
0.0019695003
0.0019290089
0.001886693
0.0018431552
0.001801764
0.0017606244
0.0017164714
0.0016723404
0.001630122
0.0015863476
0.0015402662
0.0014964217
0.0014524576
0.0014050177
0.0013593189
0.001313971
0.0012651847
0.001217768
0.0011706654
0.0011202452
0.0010716034
0.0010226755
0.00097015488
0.0009192246
0.00086759291
0.00081387802
0.00076100544
0.00070662098
0.00065241503
0.00059776544
0.00054163637
0.0004868309
0.00043112484
0.000378121
0.00032317296
0.00028763153
0.00021555692
0.0004201887
-0.0001959977
0.0059544871
0.0058726199
0.0057623756
0.005634563
0.0054964691
0.0053553304
0.0052150221
0.0050767915
0.0049420568
0.0048122856
0.0046877038
0.0045675731
0.0044511731
0.0043381286
0.0042282923
0.0041216757
0.0040183984
0.0039185905
0.0038223259
0.0037296277
0.0036406378
0.0035559473
0.0034765223
0.0034030552
0.0033356051
0.0032737664
0.0032169926
0.0031650884
0.0031182676
0.0030765654
0.0030394906
0.0030062621
0.0029758134
0.0029468012
0.0029184047
0.0028907664
0.002864221
0.002838552
0.0028132471
0.0027870328
0.0027583274
0.0027277428
0.0026970036
0.0026666379
0.0026359849
0.0026033972
0.0025680237
0.0025314757
0.0024952379
0.0024590557
0.0024210596
0.0023803704
0.0023392709
0.002299814
0.0022607385
0.0022196742
0.0021775097
0.0021365938
0.0020965862
0.0020550751
0.0020120743
0.0019702741
0.0019296489
0.0018873898
0.0018439391
0.0018024014
0.0017611557
0.0017171224
0.00167299
0.0016306246
0.0015868622
0.0015408852
0.0014968969
0.0014528716
0.0014055784
0.0013597641
0.0013143293
0.0012656601
0.0012181492
0.0011708984
0.0011205135
0.0010718068
0.0010227695
0.00097037476
0.00091971076
0.00086821219
0.0008146769
0.00076195364
0.00070739921
0.00065308786
0.00059854685
0.0005423743
0.00048746283
0.00043181534
0.00037888448
0.00032402847
0.00028816873
0.00021868717
0.00041286005
-0.00018403498
0.0058709004
0.0057966168
0.0056982552
0.0055830914
0.0054559812
0.005323479
0.0051901795
0.0050579521
0.0049281383
0.0048021158
0.0046803999
0.0045626123
0.0044482265
0.0043369574
0.0042287147
0.0041235317
0.0040215272
0.0039228377
0.0038275631
0.0037357767
0.0036476583
0.0035637366
0.0034848469
0.0034116293
0.0033441884
0.0032822057
0.0032252274
0.0031730605
0.0031258432
0.0030835867
0.0030458444
0.0030118694
0.0029806674
0.002951027
0.0029221557
0.0028940889
0.0028670844
0.002840936
0.0028151167
0.0027884849
0.0027596538
0.0027290522
0.0026981976
0.0026676199
0.0026367134
0.0026040166
0.002568742
0.0025322604
0.0024959552
0.0024596331
0.0024216355
0.0023811443
0.0023401602
0.0023006047
0.0022614243
0.0022204519
0.002178397
0.0021374181
0.00209729
0.0020558158
0.0020129271
0.001971068
0.0019303137
0.0018881025
0.0018447344
0.0018030601
0.0017617084
0.0017177861
0.0016736559
0.0016311461
0.0015873885
0.0015415159
0.0014973965
0.0014533013
0.0014061377
0.001360218
0.0013147037
0.0012661583
0.0012185641
0.0011712393
0.0011209512
0.0010721255
0.0010229693
0.00097062713
0.00091989545
0.00086830336
0.00081495111
0.00076247192
0.0007079885
0.00065385075
0.00059939548
0.00054306974
0.00048808955
0.00043250652
0.00037949938
0.00032464734
0.000288518
0.00022148171
0.00040375177
-0.00017182775
0.0057911129
0.0057234513
0.0056352734
0.005531217
0.0054142737
0.0052901983
0.0051638712
0.005037617
0.0049127895
0.0047906906
0.0046720374
0.004556762
0.0044445333
0.0043351586
0.0042286046
0.0041249339
0.0040242733
0.0039267689
0.0038325453
0.0037417173
0.0036544934
0.0035713542
0.0034930263
0.0034200974
0.003352709
0.0032906202
0.0032334579
0.0031810373
0.0031334372
0.0030906443
0.0030522505
0.0030175487
0.0029856114
0.0029553426
0.0029259826
0.002897477
0.0028700093
0.0028433787
0.0028170559
0.0027900117
0.00276103
0.0027303932
0.0026994204
0.0026686329
0.0026374829
0.0026046734
0.0025694797
0.0025330603
0.0024966929
0.0024602411
0.0024222392
0.0023819305
0.0023410608
0.0023014189
0.0022621381
0.0022212472
0.002179298
0.002138264
0.0020980207
0.0020565766
0.0020137939
0.0019718831
0.0019310042
0.0018888323
0.001845543
0.0018037418
0.0017622837
0.0017184622
0.001674337
0.0016316883
0.0015879307
0.0015421586
0.0014979154
0.0014537454
0.0014067049
0.0013606914
0.0013150955
0.0012666595
0.0012189844
0.0011715909
0.0011214126
0.0010724882
0.0010232802
0.00097102258
0.00092016771
0.00086849933
0.00081516654
0.00076261882
0.00070811169
0.00065420216
0.00059991548
0.00054366372
0.00048880693
0.00043322572
0.00038007508
0.00032528676
0.00028880373
0.00022391893
0.00039297903
-0.00015925073
0.0057147615
0.0056529118
0.0055734959
0.0054791933
0.0053715957
0.0052556432
0.0051361957
0.0050158638
0.0048960547
0.0047780163
0.0046626005
0.0045499965
0.0044400614
0.0043326977
0.0042279288
0.0041258514
0.0040266072
0.0039303552
0.0038372436
0.0037474212
0.0036611192
0.0035787801
0.0035010412
0.0034284408
0.0033611485
0.0032989923
0.0032416692
0.0031890076
0.0031410399
0.0030977298
0.0030587026
0.0030232939
0.0029906396
0.0029597441
0.0029298832
0.0029009289
0.0028729941
0.0028458794
0.002819062
0.00279161
0.0027624552
0.0027317643
0.00270067
0.002669675
0.0026382902
0.002605365
0.0025702351
0.002533873
0.0024974485
0.0024608767
0.0024228685
0.0023827275
0.0023419707
0.002302254
0.002262878
0.0022220588
0.0021802114
0.0021391298
0.0020987772
0.0020573569
0.002014674
0.0019727182
0.0019317199
0.0018895792
0.0018463646
0.0018044458
0.0017628813
0.0017191506
0.0016750337
0.0016322521
0.001588489
0.0015428118
0.0014984528
0.0014542059
0.0014072814
0.0013611822
0.0013155019
0.0012671677
0.0012194205
0.0011719584
0.0011218785
0.0010728571
0.0010235989
0.00097144009
0.00092049518
0.00086880759
0.00081549724
0.00076284207
0.00070831477
0.00065436593
0.00060000126
0.00054387015
0.00048922371
0.00043372392
0.00038062755
0.00032599194
0.00028903854
0.00022614304
0.00038114363
-0.0001462283
0.0056415288
0.0055848035
0.0055129565
0.005427226
0.0053281746
0.0052199727
0.0051072579
0.0049927735
0.0048779858
0.0047641088
0.0046520807
0.0045422946
0.0044347824
0.0043295428
0.0042266551
0.0041262531
0.004028499
0.0039335672
0.0038416282
0.0037528599
0.0036675107
0.0035859933
0.0035088722
0.0034366403
0.003369488
0.0033073036
0.0032498457
0.0031969585
0.0031486399
0.0031048333
0.0030651927
0.0030290979
0.0029957449
0.0029642265
0.002933855
0.002904443
0.002876038
0.0028484385
0.0028211346
0.0027932792
0.0027639315
0.0027331675
0.0027019479
0.002670748
0.0026391364
0.0026060931
0.0025710109
0.0025347005
0.0024982237
0.0024615413
0.002423525
0.0023835375
0.0023428914
0.002303111
0.0022636452
0.0022228886
0.0021811384
0.0021400165
0.0020995603
0.002058158
0.0020155685
0.0019735741
0.0019324615
0.0018903445
0.0018471999
0.0018051726
0.0017635021
0.0017198522
0.0016757464
0.001632838
0.0015890637
0.0015434758
0.0014990095
0.001454684
0.0014078672
0.0013616898
0.0013159239
0.0012676848
0.0012198723
0.0011723397
0.0011223514
0.0010732401
0.0010239304
0.00097186287
0.00092082886
0.00086913133
0.00081585275
0.00076312588
0.0007086268
0.00065461024
0.00060017157
0.00054405183
0.00048934112
0.00043382719
0.00038088494
0.00032644344
0.00028911761
0.00022817041
0.00036901645
-0.00013326179
0.005571137
0.0055189481
0.0054536656
0.0053754795
0.0052842142
0.0051833457
0.0050771679
0.0049684304
0.0048586409
0.004748993
0.0046404765
0.0045336405
0.0044286719
0.0043256644
0.0042247528
0.0041261086
0.0040299184
0.0039363747
0.0038456692
0.0037580043
0.0036736421
0.0035929718
0.003516499
0.0034446758
0.0033777077
0.0033155348
0.0032579703
0.0032048762
0.0031562253
0.0031119441
0.0030717121
0.003034953
0.0030009203
0.0029687848
0.0029378952
0.0029080175
0.0028791399
0.0028510558
0.0028232726
0.0027950177
0.0027654595
0.0027346038
0.0027032543
0.0026718521
0.0026400208
0.0026068572
0.0025718077
0.0025355428
0.0024990181
0.0024622339
0.0024242081
0.0023843606
0.0023438223
0.0023039889
0.0022644389
0.0022237364
0.0021820786
0.0021409233
0.0021003696
0.0020589799
0.0020164774
0.0019744501
0.0019332287
0.0018911282
0.0018480488
0.0018059217
0.0017641461
0.0017205675
0.001676475
0.0016334459
0.0015896553
0.0015441509
0.0014995857
0.00145518
0.0014084624
0.001362214
0.0013163622
0.0012682112
0.0012203391
0.001172735
0.0011228324
0.0010736378
0.0010242742
0.00097229278
0.00092117562
0.00086946426
0.00081621172
0.00076341522
0.00070896102
0.00065489432
0.00060041979
0.00054432579
0.00048952129
0.0004339757
0.00038096069
0.00032653713
0.00028885836
0.00022978312
0.00035708299
-0.0001211359
0.0055033418
0.0054551834
0.0053956174
0.0053240837
0.0052398939
0.0051459164
0.0050460394
0.0049429216
0.0048380829
0.0047327013
0.0046277939
0.0045240236
0.0044217096
0.0043210361
0.0042221926
0.0041253882
0.0040308359
0.003938748
0.0038493365
0.0037628253
0.0036794871
0.0035996925
0.0035239001
0.0034525263
0.0033857866
0.003323666
0.0032660254
0.0032127458
0.0031637833
0.0031190512
0.0030782513
0.0030408507
0.0030061578
0.002973413
0.0029420003
0.0029116502
0.0028822982
0.0028537305
0.0028254749
0.002796824
0.0027670398
0.0027360743
0.0027045897
0.0026729878
0.0026409433