/*--------------------------------*- C++ -*----------------------------------*\
  =========                 |
  \\      /  F ield         | OpenFOAM: The Open Source CFD Toolbox
   \\    /   O peration     | Website:  https://openfoam.org
    \\  /    A nd           | Version:  12
     \\/     M anipulation  |
\*---------------------------------------------------------------------------*/
FoamFile
{
    format      ascii;
    class       volVectorField;
    location    "400";
    object      wallShearStress;
}
// * * * * * * * * * * * * * * * * * * * * * * * * * * * * * * * * * * * * * //

dimensions      [0 2 -2 0 0 0 0];

internalField   uniform (0 0 0);

boundaryField
{
    inlet
    {
        type            calculated;
        value           uniform (0 0 0);
    }
    top
    {
        type            calculated;
        value           uniform (0 0 0);
    }
    outlet
    {
        type            calculated;
        value           uniform (0 0 0);
    }
    slipsurface
    {
        type            calculated;
        value           uniform (0 0 0);
    }
    bottom
    {
        type            calculated;
        value           nonuniform List<vector> 
100
(
(-0.0033444467 -3.5520015e-06 0)
(-0.0032711114 -6.527465e-06 0)
(-0.0031942007 -8.1708519e-06 0)
(-0.003113184 -9.5947335e-06 0)
(-0.003033805 -1.1325649e-05 0)
(-0.0029580406 -1.2333179e-05 0)
(-0.0028860335 -1.2362606e-05 0)
(-0.002817597 -1.1984299e-05 0)
(-0.0027521225 -1.1425449e-05 0)
(-0.0026890281 -1.0703588e-05 0)
(-0.0026271975 -9.8975243e-06 0)
(-0.002566152 -9.1498152e-06 0)
(-0.0025057202 -8.4587591e-06 0)
(-0.0024459286 -7.8140258e-06 0)
(-0.0023868981 -7.2082668e-06 0)
(-0.0023288379 -6.6304766e-06 0)
(-0.0022721022 -6.0502326e-06 0)
(-0.0022174161 -5.4819895e-06 0)
(-0.0021641485 -4.9737624e-06 0)
(-0.0021131136 -4.4899692e-06 0)
(-0.0020645713 -4.0273559e-06 0)
(-0.0020187234 -3.5866498e-06 0)
(-0.0019757687 -3.1697362e-06 0)
(-0.0019358627 -2.7797631e-06 0)
(-0.001899132 -2.4139454e-06 0)
(-0.0018656884 -2.0731857e-06 0)
(-0.0018355167 -1.7641582e-06 0)
(-0.0018084881 -1.4864245e-06 0)
(-0.0017844265 -1.2394699e-06 0)
(-0.0017631218 -1.0262441e-06 0)
(-0.0017443249 -8.4573325e-07 0)
(-0.0017277812 -6.9295233e-07 0)
(-0.0017132904 -5.6333727e-07 0)
(-0.0017006417 -4.5630622e-07 0)
(-0.0016895696 -3.6876018e-07 0)
(-0.0016797892 -3.0030834e-07 0)
(-0.0016710201 -2.5142241e-07 0)
(-0.0016630074 -2.183556e-07 0)
(-0.0016555896 -1.9367106e-07 0)
(-0.0016486473 -1.7728335e-07 0)
(-0.0016420254 -1.7061388e-07 0)
(-0.0016355648 -1.7067077e-07 0)
(-0.001629146 -1.7546507e-07 0)
(-0.0016226851 -1.8293612e-07 0)
(-0.0016161418 -1.9096491e-07 0)
(-0.0016094874 -1.9999123e-07 0)
(-0.0016026793 -2.1187151e-07 0)
(-0.0015956252 -2.2612898e-07 0)
(-0.0015882576 -2.4007282e-07 0)
(-0.0015805756 -2.5173571e-07 0)
(-0.0015726108 -2.6147256e-07 0)
(-0.0015643801 -2.6970035e-07 0)
(-0.0015558976 -2.7563824e-07 0)
(-0.0015472171 -2.7786662e-07 0)
(-0.0015384271 -2.7641181e-07 0)
(-0.0015295935 -2.7298623e-07 0)
(-0.0015207364 -2.6849715e-07 0)
(-0.0015118612 -2.630832e-07 0)
(-0.0015029964 -2.5651244e-07 0)
(-0.0014941749 -2.4951583e-07 0)
(-0.0014853993 -2.4283158e-07 0)
(-0.0014766731 -2.3562754e-07 0)
(-0.0014680292 -2.2753966e-07 0)
(-0.0014594986 -2.1923222e-07 0)
(-0.001451079 -2.1135041e-07 0)
(-0.0014427714 -2.0319196e-07 0)
(-0.001434594 -1.9495574e-07 0)
(-0.0014265368 -1.8763228e-07 0)
(-0.0014185714 -1.8094829e-07 0)
(-0.0014106948 -1.7428181e-07 0)
(-0.0014029196 -1.6779337e-07 0)
(-0.0013952359 -1.6187927e-07 0)
(-0.0013876431 -1.5570431e-07 0)
(-0.0013801668 -1.493996e-07 0)
(-0.0013727987 -1.4382701e-07 0)
(-0.0013655192 -1.3838716e-07 0)
(-0.0013583365 -1.329962e-07 0)
(-0.0013512403 -1.2827098e-07 0)
(-0.0013442169 -1.2359008e-07 0)
(-0.0013372832 -1.1876105e-07 0)
(-0.0013304408 -1.1435466e-07 0)
(-0.0013236813 -1.0997767e-07 0)
(-0.0013170135 -1.0564997e-07 0)
(-0.0013104256 -1.0183854e-07 0)
(-0.0013039049 -9.808722e-08 0)
(-0.00129746 -9.4372747e-08 0)
(-0.0012910916 -9.0856848e-08 0)
(-0.0012848004 -8.7370934e-08 0)
(-0.0012785826 -8.414191e-08 0)
(-0.0012724307 -8.1022814e-08 0)
(-0.0012663466 -7.8008211e-08 0)
(-0.0012603248 -7.5189661e-08 0)
(-0.0012543677 -7.2389127e-08 0)
(-0.0012484674 -6.9795838e-08 0)
(-0.0012426333 -6.7402457e-08 0)
(-0.0012367847 -6.5153476e-08 0)
(-0.0012311852 -6.1760892e-08 0)
(-0.0012250894 -1.538523e-07 0)
(-0.0012197848 -2.8564027e-07 0)
(-0.0012117837 -2.7367272e-07 0)
)
;
    }
    frontandback
    {
        type            empty;
    }
}


// ************************************************************************* //
