/*--------------------------------*- C++ -*----------------------------------*\
  =========                 |
  \\      /  F ield         | OpenFOAM: The Open Source CFD Toolbox
   \\    /   O peration     | Website:  https://openfoam.org
    \\  /    A nd           | Version:  12
     \\/     M anipulation  |
\*---------------------------------------------------------------------------*/
FoamFile
{
    format      ascii;
    class       volScalarField;
    location    "400";
    object      yPlus;
}
// * * * * * * * * * * * * * * * * * * * * * * * * * * * * * * * * * * * * * //

dimensions      [];

internalField   uniform 0;

boundaryField
{
    inlet
    {
        type            calculated;
        value           uniform 0;
    }
    top
    {
        type            calculated;
        value           uniform 0;
    }
    outlet
    {
        type            calculated;
        value           uniform 0;
    }
    slipsurface
    {
        type            calculated;
        value           uniform 0;
    }
    bottom
    {
        type            calculated;
        value           nonuniform List<scalar> 
100
(
115.85267
114.57374
113.22006
111.77493
110.34128
108.95628
107.62249
106.33889
105.09608
103.88442
102.68319
101.48327
100.28126
99.077625
97.874789
96.677132
95.492295
94.336062
93.196022
92.090553
91.026624
90.010201
89.04739
88.143492
87.303248
86.531099
85.828526
85.194219
84.625537
84.118799
83.669167
83.271425
82.921475
82.6148
82.345415
82.106721
81.892118
81.695537
81.51313
81.342046
81.17852
81.01866
80.859523
80.699026
80.536155
80.370183
80.200019
80.023325
79.838363
79.645052
79.444127
79.235957
79.020849
78.80011
78.575953
78.350038
78.122868
77.894566
77.665863
77.437607
77.209868
76.982745
76.7571
76.53376
76.312685
76.093922
75.877971
75.664592
75.453051
75.243283
75.03564
74.829874
74.625989
74.424683
74.225756
74.028697
73.833742
73.64063
73.448997
73.259321
73.07166
72.885799
72.701992
72.519931
72.339277
72.160276
71.982963
71.807372
71.633404
71.460864
71.289816
71.120113
70.951833
70.784766
70.619183
70.452798
70.293124
70.118883
69.966924
69.737077
)
;
    }
    frontandback
    {
        type            empty;
    }
}


// ************************************************************************* //
