/*--------------------------------*- C++ -*----------------------------------*\
  =========                 |
  \\      /  F ield         | OpenFOAM: The Open Source CFD Toolbox
   \\    /   O peration     | Website:  https://openfoam.org
    \\  /    A nd           | Version:  12
     \\/     M anipulation  |
\*---------------------------------------------------------------------------*/
FoamFile
{
    format      ascii;
    class       volScalarField;
    location    "1600";
    object      k;
}
// * * * * * * * * * * * * * * * * * * * * * * * * * * * * * * * * * * * * * //

dimensions      [0 2 -2 0 0 0 0];

internalField   nonuniform List<scalar> 
7480
(
9.1322095e-06
9.5181334e-06
1.0336945e-05
1.2715581e-05
0.0017675694
0.003511159
0.0049553613
0.0060288356
0.0067625698
0.0072236574
0.0074850483
0.0076040677
0.0076236257
0.0075750009
0.0074808316
0.0073572825
0.0072159416
0.0070659616
0.006917106
0.0067703484
0.0066275924
0.0064893313
0.0063576743
0.0062345331
0.0061211863
0.0060184069
0.0059264742
0.0058451811
0.0057739545
0.005711974
0.0056582556
0.0056117762
0.005571654
0.0055371577
0.0055074128
0.0054814024
0.0054580582
0.0054364896
0.0054160494
0.0053962799
0.0053767719
0.0053571549
0.0053371437
0.0053165262
0.0052951983
0.0052731211
0.0052502557
0.0052264667
0.005201623
0.0051757411
0.0051489498
0.0051213726
0.0050931114
0.0050643311
0.0050352841
0.0050061761
0.0049770759
0.004947995
0.0049189923
0.0048901605
0.0048615414
0.00483316
0.0048050887
0.0047774018
0.0047501033
0.0047231867
0.0046966555
0.0046704702
0.0046445624
0.0046189236
0.0045935934
0.0045685671
0.0045438456
0.0045194872
0.0044954671
0.0044717191
0.0044482465
0.0044250346
0.0044020607
0.0043793676
0.0043569702
0.0043348419
0.0043129853
0.0042913694
0.0042699667
0.0042488006
0.0042278826
0.0042072124
0.0041867701
0.0041665319
0.0041465038
0.0041266789
0.0041070654
0.0040876356
0.0040684096
0.0040491709
0.0040306019
0.0040107797
0.003993312
0.0039668066
8.9479026e-06
8.8221955e-06
8.7067444e-06
8.631847e-06
4.7738574e-05
0.00014931244
0.00031206842
0.00052023635
0.00075166719
0.00098612213
0.0012045167
0.0013984637
0.0015687656
0.001722545
0.0018690956
0.0020187802
0.0021843807
0.0023869788
0.002612786
0.0028404151
0.0030741146
0.0033131786
0.0035546026
0.0037949794
0.0040309268
0.0042581961
0.0044728054
0.0046714652
0.0048516083
0.0050115427
0.0051506249
0.0052694422
0.0053697876
0.0054547929
0.0055249352
0.0055799875
0.0056198214
0.0056464718
0.0056615465
0.0056664743
0.0056628296
0.005652284
0.0056362846
0.0056157886
0.0055916098
0.005564489
0.0055351205
0.005504103
0.0054719472
0.0054393213
0.0054068275
0.0053748883
0.0053437671
0.005313649
0.0052846947
0.0052567901
0.0052295499
0.0052027788
0.0051764346
0.0051505829
0.0051253232
0.0051007059
0.0050766842
0.0050531588
0.0050300485
0.0050072677
0.0049845175
0.0049616511
0.0049387157
0.0049158311
0.0048931143
0.0048706459
0.004848451
0.0048265321
0.0048047557
0.0047829932
0.0047612249
0.0047395258
0.0047179922
0.0046966768
0.0046756148
0.0046547363
0.0046339347
0.0046131929
0.0045925674
0.0045721111
0.0045518712
0.0045318203
0.004511884
0.0044920409
0.0044723232
0.004452776
0.0044334211
0.0044141909
0.0043950933
0.0043759854
0.0043573319
0.0043378095
0.0043221139
0.0042880519
8.9433529e-06
8.809628e-06
8.6758265e-06
8.5427725e-06
9.0513111e-06
1.1697413e-05
1.865475e-05
3.1945904e-05
5.2804488e-05
8.1718786e-05
0.00011804183
0.00016044337
0.00020747685
0.00025788597
0.00031072474
0.00036553134
0.00042262434
0.00048389263
0.00054882259
0.00061891337
0.00069624474
0.00078456882
0.00088740795
0.0010087658
0.0011534053
0.0013105396
0.0014770828
0.0016535401
0.0018399521
0.0020359188
0.002240683
0.0024534903
0.0026715515
0.0028850421
0.003092156
0.0032899021
0.0034739165
0.0036410846
0.0037922823
0.0039271919
0.0040469308
0.0041528043
0.0042442917
0.004320458
0.0043830905
0.0044339165
0.0044746691
0.0045040049
0.0045255325
0.0045413181
0.0045525712
0.0045601199
0.0045647244
0.0045672541
0.0045684014
0.0045684017
0.0045672117
0.0045648674
0.0045615841
0.0045576615
0.0045533097
0.0045486011
0.0045434908
0.0045379095
0.0045318596
0.0045253011
0.0045178713
0.0045095901
0.004500651
0.0044912497
0.0044815153
0.0044715086
0.0044612541
0.0044507699
0.0044398291
0.004428339
0.0044163906
0.0044041242
0.0043916696
0.0043790938
0.004366432
0.004353559
0.004340366
0.0043268905
0.0043132476
0.0042995217
0.0042857714
0.0042719355
0.0042579228
0.0042437485
0.0042294843
0.0042152002
0.0042009176
0.0041865524
0.0041720859
0.0041575359
0.0041430654
0.0041280047
0.00411547
0.0040888901
8.9432474e-06
8.8091883e-06
8.6750302e-06
8.5408836e-06
8.4159752e-06
8.3325652e-06
8.3606189e-06
8.6166976e-06
9.2641646e-06
1.0526178e-05
1.2643126e-05
1.584252e-05
2.0314901e-05
2.6203446e-05
3.3609882e-05
4.2608138e-05
5.3272912e-05
6.5754608e-05
8.0214704e-05
9.6856663e-05
0.00011592907
0.00013782991
0.00016312209
0.00019257398
0.00022725187
0.00026786178
0.00031514817
0.00037021614
0.00043470115
0.00051096775
0.00060238142
0.00071355674
0.00084291824
0.00098580338
0.0011432071
0.0013164943
0.0015062924
0.0017099732
0.0019169512
0.0021227065
0.0023235911
0.0025166102
0.002698785
0.0028686914
0.0030249788
0.0031665899
0.0032942478
0.0034083964
0.0035095129
0.0035960779
0.0036701748
0.0037337192
0.0037885807
0.0038367223
0.0038791639
0.0039154895
0.0039458023
0.0039717781
0.003994584
0.0040150603
0.004033531
0.0040500788
0.004064746
0.0040776876
0.0040891415
0.0040991768
0.004107681
0.0041146761
0.0041203675
0.0041249595
0.0041285747
0.0041312588
0.0041330551
0.0041340212
0.0041339242
0.0041327748
0.0041307516
0.0041280169
0.0041246952
0.0041208554
0.0041165386
0.0041115754
0.0041059072
0.0040996439
0.004092929
0.0040858578
0.0040784935
0.0040707399
0.0040625161
0.0040538863
0.0040449541
0.0040358016
0.0040264412
0.0040167737
0.0040067878
0.0039965944
0.0039862143
0.0039753386
0.0039660164
0.0039454917
8.9432555e-06
8.8091865e-06
8.6750415e-06
8.5408935e-06
8.406929e-06
8.2737849e-06
8.1431274e-06
8.0184606e-06
7.9059375e-06
7.8155915e-06
7.7620844e-06
7.7653168e-06
7.8505313e-06
8.0482162e-06
8.3942316e-06
8.9297952e-06
9.7018239e-06
1.0764389e-05
1.2180571e-05
1.4021777e-05
1.6366569e-05
1.9308481e-05
2.2963679e-05
2.7478707e-05
3.3049961e-05
3.9924251e-05
4.8389656e-05
5.8798028e-05
7.1601228e-05
8.7399136e-05
0.00010700837
0.0001315844
0.00016239852
0.00020071125
0.00024821395
0.00030732256
0.00038144957
0.00047523895
0.00059228614
0.00072592505
0.00087560487
0.0010401401
0.0012193297
0.001408046
0.0016000558
0.0017911688
0.0019776893
0.0021564083
0.0023251047
0.0024837964
0.0026299976
0.0027631444
0.0028842413
0.0029952811
0.0030953473
0.0031835558
0.0032609942
0.0033294658
0.0033909294
0.0034465816
0.00349671
0.0035417731
0.0035823697
0.0036192501
0.0036529446
0.0036833926
0.0037101179
0.0037340247
0.0037556783
0.0037753727
0.0037932218
0.0038092787
0.0038236842
0.0038365647
0.003847906
0.0038577578
0.0038662718
0.0038735988
0.0038798532
0.0038851078
0.0038894174
0.0038926273
0.0038947716
0.0038960119
0.0038964882
0.0038962929
0.0038954901
0.0038939602
0.0038916656
0.0038887246
0.003885257
0.0038813456
0.0038769899
0.0038720824
0.0038666484
0.0038608498
0.0038546498
0.0038479014
0.0038421268
0.0038264172
8.9432781e-06
8.8092188e-06
8.6750841e-06
8.5409375e-06
8.4068415e-06
8.2728665e-06
8.1391047e-06
8.0056974e-06
7.8728792e-06
7.7410399e-06
7.6108066e-06
7.4831449e-06
7.359465e-06
7.241729e-06
7.1325741e-06
7.035431e-06
6.9546703e-06
6.8957963e-06
6.8657605e-06
6.8732008e-06
6.9284722e-06
7.0442483e-06
7.2364761e-06
7.5254313e-06
7.9381597e-06
8.5104983e-06
9.2884528e-06
1.0331573e-05
1.171892e-05
1.35568e-05
1.5989183e-05
1.9218314e-05
2.3520364e-05
2.9266368e-05
3.6953507e-05
4.7271169e-05
6.1192997e-05
8.0100029e-05
0.0001058524
0.00014011076
0.0001848458
0.00024251167
0.00031657933
0.00041007547
0.00052523563
0.00065787654
0.00080702426
0.00097007427
0.0011439676
0.001321535
0.0014991273
0.0016733245
0.0018414353
0.0020017886
0.0021552179
0.0022995214
0.0024330042
0.0025557386
0.0026692394
0.0027736187
0.0028674097
0.0029520198
0.0030288176
0.003099197
0.0031636567
0.0032221016
0.0032745166
0.0033219211
0.0033652463
0.0034048478
0.0034409441
0.0034738286
0.0035039149
0.00353145
0.0035560966
0.0035782808
0.0035984285
0.0036167709
0.0036334298
0.0036484956
0.0036620578
0.0036741433
0.0036848336
0.0036942559
0.0037025288
0.0037097464
0.0037159741
0.0037211144
0.0037252028
0.0037283905
0.0037307914
0.0037324822
0.0037334542
0.0037336121
0.0037330354
0.0037319073
0.003730165
0.003727734
0.0037258703
0.0037146993
8.94331e-06
8.8092557e-06
8.6751223e-06
8.5409751e-06
8.4068768e-06
8.2728898e-06
8.1390748e-06
8.0054919e-06
7.8722046e-06
7.7392807e-06
7.6067969e-06
7.4748422e-06
7.3435323e-06
7.2130118e-06
7.083468e-06
6.9551462e-06
6.8283675e-06
6.7035502e-06
6.5812389e-06
6.4621364e-06
6.3471232e-06
6.2373005e-06
6.1340616e-06
6.0391772e-06
5.9549658e-06
5.8844994e-06
5.8317838e-06
5.8021198e-06
5.802684e-06
5.8433701e-06
5.9379966e-06
6.106587e-06
6.3785525e-06
6.7965378e-06
7.4226601e-06
8.3494828e-06
9.7169413e-06
1.1737559e-05
1.4736833e-05
1.9172047e-05
2.5683078e-05
3.5166005e-05
4.8892933e-05
6.8542671e-05
9.6276941e-05
0.00013420781
0.0001848028
0.00025105281
0.00033683331
0.00044289188
0.00056601903
0.00070557815
0.00085922848
0.0010229057
0.0011887608
0.0013541945
0.0015166222
0.0016739781
0.0018249327
0.001970729
0.0021091
0.0022386765
0.0023596366
0.0024731255
0.0025782839
0.0026739788
0.0027610452
0.0028407483
0.002914018
0.0029807618
0.0030414461
0.0030968782
0.0031478096
0.0031945449
0.0032369089
0.0032753517
0.0033105148
0.0033427644
0.0033722935
0.0033993142
0.0034240593
0.0034463907
0.003466628
0.0034850671
0.0035018727
0.0035171606
0.003531
0.003543429
0.0035545378
0.0035644421
0.0035732378
0.0035810021
0.0035877351
0.003593392
0.0035980975
0.0036020271
0.0036051024
0.003607293
0.0036097449
0.0036031703
8.9433521e-06
8.8093032e-06
8.6751735e-06
8.5410291e-06
8.4069328e-06
8.2729462e-06
8.1391294e-06
8.005541e-06
7.8722405e-06
7.7392875e-06
7.6067418e-06
7.4746633e-06
7.343112e-06
7.2121498e-06
7.0818385e-06
6.9522427e-06
6.8234298e-06
6.6954726e-06
6.5684511e-06
6.4424555e-06
6.3175888e-06
6.1939703e-06
6.0717406e-06
5.9510689e-06
5.8321643e-06
5.7152908e-06
5.6007821e-06
5.4890669e-06
5.380709e-06
5.2764669e-06
5.1773775e-06
5.0849115e-06
5.0012038e-06
4.9293526e-06
4.8739027e-06
4.8416991e-06
4.8433064e-06
4.8953205e-06
5.0248437e-06
5.2756817e-06
5.7173267e-06
6.4616727e-06
7.6902131e-06
9.6916466e-06
1.2914318e-05
1.8012797e-05
2.5929115e-05
3.7999996e-05
5.6109142e-05
8.2535158e-05
0.00011954187
0.00016975128
0.00023633769
0.00032381052
0.00042943482
0.00055118679
0.00068813077
0.00083771626
0.00099516202
0.0011515398
0.0013064873
0.0014583601
0.0016058898
0.0017487713
0.0018875368
0.0020196633
0.0021442024
0.0022614661
0.0023720723
0.0024731886
0.002565894
0.0026513962
0.0027304483
0.0028030005
0.0028690861
0.0029293723
0.0029846313
0.0030352171
0.0030814622
0.0031238435
0.0031628221
0.0031983446
0.0032307101
0.0032603615
0.0032875983
0.0033126003
0.0033355099
0.0033562959
0.0033752101
0.0033924915
0.0034082661
0.0034226297
0.0034356286
0.0034473274
0.0034578239
0.003467266
0.0034755744
0.0034827578
0.0034899859
0.0034881996
8.9434008e-06
8.8093584e-06
8.6752333e-06
8.5410919e-06
8.4069969e-06
8.2730099e-06
8.1391914e-06
8.005601e-06
7.8722983e-06
7.7393429e-06
7.606794e-06
7.4747109e-06
7.3431518e-06
7.2121748e-06
7.0818369e-06
6.9521944e-06
6.8233024e-06
6.6952151e-06
6.5679861e-06
6.4416681e-06
6.3163135e-06
6.191974e-06
6.068701e-06
5.9465464e-06
5.8255633e-06
5.7058071e-06
5.587337e-06
5.4702169e-06
5.3545186e-06
5.2403255e-06
5.1277388e-06
5.0168864e-06
4.9079389e-06
4.8011287e-06
4.6967807e-06
4.5953653e-06
4.4975862e-06
4.4045229e-06
4.3179103e-06
4.2405792e-06
4.1770942e-06
4.1349958e-06
4.1269955e-06
4.1747965e-06
4.3160216e-06
4.6151356e-06
5.1818431e-06
6.2033063e-06
7.9957218e-06
1.1064707e-05
1.6166356e-05
2.4406194e-05
3.7365194e-05
5.7372859e-05
8.6811917e-05
0.00012816805
0.00018435214
0.00025924893
0.00035526964
0.00046714116
0.0005936375
0.00073297195
0.00088142638
0.0010325214
0.0011805995
0.0013268659
0.0014701953
0.0016094508
0.0017460855
0.0018773652
0.0020020013
0.002120007
0.002231904
0.0023355668
0.0024310673
0.0025193318
0.0026009172
0.0026756862
0.0027441137
0.0028069486
0.0028647849
0.0029176161
0.0029658078
0.003009972
0.0030505203
0.0030877325
0.0031219247
0.0031531912
0.0031817798
0.0032080092
0.0032321271
0.0032542916
0.0032745418
0.0032929467
0.0033097918
0.0033252388
0.0033392282
0.0033518294
0.0033643706
0.0033675721
8.9434548e-06
8.8094194e-06
8.6752991e-06
8.5411607e-06
8.4070671e-06
8.27308e-06
8.1392606e-06
8.0056687e-06
7.8723643e-06
7.7394068e-06
7.6068557e-06
7.47477e-06
7.3432082e-06
7.212228e-06
7.0818866e-06
6.9522398e-06
6.8233423e-06
6.6952476e-06
6.568008e-06
6.4416743e-06
6.3162962e-06
6.1919214e-06
6.0685962e-06
5.946365e-06
5.8252707e-06
5.7053551e-06
5.5866585e-06
5.4692199e-06
5.3530768e-06
5.2382659e-06
5.1248234e-06
5.0127853e-06
4.902189e-06
4.7930742e-06
4.6854845e-06
4.579471e-06
4.4750973e-06
4.3724481e-06
4.2716456e-06
4.1728761e-06
4.0764292e-06
3.9827717e-06
3.892681e-06
3.8074837e-06
3.7295061e-06
3.6628415e-06
3.6146832e-06
3.5978838e-06
3.6357319e-06
3.7705778e-06
4.078313e-06
4.6938039e-06
5.8553591e-06
7.9829349e-06
1.174018e-05
1.8131966e-05
2.8626606e-05
4.5383493e-05
7.1217466e-05
0.00010869599
0.00016062696
0.00023075662
0.00032130729
0.00042990355
0.00055205476
0.00068613343
0.00082863987
0.00097499555
0.0011173492
0.0012584589
0.0013973279
0.0015327833
0.0016661999
0.0017950903
0.0019180954
0.0020350182
0.0021461149
0.002249038
0.0023442894
0.0024326241
0.0025144436
0.0025894936
0.0026583149
0.00272154
0.0027795145
0.0028326335
0.0028814389
0.0029261789
0.0029670852
0.0030045827
0.0030390768
0.0030708148
0.00309993
0.0031265503
0.0031510052
0.0031735345
0.003194181
0.0032129133
0.003231406
0.0032396389
8.9435129e-06
8.8094848e-06
8.6753698e-06
8.5412346e-06
8.4071427e-06
8.2731559e-06
8.1393356e-06
8.0057423e-06
7.8724359e-06
7.7394762e-06
7.6069227e-06
7.4748345e-06
7.3432702e-06
7.2122875e-06
7.0819435e-06
6.952294e-06
6.8233938e-06
6.6952964e-06
6.5680539e-06
6.4417171e-06
6.3163356e-06
6.1919569e-06
6.0686269e-06
5.9463899e-06
5.8252881e-06
5.7053626e-06
5.5866524e-06
5.469195e-06
5.3530259e-06
5.2381788e-06
5.1246856e-06
5.0125764e-06
4.9018798e-06
4.7926229e-06
4.6848314e-06
4.5785293e-06
4.4737397e-06
4.3704851e-06
4.2687883e-06
4.1686745e-06
4.0701733e-06
3.9733225e-06
3.8781762e-06
3.7848186e-06
3.6933907e-06
3.6041365e-06
3.5174847e-06
3.4342053e-06
3.3557085e-06
3.2846202e-06
3.2258241e-06
3.1883567e-06
3.1891188e-06
3.2604386e-06
3.4630791e-06
3.9097789e-06
4.8080509e-06
6.5368669e-06
9.7487244e-06
1.5465602e-05
2.5200267e-05
4.1202513e-05
6.6396846e-05
0.00010385172
0.00015640473
0.00022800363
0.00031906706
0.0004288343
0.00055098717
0.00068326972
0.0008222192
0.0009639466
0.0011019153
0.0012382363
0.0013727319
0.0015045836
0.0016345222
0.001759975
0.0018798594
0.0019941421
0.0021024843
0.0022028357
0.0022960717
0.0023826075
0.0024623629
0.0025357111
0.0026032542
0.0026652995
0.0027220873
0.002774137
0.0028219491
0.0028658498
0.002906144
0.0029430646
0.0029769465
0.003008134
0.003036836
0.0030629782
0.0030886134
0.0031028876
8.9435744e-06
8.8095538e-06
8.6754442e-06
8.5413125e-06
8.4072224e-06
8.2732361e-06
8.1394152e-06
8.0058206e-06
7.8725123e-06
7.7395505e-06
7.6069947e-06
7.474904e-06
7.3433371e-06
7.2123518e-06
7.0820051e-06
6.9523528e-06
6.8234497e-06
6.6953494e-06
6.568104e-06
6.4417643e-06
6.3163798e-06
6.1919982e-06
6.0686653e-06
5.9464253e-06
5.8253207e-06
5.7053924e-06
5.5866794e-06
5.469219e-06
5.3530467e-06
5.2381959e-06
5.1246984e-06
5.0125838e-06
4.9018804e-06
4.7926143e-06
4.6848101e-06
4.5784902e-06
4.4736751e-06
4.3703836e-06
4.2686324e-06
4.168437e-06
4.0698117e-06
3.9727689e-06
3.8773205e-06
3.7834781e-06
3.691255e-06
3.600669e-06
3.5117468e-06
3.4245329e-06
3.3391076e-06
3.255621e-06
3.1743581e-06
3.0958569e-06
3.0211432e-06
2.9522126e-06
2.8929563e-06
2.8509053e-06
2.8406806e-06
2.8911497e-06
3.0594511e-06
3.4565587e-06
4.2944504e-06
5.9737505e-06
9.2035364e-06
1.5146571e-05
2.553208e-05
4.2969664e-05
7.0576862e-05
0.00011183502
0.00016987217
0.00024768546
0.00034435618
0.00045870304
0.00058360058
0.00071571215
0.00085217158
0.00098947206
0.0011229186
0.001255147
0.0013854278
0.0015140988
0.0016400425
0.0017612918
0.0018772529
0.0019879447
0.0020915741
0.0021879698
0.00227762
0.0023606391
0.0024370841
0.0025074319
0.0025721242
0.002631488
0.0026859982
0.0027360072
0.0027818365
0.0028239293
0.0028626773
0.0028980109
0.0029323877
0.0029543887
8.9436387e-06
8.8096256e-06
8.6755217e-06
8.5413937e-06
8.4073056e-06
8.27332e-06
8.1394987e-06
8.0059028e-06
7.8725928e-06
7.7396289e-06
7.6070708e-06
7.4749776e-06
7.3434081e-06
7.2124201e-06
7.0820705e-06
6.9524153e-06
6.8235093e-06
6.695406e-06
6.5681577e-06
6.4418151e-06
6.3164276e-06
6.1920431e-06
6.0687073e-06
5.9464645e-06
5.8253573e-06
5.7054263e-06
5.5867108e-06
5.4692481e-06
5.3530736e-06
5.2382207e-06
5.1247212e-06
5.0126048e-06
4.9018995e-06
4.7926316e-06
4.6848255e-06
4.5785035e-06
4.4736859e-06
4.3703913e-06
4.2686362e-06
4.1684355e-06
4.0698022e-06
3.9727477e-06
3.8772813e-06
3.7834104e-06
3.6911413e-06
3.6004788e-06
3.5114267e-06
3.4239884e-06
3.3381673e-06
3.2539696e-06
3.1714079e-06
3.0905083e-06
3.0113237e-06
2.9339633e-06
2.8586497e-06
2.7858304e-06
2.7163991e-06
2.652161e-06
2.5967966e-06
2.5577671e-06
2.5501482e-06
2.6048639e-06
2.7854253e-06
3.2209085e-06
4.1667821e-06
6.1208022e-06
9.9677649e-06
1.7174648e-05
2.9954262e-05
5.1389048e-05
8.4922471e-05
0.00013436263
0.00020332383
0.00029111446
0.00039695832
0.00051755584
0.0006450115
0.00077689733
0.00091099136
0.0010433233
0.0011727061
0.0013010908
0.0014277803
0.0015529359
0.0016742463
0.0017906348
0.0019020335
0.0020073803
0.002105474
0.0021967728
0.0022815077
0.0023596672
0.0024317075
0.0024980037
0.0025588273
0.0026146664
0.0026660334
0.0027128987
0.0027581076
0.0027900929
8.9437054e-06
8.8096997e-06
8.6756015e-06
8.5414774e-06
8.4073915e-06
8.2734068e-06
8.1395853e-06
8.0059883e-06
7.8726768e-06
7.7397108e-06
7.6071504e-06
7.4750548e-06
7.3434826e-06
7.2124918e-06
7.0821393e-06
6.9524812e-06
6.8235722e-06
6.6954659e-06
6.5682146e-06
6.4418689e-06
6.3164784e-06
6.1920908e-06
6.0687521e-06
5.9465064e-06
5.8253963e-06
5.7054627e-06
5.5867446e-06
5.4692795e-06
5.3531027e-06
5.2382477e-06
5.1247462e-06
5.012628e-06
4.901921e-06
4.7926516e-06
4.6848441e-06
4.5785208e-06
4.473702e-06
4.3704062e-06
4.26865e-06
4.1684481e-06
4.0698136e-06
3.9727577e-06
3.8772895e-06
3.7834165e-06
3.6911442e-06
3.6004769e-06
3.5114172e-06
3.4239659e-06
3.3381226e-06
3.2538852e-06
3.1712512e-06
3.0902173e-06
3.0107803e-06
2.9329388e-06
2.8566971e-06
2.7820714e-06
2.7091035e-06
2.6378889e-06
2.5686367e-06
2.5017927e-06
2.438289e-06
2.3800896e-06
2.3313615e-06
2.300926e-06
2.3073855e-06
2.3906776e-06
2.6358437e-06
3.22223e-06
4.5176872e-06
7.2313017e-06
1.261169e-05
2.2685219e-05
4.0495883e-05
6.952399e-05
0.00011355854
0.00017696186
0.00025972738
0.00036061248
0.00047711269
0.00060215572
0.00073074374
0.00086155298
0.00099214214
0.0011195346
0.0012455088
0.001369993
0.0014936993
0.0016142085
0.0017301506
0.0018413275
0.0019469476
0.0020453888
0.0021371368
0.0022224278
0.0023011554
0.0023737124
0.0024406149
0.0025017897
0.0025603469
0.0026050533
8.9437743e-06
8.8097759e-06
8.6756834e-06
8.5415632e-06
8.4074798e-06
8.2734961e-06
8.1396745e-06
8.0060767e-06
7.8727636e-06
7.7397958e-06
7.6072331e-06
7.475135e-06
7.3435602e-06
7.2125666e-06
7.0822112e-06
6.9525501e-06
6.8236381e-06
6.6955287e-06
6.5682742e-06
6.4419255e-06
6.3165319e-06
6.1921411e-06
6.0687993e-06
5.9465506e-06
5.8254377e-06
5.7055013e-06
5.5867806e-06
5.469313e-06
5.3531338e-06
5.2382766e-06
5.1247731e-06
5.012653e-06
4.9019444e-06
4.7926734e-06
4.6848644e-06
4.5785397e-06
4.4737197e-06
4.3704228e-06
4.2686655e-06
4.1684626e-06
4.0698272e-06
3.9727704e-06
3.8773014e-06
3.7834275e-06
3.6911544e-06
3.6004862e-06
3.5114255e-06
3.423973e-06
3.3381279e-06
3.253888e-06
3.1712496e-06
3.0902081e-06
3.010757e-06
2.9328889e-06
2.8565957e-06
2.7818688e-06
2.7087002e-06
2.6370835e-06
2.5670185e-06
2.4985178e-06
2.4316229e-06
2.3664373e-06
2.3032011e-06
2.24245e-06
2.1853547e-06
2.1345008e-06
2.0956092e-06
2.0813032e-06
2.1195801e-06
2.2727001e-06
2.6777743e-06
3.6317731e-06
5.750219e-06
1.0172613e-05
1.8810158e-05
3.4726039e-05
6.1584394e-05
0.00010327046
0.00016428755
0.00024514772
0.00034408805
0.00045829796
0.00058203898
0.00070846178
0.00083649774
0.00096484732
0.0010902379
0.0012137605
0.0013361743
0.0014581561
0.0015772627
0.0016920557
0.0018022628
0.0019070761
0.0020048375
0.0020959896
0.0021808585
0.0022589522
0.0023334258
0.0023939063
8.943845e-06
8.8098537e-06
8.675767e-06
8.5416508e-06
8.4075699e-06
8.2735875e-06
8.139766e-06
8.0061675e-06
7.872853e-06
7.7398834e-06
7.6073185e-06
7.4752179e-06
7.3436405e-06
7.2126441e-06
7.0822858e-06
6.9526217e-06
6.8237066e-06
6.695594e-06
6.5683364e-06
6.4419845e-06
6.3165877e-06
6.1921938e-06
6.0688488e-06
5.9465971e-06
5.8254811e-06
5.7055419e-06
5.5868186e-06
5.4693484e-06
5.3531668e-06
5.2383073e-06
5.1248016e-06
5.0126796e-06
4.9019692e-06
4.7926966e-06
4.684886e-06
4.5785599e-06
4.4737386e-06
4.3704405e-06
4.2686821e-06
4.1684782e-06
4.0698419e-06
3.9727842e-06
3.8773143e-06
3.7834396e-06
3.6911658e-06
3.6004969e-06
3.5114355e-06
3.4239823e-06
3.3381366e-06
3.2538959e-06
3.1712569e-06
3.0902144e-06
3.0107621e-06
2.9328922e-06
2.8565959e-06
2.7818632e-06
2.7086834e-06
2.6370443e-06
2.5669337e-06
2.4983391e-06
2.4312487e-06
2.3656537e-06
2.3015525e-06
2.238961e-06
2.1779331e-06
2.1186101e-06
2.0613324e-06
2.0068866e-06
1.9570756e-06
1.9160528e-06
1.8933722e-06
1.9110293e-06
2.0202528e-06
2.3386768e-06
3.1307073e-06
4.9763012e-06
9.0006254e-06
1.7146309e-05
3.2588916e-05
5.9241161e-05
0.00010116076
0.00016288079
0.00024461824
0.00034418698
0.00045805054
0.00058112624
0.00070590569
0.00083155646
0.00095745932
0.0010806785
0.0012019399
0.0013225343
0.0014426373
0.0015599006
0.0016730557
0.0017817021
0.0018849142
0.0019809332
0.0020729817
0.0021519487
8.9439174e-06
8.8099331e-06
8.675852e-06
8.5417399e-06
8.4076616e-06
8.2736806e-06
8.1398595e-06
8.0062603e-06
7.8729447e-06
7.7399733e-06
7.6074063e-06
7.4753033e-06
7.3437232e-06
7.212724e-06
7.0823628e-06
6.9526957e-06
6.8237774e-06
6.6956617e-06
6.5684008e-06
6.4420457e-06
6.3166456e-06
6.1922485e-06
6.0689003e-06
5.9466455e-06
5.8255265e-06
5.7055844e-06
5.5868583e-06
5.4693854e-06
5.3532013e-06
5.2383395e-06
5.1248317e-06
5.0127076e-06
4.9019953e-06
4.792721e-06
4.6849089e-06
4.5785813e-06
4.4737586e-06
4.3704593e-06
4.2686997e-06
4.1684948e-06
4.0698574e-06
3.9727988e-06
3.8773281e-06
3.7834525e-06
3.6911779e-06
3.6005083e-06
3.5114462e-06
3.4239923e-06
3.3381459e-06
3.2539047e-06
3.1712651e-06
3.0902221e-06
3.0107692e-06
2.9328987e-06
2.8566018e-06
2.7818684e-06
2.7086876e-06
2.637047e-06
2.5669336e-06
2.4983336e-06
2.4312322e-06
2.3656141e-06
2.3014637e-06
2.2387657e-06
2.1775067e-06
2.1176774e-06
2.0592803e-06
2.0023451e-06
1.946964e-06
1.8933785e-06
1.8421809e-06
1.7947863e-06
1.7545965e-06
1.7297797e-06
1.7398159e-06
1.8320195e-06
2.1196204e-06
2.8670193e-06
4.6749955e-06
8.7497127e-06
1.7212986e-05
3.3520838e-05
6.1864767e-05
0.00010651885
0.00017149368
0.00025668055
0.0003589261
0.00047379517
0.00059640602
0.00071974052
0.00084332619
0.00096675082
0.0010877589
0.0012069092
0.0013259287
0.0014440371
0.0015592259
0.0016701766
0.0017790484
0.0018772759
8.9439914e-06
8.8100138e-06
8.6759382e-06
8.5418303e-06
8.4077547e-06
8.2737752e-06
8.1399545e-06
8.006355e-06
7.8730383e-06
7.7400652e-06
7.6074962e-06
7.4753909e-06
7.3438082e-06
7.2128062e-06
7.0824421e-06
6.9527718e-06
6.8238504e-06
6.6957315e-06
6.5684674e-06
6.4421089e-06
6.3167056e-06
6.1923052e-06
6.0689538e-06
5.9466957e-06
5.8255737e-06
5.7056286e-06
5.5868996e-06
5.4694241e-06
5.3532374e-06
5.2383732e-06
5.1248631e-06
5.012737e-06
4.9020228e-06
4.7927467e-06
4.6849329e-06
4.5786038e-06
4.4737797e-06
4.370479e-06
4.2687183e-06
4.1685122e-06
4.0698739e-06
3.9728142e-06
3.8773426e-06
3.7834662e-06
3.6911907e-06
3.6005203e-06
3.5114575e-06
3.4240029e-06
3.3381559e-06
3.253914e-06
3.1712738e-06
3.0902302e-06
3.0107768e-06
2.9329058e-06
2.8566083e-06
2.7818745e-06
2.7086932e-06
2.6370521e-06
2.5669382e-06
2.4983375e-06
2.4312353e-06
2.3656156e-06
2.3014622e-06
2.2387582e-06
2.1774859e-06
2.1176276e-06
2.0591656e-06
2.0020834e-06
1.9463678e-06
1.8920142e-06
1.8390393e-06
1.7875112e-06
1.7376241e-06
1.689883e-06
1.6455468e-06
1.6077671e-06
1.5844268e-06
1.5950814e-06
1.6890366e-06
1.9889949e-06
2.7919271e-06
4.7873219e-06
9.3786664e-06
1.905012e-05
3.7668065e-05
6.9744544e-05
0.00011977143
0.00019050863
0.00028107619
0.00038722357
0.0005036741
0.00062562847
0.00074748866
0.00086919389
0.0009901768
0.0011089513
0.0012262446
0.0013436712
0.0014618896
0.0015741324
8.9440669e-06
8.8100957e-06
8.6760255e-06
8.5419217e-06
8.407849e-06
8.2738711e-06
8.1400511e-06
8.0064513e-06
7.8731336e-06
7.740159e-06
7.607588e-06
7.4754804e-06
7.3438952e-06
7.2128904e-06
7.0825233e-06
6.95285e-06
6.8239255e-06
6.6958033e-06
6.5685358e-06
6.4421741e-06
6.3167674e-06
6.1923636e-06
6.0690089e-06
5.9467476e-06
5.8256225e-06
5.7056744e-06
5.5869425e-06
5.4694642e-06
5.3532749e-06
5.2384082e-06
5.1248958e-06
5.0127675e-06
4.9020514e-06
4.7927734e-06
4.684958e-06
4.5786273e-06
4.4738017e-06
4.3704997e-06
4.2687377e-06
4.1685305e-06
4.069891e-06
3.9728304e-06
3.8773577e-06
3.7834804e-06
3.6912041e-06
3.6005329e-06
3.5114693e-06
3.424014e-06
3.3381663e-06
3.2539238e-06
3.1712829e-06
3.0902387e-06
3.0107847e-06
2.9329132e-06
2.8566153e-06
2.7818809e-06
2.7086991e-06
2.6370576e-06
2.5669433e-06
2.4983422e-06
2.4312395e-06
2.3656195e-06
2.3014657e-06
2.238761e-06
2.1774878e-06
2.1176276e-06
2.0591618e-06
2.0020711e-06
1.9463362e-06
1.8919376e-06
1.8388572e-06
1.7870793e-06
1.7365957e-06
1.6874173e-06
1.6396023e-06
1.5933301e-06
1.5490903e-06
1.5081561e-06
1.4738415e-06
1.4547664e-06
1.4731829e-06
1.5872812e-06
1.9471266e-06
2.9277716e-06
5.402421e-06
1.1127163e-05
2.3176897e-05
4.5909839e-05
8.4099306e-05
0.00014226407
0.00022081947
0.00031790194
0.00042804761
0.00054601711
0.00066695533
0.00078723334
0.0009073015
0.0010256022
0.0011444842
0.0012604853
8.9441438e-06
8.8101788e-06
8.6761138e-06
8.5420141e-06
8.4079443e-06
8.2739681e-06
8.1401488e-06
8.0065489e-06
7.8732304e-06
7.7402544e-06
7.6076816e-06
7.4755717e-06
7.343984e-06
7.2129765e-06
7.0826065e-06
6.9529301e-06
6.8240023e-06
6.6958769e-06
6.5686061e-06
6.442241e-06
6.3168309e-06
6.1924238e-06
6.0690657e-06
5.9468012e-06
5.8256728e-06
5.7057216e-06
5.5869868e-06
5.4695056e-06
5.3533137e-06
5.2384444e-06
5.1249297e-06
5.0127992e-06
4.902081e-06
4.7928012e-06
4.684984e-06
4.5786517e-06
4.4738246e-06
4.3705212e-06
4.2687579e-06
4.1685495e-06
4.0699089e-06
3.9728472e-06
3.8773735e-06
3.7834953e-06
3.6912181e-06
3.6005461e-06
3.5114816e-06
3.4240256e-06
3.3381772e-06
3.253934e-06
3.1712925e-06
3.0902476e-06
3.0107931e-06
2.932921e-06
2.8566225e-06
2.7818876e-06
2.7087053e-06
2.6370634e-06
2.5669486e-06
2.4983472e-06
2.4312441e-06
2.3656237e-06
2.3014695e-06
2.2387645e-06
2.1774909e-06
2.1176304e-06
2.0591641e-06
2.0020728e-06
1.9463366e-06
1.8919353e-06
1.8388487e-06
1.7870563e-06
1.7365376e-06
1.6872731e-06
1.6392463e-06
1.5924475e-06
1.5468865e-06
1.5026228e-06
1.4598476e-06
1.4191033e-06
1.3818553e-06
1.3520667e-06
1.34045e-06
1.3758219e-06
1.5360837e-06
2.0280505e-06
3.3795744e-06
6.7924379e-06
1.4601115e-05
3.0709035e-05
5.9870584e-05
0.00010704154
0.0001751114
0.0002629809
0.00036686109
0.00048047983
0.00059968133
0.00071883252
0.00083979732
0.00095732158
8.9442219e-06
8.8102629e-06
8.676203e-06
8.5421074e-06
8.4080405e-06
8.2740661e-06
8.1402477e-06
8.0066478e-06
7.8733285e-06
7.7403512e-06
7.6077766e-06
7.4756647e-06
7.3440744e-06
7.2130642e-06
7.0826913e-06
6.9530119e-06
6.8240809e-06
6.6959522e-06
6.5686781e-06
6.4423095e-06
6.3168961e-06
6.1924855e-06
6.0691241e-06
5.9468562e-06
5.8257246e-06
5.7057703e-06
5.5870324e-06
5.4695484e-06
5.3533537e-06
5.2384819e-06
5.1249647e-06
5.012832e-06
4.9021117e-06
4.7928299e-06
4.6850109e-06
4.5786769e-06
4.4738483e-06
4.3705434e-06
4.2687788e-06
4.1685691e-06
4.0699274e-06
3.9728646e-06
3.8773899e-06
3.7835106e-06
3.6912326e-06
3.6005597e-06
3.5114944e-06
3.4240376e-06
3.3381884e-06
3.2539445e-06
3.1713024e-06
3.0902569e-06
3.0108017e-06
2.932929e-06
2.85663e-06
2.7818946e-06
2.7087118e-06
2.6370694e-06
2.5669542e-06
2.4983523e-06
2.4312488e-06
2.365628e-06
2.3014735e-06
2.2387681e-06
2.1774942e-06
2.1176335e-06
2.0591669e-06
2.0020752e-06
1.9463387e-06
1.8919372e-06
1.8388501e-06
1.7870566e-06
1.7365358e-06
1.6872663e-06
1.639227e-06
1.5923969e-06
1.5467561e-06
1.5022877e-06
1.4589828e-06
1.4168544e-06
1.3759752e-06
1.3365807e-06
1.2993578e-06
1.2662332e-06
1.2426099e-06
1.2436143e-06
1.3116532e-06
1.564735e-06
2.3230452e-06
4.399613e-06
9.5465251e-06
2.1002253e-05
4.344856e-05
8.1941164e-05
0.00014098982
0.00022050515
0.00031817996
0.00042750996
0.00054591939
0.00066446299
8.9443013e-06
8.810348e-06
8.6762931e-06
8.5422014e-06
8.4081374e-06
8.274165e-06
8.1403475e-06
8.0067477e-06
7.8734279e-06
7.7404494e-06
7.6078731e-06
7.4757591e-06
7.3441664e-06
7.2131536e-06
7.0827778e-06
6.9530952e-06
6.8241611e-06
6.6960291e-06
6.5687516e-06
6.4423796e-06
6.3169627e-06
6.1925487e-06
6.0691838e-06
5.9469126e-06
5.8257777e-06
5.7058202e-06
5.5870793e-06
5.4695924e-06
5.3533948e-06
5.2385204e-06
5.1250007e-06
5.0128657e-06
4.9021433e-06
4.7928596e-06
4.6850387e-06
4.578703e-06
4.4738727e-06
4.3705663e-06
4.2688003e-06
4.1685894e-06
4.0699465e-06
3.9728825e-06
3.8774067e-06
3.7835265e-06
3.6912475e-06
3.6005737e-06
3.5115076e-06
3.42405e-06
3.3382e-06
3.2539554e-06
3.1713126e-06
3.0902664e-06
3.0108106e-06
2.9329373e-06
2.8566377e-06
2.7819017e-06
2.7087184e-06
2.6370755e-06
2.5669599e-06
2.4983575e-06
2.4312536e-06
2.3656325e-06