/*--------------------------------*- C++ -*----------------------------------*\
  =========                 |
  \\      /  F ield         | OpenFOAM: The Open Source CFD Toolbox
   \\    /   O peration     | Website:  https://openfoam.org
    \\  /    A nd           | Version:  12
     \\/     M anipulation  |
\*---------------------------------------------------------------------------*/
FoamFile
{
    format      ascii;
    class       volScalarField;
    location    "1600";
    object      nut;
}
// * * * * * * * * * * * * * * * * * * * * * * * * * * * * * * * * * * * * * //

dimensions      [0 2 -1 0 0 0 0];

internalField   nonuniform List<scalar> 
7480
(
8.07115e-08
4.2959898e-08
3.1056129e-08
2.8365241e-08
3.1793761e-06
5.3315285e-06
6.3337974e-06
6.9862358e-06
7.39916e-06
7.647247e-06
7.4892998e-06
7.2191838e-06
6.8978895e-06
6.557382e-06
6.2181092e-06
5.8929902e-06
5.5904228e-06
5.3199035e-06
5.0761525e-06
4.8644068e-06
4.6802261e-06
4.5209448e-06
4.3858873e-06
4.2745412e-06
4.18608e-06
4.1198769e-06
4.074847e-06
4.0495008e-06
4.042132e-06
4.0508602e-06
4.0736382e-06
4.1083646e-06
4.1529861e-06
4.2077007e-06
4.2711588e-06
4.3413201e-06
4.4158478e-06
4.4924284e-06
4.5696713e-06
4.6465645e-06
4.7219929e-06
4.7948454e-06
4.8642467e-06
4.9294831e-06
4.9899904e-06
5.0454437e-06
5.0953286e-06
5.141238e-06
5.1827918e-06
5.2192545e-06
5.2501879e-06
5.2754993e-06
5.2955095e-06
5.3109741e-06
5.322713e-06
5.3315615e-06
5.3384601e-06
5.3439241e-06
5.3482336e-06
5.3514706e-06
5.3535694e-06
5.354604e-06
5.3548308e-06
5.3544459e-06
5.3534985e-06
5.3520985e-06
5.3505505e-06
5.3488763e-06
5.3469259e-06
5.3446487e-06
5.3420115e-06
5.3389121e-06
5.3354318e-06
5.3316927e-06
5.3276761e-06
5.323433e-06
5.3190425e-06
5.3143769e-06
5.3093862e-06
5.3041729e-06
5.2987023e-06
5.2930129e-06
5.287212e-06
5.2812243e-06
5.2750164e-06
5.2686371e-06
5.2620738e-06
5.2553607e-06
5.2485104e-06
5.2415253e-06
5.2344114e-06
5.2271398e-06
5.219733e-06
5.2122188e-06
5.2045151e-06
5.1967795e-06
5.1889075e-06
5.180355e-06
5.1684831e-06
5.1776489e-06
1.6699853e-07
1.6479325e-07
1.6275607e-07
1.615244e-07
7.8951192e-07
2.0013908e-06
3.2199022e-06
4.1000391e-06
4.6101958e-06
4.8536644e-06
4.9291323e-06
4.9199849e-06
4.9201949e-06
4.967197e-06
5.0574461e-06
5.1936056e-06
5.3999661e-06
5.743318e-06
5.8735777e-06
6.1611507e-06
6.4630733e-06
6.7817994e-06
7.1154525e-06
7.4620433e-06
7.8193328e-06
8.1874888e-06
8.5617637e-06
8.9378403e-06
9.3126835e-06
9.6838928e-06
1.0049757e-05
1.0409614e-05
1.0764454e-05
1.1116905e-05
1.1464026e-05
1.1800533e-05
1.212062e-05
1.2422188e-05
1.2708313e-05
1.2978531e-05
1.323179e-05
1.3467524e-05
1.3684968e-05
1.3883386e-05
1.4063292e-05
1.4225493e-05
1.437088e-05
1.4499052e-05
1.4609969e-05
1.4704867e-05
1.478556e-05
1.4853989e-05
1.4912209e-05
1.4962479e-05
1.5006602e-05
1.5046574e-05
1.5083926e-05
1.5118199e-05
1.5149386e-05
1.5177709e-05
1.5203387e-05
1.5226852e-05
1.5248586e-05
1.5268782e-05
1.5287418e-05
1.5304586e-05
1.5320506e-05
1.5334719e-05
1.5346916e-05
1.5357241e-05
1.5365887e-05
1.5372928e-05
1.537867e-05
1.538329e-05
1.5386588e-05
1.5388488e-05
1.5389e-05
1.5388018e-05
1.5385753e-05
1.5382515e-05
1.5378316e-05
1.5373182e-05
1.5367076e-05
1.5359808e-05
1.5351499e-05
1.5342362e-05
1.5332493e-05
1.5321933e-05
1.5310569e-05
1.5298387e-05
1.5285466e-05
1.5271894e-05
1.5257788e-05
1.5243106e-05
1.5227646e-05
1.5211865e-05
1.5195177e-05
1.5177418e-05
1.5157286e-05
1.5154049e-05
1.6882482e-07
1.6856637e-07
1.6827203e-07
1.679569e-07
1.799849e-07
2.3387091e-07
3.7065956e-07
6.1993468e-07
9.7978279e-07
1.4139536e-06
1.859001e-06
2.2551074e-06
2.5711108e-06
2.8048905e-06
2.9699828e-06
3.0862246e-06
3.1760253e-06
3.276374e-06
3.4091552e-06
3.5801062e-06
3.7897298e-06
4.0379112e-06
4.3259424e-06
4.657328e-06
5.037485e-06
5.4517116e-06
5.9086906e-06
6.4112547e-06
6.962659e-06
7.5669988e-06
8.2301559e-06
8.9619452e-06
9.7491996e-06
1.0441621e-05
1.115926e-05
1.1897471e-05
1.2644663e-05
1.3391072e-05
1.4134008e-05
1.4867108e-05
1.5587651e-05
1.6292965e-05
1.6970468e-05
1.7614663e-05
1.8230881e-05
1.8817455e-05
1.9374709e-05
1.9795212e-05
2.016811e-05
2.0510607e-05
2.0826874e-05
2.1119936e-05
2.1392613e-05
2.164808e-05
2.1888945e-05
2.2115134e-05
2.2325444e-05
2.2521064e-05
2.2703998e-05
2.287622e-05
2.303909e-05
2.3193619e-05
2.3340439e-05
2.3479907e-05
2.3612392e-05
2.3738131e-05
2.3856044e-05
2.3965995e-05
2.4068686e-05
2.4165073e-05
2.4255801e-05
2.4341166e-05
2.4421655e-05
2.4497568e-05
2.4568049e-05
2.4632959e-05
2.4692738e-05
2.4747785e-05
2.4798785e-05
2.4846205e-05
2.4890139e-05
2.4930311e-05
2.4966453e-05
2.4998634e-05
2.5027461e-05
2.5053377e-05
2.5076644e-05
2.509714e-05
2.5114517e-05
2.5128966e-05
2.5140853e-05
2.515049e-05
2.5158072e-05
2.5163282e-05
2.5166008e-05
2.5166773e-05
2.5165865e-05
2.5159405e-05
2.5161546e-05
2.5117338e-05
1.6885075e-07
1.686475e-07
1.6843942e-07
1.6822677e-07
1.6818687e-07
1.6896542e-07
1.7200456e-07
1.7977431e-07
1.9582233e-07
2.2501314e-07
2.7252296e-07
3.4287946e-07
4.3898241e-07
5.6140445e-07
7.0817632e-07
8.7496352e-07
1.0557605e-06
1.2452603e-06
1.4385439e-06
1.6317083e-06
1.8218934e-06
2.0080459e-06
2.1905272e-06
2.3709834e-06
2.5526715e-06
2.7515919e-06
2.971359e-06
3.2171377e-06
3.4959522e-06
3.8170858e-06
4.19286e-06
4.6395344e-06
5.1788535e-06
5.7987365e-06
6.5089674e-06
7.3171299e-06
8.2237883e-06
9.2227588e-06
1.0050052e-05
1.0924479e-05
1.184002e-05
1.2791043e-05
1.377038e-05
1.4770459e-05
1.5777436e-05
1.6778691e-05
1.7768355e-05
1.8737633e-05
1.967404e-05
2.0577857e-05
2.1449869e-05
2.2286452e-05
2.3084965e-05
2.3843542e-05
2.4564596e-05
2.5198412e-05
2.5728769e-05
2.6228984e-05
2.6704162e-05
2.715782e-05
2.7591623e-05
2.8006751e-05
2.8404339e-05
2.8785631e-05
2.9151694e-05
2.9502363e-05
2.9834771e-05
3.0149706e-05
3.0448923e-05
3.0734099e-05
3.1006303e-05
3.1266095e-05
3.1514327e-05
3.1751673e-05
3.1976766e-05
3.2189578e-05
3.2391063e-05
3.2582014e-05
3.2763379e-05
3.2935898e-05
3.3099874e-05
3.325475e-05
3.3400398e-05
3.353726e-05
3.366625e-05
3.3788071e-05
3.3903171e-05
3.4011268e-05
3.4112021e-05
3.4205934e-05
3.4293677e-05
3.4375764e-05
3.4452431e-05
3.4523241e-05
3.4588111e-05
3.4648251e-05
3.4703343e-05
3.4750294e-05
3.4799264e-05
3.4801181e-05
1.6885075e-07
1.6864865e-07
1.684433e-07
1.6823488e-07
1.6802585e-07
1.6782779e-07
1.6767378e-07
1.6763633e-07
1.6784749e-07
1.6852899e-07
1.7001453e-07
1.7277054e-07
1.7740615e-07
1.8467796e-07
1.9549643e-07
2.109222e-07
2.3216194e-07
2.6057525e-07
2.9768409e-07
3.4509064e-07
4.0435583e-07
4.7704503e-07
5.6471475e-07
6.6882494e-07
7.9075854e-07
9.3173415e-07
1.0920656e-06
1.2712167e-06
1.4680414e-06
1.6811125e-06
1.9092186e-06
2.152249e-06
2.4111931e-06
2.7049575e-06
3.0419448e-06
3.4341595e-06
3.8968615e-06
4.4487711e-06
5.1205346e-06
5.8939569e-06
6.7770188e-06
7.7761193e-06
8.8969382e-06
9.8758525e-06
1.0795301e-05
1.1789275e-05
1.2840791e-05
1.3945108e-05
1.5095335e-05
1.6281447e-05
1.747895e-05
1.8671702e-05
1.9852638e-05
2.1016853e-05
2.2173401e-05
2.3312159e-05
2.4420224e-05
2.5488723e-05
2.651101e-05
2.749072e-05
2.8432963e-05
2.9342971e-05
3.0222901e-05
3.1071429e-05
3.1885976e-05
3.2646616e-05
3.3284305e-05
3.38939e-05
3.4478937e-05
3.5041319e-05
3.5582096e-05
3.610212e-05
3.6602716e-05
3.7084783e-05
3.7545007e-05
3.7983563e-05
3.840241e-05
3.8803002e-05
3.9186609e-05
3.9554259e-05
3.9906563e-05
4.0242436e-05
4.0561916e-05
4.0865932e-05
4.1155724e-05
4.143228e-05
4.1696277e-05
4.1947214e-05
4.2184881e-05
4.2410181e-05
4.2624088e-05
4.2827331e-05
4.3020166e-05
4.3202054e-05
4.3373126e-05
4.3535226e-05
4.3687528e-05
4.3828004e-05
4.3961996e-05
4.4045724e-05
1.6885038e-07
1.6864836e-07
1.6844321e-07
1.6823498e-07
1.6802376e-07
1.6780978e-07
1.675937e-07
1.6737729e-07
1.671643e-07
1.6696203e-07
1.6678329e-07
1.6664909e-07
1.6659155e-07
1.6665726e-07
1.6691115e-07
1.6744073e-07
1.6836116e-07
1.6982199e-07
1.7201727e-07
1.7519453e-07
1.7965896e-07
1.8579184e-07
1.9407921e-07
2.0514195e-07
2.198027e-07
2.3914212e-07
2.6452644e-07
2.9768112e-07
3.4079998e-07
3.9665339e-07
4.6867402e-07
5.6114221e-07
6.7897251e-07
8.2762384e-07
1.0124167e-06
1.238145e-06
1.508315e-06
1.8240167e-06
2.1824881e-06
2.5774087e-06
3.0272339e-06
3.5421378e-06
4.1404791e-06
4.8350561e-06
5.6785355e-06
6.6480506e-06
7.7518111e-06
8.9904781e-06
1.0304238e-05
1.1260052e-05
1.2309212e-05
1.3434624e-05
1.4627644e-05
1.5880011e-05
1.7190194e-05
1.853525e-05
1.9894791e-05
2.1253977e-05
2.2601453e-05
2.3964309e-05
2.5324585e-05
2.6671558e-05
2.7992504e-05
2.9278922e-05
3.0535214e-05
3.1763165e-05
3.2954123e-05
3.4104629e-05
3.5208651e-05
3.6268694e-05
3.7291124e-05
3.8282253e-05
3.9240231e-05
4.0165588e-05
4.0961401e-05
4.1697621e-05
4.24059e-05
4.3088044e-05
4.3745271e-05
4.4378776e-05
4.4989486e-05
4.5574395e-05
4.6133735e-05
4.6669429e-05
4.7183225e-05
4.767643e-05
4.8149956e-05
4.8602803e-05
4.9034856e-05
4.9447493e-05
4.9842025e-05
5.0219443e-05
5.0579998e-05
5.0922998e-05
5.1248942e-05
5.1560199e-05
5.1855588e-05
5.2134185e-05
5.2396787e-05
5.2603544e-05
1.6885005e-07
1.6864799e-07
1.6844282e-07
1.6823459e-07
1.6802336e-07
1.6780919e-07
1.675921e-07
1.6737215e-07
1.6714943e-07
1.6692416e-07
1.6669675e-07
1.6646793e-07
1.6623903e-07
1.6601216e-07
1.6579055e-07
1.6557903e-07
1.6538457e-07
1.6521696e-07
1.6508977e-07
1.6502143e-07
1.6503622e-07
1.6516577e-07
1.6545168e-07
1.6594854e-07
1.6672968e-07
1.6789446e-07
1.6957545e-07
1.7195158e-07
1.7526869e-07
1.7986949e-07
1.8623687e-07
1.9507425e-07
2.0741475e-07
2.247597e-07
2.4928208e-07
2.8416545e-07
3.3407875e-07
4.0574791e-07
5.0861007e-07
6.540453e-07
8.5474646e-07
1.1225911e-06
1.4655116e-06
1.8801848e-06
2.3509294e-06
2.875475e-06
3.4691627e-06
4.1467059e-06
4.9423135e-06
5.8959714e-06
6.9898277e-06
8.2364046e-06
9.6366989e-06
1.1178617e-05
1.2324501e-05
1.3446884e-05
1.4658139e-05
1.5950758e-05
1.7316285e-05
1.8758999e-05
2.0248212e-05
2.175751e-05
2.3271028e-05
2.4794185e-05
2.6356604e-05
2.7930515e-05
2.9504314e-05
3.1053221e-05
3.2579348e-05
3.4082006e-05
3.5560781e-05
3.7010561e-05
3.8419922e-05
3.9789357e-05
4.1112879e-05
4.2390622e-05
4.3619977e-05
4.4801253e-05
4.5939878e-05
4.7041137e-05
4.8108992e-05
4.9041553e-05
4.9902335e-05
5.0731657e-05
5.1531472e-05
5.2303079e-05
5.3047521e-05
5.3762126e-05
5.4446805e-05
5.5103897e-05
5.5735211e-05
5.6342019e-05
5.6924401e-05
5.7481189e-05
5.8013447e-05
5.8523994e-05
5.901154e-05
5.9476051e-05
5.9914767e-05
6.0289607e-05
1.6884981e-07
1.686477e-07
1.6844252e-07
1.682343e-07
1.6802309e-07
1.6780894e-07
1.6759186e-07
1.6737185e-07
1.6714893e-07
1.6692313e-07
1.6669446e-07
1.6646298e-07
1.6622874e-07
1.6599185e-07
1.6575245e-07
1.6551079e-07
1.6526722e-07
1.6502228e-07
1.6477674e-07
1.6453171e-07
1.6428877e-07
1.6405004e-07
1.6381841e-07
1.6359779e-07
1.633935e-07
1.6321283e-07
1.6306562e-07
1.6296521e-07
1.6293001e-07
1.6298567e-07
1.6316841e-07
1.6353076e-07
1.6415053e-07
1.6514289e-07
1.6667996e-07
1.6902499e-07
1.7258957e-07
1.7802774e-07
1.8641558e-07
1.9950968e-07
2.2011574e-07
2.5273245e-07
3.0450927e-07
3.8631505e-07
5.1350776e-07
7.0503852e-07
9.8099788e-07
1.3564741e-06
1.8328506e-06
2.3844013e-06
3.0009923e-06
3.6957478e-06
4.4869571e-06
5.4550555e-06
6.5844198e-06
7.8709498e-06
9.3277558e-06
1.0952059e-05
1.27188e-05
1.3969633e-05
1.5211706e-05
1.6548281e-05
1.797118e-05
1.948051e-05
2.1074059e-05
2.2713191e-05
2.4378345e-05
2.6052257e-05
2.7805238e-05
2.9590965e-05
3.13867e-05
3.3164256e-05
3.4929229e-05
3.6684094e-05
3.8432982e-05
4.016079e-05
4.1847225e-05
4.3490288e-05
4.509548e-05
4.6661402e-05
4.8182977e-05
4.9646221e-05
5.1051782e-05
5.2405113e-05
5.3708089e-05
5.4964006e-05
5.6181205e-05
5.7262759e-05
5.8254967e-05
5.9211859e-05
6.0135468e-05
6.1027088e-05
6.1886019e-05
6.2709666e-05
6.3500465e-05
6.4261703e-05
6.4992297e-05
6.5692438e-05
6.6357209e-05
6.6947929e-05
1.6884964e-07
1.6864749e-07
1.6844229e-07
1.6823407e-07
1.6802287e-07
1.6780872e-07
1.6759164e-07
1.6737163e-07
1.6714872e-07
1.6692291e-07
1.6669423e-07
1.664627e-07
1.6622834e-07
1.6599117e-07
1.6575121e-07
1.6550851e-07
1.652631e-07
1.6501502e-07
1.6476435e-07
1.6451116e-07
1.6425556e-07
1.6399771e-07
1.637378e-07
1.634761e-07
1.6321298e-07
1.6294894e-07
1.6268468e-07
1.6242112e-07
1.6215957e-07
1.619018e-07
1.6165035e-07
1.6140885e-07
1.6118261e-07
1.6097944e-07
1.6081093e-07
1.6069459e-07
1.6065757e-07
1.6074262e-07
1.6101987e-07
1.6160601e-07
1.6269327e-07
1.6460537e-07
1.6789722e-07
1.7353101e-07
1.8319553e-07
1.9982262e-07
2.2843094e-07
2.7749297e-07
3.6082492e-07
4.9870192e-07
7.1671866e-07
1.041549e-06
1.4903256e-06
2.0606195e-06
2.7108121e-06
3.4479565e-06
4.2808482e-06
5.2756885e-06
6.4967777e-06
7.8844197e-06
9.4503591e-06
1.1198902e-05
1.3109568e-05
1.4941992e-05
1.6247303e-05
1.7652603e-05
1.9154068e-05
2.0750417e-05
2.2456631e-05
2.4230511e-05
2.6044054e-05
2.7873763e-05
2.9801126e-05
3.1785967e-05
3.3793601e-05
3.5797615e-05
3.7808021e-05
3.9822457e-05
4.182846e-05
4.3806033e-05
4.574412e-05
4.7655559e-05
4.9536856e-05
5.1370301e-05
5.3148138e-05
5.4875274e-05
5.6556697e-05
5.8174333e-05
5.9722302e-05
6.1210758e-05
6.2646223e-05
6.4032575e-05
6.5328726e-05
6.6469301e-05
6.7569404e-05
6.8632244e-05
6.9657185e-05
7.0643064e-05
7.1584365e-05
7.244088e-05
1.6884952e-07
1.6864733e-07
1.6844212e-07
1.682339e-07
1.680227e-07
1.6780855e-07
1.6759147e-07
1.6737147e-07
1.6714856e-07
1.6692275e-07
1.6669408e-07
1.6646255e-07
1.6622818e-07
1.65991e-07
1.6575103e-07
1.655083e-07
1.6526282e-07
1.6501463e-07
1.6476377e-07
1.6451025e-07
1.6425411e-07
1.6399539e-07
1.6373414e-07
1.6347039e-07
1.632042e-07
1.6293563e-07
1.6266476e-07
1.6239167e-07
1.6211649e-07
1.6183936e-07
1.6156047e-07
1.6128011e-07
1.6099866e-07
1.6071665e-07
1.6043487e-07
1.601545e-07
1.5987728e-07
1.5960595e-07
1.5934488e-07
1.5910127e-07
1.588869e-07
1.5872153e-07
1.5863906e-07
1.5869875e-07
1.5900662e-07
1.5975335e-07
1.6128146e-07
1.6421531e-07
1.6970647e-07
1.7988142e-07
1.9860571e-07
2.3279378e-07
2.9449271e-07
4.0396493e-07
5.8972427e-07
8.8595942e-07
1.3216688e-06
1.9045457e-06
2.6007942e-06
3.4046116e-06
4.3139673e-06
5.4036169e-06
6.7365813e-06
8.2943954e-06
1.0036339e-05
1.1969672e-05
1.4070223e-05
1.6297077e-05
1.7758173e-05
1.9267762e-05
2.0879103e-05
2.2594543e-05
2.4431364e-05
2.6347062e-05
2.8310515e-05
3.0315579e-05
3.2449686e-05
3.4652218e-05
3.6875086e-05
3.9105934e-05
4.1356823e-05
4.36219e-05
4.5882437e-05
4.8115276e-05
5.0316224e-05
5.2486976e-05
5.4613542e-05
5.6694921e-05
5.8730541e-05
6.0712389e-05
6.2633052e-05
6.4494108e-05
6.6295306e-05
6.8018058e-05
6.967095e-05
7.1259269e-05
7.2806051e-05
7.4206499e-05
7.547251e-05
7.6647601e-05
1.6884945e-07
1.6864723e-07
1.68442e-07
1.6823377e-07
1.6802258e-07
1.6780843e-07
1.6759135e-07
1.6737135e-07
1.6714844e-07
1.6692263e-07
1.6669396e-07
1.6646243e-07
1.6622806e-07
1.6599088e-07
1.6575091e-07
1.6550818e-07
1.652627e-07
1.6501451e-07
1.6476364e-07
1.6451011e-07
1.6425396e-07
1.6399521e-07
1.637339e-07
1.6347007e-07
1.6320374e-07
1.6293495e-07
1.6266375e-07
1.6239017e-07
1.6211425e-07
1.6183604e-07
1.6155559e-07
1.6127296e-07
1.6098819e-07
1.6070138e-07
1.604126e-07
1.6012198e-07
1.5982965e-07
1.5953583e-07
1.5924082e-07
1.589451e-07
1.5864941e-07
1.5835496e-07
1.5806378e-07
1.5777938e-07
1.5750799e-07
1.5726088e-07
1.5705843e-07
1.5693819e-07
1.5697046e-07
1.5728888e-07
1.5814753e-07
1.600276e-07
1.6384801e-07
1.7139748e-07
1.8609135e-07
2.1434813e-07
2.6794118e-07
3.676571e-07
5.4612385e-07
8.4521905e-07
1.302769e-06
1.9313003e-06
2.6961056e-06
3.5946308e-06
4.6178399e-06
5.8781678e-06
7.3962545e-06
9.1863906e-06
1.1171803e-05
1.3348633e-05
1.5686218e-05
1.8144823e-05
1.9768703e-05
2.1414811e-05
2.3167454e-05
2.5035539e-05
2.703179e-05
2.9111155e-05
3.123735e-05
3.3469621e-05
3.5838517e-05
3.8260907e-05
4.0704228e-05
4.3185576e-05
4.5702429e-05
4.8226734e-05
5.0727196e-05
5.3206699e-05
5.5671865e-05
5.8100709e-05
6.047484e-05
6.279598e-05
6.5067672e-05
6.7288162e-05
6.9444008e-05
7.1528563e-05
7.3561027e-05
7.5517303e-05
7.7320195e-05
7.9468495e-05
1.688494e-07
1.6864716e-07
1.6844193e-07
1.682337e-07
1.680225e-07
1.6780835e-07
1.6759127e-07
1.6737126e-07
1.6714835e-07
1.6692255e-07
1.6669387e-07
1.6646234e-07
1.6622798e-07
1.659908e-07
1.6575083e-07
1.6550809e-07
1.6526261e-07
1.6501442e-07
1.6476355e-07
1.6451001e-07
1.6425386e-07
1.6399511e-07
1.6373379e-07
1.6346995e-07
1.6320361e-07
1.6293482e-07
1.626636e-07
1.6238999e-07
1.6211404e-07
1.6183578e-07
1.6155525e-07
1.612725e-07
1.6098756e-07
1.6070048e-07
1.604113e-07
1.6012009e-07
1.5982687e-07
1.5953171e-07
1.5923467e-07
1.5893582e-07
1.5863524e-07
1.5833306e-07
1.5802942e-07
1.5772457e-07
1.574189e-07
1.571131e-07
1.5680837e-07
1.5650689e-07
1.5621275e-07
1.5593373e-07
1.556849e-07
1.554952e-07
1.5542093e-07
1.5557375e-07
1.5617594e-07
1.5766786e-07
1.6092388e-07
1.6770388e-07
1.8154791e-07
2.0942762e-07
2.6465659e-07
3.7158781e-07
5.6947402e-07
9.1044889e-07
1.4381231e-06
2.1587065e-06
3.036768e-06
4.070938e-06
5.2925415e-06
6.7991208e-06
8.5916277e-06
1.0684766e-05
1.2979199e-05
1.5446503e-05
1.8057341e-05
2.0593784e-05
2.2318066e-05
2.4131211e-05
2.6056732e-05
2.8120715e-05
3.0305219e-05
3.2562959e-05
3.4899988e-05
3.7413163e-05
4.0034288e-05
4.268781e-05
4.5389596e-05
4.8149837e-05
5.0936645e-05
5.3715195e-05
5.6478357e-05
5.9224036e-05
6.1932515e-05
6.4598802e-05
6.7220719e-05
6.9780904e-05
7.2282251e-05
7.473603e-05
7.701127e-05
8.0059791e-05
1.6884938e-07
1.6864713e-07
1.6844188e-07
1.6823365e-07
1.6802245e-07
1.6780831e-07
1.6759122e-07
1.6737122e-07
1.6714831e-07
1.669225e-07
1.6669382e-07
1.6646229e-07
1.6622792e-07
1.6599074e-07
1.6575077e-07
1.6550803e-07
1.6526255e-07
1.6501436e-07
1.6476348e-07
1.6450994e-07
1.6425378e-07
1.6399503e-07
1.6373372e-07
1.6346987e-07
1.6320353e-07
1.6293473e-07
1.6266351e-07
1.623899e-07
1.6211395e-07
1.6183569e-07
1.6155515e-07
1.6127239e-07
1.6098744e-07
1.6070035e-07
1.6041116e-07
1.6011991e-07
1.5982664e-07
1.5953141e-07
1.5923426e-07
1.5893523e-07
1.5863438e-07
1.5833175e-07
1.580274e-07
1.5772137e-07
1.5741375e-07
1.571046e-07
1.5679405e-07
1.5648224e-07
1.5616945e-07
1.5585616e-07
1.5554325e-07
1.5523241e-07
1.5492692e-07
1.5463334e-07
1.543649e-07
1.5414835e-07
1.5403786e-07
1.5414477e-07
1.5470059e-07
1.5618536e-07
1.5959178e-07
1.6699692e-07
1.8273802e-07
2.1574288e-07
2.83605e-07
4.1913654e-07
6.7417554e-07
1.113084e-06
1.7772914e-06
2.6392306e-06
3.6851525e-06
4.9206013e-06
6.4626358e-06
8.3071571e-06
1.0476555e-05
1.2944198e-05
1.5583786e-05
1.8372687e-05
2.1284684e-05
2.3556314e-05
2.5461383e-05
2.7472006e-05
2.9616883e-05
3.1910164e-05
3.430255e-05
3.6763959e-05
3.9429599e-05
4.2250122e-05
4.511569e-05
4.8049444e-05
5.1064654e-05
5.4115084e-05
5.7162277e-05
6.0206335e-05
6.3243757e-05
6.6241521e-05
6.9193603e-05
7.2116855e-05
7.4838884e-05
7.8508881e-05
1.6884938e-07
1.6864712e-07
1.6844187e-07
1.6823364e-07
1.6802244e-07
1.6780829e-07
1.6759121e-07
1.673712e-07
1.6714829e-07
1.6692248e-07
1.666938e-07
1.6646227e-07
1.662279e-07
1.6599071e-07
1.6575074e-07
1.6550799e-07
1.6526251e-07
1.6501432e-07
1.6476343e-07
1.645099e-07
1.6425373e-07
1.6399498e-07
1.6373366e-07
1.6346981e-07
1.6320347e-07
1.6293467e-07
1.6266344e-07
1.6238983e-07
1.6211387e-07
1.6183561e-07
1.6155507e-07
1.6127231e-07
1.6098736e-07
1.6070027e-07
1.6041107e-07
1.6011982e-07
1.5982655e-07
1.5953132e-07
1.5923416e-07
1.5893513e-07
1.5863426e-07
1.5833161e-07
1.5802721e-07
1.5772113e-07
1.574134e-07
1.5710407e-07
1.5679319e-07
1.5648082e-07
1.5616701e-07
1.5585183e-07
1.5553537e-07
1.5521777e-07
1.5489924e-07
1.545802e-07
1.5426143e-07
1.5394449e-07
1.536326e-07
1.5333238e-07
1.530578e-07
1.5283842e-07
1.5273663e-07
1.5288601e-07
1.5357554e-07
1.5543099e-07
1.5980263e-07
1.6964537e-07
1.9135387e-07
2.3853751e-07
3.3859359e-07
5.4052208e-07
9.1576008e-07
1.5331742e-06
2.3968358e-06
3.4755697e-06
4.7531913e-06
6.3654624e-06
8.3160438e-06
1.0616541e-05
1.325771e-05
1.6118763e-05
1.9119963e-05
2.2247645e-05
2.512328e-05
2.7170339e-05
2.9283464e-05
3.1530605e-05
3.3947259e-05
3.6480826e-05
3.9090006e-05
4.1932738e-05
4.4961774e-05
4.8052583e-05
5.1232075e-05
5.4507836e-05
5.7828219e-05
6.1155882e-05
6.4492498e-05
6.7835096e-05
7.098403e-05
7.5133723e-05
1.688494e-07
1.6864714e-07
1.6844188e-07
1.6823365e-07
1.6802245e-07
1.678083e-07
1.6759122e-07
1.6737121e-07
1.671483e-07
1.6692249e-07
1.6669381e-07
1.6646227e-07
1.6622789e-07
1.6599071e-07
1.6575073e-07
1.6550798e-07
1.652625e-07
1.650143e-07
1.6476341e-07
1.6450987e-07
1.6425371e-07
1.6399494e-07
1.6373362e-07
1.6346977e-07
1.6320342e-07
1.6293462e-07
1.6266339e-07
1.6238978e-07
1.6211382e-07
1.6183555e-07
1.6155501e-07
1.6127224e-07
1.6098729e-07
1.607002e-07
1.60411e-07
1.6011975e-07
1.5982648e-07
1.5953125e-07
1.5923409e-07
1.5893505e-07
1.5863418e-07
1.5833153e-07
1.5802714e-07
1.5772105e-07
1.5741331e-07
1.5710398e-07
1.5679309e-07
1.5648069e-07
1.5616682e-07
1.5585154e-07
1.555349e-07
1.5521693e-07
1.5489771e-07
1.5457728e-07
1.5425573e-07
1.539332e-07
1.5360989e-07
1.5328622e-07
1.5296304e-07
1.5264209e-07
1.523271e-07
1.5202617e-07
1.5175705e-07
1.515589e-07
1.5151809e-07
1.5182844e-07
1.5292758e-07
1.5580422e-07
1.6269896e-07
1.7868575e-07
2.1509234e-07
2.9633043e-07
4.7042728e-07
8.1431592e-07
1.4132505e-06
2.3000903e-06
3.437184e-06
4.7981497e-06
6.5260836e-06
8.6356612e-06
1.1125287e-05
1.3978424e-05
1.7097817e-05
2.0345885e-05
2.3713668e-05
2.7057322e-05
2.9263533e-05
3.1496714e-05
3.3871384e-05
3.642987e-05
3.9114664e-05
4.1907036e-05
4.4961556e-05
4.8210623e-05
5.1544205e-05
5.4992475e-05
5.8549167e-05
6.2165171e-05
6.5662513e-05
7.014977e-05
1.6884944e-07
1.6864717e-07
1.6844191e-07
1.6823368e-07
1.6802248e-07
1.6780833e-07
1.6759125e-07
1.6737124e-07
1.6714832e-07
1.6692251e-07
1.6669383e-07
1.6646229e-07
1.6622791e-07
1.6599072e-07
1.6575074e-07
1.6550799e-07
1.6526251e-07
1.650143e-07
1.6476341e-07
1.6450987e-07
1.642537e-07
1.6399493e-07
1.637336e-07
1.6346975e-07
1.632034e-07
1.6293459e-07
1.6266335e-07
1.6238974e-07
1.6211377e-07
1.618355e-07
1.6155496e-07
1.6127219e-07
1.6098724e-07
1.6070014e-07
1.6041094e-07
1.6011969e-07
1.5982642e-07
1.5953119e-07
1.5923403e-07
1.5893499e-07
1.5863412e-07
1.5833147e-07
1.5802707e-07
1.5772098e-07
1.5741325e-07
1.5710391e-07
1.5679302e-07
1.5648062e-07
1.5616675e-07
1.5585147e-07
1.5553481e-07
1.5521683e-07
1.5489757e-07
1.5457707e-07
1.5425538e-07
1.5393255e-07
1.5360863e-07
1.5328368e-07
1.5295779e-07
1.5263109e-07
1.5230384e-07
1.5197654e-07
1.5165024e-07
1.5132733e-07
1.5101303e-07
1.5071926e-07
1.5047345e-07
1.5033868e-07
1.5046125e-07
1.5118443e-07
1.5331583e-07
1.5875809e-07
1.720284e-07
2.0366558e-07
2.7739202e-07
4.4312104e-07
7.8603759e-07
1.4065114e-06
2.3486411e-06
3.5785051e-06
5.0699745e-06
6.9757841e-06
9.3058689e-06
1.204899e-05
1.516878e-05
1.8577028e-05
2.2098972e-05
2.5730137e-05
2.9373446e-05
3.1741878e-05
3.4117142e-05
3.6650114e-05
3.9375071e-05
4.2226959e-05
4.5248238e-05
4.8551994e-05
5.2038792e-05
5.5654166e-05
5.9321654e-05
6.3877916e-05
1.6884948e-07
1.6864721e-07
1.6844195e-07
1.6823372e-07
1.6802252e-07
1.6780838e-07
1.6759129e-07
1.6737129e-07
1.6714837e-07
1.6692256e-07
1.6669387e-07
1.6646233e-07
1.6622795e-07
1.6599076e-07
1.6575077e-07
1.6550802e-07
1.6526253e-07
1.6501432e-07
1.6476343e-07
1.6450988e-07
1.642537e-07
1.6399493e-07
1.637336e-07
1.6346974e-07
1.6320339e-07
1.6293457e-07
1.6266334e-07
1.6238971e-07
1.6211375e-07
1.6183547e-07
1.6155493e-07
1.6127216e-07
1.609872e-07
1.607001e-07
1.604109e-07
1.6011964e-07
1.5982637e-07
1.5953114e-07
1.5923398e-07
1.5893494e-07
1.5863407e-07
1.5833141e-07
1.5802702e-07
1.5772093e-07
1.5741319e-07
1.5710385e-07
1.5679296e-07
1.5648056e-07
1.5616669e-07
1.5585141e-07
1.5553476e-07
1.5521677e-07
1.5489751e-07
1.54577e-07
1.5425531e-07
1.5393246e-07
1.5360851e-07
1.5328349e-07
1.5295746e-07
1.5263046e-07
1.5230254e-07
1.5197376e-07
1.5164423e-07
1.5131412e-07
1.5098376e-07
1.5065388e-07
1.5032616e-07
1.5000442e-07
1.4969772e-07
1.4942758e-07
1.4924576e-07
1.4927662e-07
1.4982404e-07
1.5163379e-07
1.5652738e-07
1.6901799e-07
2.0008759e-07
2.75462e-07
4.5125719e-07
8.2627552e-07
1.5160579e-06
2.5578652e-06
3.9239675e-06
5.6106264e-06
7.7590248e-06
1.0384576e-05
1.3450234e-05
1.6890364e-05
2.0610775e-05
2.4428525e-05
2.8345978e-05
3.2094965e-05
3.462676e-05
3.7170005e-05
3.9894892e-05
4.280669e-05
4.5845433e-05
4.9153749e-05
5.2733079e-05
5.691784e-05
1.6884954e-07
1.6864726e-07
1.6844201e-07
1.6823378e-07
1.6802259e-07
1.6780844e-07
1.6759136e-07
1.6737135e-07
1.6714843e-07
1.6692262e-07
1.6669393e-07
1.6646239e-07
1.6622801e-07
1.6599081e-07
1.6575082e-07
1.6550807e-07
1.6526257e-07
1.6501436e-07
1.6476346e-07
1.6450991e-07
1.6425373e-07
1.6399495e-07
1.6373361e-07
1.6346975e-07
1.6320339e-07
1.6293457e-07
1.6266333e-07
1.6238971e-07
1.6211373e-07
1.6183545e-07
1.6155491e-07
1.6127213e-07
1.6098717e-07
1.6070007e-07
1.6041087e-07
1.6011961e-07
1.5982634e-07
1.595311e-07
1.5923394e-07
1.589349e-07
1.5863403e-07
1.5833137e-07
1.5802697e-07
1.5772088e-07
1.5741315e-07
1.5710381e-07
1.5679291e-07
1.5648051e-07
1.5616664e-07
1.5585136e-07
1.555347e-07
1.5521672e-07
1.5489745e-07
1.5457695e-07
1.5425525e-07
1.5393241e-07
1.5360845e-07
1.5328343e-07
1.5295739e-07
1.5263038e-07
1.5230242e-07
1.5197357e-07
1.5164387e-07
1.5131336e-07
1.509821e-07
1.5065017e-07
1.503177e-07
1.4998495e-07
1.4965247e-07
1.4932159e-07
1.4899548e-07
1.4868186e-07
1.4839988e-07
1.4819749e-07
1.4819448e-07
1.4869529e-07
1.5047783e-07
1.5551917e-07
1.6890605e-07
2.0350886e-07
2.9050676e-07
4.9879891e-07
9.4829639e-07
1.7667587e-06
2.9726727e-06
4.523708e-06
6.4863716e-06
8.9602189e-06
1.1957893e-05
1.5409785e-05
1.921398e-05
2.3260938e-05
2.7390756e-05
3.1615562e-05
3.5258964e-05
3.7945354e-05
4.069059e-05
4.362912e-05
4.6817843e-05
5.0144507e-05
1.688496e-07
1.6864733e-07
1.6844208e-07
1.6823385e-07
1.6802266e-07
1.6780851e-07
1.6759143e-07
1.6737142e-07
1.671485e-07
1.6692269e-07
1.66694e-07
1.6646246e-07
1.6622807e-07
1.6599087e-07
1.6575088e-07
1.6550812e-07
1.6526262e-07
1.6501441e-07
1.6476351e-07
1.6450995e-07
1.6425376e-07
1.6399498e-07
1.6373364e-07
1.6346977e-07
1.6320341e-07
1.6293458e-07
1.6266334e-07
1.6238971e-07
1.6211373e-07
1.6183545e-07
1.615549e-07
1.6127212e-07
1.6098716e-07
1.6070005e-07
1.6041085e-07
1.6011959e-07
1.5982631e-07
1.5953107e-07
1.5923391e-07
1.5893487e-07
1.5863399e-07
1.5833133e-07
1.5802694e-07
1.5772085e-07
1.5741311e-07
1.5710377e-07
1.5679287e-07
1.5648047e-07
1.561666e-07
1.5585132e-07
1.5553466e-07
1.5521667e-07
1.5489741e-07
1.545769e-07
1.5425521e-07
1.5393236e-07
1.536084e-07
1.5328339e-07
1.5295734e-07
1.5263032e-07
1.5230237e-07
1.5197351e-07
1.516438e-07
1.5131327e-07
1.5098197e-07
1.5064993e-07
1.503172e-07
1.4998382e-07
1.4964987e-07
1.4931545e-07
1.4898079e-07
1.4864636e-07
1.4831335e-07
1.4798471e-07
1.4766794e-07
1.4738234e-07
1.4717827e-07
1.4718671e-07
1.4775373e-07
1.4979938e-07
1.5575694e-07
1.7211779e-07
2.1588308e-07
3.2927211e-07
6.0419793e-07
1.1887327e-06
2.2038676e-06
3.6344238e-06
5.4460924e-06
7.7883477e-06
1.0681439e-05
1.412596e-05
1.8007392e-05
2.220794e-05
2.6592014e-05
3.1049371e-05
3.5607891e-05
3.8894056e-05
4.1881267e-05
4.4483763e-05
1.6884967e-07
1.686474e-07
1.6844215e-07
1.6823393e-07
1.6802274e-07
1.678086e-07
1.6759152e-07
1.6737151e-07
1.6714859e-07
1.6692278e-07
1.6669409e-07
1.6646254e-07
1.6622815e-07
1.6599095e-07
1.6575095e-07
1.6550819e-07
1.6526269e-07
1.6501447e-07
1.6476356e-07
1.6451e-07
1.6425381e-07
1.6399503e-07
1.6373368e-07
1.634698e-07
1.6320344e-07
1.6293461e-07
1.6266336e-07
1.6238972e-07
1.6211374e-07
1.6183546e-07
1.615549e-07
1.6127212e-07
1.6098715e-07
1.6070005e-07
1.6041084e-07
1.6011957e-07
1.598263e-07
1.5953105e-07
1.5923389e-07
1.5893484e-07
1.5863397e-07
1.5833131e-07
1.5802691e-07
1.5772082e-07
1.5741308e-07
1.5710373e-07
1.5679284e-07
1.5648043e-07
1.5616657e-07
1.5585128e-07
1.5553462e-07
1.5521664e-07
1.5489737e-07
1.5457686e-07
1.5425516e-07
1.5393232e-07
1.5360836e-07
1.5328334e-07
1.529573e-07
1.5263028e-07
1.5230232e-07
1.5197347e-07
1.5164375e-07
1.5131322e-07
1.5098192e-07
1.5064987e-07
1.5031713e-07
1.4998372e-07
1.4964969e-07
1.4931507e-07
1.4897992e-07
1.486443e-07
1.4830829e-07
1.4797212e-07
1.4763625e-07
1.4730188e-07
1.4697213e-07
1.4665527e-07
1.4637342e-07
1.4618669e-07
1.4625784e-07
1.4703428e-07
1.4975335e-07
1.5782373e-07
1.8064238e-07
2.4345356e-07
4.0924836e-07
8.0706468e-07
1.6115122e-06
2.8944789e-06
4.6082e-06
6.8178317e-06
9.6266582e-06
1.3039682e-05
1.699614e-05
2.1337397e-05
2.5962158e-05
3.0677263e-05
3.5566563e-05
3.9579534e-05
1.6884974e-07
1.6864748e-07
1.6844224e-07
1.6823402e-07
1.6802283e-07
1.6780869e-07
1.6759161e-07
1.673716e-07
1.6714868e-07
1.6692287e-07
1.6669418e-07
1.6646263e-07
1.6622824e-07
1.6599103e-07
1.6575104e-07
1.6550827e-07
1.6526276e-07
1.6501454e-07
1.6476363e-07
1.6451006e-07
1.6425387e-07
1.6399508e-07
1.6373373e-07
1.6346985e-07
1.6320347e-07
1.6293464e-07
1.6266339e-07
1.6238975e-07
1.6211376e-07
1.6183547e-07
1.6155491e-07
1.6127213e-07
1.6098716e-07
1.6070005e-07
1.6041084e-07
1.6011957e-07
1.5982629e-07
1.5953104e-07
1.5923387e-07
1.5893483e-07
1.5863395e-07
1.5833129e-07
1.5802689e-07
1.577208e-07
1.5741305e-07
1.5710371e-07
1.5679281e-07
1.5648041e-07
1.5616654e-07
1.5585125e-07
1.5553459e-07
1.552166e-07
1.5489733e-07
1.5457683e-07
1.5425513e-07
1.5393228e-07
1.5360832e-07
1.532833e-07
1.5295726e-07
1.5263024e-07
1.5230228e-07
1.5197342e-07
1.5164371e-07
1.5131318e-07
1.5098187e-07
1.5064983e-07
1.5031708e-07
1.4998367e-07
1.4964964e-07
1.4931501e-07
1.4897983e-07
1.4864414e-07
1.4830797e-07
1.4797137e-07
1.4763439e-07
1.4729713e-07
1.4695981e-07
1.4662295e-07
1.4628793e-07
1.4595852e-07
1.4564505e-07
1.4537645e-07
1.4523449e-07
1.4545001e-07
1.4668281e-07
1.5082506e-07
1.633019e-07
1.9948469e-07
3.0117141e-07
5.6906531e-07
1.1818976e-06
2.3040488e-06
3.9321183e-06
6.0380521e-06
8.7802976e-06
1.2169183e-05
1.6194917e-05
2.0678757e-05
2.5593423e-05
3.0576542e-05
1.6884983e-07
1.6864757e-07
1.6844233e-07
1.6823411e-07
1.6802293e-07
1.6780879e-07
1.6759171e-07
1.6737171e-07
1.6714879e-07
1.6692297e-07
1.6669428e-07
1.6646273e-07