/*--------------------------------*- C++ -*----------------------------------*\
  =========                 |
  \\      /  F ield         | OpenFOAM: The Open Source CFD Toolbox
   \\    /   O peration     | Website:  https://openfoam.org
    \\  /    A nd           | Version:  12
     \\/     M anipulation  |
\*---------------------------------------------------------------------------*/
FoamFile
{
    format      ascii;
    class       volScalarField;
    location    "1600";
    object      omega;
}
// * * * * * * * * * * * * * * * * * * * * * * * * * * * * * * * * * * * * * //

dimensions      [0 0 -1 0 0 0 0];

internalField   nonuniform List<scalar> 
7480
(
99.668428
99.668428
99.668428
99.668428
467.2634
658.56518
782.36815
862.95907
913.96454
944.60888
961.54751
969.16212
970.40769
967.30804
961.27667
953.30572
944.10437
934.24153
924.34859
914.49032
904.79781
895.31044
886.18182
877.55772
869.54394
862.21291
855.60232
849.71394
844.52099
839.97603
836.01695
832.57622
829.59463
827.02254
824.79831
822.84841
821.09447
819.4706
817.92872
816.43467
814.9577
813.46976
811.94912
810.37941
808.75239
807.06476
805.31314
803.4867
801.57485
799.57822
797.50617
795.36769
793.17017
790.926
788.65455
786.37174
784.08289
781.78886
779.49426
777.20645
774.92883
772.6635
770.41634
768.1935
765.99553
763.82209
761.67371
759.54736
757.43768
755.34408
753.26997
751.21511
749.17975
747.16886
745.18059
743.20963
741.25638
739.31977
737.39801
735.49483
733.61163
731.74632
729.89925
728.06794
726.25015
724.44799
722.66254
720.89393
719.14053
717.40042
715.6742
713.96138
712.26277
710.57605
708.90306
707.22496
705.60233
703.86368
702.3291
699.99461
53.580725
53.534932
53.495667
53.439895
60.465931
74.60434
96.918601
126.8857
163.04453
203.17065
244.36689
284.24146
318.84216
346.78411
369.57302
388.70494
404.51749
415.60972
423.14251
426.10602
427.70733
430.61318
434.65542
439.15817
443.56476
447.33974
450.10079
451.63039
451.83387
450.7191
448.38068
444.98789
440.77315
436.03921
430.90677
425.36489
419.35491
413.11392
406.80451
400.54379
394.43051
388.54041
382.92521
377.60275
372.57367
367.83444
363.37958
359.25069
355.43549
351.91053
348.65303
345.63862
342.83872
340.22243
337.76578
335.4464
333.2384
331.12679
329.10106
327.15636
325.29057
323.4971
321.76768
320.09645
318.47943
316.90986
315.37761
313.88038
312.41812
310.99045
309.59891
308.24534
306.92597
305.63935
304.38438
303.15523
301.94969
300.77064
299.61726
298.48851
297.38628
296.30717
295.24801
294.20947
293.19029
292.1904
291.21064
290.24947
289.30571
288.37767
287.46525
286.56904
285.68836
284.82184
283.97048
283.1254
282.30479
281.48222
280.7444
279.43443
52.974158
52.262074
51.558341
50.862884
50.28928
50.016538
50.328527
51.531081
53.894076
57.794534
63.497455
71.146665
80.695415
91.941545
104.62173
118.43964
133.06706
147.69151
160.98492
172.8757
183.71883
194.30066
205.13633
216.59754
228.96451
240.39049
249.98479
257.9121
264.25998
269.05235
272.2528
273.76761
273.51486
271.63084
268.57292
265.10396
261.95741
258.98188
256.06678
253.12052
250.15447
247.20761
244.18973
240.95976
237.60795
234.20868
230.82543
227.53001
224.39051
221.41315
218.59119
215.91542
213.37854
210.97732
208.70816
206.57354
204.57429
202.69324
200.91546
199.2314
197.63409
196.11433
194.66175
193.26778
191.92717
190.63426
189.38057
188.16619
186.99197
185.85708
184.76056
183.7015
182.67616
181.68211
180.71557
179.77292
178.85383
177.96034
177.09213
176.24799
175.42819
174.62915
173.84792
173.08508
172.3406
171.61445
170.9069
170.21603
169.5403
168.87876
168.23153
167.59912
166.9809
166.37545
165.78259
165.1994
164.63036
164.07402
163.56188
162.79154
52.965399
52.234325
51.502374
50.770061
50.039431
49.315209
48.606962
47.93064
47.30903
46.78028
46.392882
46.204342
46.277254
46.67481
47.459765
48.697045
50.459277
52.803906
55.761038
59.359057
63.631097
68.638825
74.467044
81.221143
89.025113
97.347934
106.06196
115.07625
124.34414
133.86331
143.66838
153.79921
162.76155
170.00313
175.63571
179.9195
183.16284
185.40799
186.6717
186.93575
186.22513
184.69671
182.81558
181.0008
179.15826
177.22589
175.21523
173.17615
171.11981
168.90233
166.59583
164.25797
161.93694
159.67815
157.49501
155.38636
153.36149
151.42707
149.58657
147.84177
146.1868
144.6108
143.10299
141.65705
140.27114
138.94402
137.681
136.47483
135.32063
134.21443
133.15276
132.13223
131.14845
130.19853
129.27899
128.3886
127.52751
126.69619
125.89346
125.11744
124.3672
123.63874
122.92989
122.24147
121.57365
120.92604
120.29829
119.68798
119.09338
118.51412
117.95044
117.40253
116.86958
116.34984
115.84292
115.34765
114.86543
114.39726
113.9684
113.37235
52.965448
52.233957
51.501255
50.767674
50.033546
49.299255
48.565299
47.832475
47.10191
46.375354
45.655417
44.94584
44.251743
43.579733
42.938031
42.336915
41.789036
41.310096
40.917778
40.632158
40.47566
40.475174
40.66421
41.085052
41.795263
42.849402
44.31021
46.253348
48.773304
51.988868
56.048253
61.138092
67.351935
74.201259
81.597127
89.489891
97.886354
106.82477
115.66881
123.1643
129.20207
133.76082
137.05048
139.39678
140.88541
141.55878
141.47789
140.7414
139.61356
138.4304
137.12555
135.68951
134.16151
132.62053
131.0048
129.271
127.47166
125.65899
123.88038
122.15607
120.47859
118.84444
117.25569
115.72052
114.24468
112.82617
111.46749
110.16804
108.92674
107.7406
106.60479
105.51399
104.46449
103.45388
102.48782
101.56387
100.67784
99.827297
99.009669
98.222237
97.463102
96.729414
96.020405
95.336427
94.676702
94.040033
93.425369
92.830007
92.252615
91.693186
91.151675
90.627772
90.120291
89.627275
89.148483
88.683353
88.232272
87.795498
87.396551
86.873748
52.965698
52.234238
51.501536
50.767906
50.033647
49.299074
48.564502
47.830249
47.096653
46.364075
45.632908
44.903605
44.176699
43.452827
42.732759
42.017441
41.308043
40.606026
39.913206
39.231824
38.564579
37.914735
37.2862
36.684019
36.114933
35.587617
35.113513
34.706847
34.386504
34.177952
34.115788
34.248562
34.641114
35.36192
36.500295
38.179026
40.570434
43.914088
48.500792
54.361095
61.060958
68.464775
76.45959
84.812971
92.49491
98.957811
104.10783
107.90019
110.48045
112.2345
113.24468
113.59043
113.36308
112.69771
111.87393
110.94487
109.88737
108.72342
107.51734
106.26288
104.89637
103.4665
102.01508
100.57865
99.165721
97.768881
96.388387
95.039371
93.735076
92.476733
91.261122
90.086036
88.952895
87.86163
86.815794
85.814988
84.856788
83.939083
83.058802
82.212623
81.39808
80.618586
79.872864
79.157941
78.471296
77.810911
77.175026
76.561724
75.970504
75.401003
74.852323
74.323449
73.812857
73.318781
72.841219
72.379615
71.933712
71.50268
71.108756
70.616903
52.96599
52.234572
51.501881
50.768246
50.033975
49.299385
48.564788
47.830491
47.096808
46.364054
45.632544
44.902595
44.174537
43.448697
42.725404
42.004994
41.287814
40.574225
39.864609
39.159376
38.458972
37.763881
37.074641
36.391867
35.71629
35.048801
34.390496
33.742753
33.107362
32.486722
31.884109
31.303911
30.752646
30.23913
29.776148
29.38247
29.085781
28.928205
28.974717
29.313027
30.047598
31.325746
33.362366
36.455285
40.952714
46.673268
53.270146
60.54271
68.152962
75.11771
80.977537
85.665795
89.162117
91.505565
93.006352
93.884111
94.221568
94.100243
93.627366
92.99703
92.267243
91.429843
90.511805
89.560099
88.543576
87.430118
86.255379
85.059388
83.865538
82.669612
81.476674
80.298959
79.148498
78.028167
76.935536
75.874021
74.849261
73.863154
72.913815
71.99923
71.118565
70.27491
69.468253
68.696104
67.956001
67.245767
66.562959
65.909391
65.2846
64.685844
64.110959
63.558285
63.026312
62.514226
62.021785
61.547868
61.091482
60.651185
60.248
59.764369
52.966313
52.234943
51.502278
50.768656
50.034389
49.299794
48.565184
47.830869
47.097163
46.364382
45.632841
44.902856
44.174744
43.448819
42.725392
42.004769
41.287254
40.573144
39.862734
39.156314
38.454172
37.756591
37.063848
36.376219
35.69398
35.017411
34.3468
33.682446
33.024666
32.373807
31.73027
31.094526
30.46718
29.849016
29.241084
28.644872
28.062568
27.497515
26.955063
26.443236
25.974184
25.567246
25.254446
25.087416
25.149217
25.548671
26.431367
28.013801
30.613046
34.614626
39.834116
45.931512
52.672153
59.359711
65.219842
70.02799
73.772382
76.489387
78.243389
79.279571
79.83323
79.980901
79.798258
79.386426
78.873338
78.267844
77.57251
76.820039
76.02989
75.13017
74.161371
73.161649
72.150906
71.128448
70.094836
69.062436
68.045101
67.047648
66.071751
65.121032
64.199645
63.307384
62.445557
61.61603
60.819142
60.0536
59.317361
58.612194
57.93858
57.294122
56.676471
56.083778
55.515424
54.972824
54.45352
53.955401
53.476713
53.016114
52.593923
52.103174
52.966656
52.235337
51.502703
50.769098
50.034837
49.300237
48.565617
47.83129
47.097569
46.364773
45.633217
44.903218
44.17509
43.449148
42.725702
42.005057
41.287513
40.573367
39.862908
39.156421
38.454183
37.756466
37.063531
36.375632
35.693015
35.01592
34.34458
33.679221
33.02006
32.367309
31.721173
31.081855
30.449556
29.824484
29.20685
28.596888
27.99486
27.40109
26.816009
26.240233
25.674658
25.120662
24.580487
24.057928
23.559645
23.096161
22.684506
22.354823
22.159561
22.187016
22.55607
23.432593
25.071832
27.84253
32.024321
37.172177
43.064395
49.140303
54.683976
59.248642
62.816397
65.450341
67.235351
68.290243
68.855362
69.085653
69.037337
68.767912
68.383877
67.916073
67.361936
66.747874
66.091183
65.350259
64.539282
63.690044
62.818677
61.924769
61.017192
60.109745
59.212565
58.325556
57.452268
56.599858
55.772328
54.97046
54.19503
53.446695
52.726654
52.035104
51.371521
50.734754
50.124072
49.540866
48.983587
48.450095
47.938029
47.447395
46.998679
46.487178
52.967013
52.235746
51.503146
50.769559
50.035306
49.300706
48.566079
47.831742
47.09801
46.3652
45.633629
44.903614
44.175471
43.449512
42.726048
42.005385
41.287824
40.573659
39.863182
39.156675
38.454418
37.756679
37.063719
36.375792
35.693142
35.016006
34.344615
33.679189
33.01994
32.367071
31.720774
31.081236
30.448633
29.823134
29.2049
28.594083
27.990827
27.39527
26.807548
26.227799
25.65617
25.092826
24.537972
23.991895
23.455036
22.928105
22.412267
21.909552
21.42365
20.961464
20.534721
20.162927
19.882866
19.761455
19.907914
20.465911
21.65944
23.829038
27.382969
31.926106
37.234163
42.704104
47.695898
51.830607
55.005591
57.322659
58.893156
59.826407
60.298155
60.501993
60.479773
60.271803
59.962139
59.57613
59.114819
58.595802
58.031881
57.383934
56.676839
55.935014
55.170115
54.380514
53.576993
52.771538
51.970018
51.176783
50.398099
49.636866
48.894566
48.174113
47.478144
46.80712
46.160461
45.538562
44.942354
44.371076
43.822835
43.296926
42.815669
42.266671
52.967381
52.236167
51.503602
50.770035
50.035792
49.301194
48.566562
47.832216
47.098472
46.365649
45.634064
44.904035
44.175876
43.449902
42.726422
42.005743
41.288165
40.573985
39.863491
39.156968
38.454693
37.756937
37.063961
36.376017
35.69335
35.016198
34.344791
33.679349
33.020083
32.367196
31.72088
31.08132
30.448691
29.823159
29.204883
28.594009
27.990675
27.395007
26.807124
26.227135
25.655143
25.091242
24.535515
23.988044
23.44891
22.918201
22.396026
21.882534
21.377961
20.882723
20.397562
19.923792
19.463884
19.022676
18.609565
18.240322
17.944427
17.779793
17.850757
18.297745
19.343619
21.334079
24.626945
28.890788
33.869673
38.788214
43.139005
46.681479
49.31945
51.186494
52.416662
53.125159
53.467612
53.588285
53.536477
53.343978
53.070312
52.726823
52.317986
51.855429
51.345556
50.76011
50.129374
49.4673
48.776928
48.066891
47.348922
46.628781
45.909612
45.197999
44.499831
43.817709
43.153546
42.508829
41.885514
41.284838
40.706799
40.148984
39.636376
39.045506
52.967759
52.236596
51.504067
50.770522
50.03629
49.301695
48.56706
47.832706
47.098952
46.366117
45.634519
44.904475
44.176301
43.450312
42.726816
42.006121
41.288526
40.574328
39.863818
39.157278
38.454986
37.757213
37.06422
36.376259
35.693577
35.01641
34.344988
33.679532
33.020253
32.367353
31.721026
31.081455
30.448815
29.823274
29.204987
28.594103
27.990757
27.395077
26.807179
26.227172
25.655154
25.091216
24.535435
23.987881
23.448614
22.917688
22.395148
21.881036
21.375385
20.878234
20.389634
19.909663
19.438458
18.976291
18.5237
18.081715
17.652325
17.239611
16.852032
16.504789
16.226501
16.076282
16.161468
16.636377
17.753751
19.905283
23.240782
27.471559
32.096521
36.429042
40.080435
42.930565
44.964298
46.334898
47.192528
47.655964
47.84816
47.880932
47.779711
47.583374
47.320971
46.996671
46.617134
46.191779
45.703168
45.162002
44.584901
43.978902
43.348801
42.704703
42.054297
41.402339
40.75497
40.11634
39.489336
38.877623
38.283908
37.705851
37.171357
36.549695
52.968146
52.237032
51.50454
50.771017
50.036798
49.302208
48.567571
47.833211
47.099447
46.3666
45.634989
44.904931
44.176743
43.450737
42.727226
42.006514
41.288903
40.574688
39.86416
39.157603
38.455295
37.757504
37.064494
36.376517
35.693819
35.016636
34.3452
33.67973
33.020438
32.367526
31.721187
31.081605
30.448955
29.823405
29.20511
28.594218
27.990864
27.395177
26.807273
26.227258
25.655235
25.091289
24.535501
23.987937
23.448659
22.917717
22.395154
21.881003
21.375289
20.87803
20.389235
19.908912
19.437059
18.973679
18.51878
18.072398
17.63462
17.20565
16.785952
16.376485
15.979195
15.598275
15.242725
14.929385
14.692202
14.603361
14.785118
15.429786
16.853884
19.471223
23.044493
27.30614
31.461441
35.043814
37.890157
39.983617
41.38991
42.285449
42.800324
43.048664
43.110385
43.06129
42.915819
42.70713
42.441938
42.123833
41.757561
41.342122
40.871067
40.361002
39.821225
39.256447
38.676349
38.087565
37.494346
36.903115
36.319263
35.741978
35.202647
34.568097
52.968541
52.237475
51.505018
50.771519
50.037314
49.30273
48.568092
47.833727
47.099954
46.367096
45.635472
44.905401
44.177197
43.451177
42.727649
42.006921
41.289293
40.575061
39.864516
39.157942
38.455616
37.757808
37.06478
36.376787
35.694072
35.016874
34.345423
33.679938
33.020633
32.367708
31.721357
31.081765
30.449105
29.823545
29.205242
28.594341
27.990981
27.395286
26.807375
26.227355
25.655326
25.091375
24.535581
23.988013
23.448729
22.917782
22.395214
21.881058
21.375337
20.878068
20.38926
19.908914
19.437023
18.973573
18.518544
18.071912
17.63365
17.20373
16.782135
16.368873
15.96401
15.56774
15.180552
14.803521
14.438971
14.092207
13.774708
13.508273
13.342507
13.378365
13.771828
14.796244
16.895559
20.003624
23.89101
27.800315
31.232084
33.967041
35.987563
37.357439
38.218889
38.725581
38.978559
39.057463
39.025961
38.908497
38.734742
38.509726
38.235738
37.914177
37.549735
37.130397
36.672825
36.186701
35.675721
35.148449
34.612306
34.068317
33.551007
32.929439
52.968942
52.237922
51.505501
50.772027
50.037836
49.303259
48.568622
47.834252
47.100472
46.367604
45.635967
44.905882
44.177665
43.451629
42.728085
42.00734
41.289695
40.575446
39.864883
39.158291
38.455948
37.758122
37.065077
36.377066
35.694335
35.017122
34.345655
33.680156
33.020837
32.367899
31.721536
31.081932
30.449263
29.823693
29.205381
28.594472
27.991104
27.395403
26.807485
26.227459
25.655424
25.091467
24.535668
23.988095
23.448807
22.917855
22.395283
21.881122
21.375398
20.878125
20.389313
19.908962
19.437066
18.97361
18.518571
18.071923
17.633631
17.203656
16.781953
16.368473
15.963166
15.565986
15.176897
14.795898
14.423061
14.058637
13.703278
13.358452
13.027619
12.718978
12.449417
12.255822
12.223396
12.492219
13.309854
15.097685
17.917107
21.522977
25.173988
28.387835
30.928464
32.786095
34.041713
34.820888
35.27492
35.499518
35.574996
35.543592
35.440594
35.288497
35.089941
34.84521
34.555794
34.226919
33.846277
33.429284
32.985894
32.516357
32.056522
31.484253
52.969351
52.238374
51.505988
50.772539
50.038364
49.303794
48.56916
47.834786
47.100999
46.368121
45.636473
44.906374
44.178142
43.452091
42.728531
42.00777
41.290107
40.575841
39.865261
39.158651
38.456289
37.758446
37.065384
36.377355
35.694607
35.017378
34.345896
33.680382
33.021048
32.368097
31.721722
31.082107
30.449427
29.823848
29.205526
28.594609
27.991233
27.395524
26.8076
26.227568
25.655526
25.091564
24.53576
23.988182
23.448889
22.917933
22.395356
21.881191
21.375462
20.878186
20.38937
19.909016
19.437117
18.973657
18.518614
18.071962
17.633667
17.203686
16.781975
16.368481
15.963148
15.565914
15.176715
14.795484
14.422154
14.056665
13.698977
13.349103
13.007173
12.673612
12.34949
12.037367
11.743717
11.482926
11.28622
11.230117
11.45063
12.190665
13.875647
16.554723
19.952913
23.349459
26.286448
28.565628
30.196927
31.281981
31.94292
32.318385
32.49823
32.553759
32.514187
32.416924
32.276173
32.093862
31.867787
31.601269
31.296706
30.942185
30.57765
30.099561
52.969766
52.238831
51.506479
50.773055
50.038896
49.304336
48.569703
47.835328
47.101535
46.368647
45.636988
44.906877
44.17863
43.452564
42.728988
42.008209
41.29053
40.576246
39.865648
39.15902
38.456641
37.758779
37.065699
36.377653
35.694888
35.017642
34.346144
33.680615
33.021267
32.368303
31.721915
31.082288
30.449597
29.824008
29.205677
28.594751
27.991367
27.395651
26.807719
26.227681
25.655633
25.091665
24.535855
23.988272
23.448974
22.918014
22.395432
21.881263
21.375531
20.87825
20.389431
19.909073
19.43717
18.973707
18.518661
18.072006
17.633708
17.203724
16.78201
16.368513
15.963176
15.565938
15.17673
14.795484
14.422125
14.056573
13.698749
13.348574
13.00597
12.670877
12.343271
12.023225
11.711048
11.407613
11.11509
10.839199
10.593463
10.408039
10.359936
10.58934
11.353779
13.105006
15.765871
18.985197
22.102479
24.717481
26.685491
28.051211
28.936613
29.463118
29.751176
29.881474
29.909226
29.856707
29.75974
29.623779
29.451024
29.234467
29.001102
28.664541
52.970187
52.239292
51.506974
50.773574
50.039432
49.304881
48.570253
47.835876
47.102077
46.369182
45.637512
44.907388
44.179127
43.453046
42.729454
42.008659
41.290962
40.57666
39.866044
39.159398
38.457
37.759121
37.066022
36.377958
35.695176
35.017913
34.346399
33.680855
33.021492
32.368514
31.722113
31.082474
30.449772
29.824173
29.205832
28.594898
27.991505
27.395781
26.807843
26.227797
25.655744
25.09177
24.535954
23.988365
23.449063
22.918097
22.395511
21.881338
21.375601
20.878317
20.389493
19.909132
19.437226
18.973759
18.51871
18.072052
17.633751
17.203765
16.782047
16.368547
15.963208
15.565967
15.176758
14.795509
14.422146
14.056589
13.698756
13.348562
13.005918
12.670734
12.34292
12.02239
11.709067
11.402913
11.103968
10.812495
10.529304
10.256494
9.9998585
9.773505
9.6105408
9.5976993
9.8900158
10.782525
12.671447
15.417561
18.465089
21.261605
23.505496
25.128421
26.213939
26.896098
27.289814
27.492596
27.574827
27.572491
27.50592
27.405361
27.282404
27.096344
52.970614
52.239758
51.507472
50.774097
50.039972
49.305431
48.570807
47.83643
47.102627
46.369723
45.638043
44.907907
44.179633
43.453536
42.729929
42.009117
41.291402
40.577083
39.866449
39.159785
38.457368
37.75947
37.066353
36.378271
35.695471
35.018191
34.346661
33.681101
33.021723
32.368731
31.722317
31.082666
30.449953
29.824343
29.205992
28.595048
27.991647
27.395915
26.807969
26.227917
25.655857
25.091877
24.536056
23.988461
23.449154
22.918183
22.395593
21.881415
21.375674
20.878385
20.389558
19.909193
19.437283
18.973813
18.518761
18.0721
17.633795
17.203806
16.782086
16.368584
15.963242
15.565999
15.176787
14.795536
14.422171
14.056612
13.698777
13.34858
13.005933
12.670742
12.342915
12.022355
11.708965
11.402646
11.103306
10.810862
10.525265
10.246551
9.9749869
9.7114311
9.4582167
9.2220636
9.0193574
8.8916479
8.9414755
9.3605252
10.516466
12.631944
15.442137
18.266271
20.673195
22.504803
23.770661
24.586571
25.081039
25.354245
25.480349
25.518203
25.495854
25.425446
52.971047
52.240228
51.507972
50.774622
50.040514
49.305985
48.571366
47.836989
47.103182
46.370271
45.638581
44.908433
44.180146
43.454035
42.730411
42.009583
41.291851
40.577514
39.866861
39.160179
38.457744
37.759827
37.066691
36.378591
35.695773
35.018476
34.346929
33.681353
33.021961
32.368954
31.722527
31.082863
30.450138
29.824517
29.206156
28.595203
27.991793
27.396053
26.8081
26.22804
25.655974
25.091987
24.53616
23.98856
23.449247
22.918272
22.395676
21.881494
21.375748
20.878456
20.389624
19.909255
19.437342
18.973868
18.518813
18.072148
17.633841
17.203849
16.782126
16.368621
15.963277
15.566031
15.176817
14.795564
14.422197
14.056636
13.698799
13.348601
13.005951
12.670759
12.34293
12.022367
11.708971
11.402642
11.103278
10.810776
10.525033
10.245952
9.9734477
9.7074731
9.4480773
9.1955886
8.9510518
8.717459
8.5034511
8.3303383
8.2580035
8.4162249
9.0605056
10.609521
12.992184
15.700232
18.190259
20.167739
21.584965
22.518202
23.098285
23.432095
23.61199
23.690709
52.971486
52.240702
51.508476
50.77515
50.041059
49.306541
48.571928
47.837552
47.103742
46.370825
45.639126
44.908967
44.180667
43.454541
42.730902
42.010057
41.292308
40.577953
39.867282
39.160581
38.458127
37.760191
37.067036
36.378918
35.696082
35.018767
34.347203
33.681611
33.022203
32.369182
31.722741
31.083064
30.450327
29.824695
29.206325
28.595362
27.991942
27.396194
26.808233
26.228166
25.656093
25.0921
24.536266
23.988661
23.449342
22.918362
22.395761
21.881574
21.375824
20.878527
20.389692
19.909319
19.437401
18.973924
18.518865
18.072198
17.633887
17.203892
16.782166
16.368659
15.963312
15.566064
15.176848
14.795592
14.422223
14.05666
13.698822
13.348621
13.005971
12.670777
12.342946
12.022382
11.708985
11.402654
11.103287
10.81078
10.525028
10.245925
9.9733637
9.7072405
9.4474563
9.1939281
8.9466201
8.7056248
8.4714077
8.2454093
8.0320755
7.8438853
7.7133655
7.7312972
8.0772863
9.1153678
11.049657
13.570794
16.057522
18.119963
19.646903
20.673871
21.330456
21.731136
52.971931
52.241179
51.508983
50.77568
50.041607
49.307101
48.572494
47.83812
47.104307
46.371385
45.639677
44.909507
44.181194
43.455054
42.7314
42.010538
41.292772
40.578399
39.867709
39.160989
38.458517
37.760562
37.067389
36.379251
35.696397
35.019065
34.347484
33.681875
33.022451
32.369415
31.72296
31.08327
30.450521
29.824878
29.206496
28.595523
27.992095
27.396338
26.808369
26.228295
25.656214
25.092215
24.536375
23.988764
23.449439
22.918454
22.395848
21.881656
21.375901
20.8786
20.389761
19.909384
19.437462
18.973981
18.518919
18.072248
17.633934
17.203936
16.782207
16.368697
15.963348
15.566097
15.176878
14.795621
14.42225
14.056685
13.698844
13.348642
13.00599
12.670795
12.342962
12.022397
11.708998
11.402666
11.103298
10.81079
10.525036
10.245931
9.973366
9.7072333
9.4474253
9.1938335
8.9463531
8.704887
8.469361
8.2397663
8.01629
7.799684
7.5922737
7.4014448
7.2468121
7.1870977
7.3555241
8.0269458
9.5732615
11.862897
14.269075
16.358
17.957115
19.080628
52.972381
52.241661
51.509493
50.776212
50.042157
49.307662
48.573063
47.838691
47.104877
46.371949
45.640233
44.910053
44.181728
43.455574
42.731904
42.011026
41.293243
40.578852
39.868144
39.161405
38.458913
37.76094
37.067747
36.379591
35.696718
35.019368
34.347769
33.682144
33.022705
32.369653
31.723184
31.083481
30.450719
29.825064
29.206672
28.595689
27.992251
27.396485
26.808508
26.228426
25.656338
25.092332
24.536486
23.988868
23.449538
22.918547
22.395937
21.881739
21.37598
20.878674
20.389831
19.90945
19.437524
18.974039
18.518973
18.072299
17.633982
17.20398
16.782249
16.368736
15.963384
15.566131
15.17691
14.79565
14.422276
14.05671
13.698867
13.348663
13.006009
12.670812
12.342979
12.022412
11.709012
11.402679
11.10331
10.8108
10.525046
10.245939
9.973373
9.7072391
9.4474289
9.1938329
8.9463416
8.7048465
8.4692395
8.2394172
8.0152888
7.7967997
7.5840021
7.3772834
7.1779689
6.9904721
6.8278449
6.7272344
6.7916536
7.2364361
8.4691795
10.473313
12.78518
14.909407
52.972837
52.242147
51.510005
50.776747
50.042709
49.308226
48.573634
47.839265
47.10545
46.372518
45.640795
44.910604
44.182267
43.4561
42.732415
42.011521
41.29372
40.579311
39.868585
39.161828
38.459317
37.761324
37.068112
36.379937
35.697046
35.019677
34.348061
33.682419
33.022963
32.369896
31.723412
31.083696
30.450921
29.825254
29.206851
28.595857
27.99241
27.396635
26.808649
26.22856
25.656465
25.092451
24.536598
23.988974
23.449639
22.918642
22.396026
21.881824
21.37606
20.878749
20.389901
19.909516
19.437586
18.974098
18.519028
18.07235
17.63403
17.204025
16.782291
16.368775
15.96342
15.566164
15.176941
14.795679
14.422303
14.056734
13.69889
13.348684
13.006028
12.67083
12.342995
12.022426
11.709025
11.402691
11.103321
10.81081
10.525054
10.245947
9.97338
9.7072452
9.4474343
9.1938373
8.9463448
8.7048475
8.4692352
8.2393987
8.0152299
7.7966226
7.5834786
7.3757205
7.1733354
6.9765143
6.7860712
6.6047268
6.4415197
6.3219986
6.3275742
6.6255699
7.6796912
9.4414545
52.973298
52.242637
51.510521
50.777284
50.043263
49.308792
48.574208
47.839842
47.106026
46.37309
45.64136
44.91116
44.182812
43.456631
42.732931
42.012021
41.294204
40.579777
39.869032
39.162256
38.459726
37.761714
37.068483
36.380288
35.697378
35.019991
34.348358
33.682698
33.023226
32.370144
31.723645
31.083915
30.451127
29.825448
29.207033
28.596029
27.992572
27.396787
26.808793
26.228696
25.656593
25.092572
24.536713
23.989082
23.449741
22.918738
22.396117
21.881909
21.37614
20.878825
20.389973
19.909583
19.437649
18.974157
18.519083
18.072402
17.634078
17.20407
16.782333
16.368814
15.963456
15.566198
15.176972
14.795707
14.422329
14.056759
13.698912
13.348705
13.006047
12.670847
12.34301
12.022441
11.709038
11.402702
11.103331
10.81082
10.525063
10.245954
9.9733866
9.7072511
9.4474393
9.1938416
8.9463484
8.7048504
8.4692373
8.2393995
8.0152279
7.7966131
7.5834475
7.3756245
7.1730425
6.9756137
6.7832915
6.5961597
6.4147372
6.2408373
6.0811311
5.9537287
5.9470415
6.1469857
52.973764
52.24313
51.511039
50.777823
50.043818
49.30936
48.574783
47.840421
47.106605
46.373666
45.641929
44.911721
44.183361
43.457167
42.733453
42.012527
41.294693
40.580248
39.869486
39.16269
38.460141
37.76211
37.068859
36.380646
35.697717
35.020311
34.348659
33.682983
33.023494
32.370396
31.723882
31.084137
30.451337
29.825645
29.207219
28.596204
27.992736
27.396943
26.808939
26.228834
25.656723
25.092695
24.536829
23.989192
23.449844
22.918836
22.396209
21.881996
21.376222
20.878902
20.390045
19.909651
19.437713
18.974216
18.519139
18.072454
17.634126
17.204115
16.782374
16.368852
15.963492
15.566231
15.177003
14.795736
14.422356
14.056783
13.698935
13.348725
13.006066
12.670864
12.343026
12.022454
11.709051
11.402714
11.103341
10.810829
10.525071
10.245962
9.9733928
9.7072564
9.4474438
9.1938454
8.9463516
8.7048529
8.4692392
8.2394009
8.0152287
7.7966131
7.5834458
7.3756186
7.1730243
6.9755574
6.7831154
6.5956053
6.4129628
6.2352135
6.0627143
5.8967041
5.7452585
5.6149695
52.974235
52.243628
51.511559
50.778364
50.044375
49.309929
48.57536
47.841002
47.107187
46.374244
45.642502
44.912285
44.183915
43.457708
42.73398
42.013038
41.295188
40.580725
39.869944
39.16313
38.460562
37.762511
37.069241
36.381008
35.69806
35.020636
34.348966
33.683272
33.023766
32.370652
31.724123
31.084364
30.45155
29.825846
29.207408
28.596381
27.992903
27.3971
26.809088
26.228973
25.656855
25.09282
24.536946
23.989302
23.449948
22.918934
22.396301
21.882083
21.376304
20.878979
20.390117
19.909719
19.437776
18.974275
18.519194
18.072506
17.634174
17.20416
16.782416
16.368891
15.963528
15.566264
15.177033
14.795764
14.422382
14.056806
13.698956
13.348745
13.006084
12.67088
12.343041
12.022468
11.709063
11.402724
11.103351
10.810837
10.525078
10.245968
9.9733983
9.7072611
9.4474477
9.1938487
8.9463542
8.7048549
8.4692406
8.2394018
8.0152291
7.7966131
7.5834453
7.3756175
7.1730222
6.9755528
6.7831032
6.5955693
6.4128491
6.2348477
6.061492
5.8927739
5.7291926
5.5710762
52.97471
52.244128
51.512083
50.778906
50.044934
49.3105
48.575939
47.841585
47.10777
46.374825
45.643078
44.912853
44.184472
43.458253
42.734511
42.013554
41.295687
40.581207
39.870408
39.163575
38.460988
37.762917
37.069628
36.381376
35.698409
35.020966
34.349277
33.683566
33.024043
32.370912
31.724368
31.084594
30.451766
29.826049
29.207599
28.596562
27.993073
27.39726
26.809238
26.229115
25.656989
25.092946
24.537065
23.989414
23.450053
22.919033
22.396395
21.882171
21.376386
20.879056
20.39019
19.909787
19.43784
18.974335
18.51925
18.072557
17.634222
17.204205
16.782458
16.368929
15.963563
15.566297
15.177063
14.795792
14.422407
14.05683
13.698977
13.348764
13.006101
12.670896
12.343055
12.02248
11.709074
11.402734
11.103359
10.810845
10.525085
10.245974
9.9734031
9.707265
9.4474509
9.1938511
8.946356
8.7048561
8.4692413
8.239402
8.0152288
7.7966124
7.5834442
7.3756161
7.1730204
6.9755505
6.7831003
6.5955648
6.4128397
6.2348225
6.0614113
5.8925143
5.7280548
5.5680243
52.975191
52.244632
51.512608
50.77945
50.045493
49.311071
48.576518
47.842169
47.108355
46.375408
45.643656
44.913423
44.185032
43.458802
42.735046
42.014074
41.296191
40.581694
39.870877
39.164025
38.461419
37.763329
37.07002
36.381748
35.698762
35.0213
34.349593
33.683863
33.024323
32.371177
31.724617
31.084828
30.451986
29.826256
29.207794
28.596744
27.993245
27.397421
26.80939
26.229259
25.657124
25.093073
24.537184
23.989527
23.45016
22.919133
22.396489
21.882259
21.376469
20.879134
20.390263
19.909855
19.437904
18.974394
18.519305
18.072609
17.63427
17.204249
16.782499
16.368967
15.963598
15.566329
15.177093
14.795819
14.422431
14.056852
13.698998
13.348782
13.006118
12.670911
12.343068
12.022492
11.709084
11.402744
11.103367
10.810852
10.525091
10.245978
9.973407
9.7072682
9.4474533
9.1938528
8.9463571
8.7048566
8.4692412
8.2394014
8.0152278
7.7966109
7.5834424
7.3756139
7.1730179
6.9755478
6.7830973
6.5955615
6.4128359
6.2348175
6.0614037
5.8924962
5.7279776
5.5678173
52.975675
52.24514
51.513136
50.779996
50.046054
49.311643
48.577098
47.842754
47.108942
46.375993
45.644236
44.913996
44.185596
43.459354
42.735585
42.014598
41.296699
40.582185
39.87135
39.16448
38.461854
37.763745
37.070416
36.382125
35.699119
35.021638
34.349913
33.684165
33.024608
32.371444
31.724869
31.085065
30.452209
29.826466
29.20799
28.59693
27.993419
27.397585
26.809545
26.229404
25.65726
25.093201
24.537305
23.989641
23.450267
22.919234
22.396583
21.882348
21.376552
20.879212
20.390336
19.909923
19.437967
18.974454
18.519361
18.07266
17.634318
17.204293
16.782539
16.369005
15.963632
15.56636
15.177121
14.795845