/*--------------------------------*- C++ -*----------------------------------*\
  =========                 |
  \\      /  F ield         | OpenFOAM: The Open Source CFD Toolbox
   \\    /   O peration     | Website:  https://openfoam.org
    \\  /    A nd           | Version:  12
     \\/     M anipulation  |
\*---------------------------------------------------------------------------*/
FoamFile
{
    format      ascii;
    class       volVectorField;
    location    "1600";
    object      wallShearStress;
}
// * * * * * * * * * * * * * * * * * * * * * * * * * * * * * * * * * * * * * //

dimensions      [0 2 -2 0 0 0 0];

internalField   uniform (0 0 0);

boundaryField
{
    inlet
    {
        type            calculated;
        value           uniform (0 0 0);
    }
    top
    {
        type            calculated;
        value           uniform (0 0 0);
    }
    outlet
    {
        type            calculated;
        value           uniform (0 0 0);
    }
    slipsurface
    {
        type            calculated;
        value           uniform (0 0 0);
    }
    bottom
    {
        type            calculated;
        value           nonuniform List<vector> 
100
(
(-0.0033444784 -3.5359347e-06 0)
(-0.0032711432 -6.5168668e-06 0)
(-0.0031942335 -8.1632874e-06 0)
(-0.0031132167 -9.5879205e-06 0)
(-0.0030338376 -1.1319597e-05 0)
(-0.0029580724 -1.2328466e-05 0)
(-0.0028860646 -1.235882e-05 0)
(-0.0028176272 -1.1981256e-05 0)
(-0.0027521518 -1.1423004e-05 0)
(-0.0026890564 -1.0701677e-05 0)
(-0.0026272245 -9.8960047e-06 0)
(-0.0025661778 -9.1486023e-06 0)
(-0.0025057446 -8.4577917e-06 0)
(-0.0024459518 -7.8132245e-06 0)
(-0.00238692 -7.2076303e-06 0)
(-0.0023288584 -6.6299292e-06 0)
(-0.0022721213 -6.0498223e-06 0)
(-0.0022174339 -5.481659e-06 0)
(-0.002164165 -4.9734659e-06 0)
(-0.0021131289 -4.4896845e-06 0)
(-0.0020645856 -4.0270829e-06 0)
(-0.002018737 -3.5863875e-06 0)
(-0.0019757817 -3.1694881e-06 0)
(-0.0019358752 -2.779534e-06 0)
(-0.0018991441 -2.4137376e-06 0)
(-0.0018657003 -2.0730042e-06 0)
(-0.0018355283 -1.7640008e-06 0)
(-0.0018084994 -1.4862948e-06 0)
(-0.0017844376 -1.2393695e-06 0)
(-0.0017631324 -1.0261687e-06 0)
(-0.001744335 -8.456806e-07 0)
(-0.0017277907 -6.9291976e-07 0)
(-0.0017132993 -5.6332239e-07 0)
(-0.0017006498 -4.5630531e-07 0)
(-0.001689577 -3.6877103e-07 0)
(-0.0016797957 -3.0032992e-07 0)
(-0.0016710257 -2.5145258e-07 0)
(-0.001663012 -2.1839308e-07 0)
(-0.0016555933 -1.9371533e-07 0)
(-0.0016486501 -1.7733478e-07 0)
(-0.0016420273 -1.7067108e-07 0)
(-0.0016355659 -1.7073279e-07 0)
(-0.0016291463 -1.7553178e-07 0)
(-0.0016226846 -1.8300561e-07 0)
(-0.0016161406 -1.9103565e-07 0)
(-0.0016094856 -2.0006218e-07 0)
(-0.0016026769 -2.1194185e-07 0)
(-0.0015956222 -2.2619913e-07 0)
(-0.001588254 -2.4014133e-07 0)
(-0.0015805715 -2.517998e-07 0)
(-0.0015726062 -2.6153036e-07 0)
(-0.0015643751 -2.697513e-07 0)
(-0.0015558925 -2.7568294e-07 0)
(-0.0015472117 -2.7790531e-07 0)
(-0.0015384217 -2.7644448e-07 0)
(-0.0015295881 -2.7301396e-07 0)
(-0.0015207312 -2.6852119e-07 0)
(-0.0015118561 -2.6310373e-07 0)
(-0.0015029915 -2.5652915e-07 0)
(-0.0014941704 -2.4952837e-07 0)
(-0.0014853953 -2.4283997e-07 0)
(-0.0014766696 -2.3563201e-07 0)
(-0.0014680264 -2.2754005e-07 0)
(-0.0014594965 -2.1922858e-07 0)
(-0.0014510777 -2.1134324e-07 0)
(-0.001442771 -2.031819e-07 0)
(-0.0014345945 -1.9494316e-07 0)
(-0.0014265382 -1.8761731e-07 0)
(-0.0014185738 -1.8093096e-07 0)
(-0.0014106982 -1.7426241e-07 0)
(-0.0014029239 -1.6777145e-07 0)
(-0.0013952412 -1.6185576e-07 0)
(-0.0013876494 -1.5568021e-07 0)
(-0.001380174 -1.4937504e-07 0)
(-0.0013728067 -1.4380314e-07 0)
(-0.0013655279 -1.3836497e-07 0)
(-0.0013583457 -1.3297615e-07 0)
(-0.00135125 -1.2825367e-07 0)
(-0.0013442269 -1.2357607e-07 0)
(-0.0013372934 -1.1875065e-07 0)
(-0.001330451 -1.1434838e-07 0)
(-0.0013236913 -1.0997594e-07 0)
(-0.0013170231 -1.0565281e-07 0)
(-0.0013104347 -1.0184587e-07 0)
(-0.0013039134 -9.809871e-08 0)
(-0.0012974677 -9.4387645e-08 0)
(-0.0012910984 -9.0874681e-08 0)
(-0.0012848064 -8.7391062e-08 0)
(-0.0012785876 -8.4163423e-08 0)
(-0.0012724348 -8.1044791e-08 0)
(-0.0012663499 -7.8029577e-08 0)
(-0.0012603273 -7.5210006e-08 0)
(-0.0012543694 -7.2407953e-08 0)
(-0.0012484685 -6.9812191e-08 0)
(-0.0012426339 -6.741372e-08 0)
(-0.0012367849 -6.5115301e-08 0)
(-0.0012311797 -6.3329633e-08 0)
(-0.0012250951 -1.5397196e-07 0)
(-0.0012197897 -2.8508752e-07 0)
(-0.0012117859 -2.7349875e-07 0)
)
;
    }
    frontandback
    {
        type            empty;
    }
}


// ************************************************************************* //
