/*--------------------------------*- C++ -*----------------------------------*\
  =========                 |
  \\      /  F ield         | OpenFOAM: The Open Source CFD Toolbox
   \\    /   O peration     | Website:  https://openfoam.org
    \\  /    A nd           | Version:  12
     \\/     M anipulation  |
\*---------------------------------------------------------------------------*/
FoamFile
{
    format      ascii;
    class       volScalarField;
    location    "700";
    object      k;
}
// * * * * * * * * * * * * * * * * * * * * * * * * * * * * * * * * * * * * * //

dimensions      [0 2 -2 0 0 0 0];

internalField   nonuniform List<scalar> 
7480
(
0.00019355777
0.00028099293
0.00041314516
0.00059969944
0.00085452736
0.0011915467
0.001621106
0.0021460294
0.0027581383
0.0034358743
0.0041448823
0.0048439555
0.0054918012
0.0060539813
0.0065073737
0.0068438338
0.0070579233
0.0072060963
0.0072013407
0.0071604301
0.0070700493
0.0069446481
0.0067977668
0.0066409858
0.0064840015
0.0063348815
0.0062002534
0.0060852464
0.0059934217
0.005926267
0.0058824231
0.0058574313
0.0058443648
0.0058355599
0.005824783
0.0058086019
0.0057864325
0.0057595688
0.0057298448
0.0056986307
0.0056665211
0.0056335784
0.0055997766
0.0055652954
0.0055305186
0.0054958532
0.0054615674
0.0054277587
0.0053944321
0.0053615817
0.0053292172
0.0052973434
0.0052659613
0.0052350613
0.0052046292
0.0051746541
0.0051451268
0.0051160341
0.0050873621
0.0050591068
0.0050312566
0.0050037929
0.0049767009
0.0049499697
0.0049235899
0.0048975535
0.0048718528
0.0048464788
0.0048214234
0.0047966788
0.0047722366
0.0047480892
0.0047242302
0.0047006519
0.0046773473
0.0046543099
0.0046315336
0.0046090124
0.0045867404
0.0045647118
0.0045429213
0.0045213636
0.0045000333
0.0044789254
0.0044580348
0.0044373566
0.0044168857
0.004396617
0.0043765455
0.0043566647
0.0043369706
0.0043174521
0.0042981121
0.0042789114
0.0042599038
0.004240892
0.004222255
0.0042027673
0.0041862448
0.0041559001
0.00014639914
0.0001489864
0.00015305088
0.00015894635
0.00016741974
0.000179706
0.00019757167
0.00022327567
0.00025923897
0.00030792325
0.00037185883
0.00045171847
0.00054585542
0.00065079342
0.0007620501
0.0008755657
0.000987145
0.0010993056
0.0012097308
0.001325836
0.0014580755
0.0016269376
0.0018405165
0.0020785395
0.0023412983
0.0026322489
0.0029514172
0.0032952498
0.0036547282
0.0040132757
0.0043488398
0.0046394752
0.0048687654
0.0050320242
0.0051371688
0.0051996215
0.0052359799
0.005259045
0.0052754766
0.0052868727
0.0052926372
0.0052924073
0.005287109
0.0052785521
0.0052684222
0.0052576485
0.0052464159
0.0052345794
0.0052220694
0.005208981
0.0051954391
0.0051815041
0.0051671702
0.0051524363
0.0051373315
0.0051218891
0.0051061267
0.0050900544
0.0050736992
0.0050571129
0.0050402881
0.0050232248
0.0050059396
0.0049884551
0.0049707942
0.0049529774
0.0049350217
0.0049169439
0.0048987591
0.0048804812
0.0048621244
0.0048437023
0.0048252261
0.0048067085
0.0047881619
0.0047695972
0.0047510241
0.0047324519
0.0047138888
0.004695343
0.0046768217
0.0046583318
0.0046398795
0.0046214703
0.0046031093
0.0045848012
0.0045665499
0.0045483593
0.0045302324
0.004512171
0.0044941779
0.0044762562
0.0044584036
0.0044406262
0.004422906
0.0044052699
0.0043876641
0.0043698827
0.0043539527
0.004325897
0.00014519489
0.00014544542
0.00014583483
0.00014634571
0.00014697429
0.00014772456
0.00014860295
0.00014961422
0.00015075508
0.00015201492
0.00015339739
0.0001549097
0.00015654775
0.00015830113
0.00016016235
0.00016213836
0.00016425099
0.00016660394
0.00016934656
0.0001728105
0.00017750146
0.00018471259
0.00019525235
0.00021504255
0.00024769331
0.0002963762
0.0003653688
0.00045984659
0.00058769047
0.00076092807
0.0010082411
0.0013112696
0.0016569024
0.0020295762
0.0024093328
0.0027730475
0.0030985542
0.0033705077
0.0035843607
0.0037457887
0.0038669156
0.0039612118
0.0040394078
0.0041075386
0.0041676786
0.0042200248
0.0042647437
0.0043027541
0.0043354173
0.0043639147
0.0043889353
0.0044108066
0.0044297672
0.0044461003
0.0044600965
0.0044719875
0.0044819439
0.0044901127
0.0044966292
0.0045016009
0.004505153
0.0045073923
0.004508414
0.0045083047
0.0045071439
0.0045050044
0.0045019534
0.0044980528
0.0044933595
0.0044879269
0.004481805
0.0044750416
0.0044676805
0.0044597637
0.0044513306
0.0044424185
0.0044330619
0.0044232933
0.004413143
0.0044026396
0.00439181
0.0043806792
0.0043692707
0.0043576064
0.0043457066
0.0043335905
0.0043212758
0.0043087793
0.0042961164
0.0042833031
0.0042703517
0.0042572766
0.004244083
0.0042307969
0.0042173905
0.0042039586
0.0041903359
0.0041766929
0.0041640739
0.004142113
0.00014508268
0.00014509966
0.00014515006
0.0001452269
0.00014532279
0.00014543059
0.00014554311
0.00014565261
0.00014575011
0.00014582518
0.00014586747
0.00014586681
0.00014581229
0.00014569166
0.00014549269
0.00014519971
0.00014479831
0.00014427924
0.00014363974
0.0001428827
0.00014201329
0.00014106267
0.00014004719
0.00013907902
0.00013831907
0.00013801673
0.00013846365
0.00014001772
0.00014346337
0.00014979222
0.0001617514
0.0001820413
0.00021993245
0.00028345647
0.00038025953
0.00051824328
0.00071667963
0.00097604506
0.0012744601
0.0015932167
0.0019123494
0.0022116769
0.0024756682
0.002697281
0.0028782627
0.0030264134
0.003151296
0.0032605613
0.0033584143
0.003446385
0.0035249957
0.0035949878
0.0036575281
0.003713809
0.0037647011
0.0038107574
0.0038524026
0.0038900477
0.0039240782
0.0039548122
0.0039825199
0.0040074422
0.0040297979
0.0040497828
0.0040675712
0.0040833207
0.0040971748
0.0041092638
0.0041197069
0.0041286139
0.0041360865
0.0041422193
0.0041470999
0.0041508099
0.0041534254
0.0041550177
0.0041556532
0.004155394
0.0041542983
0.0041524205
0.0041498115
0.004146519
0.0041425874
0.0041380584
0.0041329709
0.0041273616
0.0041212644
0.0041147117
0.0041077333
0.0041003586
0.004092613
0.0040845242
0.0040761084
0.0040674058
0.0040583939
0.0040491973
0.0040396152
0.0040300109
0.0040207736
0.0040046387
0.0001450821
0.00014504922
0.0001450283
0.00014501792
0.000145015
0.00014501582
0.00014501643
0.00014501278
0.00014500061
0.00014497543
0.00014493265
0.00014486775
0.00014477628
0.00014465357
0.0001444954
0.00014429744
0.00014405386
0.00014375871
0.00014340385
0.00014298484
0.00014249858
0.00014194454
0.0001413234
0.00014064206
0.00013991591
0.00013916946
0.00013842993
0.00013772393
0.00013708184
0.00013656654
0.00013615524
0.00013627078
0.000136876
0.00013866248
0.0001423616
0.00014900661
0.0001611524
0.00018205394
0.00022147686
0.00028774058
0.0003886358
0.00053512259
0.0007383407
0.00097987479
0.0012437321
0.0015125259
0.0017692519
0.0020014315
0.0022037583
0.0023775899
0.002528297
0.0026618204
0.0027822998
0.0028917496
0.0029910577
0.0030810311
0.0031627216
0.0032371946
0.0033052864
0.0033676024
0.0034246453
0.0034768835
0.0035247414
0.0035685854
0.0036087333
0.0036454697
0.003679051
0.0037097073
0.0037376463
0.0037630572
0.0037861131
0.0038069728
0.0038257822
0.003842676
0.0038577785
0.0038712053
0.0038830639
0.0038934543
0.0039024696
0.0039101966
0.0039167164
0.0039221044
0.0039264314
0.0039297631
0.0039321612
0.0039336834
0.0039343837
0.0039343127
0.003933518
0.0039320449
0.0039299345
0.0039272292
0.0039239592
0.0039201779
0.0039158751
0.0039111922
0.0039059212
0.0039005566
0.0038949206
0.0038848246
0.00014510345
0.00014505795
0.00014501552
0.00014497726
0.00014494276
0.00014491051
0.0001448785
0.00014484453
0.00014480629
0.00014476134
0.00014470717
0.00014464135
0.0001445614
0.00014446496
0.00014434933
0.00014421159
0.00014405008
0.00014386236
0.0001436453
0.00014339583
0.00014311119
0.00014278902
0.00014242741
0.00014202513
0.00014158217
0.0001411002
0.00014058236
0.00014003182
0.00013945422
0.0001388714
0.00013828866
0.0001377401
0.00013723654
0.00013684949
0.00013651598
0.0001365595
0.00013685732
0.00013768354
0.00013952453
0.00014314843
0.00014957364
0.00016082106
0.00018014703
0.00021588908
0.00027623096
0.00036853886
0.00050586021
0.00068643562
0.00089711803
0.0011244409
0.0013535459
0.0015715667
0.0017706308
0.001948553
0.0021074308
0.0022508972
0.0023818848
0.0025019918
0.0026120698
0.0027129163
0.0028054587
0.0028905822
0.0029689992
0.0030412838
0.0031079448
0.0031694487
0.0032262108
0.003278596
0.0033269305
0.0033715106
0.0034126045
0.0034504554
0.0034852856
0.0035172983
0.0035466804
0.0035736042
0.0035982291
0.0036207029
0.0036411623
0.0036597347
0.0036765382
0.0036916828
0.0037052711
0.0037173987
0.0037281548
0.0037376227
0.0037458805
0.0037530012
0.0037590532
0.0037641012
0.003768205
0.003771424
0.0037738051
0.0037754163
0.0037762639
0.0037765018
0.0037759266
0.0037751456
0.0037734184
0.0037697782
0.00014513239
0.00014508413
0.00014503526
0.00014498701
0.00014493996
0.00014489393
0.00014484817
0.00014480156
0.0001447528
0.00014470045
0.00014464298
0.00014457879
0.00014450636
0.00014442412
0.0001443305
0.00014422379
0.00014410251
0.00014396521
0.00014381028
0.000143636
0.00014344065
0.00014322253
0.00014298004
0.00014271171
0.00014241636
0.00014209321
0.00014174202
0.00014136295
0.00014095635
0.00014052575
0.00014007408
0.0001396078
0.00013912807
0.00013865159
0.00013817918
0.00013775286
0.00013737716
0.00013708571
0.00013685749
0.00013691171
0.00013718073
0.00013790719
0.00013928456
0.0001418989
0.00014664281
0.00015477406
0.00016878303
0.00019330525
0.00023635045
0.00030516197
0.00040934022
0.00055339506
0.00072768978
0.0009219081
0.0011237657
0.0013217587
0.0015080016
0.0016792697
0.0018360336
0.0019802267
0.0021134976
0.0022367847
0.0023507278
0.0024560307
0.0025534577
0.0026436985
0.00272733
0.0028048585
0.0028767506
0.0029434318
0.003005283
0.0030626484
0.0031158422
0.003165151
0.0032108374
0.0032531424
0.0032922884
0.0033284806
0.0033619087
0.0033927485
0.003421163
0.0034473036
0.0034713111
0.0034933166
0.0035134423
0.0035318022
0.0035485027
0.0035636436
0.0035773179
0.0035896136
0.003600612
0.0036103927
0.0036190223
0.0036265853
0.0036331081
0.0036387566
0.0036433365
0.0036475687
0.0036501185
0.0036534767
0.00014516657
0.00014511795
0.00014506762
0.00014501625
0.00014496444
0.00014491243
0.0001448601
0.00014480706
0.00014475269
0.00014469619
0.00014463661
0.00014457293
0.00014450409
0.000144429
0.00014434657
0.00014425564
0.00014415512
0.00014404392
0.00014392095
0.00014378506
0.00014363511
0.00014346992
0.00014328828
0.00014308904
0.00014287109
0.00014263346
0.00014237532
0.0001420961
0.00014179529
0.0001414731
0.00014113006
0.0001407678
0.00014038714
0.00013999182
0.00013958378
0.00013917142
0.00013876079
0.00013836165
0.00013797258
0.00013763229
0.00013734716
0.00013714784
0.00013704345
0.00013713061
0.00013746651
0.0001382293
0.00013964853
0.00014210745
0.00014644676
0.00015384674
0.00016640325
0.00018782588
0.00022523455
0.00028526625
0.00037732382
0.00050302892
0.00065618194
0.00082836798
0.0010092058
0.0011888967
0.0013606638
0.0015216429
0.0016717442
0.0018118166
0.0019425514
0.0020643964
0.0021778209
0.0022833946
0.0023816936
0.0024732329
0.0025584775
0.0026378624
0.0027117918
0.0027806362
0.0028447362
0.0029044067
0.0029599382
0.0030115995
0.0030596392
0.0031042876
0.0031457584
0.0031842504
0.0032199479
0.0032530229
0.0032836355
0.003311935
0.003338061
0.0033621437
0.0033843051
0.0034046597
0.0034233141
0.0034403709
0.0034559196
0.0034700637
0.0034828524
0.0034944658
0.0035047197
0.0035144578
0.003521702
0.0035326955
0.00014520565
0.00014515717
0.0001451068
0.00014505483
0.00014500162
0.0001449474
0.00014489222
0.00014483603
0.0001447786
0.00014471953
0.00014465831
0.00014459431
0.00014452684
0.00014445513
0.00014437841
0.00014429584
0.0001442066
0.00014410987
0.0001440048
0.00014389054
0.00014376625
0.00014363104
0.00014348403
0.0001433243
0.00014315095
0.00014296311
0.00014275997
0.00014254079
0.0001423049
0.00014205183
0.00014178128
0.00014149337
0.00014118821
0.00014086667
0.00014052953
0.000140179
0.00013981771
0.00013944979
0.00013907636
0.00013870612
0.00013834413
0.00013800152
0.00013768564
0.00013741448
0.00013720892
0.00013706564
0.00013710264
0.00013728345
0.00013776323
0.00013871329
0.00014036924
0.00014311232
0.00014782178
0.00015573285
0.00016901929
0.00019166676
0.00022994034
0.00029040013
0.00038132693
0.00050028802
0.00064293845
0.0008017569
0.00096753549
0.0011322024
0.0012907307
0.0014411468
0.0015831707
0.0017169538
0.001842647
0.0019604768
0.0020708041
0.0021740509
0.0022706297
0.0023609352
0.0024453505
0.0025242411
0.0025979511
0.0026668028
0.0027310989
0.0027911219
0.002847136
0.0028993878
0.0029481074
0.0029935102
0.0030357968
0.0030751553
0.0031117612
0.0031457789
0.0031773621
0.0032066554
0.0032337935
0.0032589052
0.0032821056
0.0033035197
0.0033232222
0.0033414099
0.0033579087
0.003373698
0.0033860985
0.0034054425
0.00014524943
0.00014520119
0.00014515112
0.00014509936
0.00014504606
0.00014499136
0.00014493529
0.00014487787
0.00014481904
0.00014475861
0.00014469633
0.00014463186
0.00014456476
0.00014449454
0.00014442065
0.00014434252
0.00014425954
0.00014417106
0.00014407644
0.00014397502
0.00014386612
0.00014374908
0.00014362317
0.00014348768
0.00014334188
0.00014318503
0.00014301643
0.00014283538
0.00014264122
0.00014243334
0.00014221121
0.00014197448
0.00014172285
0.0001414563
0.0001411749
0.00014087916
0.00014056997
0.00014024895
0.00013991716
0.00013957728
0.00013923204
0.00013888567
0.00013854215
0.00013820713
0.00013788927
0.0001375895
0.00013733631
0.00013713813
0.00013698021
0.00013699542
0.00013712325
0.00013747749
0.00013820314
0.00013947869
0.00014159314
0.00014507241
0.00015089026
0.00016053264
0.00017648482
0.00020372948
0.00024773218
0.00031637075
0.00041112899
0.00053033307
0.00066907758
0.00081968921
0.00097418723
0.0011266198
0.0012738061
0.0014145004
0.0015482565
0.0016748759
0.001794342
0.0019068189
0.0020125731
0.0021119049
0.0022051289
0.0022925663
0.002374535
0.002451343
0.0025232861
0.0025906464
0.0026536915
0.0027126745
0.002767834
0.002819395
0.002867569
0.0029125548
0.0029545394
0.0029936988
0.0030301977
0.003064193
0.0030958276
0.0031252501
0.0031525627
0.0031779819
0.0032013426
0.0032237745
0.0032418332
0.0032703122
0.00014529761
0.00014524967
0.0001452
0.00014514865
0.00014509572
0.00014504124
0.00014498521
0.00014492761
0.00014486842
0.00014480755
0.00014474485
0.00014468015
0.00014461317
0.00014454364
0.00014447118
0.00014439541
0.0001443159
0.00014423218
0.00014414375
0.00014405011
0.00014395073
0.00014384506
0.00014373253
0.00014361256
0.00014348455
0.00014334789
0.00014320196
0.00014304617
0.00014287989
0.00014270256
0.00014251361
0.00014231255
0.00014209891
0.00014187237
0.00014163265
0.00014137968
0.00014111354
0.00014083472
0.00014054371
0.00014024146
0.00013992921
0.00013960879
0.00013928229
0.00013895219
0.00013862246
0.00013829472
0.00013797671
0.00013767674
0.00013739017
0.00013715095
0.00013696387
0.00013680995
0.00013681683
0.00013692128
0.00013723624
0.00013786757
0.00013896984
0.0001408
0.0001437195
0.00014854063
0.00015643615
0.00016944902
0.00019116798
0.00022650873
0.00028216036
0.00036135879
0.00046410179
0.0005873614
0.00072486343
0.00086923732
0.0010144142
0.0011566734
0.0012941556
0.0014259421
0.0015515289
0.001670692
0.0017834288
0.0018898684
0.0019902073
0.0020846821
0.002173553
0.0022570895
0.002335562
0.0024092368
0.0024783728
0.0025432197
0.002604016
0.0026609896
0.0027143567
0.0027643223
0.0028110803
0.0028548154
0.0028956983
0.0029339024
0.0029695581
0.0030029035
0.0030337812
0.0030634861
0.0030877398
0.0031261994
0.00014534981
0.00014530224
0.00014525302
0.00014520218
0.00014514975
0.00014509575
0.00014504014
0.00014498288
0.00014492392
0.00014486319
0.0001448006
0.00014473603
0.0001446693
0.00014460025
0.00014452865
0.00014445423
0.00014437672
0.00014429579
0.00014421108
0.00014412221
0.00014402877
0.00014393034
0.00014382646
0.00014371664
0.00014360041
0.00014347724
0.00014334663
0.00014320804
0.00014306094
0.00014290482
0.00014273913
0.00014256337
0.00014237706
0.00014217974
0.00014197102
0.00014175057
0.00014151816
0.00014127373
0.00014101734
0.00014074923
0.00014046985
0.00014017995
0.00013988051
0.00013957275
0.00013925856
0.00013893928
0.00013861761
0.00013829801
0.00013798038
0.00013767372
0.00013738643
0.00013711224
0.00013688597
0.00013670788
0.00013656917
0.00013657465
0.00013668894
0.00013700578
0.0001376119
0.00013865859
0.00014037651
0.00014311732
0.00014753591
0.00015468382
0.0001663346
0.00018550237
0.00021655475
0.00026557968
0.00033563907
0.00042793788
0.0005404878
0.0006679834
0.00080372682
0.0009419477
0.0010788466
0.0012122771
0.0013410259
0.0014643773
0.0015819586
0.001693642
0.0017994506
0.0018994977
0.0019939548
0.0020830291
0.0021669471
0.0022459448
0.0023202606
0.0023901305
0.0024557855
0.0025174494
0.0025753374
0.0026296568
0.0026806029
0.0027283715
0.0027731198
0.0028151079
0.002854183
0.0028918191
0.0029228313
0.0029721674
0.00014540566
0.00014535853
0.00014530981
0.00014525951
0.00014520766
0.00014515424
0.0001450992
0.0001450425
0.00014498406
0.00014492382
0.00014486169
0.00014479755
0.0001447313
0.00014466281
0.00014459192
0.00014451847
0.00014444227
0.0001443631
0.00014428072
0.00014419485
0.00014410519
0.00014401142
0.00014391317
0.00014381008
0.00014370174
0.00014358772
0.0001434676
0.00014334093
0.00014320725
0.00014306609
0.00014291698
0.00014275945
0.00014259303
0.00014241725
0.00014223167
0.00014203588
0.00014182951
0.00014161227
0.00014138395
0.00014114447
0.00014089384
0.00014063225
0.00014036007
0.00014007782
0.00013978636
0.00013948653
0.00013917948
0.00013886739
0.00013855116
0.00013823369
0.00013791981
0.00013760885
0.00013731065
0.00013703207
0.00013676989
0.00013655478
0.00013638951
0.00013627563
0.00013629056
0.00013643292
0.00013677912
0.00013741778
0.00013849311
0.00014023399
0.00014298733
0.00014736247
0.00015435982
0.00016567798
0.00018410787
0.00021372347
0.00025975184
0.00032530264
0.0004119681
0.00051803346
0.0006386512
0.00076771849
0.00089995531
0.001031759
0.0011609354
0.0012861458
0.0014065712
0.0015217567
0.0016314963
0.0017357425
0.0018345501
0.001928042
0.002016384
0.0020997682
0.0021784016
0.0022524983
0.0023222739
0.002387943
0.0024497139
0.0025077969
0.0025623697
0.0026137111
0.0026616673
0.0027079037
0.0027462501
0.0028073928
0.00014546479
0.00014541816
0.00014536997
0.00014532027
0.00014526904
0.00014521625
0.00014516187
0.00014510582
0.00014504804
0.00014498846
0.00014492698
0.0001448635
0.00014479792
0.00014473013
0.00014466002
0.00014458746
0.00014451231
0.00014443445
0.00014435368
0.00014426983
0.00014418268
0.000144092
0.00014399751
0.00014389893
0.00014379593
0.00014368818
0.00014357532
0.00014345698
0.00014333276
0.00014320227
0.0001430651
0.00014292081
0.00014276898
0.00014260917
0.00014244094
0.00014226387
0.00014207754
0.00014188156
0.00014167562
0.00014145942
0.00014123278
0.00014099559
0.00014074786
0.0001404897
0.0001402214
0.00013994339
0.00013965616
0.00013936071
0.00013905783
0.00013874869
0.00013843568
0.00013811959
0.00013780366
0.00013749245
0.00013718599
0.00013689384
0.00013662258
0.00013637405
0.00013617111
0.00013602228
0.00013594762
0.00013598104
0.00013616588
0.00013656994
0.00013728515
0.00013845909
0.0001403251
0.0001432562
0.0001478756
0.00015521612
0.00016693026
0.00018587309
0.00021608392
0.00026182392
0.00032634902
0.00041101485
0.00051386484
0.00063016735
0.00075433636
0.0008816598
0.0010088757
0.0011338949
0.0012553835
0.0013725097
0.0014847946
0.0015919963
0.0016940297
0.0017909149
0.0018827427
0.0019696501
0.0020518039
0.0021293889
0.0022025994
0.0022716399
0.0023366934
0.002398047
0.0024555347
0.0025110218
0.0025572666
0.0026311536
0.00014552682
0.00014548073
0.00014543313
0.00014538405
0.00014533348
0.00014528137
0.00014522768
0.00014517235
0.00014511531
0.00014505648
0.00014499576
0.00014493307
0.00014486829
0.00014480134
0.00014473209
0.00014466047
0.00014458635
0.00014450962
0.00014443018
0.00014434788
0.00014426257
0.00014417408
0.00014408222
0.00014398677
0.00014388747
0.00014378408
0.0001436763
0.00014356383
0.00014344634
0.00014332351
0.00014319497
0.00014306035
0.00014291928
0.00014277136
0.00014261618
0.00014245333
0.00014228239
0.00014210297
0.00014191467
0.00014171716
0.00014151011
0.00014129326
0.00014106642
0.00014082948
0.00014058241
0.00014032531
0.00014005832
0.00013978184
0.0001394963
0.00013920225
0.00013890081
0.00013859276
0.00013827946
0.00013796332
0.00013764531
0.0001373289
0.00013701841
0.00013671572
0.00013642912
0.00013616503
0.00013593444
0.0001357474
0.00013561926
0.00013558147
0.00013566277
0.00013591222
0.00013640165
0.00013723563
0.00013857677
0.00014068534
0.00014395297
0.00014908597
0.00015720933
0.00017010439
0.00019073095
0.00022299326
0.00027068986
0.00033690882
0.00042228527
0.0005242789
0.00063814453
0.00075879632
0.00088212047
0.0010052561
0.0011263084
0.0012440391
0.0013576691
0.0014667387
0.001571005
0.001670372
0.0017648451
0.001854498
0.0019394505
0.0020198566
0.0020958711
0.0021677656
0.00223534
0.0023006607
0.00235532
0.0024428521
0.00014559138
0.00014554588
0.0001454989
0.00014545048
0.0001454006
0.00014534921
0.00014529626
0.00014524168
0.00014518542
0.00014512739
0.00014506751
0.00014500567
0.00014494179
0.00014487575
0.00014480747
0.00014473685
0.00014466379
0.00014458821
0.00014451
0.00014442905
0.00014434527
0.00014425852
0.00014416867
0.00014407554
0.00014397895
0.00014387871
0.00014377458
0.00014366633
0.0001435537
0.00014343641
0.00014331417
0.00014318665
0.00014305355
0.00014291449
0.00014276913
0.00014261709
0.00014245796
0.00014229138
0.00014211694
0.00014193427
0.000141743
0.00014154282
0.00014133341
0.00014111453
0.00014088598
0.00014064764
0.00014039945
0.00014014146
0.00013987382
0.00013959672
0.00013931064
0.00013901606
0.00013871362
0.00013840453
0.00013808967
0.00013777056
0.0001374496
0.00013712841
0.00013681053
0.00013649983
0.00013620175
0.00013592184
0.00013566821
0.00013545326
0.00013528982
0.0001351965
0.00013520376
0.00013534925
0.00013568766
0.00013630253
0.00013730869
0.0001388984
0.0001413719
0.00014518917
0.0001511665
0.00016053814
0.0001754279
0.00019888822
0.00023462827
0.0002863511
0.00035641284
0.00044440382
0.00054707044
0.00065969884
0.00077774988
0.00089771614
0.0010171512
0.0011344029
0.0012483828
0.0013584028
0.0014640525
0.0015651122
0.0016614964
0.0017532132
0.0018403188
0.0019230178
0.0020010344
0.0020766216
0.0021401033
0.0022420718
0.00014565813
0.00014561324
0.00014556692
0.00014551919
0.00014547002
0.00014541937
0.00014536719
0.00014531341
0.00014525796
0.00014520078
0.00014514177
0.00014508084
0.0001450179
0.00014495285
0.0001448856
0.00014481605
0.00014474411
0.00014466969
0.00014459271
0.00014451309
0.00014443072
0.00014434552
0.00014425736
0.00014416613
0.00014407169
0.00014397387
0.00014387251
0.00014376743
0.00014365841
0.00014354523
0.00014342765
0.00014330542
0.00014317826
0.00014304586
0.00014290792
0.0001427641
0.00014261404
0.00014245739
0.00014229378
0.00014212283
0.00014194419
0.00014175749
0.00014156238
0.00014135856
0.00014114574
0.00014092366
0.00014069213
0.00014045101
0.00014020023
0.00013993979
0.00013966979
0.00013939043
0.00013910199
0.000138805
0.00013850004
0.00013818787
0.00013786973
0.00013754677
0.00013722076
0.00013689389
0.00013656914
0.00013624978
0.00013594006
0.00013564611
0.00013537473
0.00013513661
0.0001349427
0.00013480959
0.0001347617
0.00013483251
0.00013506497
0.00013552435
0.00013630957
0.00013756038
0.00013951178
0.00014250723
0.00014713863
0.00015434222
0.00016564683
0.00018343703
0.00021094589
0.0002518849
0.00030949229
0.00038498091
0.00047670574
0.0005808178
0.00069280407
0.00080874074
0.0009257054
0.0010416546
0.0011552
0.0012654269
0.0013717575
0.0014738499
0.0015715132
0.0016647788
0.0017532124
0.0018392097
0.0019117103
0.0020286787
0.00014572669
0.00014568246
0.00014563682
0.0001455898
0.00014554138
0.0001454915
0.00014544011
0.00014538715
0.00014533255
0.00014527624
0.00014521814
0.00014515815
0.0001450962
0.00014503217
0.00014496599
0.00014489755
0.00014482677
0.00014475357
0.00014467786
0.00014459956
0.0001445186
0.00014443487
0.00014434829
0.00014425877
0.00014416618
0.00014407041
0.00014397131
0.00014386875
0.00014376256
0.00014365257
0.00014353858
0.00014342037
0.00014329773
0.00014317041
0.00014303813
0.00014290061
0.00014275753
0.00014260858
0.00014245343
0.00014229172
0.0001421231
0.00014194723
0.00014176375
0.00014157232
0.0001413726
0.0001411643
0.00014094713
0.00014072084
0.00014048524
0.00014024017
0.00013998553
0.00013972131
0.00013944756
0.00013916445
0.00013887223
0.00013857128
0.0001382622
0.00013794567
0.00013762266
0.00013729439
0.00013696253
0.00013662904
0.00013629635
0.0001359678
0.00013564725
0.00013534027
0.00013505298
0.00013479476
0.00013457576
0.00013441132
0.00013432088
0.00013433389
0.00013448934
0.00013483969
0.00013546693
0.00013648457
0.00013807821
0.00014052792
0.0001442822
0.0001500682
0.00015905818
0.00017314281
0.0001950347
0.00022818234
0.00027612842
0.00034112998
0.00042293494
0.00051874938
0.00062442673
0.00073588047
0.00084983579
0.00096390954
0.0010764404
0.0011863035
0.001292749
0.0013954134
0.0014935379
0.0015895577
0.0016708851
0.0018029905
0.00014579675
0.0001457532
0.00014570826
0.00014566198
0.00014561431
0.00014556522
0.00014551465
0.00014546253
0.0001454088
0.00014535339
0.00014529622
0.00014523721
0.00014517626
0.00014511329
0.0001450482
0.00014498092
0.00014491134
0.00014483938
0.00014476498
0.00014468803
0.00014460848
0.00014452623
0.0001444412
0.0001443533
0.00014426245
0.00014416853
0.00014407144
0.00014397105
0.00014386724
0.00014375986
0.00014364877
0.00014353378
0.00014341471
0.00014329136
0.0001431635
0.00014303089
0.00014289326
0.00014275033
0.00014260181
0.00014244739
0.00014228674
0.00014211954
0.00014194544
0.00014176411
0.00014157521
0.00014137841
0.00014117339
0.00014095984
0.0001407375
0.00014050611
0.00014026547
0.00014001541
0.00013975582
0.00013948666
0.00013920796
0.00013891984
0.00013862252
0.00013831635
0.00013800181
0.00013767955
0.00013735051
0.00013701583
0.00013667694
0.00013633575
0.00013599452
0.00013565639
0.00013532497
0.00013500532
0.00013470326
0.00013442674
0.00013418661
0.0001339953
0.00013387094
0.00013383993
0.00013393608
0.00013420507
0.00013471647
0.00013556983
0.00013691393
0.0001389808
0.00014213419
0.00014696467
0.00015442163
0.0001660269
0.00018406916
0.00021165741
0.00025232165
0.00030889712
0.0003821854
0.00047041221
0.00056998162
0.00067685544
0.00078754512
0.00089940248
0.0010105187
0.0011196875
0.0012254907
0.0013301826
0.0014194446
0.0015660594
0.00014586799
0.00014582513
0.00014578092
0.00014573538
0.0001456885
0.00014564021
0.00014559046
0.0001455392
0.00014548636
0.00014543187
0.00014537566
0.00014531763
0.00014525772
0.00014519582
0.00014513186
0.00014506574
0.00014499738
0.0001449267
0.00014485362
0.00014477805
0.00014469993
0.00014461917
0.00014453569
0.00014444941
0.00014436025
0.00014426811
0.0001441729
0.00014407451
0.00014397284
0.00014386776
0.00014375916
0.00014364688
0.00014353078
0.00014341068
0.00014328641
0.00014315774
0.00014302447
0.00014288634
0.00014274311
0.00014259449
0.00014244021
0.00014227997
0.00014211345
0.00014194033
0.0001417603
0.00014157301
0.00014137815
0.00014117538
0.0001409644
0.00014074492
0.00014051665
0.00014027935
0.0001400328
0.00013977683
0.00013951131
0.00013923619
0.00013895147
0.00013865723
0.00013835367
0.00013804109
0.00013771994
0.00013739086
0.00013705466
0.00013671243
0.00013636551
0.00013601572
0.00013566525
0.000135317
0.00013497447
0.00013464211
0.00013432598
0.00013403304
0.00013377379
0.00013355961
0.0001334071
0.00013334038
0.00013338965
0.00013359686
0.00013402204
0.00013475256
0.00013591702
0.00013771387
0.000140451
0.00014462674
0.00015103526
0.00016094842
0.00017633239
0.00019997147
0.00023524462
0.00028525645
0.00035153206
0.00043315836
0.0005271373
0.00062962162
0.0007370157
0.00084660292
0.00095570718
0.001065968
0.0011610117
0.0013201514
0.00014594009
0.00014589795
0.00014585447
0.0001458097
0.0001457636
0.00014571613
0.00014566723
0.00014561684
0.0001455649
0.00014551134
0.00014545609
0.00014539907
0.0001453402
0.0001452794
0.00014521657
0.00014515164
0.00014508451
0.00014501512
0.00014494338
0.00014486921
0.00014479254
0.00014471328
0.00014463136
0.00014454671
0.00014445923
0.00014436884
0.00014427547
0.000144179
0.00014407935
0.00014397641
0.00014387008
0.00014376023
0.00014364673
0.00014352944
0.00014340821
0.00014328286
0.0001431532
0.00014301902
0.00014288011
0.00014273623
0.00014258712
0.00014243254
0.00014227218
0.00014210577
0.00014193301
0.00014175358
0.00014156716
0.00014137344
0.00014117209
0.00014096281
0.00014074528
0.0001405192
0.00014028431
0.00014004034
0.00013978709
0.00013952437
0.00013925204
0.00013897002
0.0001386783
0.00013837695
0.00013806612
0.00013774611
0.00013741732
0.00013708034
0.00013673594
0.00013638515
0.00013602928
0.00013567006
0.00013530962
0.00013495061
0.00013459656
0.00013425164
0.00013392172
0.00013361343
0.00013333672
0.00013310224
0.00013292582
0.00013282933
0.00013284109
0.00013299918
0.00013335817
0.00013399669
0.00013503007
0.00013663488
0.00013908205
0.00014280223
0.00014848354
0.00015723169
0.00017077347
0.00019161969
0.00022295947
0.00026798606
0.00032868477
0.0004048117
0.00049389693
0.00059248787
0.00069633441
0.00080590668
0.00090230981
0.0010695735
0.00014601278
0.00014597136
0.00014592863
0.00014588463
0.00014583933
0.00014579268
0.00014574463
0.00014569512
0.00014564409
0.00014559148
0.00014553721
0.0001454812
0.00014542339
0.00014536368
0.000145302
0.00014523826
0.00014517238
0.00014510428
0.00014503389
0.00014496113
0.00014488591
0.00014480817
0.00014472782
0.00014464479
0.000144559
0.00014447037
0.00014437881
0.00014428423
0.00014418655
0.00014408567
0.0001439815
0.00014387392
0.00014376283
0.00014364809
0.00014352958
0.00014340715
0.00014328062
0.00014314983
0.00014301458
0.00014287468
0.00014272989
0.00014258
0.00014242476
0.0001422639
0.00014209716
0.00014192425
0.00014174487
0.00014155873
0.00014136551
0.00014116489
0.00014095657
0.00014074023
0.00014051556
0.00014028228
0.00014004011
0.00013978879
0.0001395281
0.00013925784
0.00013897788
0.00013868811
0.0001383885
0.00013807912
0.00013776009
0.00013743169
0.00013709428
0.00013674842