/*--------------------------------*- C++ -*----------------------------------*\
  =========                 |
  \\      /  F ield         | OpenFOAM: The Open Source CFD Toolbox
   \\    /   O peration     | Website:  https://openfoam.org
    \\  /    A nd           | Version:  12
     \\/     M anipulation  |
\*---------------------------------------------------------------------------*/
FoamFile
{
    format      ascii;
    class       volScalarField;
    location    "700";
    object      nut;
}
// * * * * * * * * * * * * * * * * * * * * * * * * * * * * * * * * * * * * * //

dimensions      [0 2 -1 0 0 0 0];

internalField   nonuniform List<scalar> 
7480
(
1.2518506e-06
1.5083179e-06
1.8289204e-06
2.2034779e-06
2.6302881e-06
3.1059494e-06
3.6227891e-06
4.1682497e-06
4.7254424e-06
5.2741405e-06
5.7927908e-06
6.262253e-06
6.667866e-06
7.0008224e-06
7.258228e-06
7.4434934e-06
7.5590124e-06
7.6379368e-06
7.6354138e-06
7.6136907e-06
7.5654844e-06
7.4980881e-06
7.4183701e-06
7.3323235e-06
7.245142e-06
7.1613455e-06
7.0848416e-06
7.0188275e-06
6.9656712e-06
6.926538e-06
6.9008693e-06
6.8861951e-06
6.8785105e-06
6.8733274e-06
6.8669779e-06
6.8574331e-06
6.8443344e-06
6.8284285e-06
6.8107857e-06
6.7922091e-06
6.7730464e-06
6.75333e-06
6.7330394e-06
6.7122778e-06
6.691273e-06
6.6702697e-06
6.649431e-06
6.6288182e-06
6.6084364e-06
6.5882841e-06
6.5683694e-06
6.5486975e-06
6.5292712e-06
6.5100866e-06
6.4911371e-06
6.4724179e-06
6.4539253e-06
6.435653e-06
6.4175939e-06
6.3997474e-06
6.382108e-06
6.3646655e-06
6.3474121e-06
6.3303425e-06
6.3134519e-06
6.2967368e-06
6.2801936e-06
6.2638178e-06
6.2476055e-06
6.2315529e-06
6.2156558e-06
6.1999105e-06
6.1843137e-06
6.1688618e-06
6.1535511e-06
6.1383784e-06
6.1233408e-06
6.1084351e-06
6.0936585e-06
6.0790081e-06
6.0644812e-06
6.0500751e-06
6.0357873e-06
6.021615e-06
6.0075557e-06
5.9936068e-06
5.9797658e-06
5.9660298e-06
5.9523962e-06
5.9388613e-06
5.9254231e-06
5.9120745e-06
5.8988182e-06
5.8856278e-06
5.8725409e-06
5.8594219e-06
5.8465328e-06
5.8330249e-06
5.8215483e-06
5.8004107e-06
2.2610549e-05
1.1616187e-05
7.2407974e-06
4.8508412e-06
3.3641371e-06
2.4036186e-06
1.791016e-06
1.4182083e-06
1.2106725e-06
1.1200024e-06
1.1192342e-06
1.1816641e-06
1.2870497e-06
1.42529e-06
1.5883134e-06
1.7692779e-06
1.9644663e-06
2.1713271e-06
2.3955229e-06
2.6462259e-06
2.9396042e-06
3.3092155e-06
3.7788996e-06
4.3160789e-06
4.9183115e-06
5.5899196e-06
6.3290395e-06
7.1353638e-06
7.9946463e-06
8.8730233e-06
9.7266491e-06
1.0511382e-05
1.1191241e-05
1.1753206e-05
1.2210338e-05
1.2589175e-05
1.2916687e-05
1.3210934e-05
1.3478086e-05
1.3716519e-05
1.39238e-05
1.4101342e-05
1.4254985e-05
1.4392133e-05
1.4518386e-05
1.4636363e-05
1.4746421e-05
1.4848278e-05
1.4942376e-05
1.5029783e-05
1.5111475e-05
1.5188012e-05
1.5259606e-05
1.5326456e-05
1.5388879e-05
1.5447201e-05
1.5501644e-05
1.5552364e-05
1.5599576e-05
1.5643578e-05
1.5684392e-05
1.5722095e-05
1.5756823e-05
1.5788717e-05
1.5817919e-05
1.5844557e-05
1.586874e-05
1.5890578e-05
1.5910175e-05
1.5927623e-05
1.5943017e-05
1.595645e-05
1.5968e-05
1.5977757e-05
1.5985806e-05
1.5992228e-05
1.5997098e-05
1.6000487e-05
1.6002465e-05
1.6003097e-05
1.6002448e-05
1.6000578e-05
1.5997546e-05
1.5993406e-05
1.5988211e-05
1.5982013e-05
1.5974858e-05
1.5966793e-05
1.5957863e-05
1.5948105e-05
1.5937562e-05
1.5926286e-05
1.5914286e-05
1.5901669e-05
1.5888303e-05
1.5874617e-05
1.5859801e-05
1.5845144e-05
1.5831242e-05
1.5802454e-05
8.9643821e-05
5.9499085e-05
4.1618316e-05
3.0487422e-05
2.2877569e-05
1.7333327e-05
1.3168465e-05
1.0019252e-05
7.6540096e-06
5.8952353e-06
4.5971336e-06
3.6369757e-06
2.9210888e-06
2.3841621e-06
1.9801805e-06
1.6751539e-06
1.4457461e-06
1.2723734e-06
1.1430332e-06
1.0486059e-06
9.8250934e-07
9.4298196e-07
9.2329847e-07
9.6425256e-07
1.0773114e-06
1.2671934e-06
1.5469643e-06
1.9070188e-06
2.3642704e-06
2.9648827e-06
3.7962762e-06
4.8336479e-06
6.0249557e-06
7.3161785e-06
8.6587896e-06
9.9816865e-06
1.1215753e-05
1.2315842e-05
1.3269351e-05
1.4092737e-05
1.4818938e-05
1.5480819e-05
1.6099524e-05
1.668155e-05
1.7224493e-05
1.7725084e-05
1.8184622e-05
1.8609321e-05
1.9006245e-05
1.938018e-05
1.9733147e-05
2.0065988e-05
2.037987e-05
2.0676541e-05
2.0957712e-05
2.1224596e-05
2.1478021e-05
2.1718746e-05
2.1947507e-05
2.2164829e-05
2.2371433e-05
2.2567919e-05
2.2754811e-05
2.293258e-05
2.3101647e-05
2.32624e-05
2.3415193e-05
2.3560356e-05
2.36982e-05
2.3829015e-05
2.3953078e-05
2.4070656e-05
2.4182e-05
2.4287352e-05
2.4386948e-05
2.4481014e-05
2.4569765e-05
2.4653408e-05
2.4732146e-05
2.4806169e-05
2.4875665e-05
2.4940811e-05
2.5001781e-05
2.5058738e-05
2.5111842e-05
2.5161245e-05
2.5207094e-05
2.5249532e-05
2.5288694e-05
2.532473e-05
2.5357754e-05
2.5387906e-05
2.5415257e-05
2.5440049e-05
2.5462102e-05
2.548228e-05
2.549895e-05
2.551627e-05
2.5526145e-05
2.5541948e-05
0.00012362197
0.00010763182
9.0525619e-05
7.5652068e-05
6.3366411e-05
5.322708e-05
4.4771044e-05
3.7664788e-05
3.1686238e-05
2.6677307e-05
2.2508416e-05
1.9056729e-05
1.6205405e-05
1.3851347e-05
1.1907908e-05
1.0301674e-05
8.9732495e-06
7.8709002e-06
6.9528397e-06
6.1834335e-06
5.5326886e-06
4.9734963e-06
4.4819655e-06
4.0407485e-06
3.6367423e-06
3.2621177e-06
2.9123139e-06
2.5817544e-06
2.2768366e-06
2.0111664e-06
1.8001932e-06
1.6718453e-06
1.729031e-06
2.0047288e-06
2.4615728e-06
3.1353785e-06
4.1067896e-06
5.388443e-06
6.8612819e-06
8.443071e-06
1.0050222e-05
1.1592065e-05
1.3006774e-05
1.4272598e-05
1.5404327e-05
1.6436561e-05
1.7402653e-05
1.8321257e-05
1.9195441e-05
2.0021304e-05
2.0797087e-05
2.1526543e-05
2.2216332e-05
2.2871999e-05
2.3496411e-05
2.4090963e-05
2.4657215e-05
2.5197248e-05
2.5713055e-05
2.620607e-05
2.6677473e-05
2.7128417e-05
2.7560025e-05
2.7973296e-05
2.8369098e-05
2.8748225e-05
2.911141e-05
2.9459323e-05
2.9792586e-05
3.0111776e-05
3.0417437e-05
3.0710084e-05
3.0990201e-05
3.1258247e-05
3.1514663e-05
3.1759868e-05
3.1994265e-05
3.2218241e-05
3.243217e-05
3.263641e-05
3.2831306e-05
3.3017193e-05
3.319439e-05
3.3363208e-05
3.3523945e-05
3.3676888e-05
3.3822317e-05
3.3960501e-05
3.40917e-05
3.4216178e-05
3.4334172e-05
3.4445944e-05
3.4551662e-05
3.4651714e-05
3.4745931e-05
3.4835554e-05
3.4918133e-05
3.5001442e-05
3.5063337e-05
3.517263e-05
0.00013172268
0.00012693141
0.00011913799
0.00010974064
9.9949812e-05
9.044318e-05
8.1511611e-05
7.3252013e-05
6.5684619e-05
5.8804355e-05
5.2596576e-05
4.7036539e-05
4.2087595e-05
3.7704128e-05
3.3836637e-05
3.0434425e-05
2.7448241e-05
2.4830421e-05
2.2535712e-05
2.0522841e-05
1.8754208e-05
1.7194134e-05
1.5809681e-05
1.457015e-05
1.3447572e-05
1.241563e-05
1.1449876e-05
1.0527006e-05
9.6216747e-06
8.722673e-06
7.7934835e-06
6.8661969e-06
5.9266312e-06
5.0437256e-06
4.2372441e-06
3.5517975e-06
3.0206204e-06
2.6677134e-06
2.6560106e-06
2.9438096e-06
3.5268998e-06
4.4579796e-06
5.784619e-06
7.3627526e-06
9.0923446e-06
1.0867216e-05
1.2587635e-05
1.4192221e-05
1.5665197e-05
1.7025835e-05
1.8305904e-05
1.9529136e-05
2.0703357e-05
2.1826143e-05
2.2894872e-05
2.3911901e-05
2.488287e-05
2.5812722e-05
2.6704152e-05
2.7558713e-05
2.8378202e-05
2.9164762e-05
2.9920327e-05
3.0646441e-05
3.1344457e-05
3.2015679e-05
3.2661315e-05
3.3282445e-05
3.3880055e-05
3.4455066e-05
3.5008338e-05
3.5540674e-05
3.6052827e-05
3.6545503e-05
3.7019374e-05
3.7475078e-05
3.7913225e-05
3.83344e-05
3.8739165e-05
3.912806e-05
3.9501606e-05
3.9860302e-05
4.0204633e-05
4.0535066e-05
4.0852053e-05
4.115603e-05
4.1447421e-05
4.1726638e-05
4.1994079e-05
4.225014e-05
4.2495193e-05
4.2729632e-05
4.2953745e-05
4.3168067e-05
4.3372471e-05
4.3568587e-05
4.3752965e-05
4.3938216e-05
4.4081841e-05
4.4336735e-05
0.0001337977
0.00013256514
0.00012998416
0.00012597285
0.00012079601
0.00011483909
0.00010844894
0.00010188428
9.5324369e-05
8.889295e-05
8.2678081e-05
7.6743269e-05
7.113215e-05
6.5871539e-05
6.0973994e-05
5.644091e-05
5.2266561e-05
4.8438329e-05
4.4938855e-05
4.1747553e-05
3.8842013e-05
3.6198315e-05
3.3791785e-05
3.1597032e-05
2.9588371e-05
2.7739534e-05
2.6025271e-05
2.4419788e-05
2.2896166e-05
2.1433752e-05
2.0002618e-05
1.8577358e-05
1.7129474e-05
1.5654511e-05
1.4115275e-05
1.2571173e-05
1.098124e-05
9.3924243e-06
7.8878582e-06
6.5298421e-06
5.3764341e-06
4.4894632e-06
3.8720523e-06
3.7093082e-06
3.931015e-06
4.5464556e-06
5.6184694e-06
7.0917025e-06
8.8165605e-06
1.0687019e-05
1.2582604e-05
1.4415671e-05
1.6145356e-05
1.7773428e-05
1.932298e-05
2.0814763e-05
2.2256015e-05
2.3644382e-05
2.4977481e-05
2.6257428e-05
2.7488767e-05
2.8675086e-05
2.9818348e-05
3.0920129e-05
3.1982337e-05
3.3006929e-05
3.3995556e-05
3.4949639e-05
3.5870527e-05
3.6759503e-05
3.7617745e-05
3.8446338e-05
3.9246302e-05
4.0018595e-05
4.0764118e-05
4.1483726e-05
4.2178234e-05
4.2848421e-05
4.3495032e-05
4.4118785e-05
4.4720368e-05
4.5300446e-05
4.585966e-05
4.6398631e-05
4.691796e-05
4.741823e-05
4.7900007e-05
4.8363845e-05
4.8810277e-05
4.9239836e-05
4.9653025e-05
5.0050373e-05
5.0432292e-05
5.0799464e-05
5.1151807e-05
5.149138e-05
5.1813496e-05
5.2136881e-05
5.2392607e-05
5.2845747e-05
0.00013483137
0.00013443941
0.00013364075
0.00013222064
0.00013006571
0.00012717988
0.00012365112
0.00011960458
0.00011517003
0.00011046638
0.00010559734
0.00010065174
9.5704891e-05
9.0819265e-05
8.6045295e-05
8.1422275e-05
7.697981e-05
7.2738843e-05
6.8712829e-05
6.4908768e-05
6.1328359e-05
5.7968963e-05
5.4824417e-05
5.1885602e-05
4.9140811e-05
4.6576692e-05
4.4174976e-05
4.1917516e-05
3.9784817e-05
3.7757376e-05
3.5813193e-05
3.3928126e-05
3.2073486e-05
3.0227408e-05
2.8362252e-05
2.6464438e-05
2.4516439e-05
2.2503078e-05
2.0405443e-05
1.8272761e-05
1.6084928e-05
1.3918516e-05
1.1803927e-05
9.8543259e-06
8.122371e-06
6.700869e-06
5.6247039e-06
4.9958039e-06
4.9037495e-06
5.2756346e-06
6.163097e-06
7.5452995e-06
9.2554252e-06
1.1181952e-05
1.3193938e-05
1.5189362e-05
1.7114149e-05
1.8959553e-05
2.0740122e-05
2.246927e-05
2.4149293e-05
2.5776489e-05
2.7349201e-05
2.886965e-05
3.0340998e-05
3.1765271e-05
3.314378e-05
3.4478013e-05
3.5769653e-05
3.702023e-05
3.823109e-05
3.9403514e-05
4.0538732e-05
4.1637893e-05
4.2702079e-05
4.3732321e-05
4.4729603e-05
4.5694863e-05
4.6629002e-05
4.7532883e-05
4.840734e-05
4.9253174e-05
5.0071162e-05
5.0862057e-05
5.1626588e-05
5.2365468e-05
5.3079389e-05
5.3769028e-05
5.4435044e-05
5.507809e-05
5.569879e-05
5.6297797e-05
5.6875639e-05
5.7433136e-05
5.7970245e-05
5.8489483e-05
5.8984703e-05
5.9481913e-05
5.9880213e-05
6.0583844e-05
0.00013585327
0.00013561776
0.00013528321
0.00013475264
0.00013392007
0.00013270142
0.00013105096
0.00012896194
0.00012645785
0.00012358147
0.00012038588
0.00011692839
0.00011326681
0.00010945705
0.00010555142
0.00010159756
9.7637769e-05
9.3708686e-05
8.9841318e-05
8.6061074e-05
8.2388085e-05
7.8837675e-05
7.5420833e-05
7.2144617e-05
6.9012416e-05
6.6024672e-05
6.3177974e-05
6.0466075e-05
5.7880286e-05
5.5409987e-05
5.3042551e-05
5.0763288e-05
4.8554372e-05
4.639744e-05
4.4271968e-05
4.2161592e-05
4.0028932e-05
3.7852944e-05
3.5612659e-05
3.3301565e-05
3.0901328e-05
2.841617e-05
2.5842705e-05
2.3218099e-05
2.054295e-05
1.7886402e-05
1.5296745e-05
1.2855931e-05
1.0671637e-05
8.8230349e-06
7.386342e-06
6.4434056e-06
6.1378957e-06
6.3759507e-06
7.2168189e-06
8.5895291e-06
1.0342632e-05
1.2348745e-05
1.4471838e-05
1.6605567e-05
1.8695197e-05
2.0730259e-05
2.271814e-05
2.466264e-05
2.6560116e-05
2.8406231e-05
3.0200321e-05
3.1943975e-05
3.3638559e-05
3.52849e-05
3.6883961e-05
3.8436965e-05
3.9945105e-05
4.1409487e-05
4.2831205e-05
4.421134e-05
4.5550931e-05
4.6850984e-05
4.8112474e-05
4.9336343e-05
5.0523505e-05
5.1674847e-05
5.2791232e-05
5.3873501e-05
5.4922475e-05
5.5938955e-05
5.6923728e-05
5.7877564e-05
5.8801218e-05
5.9695439e-05
6.0560949e-05
6.13985e-05
6.2208718e-05
6.2992541e-05
6.3749951e-05
6.4483941e-05
6.5186699e-05
6.5892535e-05
6.6463587e-05
6.74691e-05
0.00013702181
0.00013680758
0.00013656941
0.00013628033
0.00013589486
0.0001353584
0.00013461778
0.00013362982
0.00013236605
0.00013081359
0.00012897353
0.00012685831
0.00012448889
0.00012189234
0.00011909958
0.00011614361
0.00011305801
0.0001098757
0.00010662809
0.00010334431
0.00010005074
9.677077e-05
9.3524704e-05
9.0329704e-05
8.7199743e-05
8.4145822e-05
8.1175772e-05
7.8294339e-05
7.550336e-05
7.2802021e-05
7.0187079e-05
6.7653043e-05
6.519184e-05
6.2793438e-05
6.0445422e-05
5.8136085e-05
5.5846106e-05
5.3555565e-05
5.1244527e-05
4.8896635e-05
4.6494125e-05
4.4020424e-05
4.1448139e-05
3.8775243e-05
3.5995684e-05
3.3099917e-05
3.0133912e-05
2.7084911e-05
2.4008148e-05
2.0956053e-05
1.7985732e-05
1.5179626e-05
1.2667124e-05
1.0540521e-05
8.872889e-06
7.8223986e-06
7.4515818e-06
7.7225819e-06
8.6762567e-06
1.0149911e-05
1.2031131e-05
1.4170499e-05
1.6425968e-05
1.8700414e-05
2.0951158e-05
2.3169687e-05
2.5354922e-05
2.7501484e-05
2.9602695e-05
3.1655172e-05
3.3658397e-05
3.5612427e-05
3.7517218e-05
3.937304e-05
4.118052e-05
4.2940386e-05
4.4653402e-05
4.6320385e-05
4.7942186e-05
4.9519658e-05
5.105366e-05
5.2545048e-05
5.3994674e-05
5.5403382e-05
5.6772008e-05
5.8101381e-05
5.9392321e-05
6.0645642e-05
6.1862145e-05
6.3042634e-05
6.418789e-05
6.5298728e-05
6.6375842e-05
6.7420254e-05
6.8431948e-05
6.9414391e-05
7.035794e-05
7.1306062e-05
7.2079435e-05
7.3437059e-05
0.00013834918
0.00013813582
0.00013791294
0.00013767704
0.00013741462
0.00013710364
0.00013671566
0.00013621922
0.0001355836
0.00013478199
0.00013379368
0.00013260504
0.0001312097
0.0001296081
0.00012780669
0.00012581697
0.0001236544
0.00012133735
0.00011888618
0.00011632227
0.00011366728
0.00011094248
0.00010816828
0.00010536381
0.00010254658
9.9732216e-05
9.693431e-05
9.4164188e-05
9.1430819e-05
8.874079e-05
8.6098377e-05
8.3505678e-05
8.096253e-05
7.8466714e-05
7.6013739e-05
7.3598052e-05
7.1210954e-05
6.8840956e-05
6.6474492e-05
6.4097614e-05
6.169555e-05
5.925359e-05
5.6751669e-05
5.4174324e-05
5.1508679e-05
4.8741641e-05
4.587185e-05
4.2876996e-05
3.9738986e-05
3.6523072e-05
3.3182423e-05
2.9778419e-05
2.6364742e-05
2.2993277e-05
1.9719695e-05
1.6666674e-05
1.3955227e-05
1.1707588e-05
9.99281e-06
9.0713861e-06
8.8351902e-06
9.3573647e-06
1.0539129e-05
1.2250813e-05
1.4347462e-05
1.6666052e-05
1.9077231e-05
2.150904e-05
2.3933889e-05
2.634101e-05
2.8720346e-05
3.1062143e-05
3.3360332e-05
3.5612138e-05
3.7815979e-05
3.9970717e-05
4.20758e-05
4.4131149e-05
4.6136926e-05
4.8093457e-05
5.0001206e-05
5.1860731e-05
5.3672656e-05
5.5437648e-05
5.7156414e-05
5.8829684e-05
6.0458206e-05
6.2042745e-05
6.3584073e-05
6.5082975e-05
6.6540229e-05
6.7956659e-05
6.9332977e-05
7.0670241e-05
7.1968404e-05
7.3231385e-05
7.4447561e-05
7.5670282e-05
7.6674666e-05
7.8433196e-05
0.00013983203
0.00013961761
0.00013939577
0.00013916883
0.00013893412
0.00013868493
0.0001384104
0.00013809569
0.00013772288
0.00013727237
0.00013672444
0.00013606082
0.00013526581
0.00013432718
0.00013323664
0.00013198998
0.00013058695
0.00012903099
0.00012732876
0.00012548963
0.00012352511
0.00012144825
0.0001192732
0.0001170146
0.00011468722
0.00011230549
0.00010988316
0.00010743302
0.00010496656
0.00010249381
0.00010002316
9.7561391e-05
9.5113539e-05
9.2682957e-05
9.0271183e-05
8.7878281e-05
8.5502394e-05
8.313941e-05
8.078289e-05
7.8424653e-05
7.6054969e-05
7.3663264e-05
7.1236255e-05
6.8759911e-05
6.6220593e-05
6.3604345e-05
6.0901092e-05
5.8095938e-05
5.5168774e-05
5.2128077e-05
4.8965371e-05
4.5644033e-05
4.2226495e-05
3.8662765e-05
3.5001062e-05
3.1290033e-05
2.758054e-05
2.3951289e-05
2.0464289e-05
1.7298694e-05
1.4566223e-05
1.2362118e-05
1.0926675e-05
1.0276475e-05
1.0442911e-05
1.1368942e-05
1.292995e-05
1.4983049e-05
1.7348604e-05
1.9874793e-05
2.2467954e-05
2.5083718e-05
2.7700369e-05
3.030158e-05
3.287398e-05
3.5408849e-05
3.7901125e-05
4.0347449e-05
4.2745456e-05
4.5093675e-05
4.7391262e-05
4.9637775e-05
5.1833068e-05
5.3977222e-05
5.6070483e-05
5.8113221e-05
6.01059e-05
6.2049059e-05
6.3943292e-05
6.5789243e-05
6.7587584e-05
6.9339051e-05
7.1044299e-05
7.2704349e-05
7.4319068e-05
7.5892778e-05
7.7411741e-05
7.8939803e-05
8.0202739e-05
8.2409258e-05
0.00014146752
0.00014125204
0.00014102933
0.00014080285
0.00014057268
0.00014033724
0.00014009319
0.0001398351
0.00013955525
0.00013924367
0.00013888856
0.00013847692
0.00013799533
0.00013743073
0.00013677113
0.00013600624
0.00013512793
0.00013413045
0.00013301063
0.00013176781
0.00013040375
0.00012892235
0.00012732945
0.00012563242
0.0001238399
0.00012196136
0.0001200068
0.00011798642
0.00011591026
0.00011378793
0.00011162838
0.00010943974
0.00010722914
0.00010500267
0.00010276524
0.0001005206
9.8271163e-05
9.6017782e-05
9.3759499e-05
9.1493564e-05
8.92155e-05
8.6919458e-05
8.4597735e-05
8.2240968e-05
7.983874e-05
7.7379552e-05
7.4852606e-05
7.2246039e-05
6.9543948e-05
6.6737564e-05
6.3819722e-05
6.0768485e-05
5.7590838e-05
5.4271308e-05
5.0788932e-05
4.720098e-05
4.3445551e-05
3.9572858e-05
3.561037e-05
3.1620158e-05
2.768675e-05
2.3867812e-05
2.0323697e-05
1.720465e-05
1.4624776e-05
1.2817239e-05
1.1856302e-05
1.177459e-05
1.2521328e-05
1.3994207e-05
1.6041448e-05
1.8469604e-05
2.111306e-05
2.386463e-05
2.6667364e-05
2.9489459e-05
3.2308122e-05
3.5106365e-05
3.7872976e-05
4.0600744e-05
4.3284643e-05
4.5921142e-05
4.8507866e-05
5.1043231e-05
5.3526209e-05
5.5956193e-05
5.8332885e-05
6.0656223e-05
6.2926325e-05
6.5143453e-05
6.7307971e-05
6.9420365e-05
7.1481098e-05
7.3491031e-05
7.5449854e-05
7.736221e-05
7.9212102e-05
8.1074383e-05
8.2621956e-05
8.5321484e-05
0.00014325348
0.00014303694
0.00014281316
0.00014258576
0.00014235542
0.00014212185
0.00014188416
0.00014164067
0.00014138863
0.00014112401
0.00014084135
0.00014053381
0.00014019335
0.00013981101
0.00013937729
0.00013888265
0.0001383179
0.00013767463
0.00013694557
0.00013612485
0.00013520819
0.00013419297
0.0001330783
0.00013186491
0.00013055505
0.00012915231
0.00012766141
0.00012608797
0.00012443826
0.00012271894
0.00012093682
0.00011909868
0.00011721107
0.00011528019
0.00011331174
0.0001113108
0.00010928173
0.00010722793
0.00010515166
0.00010305387
0.00010093407
9.8790431e-05
9.6619661e-05
9.4416891e-05
9.2175838e-05
8.9888793e-05
8.7547339e-05
8.5142345e-05
8.2662297e-05
8.0096309e-05
7.7435296e-05
7.4664528e-05
7.1776123e-05
6.8759608e-05
6.5597108e-05
6.2298722e-05
5.8842095e-05
5.5209899e-05
5.1446227e-05
4.7522462e-05
4.3458656e-05
3.9279219e-05
3.5039672e-05
3.0832672e-05
2.6734529e-05
2.2897568e-05
1.9490954e-05
1.6635736e-05
1.4597979e-05
1.3442911e-05
1.3229759e-05
1.3901455e-05
1.5380444e-05
1.7488814e-05
2.0020879e-05
2.2804648e-05
2.5727059e-05
2.8723398e-05
3.1754122e-05
3.4791219e-05
3.7814827e-05
4.0811669e-05
4.3772706e-05
4.6691519e-05
4.9563569e-05
5.2385671e-05
5.5155585e-05
5.7871765e-05
6.0533179e-05
6.3139187e-05
6.5689442e-05
6.8183852e-05
7.0622431e-05
7.3005662e-05
7.5332893e-05
7.7608939e-05
7.9815365e-05
8.2038454e-05
8.3894876e-05
8.7129908e-05
0.00014518791
0.00014497023
0.0001447453
0.00014451677
0.00014428539
0.00014405116
0.00014381384
0.00014357289
0.00014332743
0.00014307604
0.0001428166
0.00014254617
0.00014226089
0.00014195597
0.00014162578
0.00014126398
0.0001408637
0.00014041786
0.00013991937
0.00013936146
0.00013873792
0.00013804331
0.00013727313
0.00013642401
0.00013549368
0.00013448108
0.00013338626
0.00013221031
0.00013095527
0.00012962396
0.00012821985
0.00012674688
0.00012520933
0.00012361166
0.00012195845
0.00012025416
0.0001185031
0.00011670921
0.00011487585
0.00011300568
0.00011110045
0.00010916091
0.00010718673
0.00010517638
0.00010312706
0.00010103463
9.8893811e-05
9.669843e-05
9.4440732e-05
9.2111978e-05
8.9703672e-05
8.7204985e-05
8.4605986e-05
8.1896721e-05
7.9062786e-05
7.6098662e-05
7.2992113e-05
6.9726475e-05
6.6304667e-05
6.2714165e-05
5.8947478e-05
5.5006387e-05
5.0902587e-05
4.6650341e-05
4.2263584e-05
3.7800748e-05
3.3356188e-05
2.9018865e-05
2.496034e-05
2.1345872e-05
1.8322055e-05
1.6192919e-05
1.4974763e-05
1.4752266e-05
1.5485814e-05
1.7076562e-05
1.9322416e-05
2.2010208e-05
2.4968109e-05
2.8083152e-05
3.1286915e-05
3.4534853e-05
3.7795642e-05
4.1047608e-05
4.4275975e-05
4.7470363e-05
5.0623342e-05
5.3729589e-05
5.6785268e-05
5.9787616e-05
6.2734657e-05
6.5625027e-05
6.8457752e-05
7.1232513e-05
7.3947986e-05
7.6608898e-05
7.9194088e-05
8.1801598e-05
8.3988612e-05
8.7798414e-05
0.00014726876
0.00014704985
0.00014682367
0.0001465939
0.00014636129
0.00014612589
0.00014588759
0.00014564617
0.00014540128
0.00014515244
0.00014489889
0.00014463951
0.00014437272
0.00014409637
0.00014380772
0.00014350337
0.0001431793
0.00014283092
0.0001424532
0.0001420408
0.00014158824
0.0001410901
0.00014054117
0.00013993665
0.00013927229
0.00013854449
0.00013775041
0.00013688799
0.00013595595
0.00013495382
0.00013388182
0.00013274086
0.00013153241
0.00013025845
0.0001289214
0.00012752398
0.00012606912
0.00012455984
0.00012299908
0.00012138957
0.00011973363
0.00011803306
0.00011628902
0.00011450188
0.00011267113
0.0001107952
0.0001088715
0.0001068965
0.00010486548
0.00010277254
0.00010061119
9.8373583e-05
9.6051232e-05
9.3635409e-05
9.1114926e-05
8.8480636e-05
8.5722304e-05
8.2825877e-05
7.9783056e-05
7.6582587e-05
7.3215473e-05
6.9668191e-05
6.5933716e-05
6.2015459e-05
5.7904371e-05
5.3609186e-05
4.9167385e-05
4.4574382e-05
3.9901234e-05
3.5245527e-05
3.0704317e-05
2.6494039e-05
2.2750305e-05
1.969618e-05
1.7570052e-05
1.6436675e-05
1.6349659e-05
1.728855e-05
1.9099529e-05
2.1561972e-05
2.4461107e-05
2.7631892e-05
3.0966151e-05
3.4395058e-05
3.7871979e-05
4.1364417e-05
4.4849986e-05
4.8313071e-05
5.1742526e-05
5.5130308e-05
5.8470572e-05
6.1759048e-05
6.4992568e-05
6.8169107e-05
7.1285979e-05
7.4347293e-05
7.732868e-05
8.0340093e-05
8.2876043e-05
8.7295535e-05
0.00014949391
0.00014927366
0.00014904611
0.00014881499
0.00014858104
0.00014834432
0.00014810473
0.00014786211
0.00014761628
0.00014736702
0.000147114
0.00014685682
0.00014659486
0.00014632728
0.00014605291
0.00014577022
0.00014547721
0.00014517145
0.00014485
0.00014450952
0.00014414624
0.00014375611
0.00014333487
0.00014287816
0.00014238168
0.0001418413
0.00014125313
0.0001406137
0.00013991995
0.00013916935
0.00013835988
0.0001374901
0.00013655912
0.00013556658
0.00013451265
0.00013339798
0.00013222362
0.00013099096
0.00012970163
0.00012835739
0.00012695998
0.00012551103
0.00012401191
0.00012246365
0.00012086673
0.00011922103
0.00011752567
0.00011577901
0.00011397853
0.00011212072
0.00011020126
0.0001082148
0.00010615506
0.00010401517
0.00010178673
9.9461153e-05
9.7029459e-05
9.4480429e-05
9.1803745e-05
8.8988282e-05
8.6023178e-05
8.2895101e-05
7.9592802e-05
7.610746e-05
7.2426058e-05
6.8537919e-05
6.4452196e-05
6.0158991e-05
5.5667451e-05
5.1015869e-05
4.621559e-05
4.1347243e-05
3.6499757e-05
3.1812481e-05
2.7500041e-05
2.3721744e-05
2.0778453e-05
1.8788337e-05
1.7880627e-05
1.8101078e-05
1.9375047e-05
2.1504108e-05
2.4254167e-05
2.7416064e-05
3.0837224e-05
3.4417284e-05
3.8089616e-05
4.1808254e-05
4.5541348e-05
4.9266727e-05
5.296865e-05
5.6635768e-05
6.0259782e-05
6.3834847e-05
6.7355373e-05
7.0823728e-05
7.4211374e-05
7.764002e-05
8.0538281e-05
8.5596154e-05
0.00015186112
0.00015163942
0.00015141039
0.0001511778
0.00015094239
0.00015070423
0.00015046321
0.0001502192
0.00014997203
0.00014972155
0.00014946757
0.0001492099
0.00014894829
0.00014868239
0.00014841176
0.00014813576
0.00014785355
0.00014756401
0.00014726569
0.0001469568
0.0001466352
0.00014629838
0.00014594351
0.00014556746
0.00014516688
0.0001447383
0.00014427815
0.00014378288
0.00014324905
0.0001426734
0.00014205293
0.0001413849
0.00014066699
0.00013989722
0.00013907407
0.00013819644
0.00013726366
0.00013627546
0.00013523191
0.0001341334
0.00013298052
0.000131774
0.00013051463
0.00012920314
0.00012784006
0.00012642567
0.00012495983
0.00012344191
0.0001218707
0.00012024428
0.00011856005
0.00011681459
0.00011500362
0.00011312217
0.00011116417
0.00010912281
0.00010699069
0.00010475905
0.00010241859
9.9959289e-05
9.7370697e-05
9.4640843e-05
9.175747e-05
8.8708937e-05
8.5481703e-05
8.2063088e-05
7.8442886e-05
7.4608877e-05
7.0552624e-05
6.6279464e-05
6.1784668e-05
5.708507e-05
5.2212894e-05
4.7208056e-05
4.2147446e-05
3.7132297e-05
3.2363083e-05
2.8022939e-05
2.4364961e-05
2.1620401e-05
1.993547e-05
1.9432396e-05
2.0119592e-05
2.1842388e-05
2.4370494e-05
2.7465371e-05
3.093259e-05
3.4636116e-05
3.8484986e-05
4.2417053e-05
4.6389254e-05
5.0371615e-05
5.434293e-05
5.8288203e-05
6.2195201e-05
6.6061949e-05
6.9853688e-05
7.3703011e-05
7.6969208e-05
8.2684654e-05
0.00015436806
0.00015414478
0.00015391414
0.00015367995
0.00015344296
0.00015320324
0.00015296068
0.00015271514
0.00015246647
0.00015221454
0.00015195918
0.00015170026
0.00015143763
0.00015117114
0.00015090058
0.00015062572
0.00015034622
0.00015006162
0.0001497713
0.00014947443
0.00014916994
0.00014885653
0.00014853257
0.00014819617
0.00014784515
0.00014747709
0.00014708932
0.00014667903
0.00014624324
0.00014577893
0.00014528307
0.0001447527
0.00014418495
0.00014357716
0.0001429269
0.00014223201
0.00014149064
0.00014070128
0.00013986271
0.00013897405
0.00013803468
0.00013704424
0.00013600256
0.00013490961
0.00013376539
0.00013256988
0.00013132294
0.00013002419
0.00012867295
0.00012726813
0.00012580814
0.00012429084
0.00012271342
0.00012107246
0.00011936372
0.00011758219
0.00011572216
0.00011377697
0.00011173911
0.00010960025
0.00010735137
0.00010498229
0.00010248194
9.9838825e-05
9.7040255e-05
9.4072805e-05
9.0923177e-05
8.7578841e-05
8.4023302e-05
8.0247033e-05
7.6237906e-05
7.1991664e-05
6.750917e-05
6.2795616e-05
5.7870373e-05
5.2764484e-05
4.7557815e-05
4.2316607e-05
3.7197644e-05
3.2401218e-05
2.8162907e-05
2.4762166e-05
2.2369585e-05
2.1178411e-05
2.1272034e-05
2.2552139e-05
2.4809951e-05
2.779314e-05
3.1272681e-05
3.5076526e-05
3.9086484e-05
4.3221863e-05
4.7426831e-05
5.1662783e-05
5.5901129e-05
6.0129018e-05
6.4300689e-05
6.8556989e-05
7.2183776e-05
7.8560508e-05
0.00015701226
0.00015678726
0.00015655488
0.00015631895
0.00015608025
0.00015583883
0.0001555946
0.00015534742
0.00015509714
0.00015484361
0.00015458671
0.00015432628
0.00015406223
0.00015379444
0.00015352279
0.00015324718
0.00015296747
0.00015268349
0.00015239498
0.0001521016
0.00015180291
0.00015149827
0.0001511869
0.00015086778
0.0001505397
0.00015020118
0.00014985054
0.00014948583
0.00014910491
0.00014870547
0.00014828502
0.00014784097
0.00014737068
0.0001468715
0.00014634084
0.00014577619
0.00014517518
0.00014453565
0.00014385561
0.00014313331
0.00014236723
0.00014155609
0.0001406988
0.00013979449
0.00013884244
0.00013784203
0.00013679266
0.00013569374
0.00013454457
0.00013334423
0.00013209159
0.00013078516
0.000129423
0.00012800274
0.00012652141
0.00012497543
0.00012336057
0.00012167186
0.00011990357
0.00011804913
0.00011610122
0.00011405158
0.00011189095
0.00010960927
0.00010719545
0.00010463734
0.00010192192
9.9036113e-05
9.5964352e-05
9.2692423e-05
8.9206192e-05
8.5489777e-05
8.1531276e-05
7.7323831e-05
7.2861501e-05
6.814241e-05
6.3188362e-05
5.8017745e-05
5.268386e-05
4.7278193e-05
4.1897401e-05
3.6743657e-05
3.2030232e-05
2.8061648e-05
2.5045209e-05
2.3227471e-05
2.2753779e-05
2.3587709e-05
2.5553551e-05
2.8398325e-05
3.1867388e-05
3.5755384e-05
3.9915901e-05
4.4248427e-05
4.8681885e-05
5.3175231e-05
5.7659688e-05
6.227706e-05
6.6233777e-05
7.3248488e-05
0.00015979111
0.00015956425
0.00015932997
0.00015909216
0.0001588516
0.00015860835
0.00015836232
0.00015811337
0.00015786135
0.00015760611
0.00015734753
0.00015708546
0.00015681981
0.00015655047
0.00015627735
0.00015600037
0.00015571947
0.00015543457
0.00015514557
0.00015485234
0.00015455471
0.0001542524
0.00015394507
0.00015363226
0.00015331333
0.00015298751
0.00015265384
0.00015231116
0.0001519581
0.0001515931
0.00015121439
0.00015082006
0.000150408
0.00014997603
0.00014952187
0.00014904319
0.00014853767
0.00014800304
0.00014743708
0.00014683766
0.00014620281
0.00014553068
0.00014481958
0.00014406799
0.00014327455
0.00014243803
0.00014155732
0.00014063136
0.00013965914
0.00013863961
0.00013757161
0.00013645386
0.00013528482
0.00013406266
0.0001327852
0.00013144978
0.00013005329
0.00012859205
0.00012706172
0.0001254573
0.00012377308
0.00012200255
0.00012013831
0.00011817209
0.00011609466
0.00011389577
0.00011156404
0.00010908744
0.00010645227
0.00010364417
0.00010064835
9.7448225e-05
9.4029134e-05
9.0373819e-05
8.6467648e-05
8.2299023e-05
7.7861882e-05
7.3150822e-05
6.8172341e-05
6.2954922e-05
5.7529125e-05
5.1975987e-05
4.6401114e-05
4.0960538e-05
3.5863878e-05
3.1403342e-05
2.7845268e-05
2.5474785e-05
2.4482719e-05
2.4893384e-05
2.6570321e-05
2.9269276e-05
3.2718295e-05
3.668343e-05
4.0989295e-05
4.5522881e-05
5.016171e-05
5.5028565e-05
5.9239387e-05
6.681806e-05
0.00016270185
0.00016247298
0.00016223665
0.0001619968
0.00016175423
0.00016150901
0.00016126103
0.00016101017
0.00016075627
0.00016049919
0.00016023881
0.00015997498
0.00015970759
0.00015943656
0.00015916179
0.00015888321
0.00015860078
0.00015831443
0.00015802413
0.00015772981
0.00015743141
0.00015712884
0.00015682194
0.00015651051
0.00015619427
0.00015587284
0.00015554572
0.00015521228
0.00015487174
0.00015452313
0.00015416535
0.00015379709
0.0001534169
0.00015302317
0.00015261415
0.00015218799
0.00015174272
0.00015127635
0.00015078683
0.00015027209
0.00014973009
0.00014915883
0.00014855639
0.00014792091
0.00014725067
0.00014654401
0.00014579939
0.00014501538
0.00014419058
0.00014332365
0.00014241327
0.00014145805
0.00014045653
0.00013940709
0.0001383079
0.00013715688
0.00013595158
0.0001346892
0.00013336643
0.00013197947
0.00013052392
0.00012899473
0.00012738614
0.00012569157
0.00012390362
0.00012201397
0.00012001323
0.00011789111
0.00011563607
0.00011323538
0.00011067544
0.00010794101
0.00010501671
0.00010188521
9.8530638e-05
9.4933044e-05
9.107716e-05
8.6949135e-05
8.2536248e-05
7.78347e-05
7.284374e-05
6.7581901e-05
6.2085026e-05
5.641377e-05
5.0661365e-05
4.4989456e-05
3.9576019e-05
3.470452e-05
3.0683562e-05
2.7831427e-05
2.6381226e-05
2.6410901e-05
2.7823245e-05
3.0388092e-05
3.3820691e-05
3.7872003e-05
4.2301047e-05
4.7161397e-05
5.1456626e-05
5.942232e-05
0.00016574159
0.00016551055
0.000165272
0.00016502995
0.00016478521
0.00016453785
0.00016428777
0.00016403485
0.00016377892
0.00016351987
0.00016325754
0.00016299181