/*--------------------------------*- C++ -*----------------------------------*\
  =========                 |
  \\      /  F ield         | OpenFOAM: The Open Source CFD Toolbox
   \\    /   O peration     | Website:  https://openfoam.org
    \\  /    A nd           | Version:  12
     \\/     M anipulation  |
\*---------------------------------------------------------------------------*/
FoamFile
{
    format      ascii;
    class       surfaceScalarField;
    location    "700";
    object      phi;
}
// * * * * * * * * * * * * * * * * * * * * * * * * * * * * * * * * * * * * * //

dimensions      [0 3 -1 0 0 0 0];

internalField   nonuniform List<scalar> 
14782
(
0.00079744143
1.4391029e-06
-0.00079888053
0.00079529475
2.1466772e-06
0.0007925888
2.7059513e-06
0.0007893098
3.2790031e-06
0.00078539872
3.9110822e-06
0.00078077694
4.6217763e-06
0.00077539711
5.379826e-06
0.00076922041
6.1767005e-06
0.00076221832
7.0020937e-06
0.00075440511
7.81321e-06
0.00074581776
8.5873458e-06
0.00073652771
9.2900553e-06
0.00072663137
9.8963375e-06
0.00071624414
1.0387235e-05
0.00070548437
1.0759766e-05
0.00069448834
1.0996034e-05
0.00068336671
1.1121622e-05
0.00067223947
1.1127241e-05
0.00066122388
1.101559e-05
0.00065041892
1.0804962e-05
0.00063992639
1.0492529e-05
0.00062986247
1.0063925e-05
0.00062034272
9.5197452e-06
0.0006114601
8.8826174e-06
0.00060328706
8.1730394e-06
0.000595876
7.411069e-06
0.00058925566
6.6203352e-06
0.00058342931
5.8263491e-06
0.00057836483
5.0644804e-06
0.00057398623
4.3786058e-06
0.00057018451
3.8017142e-06
0.00056683173
3.3527823e-06
0.00056379653
3.0352009e-06
0.00056096766
2.8288654e-06
0.00055826746
2.7002035e-06
0.00055565152
2.6159386e-06
0.00055310004
2.5514759e-06
0.00055060564
2.4944065e-06
0.00054816098
2.4446583e-06
0.00054575501
2.4059725e-06
0.00054337531
2.3797006e-06
0.00054101268
2.3626269e-06
0.00053866589
2.3467853e-06
0.00053633985
2.3260452e-06
0.00053404068
2.2991731e-06
0.00053177242
2.268252e-06
0.00052953634
2.2360802e-06
0.00052733258
2.2037619e-06
0.00052516095
2.1716291e-06
0.00052302163
2.1393195e-06
0.00052091497
2.1066675e-06
0.00051884136
2.0736043e-06
0.00051680068
2.0406781e-06
0.00051479209
2.0085944e-06
0.00051281504
1.9770495e-06
0.00051086933
1.9457133e-06
0.0005089544
1.9149299e-06
0.00050706935
1.8850446e-06
0.00050521367
1.8556769e-06
0.00050338693
1.8267467e-06
0.00050158803
1.7988937e-06
0.00049981623
1.7718044e-06
0.00049807091
1.7453228e-06
0.00049635115
1.7197618e-06
0.00049465631
1.6948383e-06
0.00049298584
1.6704622e-06
0.00049133892
1.6469226e-06
0.00048971492
1.6239991e-06
0.00048811328
1.6016439e-06
0.00048653321
1.5800712e-06
0.00048497412
1.5590903e-06
0.00048343538
1.538733e-06
0.00048191637
1.5190176e-06
0.0004804165
1.4998658e-06
0.0004789352
1.4813036e-06
0.00047747193
1.4632701e-06
0.00047602616
1.4457706e-06
0.00047459736
1.428792e-06
0.00047318506
1.4123033e-06
0.00047178876
1.3963004e-06
0.000470408
1.3807614e-06
0.00046904233
1.3656725e-06
0.00046769131
1.3510205e-06
0.00046635451
1.3367951e-06
0.00046503152
1.3229882e-06
0.00046372193
1.3095965e-06
0.00046242531
1.2966177e-06
0.00046114124
1.2840645e-06
0.0004598693
1.2719421e-06
0.00045860899
1.2603131e-06
0.00045735984
1.2491458e-06
0.00045612109
1.2387572e-06
0.00045489228
1.2288058e-06
0.00045367131
1.2209676e-06
0.00045245892
1.212396e-06
0.00045124532
1.2135956e-06
0.00045004114
1.2041821e-06
0.00044877192
1.2692216e-06
0.00044766137
1.110546e-06
1.5734531e-06
0.00082624223
1.5207267e-06
-0.00082632385
0.00082616269
2.2262092e-06
0.00082604185
2.8267957e-06
0.00082589139
3.4294678e-06
0.00082570309
4.0993808e-06
0.00082546879
4.8560699e-06
0.00082516402
5.6845957e-06
0.00082475236
6.5883593e-06
0.00082419467
7.5597865e-06
0.00082343962
8.5682596e-06
0.00082242948
9.5974874e-06
0.00082110265
1.0616882e-05
0.00081939853
1.1600458e-05
0.00081726013
1.2525636e-05
0.0008146403
1.3379603e-05
0.00081149851
1.4137816e-05
0.00080780683
1.4813305e-05
0.00080354724
1.5386836e-05
0.00079871266
1.585017e-05
0.00079330149
1.6216125e-05
0.00078731114
1.6482881e-05
0.00078075419
1.6620874e-05
0.00077368793
1.6586004e-05
0.00076619515
1.6375403e-05
0.0007583634
1.6004785e-05
0.00075029846
1.5476009e-05
0.00074212254
1.4796254e-05
0.00073396765
1.3981243e-05
0.0007259751
1.3057026e-05
0.00071829895
1.2054759e-05
0.00071108716
1.1013505e-05
0.00070443543
1.0004507e-05
0.00069836623
9.1044024e-06
0.00069284198
8.353114e-06
0.00068778597
7.7562226e-06
0.00068310301
7.2988967e-06
0.00067870474
6.9497447e-06
0.00067452639
6.6727577e-06
0.00067052736
6.4436907e-06
0.00066668549
6.2478351e-06
0.00066298824
6.0769508e-06
0.00065942461
5.9262629e-06
0.00065598259
5.7887976e-06
0.00065264836
5.660275e-06
0.00064940747
5.5400721e-06
0.00064624758
5.4281365e-06
0.00064316057
5.3230885e-06
0.0006401426
5.2217361e-06
0.00063719138
5.1228453e-06
0.0006343043
5.0264046e-06
0.00063147799
4.932978e-06
0.00062870941
4.8421828e-06
0.00062599617
4.753916e-06
0.00062333616
4.6686068e-06
0.00062072765
4.5855544e-06
0.00061816914
4.5042309e-06
0.0006156589
4.4251647e-06
0.00061319513
4.3488126e-06
0.00061077633
4.2744817e-06
0.00060840117
4.2019095e-06
0.00060606808
4.1319818e-06
0.00060377578
4.0640975e-06
0.00060152315
3.9979557e-06
0.00059930881
3.9341066e-06
0.00059713155
3.8720898e-06
0.00059499031
3.8117043e-06
0.00059288382
3.7534104e-06
0.000590811
3.6968204e-06
0.00058877084
3.6418063e-06
0.0005867622
3.5887075e-06
0.0005847841
3.5371982e-06
0.00058283554
3.4872918e-06
0.00058091556
3.4389971e-06
0.00057902325
3.3921755e-06
0.0005771577
3.3468526e-06
0.00057531806
3.302907e-06
0.00057350351
3.2603234e-06
0.00057171324
3.2190621e-06
0.00056994649
3.179054e-06
0.00056820252
3.1402741e-06
0.00056648061
3.1026719e-06
0.00056478007
3.0662089e-06
0.00056310024
3.0308495e-06
0.00056144047
2.9965637e-06
0.00055980013
2.9633275e-06
0.0005581786
2.9311255e-06
0.00055657527
2.8999505e-06
0.00055498952
2.8698143e-06
0.00055342072
2.8407387e-06
0.00055186824
2.8127939e-06
0.00055033131
2.7860743e-06
0.00054880921
2.7608597e-06
0.00054730063
2.7373907e-06
0.00054580483
2.7167686e-06
0.00054431815
2.6990691e-06
0.00054284033
2.6914198e-06
0.00054135653
2.6879787e-06
0.00053988063
2.7451254e-06
0.00053826111
2.7300593e-06
3.0754291e-06
0.00085391523
1.5697068e-06
-0.00085396421
0.00085389702
2.2444215e-06
0.0008538733
2.8505113e-06
0.00085384842
3.4543533e-06
0.00085382696
4.1208411e-06
0.00085381474
4.8682814e-06
0.000853812
5.6873411e-06
0.00085382285
6.5775045e-06
0.00085385114
7.5315027e-06
0.0008538938
8.5255951e-06
0.00085394876
9.5425331e-06
0.00085400995
1.0555687e-05
0.00085406943
1.1540976e-05
0.00085411718
1.2477893e-05
0.00085414268
1.3354096e-05
0.00085412957
1.4150933e-05
0.000854066
1.4876866e-05
0.0008539325
1.5520346e-05
0.00085370612
1.6076549e-05
0.00085336278
1.6559462e-05
0.00085287095
1.6974707e-05
0.00085217296
1.7318869e-05
0.00085117111
1.7587849e-05
0.0008497612
1.7785316e-05
0.00084784675
1.791923e-05
0.0008453263
1.7996459e-05
0.00084209677
1.8025794e-05
0.00083806154
1.8016468e-05
0.00083314201
1.797656e-05
0.00082728681
1.7909958e-05
0.00082054013
1.7760177e-05
0.00081306212
1.7482525e-05
0.0008050875
1.7079019e-05
0.00079690519
1.653542e-05
0.00078880591
1.5855503e-05
0.00078104315
1.5061658e-05
0.0007738015
1.41914e-05
0.00076716044
1.3313815e-05
0.0007610924
1.2511732e-05
0.00075550895
1.1831286e-05
0.0007503044
1.1281496e-05
0.00074538715
1.0843512e-05
0.00074069635
1.0479602e-05
0.00073619817
1.015845e-05
0.00073187437
9.8638793e-06
0.00072771213
9.5903763e-06
0.00072369876
9.3364519e-06
0.0007198208
9.0997019e-06
0.00071606427
8.8793684e-06
0.00071241651
8.6741664e-06
0.00070886754
8.4819454e-06
0.0007054106
8.2991312e-06
0.00070204068
8.1238317e-06
0.00069875295
7.9563389e-06
0.00069554268
7.7958244e-06
0.00069240568
7.6412313e-06
0.00068933828
7.4925613e-06
0.00068633722
7.3498762e-06
0.00068339968
7.2120151e-06
0.0006805231
7.0784903e-06
0.00067770479
6.9502939e-06
0.00067494249
6.8263949e-06
0.00067223422
6.7062263e-06
0.00066957786
6.5904715e-06
0.00066697149
6.4784541e-06
0.0006644134
6.3698002e-06
0.00066190175
6.265056e-06
0.00065943493
6.1636445e-06
0.00065701142
6.0653179e-06
0.00065462964
5.9704809e-06
0.00065228818
5.878664e-06
0.00064998564
5.7898278e-06
0.00064772069
5.7039441e-06
0.00064549207
5.6208041e-06
0.00064329851
5.5404117e-06
0.00064113884
5.4625744e-06
0.00063901193
5.3872371e-06
0.00063691667
5.314318e-06
0.00063485203
5.2436975e-06
0.00063281698
5.1753163e-06
0.00063081057
5.1090844e-06
0.00062883185
5.0449282e-06
0.00062687992
4.9827789e-06
0.00062495391
4.9225776e-06
0.00062305296
4.8642753e-06
0.00062117625
4.8078358e-06
0.00061932296
4.7532401e-06
0.00061749229
4.7004899e-06
0.0006156834
4.6496277e-06
0.00061389548
4.6007101e-06
0.00061212756
4.5539985e-06
0.0006103788
4.5096203e-06
0.00060864749
4.4687004e-06
0.00060693321
4.4310472e-06
0.00060523074
4.4015395e-06
0.00060354275
4.3794064e-06
0.00060184526
4.3854673e-06
0.00060018502
4.4053639e-06
0.00059825809
4.6569927e-06
4.6530932e-06
0.00088245985
1.6246999e-06
-0.00088251485
0.00088244166
2.2626189e-06
0.00088242937
2.8628017e-06
0.00088241827
3.4654533e-06
0.00088241257
4.1265364e-06
0.00088241777
4.8630789e-06
0.00088243646
5.6686587e-06
0.00088247272
6.5412379e-06
0.00088252938
7.4748409e-06
0.00088260554
8.4494388e-06
0.00088270118
9.4468905e-06
0.00088281375
1.0443121e-05
0.00088293967
1.1415057e-05
0.0008830746
1.2342966e-05
0.00088321479
1.3213906e-05
0.00088335426
1.4011459e-05
0.00088349179
1.4739332e-05
0.00088362285
1.5389295e-05
0.00088374256
1.595683e-05
0.00088384888
1.6453142e-05
0.00088393934
1.6884256e-05
0.00088401005
1.7248151e-05
0.00088405518
1.7542719e-05
0.00088406726
1.7773235e-05
0.00088403683
1.7949668e-05
0.00088395077
1.8082517e-05
0.00088379156
1.8185004e-05
0.00088353505
1.8272974e-05
0.0008831455
1.8366117e-05
0.00088256698
1.8488473e-05
0.00088167542
1.8651742e-05
0.00088029678
1.8861156e-05
0.00087825835
1.9117454e-05
0.00087539018
1.9403584e-05
0.00087155519
1.9690494e-05
0.00086667027
1.9946578e-05
0.0008607652
2.0096475e-05
0.0008540268
2.0052218e-05
0.00084674709
1.9791438e-05
0.00083925382
1.9324559e-05
0.00083185406
1.8681253e-05
0.00082478767
1.7909903e-05
0.00081818517
1.7082105e-05
0.00081205884
1.6284779e-05
0.00080634655
1.5576168e-05
0.00080096184
1.4975087e-05
0.00079583159
1.4466701e-05
0.00079091056
1.4020732e-05
0.0007861753
1.3614632e-05
0.00078161256
1.3236902e-05
0.00077721073
1.2883776e-05
0.0007729572
1.2552662e-05
0.00076883872
1.2242311e-05
0.00076484282
1.195224e-05
0.00076095948
1.1679161e-05
0.00075718124
1.1419473e-05
0.00075350191
1.1171894e-05
0.00074991564
1.0936139e-05
0.00074641715
1.0710505e-05
0.00074300176
1.049389e-05
0.00073966506
1.0286994e-05
0.00073640334
1.0088113e-05
0.00073321328
9.8962872e-06
0.00073009157
9.7121805e-06
0.00072703528
9.53474e-06
0.00072404179
9.363292e-06
0.00072110847
9.1983732e-06
0.00071823297
9.0391496e-06
0.0007154131
8.8851836e-06
0.00071264671
8.7368755e-06
0.0007099318
8.5935689e-06
0.0007072665
8.4551288e-06
0.00070464899
8.3214522e-06
0.00070207757
8.1922293e-06
0.00069955057
8.0674129e-06
0.00069706642
7.946718e-06
0.00069462363
7.8300271e-06
0.00069222075
7.7171967e-06
0.00068985641
7.6080394e-06
0.00068752928
7.5024442e-06
0.0006852381
7.4002678e-06
0.00068298164
7.3013871e-06
0.00068075873
7.205688e-06
0.00067856824
7.1130704e-06
0.00067640907
7.0234489e-06
0.00067428015
6.9367562e-06
0.00067218043
6.8529526e-06
0.0006701089
6.7720192e-06
0.00066806451
6.6940181e-06
0.00066604624
6.6189792e-06
0.0006640529
6.547341e-06
0.0006620835
6.4790263e-06
0.00066013602
6.4161745e-06
0.00065821008
6.3569884e-06
0.00065629962
6.3120025e-06
0.00065440862
6.2704052e-06
0.000652508
6.2860903e-06
0.00065066425
6.2491134e-06
0.00064847328
6.8479577e-06
6.3450737e-06
0.00091196069
1.6865108e-06
-0.0009120225
0.00091193475
2.2885562e-06
0.00091192049
2.8770638e-06
0.00091191051
3.4754305e-06
0.00091190779
4.1292584e-06
0.00091191709
4.8537823e-06
0.00091194105
5.6446959e-06
0.00091198267
6.4996207e-06
0.00091204445
7.4130631e-06
0.00091212644
8.3674396e-06
0.00091222851
9.3448247e-06
0.00091234849
1.0323137e-05
0.00091248314
1.128041e-05
0.00091262859
1.2197513e-05
0.00091278121
1.3061293e-05
0.00091293574
1.3856923e-05
0.00091309035
1.4584726e-05
0.00091324151
1.5238135e-05
0.00091338574
1.5812602e-05
0.00091352198
1.6316897e-05
0.00091364949
1.6756745e-05
0.00091376686
1.7130781e-05
0.000913872
1.7437582e-05
0.00091396328
1.7681952e-05
0.00091403928
1.7873674e-05
0.00091409802
1.8023771e-05
0.00091413769
1.8145336e-05
0.00091415658
1.8254084e-05
0.00091415306
1.8369643e-05
0.00091412614
1.8515391e-05
0.00091407196
1.8705922e-05
0.00091398239
1.8950721e-05
0.00091384409
1.9255753e-05
0.00091363493
1.9612753e-05
0.00091331905
2.0006372e-05
0.00091284154
2.0424088e-05
0.00091208508
2.0852933e-05
0.00091085829
2.1279003e-05
0.00090895467
2.1695058e-05
0.00090618911
2.2090123e-05
0.00090242592
2.2444448e-05
0.00089762549
2.2710329e-05
0.0008919108
2.2796796e-05
0.0008855434
2.2652174e-05
0.00087883513
2.2284445e-05
0.00087209102
2.1719197e-05
0.00086554766
2.1010057e-05
0.0008593282
2.0240197e-05
0.0008534493
1.9493523e-05
0.00084786826
1.8817947e-05
0.00084252912
1.8222912e-05
0.00083739095
1.7690833e-05
0.00083243141
1.7201852e-05
0.00082763856
1.6745092e-05
0.000823003
1.6314717e-05
0.00081851439
1.5908088e-05
0.00081416138
1.5524905e-05
0.00080993327
1.5164251e-05
0.00080582144
1.4822334e-05
0.00080181906
1.4496269e-05
0.00079791987
1.4186186e-05
0.00079411819
1.3889786e-05
0.00079040888
1.3605597e-05
0.00078678711
1.3333952e-05
0.00078324869
1.3073161e-05
0.00077978986
1.2822128e-05
0.00077640694
1.2581285e-05
0.00077309667
1.2349422e-05
0.00076985605
1.2125807e-05
0.00076668217
1.1910753e-05
0.00076357238
1.1703355e-05
0.00076052419
1.1503324e-05
0.00075753521
1.1310431e-05
0.00075460322
1.1124223e-05
0.00075172607
1.0944563e-05
0.00074890175
1.077104e-05
0.00074612833
1.0603447e-05
0.00074340397
1.0441553e-05
0.00074072693
1.0285082e-05
0.00073809552
1.0133849e-05
0.00073550815
9.9876415e-06
0.00073296327
9.8462688e-06
0.0007304594
9.7095566e-06
0.00072799512
9.5773494e-06
0.00072556905
9.4495125e-06
0.00072317988
9.3259347e-06
0.00072082628
9.2065447e-06
0.00071850701
9.0912922e-06
0.00071622078
8.9802514e-06
0.00071396634
8.8734154e-06
0.00071174228
8.7714022e-06
0.00070954741
8.6739008e-06
0.00070737945
8.5841268e-06
0.00070523793
8.4985155e-06
0.0007031162
8.4337251e-06
0.00070101899
8.3676234e-06
0.00069891353
8.3915452e-06
0.0006968814
8.2812466e-06
0.00069443748
9.2918712e-06
8.1701214e-06
0.00094245245
1.7522295e-06
-0.00094251817
0.00094241902
2.3219913e-06
0.00094239965
2.8964343e-06
0.00094238736
3.4877171e-06
0.0009423842
4.132417e-06
0.00094239403
4.8439548e-06
0.00094241922
5.6195014e-06
0.00094246229
6.4565483e-06
0.00094252557
7.3497878e-06
0.00094260935
8.2836584e-06
0.00094271323
9.2409456e-06
0.0009428352
1.0201172e-05
0.00094297211
1.1143496e-05
0.00094312021
1.2049408e-05
0.00094327594
1.2905568e-05
0.00094343468
1.3698183e-05
0.0009435941
1.4425304e-05
0.00094375102
1.5081216e-05
0.00094390217
1.5661455e-05
0.00094404635
1.6172716e-05
0.00094418286
1.6620228e-05
0.00094431048
1.7003166e-05
0.00094442749
1.732057e-05
0.00094453234
1.7577106e-05
0.00094462404
1.7781973e-05
0.00094470211
1.7945703e-05
0.00094476627
1.8081175e-05
0.00094481656
1.820379e-05
0.00094485362
1.8332582e-05
0.00094487912
1.8489889e-05
0.00094489454
1.8690511e-05
0.00094490117
1.8944087e-05
0.00094490008
1.9256847e-05
0.00094489036
1.9622473e-05
0.00094486902
2.002771e-05
0.00094483161
2.0461493e-05
0.00094477031
2.0914233e-05
0.00094467015
2.1379167e-05
0.00094450857
2.1856639e-05
0.00094425249
2.2346197e-05
0.00094385131
2.284563e-05
0.00094321052
2.3351121e-05
0.00094215863
2.3848683e-05
0.00094048589
2.4324918e-05
0.00093800377
2.4766567e-05
0.00093456868
2.5154285e-05
0.00093015654
2.5422199e-05
0.00092490716
2.5489576e-05
0.00091906894
2.5331741e-05
0.00091293202
2.4954862e-05
0.00090676327
2.4391665e-05
0.00090074221
2.3711896e-05
0.00089494302
2.3001039e-05
0.00088936723
2.2320882e-05
0.00088398751
2.1694442e-05
0.00087877875
2.1116847e-05
0.00087372683
2.0576818e-05
0.00086882462
2.0066463e-05
0.00086406625
1.9580708e-05
0.0008594443
1.9118219e-05
0.00085495009
1.8680392e-05
0.00085057581
1.8264066e-05
0.00084631497
1.7866434e-05
0.00084216174
1.7487182e-05
0.00083811082
1.7124086e-05
0.00083415726
1.6775688e-05
0.00083029635
1.6442191e-05
0.00082652393
1.612185e-05
0.00082283618
1.5813558e-05
0.00081922943
1.5517497e-05
0.00081570034
1.5232445e-05
0.00081224576
1.4957901e-05
0.00080886273
1.4693462e-05
0.00080554846
1.4438491e-05
0.00080230031
1.4192719e-05
0.00079911577
1.3955577e-05
0.00079599248
1.3726736e-05
0.00079292818
1.3505854e-05
0.00078992072
1.3292542e-05
0.00078696805
1.3086523e-05
0.00078406819
1.2887493e-05
0.00078121928
1.269518e-05
0.00077841951
1.2509331e-05
0.00077566714
1.2329721e-05
0.0007729605
1.2156153e-05
0.00077029797
1.1988459e-05
0.00076767799
1.1826524e-05
0.00076509903
1.1670255e-05
0.00076255955
1.1519729e-05
0.00076005808
1.1374892e-05
0.00075759294
1.1236541e-05
0.00075516273
1.1104113e-05
0.00075276492
1.0981929e-05
0.00075039887
1.0864567e-05
0.0007480575
1.0775098e-05
0.00074574595
1.0679176e-05
0.00074342842
1.0709075e-05
0.00074119954
1.0510126e-05
0.00073850139
1.1990017e-05
1.0142437e-05
0.00097396576
1.8195568e-06
-0.00097403308
0.00097392704
2.3607116e-06
0.00097390306
2.9204067e-06
0.0009738878
3.50298e-06
0.0009738829
4.1373171e-06
0.00097389167
4.8351836e-06
0.00097391638
5.5947971e-06
0.0009739593
6.4136271e-06
0.00097402255
7.2865376e-06
0.00097410652
8.1996849e-06
0.00097421073
9.1367374e-06
0.00097433329
1.0078614e-05
0.00097447118
1.1005607e-05
0.00097462073
1.1899857e-05
0.00097477833
1.2747961e-05
0.00097493967
1.3536846e-05
0.00097510208
1.4262894e-05
0.0009752625
1.4920797e-05
0.00097541777
1.5506185e-05
0.00097556647
1.6024018e-05
0.00097570776
1.6478932e-05
0.00097584041
1.687052e-05
0.00097596281
1.7198172e-05
0.00097607363
1.7466287e-05
0.00097617202
1.768358e-05
0.00097625747
1.7860254e-05
0.00097632987
1.8008777e-05
0.00097638942
1.8144237e-05
0.00097643707
1.8284929e-05
0.00097647503
1.8451937e-05
0.00097650543
1.8660106e-05
0.00097653049
1.8919024e-05
0.00097655253
1.923481e-05
0.00097657264
1.9602362e-05
0.00097659072
2.0009635e-05
0.000976606
2.0446208e-05
0.00097661699
2.0903245e-05
0.00097662128
2.137488e-05
0.00097661598
2.1861938e-05
0.00097659711
2.2365062e-05
0.0009765593
2.2883447e-05
0.00097649454
2.3415874e-05
0.00097638669
2.3956536e-05
0.00097620935
2.4502258e-05
0.00097592325
2.5052666e-05
0.00097546987
2.5607669e-05
0.00097473143
2.6160633e-05
0.00097352385
2.6697155e-05
0.00097165176
2.7203831e-05
0.00096894385
2.7662779e-05
0.00096531176
2.8023752e-05
0.00096081524
2.8208411e-05
0.00095564278
2.8173497e-05
0.00095004861
2.7915061e-05
0.00094428852
2.745453e-05
0.00093855077
2.6854599e-05
0.0009329313
2.6196287e-05
0.0009274573
2.5540456e-05
0.00092212496
2.4913052e-05
0.00091692615
2.4317031e-05
0.00091185718
2.3749362e-05
0.00090691714
2.3204103e-05
0.00090210379
2.2679786e-05
0.0008974124
2.217857e-05
0.00089283761
2.1698879e-05
0.00088837448
2.1238815e-05
0.00088401841
2.0798265e-05
0.0008797651
2.0375162e-05
0.00087561041
1.9968248e-05
0.00087155026
1.9577638e-05
0.00086758093
1.9201782e-05
0.00086369885
1.8839984e-05
0.00085990062
1.8491685e-05
0.00085618306
1.8156052e-05
0.0008525431
1.7832678e-05
0.00084897786
1.7520819e-05
0.00084548458
1.7220018e-05
0.00084206062
1.6929811e-05
0.00083870348
1.6649681e-05
0.00083541076
1.6379252e-05
0.00083218013
1.6118115e-05
0.00082900941
1.5865904e-05
0.00082589646
1.5622279e-05
0.00082283925
1.5386934e-05
0.00081983581
1.5159597e-05
0.00081688423
1.4940035e-05
0.00081398267
1.472808e-05
0.00081112934
1.4523586e-05
0.00080832244
1.4326626e-05
0.00080556024
1.4137092e-05
0.00080284083
1.3955952e-05
0.00080016256
1.3782382e-05
0.00079752267
1.3621826e-05
0.00079492029
1.3466948e-05
0.00079234795
1.3347435e-05
0.0007898111
1.3216023e-05
0.00078727115
1.3249026e-05
0.00078483491
1.2946373e-05
0.00078187496
1.4949961e-05
1.2274908e-05
0.001006533
1.8871762e-06
-0.0010066006
0.0010064908
2.4028625e-06
0.0010064636
2.9476416e-06
0.001006446
3.5205685e-06
0.0010064394
4.1438872e-06
0.0010064468
4.8277791e-06
0.0010064704
5.5711891e-06
0.0010065124
6.3716347e-06
0.0010065748
7.2241761e-06
0.001006658
8.1164476e-06
0.0010067617
9.0330916e-06
0.001006884
9.9563162e-06
0.001007022
1.0867536e-05
0.0010071723
1.1749582e-05
0.0010073312
1.2589099e-05
0.0010074945
1.3373556e-05
0.0010076593
1.4098078e-05
0.0010078226
1.4757493e-05
0.0010079813
1.5347496e-05
0.0010081337
1.5871592e-05
0.0010082789
1.6333756e-05
0.0010084155
1.6733874e-05
0.001008542
1.7071637e-05
0.0010086572
1.7351176e-05
0.00100876
1.7580715e-05
0.0010088501
1.7770137e-05
0.0010089274
1.7931502e-05
0.0010089922
1.807947e-05
0.0010090455
1.8231624e-05
0.0010090895
1.8407956e-05
0.0010091264
1.8623142e-05
0.0010091587
1.8886735e-05
0.0010091888
1.9204684e-05
0.0010092184
1.9572823e-05
0.0010092478
1.9980266e-05
0.0010092768
2.0417182e-05
0.0010093048
2.0875268e-05
0.0010093307
2.1348964e-05
0.0010093538
2.1838818e-05
0.0010093733
2.234559e-05
0.001009388
2.2868678e-05
0.0010093968
2.3407086e-05
0.001009397
2.3956338e-05
0.0010093847
2.4514592e-05
0.0010093543
2.5083057e-05
0.0010092987
2.5663246e-05
0.0010092055
2.6253851e-05
0.0010090513
2.6851389e-05
0.0010088
2.7455125e-05
0.0010083986
2.8064112e-05
0.0010077497
2.8672713e-05
0.0010066921
2.926595e-05
0.0010050385
2.9827128e-05
0.0010026148
3.0338731e-05
0.00099932406
3.0745308e-05
0.00099520441
3.0974251e-05
0.00099041236
3.0988331e-05
0.0009851766
3.0776218e-05
0.00097972825
3.0361407e-05
0.00097423712
2.9808161e-05
0.00096879578
2.9190701e-05
0.00096344016
2.8559719e-05
0.00095818057
2.7939374e-05
0.00095302181
2.7337329e-05
0.00094796908
2.6751608e-05
0.00094302587
2.6182025e-05
0.00093819235
2.5631795e-05
0.00093346674
2.5100768e-05
0.00092884668
2.458831e-05
0.00092432946
2.4094851e-05
0.00091991228
2.3618965e-05
0.0009155921
2.3160165e-05
0.00091136582
2.2717964e-05
0.0009072304
2.2291469e-05
0.00090318283
2.1880247e-05
0.00089922018
2.1483472e-05
0.00089533958
2.1100623e-05
0.00089153824
2.0731152e-05
0.00088781346
2.0374456e-05
0.00088416264
2.0030075e-05
0.00088058324
1.9697517e-05
0.00087707281
1.9376331e-05
0.00087362899
1.9066098e-05
0.00087024949
1.8766434e-05
0.00086693209
1.8476996e-05
0.00086367464
1.8197483e-05
0.00086047505
1.7927673e-05
0.00085733127
1.7667367e-05
0.00085424127
1.7416627e-05
0.00085120307
1.717529e-05
0.00084821453
1.6944495e-05
0.00084527376
1.6723155e-05
0.00084237774
1.6517838e-05
0.00083952542
1.6319272e-05
0.00083670894
1.6163909e-05
0.000833934
1.5990971e-05
0.0008311593
1.6023722e-05
0.00082850347
1.5602202e-05
0.00082527048
1.8182957e-05
1.4580226e-05
0.0010401885
1.9543805e-06
-0.0010402557
0.0010401441
2.4472637e-06
0.0010401147
2.9770756e-06
0.0010400956
3.5396144e-06
0.001040088
4.1514931e-06
0.0010400945
4.8213361e-06
0.0010401171
5.5485433e-06
0.0010401581
6.3306797e-06
0.0010402192
7.1629944e-06
0.0010403013
8.0344016e-06
0.0010404038
8.9305649e-06
0.0010405252
9.8349061e-06
0.0010406628
1.0729946e-05
0.0010408132
1.1599245e-05
0.0010409727
1.2429589e-05
0.0010411373
1.3208903e-05
0.001041304
1.3931354e-05
0.0010414698
1.4591755e-05
0.0010416315
1.5185818e-05
0.0010417872
1.5715823e-05
0.0010419359
1.6185051e-05
0.0010420762
1.6593578e-05
0.0010422065
1.694134e-05
0.0010423255
1.7232217e-05
0.0010424322
1.747395e-05
0.0010425263
1.767607e-05
0.0010426076
1.7850236e-05
0.0010426764
1.8010636e-05
0.0010427339
1.8174148e-05
0.0010427821
1.8359756e-05
0.0010428234
1.8581884e-05
0.0010428601
1.8850014e-05
0.0010428948
1.9169977e-05
0.0010429292
1.9538435e-05
0.0010429639
1.9945571e-05
0.0010429989
2.0382145e-05
0.0010430338
2.0840346e-05
0.0010430679
2.1314849e-05
0.0010431009
2.1805857e-05
0.0010431324
2.2314058e-05
0.0010431622
2.2838884e-05
0.0010431899
2.3379363e-05
0.0010432147
2.3931559e-05
0.0010432354
2.449389e-05
0.0010432507
2.506776e-05
0.0010432591
2.5654848e-05
0.0010432584
2.6254549e-05
0.0010432447
2.6865065e-05
0.0010432123
2.7487553e-05
0.0010431532
2.8123187e-05
0.0010430548
2.8771139e-05
0.0010428935
2.9427309e-05
0.0010426314
3.0089185e-05
0.0010422137
3.0756469e-05
0.0010415384
3.1420533e-05
0.0010404482
3.2064516e-05
0.0010387656
3.2670894e-05
0.0010363293
3.3212539e-05
0.0010330668
3.3623913e-05
0.0010290319
3.3843002e-05
0.0010243795
3.3843099e-05
0.0010193235
3.3615798e-05
0.0010140643
3.3198582e-05
0.0010087417
3.2659907e-05
0.0010034317
3.2061555e-05
0.00099816935
3.1444413e-05
0.00099297256
3.0828583e-05
0.00098785467
3.0218653e-05
0.00098282539
2.9617592e-05
0.00097788999
2.9030251e-05
0.00097305068
2.8458276e-05
0.00096830798
2.7902862e-05
0.0009636615
2.7364443e-05
0.00095911017
2.6842806e-05
0.00095465233
2.6338083e-05
0.00095028604
2.5849761e-05
0.00094600913
2.5377533e-05
0.00094181929
2.4920993e-05
0.00093771414
2.4479611e-05
0.00093369124
2.4052975e-05
0.00092974815
2.3640599e-05
0.00092588246
2.3242023e-05
0.00092209176
2.2856804e-05
0.00091837367
2.2484523e-05
0.00091472586
2.2124801e-05
0.00091114605
2.1777293e-05
0.00090763198
2.1441744e-05
0.00090418143
2.1117915e-05
0.00090079219
2.0805872e-05
0.00089746208
2.05054e-05
0.00089418875
2.0217819e-05
0.00089097012
1.9941788e-05
0.00088780295
1.9685005e-05
0.00088468597
1.9436256e-05
0.000881611
1.9238875e-05
0.00087858392
1.9018055e-05
0.00087556083
1.9046815e-05
0.00087267205
1.8490982e-05
0.0008691524
2.1702601e-05
1.707131e-05
0.0010749686
2.0207413e-06
-0.001075035
0.0010749227
2.493145e-06
0.0010748918
3.0080386e-06
0.0010748719
3.5595115e-06
0.0010748638
4.1595589e-06
0.0010748698
4.8153091e-06
0.0010748919
5.5264119e-06
0.0010749322
6.2904527e-06
0.0010749923
7.1028381e-06
0.0010750732
7.953577e-06
0.0010751744
8.8293511e-06
0.0010752946
9.7147226e-06
0.0010754312
1.059329e-05
0.0010755811
1.1449369e-05
0.0010757407
1.2269978e-05
0.0010759062
1.3043448e-05
0.0010760743
1.3763233e-05
0.001076242
1.4424041e-05
0.0010764062
1.5021577e-05
0.001076565
1.5557068e-05
0.0010767169
1.6033113e-05
0.0010768606
1.6449883e-05
0.0010769944
1.6807506e-05
0.001077117
1.7109624e-05
0.0010772275
1.7363502e-05
0.0010773253
1.7578303e-05
0.0010774102
1.776527e-05
0.0010774828
1.7938103e-05
0.0010775439
1.8112981e-05
0.0010775957
1.8307936e-05
0.0010776405
1.8537081e-05
0.0010776807
1.8809814e-05
0.0010777188
1.9131875e-05
0.0010777566
1.9500676e-05
0.0010777948
1.990741e-05
0.0010778335
2.0343437e-05
0.0010778724
2.0801419e-05
0.001077911
2.1276258e-05
0.001077949
2.1767838e-05
0.0010779864
2.2276718e-05
0.0010780229
2.2802322e-05
0.0010780586
2.334368e-05
0.0010780929
2.3897232e-05
0.0010781253
2.4461475e-05
0.0010781554
2.5037737e-05
0.0010781825
2.5627682e-05
0.0010782061
2.6230931e-05
0.0010782251
2.6846107e-05
0.001078238
2.7474686e-05
0.0010782429
2.8118251e-05
0.0010782374
2.8776681e-05
0.001078217
2.9447686e-05
0.0010781749
3.0131253e-05
0.0010781019
3.0829438e-05
0.0010779824
3.1540123e-05
0.0010777881
3.2258792e-05
0.0010774759
3.2983109e-05
0.0010769781
3.3710318e-05
0.0010761754
3.4426646e-05
0.001074906
3.5112359e-05
0.0010729997
3.5749436e-05
0.0010703316
3.6283848e-05
0.0010668789
3.6651315e-05
0.0010627269
3.6811861e-05
0.001058049
3.6739451e-05
0.0010530435
3.6449981e-05
0.0010478729
3.5999154e-05
0.0010426418
3.5449737e-05
0.0010374072
3.4852181e-05
0.0010322013
3.4236153e-05
0.0010270463
3.361331e-05
0.001021958
3.2991164e-05
0.0010169467
3.2375771e-05
0.0010120184
3.1771046e-05
0.0010071768
3.11797e-05
0.0010024237
3.0602825e-05
0.00099775992
3.0041345e-05
0.00099318516
2.9495752e-05
0.00098869864
2.896613e-05
0.00098429911
2.8452509e-05
0.00097998498
2.795472e-05
0.00097575448
2.7472529e-05
0.00097160564
2.7005645e-05
0.0009675364
2.655376e-05
0.00096354464
2.6116561e-05
0.00095962818
2.5693751e-05
0.00095578482
2.5285104e-05
0.00095201234
2.4890399e-05
0.00094830847
2.4509745e-05
0.00094467095
2.4142916e-05
0.00094109734
2.3791433e-05
0.0009375854
2.3453728e-05
0.00093413175
2.3138648e-05
0.00093073495
2.2833058e-05
0.00092738655
2.258727e-05
0.00092409261
2.2311997e-05
0.00092080667
2.2332761e-05
0.00091767079
2.1626854e-05
0.00091384942
2.5523974e-05
1.9761437e-05
0.0011109108
2.0859573e-06
-0.001110976
0.001110864
2.5399293e-06
0.001110832
3.0400877e-06
0.0011108115
3.579914e-06
0.0011108034
4.1677434e-06
0.0011108094
4.8093116e-06
0.0011108314
5.5043848e-06
0.0011108713
6.2505564e-06
0.0011109308
7.0433628e-06
0.0011110106
7.8737403e-06
0.0011111106
8.7293475e-06
0.0011112295
9.5958092e-06
0.0011113651
1.0457754e-05
0.0011115142
1.1300265e-05
0.0011116735
1.2110661e-05
0.0011118393
1.2877651e-05
0.0011120083
1.3594177e-05
0.0011121776
1.4254804e-05
0.0011123439
1.4855204e-05
0.0011125053
1.5395708e-05
0.0011126601
1.5878259e-05
0.001112807
1.6303053e-05
0.0011129441
1.6670354e-05
0.0011130702
1.6983573e-05
0.0011131842
1.7249518e-05
0.0011132855
1.7476964e-05
0.001113374
1.7676729e-05
0.0011134501
1.7862009e-05
0.0011135148
1.8048293e-05
0.0011135701
1.8252704e-05
0.0011136181
1.8489e-05
0.0011136615
1.8766484e-05
0.0011137025
1.9090821e-05
0.0011137431
1.9460105e-05
0.001113784
1.9866491e-05
0.0011138255
2.0301947e-05
0.0011138673
2.0759592e-05
0.001113909
2.1234558e-05
0.0011139504
2.1726451e-05
0.0011139914
2.2235688e-05
0.0011140321
2.276167e-05
0.0011140724
2.3303423e-05
0.0011141119
2.3857712e-05
0.0011141503
2.4423077e-05
0.0011141873
2.5000711e-05
0.0011142228
2.5592191e-05
0.0011142565
2.6197265e-05
0.0011142878
2.6814765e-05
0.0011143163
2.7446155e-05
0.0011143415
2.809309e-05
0.0011143625
2.8755664e-05
0.001114378
2.9432153e-05
0.0011143862
3.0123075e-05
0.0011143848
3.0830864e-05
0.0011143703
3.15546e-05
0.0011143371
3.2292014e-05
0.0011142766
3.3043645e-05
0.0011141764
3.3810446e-05
0.0011140146
3.4588491e-05
0.001113754
3.5372939e-05
0.0011133408
3.6162619e-05
0.0011126788
3.6945896e-05
0.0011116261
3.7703964e-05
0.0011100196