/*--------------------------------*- C++ -*----------------------------------*\
  =========                 |
  \\      /  F ield         | OpenFOAM: The Open Source CFD Toolbox
   \\    /   O peration     | Website:  https://openfoam.org
    \\  /    A nd           | Version:  12
     \\/     M anipulation  |
\*---------------------------------------------------------------------------*/
FoamFile
{
    format      ascii;
    class       volVectorField;
    location    "700";
    object      U;
}
// * * * * * * * * * * * * * * * * * * * * * * * * * * * * * * * * * * * * * //

dimensions      [0 1 -1 0 0 0 0];

internalField   nonuniform List<vector> 
7480
(
(0.99631866 0.00030735799 0)
(0.99394113 0.0003350391 -5.5554173e-20)
(0.99091711 0.00050433476 0)
(0.98720954 0.00067786189 0)
(0.98273603 0.00086185352 0)
(0.9774275 0.00098728235 -1.7229654e-17)
(0.97118159 0.0010672857 -3.1856095e-19)
(0.9639752 0.0012985215 0)
(0.95575259 0.0015429586 0)
(0.94649398 0.001778747 0)
(0.93623372 0.0019991099 0)
(0.92504537 0.0021950256 0)
(0.9130345 0.0023575504 0)
(0.90033594 0.0024746087 0)
(0.88709915 0.0025612166 0)
(0.87347989 0.0025650295 0)
(0.85964922 0.0025408493 0)
(0.84572128 0.0024688335 0)
(0.83187764 0.0023522289 0)
(0.81823415 0.0022033084 0)
(0.80491381 0.002024039 0)
(0.79205194 0.0018183359 0)
(0.77980581 0.0015974266 0)
(0.76830411 0.0013722019 0)
(0.75764862 0.0011484278 0)
(0.7479195 0.00093214577 0)
(0.73916665 0.00072804551 0)
(0.73141154 0.00054285494 0)
(0.72464042 0.00038388694 0)
(0.71878496 0.00025748865 0)
(0.71372478 0.00016914431 0)
(0.70930686 0.00011849887 0)
(0.70536297 9.9286571e-05 0)
(0.70173548 0.00010173847 0)
(0.69830475 0.00011469072 0)
(0.69499727 0.00012874044 0)
(0.69177709 0.00013815369 0)
(0.68863113 0.00014095434 0)
(0.68555267 0.00013880978 0)
(0.68253038 0.00013479062 0)
(0.67954818 0.00013129895 0)
(0.67659104 0.00012918097 0)
(0.67365199 0.00012790318 0)
(0.67073437 0.00012656618 0)
(0.66784676 0.00012461287 0)
(0.6649964 0.00012192725 0)
(0.66218624 0.00011870177 0)
(0.65941637 0.00011519143 0)
(0.65668646 0.00011157934 0)
(0.65399674 0.00010791664 0)
(0.65134764 0.000104212 0)
(0.64873963 0.00010048116 0)
(0.64617288 9.6779898e-05 0)
(0.64364679 9.3173549e-05 0)
(0.64116038 8.9670402e-05 0)
(0.63871312 8.6258333e-05 0)
(0.63630468 8.2949965e-05 0)
(0.63393418 7.9764552e-05 0)
(0.63160056 7.6688217e-05 0)
(0.62930333 7.371318e-05 0)
(0.62704162 7.0865119e-05 0)
(0.62481415 6.8135954e-05 0)
(0.62262005 6.5514475e-05 0)
(0.62045843 6.3006198e-05 0)
(0.6183283 6.0598363e-05 0)
(0.6162289 5.828241e-05 0)
(0.61415942 5.6064454e-05 0)
(0.61211891 5.3935864e-05 0)
(0.61010663 5.1890994e-05 0)
(0.60812178 4.9933428e-05 0)
(0.60616346 4.8055494e-05 0)
(0.60423091 4.6254464e-05 0)
(0.60232336 4.4528276e-05 0)
(0.60044005 4.2871977e-05 0)
(0.59858026 4.1283267e-05 0)
(0.59674329 3.9758187e-05 0)
(0.59492849 3.8294416e-05 0)
(0.59313518 3.6889503e-05 0)
(0.59136275 3.5540551e-05 0)
(0.58961059 3.4245336e-05 0)
(0.58787809 3.3001407e-05 0)
(0.5861647 3.1806534e-05 0)
(0.58446986 3.0658621e-05 0)
(0.58279302 2.9555725e-05 0)
(0.58113368 2.8496031e-05 0)
(0.57949129 2.7477889e-05 0)
(0.57786537 2.649974e-05 0)
(0.57625536 2.5560336e-05 0)
(0.57466077 2.465842e-05 0)
(0.57308095 2.3793651e-05 0)
(0.57151552 2.29642e-05 0)
(0.56996318 2.2173667e-05 0)
(0.56842458 2.1416078e-05 0)
(0.56689471 2.0714617e-05 0)
(0.56538136 2.0027514e-05 0)
(0.56385841 1.9527566e-05 0)
(0.5623763 1.8333646e-05 -3.9424763e-21)
(0.56079189 3.1640444e-05 7.4164437e-20)
(0.55947852 1.8716502e-05 -2.4216468e-19)
(0.55702115 3.3175898e-05 -4.3122582e-18)
(0.99781199 0.00049201584 0)
(0.99770928 0.00072828124 0)
(0.99761002 0.00092879065 0)
(0.99745627 0.0010894222 -6.023709e-19)
(0.99724886 0.0012391714 0)
(0.99699427 0.0013923443 0)
(0.99667638 0.0015757968 0)
(0.99625602 0.0017691554 0)
(0.99568372 0.0019220609 0)
(0.99490487 0.002046113 0)
(0.99385437 0.0021464259 0)
(0.99245891 0.0022210517 0)
(0.99064342 0.0022690787 0)
(0.98833535 0.0022937609 0)
(0.98547154 0.0022917358 0)
(0.98199717 0.0022792899 0)
(0.97787612 0.0022524565 0)
(0.97306973 0.0022147859 0)
(0.96757704 0.0021696074 0)
(0.96138546 0.0021209533 0)
(0.95449683 0.0020708658 0)
(0.94690604 0.0020126123 0)
(0.93865046 0.0019335076 0)
(0.92983157 0.001835096 0)
(0.92054699 0.001725136 0)
(0.91091103 0.0016044581 0)
(0.90106544 0.001474967 0)
(0.89116395 0.0013374413 0)
(0.88137183 0.0011928569 0)
(0.87186421 0.0010427443 0)
(0.86284008 0.00089555309 0)
(0.85445658 0.00076187922 0)
(0.84678489 0.00064706825 0)
(0.83980818 0.00055582578 0)
(0.83345159 0.00048971032 0)
(0.82760401 0.00044691697 0)
(0.82214722 0.00042260336 0)
(0.81698639 0.00040954285 0)
(0.81205926 0.00040039428 0)
(0.80733076 0.0003903762 0)
(0.80278297 0.00037769401 0)
(0.79840345 0.00036251709 0)
(0.79417866 0.00034565843 0)
(0.79009256 0.00032832916 0)
(0.78612747 0.00031173787 0)
(0.7822666 0.00029650777 0)
(0.77849715 0.00028257717 0)
(0.77481232 0.00026958403 0)
(0.77120928 0.00025730855 0)
(0.7676856 0.00024562507 0)
(0.76423751 0.00023448318 0)
(0.7608607 0.00022384052 0)
(0.75755186 0.00021369063 0)
(0.75430851 0.00020404228 0)
(0.75112838 0.00019483794 0)
(0.74800947 0.00018603473 0)
(0.74494988 0.00017764405 0)
(0.74194751 0.00016967344 0)
(0.73900028 0.00016207788 0)
(0.73610647 0.00015482954 0)
(0.73326444 0.00014794976 0)
(0.73047239 0.00014140041 0)
(0.72772887 0.00013515652 0)
(0.72503244 0.00012922623 0)
(0.72238149 0.00012357861 0)
(0.71977464 0.00011819394 0)
(0.71721053 0.00011307709 0)
(0.71468769 0.00010820314 0)
(0.71220487 0.0001035571 0)
(0.70976081 9.9139952e-05 0)
(0.7073542 9.4931317e-05 0)
(0.70498383 9.0922266e-05 0)
(0.70264854 8.7104372e-05 0)
(0.7003472 8.3465212e-05 0)
(0.69807871 7.9997548e-05 0)
(0.69584201 7.6690571e-05 0)
(0.69363608 7.3536833e-05 0)
(0.69145994 7.0528654e-05 0)
(0.68931264 6.7657978e-05 0)
(0.68719329 6.4918249e-05 0)
(0.685101 6.2302607e-05 0)
(0.68303492 5.9804824e-05 0)
(0.68099424 5.7419032e-05 0)
(0.67897816 5.5139773e-05 0)
(0.67698591 5.2961954e-05 0)
(0.67501675 5.0880894e-05 0)
(0.67306993 4.8892228e-05 0)
(0.67114469 4.6992182e-05 0)
(0.66924033 4.5177075e-05 0)
(0.667356 4.3444598e-05 0)
(0.66549111 4.1791735e-05 0)
(0.66364412 4.0220941e-05 0)
(0.66181552 3.8727068e-05 0)
(0.6599999 3.7333286e-05 0)
(0.65820518 3.6007464e-05 0)
(0.65640393 3.4901688e-05 0)
(0.65464857 3.3852307e-05 3.9484091e-21)
(0.65278803 3.4963982e-05 0)
(0.65122341 3.0952386e-05 0)
(0.64836129 3.7972883e-05 0)
(0.99788182 0.00049554512 0)
(0.99784483 0.00069320437 0)
(0.99783533 0.00084528042 0)
(0.99781134 0.00098349917 0)
(0.99777967 0.0011362559 0)
(0.9977567 0.001309921 0)
(0.99774794 0.0014955079 0)
(0.9977528 0.0016812239 0)
(0.99777473 0.0018711662 0)
(0.99781623 0.0020708306 0)
(0.99787455 0.0022744372 0)
(0.99794426 0.0024728825 0)
(0.99801735 0.002659102 0)
(0.99808305 0.0028270156 0)
(0.99812935 0.0029739343 0)
(0.99814093 0.003096055 0)
(0.99810044 0.0031922828 0)
(0.9979902 0.0032612632 0)
(0.99778648 0.0033015312 0)
(0.99746144 0.0033141515 0)
(0.99698157 0.0033004733 0)
(0.99630832 0.0032598703 0)
(0.9953456 0.0031940727 0)
(0.99396089 0.0031048824 0)
(0.99204274 0.0029932442 0)
(0.9894767 0.0028619425 0)
(0.98614053 0.0027144801 0)
(0.98191553 0.0025556619 0)
(0.9766948 0.0023921377 0)
(0.97040175 0.0022318377 0)
(0.96299341 0.0020660346 0)
(0.95461908 0.0018929275 0)
(0.94550452 0.0017251832 0)
(0.9359742 0.0015643308 0)
(0.92637974 0.0014097959 0)
(0.91704826 0.0012596918 0)
(0.90824482 0.0011171587 0)
(0.90013447 0.00099116653 0)
(0.89273452 0.00088757875 0)
(0.88596188 0.00080776853 0)
(0.87969259 0.00074992807 0)
(0.87380353 0.0007093534 0)
(0.8682048 0.00067897747 0)
(0.86284408 0.00065211946 0)
(0.85769482 0.0006247698 0)
(0.85274147 0.00059612483 0)
(0.84796979 0.00056683285 0)
(0.84336429 0.00053784372 0)
(0.83890854 0.00051015388 0)
(0.83458659 0.00048428021 0)
(0.83038493 0.00046020213 0)
(0.82629386 0.00043760834 0)
(0.82230705 0.00041629168 0)
(0.81841918 0.00039618471 0)
(0.81462453 0.00037716599 0)
(0.81091766 0.00035913596 0)
(0.80729405 0.0003420643 0)
(0.80374978 0.00032591482 0)
(0.80028128 0.00031058918 0)
(0.79688542 0.00029603218 0)
(0.79355919 0.0002822607 0)
(0.79029961 0.00026919509 0)
(0.78710426 0.00025677992 0)
(0.7839708 0.00024501445 0)
(0.78089682 0.00023384191 0)
(0.7778802 0.00022322189 0)
(0.77491891 0.00021315085 0)
(0.7720109 0.00020358227 0)
(0.76915433 0.00019448484 0)
(0.76634746 0.00018585151 0)
(0.76358848 0.00017764477 0)
(0.76087577 0.00016984403 0)
(0.75820774 0.00016242989 0)
(0.75558287 0.00015537793 0)
(0.75299969 0.00014867167 0)
(0.75045678 0.00014228969 0)
(0.74795278 0.00013621573 0)
(0.74548639 0.00013043354 0)
(0.74305637 0.00012492671 0)
(0.74066151 0.00011968127 0)
(0.73830066 0.00011468315 0)
(0.73597269 0.00010991943 0)
(0.73367654 0.00010537797 0)
(0.73141117 0.00010104746 0)
(0.72917558 9.6917348e-05 0)
(0.72696878 9.2977895e-05 0)
(0.72478982 8.9220105e-05 0)
(0.72263774 8.5635861e-05 0)
(0.72051162 8.2217944e-05 0)
(0.71841042 7.8960081e-05 0)
(0.71633337 7.5858387e-05 0)
(0.71427873 7.2909818e-05 0)
(0.71224679 7.0119629e-05 0)
(0.710232 6.7489756e-05 0)
(0.70824204 6.5053142e-05 0)
(0.7062493 6.2863545e-05 0)
(0.7043061 6.1041748e-05 2.7307816e-21)
(0.70225893 5.958289e-05 0)
(0.70052499 5.9663391e-05 0)
(0.69738818 6.0828288e-05 -2.8705883e-20)
(0.99791996 0.0005090384 0)
(0.99788237 0.00069655103 0)
(0.9978771 0.00085681369 0)
(0.99786734 0.0010091995 0)
(0.99785481 0.0011701573 0)
(0.99785205 0.0013413796 0)
(0.99786501 0.001517886 0)
(0.99789561 0.0016995706 0)
(0.99794744 0.0018865805 0)
(0.99802255 0.0020710287 0)
(0.99812019 0.0022451094 0)
(0.99823865 0.0024025446 0)
(0.99837465 0.0025391396 0)
(0.99852348 0.0026522064 0)
(0.99868031 0.0027411508 0)
(0.99883988 0.0028039669 0)
(0.9989974 0.0028445715 0)
(0.9991501 0.0028643081 0)
(0.99929334 0.0028646169 0)
(0.99942207 0.0028512798 0)
(0.99953371 0.0028277042 0)
(0.99962569 0.0027957571 0)
(0.99969301 0.0027564971 0)
(0.99972769 0.0027118458 0)
(0.99972003 0.0026643497 0)
(0.99965799 0.0026159746 0)
(0.99952444 0.0025686772 0)
(0.99929667 0.0025239882 0)
(0.99894265 0.0024823194 0)
(0.99841356 0.0024424373 0)
(0.99763027 0.0024033555 0)
(0.99639008 0.00236222 0)
(0.99450264 0.0023130743 0)
(0.99176651 0.0022516619 0)
(0.98799976 0.0021762007 0)
(0.9830753 0.0020908532 0)
(0.97693333 0.0019919881 0)
(0.96970382 0.0018733071 0)
(0.9616816 0.0017424028 0)
(0.95323327 0.0016071559 0)
(0.94473355 0.0014712138 0)
(0.93650139 0.0013382454 0)
(0.92875959 0.0012168138 0)
(0.92157757 0.0011131479 0)
(0.91491168 0.0010281943 0)
(0.90866462 0.00096074764 0)
(0.90273831 0.0009070355 0)
(0.89706584 0.00086145843 0)
(0.89161187 0.0008194222 0)
(0.88635926 0.00077873573 0)
(0.88129542 0.00073905682 0)
(0.87640664 0.00070070676 0)
(0.87167787 0.00066426688 0)
(0.86709417 0.00063014373 0)
(0.86264259 0.00059824068 0)
(0.85831337 0.00056827139 0)
(0.85409924 0.00054007155 0)
(0.84999359 0.00051353081 0)
(0.84598998 0.00048848309 0)
(0.84208275 0.00046481456 0)
(0.83826684 0.00044249791 0)
(0.83453766 0.00042139067 0)
(0.83089128 0.00040139636 0)
(0.827324 0.00038249389 0)
(0.82383224 0.00036458945 0)
(0.82041289 0.00034761115 0)
(0.81706303 0.00033153809 0)
(0.81377979 0.00031629631 0)
(0.81056064 0.00030183193 0)
(0.80740315 0.00028812394 0)
(0.80430495 0.0002751138 0)
(0.80126386 0.00026276486 0)
(0.7982778 0.00025104307 0)
(0.79534479 0.00023990917 0)
(0.79246291 0.00022933442 0)
(0.78963035 0.00021928419 0)
(0.78684538 0.00020973083 0)
(0.78410632 0.00020064728 0)
(0.78141159 0.00019200669 0)
(0.77875966 0.00018378574 0)
(0.77614907 0.00017596141 0)
(0.77357842 0.00016851247 0)
(0.77104634 0.00016141895 0)
(0.76855155 0.00015466229 0)
(0.76609277 0.0001482252 0)
(0.76366878 0.00014209162 0)
(0.76127841 0.00013624683 0)
(0.75892046 0.0001306773 0)
(0.75659382 0.00012537142 0)
(0.75429721 0.00012031782 0)
(0.75202967 0.00011551195 0)
(0.7497893 0.00011094249 0)
(0.74757617 0.00010662976 0)
(0.74538463 0.00010254184 0)
(0.74322196 9.8807734e-05 0)
(0.74106087 9.5306463e-05 0)
(0.73895276 9.2657218e-05 2.1912376e-21)
(0.73674358 8.9652277e-05 0)
(0.73486348 9.3896747e-05 0)
(0.73148916 8.7375923e-05 2.3236809e-20)
(0.99796276 0.00052842206 0)
(0.99791734 0.00070421972 0)
(0.99790512 0.0008621126 0)
(0.99789502 0.001012142 0)
(0.99788591 0.0011680443 0)
(0.99788753 0.0013332181 0)
(0.99790519 0.001505397 0)
(0.99794069 0.0016834837 0)
(0.99799677 0.001864709 0)
(0.9980754 0.0020430089 0)
(0.99817648 0.0022141424 0)
(0.99829866 0.0023736701 0)
(0.99843903 0.0025175221 0)
(0.99859342 0.0026425847 0)
(0.99875777 0.0027474552 0)
(0.99892706 0.0028304801 0)
(0.99909702 0.0028937678 0)
(0.99926502 0.0029372261 0)
(0.99942752 0.0029614067 0)
(0.99958152 0.0029691838 0)
(0.99972581 0.002962263 0)
(0.99985998 0.0029413229 0)
(0.99998227 0.0029068227 0)
(1.0000902 0.002860294 0)
(1.0001821 0.0028043066 0)
(1.0002562 0.0027415319 0)
(1.0003105 0.0026742759 0)
(1.0003429 0.0026051619 0)
(1.0003517 0.0025372643 0)
(1.0003353 0.0024741187 0)
(1.0002922 0.002418556 0)
(1.0002161 0.0023722454 0)
(1.0000957 0.0023361752 0)
(0.99991189 0.0023097143 0)
(0.99963591 0.0022907844 0)
(0.99921835 0.0022744888 0)
(0.99858763 0.0022554229 0)
(0.99755669 0.0022293268 0)
(0.99589348 0.0021915115 0)
(0.99337775 0.0021390098 0)
(0.98982506 0.0020728238 0)
(0.98512427 0.0019940037 0)
(0.97930202 0.0018961123 0)
(0.97260403 0.001782031 0)
(0.96535829 0.0016615962 0)
(0.95791937 0.001538584 0)
(0.95060021 0.0014190515 0)
(0.94360397 0.0013106401 0)
(0.93699428 0.0012162825 0)
(0.93074293 0.0011363977 0)
(0.92478422 0.0010693971 0)
(0.91906157 0.0010115295 0)
(0.91354204 0.00095903001 0)
(0.90820997 0.00090963124 0)
(0.90305528 0.00086250687 0)
(0.89806734 0.00081757623 0)
(0.89323393 0.00077515468 0)
(0.88854257 0.00073540388 0)
(0.88398247 0.00069811772 0)
(0.87954545 0.00066305288 0)
(0.87522465 0.00063011048 0)
(0.8710135 0.00059907289 0)
(0.86690604 0.00056978575 0)
(0.86289685 0.00054218402 0)
(0.85898098 0.00051611386 0)
(0.85515415 0.00049145765 0)
(0.85141233 0.00046816592 0)
(0.84775166 0.00044612646 0)
(0.84416876 0.00042525291 0)
(0.84066043 0.00040550198 0)
(0.83722362 0.00038678771 0)
(0.8338555 0.00036905138 0)
(0.83055342 0.00035223911 0)
(0.82731488 0.00033629229 0)
(0.82413748 0.00032116579 0)
(0.82101894 0.00030680823 0)
(0.81795711 0.00029317727 0)
(0.81494994 0.00028023209 0)
(0.81199547 0.00026793271 0)
(0.80909182 0.00025624399 0)
(0.8062372 0.00024513169 0)
(0.8034299 0.00023456416 0)
(0.80066825 0.00022451175 0)
(0.79795067 0.00021494683 0)
(0.79527565 0.00020584371 0)
(0.79264169 0.00019717854 0)
(0.79004737 0.00018892947 0)
(0.78749127 0.0001810762 0)
(0.78497204 0.00017360166 0)
(0.78248821 0.00016648822 0)
(0.7800386 0.00015972981 0)
(0.77762111 0.00015330519 0)
(0.77523561 0.00014725085 0)
(0.77287636 0.00014149564 0)
(0.77055024 0.00013627633 0)
(0.76823033 0.00013126331 0)
(0.76596706 0.00012770214 1.8972539e-21)
(0.76360601 0.00012270535 3.601975e-20)
(0.76159012 0.00013211557 0)
(0.75799521 0.00011555175 0)
(0.99800916 0.00054900709 0)
(0.99795811 0.00071365683 0)
(0.99793771 0.00086711129 0)
(0.99792373 0.0010147737 0)
(0.99791403 0.0011681317 0)
(0.997916 0.0013303056 0)
(0.99793408 0.0014992315 0)
(0.9979699 0.0016731561 0)
(0.9980258 0.0018496047 0)
(0.99810364 0.0020238908 0)
(0.99820338 0.0021917554 0)
(0.99832366 0.0023483953 0)
(0.99846173 0.0024894625 0)
(0.99861373 0.0026117365 0)
(0.99877572 0.0027136344 0)
(0.99894333 0.0027936753 0)
(0.99911258 0.0028532614 0)
(0.99928079 0.0028926493 0)
(0.99944468 0.0029125685 0)
(0.99960146 0.0029160714 0)
(0.99975013 0.002905376 0)
(0.99989014 0.0028814906 0)
(1.0000201 0.0028455911 0)
(1.000138 0.0027996629 0)
(1.0002421 0.0027460909 0)
(1.000332 0.0026871304 0)
(1.0004073 0.0026253468 0)
(1.0004678 0.0025632895 0)
(1.0005138 0.0025038872 0)
(1.0005465 0.0024503209 0)
(1.0005676 0.002403881 0)
(1.0005789 0.0023649539 0)
(1.0005816 0.0023334748 0)
(1.000576 0.0023077516 0)
(1.0005604 0.0022851841 0)
(1.0005305 0.0022639965 0)
(1.0004809 0.0022437618 0)
(1.0004002 0.0022245757 0)
(1.0002682 0.0022069966 0)
(1.0000568 0.0021913882 0)
(0.99972393 0.0021769097 0)
(0.99920442 0.002160255 0)
(0.99836176 0.0021383677 0)
(0.99696838 0.0021072845 0)
(0.99480775 0.0020629682 0)
(0.99169722 0.0020063846 0)
(0.98751655 0.0019336958 0)
(0.98233787 0.0018418045 0)
(0.97638745 0.0017384196 0)
(0.96996615 0.0016295647 0)
(0.96338794 0.0015201813 0)
(0.95690326 0.0014170682 0)
(0.9506396 0.0013238527 0)
(0.94462508 0.0012416806 0)
(0.93883435 0.0011700435 0)
(0.93323461 0.0011065046 0)
(0.92780549 0.0010484149 0)
(0.92253777 0.00099406707 0)
(0.91742576 0.0009426195 0)
(0.91246254 0.00089389956 0)
(0.90763918 0.0008480839 0)
(0.90294651 0.00080504299 0)
(0.898377 0.00076455602 0)
(0.89392439 0.00072649279 0)
(0.88958279 0.00069063084 0)
(0.88534676 0.00065680206 0)
(0.88121121 0.00062491734 0)
(0.87717141 0.0005948115 0)
(0.87322317 0.00056635494 0)
(0.86936259 0.00053947353 0)
(0.86558592 0.00051404563 0)
(0.86188973 0.00048998317 0)
(0.8582708 0.00046720607 0)
(0.8547261 0.00044563093 0)
(0.85125275 0.00042519133 0)
(0.84784803 0.00040581487 0)
(0.84450937 0.00038744073 0)
(0.84123433 0.00037001094 0)
(0.83802057 0.00035346936 0)
(0.83486587 0.00033776617 0)
(0.83176811 0.0003228534 0)
(0.82872525 0.00030868664 0)
(0.82573534 0.00029522434 0)
(0.82279652 0.00028242786 0)
(0.81990697 0.00027026126 0)
(0.81706497 0.00025869115 0)
(0.81426884 0.00024768702 0)
(0.81151691 0.00023722033 0)
(0.80880763 0.00022726723 0)
(0.80613929 0.00021780253 0)
(0.80351049 0.00020881765 0)
(0.80091899 0.00020028006 0)
(0.79836437 0.00019224232 0)
(0.79584087 0.00018459103 0)
(0.79335491 0.00017767636 0)
(0.79087999 0.00017094087 0)
(0.78846565 0.00016632717 0)
(0.78595681 0.00015880939 0)
(0.78380991 0.00017439837 5.3472244e-20)
(0.7800019 0.00014580338 0)
(0.99805589 0.00057037997 0)
(0.99800243 0.0007249694 0)
(0.99797603 0.00087363024 0)
(0.99795826 0.0010187345 0)
(0.99794685 0.0011693021 0)
(0.99794756 0.0013278765 0)
(0.99796427 0.0014926911 0)
(0.99799862 0.001662049 0)
(0.99805268 0.0018337584 0)
(0.9981281 0.0020036083 0)
(0.9982249 0.0021673076 0)
(0.99834176 0.002320331 0)
(0.99847616 0.0024586308 0)
(0.99862448 0.0025791508 0)
(0.99878293 0.0026802629 0)
(0.9989474 0.0027606094 0)
(0.99911406 0.0028211538 0)
(0.99928018 0.0028623337 0)
(0.99944266 0.0028848545 0)
(0.99959879 0.00289124 0)
(0.99974746 0.0028837168 0)
(0.99988802 0.0028633538 0)
(1.000019 0.0028310771 0)
(1.0001388 0.0027886365 0)
(1.0002462 0.0027383116 0)
(1.0003403 0.0026823942 0)
(1.0004211 0.002623297 0)
(1.0004886 0.0025635714 0)
(1.0005432 0.0025058601 0)
(1.0005864 0.0024528468 0)
(1.0006208 0.0024060982 0)
(1.0006485 0.002366294 0)
(1.0006721 0.002333684 0)
(1.0006934 0.0023070351 0)
(1.000713 0.0022843771 0)
(1.0007303 0.0022643794 0)
(1.0007442 0.002245973 0)
(1.0007527 0.00222828 0)
(1.000753 0.0022111953 0)
(1.0007417 0.0021946024 0)
(1.0007141 0.0021780564 0)
(1.0006639 0.0021615759 0)
(1.0005807 0.0021451181 0)
(1.000442 0.0021285367 0)
(1.0002161 0.0021120211 0)
(0.99985367 0.0020946445 0)
(0.99928369 0.0020749395 0)
(0.99833447 0.0020504964 0)
(0.99680014 0.0020170124 0)
(0.99448603 0.0019724531 0)
(0.99123631 0.0019139282 0)
(0.98702786 0.0018375911 0)
(0.98200878 0.001747995 0)
(0.97641857 0.0016514196 0)
(0.9705396 0.0015530534 0)
(0.96461316 0.0014586837 0)
(0.95878194 0.0013710709 0)
(0.95309869 0.001291737 0)
(0.9475658 0.001220537 0)
(0.94217264 0.0011558834 0)
(0.93691316 0.0010960629 0)
(0.93178626 0.0010398588 0)
(0.92679098 0.0009867057 0)
(0.92192354 0.00093658355 0)
(0.91717824 0.00088937479 0)
(0.91254967 0.00084490099 0)
(0.90803307 0.00080303246 0)
(0.9036239 0.00076355116 0)
(0.89931783 0.00072628803 0)
(0.89511066 0.00069113593 0)
(0.89099836 0.00065793066 0)
(0.88697721 0.00062654944 0)
(0.88304366 0.00059688125 0)
(0.87919434 0.00056881261 0)
(0.87542605 0.0005422509 0)
(0.87173573 0.00051709833 0)
(0.86812051 0.00049327182 0)
(0.86457763 0.0004706928 0)
(0.86110445 0.00044928582 0)
(0.85769846 0.00042898364 0)
(0.85435725 0.0004097219 0)
(0.85107851 0.00039144106 0)
(0.84786002 0.00037408548 0)
(0.84469965 0.00035760341 0)
(0.84159536 0.00034194679 0)
(0.83854515 0.00032707094 0)
(0.83554713 0.00031293499 0)
(0.83259941 0.00029950067 0)
(0.8297002 0.00028673594 0)
(0.82684759 0.00027460672 0)
(0.82404 0.00026310082 0)
(0.82127496 0.00025217311 0)
(0.81855188 0.00024189173 0)
(0.81586487 0.00023209885 0)
(0.81322001 0.00022326146 0)
(0.81059108 0.00021457976 0)
(0.80802698 0.00020874732 0)
(0.8053715 0.0001983226 0)
(0.80309543 0.00022092257 5.0159233e-20)
(0.79907708 0.00017851325 0)
(0.99810161 0.00059196743 0)
(0.99804779 0.00073760309 0)
(0.99801772 0.00088142928 0)
(0.99799741 0.0010236232 0)
(0.99798468 0.0011710057 0)
(0.99798403 0.0013256853 0)
(0.99799896 0.0014862231 0)
(0.99803119 0.0016510145 0)
(0.99808263 0.001817962 0)
(0.99815481 0.0019832189 0)
(0.99824783 0.0021426976 0)
(0.99836049 0.002292204 0)
(0.99849048 0.0024279143 0)
(0.99863445 0.0025468418 0)
(0.99878876 0.0026472664 0)
(0.9989495 0.0027278714 0)
(0.99911296 0.0027892507 0)
(0.99927636 0.0028318397 0)
(0.9994367 0.0028562906 0)
(0.99959135 0.0028647894 0)
(0.99973905 0.0028593661 0)
(0.99987899 0.0028411186 0)
(1.0000098 0.0028110523 0)
(1.0001299 0.0027708761 0)
(1.0002381 0.0027228066 0)
(1.0003338 0.0026690919 0)
(1.0004167 0.0026120727 0)
(1.0004869 0.0025542094 0)
(1.0005451 0.0024981024 0)
(1.0005927 0.0024464008 0)
(1.0006321 0.002400706 0)
(1.0006658 0.0023617811 0)
(1.0006962 0.0023297935 0)
(1.0007253 0.0023036031 0)
(1.0007544 0.0022814584 0)
(1.0007835 0.0022618962 0)
(1.000812 0.0022437141 0)
(1.0008389 0.0022261383 0)
(1.0008635 0.0022091636 0)
(1.0008848 0.0021927913 0)
(1.000902 0.0021769314 0)
(1.000914 0.0021615579 0)
(1.0009192 0.0021461821 0)
(1.0009143 0.0021305713 0)
(1.0008946 0.0021148102 0)
(1.0008537 0.0020989975 0)
(1.0007839 0.0020831522 0)
(1.0006681 0.0020669182 0)
(1.000477 0.0020501122 0)
(1.000168 0.0020323824 0)
(0.99967828 0.0020128783 0)
(0.99887611 0.0019900554 0)
(0.99757346 0.001960467 0)
(0.99558637 0.0019216136 0)
(0.99275403 0.0018690258 0)
(0.98904688 0.001799958 0)
(0.9845723 0.0017194646 0)
(0.97953469 0.0016322296 0)
(0.9741841 0.0015435976 0)
(0.968728 0.0014577915 0)
(0.96329431 0.0013769037 0)
(0.95793799 0.0013023549 0)
(0.95267453 0.001233965 0)
(0.94750857 0.001170716 0)
(0.94244528 0.0011114659 0)
(0.93748967 0.0010554944 0)
(0.93264351 0.0010026188 0)
(0.92790549 0.00095268495 0)
(0.92327332 0.00090554359 0)
(0.91874452 0.00086107385 0)
(0.91431634 0.00081907877 0)
(0.90998585 0.00077941082 0)
(0.90574999 0.00074193285 0)
(0.9016057 0.00070650137 0)
(0.89754997 0.00067299654 0)
(0.89357987 0.00064129377 0)
(0.8896925 0.00061128556 0)
(0.88588507 0.00058287031 0)
(0.88215486 0.00055595098 0)
(0.87849923 0.00053044061 0)
(0.87491565 0.00050625636 0)
(0.87140163 0.00048332148 0)
(0.86795479 0.00046156432 0)
(0.86457283 0.0004409182 0)
(0.86125352 0.0004213212 0)
(0.85799469 0.00040271568 0)
(0.85479424 0.0003850489 0)
(0.85165011 0.00036827136 0)
(0.84856033 0.00035234146 0)
(0.84552281 0.00033721492 0)
(0.84253577 0.00032287476 0)
(0.8395966 0.00030926216 0)
(0.83670448 0.00029645998 0)
(0.83385349 0.00028426429 0)
(0.83104931 0.00027326124 0)
(0.82826601 0.00026239617 0)
(0.82555198 0.00025516475 0)
(0.82274954 0.0002414665 -1.4747733e-20)
(0.82034456 0.00027184657 0)
(0.8161161 0.00021389516 -8.4285295e-21)
(0.99814609 0.00061350407 0)
(0.99809301 0.00075108402 0)
(0.99806084 0.00089002589 0)
(0.99803912 0.0010290297 0)
(0.99802584 0.0011730537 0)
(0.99802441 0.0013238031 0)
(0.99803793 0.0014800647 0)
(0.99806815 0.0016402896 0)
(0.99811687 0.0018024575 0)
(0.99818557 0.0019630834 0)
(0.99827443 0.0021183302 0)
(0.99838246 0.002264276 0)
(0.99850756 0.0023972892 0)
(0.99864666 0.0025144608 0)
(0.99879632 0.0026140114 0)
(0.99895282 0.0026946487 0)
(0.9991126 0.0027566707 0)
(0.99927282 0.0028004669 0)
(0.99943059 0.0028266405 0)
(0.99958331 0.0028370908 0)
(0.99972958 0.0028337039 0)
(0.99986847 0.0028176135 0)
(0.99999862 0.0027898646 0)
(1.0001185 0.0027521077 0)
(1.0002269 0.0027064691 0)
(1.0003232 0.0026551351 0)
(1.0004073 0.0026003865 0)
(1.0004791 0.0025446263 0)
(1.0005393 0.0024903796 0)
(1.0005894 0.0024401788 0)
(1.0006317 0.0023956143 0)
(1.0006685 0.0023574404 0)
(1.0007021 0.0023258471 0)
(1.0007349 0.0022998452 0)
(1.0007679 0.0022777832 0)
(1.0008014 0.0022582503 0)
(1.0008351 0.0022401437 0)
(1.0008684 0.002222768 0)
(1.0009007 0.0022060974 0)
(1.0009316 0.002190134 0)
(1.0009611 0.0021747578 0)
(1.0009888 0.0021598071 0)
(1.0010142 0.0021448224 0)
(1.0010363 0.0021296397 0)
(1.0010539 0.0021143765 0)
(1.0010656 0.0020991583 0)
(1.0010699 0.0020839228 0)
(1.0010641 0.0020685043 0)
(1.0010435 0.0020530407 0)
(1.0010015 0.0020376638 0)
(1.0009296 0.0020223533 0)
(1.0008119 0.0020066857 0)
(1.0006189 0.0019901521 0)
(1.0003073 0.0019722686 0)
(0.99981437 0.001952676 0)
(0.9990066 0.0019300037 0)
(0.99771478 0.0019009964 0)
(0.99576769 0.0018628967 0)
(0.9930272 0.0018106493 0)
(0.98949458 0.0017443224 0)
(0.98527336 0.001669003 0)
(0.98055865 0.0015889539 0)
(0.97556602 0.0015084193 0)
(0.97046386 0.0014298152 0)
(0.96535126 0.0013553485 0)
(0.96027404 0.0012859059 0)
(0.95525291 0.001221249 0)
(0.95030188 0.0011605351 0)
(0.94543235 0.001103113 0)
(0.9406514 0.0010487517 0)
(0.93596215 0.00099728905 0)
(0.9313656 0.00094860535 0)
(0.92686176 0.00090256422 0)
(0.92244987 0.00085901197 0)
(0.91812858 0.00081781709 0)
(0.91389611 0.00077883767 0)
(0.90975047 0.00074194726 0)
(0.9056895 0.00070702429 0)
(0.90171093 0.00067395158 0)
(0.89781244 0.00064262276 0)
(0.89399169 0.00061293609 0)
(0.89024635 0.00058479695 0)
(0.88657409 0.00055811678 0)
(0.88297262 0.00053281297 0)
(0.87943968 0.00050880861 0)
(0.87597306 0.00048603201 0)
(0.87257058 0.00046441736 0)
(0.86923008 0.00044390282 0)
(0.86594948 0.00042443605 0)
(0.86272659 0.00040596152 0)
(0.85955948 0.00038845638 0)
(0.85644544 0.00037184711 0)
(0.85338347 0.0003562304 0)
(0.8503676 0.00034135504 0)
(0.84740324 0.00032792782 0)
(0.84446463 0.00031462828 0)
(0.84159987 0.0003058038 7.6723428e-22)
(0.83864944 0.00028844971 0)
(0.83611502 0.00032736366 4.7533845e-20)
(0.83167533 0.00025214093 0)
(0.99818942 0.00063482926 0)
(0.99813769 0.00076511857 0)
(0.99810443 0.00089915239 0)
(0.99808203 0.0010347422 0)
(0.99806874 0.0011752985 0)
(0.9980671 0.0013221193 0)
(0.99807976 0.0014741291 0)
(0.99810843 0.0016298225 0)
(0.99815478 0.0017872589 0)
(0.99822019 0.001943276 0)
(0.99830497 0.002094284 0)
(0.99840829 0.0022366089 0)
(0.9985283 0.0023668159 0)
(0.99866223 0.0024820939 0)
(0.99880686 0.0025806305 0)
(0.99895872 0.0026611467 0)
(0.99911438 0.0027237007 0)
(0.99927101 0.0027686125 0)
(0.99942579 0.002796432 0)
(0.99957619 0.0028088051 0)
(0.99972067 0.0028074729 0)
(0.99985817 0.0027935779 0)
(0.99998734 0.0027681822 0)
(1.0001066 0.0027328761 0)
(1.000215 0.002689697 0)
(1.0003116 0.0026407695 0)
(1.0003964 0.0025883147 0)
(1.0004693 0.002534674 0)
(1.000531 0.002482285 0)
(1.0005829 0.0024335647 0)
(1.0006271 0.0023900933 0)
(1.000666 0.0023526449 0)
(1.0007018 0.0023214323 0)
(1.0007366 0.0022955885 0)
(1.0007717 0.002273593 0)
(1.0008074 0.0022541186 0)
(1.0008435 0.0022361273 0)
(1.0008797 0.00221894 0)
(1.0009153 0.0022024772 0)
(1.0009503 0.0021867206 0)
(1.0009846 0.0021715373 0)
(1.0010182 0.0021567629 0)
(1.0010508 0.0021420066 0)
(1.0010819 0.0021271207 0)
(1.001111 0.0021122166 0)
(1.0011376 0.0020974299 0)
(1.0011614 0.0020826968 0)
(1.0011814 0.0020678699 0)
(1.0011966 0.0020530544 0)
(1.0012052 0.0020383448 0)
(1.0012056 0.0020236669 0)
(1.0011947 0.0020087857 0)
(1.0011675 0.0019937504 0)
(1.0011163 0.0019788341 0)
(1.0010314 0.0019639324 0)
(1.0008934 0.0019485026 0)
(1.0006694 0.0019319931 0)
(1.0003116 0.0019138697 0)
(0.99974169 0.0018938501 0)
(0.99881539 0.0018700517 0)
(0.9973767 0.0018397443 0)
(0.99526494 0.0017979522 0)
(0.99241062 0.0017426376 0)
(0.98884197 0.0016774395 0)
(0.98469122 0.0016058058 0)
(0.98014874 0.0015313605 0)
(0.97539203 0.0014567252 0)
(0.97054513 0.0013843837 0)
(0.96567706 0.001315805 0)
(0.96082412 0.0012512956 0)
(0.95600977 0.0011904015 0)
(0.95125153 0.0011326587 0)
(0.94656127 0.0010778276 0)
(0.9419461 0.0010257867 0)
(0.9374102 0.00097644306 0)
(0.93295595 0.00092966893 0)
(0.92858451 0.00088534446 0)
(0.92429601 0.00084334788 0)
(0.92008994 0.0008035549 0)
(0.9159653 0.00076584846 0)
(0.91192076 0.00073011374 0)
(0.90795471 0.00069624188 0)
(0.90406542 0.00066412954 0)
(0.90025101 0.00063367942 0)
(0.89650952 0.00060480026 0)
(0.89283896 0.00057740648 0)
(0.88923729 0.00055141912 0)
(0.88570245 0.00052676366 0)
(0.88223237 0.00050337654 0)
(0.8788249 0.00048119041 0)
(0.87547806 0.00046017585 0)
(0.87218913 0.00044024405 0)
(0.86895702 0.00042150476 0)
(0.86577574 0.00040365875 0)
(0.86265049 0.00038753452 0)
(0.85955571 0.00037153611 0)
(0.85653936 0.00036091094 0)
(0.8534398 0.00033950343 0)
(0.85077514 0.00038771764 0)
(0.84612256 0.00029345521 0)
(0.99823177 0.00065583248 0)
(0.99818179 0.00077950894 0)
(0.99814813 0.00090865838 0)
(0.99812546 0.0010406398 0)
(0.99811244 0.001177614 0)
(0.99811093 0.001320488 0)
(0.99812314 0.0014682707 0)
(0.9981507 0.0016194931 0)
(0.99819512 0.001772284 0)
(0.99825766 0.0019237541 0)
(0.99833868 0.002070553 0)
(0.99843751 0.0022092416 0)
(0.99855252 0.0023365807 0)
(0.99868123 0.0024498667 0)
(0.99882068 0.0025472743 0)
(0.99896764 0.0026275326 0)
(0.99911885 0.0026905058 0)
(0.99927154 0.0027364313 0)
(0.99942297 0.0027658001 0)
(0.99957066 0.0027800342 0)
(0.999713 0.0027807267 0)
(0.9998488 0.0027690106 0)
(0.9999767 0.0027459551 0)
(1.0000952 0.0027130934 0)
(1.0002032 0.0026723761 0)
(1.0002999 0.0026258636 0)
(1.0003852 0.0025757145 0)
(1.0004589 0.0025242036 0)
(1.0005218 0.0024736828 0)
(1.0005752 0.0024264631 0)
(1.000621 0.0023841111 0)
(1.0006615 0.002347421 0)
(1.0006988 0.0023166257 0)