/*--------------------------------*- C++ -*----------------------------------*\
  =========                 |
  \\      /  F ield         | OpenFOAM: The Open Source CFD Toolbox
   \\    /   O peration     | Website:  https://openfoam.org
    \\  /    A nd           | Version:  12
     \\/     M anipulation  |
\*---------------------------------------------------------------------------*/
FoamFile
{
    format      ascii;
    class       volVectorField;
    location    "700";
    object      wallShearStress;
}
// * * * * * * * * * * * * * * * * * * * * * * * * * * * * * * * * * * * * * //

dimensions      [0 2 -2 0 0 0 0];

internalField   uniform (0 0 0);

boundaryField
{
    inlet
    {
        type            calculated;
        value           uniform (0 0 0);
    }
    top
    {
        type            calculated;
        value           uniform (0 0 0);
    }
    outlet
    {
        type            calculated;
        value           uniform (0 0 0);
    }
    slipsurface
    {
        type            calculated;
        value           uniform (0 0 0);
    }
    bottom
    {
        type            calculated;
        value           nonuniform List<vector> 
100
(
(-0.00062156949 -3.5362448e-07 1.2470304e-21)
(-0.00072031982 -4.8535973e-07 4.0260217e-23)
(-0.00083962795 -7.9830583e-07 0)
(-0.00097411046 -1.205646e-06 7.8117072e-21)
(-0.0011218846 -1.7330897e-06 4.6306504e-20)
(-0.0012805882 -2.2787329e-06 -4.5743277e-20)
(-0.0014465179 -2.8311226e-06 4.7446978e-22)
(-0.0016146758 -3.7905666e-06 1.3661747e-19)
(-0.0017789721 -4.9171369e-06 0)
(-0.001932797 -6.1361184e-06 3.8915149e-19)
(-0.0020697363 -7.3851562e-06 0)
(-0.002184701 -8.5855412e-06 -6.1605404e-19)
(-0.0022744292 -9.654666e-06 0)
(-0.0023377333 -1.0503698e-05 1.1938525e-18)
(-0.0023752907 -1.1150449e-05 -1.9876347e-22)
(-0.002389621 -1.1389621e-05 1.3785455e-18)
(-0.0023828701 -1.1412053e-05 0)
(-0.0023651232 -1.1185451e-05 0)
(-0.0023257456 -1.0669093e-05 3.9300998e-19)
(-0.002282042 -9.9979985e-06 3.6032324e-19)
(-0.0022327553 -9.1770903e-06 6.4894306e-19)
(-0.0021803685 -8.2356306e-06 0)
(-0.0021271781 -7.2301215e-06 -4.1216247e-19)
(-0.0020750612 -6.2143506e-06 0)
(-0.0020255292 -5.218426e-06 1.0320623e-19)
(-0.0019797999 -4.2696667e-06 0)
(-0.0019388148 -3.3875435e-06 -0)
(-0.0019032442 -2.5961044e-06 0)
(-0.0018734642 -1.920469e-06 -4.998996e-21)
(-0.0018494401 -1.3818084e-06 -4.5876927e-20)
(-0.0018306315 -9.9699443e-07 0)
(-0.0018160115 -7.620512e-07 7.0201999e-20)
(-0.0018042022 -6.5232888e-07 -6.0282749e-20)
(-0.0017937746 -6.3024715e-07 0)
(-0.0017836022 -6.5291976e-07 0)
(-0.0017730542 -6.8416663e-07 9.8032878e-21)
(-0.0017619694 -7.0178615e-07 0)
(-0.0017504871 -6.9795401e-07 0)
(-0.0017388297 -6.7837653e-07 0)
(-0.001727146 -6.5382928e-07 -0)
(-0.0017154716 -6.324911e-07 -0)
(-0.0017037763 -6.1680471e-07 -0)
(-0.0016920392 -6.0432013e-07 -0)
(-0.0016802916 -5.9154586e-07 0)
(-0.0016686041 -5.7655746e-07 -0)
(-0.0016570466 -5.5918947e-07 -0)
(-0.0016456599 -5.4031492e-07 0)
(-0.001634456 -5.2087435e-07 0)
(-0.0016234338 -5.0146222e-07 0)
(-0.0016125922 -4.8221788e-07 -0)
(-0.0016019327 -4.6315512e-07 0)
(-0.0015914562 -4.4432249e-07 0)
(-0.0015811623 -4.259155e-07 0)
(-0.0015710475 -4.0815785e-07 -0)
(-0.0015611068 -3.9105862e-07 0)
(-0.0015513368 -3.7454977e-07 0)
(-0.0015417346 -3.5866479e-07 0)
(-0.0015322958 -3.4346502e-07 0)
(-0.0015230152 -3.2888371e-07 0)
(-0.0015138906 -3.1487886e-07 -0)
(-0.0015049175 -3.0153313e-07 0)
(-0.0014960901 -2.8880673e-07 0)
(-0.0014874036 -2.7664447e-07 0)
(-0.0014788541 -2.6505387e-07 0)
(-0.0014704373 -2.5398106e-07 0)
(-0.0014621499 -2.433857e-07 0)
(-0.0014539885 -2.3327994e-07 0)
(-0.0014459492 -2.2362593e-07 0)
(-0.0014380287 -2.1439488e-07 -0)
(-0.0014302237 -2.0559158e-07 -0)
(-0.0014225306 -1.9718322e-07 -0)
(-0.0014149462 -1.8915195e-07 0)
(-0.0014074674 -1.8148407e-07 0)
(-0.0014000912 -1.7415668e-07 0)
(-0.0013928146 -1.6715549e-07 0)
(-0.0013856348 -1.6046137e-07 0)
(-0.0013785491 -1.5406119e-07 0)
(-0.0013715549 -1.4794156e-07 0)
(-0.0013646497 -1.4208772e-07 0)
(-0.0013578311 -1.36488e-07 0)
(-0.0013510967 -1.3112977e-07 0)
(-0.0013444442 -1.2600142e-07 0)
(-0.0013378715 -1.2109248e-07 0)
(-0.0013313763 -1.1639265e-07 0)
(-0.0013249567 -1.1189274e-07 -0)
(-0.0013186105 -1.0758411e-07 0)
(-0.0013123358 -1.0345879e-07 -0)
(-0.0013061303 -9.9509903e-08 -0)
(-0.0012999923 -9.573121e-08 0)
(-0.001293919 -9.2118039e-08 0)
(-0.0012879091 -8.8666118e-08 0)
(-0.001281958 -8.5377154e-08 0)
(-0.0012760673 -8.2252214e-08 0)
(-0.0012702207 -7.9316784e-08 0)
(-0.0012644422 -7.6559267e-08 0)
(-0.0012586486 -7.4261692e-08 -0)
(-0.0012530001 -7.040457e-08 8.784017e-24)
(-0.0012470236 -1.0842468e-07 -1.6491822e-22)
(-0.0012420288 -7.3708178e-08 5.3759973e-22)
(-0.0012327688 -1.0966598e-07 2.1474947e-20)
)
;
    }
    frontandback
    {
        type            empty;
    }
}


// ************************************************************************* //
