/*--------------------------------*- C++ -*----------------------------------*\
  =========                 |
  \\      /  F ield         | OpenFOAM: The Open Source CFD Toolbox
   \\    /   O peration     | Website:  https://openfoam.org
    \\  /    A nd           | Version:  12
     \\/     M anipulation  |
\*---------------------------------------------------------------------------*/
FoamFile
{
    format      ascii;
    class       volScalarField;
    location    "700";
    object      yPlus;
}
// * * * * * * * * * * * * * * * * * * * * * * * * * * * * * * * * * * * * * //

dimensions      [];

internalField   uniform 0;

boundaryField
{
    inlet
    {
        type            calculated;
        value           uniform 0;
    }
    top
    {
        type            calculated;
        value           uniform 0;
    }
    outlet
    {
        type            calculated;
        value           uniform 0;
    }
    slipsurface
    {
        type            calculated;
        value           uniform 0;
    }
    bottom
    {
        type            calculated;
        value           nonuniform List<scalar> 
100
(
15.265714
18.393294
22.302993
26.870679
32.075601
37.876283
44.179167
50.831117
57.62618
64.317692
70.642802
76.368083
81.314729
85.375323
88.514556
90.774015
92.182883
93.145494
93.114753
92.849886
92.262037
91.440152
90.467992
89.418647
88.355456
87.33354
86.400556
85.595494
84.947233
84.469987
84.156942
83.97798
83.884259
83.821047
83.743613
83.627214
83.467473
83.273497
83.05834
82.831795
82.598103
82.357658
82.110211
81.85702
81.600862
81.344722
81.090591
80.839215
80.590654
80.344894
80.102031
79.862128
79.625221
79.391262
79.16017
78.931886
78.706365
78.483531
78.263297
78.045657
77.830541
77.617828
77.407419
77.199251
76.993268
76.789425
76.587677
76.387971
76.19026
75.994496
75.800628
75.60861
75.418405
75.229966
75.043249
74.858215
74.674828
74.49305
74.312847
74.134182
73.957024
73.781339
73.607095
73.434261
73.262805
73.092696
72.923902
72.756389
72.590125
72.425064
72.261181
72.098393
71.936729
71.77587
71.616272
71.456284
71.2991
71.13437
70.994406
70.73663
)
;
    }
    frontandback
    {
        type            empty;
    }
}


// ************************************************************************* //
