#             y      gradU_xx      gradU_xy      gradU_xz      gradU_yx      gradU_yy      gradU_yz      gradU_zx      gradU_zy      gradU_zz             U_x             U_y             U_z               k             nut           omega
   3.113662e-05      -1.7961007   -0.0011322825   2.0354141e-19       5542.9929       1.6588674   -2.336603e-18  -3.2129504e-15   8.2545434e-18   -1.821897e-35      0.17439595   3.2933966e-05  -3.4104694e-23     0.012095849   6.4227279e-09       4021342.1
  5.3394177e-05      -3.0675936   -0.0029595457   1.2626275e-19       5538.8628       3.0173325  -2.7550292e-19    3.847967e-14   2.0819042e-17   9.5499866e-36       0.2978367   8.6562898e-05  -9.8939902e-23     0.008420555    1.400461e-08        863328.7
  7.7022295e-05      -4.4151786   -0.0059491382  -8.9552784e-20       5532.5426       4.3874155    3.265426e-18   1.3457421e-14   4.2469196e-18  -7.3913019e-36      0.42875846   0.00017517119  -3.1745387e-23    0.0069999635   2.5904033e-08        332457.7
  0.00010210537      -5.8417035    -0.010320742  -7.6963583e-20       5523.0432       5.8216307   2.3681717e-18  -2.0051941e-14  -2.1951028e-17  -7.3954184e-36      0.56754617   0.00030455063   6.2353074e-23    0.0063438975   4.3323162e-08       167881.05
  0.00012873299      -7.3489045    -0.016290475   1.4438718e-19       5509.2308       7.3251444   5.1186211e-19  -2.4120864e-14  -3.2064491e-17  -1.0480125e-36      0.71457282     0.000480992   8.2040628e-23    0.0060781302   6.7942702e-08       98694.121
  0.00015700027      -8.9369664    -0.024119291   1.2432093e-19       5489.7279       8.9098637  -1.9305927e-20  -2.3421622e-14  -3.9284327e-17  -7.6255949e-36      0.87018498   0.00071206919    9.060371e-23    0.0060652031   1.0178387e-07       64135.914
  0.00018700818      -10.603988     -0.03409787  -1.6897092e-19        5463.018       10.575182  -2.4137956e-18  -1.9090259e-14  -3.4466553e-17  -3.7690873e-36       1.0346873    0.0010063181   7.7873201e-23    0.0062440457   1.4684445e-07       44943.214
  0.00021886389      -12.345485    -0.046532161  -1.6528706e-19       5427.5892       12.316064  -5.0952272e-18   1.2685933e-14   3.7931716e-17  -1.9241903e-35       1.2083278    0.0013731414  -7.6343422e-23     0.006585163   2.0458833e-07       33534.124
  0.00025268119      -14.153907    -0.061740263   7.3317634e-20       5382.0365       14.125014  -1.8712764e-18   4.6733994e-14   1.2542361e-16  -7.7784715e-36       1.3912861     0.001822805  -2.5991684e-22    0.0070744212   2.7550629e-07       26444.188
  0.00028858087      -16.017994    -0.080044523   1.0677629e-19       5325.0326       15.989402    4.080995e-18   3.0976188e-14    8.427324e-17   1.1887128e-35       1.5836614    0.0023663885  -1.7486354e-22    0.0077062349   3.5906665e-07       21904.788
  0.00032669115      -17.921728     -0.10174879   1.4769471e-20       5255.8811       17.892182   3.6151566e-18  -7.2526132e-15  -3.0826158e-17   2.1615239e-36       1.7854556     0.003015518   6.0739986e-23    0.0084804742   4.5421761e-07       18931.827
  0.00036714817      -19.846298     -0.12713809  -9.6708552e-21       5175.0259       19.817571  -4.3203373e-19  -1.2053978e-14  -4.1846566e-17  -2.7464606e-36       1.9966082    0.0037823035    8.410532e-23     0.009401162   5.5069964e-07       16939.061
  0.00041009642      -21.769091     -0.15647087  -1.7935461e-20       5081.4373        21.74315   7.7309595e-19  -1.2744559e-15  -5.0953935e-18  -2.9149191e-36       2.2170254    0.0046794193   1.1283374e-23     0.010476694   6.3925275e-07       15557.239
  0.00045568931      -23.650928     -0.18989591   1.4004931e-19       4969.9018       23.626415   2.6844123e-18  -1.6287581e-14  -8.5891215e-17  -1.9937867e-36       2.4463832    0.0057192116   1.8175784e-22     0.011719564   7.3231938e-07       14543.085
  0.00050408968      -25.431496     -0.22736849   1.3905412e-19       4833.4394       25.407791  -1.1246007e-18  -2.3985367e-14  -1.2244444e-16  -2.2168493e-36       2.6838813    0.0069123624   2.5552858e-22     0.013144145   8.4550098e-07       13731.326
  0.00055547043      -27.037148     -0.26861142   -2.085334e-19       4666.0472       27.015483  -3.1294275e-18   -4.393333e-15  -1.7879195e-17  -5.2381922e-36       2.9281902    0.0082667398   3.0862067e-23     0.014764302   9.8758035e-07       13007.792
  0.00061001506      -28.381082     -0.31300556   8.5699873e-21       4461.9602       28.363067  -2.1715899e-18   4.5779172e-15   2.7582021e-17    1.162078e-35       3.1773968    0.0097858407  -6.1776438e-23     0.016590398   1.1733267e-06       12293.217
   0.0006679184      -29.364063      -0.3594545   1.5601858e-19       4215.3524       29.352584  -2.5433207e-18   1.0436466e-14   7.7602421e-17  -5.5506246e-36       3.4288588     0.011466743  -2.1423643e-22     0.018623814    1.426822e-06       11533.875
  0.00072938728      -29.887735     -0.40630972  -4.6625438e-19       3922.1991       29.889093   1.9564202e-18   1.7176517e-14   1.3092372e-16  -2.7283366e-35       3.6791085     0.013298187  -3.7041402e-22     0.020848852   1.7797629e-06       10697.354
  0.00079464125      -29.875689     -0.45159335  -5.1040926e-19       3583.2426       29.887208   5.8005669e-18  -6.1464847e-16  -1.7746949e-17   3.0777506e-36       3.9239222     0.015259651   1.0366351e-22     0.023223309   2.2655076e-06       9771.4589
  0.00086391338      -29.262459     -0.49312828   1.3468738e-20       3206.3322       29.270449  -1.4308799e-18  -1.2815863e-14  -1.1489965e-16  -1.4223652e-36       4.1586689     0.017319739   3.9592126e-22     0.025671132   2.9020002e-06       8763.2321
   0.0009374511      -27.980479      -0.5280034   9.9569839e-20       2804.6955        27.98678  -4.9376898e-18   3.1409062e-15   4.2416636e-17  -8.3361046e-36       4.3788699     0.019435149  -2.0731827e-22     0.028081709   3.6936632e-06       7695.2127
   0.0010155171      -26.032515     -0.55582339   5.5545793e-20       2392.9609       26.062921   3.1719142e-18   8.0836887e-15   8.2061989e-17  -2.4996457e-36       4.5805355     0.021551413  -2.9821078e-22     0.030315246   4.6849218e-06       6600.0814
   0.0010983902      -23.570645     -0.57844577   2.7804611e-19       1986.4292        23.63027   4.2988648e-18  -4.7881378e-15  -6.3789313e-17  -1.2882728e-35       4.7603691     0.023611831   4.0276868e-22     0.032211109   5.9346911e-06       5515.9922
   0.0011863663      -20.759802     -0.59405286   2.9668612e-19       1599.3829       20.815917  -2.7679002e-18  -5.5238228e-15  -6.6767688e-17  -2.1303813e-36       4.9161495     0.025565064   3.5158666e-22     0.033632982   7.4852092e-06       4482.0899
   0.0012797599      -17.620444     -0.59645597   8.9897697e-20       1241.4042       17.656276  -2.8649865e-18   1.0040313e-15   1.6553669e-17  -1.5482732e-37       5.0466699     0.027358065  -1.6064539e-22     0.034536197   9.5657894e-06        3536.459
   0.0013789043      -14.224951      -0.5811265    2.034964e-19       921.97792       14.261045   8.4365487e-19   1.2519937e-15   1.7995253e-17   -4.087674e-36       5.1514693     0.028929147  -1.3664001e-22     0.034970322   1.2747471e-05       2715.7384
   0.0014841538       -10.93477     -0.55504086   2.1832546e-19       655.81394       10.987219   6.5754049e-19   -1.112927e-16  -2.1199053e-18   4.7613824e-37       5.2316853      0.03023343   3.3849904e-23     0.035038127   1.7470647e-05       2045.9938
   0.0015958843      -8.1731092     -0.52987848  -4.6873432e-20       452.95851       8.2191643  -5.1075691e-19  -4.6357391e-17  -3.6072643e-19   2.2848915e-37       5.2908782     0.031275503  -2.3070561e-23     0.034872355    2.367017e-05       1529.3007
   0.0017144948      -6.0519457     -0.50889599  -1.5830886e-19       308.44569       6.0762475  -4.3077729e-20   1.9039961e-16   3.8919399e-18  -5.6643035e-37       5.3337965      0.03209498  -8.8290243e-23     0.034614947   3.1385107e-05       1146.0302
    0.001840409      -4.4522915     -0.49067246  -1.5083692e-19       208.62953       4.4701524   1.5090507e-19   6.8420372e-17   1.2356772e-18  -7.4796651e-37       5.3646582     0.032735993  -1.6118898e-23     0.034387535   4.0945101e-05       868.97781
   0.0019740768      -3.2627866      -0.4752078  -8.4013386e-20       140.92172       3.2786235  -4.5483838e-19   3.4453845e-17   9.8902238e-19  -3.5589649e-37       5.3867611     0.033235325  -6.1014389e-23      0.03426158   5.2457561e-05        672.1099
   0.0021159754      -2.3974698     -0.46285944  -1.1978233e-19       95.745538       2.4082772   1.4922244e-19   1.2386437e-16    3.141206e-18    1.184951e-37       5.4026438     0.033623805  -1.4805536e-22     0.034246503   6.5698262e-05       533.29352
   0.0022666117      -1.7731362      -0.4530636  -1.7352172e-19       65.822046       1.7808338   9.9205966e-19   2.0509761e-17   3.7372779e-19  -5.4880156e-37       5.4141748     0.033927854   1.0841471e-23     0.034314735    8.020148e-05       435.32864
   0.0024265239      -1.3208293     -0.44527529  -2.0972786e-21       45.919775        1.326521   3.7042861e-19  -6.5393034e-17  -1.9600183e-18  -3.3474768e-37       5.4226669     0.034167689   1.5995267e-22     0.034433144    9.533601e-05       365.75661
    0.002596283     -0.98879552     -0.43899631   1.7606996e-19       32.507783      0.99307003  -4.5718422e-19  -3.8390446e-17  -1.1774427e-18   2.3603925e-37       5.4290168     0.034358098   1.1063427e-22     0.034574536   0.00011040266       315.93951
   0.0027764954     -0.74037539     -0.43380714   1.3270313e-19        23.29556      0.74363466  -4.3154235e-19  -2.5404846e-18  -4.0199193e-20    2.636836e-37       5.4338297      0.03450967  -7.6006238e-24      0.03471981   0.00012472885       280.01379
   0.0029678048     -0.55037888     -0.42938573  -4.1847897e-20       16.826247      0.55291519  -5.6410262e-20   6.9454863e-18   2.6181593e-19   1.1553168e-37       5.4375138     0.034629897  -4.0997438e-23     0.034856631   0.00013774575        254.0128
   0.0031708945     -0.40172648     -0.42549506  -6.2602219e-20       12.178344      0.40374855  -5.9704802e-20   2.8054414e-18   8.5489062e-20  -1.9906764e-37       5.4403467     0.034724049  -2.4034221e-23     0.034977442   0.00014904147       235.22595
     0.00338649     -0.28290625     -0.42196068  -2.1428188e-20       8.7674329      0.28454114  -1.4379445e-19   4.9275413e-18   1.5311174e-19  -1.7983183e-37       5.4425204     0.034795824    -7.31728e-23     0.035077916   0.00015838815       221.76187
   0.0036153613     -0.18622061     -0.41865914  -5.1995217e-20       6.2205915      0.18754508   1.3012669e-20    5.326521e-18   1.3536368e-19  -2.5362699e-39       5.4441708     0.034847827    -8.41753e-23      0.03515599    0.0001657431       212.26145
   0.0038583258     -0.10658473     -0.41551739  -3.2805419e-20       4.2979167      0.10766758   2.5072415e-20   2.5514252e-18   2.1675472e-20   4.0031477e-38       5.4453972     0.034881951  -6.2734347e-23      0.03521134   0.00017122608       205.71374
   0.0041162514    -0.040668391     -0.41252768  -2.1284069e-20       2.8431586      0.04170256   7.9656109e-20   1.9156426e-18  -3.0980717e-20   1.2370699e-37       5.4462765     0.034899661  -7.5137288e-23     0.035245115    0.0001750783       201.34162
   0.0043900594      0.01374793     -0.40959736  -2.9738398e-20       1.7525648    -0.012991058   4.1462723e-19   7.3061549e-19  -4.5277262e-20  -2.1983812e-37       5.4468711     0.034902272  -1.2398174e-23      0.03525974   0.00017761094       198.53445
   0.0046807278     0.056082305     -0.40675382  -3.5209071e-20      0.94273269    -0.057945426   3.8918415e-19   -5.964012e-19   4.9368448e-20  -2.6014083e-37       5.4472357      0.03489066   1.7316661e-22      0.03525866   0.00017915327        196.8114
   0.0049892948     0.089558425      -0.4041759   2.3114777e-20      0.36698454    -0.092882883  -1.6591783e-19  -8.1773695e-19   3.8235699e-20   2.0095756e-37       5.4474185     0.034866101   2.0319377e-22     0.035245964   0.00018000916       195.80216
   0.0053168625      0.11813992     -0.40159032   5.4699106e-20   -0.0082453039     -0.11917508  -3.2650001e-19  -1.7974018e-19  -1.8629195e-20  -9.2927548e-38       5.4474624     0.034830407   4.4897405e-23     0.035225892   0.00018042881       195.23457
   0.0056646009      0.13961071     -0.39890197  -1.3528649e-20     -0.24503964     -0.13928151  -1.0614252e-19   4.3361246e-20    -6.12566e-20  -3.1902702e-37       5.4474057     0.034784643  -3.9561463e-24     0.035202325   0.00018059749       194.92148
   0.0060337521      0.15444461     -0.39632921  -3.2779697e-20     -0.38844685     -0.15420343   -4.197057e-20  -1.2436918e-19  -1.6166546e-19  -8.4599017e-38       5.4472789     0.034729741   -2.826797e-23     0.035178376   0.00018063879       194.74428
   0.0064256347      0.16528856      -0.3938045    2.539252e-20     -0.46478789     -0.16508638     2.16835e-21  -1.1847225e-19  -1.7059724e-19   1.0574697e-38       5.4471052     0.034666632    -3.46547e-23     0.035156184   0.00018062706       194.63405
   0.0068416484      0.17351169     -0.39123076   1.0180513e-19     -0.50080586     -0.17337381  -5.0192191e-20  -8.8835171e-20  -1.0075903e-19  -6.4235831e-38       5.4469007     0.034595814  -2.2775568e-23     0.035136927   0.00018060279       194.55359
    0.007283279      0.18029556     -0.38853477   2.2574913e-20     -0.51627328     -0.18018227  -1.2840983e-20  -3.1651805e-19  -5.2465438e-20  -1.0963215e-37       5.4466743     0.034517445  -8.6846952e-23     0.035121021   0.00018058674       194.48281
   0.0077521041      0.18648867     -0.38563732  -1.5385295e-19     -0.52342386     -0.18638782   2.0704318e-19  -8.1611919e-20  -6.0926237e-20  -7.1795068e-38       5.4464298     0.034431286   -2.054337e-23     0.035108395   0.00018059075       194.40858
   0.0082497982       0.1926053      -0.3824713  -3.9871496e-20     -0.52856937      -0.1925075   1.1508994e-19     4.23396e-19  -8.4390594e-20  -2.3667343e-38       5.4461677     0.034336797   1.2281247e-22      0.03509875   0.00018062474        194.3186
    0.008778139      0.19889746     -0.37898336   1.6157415e-19     -0.53415815     -0.19879828  -1.4561316e-19   2.8721859e-19   9.4820763e-20  -1.0985344e-38       5.4458867     0.034233224   7.6382496e-23     0.035091741    0.0001806996       194.19935
   0.0093390136       0.2054516     -0.37512914   2.8351182e-20     -0.54062232     -0.20534898  -8.7502805e-20  -1.3574198e-19   1.5548223e-19  -1.1108592e-39        5.445585     0.034119666  -4.5395138e-23     0.035087052   0.00018082552       194.03823
   0.0099344254      0.21227209     -0.37086905  -4.1575355e-20     -0.54765445     -0.21216518   4.7426369e-20  -3.0909101e-20  -3.0087606e-20   9.6400042e-38       5.4452606     0.033995123  -6.8869602e-24     0.035084378   0.00018100692       193.82905
    0.010566501       0.2193341     -0.36616492   9.1441687e-20     -0.55487071     -0.21922284  -2.8744354e-20   6.2547915e-20   7.5529278e-20   6.2656943e-38       5.4449116     0.033858511   1.2375301e-23     0.035083374   0.00018123789       193.57655
    0.011237498      0.22660723     -0.36097806   9.1228881e-20     -0.56202451     -0.22649202  -4.4307884e-20  -1.6951378e-19   1.3948448e-19  -6.8008991e-38       5.4445363     0.033708664   -5.532667e-23     0.035083631   0.00018150231       193.29601
    0.011949813       0.2340607     -0.35526855  -1.3978669e-21     -0.56898979     -0.23394211   1.7331077e-20  -1.5415894e-19  -3.3429527e-20  -1.1288795e-37       5.4441329     0.033544333  -3.9143475e-23     0.035084712   0.00018177886       193.00787
    0.012705991      0.24166092     -0.34899563  -1.1608172e-20     -0.57568387     -0.24153969  -8.7603678e-21  -1.0585257e-19   7.9627243e-21  -1.6347943e-37       5.4436995     0.033364177  -3.0508718e-23     0.035086203   0.00018204737       192.73136
    0.013508733      0.24936815     -0.34211853   1.8917574e-20     -0.58201452     -0.24924524   1.8245719e-21   -1.488148e-19   1.9140896e-19  -1.6471477e-37       5.4432341     0.033166767  -5.7787464e-23     0.035087776   0.00018229296       192.48029
    0.014360904      0.25713469     -0.33459763  -5.5899106e-20     -0.58786599     -0.25701124   4.1128388e-20  -1.7672371e-20   1.5969158e-19   -5.628132e-38       5.4427348     0.032950591  -1.9231334e-23     0.035089214   0.00018250737       192.26201
    0.015265551      0.26490435     -0.32639562  -2.9471654e-21     -0.59310714     -0.26478161   7.1099213e-21   5.2301153e-20    5.644818e-21  -2.2962965e-38       5.4421998     0.032714055    1.358308e-23     0.035090402   0.00018268802       192.07836
    0.016225903      0.27261241     -0.31747904   9.8232827e-20     -0.59760219     -0.27249164   2.7988532e-22  -3.6492638e-20   2.3513714e-20  -8.4707348e-38       5.4416272     0.032455501  -1.2222833e-23     0.035091305   0.00018283634       191.92745
    0.017245391       0.2801857     -0.30781979   3.2845724e-20     -0.60121591     -0.28006816   3.4757096e-20   6.5396867e-20  -2.0711456e-20  -1.0328204e-37       5.4410152     0.032173213   2.0601259e-23     0.035091934   0.00018295591       191.80544
    0.018327656      0.28754259     -0.29739699   5.1003535e-20      -0.6038135      -0.2874295   2.2304082e-20   1.4574295e-19  -1.6863173e-19  -6.4059461e-38       5.4403621      0.03186544   6.1653081e-23     0.035092327   0.00018305115       191.70778
    0.019476565      0.29459332     -0.28619898   7.0285757e-20     -0.60525922     -0.29448591  -3.0035922e-20   1.2533716e-19  -2.3203328e-19   1.1116053e-38       5.4396665     0.031530414   6.6966561e-23     0.035092524   0.00018312642       191.63005
     0.02069622      0.30124063     -0.27422532   8.6776516e-20     -0.60541598     -0.30114022  -1.0178662e-19   -6.106602e-20   6.3650943e-21   7.6891155e-38       5.4389271     0.031166381  -1.9795004e-23     0.035092563   0.00018318564       191.56831
    0.021990978      0.30738098     -0.26148917   -9.312245e-20     -0.60414695     -0.30728916  -3.3112193e-20  -5.1449982e-19   3.8578044e-19   -2.294429e-37        5.438143     0.030771631  -2.0106065e-22     0.035092477   0.00018323211       191.51925
    0.023365464      0.31290657     -0.24801919  -4.1002165e-19     -0.60131957     -0.31282503   1.0807598e-19  -1.9092495e-19   1.5716896e-19  -5.3737699e-37       5.4373134     0.030344536  -7.5304567e-23     0.035092288   0.00018326851       191.48017
    0.024824587      0.31770882     -0.23386054  -2.1765978e-19     -0.59681136     -0.31763943   6.3196979e-20   3.3868883e-19  -1.3849538e-19  -2.8450834e-37       5.4364382     0.029883592   1.1456058e-22     0.035092015   0.00018329701       191.44892
    0.026373559       0.3216811     -0.21907661   1.8325983e-19     -0.59051505     -0.32162535  -4.3232231e-20   2.6190644e-19  -1.0052427e-19  -4.0557191e-38       5.4355176     0.029387458   9.1524175e-23      0.03509167   0.00018331929       191.42376
    0.028017912      0.32472121      -0.2037503   3.3393522e-19     -0.58234312     -0.32468052  -6.5770375e-20  -1.0043357e-19   2.2684296e-20   -7.694234e-38       5.4345522     0.028855007  -3.3759889e-23     0.035091261   0.00018333671       191.40334
     0.02976352      0.32673598     -0.18798317    1.260407e-19     -0.57223335     -0.32671139  -1.5293924e-20  -3.4790512e-19   1.5032948e-19  -1.7020308e-37       5.4335435     0.028285367  -1.2924521e-22     0.035090794    0.0001833503       191.38661
    0.031616619      0.32764588      -0.1718941  -3.2667371e-19     -0.56015056     -0.32763835   4.3500144e-20  -1.9185823e-19   7.7030023e-20   1.8865745e-37       5.4324935     0.027677966  -7.2101118e-23     0.035090272   0.00018336088       191.37271
    0.033583826      0.32738812     -0.15561746  -3.4148331e-19     -0.54609577     -0.32739815   5.1746946e-20   1.3395643e-19  -1.2566414e-20   6.4462607e-37       5.4314047      0.02703256   4.0640027e-23     0.035089698   0.00018336911       191.36099
    0.035672168      0.32592057     -0.13929983   8.0473181e-20     -0.53011753     -0.32594869   8.3186347e-21   3.7269252e-19  -9.8256273e-20   3.6895569e-37       5.4302804     0.026349277   1.3784479e-22     0.035089075   0.00018337548       191.35095
    0.037889105      0.32322489     -0.12309633   3.5900474e-19     -0.51230049     -0.32327101  -5.5770123e-21   1.2749299e-19  -7.9627774e-20  -5.4921357e-37       5.4291247      0.02562861   6.0029258e-23     0.035088404   0.00018338039       191.34217
    0.040242556      0.31930774     -0.10716583   4.1357681e-19     -0.49275856     -0.31937173   4.0707432e-20   2.9341723e-19  -9.6096999e-20  -1.1119954e-36       5.4279421     0.024871457   1.2814952e-22     0.035087688   0.00018338415       191.33435
    0.042740925      0.31420124     -0.09166623   1.3213739e-19     -0.47164748     -0.31428225  -3.5246263e-21   6.5915136e-19  -1.8276245e-19   2.9187299e-37       5.4267377     0.024079071   2.6783113e-22     0.035086931   0.00018338699       191.32725
    0.045393137      0.30796324    -0.076748773  -7.2068059e-20     -0.44915945     -0.30806065   -4.353262e-20   1.6769976e-19  -5.5142968e-20   1.0635389e-36       5.4255174     0.023253094   6.6540505e-23     0.035086137   0.00018338912        191.3207
    0.048208665      0.30067489    -0.062553918   1.1781307e-19     -0.42551366     -0.30078734   1.6461131e-20   1.1886699e-19  -9.8104916e-21   5.8870158e-37       5.4242872     0.022395452   5.0252658e-23      0.03508531   0.00018339069       191.31456
    0.051197566      0.29243836    -0.049206338    4.754576e-20     -0.40095074     -0.29256463   1.6332922e-20   4.2657413e-19  -9.0342593e-20   1.1399029e-36       5.4230537     0.021508402   1.8286107e-22     0.035084457   0.00018339181       191.30874
    0.054370516      0.28337226    -0.036812808  -2.7163157e-19     -0.37572738     -0.28351006  -1.6895521e-20   2.9463763e-19  -5.2969657e-20    1.285275e-36       5.4218235     0.020594358   1.2551623e-22     0.035083584   0.00018339258       191.30317
    0.057738847      0.27360813    -0.025458563   2.3756359e-19     -0.35010523     -0.27375577   5.6217401e-21   2.0673298e-19   1.0706885e-20  -1.8690161e-36       5.4206037     0.019655979   7.0424404e-23     0.035082697   0.00018339308       191.29781
    0.061314592      0.26328481    -0.015207998   1.1956966e-18     -0.32434468     -0.26343969   2.9665218e-20   4.8625809e-19   1.7972073e-20  -1.6731314e-36       5.4194009     0.018695911   1.9069585e-22     0.035081806   0.00018339337       191.29264
     0.06511052       0.2525457   -0.0061025271     7.24729e-19     -0.29869592     -0.25270583  -1.4529457e-20   6.7668405e-19   -4.256966e-20   3.7835981e-36       5.4182219     0.017716961   2.9476962e-22     0.035080916    0.0001833935       191.28766
    0.069140193      0.24153216    0.0018356855   -4.364674e-19     -0.27339731     -0.24169483   -7.317687e-20   2.9917689e-20   -4.675154e-20   3.9749434e-36       5.4170732     0.016721713   2.3378883e-23     0.035080036   0.00018339351       191.28285
    0.073418001      0.23038325    0.0086048522  -5.0574629e-19     -0.24866382     -0.23054723  -5.3441702e-20   -7.854032e-19  -3.2836455e-20   9.8239759e-37        5.415961     0.015712859  -3.2906736e-22     0.035079174   0.00018339343       191.27823
    0.077959226      0.21922987     0.014217344  -4.0088182e-21     -0.22468457     -0.21939301   1.7782253e-20  -9.9320662e-19  -6.2809961e-20  -7.6537837e-37       5.4148911     0.014692617   -4.119287e-22     0.035078336   0.00018339329       191.27381
    0.082780087      0.20819823     0.018701542   2.4730507e-19     -0.20161394     -0.20835897   4.6964788e-20  -2.7763959e-19  -5.4150845e-21  -9.1547732e-37       5.4138688     0.013663314  -1.1526782e-22      0.03507753    0.0001833931       191.26961
    0.087897803      0.19740179     0.022094355   4.5449086e-19     -0.17957746      -0.1975575   2.4213717e-20   1.1447733e-19   2.0801423e-20  -1.0789113e-36        5.412899     0.012626493   4.3054211e-23     0.035076761   0.00018339289       191.26564
    0.093330656      0.18694974     0.024442573   4.7445754e-19     -0.15866545     -0.18709915   5.7265355e-21   2.9926107e-19   4.2821453e-20  -2.7890559e-36       5.4119859     0.011583867   1.2529271e-22     0.035076034   0.00018339266       191.26191
