#             y      gradU_xx      gradU_xy      gradU_xz      gradU_yx      gradU_yy      gradU_yz      gradU_zx      gradU_zy      gradU_zz             U_x             U_y             U_z               k             nut           omega
   3.113662e-05    -0.017931005  -1.1175404e-07  -1.4677553e-21       4299.5308     0.016529417   2.9669838e-19  -7.5874165e-13  -2.3272455e-18  -1.6350167e-34      0.13528344   3.2793118e-07   1.4939908e-23     0.013563709   8.0083274e-09       4021287.3
  5.3394177e-05    -0.030619731  -3.1145977e-07    -9.17228e-22       4294.2668     0.030090991   -3.884156e-19  -3.7247484e-13  -1.2057309e-18   2.9886163e-35      0.23101882   8.6265276e-07   1.0408288e-23     0.011717575   2.1782785e-08       863201.32
  7.7022295e-05    -0.044045327  -6.4593517e-07   8.8329515e-22       4283.9725     0.043750147  -7.4628341e-19   1.0635601e-13     8.10915e-19  -7.4712354e-35      0.33248041   1.7464292e-06  -3.4798427e-24     0.012872078   5.2378215e-08        332211.9
  0.00010210537     -0.05819393  -1.1408027e-06   1.7224353e-21       4264.4944     0.057988604  -7.7340717e-19   5.9652174e-13   8.9615825e-18  -1.0056761e-34      0.43983686   3.0362872e-06  -2.6145331e-23     0.015525552   1.1436136e-07       167455.67
  0.00012873299    -0.072998489  -1.8222865e-06  -7.2026969e-22       4230.0851     0.072770619   4.4408883e-19   9.2262823e-13    1.538275e-17   4.1606044e-35      0.55311239   4.7923356e-06   -4.313673e-23     0.019308328   2.2967332e-07       98023.405
  0.00015700027    -0.088315581  -2.7241478e-06  -1.7548728e-21       4173.6189     0.088070284   1.3608117e-18   6.0708597e-15  -1.7471397e-18   6.3364894e-35      0.67210384   7.0838116e-06   4.2857734e-24     0.024091013   4.2830102e-07       63150.205
  0.00018700818     -0.10391038  -3.8881071e-06   2.9551921e-22       4087.6163      0.10366585   4.6103209e-21  -5.4721658e-13  -1.2918953e-17  -1.3621168e-34      0.79629751   9.9829227e-06   3.4050485e-23     0.029810713   7.4760722e-07       43570.972
  0.00021886389     -0.11946385  -5.3662878e-06   1.3704051e-21       3965.9768      0.11923055  -1.3837768e-18   -5.435473e-14   7.1004729e-19  -3.7532513e-35      0.92481539   1.3560116e-05  -3.3783768e-24     0.036413637    1.229824e-06       31705.024
  0.00025268119     -0.13461109  -7.2245917e-06   5.6592183e-22       3805.9517      0.13439451  -2.7605954e-19   5.5759296e-13   1.9541883e-17  -1.7592821e-35       1.0564254    1.788014e-05  -5.6786448e-23     0.043828493   1.9180379e-06       24094.518
  0.00028858087     -0.14900365  -9.5461433e-06  -2.0182742e-21       3609.4803      0.14880615   1.7242265e-18   1.9625892e-13   4.8785376e-18  -1.0198806e-34       1.1896344   2.2999134e-05   -1.060056e-23     0.051953368   2.8520212e-06       18984.461
  0.00032669115     -0.16237262  -1.2433171e-05   5.4992498e-22       3383.1569      0.16219358   1.0716206e-18  -4.4162767e-13   -2.157673e-17  -9.4251991e-35       1.3228475   2.8963716e-05   7.3890877e-23     0.060651862   4.0655153e-06        15411.75
  0.00036714817     -0.17456861  -1.6004627e-05   2.3926979e-21       3136.8135      0.17440642  -7.1242545e-19  -3.3653737e-13  -1.7553475e-17  -6.1975369e-35       1.4545468   3.5812445e-05   6.2276999e-23     0.069755844   5.5855857e-06       12817.699
  0.00041009642     -0.18556821  -2.0389641e-05  -5.9054577e-22       2881.3964      0.18542385  -1.1760626e-18  -6.0733195e-14  -2.8994106e-18   3.8196542e-35       1.5834376    4.357929e-05   9.5476564e-24     0.079071554    7.433193e-06       10865.808
  0.00045568931     -0.19544332  -2.5722707e-05  -2.6864712e-21       2626.9384      0.19532439  -4.3195279e-19   1.2018092e-13    9.306907e-18  -1.1161776e-35       1.7085313   5.2297929e-05  -4.0784683e-23     0.088400142   9.6251748e-06       9348.1951
  0.00050408968     -0.20430891  -3.2140137e-05  -2.6116094e-21       2381.2259      0.20420509   3.0138864e-19   7.3357592e-14   5.5711663e-18  -4.2730405e-35        1.829156   6.2005122e-05   -2.407744e-23     0.097580408   1.2178902e-05       8133.9951
  0.00055547043     -0.21229079  -3.9776009e-05   6.8880193e-22       2149.8715      0.21216985   9.7696849e-20   1.1129825e-14   2.1360618e-18   5.7182523e-35       1.9449138   7.2739149e-05  -1.2405419e-23      0.10650617   1.5114936e-05       7139.4104
  0.00061001506     -0.21960351  -4.8828041e-05   1.2861449e-21       1937.3495      0.21945865   6.3211611e-19   2.7893408e-14   3.1194184e-18   -1.540415e-35       2.0556733   8.4543814e-05  -1.6049849e-23      0.11510383   1.8422351e-05       6309.4298
   0.0006679184     -0.22652895  -5.9600079e-05   4.3945787e-22       1746.2089      0.22638274   8.4634498e-19  -8.4444338e-14  -1.2237949e-17  -2.8275365e-35       2.1616021   9.7482388e-05    6.958149e-23      0.12331938   2.2048767e-05       5606.1506
  0.00072938728     -0.23313088  -7.2442229e-05  -1.6179385e-21       1574.9988       0.2330209  -2.7580109e-19  -9.7327048e-14  -1.3846185e-17  -1.8692752e-35       2.2630233   0.00011163587   7.8885929e-23      0.13110799   2.6019857e-05       5002.2484
  0.00079464125     -0.23928302  -8.7683963e-05  -3.5376522e-21       1419.8297      0.23921911  -6.9055995e-19  -2.8699847e-14   -4.367173e-18  -3.6002218e-35       2.3601402   0.00012708143   2.5847897e-23      0.13840799   3.0465266e-05       4478.1948
  0.00086391338     -0.24501316  -0.00010556526  -1.1999604e-21       1278.2963      0.24495286  -5.8453657e-19   3.1046271e-15   1.7257687e-18   3.2015646e-35       2.4530069   0.00014388715  -1.5252349e-23      0.14512632   3.5473859e-05       4020.3163
   0.0009374511     -0.25052198  -0.00012622058  -8.2204587e-22       1150.1186      0.25044101  -2.3740366e-19    3.598087e-14   7.9636983e-18  -1.6749904e-35       2.5417053   0.00016213433  -5.6537993e-23      0.15117384   4.1056364e-05       3618.6268
   0.0010155171     -0.25600431  -0.00014971258    4.394718e-21       1035.2797      0.25591245   1.0505255e-19   2.6135395e-14   5.7876959e-18  -2.6058139e-35       2.6264253   0.00018192983  -4.1263511e-23      0.15652512    4.720514e-05       3265.2763
   0.0010983902     -0.26158325  -0.00017606786   6.2053299e-21       933.14179      0.26149337   5.8163278e-21   1.8059345e-14   4.9604348e-18   4.9044791e-36       2.7074305   0.00020340103  -3.9207028e-23      0.16121757   5.3918043e-05        2953.793
   0.0011863663     -0.26732618  -0.00020532588  -7.4660535e-22       842.64985      0.26725184  -2.1700944e-19   1.7386728e-14    5.120984e-18  -4.4716146e-36       2.7850143   0.00022669304  -4.1731903e-23      0.16531081   6.1197136e-05       2678.7161
   0.0012797599     -0.27326834  -0.00023757457   2.4089547e-21       762.64883       0.2732043  -8.1051884e-20   2.4720578e-14   9.2197019e-18   1.1146998e-35       2.8594775   0.00025196772  -8.2786243e-23        0.168867   6.9041014e-05       2435.3793
   0.0013789043      -0.2794058  -0.00027296494   4.5004636e-21       692.09071      0.27929633   5.8868464e-19    1.622291e-14   5.7228553e-18   5.9874775e-36        2.931121    0.0002793991  -5.0656444e-23      0.17194605   7.7432033e-05       2219.7507
   0.0014841538     -0.28565049  -0.00031168176  -8.2271371e-22       630.08609      0.28546853   3.2636461e-19  -9.4129963e-15  -4.6553804e-18  -2.6149705e-35       3.0002558    0.0003091662   4.5034478e-23      0.17460363   8.6306517e-05       2028.2825
   0.0015958843     -0.29188937  -0.00035393231  -6.2485823e-21       575.70588      0.29172392   3.1046108e-19  -2.2934373e-15  -5.3892831e-19   1.7618897e-35       3.0672077   0.00034146061   3.4182877e-24      0.17688933   9.5587201e-05       1857.7986
   0.0017144948     -0.29816198  -0.00040002222  -3.7392371e-21       527.79895      0.29806909   8.8654394e-19  -2.0201674e-14  -1.2333881e-17  -4.0412781e-35       3.1322829   0.00037649235   1.2870261e-22      0.17884449   0.00010528388       1705.4999
    0.001840409     -0.30461696  -0.00045033389   3.7452865e-21       485.19879      0.30453555  -5.3092872e-19  -3.4138182e-14  -2.1092104e-17  -3.8869573e-35       3.1957247   0.00041448611   2.2169359e-22      0.18050082   0.00011547314       1569.0209
   0.0019740768     -0.31134073  -0.00050527067   6.5148555e-21       447.03363      0.31123095  -1.7637121e-18   3.1601063e-15   3.2632294e-18  -5.9729067e-36       3.2577193   0.00045569666  -4.1747763e-23      0.18188216   0.00012619296       1446.3952
   0.0021159754       -0.318369  -0.00056531254   7.7811529e-21        412.7196       0.3182445  -3.3964266e-19   2.8663117e-14   2.2295877e-17  -9.2481582e-36       3.3184261   0.00050041856  -2.6150201e-22       0.1830075   0.00013744105       1335.9604
   0.0022666117     -0.32574126  -0.00063103508  -3.6667555e-21       381.80216      0.32561154   1.5822398e-18   1.2053463e-14   9.0093642e-18   1.1567965e-35       3.3779922   0.00054897938  -1.0274752e-22       0.1838926    0.0001492108       1236.2911
   0.0024265239     -0.33350117  -0.00070309937  -9.3825989e-21       353.88967      0.33336617    8.853809e-19  -1.8978146e-14  -1.8856503e-17  -2.3473683e-36       3.4365541   0.00060174122   2.5054636e-22      0.18455024   0.00016149036       1146.1614
    0.002596283     -0.34169709  -0.00078226847  -6.6094535e-22       328.64387      0.34155507  -1.3338876e-18  -1.2167156e-14  -1.1078831e-17   -2.601873e-35       3.4942396   0.00065910708   1.3851049e-22      0.18499049   0.00017426164       1064.5129
   0.0027764954     -0.35038257  -0.00086942582  -2.7872558e-21        305.7718      0.35023218  -7.2918245e-19    1.371053e-14    1.690208e-17   3.5311843e-36       3.5511689   0.00072152725  -2.5397512e-22      0.18522096   0.00018749921        990.4289
   0.0029678048     -0.35961702  -0.00096559478  -4.9672759e-21        285.0191      0.35945701   1.1807806e-18   5.6449407e-15   5.5194694e-18   2.7511198e-35       3.6074565   0.00078950602   -6.902416e-23      0.18524697   0.00020116898        923.1134
   0.0031708945     -0.36946645   -0.0010719606   2.0568097e-21       266.16437      0.36929566   3.7538287e-19  -1.0129133e-14  -1.4555202e-17  -5.4356329e-35       3.6632123   0.00086360947   2.3861648e-22       0.1850717   0.00021522686       861.87298
     0.00338649     -0.38000419   -0.0011898994   3.4388845e-21       249.01436      0.37982242  -8.1683434e-19  -2.3480715e-15   -2.388487e-18  -1.9173621e-35       3.7185428   0.00094447472   2.8404668e-23       0.1846963   0.00022961725       806.10222
   0.0036153613     -0.39131192   -0.0013210122  -1.6684619e-21       233.40002      0.39111975  -1.0615995e-19   4.3557157e-15   7.1240366e-18   6.8313477e-36       3.7735524     0.001032821  -1.2536379e-22         0.18412   0.00024427129        755.2714
   0.0038583258     -0.40348063   -0.0014671299    -2.62447e-21       219.17311      0.40327128   4.5024328e-19  -3.5404943e-18  -5.2106928e-19  -1.4083693e-35       3.8283442    0.0011294616   1.5535385e-23      0.18334008   0.00025910519       708.91619
   0.0041162514     -0.41661187    -0.001630221  -2.2140403e-22       206.20335       0.4163502   1.3260836e-19  -2.4058921e-15   -4.640753e-18  -7.2574914e-36       3.8830219    0.0012353148   9.0664913e-23      0.18235198   0.00027401823       666.62913
   0.0043900594     -0.43081908   -0.0018122412   6.0623561e-21       194.37869      0.43050075  -1.4813271e-19  -1.5761971e-15  -3.4672723e-18  -2.3920933e-38       3.9376898    0.0013514125   7.4743764e-23      0.18114925   0.00028889087       628.05246
   0.0046807278     -0.44643026   -0.0020182567   9.7278529e-21       183.63559      0.44618943   -3.797751e-19  -1.8572146e-16  -3.8376526e-19  -1.5109944e-36       3.9924567    0.0014789646   6.8937199e-24      0.17972339   0.00030356189       592.87091
   0.0049892948      -0.4643231   -0.0022559949   4.1733498e-21       173.98173      0.46415564  -2.5705627e-19   2.2887604e-15   6.3826704e-18  -1.0107231e-36        4.047458    0.0016195381  -1.6379518e-22      0.17806186   0.00031759113       560.79179
   0.0053168625     -0.48528408   -0.0025335914  -3.0475113e-21       165.40566      0.48497141   1.9060015e-19   1.9612321e-15   5.4483971e-18   9.1186079e-37       4.1028789    0.0017751331  -1.3966188e-22      0.17614549   0.00033046808       531.52253
   0.0056646009     -0.50914036   -0.0028567629  -8.3150356e-21       157.78152      0.50868523   2.7603645e-20   2.5846984e-16   8.6086467e-19  -3.6388631e-37       4.1589244    0.0019481261  -2.6541847e-23      0.17394782    0.0003420585       504.77785
   0.0060337521     -0.53532891   -0.0032273893  -5.5792479e-21       150.92908      0.53485468    6.967881e-20   1.2555885e-15   4.7206659e-18   1.0357562e-36       4.2157748    0.0021410763  -1.4525971e-22      0.17143553   0.00035237596       480.29862
   0.0064256347     -0.56356245   -0.0036485434    1.693805e-21       144.70875      0.56307912   8.7765378e-19  -2.2784944e-16  -1.6177023e-18  -1.4802347e-35       4.2735833     0.002356624   6.3643242e-23      0.16856923    0.0003613337       457.85291
   0.0068416484     -0.59378866    -0.004126129    7.151599e-21       139.03386      0.59328388   4.6673334e-19  -4.1170295e-15   -1.822354e-17    -3.76903e-36       4.3324919    0.0025976348   6.0722271e-22      0.16530406   0.00036875367       437.22792
    0.007283279      -0.6261156   -0.0046679247   7.3847035e-21       133.85139      0.62558035  -9.1133526e-19  -2.6919049e-15  -1.1685602e-17   5.1678851e-36       4.3926423    0.0028673145   3.8167986e-22      0.16158919   0.00037437846       418.22213
   0.0077521041     -0.66076112   -0.0052831474  -1.0905819e-20       129.12927      0.66018977  -7.6192769e-19    1.341503e-15   7.5413796e-18  -5.0578156e-36       4.4541851    0.0031693075  -2.8718712e-22      0.15736652   0.00037788141       400.63704
   0.0082497982     -0.69801964     -0.00598238  -1.6436276e-20       124.84791      0.69740894   2.8421067e-19   1.4634902e-15   7.8316687e-18   1.4336837e-36       4.5172867    0.0035077951  -2.8712725e-22      0.15256866   0.00037887534       384.26838
    0.008778139      -0.7382255   -0.0067774045  -8.2316007e-23       120.99272      0.73757571   3.3396196e-19  -1.5275543e-16  -1.2004273e-18  -6.9104179e-37       4.5821344    0.0038876013   5.4237216e-23      0.14711628   0.00037692656       368.89647
   0.0093390136     -0.78166845   -0.0076805866  -4.1357487e-21        117.5429      0.78098132  -4.2053352e-20  -1.9746756e-16  -1.1299785e-18   3.9482507e-38       4.6489389    0.0043142914   4.3219416e-23      0.14091551   0.00037158726       354.27654
   0.0099344254     -0.82837638   -0.0087034649   1.5721286e-21       114.45061       0.8276467   3.4735901e-20   3.7671428e-17   1.8989648e-19  -1.6856787e-36       4.7179275    0.0047942027  -2.9331006e-24      0.13385668   0.00036246505       340.13001
    0.010566501     -0.87762613   -0.0098531521   2.6616971e-20       111.60304      0.87685603    -2.85279e-20  -2.9349228e-16  -2.3295817e-18  -4.2917225e-37       4.7893181    0.0053342581   1.0390432e-22      0.12581716   0.00034934875       326.13676
    0.011237498        -0.92701    -0.011121428   1.7241287e-20       108.75806       0.9263319  -1.8096425e-19   1.2913871e-16   1.1403488e-18    2.170494e-36       4.8632499    0.0059412797  -5.8129321e-23       0.1166732   0.00033240331        311.9271
    0.011949813     -0.97096144    -0.012455466  -6.2011326e-21       105.44468      0.97058747  -1.6970685e-19   3.2754302e-16   3.0409373e-18  -2.8160955e-36       4.9396376    0.0066203317   -1.472448e-22      0.10632971   0.00031244483       297.07375
    0.012705991        -0.99893    -0.013708453  -8.6882534e-22       100.89106       0.9987032  -3.4304031e-19    6.721582e-16   7.0704937e-18  -3.1596783e-36       5.0178907    0.0073707988  -3.3073907e-22     0.094829668   0.00029132163       281.31941
    0.013508733     -0.99621655    -0.014635403   9.5750458e-21       94.253926      0.99522576   7.4420045e-20   1.4182963e-15   1.4847614e-17   3.2657974e-36        5.096544    0.0081796474   -6.797781e-22     0.082504664   0.00027177377        264.8485
    0.014360904     -0.95308255    -0.015017207  -8.1779417e-21       85.397877      0.95293067   7.6082846e-19   1.9014459e-16   1.5310847e-18  -6.3869919e-36        5.173235    0.0090165878  -1.0027353e-22     0.069880316   0.00025534838       247.75729
    0.015265551     -0.88143744    -0.014977296  -1.3673578e-20        75.46702      0.88446576   2.2464823e-19  -1.2758398e-15    -1.49009e-17  -2.7771061e-36       5.2456931    0.0098487405   6.4957826e-22     0.057395924   0.00023838987       229.55226
    0.016225903      -0.8028849    -0.014784824   1.0769907e-20       65.689388      0.80573932  -4.7340689e-19  -4.3474594e-16  -5.0124022e-18   3.2084084e-36       5.3130224       0.0106592    1.884425e-22     0.045306998   0.00021329687       209.24636
    0.017245391     -0.70665876    -0.014214906   7.4519145e-21       55.547366      0.70714212   -2.064945e-19   3.4691307e-16    4.396723e-18   -3.501837e-36       5.3747652     0.011435774  -2.7698446e-22     0.033931452   0.00018113069       185.25893
    0.018327656     -0.56025067    -0.012547248  -6.6273399e-21        43.67619       0.5611879   8.7805708e-20   2.0897823e-16   2.7047341e-18   -2.064991e-37        5.428559     0.012132428  -1.8735512e-22     0.023988518   0.00015129622       156.18336
    0.019476565     -0.36847672   -0.0097199088  -2.8993904e-21       30.526199      0.37128735   8.8350357e-20   8.9798874e-17   1.1914842e-18   3.8113178e-38       5.4706284     0.012666183  -8.0539281e-23     0.016395878   0.00013141879       123.27674
     0.02069622      -0.1845018   -0.0067783794    4.333927e-21       18.633362      0.18730063   3.8682596e-20   -2.653083e-17  -2.3268886e-19  -6.1311229e-38       5.4991248     0.012985065   2.2278842e-23     0.011533942   0.00012560158       91.934778
    0.021990978     -0.05605752   -0.0047949141   1.7515034e-21       10.177312     0.057569638   6.3506817e-21  -1.9070863e-17  -7.7340343e-20  -6.5661273e-39       5.5160242     0.013115608    5.029147e-24    0.0089094936   0.00013160213       68.308683
    0.023365464     0.014058268   -0.0037805112  -6.4554195e-21       5.2636181    -0.013278232   3.2500936e-21  -1.6855338e-17   4.5493544e-20   8.2603172e-39       5.5253401     0.013125816   4.2137103e-23    0.0076425104   0.00014193573       54.161646
    0.024824587     0.048525109   -0.0032693295  -3.3201142e-21       2.6832629    -0.048115086  -3.0237831e-20  -6.7502921e-18  -2.7928397e-20  -2.1337593e-38       5.5304043      0.01307043   4.4440087e-24    0.0070526981   0.00015017137       47.051797
    0.026373559     0.066030665   -0.0030290867  -1.5033726e-21       1.3172739    -0.065888958   8.3255855e-21   2.2960915e-18  -1.0345131e-19  -4.2058838e-38       5.5331151     0.012977014  -4.9853296e-23    0.0067826568   0.00015447285       43.923117
    0.028017912     0.075689501   -0.0028855292   8.0085736e-22      0.55661026    -0.075663392   2.3050832e-20   4.1031016e-20   1.4792146e-19   7.1865666e-38       5.5344371     0.012857527   4.8234039e-23    0.0066675839      0.00015619        42.69114
     0.02976352     0.081257042    -0.002790476   6.1739789e-21      0.12270332    -0.081132424  -4.0598746e-20  -5.2703898e-19   1.2382473e-19   2.1424033e-39       5.5348958     0.012718954   1.6630259e-23    0.0066266857   0.00015699804       42.209412
    0.031616619     0.084436848   -0.0027119963    3.063418e-21     -0.12133234    -0.084408992  -3.1351038e-20  -5.1032013e-19   -1.911234e-19   2.6272134e-38       5.5348139     0.012564465  -1.0750553e-22    0.0066187267   0.00015763354       41.988482
    0.033583826     0.086207961   -0.0026543701  -4.5281591e-21     -0.25412943    -0.086246652   2.3647592e-20  -5.9662314e-19  -1.9026319e-19   5.6220668e-38       5.5343936     0.012395661  -8.9803767e-23    0.0066233622   0.00015822878       41.859694
    0.035672168     0.087133175     -0.00260865  -5.9774152e-21     -0.32234188    -0.087119842   4.4955042e-20  -5.8184812e-20  -1.6976575e-20  -1.2856854e-37        5.533761     0.012214114  -5.5900179e-24    0.0066312176   0.00015875812       41.769501
    0.037889105     0.087578632    -0.002561141  -1.8346525e-21     -0.35448727    -0.087565297   3.0053649e-20   9.9065336e-19   2.2731016e-19  -1.2777656e-37       5.5329936     0.012020122   1.0732914e-22    0.0066385346   0.00015919532       41.700669
    0.040242556      0.08778766   -0.0025169774   6.2564132e-21     -0.36786969    -0.087787617  -3.0640771e-20   1.6355336e-18   3.9051433e-19   5.3089808e-38       5.5321342     0.011813484   1.2346132e-22      0.00664419   0.00015953786       41.646518
    0.042740925     0.087885577    -0.002471239   8.5013301e-21     -0.37153101    -0.087886459  -6.4683129e-20  -2.9570254e-19  -6.9182281e-20    6.212288e-38       5.5312052     0.011593791  -6.1874208e-23    0.0066481329   0.00015979783       41.603391
    0.045393137     0.087931956   -0.0024231439  -3.7506949e-21      -0.3697294    -0.087931465   1.0824488e-20  -2.1400457e-18   -5.077514e-19   9.0896094e-38       5.5302189     0.011360413  -2.0526039e-22    0.0066506532   0.00015999176        41.56868
    0.048208665     0.087953479   -0.0023722231   -8.828234e-21     -0.36436764    -0.087952153   6.7976927e-20  -5.2439281e-19  -1.2188466e-19   1.4918483e-37       5.5291832     0.011112586   3.4517294e-23    0.0066520861   0.00016013526       41.540354
    0.051197566     0.087960935   -0.0023180898   1.7742587e-21     -0.35628666    -0.087959497   1.9452362e-21   9.7557927e-19   2.3740952e-19   2.5520106e-38       5.5281045     0.010849462   1.8046714e-22    0.0066527162   0.00016024108       41.516837
    0.054370516     0.087958319   -0.0022604765   3.4902381e-21     -0.34588611     -0.08795705  -3.8494227e-20   4.9354432e-20    7.707021e-21  -8.8973942e-39       5.5269893     0.010570131   1.3285301e-23    0.0066527615   0.00016031899       41.496931
    0.057738847     0.087947521   -0.0021991265  -2.9079706e-21     -0.33343154     -0.08794665   9.9478357e-22  -4.7813623e-19  -1.2269181e-19  -1.5988493e-38       5.5258444     0.010273623  -6.1774687e-23    0.0066523823   0.00016037624       41.479745
    0.061314592     0.087929823   -0.0021338041  -5.1486364e-21     -0.31917549    -0.087929424   2.3660752e-20   4.4621273e-19   1.3073907e-19   2.9549059e-38       5.5246774    0.0099589088   3.8958651e-23    0.0066516962   0.00016041814       41.464627
     0.06511052     0.087906399   -0.0020642556   1.1247604e-20     -0.30338379     -0.08790659   -2.456901e-20   6.3072562e-19   1.7658203e-19   5.3686618e-38       5.5234962    0.0096248946   1.1045774e-22    0.0066507907    0.0001604486       41.451106
    0.069140193     0.087878443   -0.0019902128   8.2641785e-21     -0.28633514     -0.08787881   -2.135378e-20  -3.9403681e-19  -1.2813719e-19   5.6400968e-38       5.5223089    0.0092704145  -1.8298409e-22    0.0066497322   0.00016047052       41.438846
    0.073418001     0.087847162   -0.0019113839  -9.3759348e-21      -0.2683117    -0.087847919   3.7462035e-20  -1.9669609e-19  -5.3774905e-20    8.251993e-38       5.5211241    0.0088942387  -2.4807552e-23    0.0066485724   0.00016048604       41.427607
    0.077959226     0.087813728   -0.0018274395  -7.5961505e-22     -0.24958746    -0.087814142    5.214357e-22   2.8278237e-19   9.4714386e-20    8.760126e-38       5.5199502    0.0084950403   1.4089414e-22    0.0066473522   0.00016049681       41.417224
    0.082780087      0.08777924    -0.001738065   2.9411671e-21     -0.23041799    -0.087779896  -2.8028932e-20    -2.80493e-19  -1.1603425e-19    2.005766e-38        5.518796    0.0080714393  -5.8674913e-23    0.0066461045   0.00016050405       41.407582
    0.087897803      0.08774468   -0.0016428401  -4.7212683e-21     -0.21103097    -0.087744769   1.9899381e-21  -3.2189826e-19  -1.2150978e-19   1.5620674e-38       5.5176697    0.0076219134  -1.1865265e-22    0.0066448562   0.00016050869       41.398606
    0.093330656     0.087710899   -0.0015415022  -5.0829967e-21     -0.19162059    -0.087711106  -1.3538032e-20   1.3606857e-19   7.3828083e-20   4.0762021e-38       5.5165797    0.0071449242  -2.8228774e-23    0.0066436291   0.00016051144        41.39025
