#             x      gradU_xx      gradU_xy      gradU_xz      gradU_yx      gradU_yy      gradU_yz      gradU_zx      gradU_zy      gradU_zz             U_x             U_y             U_z               k             nut           omega
   -0.046805254     0.010490702      0.16107268   1.5034331e-21  -0.00043052424     -0.01410031   -1.417366e-20   1.7268772e-22   -2.637709e-20  -1.5417486e-38       5.4000312   0.00047958054   3.6711659e-23     0.049341295   0.00018847731       261.78402
   -0.040820451     0.025492848      0.15982963   4.2754483e-20   -0.0016327385    -0.026965076   7.6223205e-22   3.1287612e-21  -2.3869655e-20   9.3929405e-39        5.400133     0.001429595   3.5262004e-22     0.048107222   0.00018809512       255.75466
   -0.035593767     0.043135274      0.15760951   1.0055979e-20   -0.0038568094    -0.042723341    3.472892e-21   9.8180294e-22  -3.3167711e-20  -4.1435075e-38        5.400309    0.0022674147   6.5310851e-22     0.047049786    0.0001877606       250.58002
   -0.031029167     0.057111576      0.15478181  -3.5009724e-20   -0.0067322966    -0.056307441  -4.8023216e-21  -8.8414285e-21  -4.8623619e-20  -6.1176392e-38       5.4005368    0.0029873938   5.7504021e-22     0.046161864   0.00018747415       246.22774
   -0.027042782     0.068409408      0.15164131  -2.1604889e-20   -0.0099198741    -0.067973928  -1.6616956e-20   1.9173263e-20   1.4546881e-20   7.8947867e-38        5.400786    0.0036040722   3.8156751e-22     0.045412642   0.00018722843       242.55001
   -0.023561368     0.078115605      0.14837962  -3.1568498e-20    -0.013219044    -0.077963675  -2.9064527e-20   8.0289822e-20   1.3184967e-19  -1.7190358e-37       5.4010404    0.0041313279   3.5566006e-22     0.044777511   0.00018701719       239.42842
   -0.020520958     0.086606876      0.14512036  -1.0518874e-19    -0.016506812    -0.086497943  -3.3845348e-20   4.1458687e-20   7.4842546e-20   2.1886036e-38       5.4012907    0.0045817295     2.29752e-22     0.044236893    0.0001868352       236.76848
   -0.017865688     0.093908449      0.14195585  -8.6897345e-20    -0.019692034    -0.093777753  -2.4765208e-20  -1.1981823e-19  -1.7265655e-19   7.1519211e-37       5.4015307    0.0049664062  -1.4902406e-22     0.043775106   0.00018667811        234.4943
   -0.015546772        0.100095      0.13895279   7.4457572e-20    -0.022709353      -0.0999831  -3.6001625e-21  -1.6042414e-19   -2.406255e-19  -4.8111817e-37       5.4017562    0.0052950796  -2.9307188e-22     0.043379469   0.00018654232       232.54431
   -0.013521602      0.10533742      0.13615213   1.0513422e-19     -0.02551936     -0.10527248   8.0293433e-21   3.5378232e-20   2.0572826e-20  -1.3298287e-36       5.4019649      0.00557614   1.7347107e-23      0.04303963   0.00018642476       230.86819
   -0.011752967      0.10980704      0.13357385  -4.5325723e-20     -0.02810347     -0.10978344  -7.9453163e-22   9.8140981e-20   1.2109103e-19   1.0907525e-37       5.4021559    0.0058167584   1.5577043e-22     0.042747074   0.00018632287       229.42439
   -0.010208373      0.11363001      0.13122357  -5.0386888e-20    -0.030457085     -0.11363409  -2.8696776e-20  -4.7172422e-20  -3.7756008e-20  -1.8520513e-37       5.4023292    0.0060230244  -2.2329235e-23     0.042494743   0.00018623447       228.17846
  -0.0088594378      0.11689995      0.12909775   2.4515334e-20    -0.032584509     -0.11692506  -2.2846722e-20  -1.5196895e-20   -4.009117e-21  -1.0053228e-36       5.4024855    0.0062000904  -2.3838868e-23     0.042276746   0.00018615771       227.10158
  -0.0076813777      0.11969713       0.1271869  -8.9436546e-20    -0.034495765     -0.11974159   2.3765052e-20    2.260253e-20   3.0481058e-20  -4.9937653e-37       5.4026255    0.0063523076    1.786425e-23     0.042088147   0.00018609101       226.16955
   -0.006652547      0.12209342      0.12547789  -6.4351673e-20    -0.036204411     -0.12215568   1.3317053e-20  -2.4060145e-19  -2.4267852e-19  -5.8166993e-37       5.4027506    0.0064833483   -1.700186e-22     0.041924778   0.00018603301       225.36193
  -0.0057540422      0.12415046      0.12395552    2.990872e-19    -0.037725908     -0.12422799  -3.1797335e-20  -2.0770502e-19   -2.099368e-19    2.746299e-37       5.4028618    0.0065963127  -1.5699659e-22     0.041783116   0.00018598254       224.66141
  -0.0049693545      0.12591938      0.12260385    2.241395e-19    -0.039076429      -0.1260096  -1.8980074e-20   4.5370239e-19   4.2839313e-19   -8.874571e-37       5.4029605    0.0066938201   2.2473842e-22     0.041660162   0.00018593862       224.05324
  -0.0042840662      0.12744262      0.12140692  -3.4933997e-19    -0.040272061     -0.12754354   3.1946521e-20   4.7183058e-19   4.4743695e-19  -1.0757826e-36       5.4030478    0.0067780874   2.5026431e-22      0.04155336   0.00018590036       223.52485
   -0.003685586      0.12875597      0.12034933  -1.5746878e-19    -0.041328296     -0.12886609   3.8783726e-20  -3.1251229e-19  -2.9923492e-19  -6.5832449e-37       5.4031249    0.0068509939  -1.1638183e-22     0.041460525   0.00018586704       223.06547
  -0.0031629175      0.12988984      0.11941656   3.2703188e-19    -0.042259735     -0.13000786  -3.8114285e-21  -1.5347793e-21  -2.9023188e-20  -5.7167785e-36       5.4031929    0.0069141358  -3.7677916e-23      0.04137978     0.000185838       222.66584
  -0.0027064575      0.13086996       0.1185951  -2.7170284e-19    -0.043079912     -0.13099477  -1.4194243e-21   5.3737888e-19   4.8926066e-19  -7.7497042e-37       5.4032528     0.006968872   1.7642187e-22     0.041309514   0.00018581268       222.31803
  -0.0023078191      0.13171816      0.11787257  -7.1054265e-19    -0.043801235     -0.13184876   1.9500761e-20  -6.1573131e-19  -5.2180891e-19   2.7254498e-36       5.4033054    0.0070163614  -1.2359766e-22      0.04124834   0.00018579061       222.01518
  -0.0019596776      0.13245293      0.11723772   1.1837662e-19    -0.044434966      -0.1325885   -1.631891e-20  -1.5620361e-18  -1.3671969e-18  -3.3762327e-36       5.4033517    0.0070575947  -3.6202085e-22      0.04119506   0.00018577137       221.75139
  -0.0016556366      0.13309001      0.11668041   9.4700765e-19    -0.044991261     -0.13322986  -4.6472422e-20  -7.0487258e-19  -5.9485471e-19   7.1218923e-38       5.4033923    0.0070934205  -1.5815281e-22     0.041148639   0.00018575458       221.52153
  -0.0013901097      0.13364286      0.11619152   4.9829721e-19    -0.045479226     -0.13378639  -3.2315174e-20    9.257913e-19   8.4206443e-19  -1.6955636e-35       5.4034279    0.0071245668   1.4891082e-22     0.041108182   0.00018573993       221.32118
   -0.001158218      0.13412296      0.11576293   -4.429553e-19    -0.045906991     -0.13426967   7.3564519e-21   9.6520951e-19   8.4242657e-19  -2.4991017e-35       5.4034592    0.0071516594   1.5978695e-22     0.041072913   0.00018572715       221.14651
   -0.000955701      0.13454017       0.1153874  -8.7982088e-20    -0.046281785     -0.13468962   2.4663402e-20  -1.1338565e-19  -1.3402054e-19  -4.9174962e-36       5.4034866    0.0071752372  -1.7308385e-23      0.04104216     0.000185716        220.9942
 -0.00077883757      0.13490294      0.11505852   3.3568157e-19    -0.046610021     -0.13505475   1.1987563e-20   8.1621315e-19   6.6148115e-19   -1.153868e-35       5.4035105     0.007195765   5.3735774e-23      0.04101534   0.00018570627       220.86136
 -0.00062437811      0.13521854      0.11477061  -7.4527415e-19    -0.046897374     -0.13537239   1.7641799e-20   1.1913775e-18   9.9652566e-19  -2.8889395e-36       5.4035315     0.007213644   1.0923358e-22     0.040991945   0.00018569778       220.74548
 -0.00048948463      0.13549323      0.11451865   -9.579432e-19    -0.047148853     -0.13564885   1.9613384e-20  -1.5626852e-18  -1.3475792e-18   6.3234584e-36       5.4035499    0.0072292211  -9.1353046e-23     0.040971535   0.00018569037       220.64437
 -0.00037167862      0.13573239      0.11429822   4.8471128e-19    -0.047368875     -0.13588957  -1.0162779e-20   -2.647681e-18  -2.2502159e-18   -1.920305e-35        5.403566    0.0072427967  -1.6227656e-22     0.040953727    0.0001856839       220.55616
 -0.00026879555      0.13594071      0.11410541   3.5391975e-19    -0.047561329     -0.13609923  -2.2940324e-20  -4.6736338e-19   -3.564337e-19  -5.1306192e-35       5.4035801     0.007254631   -2.897345e-23     0.040938186   0.00018567825       220.47917
 -0.00017894507      0.13612216      0.11393664  -7.7123935e-19    -0.047729634     -0.13628192   5.2478439e-21  -1.8239544e-18  -1.4790744e-18  -3.2639274e-35       5.4035924    0.0072649497  -5.3190101e-23     0.040924624   0.00018567332       220.41198
  -0.0001004763      0.13628009      0.11378861   4.4594774e-19    -0.047876794     -0.13644114   1.3897402e-20  -4.5275588e-18  -3.7861902e-18  -2.4571164e-36       5.4036031    0.0072739486  -1.4768527e-22     0.040912787   0.00018566901       220.35334
 -3.1947465e-05      0.13641827      0.11365782   2.0813937e-18    -0.048006367     -0.13658096   5.7098077e-21  -9.3235539e-19  -8.1754281e-19     1.79855e-35       5.4036126    0.0072818551  -4.0734876e-23     0.040902377   0.00018566522       220.30177
  2.9991242e-05       0.1365433      0.11353891    1.419789e-18    -0.048124314     -0.13670801   7.9860269e-21   4.5222501e-18   3.6979617e-18   3.7461947e-36       5.4036212    0.0072890406   1.0955428e-22       0.0408929   0.00018566178       220.25481
  9.0286504e-05      0.13666369      0.11342505  -4.1728767e-19    -0.048237869     -0.13683012  -3.5223227e-21   5.7474315e-18    4.759008e-18  -1.4603332e-36       5.4036295    0.0072959485   1.4083403e-22     0.040883774   0.00018565845        220.2096
  0.00015121058      0.13678489      0.11331152  -9.3374415e-19    -0.048351577     -0.13695215  -1.2668302e-20   2.3573948e-18   2.0057173e-18   9.0674336e-35       5.4036379    0.0073028542   5.7866853e-23     0.040874643   0.00018565513       220.16436
  0.00021277004      0.13690784      0.11319685  -8.9684441e-20    -0.048466566     -0.13707527   9.4012851e-22   1.0613054e-18   8.9487314e-19  -1.7877056e-35       5.4036463    0.0073098249   2.7581344e-23     0.040865421   0.00018565177       220.11867
   0.0002749715      0.13703203       0.1130809    -6.55691e-19    -0.048582851     -0.13719949   1.8011379e-20    1.864418e-18   1.5233851e-18  -5.2821722e-35       5.4036548    0.0073168611   4.7616449e-23     0.040856106   0.00018564838       220.07252
  0.00033782165      0.13715724      0.11296365  -1.4691553e-18    -0.048700447     -0.13732482   5.7060454e-21  -2.1304843e-18  -1.7649362e-18   1.5125636e-34       5.4036634    0.0073239634  -5.7448313e-23     0.040846699   0.00018564495       220.02591
  0.00040132727      0.13728353      0.11284508   2.1075091e-19     -0.04881937     -0.13745127  -2.4814188e-20  -5.1805661e-18    -4.21846e-18   5.1182346e-35       5.4036721    0.0073311322  -1.3807572e-22     0.040837198   0.00018564149       219.97883
  0.00046549519      0.13741097      0.11272516   1.9688457e-18    -0.048939636     -0.13757883  -3.6754088e-20  -1.0235629e-18   -7.050602e-19  -4.6736061e-35       5.4036809    0.0073383682  -2.6778361e-23     0.040827602   0.00018563799       219.93128
  0.00053033231      0.13753954      0.11260389   6.3291419e-19    -0.049061259     -0.13770753  -1.9621244e-20   4.2653307e-18   3.6321244e-18   1.7233172e-35       5.4036899    0.0073456718   1.1682492e-22      0.04081791   0.00018563446       219.88326
  0.00059584562      0.13766926      0.11248124  -1.2010631e-18    -0.049184256     -0.13783736   6.4029598e-21   1.9271441e-18   1.6144959e-18  -1.0710245e-34       5.4036989    0.0073530436   5.2061394e-23     0.040808121   0.00018563089       219.83475
  0.00066204216      0.13780013       0.1123572  -7.1769701e-19    -0.049308643     -0.13796833   1.2340441e-20  -1.4788262e-18  -1.2209483e-18  -9.3218129e-35        5.403708    0.0073604841  -4.1666179e-23     0.040798236   0.00018562729       219.78577
  0.00072892907      0.13793214      0.11223176  -2.6533323e-19    -0.049434437     -0.13810046   6.7527012e-21  -1.4449825e-18   -1.186878e-18   5.4519155e-35       5.4037172    0.0073679939  -4.1492402e-23     0.040788251   0.00018562365       219.73629
  0.00079651354      0.13806532       0.1121049  -2.2291253e-19    -0.049561653     -0.13823375   1.9347024e-21  -2.6614088e-18  -2.2053215e-18   1.1024181e-34       5.4037265    0.0073755734  -7.8214156e-23     0.040778168   0.00018561997       219.68632
  0.00086480285      0.13819967       0.1119766   5.2417556e-19    -0.049690309      -0.1383682  -3.1184108e-21  -2.4202336e-18  -2.0622946e-18   1.2507943e-35        5.403736    0.0073832233  -7.0670839e-23     0.040767984   0.00018561625       219.63585
  0.00093380434      0.13833518      0.11184685   9.2406953e-19    -0.049820422     -0.13850382   7.9663544e-22  -1.8647143e-19  -2.2185796e-19   -8.639103e-35       5.4037455    0.0073909441  -4.5805564e-24     0.040757699    0.0001856125       219.58489
   0.0010035254      0.13847186      0.11171562   1.0252424e-18    -0.049952008     -0.13864062    7.054277e-21   1.8546811e-18    1.510572e-18  -1.1999325e-35       5.4037552    0.0073987363    5.698073e-23     0.040747312    0.0001856087       219.53341
   0.0010739737      0.13860973      0.11158291   3.6289818e-19    -0.050085086     -0.13877861   1.5022183e-20   4.4470501e-18   3.5565187e-18   9.7043033e-35       5.4037649    0.0074066004   1.3966929e-22     0.040736821   0.00018560487       219.48142
   0.0011451566      0.13874878      0.11144869  -1.5628827e-18    -0.050219673      -0.1389178   3.8120099e-20   3.3880015e-18   2.6197445e-18  -1.6263614e-35       5.4037748    0.0074145371   1.0716641e-22     0.040726227     0.000185601       219.42891
   0.0012170819      0.13888902      0.11131295  -1.8971869e-18    -0.050355787     -0.13905819   2.1779747e-20  -2.6938539e-18  -2.2189414e-18   -5.671178e-35       5.4037848    0.0074225469  -8.7448068e-23     0.040715527    0.0001855971       219.37588
   0.0012897573      0.13903046      0.11117567    6.354864e-20    -0.050493446     -0.13919978  -3.7068829e-20  -5.0933767e-18  -3.9946934e-18   1.7533545e-34       5.4037949    0.0074306302  -1.6674634e-22     0.040704721   0.00018559315       219.32233
   0.0013631906      0.13917311      0.11103683   1.1969714e-18    -0.050632669     -0.13934259  -4.6700381e-20  -2.2735624e-18   -1.640374e-18   -3.127724e-35       5.4038051    0.0074387877    -7.64087e-23     0.040693809   0.00018558916       219.26824
   0.0014373898      0.13931696      0.11089641   6.7294319e-19    -0.050773474     -0.13948662  -8.2916133e-21   3.1702408e-19   3.4460198e-19  -1.4581906e-34       5.4038154      0.00744702   1.0449607e-23     0.040682788   0.00018558513       219.21362
   0.0015123628      0.13946203       0.1107544  -1.4449795e-19    -0.050915879     -0.13963188    1.291323e-20   6.9702651e-19   5.0109874e-19   1.1358295e-35       5.4038259    0.0074553275   2.4474378e-23     0.040671658   0.00018558106       219.15845
   0.0015881177      0.13960832      0.11061077  -8.5668119e-19    -0.051059905     -0.13977837   8.5518649e-21  -3.4069859e-19  -3.3339318e-19  -5.3505164e-36       5.4038364    0.0074637108  -1.1649118e-23     0.040660418   0.00018557695       219.10274
   0.0016646626      0.13975585      0.11046551  -7.7667795e-19    -0.051205569     -0.13992611   4.3483878e-21  -3.0356035e-18  -2.4075605e-18  -4.5424786e-36       5.4038471    0.0074721705  -1.0758357e-22     0.040649066   0.00018557279       219.04647
   0.0017420058      0.13990462      0.11031859   9.4477039e-19    -0.051352892      -0.1400751   6.0644865e-21  -3.6572884e-18  -2.9171873e-18   3.6253804e-36       5.4038579    0.0074807072  -1.3011816e-22     0.040637603    0.0001855686       218.98965
   0.0018201557      0.14005464         0.11017   2.5754555e-18    -0.051501893     -0.14022534  -1.4217778e-21   1.1347768e-18   8.3705704e-19   4.2693657e-35       5.4038689    0.0074893213   4.3104663e-23     0.040626026   0.00018556436       218.93227
   0.0018991205      0.14020593      0.11001972   1.2165718e-18    -0.051652592     -0.14037684  -1.1636281e-20   7.4368002e-18   5.8433637e-18  -2.1626843e-35       5.4038799    0.0074980134   2.7596206e-22     0.040614335   0.00018556008       218.87431
   0.0019789089      0.14035848      0.10986772  -2.0708005e-18    -0.051805009     -0.14052961   1.1923833e-22   6.2159484e-18   4.8895515e-18  -3.4142179e-35       5.4038911    0.0075067842   2.3101072e-22     0.040602529   0.00018555576       218.81579
   0.0020595294      0.14051231        0.109714  -2.1509875e-18    -0.051959164     -0.14068365   6.0162114e-21  -1.5623954e-18  -1.2596758e-18  -1.2761915e-35       5.4039024    0.0075156341  -6.1318665e-23     0.040590606   0.00018555139       218.75668
   0.0021409906      0.14066743      0.10955852   2.1725239e-19    -0.052115077     -0.14083898  -4.9854803e-21  -2.9607107e-18  -2.3023837e-18  -9.6225432e-36       5.4039139    0.0075245637  -1.1354173e-22     0.040578566   0.00018554697         218.697
   0.0022233015      0.14082385      0.10940127   7.0286371e-19    -0.052272769     -0.14099559   2.2460364e-23  -5.8158573e-19  -3.7919461e-19   4.6580309e-35       5.4039255    0.0075335736  -2.3125328e-23     0.040566407   0.00018554252       218.63672
   0.0023064707      0.14098158      0.10924222   1.5668795e-20    -0.052432261     -0.14115349   9.6249435e-21   3.9375377e-20    4.575284e-20   2.9746147e-35       5.4039372    0.0075426642   1.6657288e-24     0.040554129   0.00018553802       218.57585
   0.0023905073      0.14114062      0.10908136  -7.8898492e-19    -0.052593574     -0.14131269   1.3517326e-20  -5.1581003e-19  -4.4009029e-19   1.9998743e-35       5.4039491    0.0075518363  -2.0739005e-23      0.04054173   0.00018553347       218.51437
   0.0024754204      0.14130098      0.10891866  -2.3070879e-19    -0.052756729      -0.1414732   9.1164107e-21  -3.2273853e-18  -2.5232425e-18  -6.1198987e-36        5.403961    0.0075610903  -1.3323287e-22     0.040529209   0.00018552887        218.4523
   0.0025612189      0.14146266      0.10875411   1.6668277e-18    -0.052921747     -0.14163501  -8.4459654e-21  -1.4089005e-18  -1.0868853e-18  -2.2815822e-35       5.4039732    0.0075704267    -5.73996e-23     0.040516565   0.00018552423       218.38961
   0.0026479123      0.14162568      0.10858768   1.3913428e-18     -0.05308865     -0.14179814  -2.6567691e-21   3.6861322e-18     2.82722e-18   2.3995413e-35       5.4039854    0.0075798462   1.5713633e-22     0.040503796   0.00018551955        218.3263
   0.0027355098      0.14179003      0.10841935  -7.1607764e-19    -0.053257461      -0.1419626   1.2214379e-20   4.2447349e-18   3.2178657e-18  -9.0877431e-37       5.4039979    0.0075893492   1.8221044e-22     0.040490903   0.00018551481       218.26237
   0.0028240209      0.14195571      0.10824909  -2.1641301e-18    -0.053428201     -0.14212837   4.1262981e-21    6.583924e-19   4.9396846e-19   2.7747316e-36       5.4040104    0.0075989364   2.7441329e-23     0.040477883   0.00018551003       218.19781
    0.002913455      0.14212273      0.10807689  -9.7758262e-19    -0.053600893     -0.14229548   4.0077921e-22  -4.5879526e-18  -3.4517708e-18  -1.9817696e-35       5.4040231    0.0076086082  -2.0484442e-22     0.040464735    0.0001855052       218.13262
   0.0030038219      0.14229109      0.10790272    1.710984e-18    -0.053775561     -0.14246392  -2.5163246e-21  -3.2255915e-18  -2.4334595e-18  -1.0039553e-35        5.404036    0.0076183653  -1.4328483e-22     0.040451459   0.00018550032       218.06679
   0.0030951311      0.14246079      0.10772656   1.5309988e-18    -0.053952227     -0.14263371  -1.2027191e-20   2.3829692e-18   1.7666651e-18   1.9280382e-35        5.404049    0.0076282081   1.1034556e-22     0.040438053   0.00018549539       218.00031
   0.0031873927      0.14263183      0.10754838  -2.5621927e-19    -0.054130914     -0.14280484  -1.8720932e-20   2.9028923e-18   2.1928562e-18  -9.9443092e-37       5.4040621    0.0076381372   1.3390573e-22     0.040424515   0.00018549041       217.93318
   0.0032806164       0.1428042      0.10736817  -8.9840337e-19    -0.054311648     -0.14297732  -1.2437757e-20    1.300393e-18   1.0276775e-18    1.075099e-35       5.4040754    0.0076481532   5.9867287e-23     0.040410845   0.00018548539       217.86539
   0.0033748124      0.14297792      0.10718589  -3.1049612e-19    -0.054494451     -0.14315116   5.4422483e-21  -7.1343189e-19  -5.2026101e-19  -1.3729237e-35       5.4040889    0.0076582566  -3.4891193e-23     0.040397042   0.00018548031       217.79693
   0.0034699907      0.14315298      0.10700152   9.7647875e-19     -0.05467935     -0.14332635   1.2097465e-20   5.7902719e-20   2.7545126e-20   2.0146716e-35       5.4041025    0.0076684479   4.3786458e-24     0.040383104   0.00018547518       217.72781
   0.0035661616      0.14332938      0.10681504   4.6617342e-19    -0.054866368     -0.14350291   1.0681988e-20   3.1178597e-18   2.3127518e-18   1.0597923e-36       5.4041163    0.0076787276   1.5466971e-22      0.04036903   0.00018546999       217.65801
   0.0036633356      0.14350712      0.10662642   -1.718789e-18    -0.055055531     -0.14368083   1.5261461e-20   1.8344986e-18   1.3420249e-18   6.3373005e-36       5.4041302    0.0076890963   9.0365672e-23     0.040354819   0.00018546476       217.58753
   0.0037615229      0.14368621      0.10643564  -1.7564407e-18    -0.055246864     -0.14386012   1.4493769e-20  -3.6256288e-18  -2.7088283e-18    2.554028e-35       5.4041443    0.0076995546  -1.8620758e-22      0.04034047   0.00018545947       217.51636
   0.0038607342      0.14386665      0.10624267    1.092281e-18    -0.055440393     -0.14404079  -1.3676515e-20   -4.937289e-18  -3.6284694e-18  -4.4964736e-35       5.4041586    0.0077101029  -2.5272551e-22     0.040325981   0.00018545413        217.4445
   0.0039609802      0.14404844      0.10604749   1.7155478e-18    -0.055636145     -0.14422283  -2.2944242e-20   7.0383072e-19   5.6720478e-19  -1.4702448e-35        5.404173    0.0077207417   3.8690622e-23     0.040311351   0.00018544874       217.37193
   0.0040622717      0.14423161      0.10585006  -6.0541231e-19    -0.055834145     -0.14440626   8.5457717e-21   1.7110959e-18   1.2733451e-18   9.9078435e-36       5.4041876    0.0077314716   8.8308067e-23     0.040296578   0.00018544329       217.29866
   0.0041646195      0.14441613      0.10565037  -7.0845688e-19    -0.056034419     -0.14459106   1.6621759e-20  -1.6470838e-18  -1.2503973e-18    1.809102e-37       5.4042024    0.0077422931  -8.8370574e-23     0.040281663   0.00018543779       217.22467
   0.0042680347      0.14460203      0.10544838   8.8022998e-19    -0.056236995     -0.14477726  -3.9581551e-21  -9.9701302e-19  -7.5660562e-19   5.9198537e-35       5.4042173    0.0077532067  -5.2183857e-23     0.040266602   0.00018543223       217.14996
   0.0043725284      0.14478931      0.10524407   9.7619906e-19      -0.0564419     -0.14496484  -2.4775076e-20   1.7324998e-18   1.3140727e-18   1.2252118e-35       5.4042324    0.0077642129   9.5720505e-23     0.040251396   0.00018542662       217.07453
   0.0044781119      0.14497799      0.10503741  -5.8963019e-19     -0.05664916      -0.1451538  -1.0177891e-20   2.6884904e-18   1.9970153e-18  -2.1125117e-35       5.4042477    0.0077753122   1.4932264e-22     0.040236042   0.00018542095       216.99836
   0.0045847965      0.14516807      0.10482838  -1.8982671e-18    -0.056858803     -0.14534417   2.6383629e-20   -5.510718e-19  -4.2269243e-19   9.6995984e-36       5.4042632     0.007786505  -3.2919824e-23     0.040220539   0.00018541522       216.92145
   0.0046925938      0.14535955      0.10461695  -6.7207672e-19    -0.057070856     -0.14553592   1.6165058e-20  -4.4528199e-18  -3.2422669e-18  -9.9484954e-36       5.4042788    0.0077977919   -2.567685e-22     0.040204887   0.00018540943        216.8438
   0.0048015152      0.14555245      0.10440308   1.5894579e-18    -0.057285347     -0.14572907  -1.6478673e-20  -2.9802199e-18  -2.1422411e-18  -1.3292206e-35       5.4042947    0.0078091734  -1.7300052e-22     0.040189083   0.00018540359       216.76539
   0.0049115726      0.14574677      0.10418676   1.7245173e-18    -0.057502303     -0.14592361  -1.8042788e-20   1.5569846e-18   1.1224035e-18   1.7712165e-35       5.4043107    0.0078206499   9.3131735e-23     0.040173126   0.00018539769       216.68623
   0.0050227778      0.14594252      0.10396795   4.2462397e-19    -0.057721753     -0.14611955  -2.1204784e-21   3.4037711e-18   2.4083173e-18   1.7979482e-35       5.4043269    0.0078322219   2.0603942e-22     0.040157016   0.00018539173       216.60629
   0.0051351427       0.1461397      0.10374663  -6.6162782e-19    -0.057943724     -0.14631689   9.1937731e-21   3.0385005e-18    2.141108e-18   1.2615532e-35       5.4043433    0.0078438899   1.8681738e-22      0.04014075   0.00018538571       216.52559
   0.0052486795       0.1463383      0.10352277  -1.5148277e-18    -0.058168245     -0.14651562   5.2132194e-21   8.9303212e-19   6.5755911e-19     1.78766e-35       5.4043599    0.0078556543   5.3984163e-23     0.040124327   0.00018537963        216.4441
   0.0053634003      0.14653833      0.10329633  -1.3590726e-18    -0.058395345     -0.14671575  -1.2945729e-20  -2.5310303e-18  -1.7428801e-18  -3.9781961e-36       5.4043767    0.0078675156  -1.6183835e-22     0.040107746   0.00018537349       216.36182
   0.0054793176      0.14673978      0.10306729   2.3980376e-19    -0.058625054     -0.14691728  -1.4630399e-20  -4.0137665e-18  -2.7883767e-18  -1.6124695e-35       5.4043937    0.0078794741  -2.5774384e-22     0.040091006   0.00018536729       216.27876
   0.0055964437      0.14694266      0.10283563   1.3711603e-18      -0.0588574      -0.1471202  -9.3216831e-21  -1.5744477e-18  -1.0845566e-18  -3.9955422e-35       5.4044109    0.0078915304  -1.0042908e-22     0.040074105   0.00018536102       216.19489
   0.0057147914      0.14714694      0.10260131    3.866949e-19    -0.059092413     -0.14732452  -1.3650357e-21   1.0018838e-18   7.0866627e-19  -5.0191719e-36       5.4044283    0.0079036849   6.5782944e-23     0.040057041   0.00018535469       216.11021
   0.0058343733      0.14735262      0.10236429  -2.0087885e-19    -0.059330124     -0.14753022   9.8394535e-21  -1.7769192e-19  -1.3148003e-19   2.8097886e-35       5.4044459     0.007915938  -1.3390493e-23     0.040039814    0.0001853483       216.02471
   0.0059552024      0.14755969      0.10212456   8.4049474e-19    -0.059570564     -0.14773732    7.685176e-21   2.6822778e-19   1.6686738e-19    1.006751e-35       5.4044637      0.00792829   2.0076336e-23     0.040022422   0.00018534185        215.9384
   0.0060772915      0.14776816      0.10188207    5.350372e-19    -0.059813764     -0.14794581   1.6848902e-20    2.804439e-18   1.9207933e-18   7.2396144e-35       5.4044818    0.0079407414   1.9483139e-22     0.040004863   0.00018533533       215.85125
    0.006200654        0.147978      0.10163681  -1.1125776e-18    -0.060059755     -0.14815568    2.498143e-20   2.1175747e-18   1.4374482e-18  -3.5132275e-36          5.4045    0.0079532927   1.4779154e-22     0.039987136   0.00018532874       215.76327
   0.0063253029      0.14818919      0.10138872  -1.0693469e-18     -0.06030857     -0.14836693   5.1629381e-21  -1.1895022e-18  -8.2710744e-19  -6.0181453e-35       5.4045185     0.007965944  -8.5881786e-23     0.039969239    0.0001853221       215.67444
   0.0064512519      0.14840174      0.10113779   9.1850384e-19    -0.060560241     -0.14857957  -3.0858345e-20  -1.6474315e-18  -1.1242413e-18   6.3310836e-35       5.4045371    0.0079786959  -1.1843141e-22     0.039951171   0.00018531538       215.58476
   0.0065785143      0.14861562      0.10088398   1.3693097e-18    -0.060814801     -0.14879357  -2.6155654e-20   2.0702618e-18   1.3921859e-18   4.7627241e-36        5.404556    0.0079915487   1.5259992e-22     0.039932931    0.0001853086       215.49422
    0.006707104      0.14883084      0.10062725   1.0983658e-19    -0.061072284     -0.14900895   7.5200473e-21   3.1176869e-18   2.0784089e-18  -5.6080492e-35       5.4045752    0.0080045027    2.303035e-22     0.039914518   0.00018530175       215.40281
   0.0068370347      0.14904739      0.10036758    1.410558e-19    -0.061332724     -0.14922569   6.3589295e-21   2.3783131e-18   1.5883828e-18   1.2219062e-35       5.4045945    0.0080175582   1.7864585e-22     0.039895928   0.00018529483       215.31053
   0.0069683205      0.14926524      0.10010493  -5.3997768e-19    -0.061596153      -0.1494438   1.0830751e-20   3.5341426e-18   2.3857578e-18   6.4110953e-36       5.4046141    0.0080307156   2.6897136e-22     0.039877162   0.00018528784       215.21737
   0.0071009754      0.14948441     0.099839256  -2.3878918e-18    -0.061862608     -0.14966326   2.0430476e-20   4.2998659e-19   3.1235334e-19  -7.7746014e-36       5.4046339    0.0080439752   3.0013957e-23     0.039858217   0.00018528078       215.12332
   0.0072350138      0.14970489     0.099570536  -1.9518914e-18    -0.062132122     -0.14988406   4.5323049e-21  -4.7290515e-18  -3.1215135e-18   2.0722878e-35        5.404654    0.0080573373  -3.7218023e-22     0.039839093   0.00018527366       215.02837
   0.0073704501      0.14992671     0.099298731   4.4648233e-19     -0.06240473     -0.15010621  -7.1188325e-21  -6.1956721e-18  -4.0774654e-18  -1.0378964e-35       5.4046742    0.0080708021  -4.9075321e-22     0.039819787   0.00018526646       214.93252
   0.0075072989      0.15014983     0.099023807   2.8321656e-18    -0.062680467     -0.15032969  -1.3518476e-20  -3.0561739e-18  -2.0102963e-18  -4.3519206e-35       5.4046948      0.00808437   -2.423137e-22     0.039800297   0.00018525919       214.83575