/*--------------------------------*- C++ -*----------------------------------*\
  =========                 |
  \\      /  F ield         | OpenFOAM: The Open Source CFD Toolbox
   \\    /   O peration     | Website:  https://openfoam.org
    \\  /    A nd           | Version:  12
     \\/     M anipulation  |
\*---------------------------------------------------------------------------*/
FoamFile
{
    format      ascii;
    class       volScalarField;
    location    "800";
    object      nut;
}
// * * * * * * * * * * * * * * * * * * * * * * * * * * * * * * * * * * * * * //

dimensions      [0 2 -1 0 0 0 0];

internalField   nonuniform List<scalar> 
13056
(
3.8926663e-07
2.4716684e-07
2.1804619e-07
2.0632417e-07
1.9975703e-07
1.9541702e-07
1.9234305e-07
1.9007736e-07
1.8835598e-07
1.8701581e-07
1.8595168e-07
1.8509318e-07
1.843916e-07
1.8381228e-07
1.8333002e-07
1.8292609e-07
1.8258699e-07
1.8230096e-07
1.8206874e-07
1.818438e-07
1.8186701e-07
1.8084967e-07
1.8507876e-07
1.2252679e-07
3.7888675e-11
4.6724518e-11
4.3316237e-11
3.9915145e-11
3.7370156e-11
3.5284381e-11
3.3497589e-11
3.1959472e-11
3.0630383e-11
2.9470148e-11
2.844546e-11
2.753176e-11
2.6711522e-11
2.5970219e-11
2.5294558e-11
2.467466e-11
2.4103237e-11
2.3573829e-11
2.3081247e-11
2.2621139e-11
2.2189723e-11
2.1783891e-11
2.1400959e-11
2.1038714e-11
2.0695251e-11
2.0368793e-11
2.0057876e-11
1.9761192e-11
1.9477488e-11
1.920569e-11
1.8944917e-11
1.8694318e-11
1.8453073e-11
1.8220536e-11
1.7996133e-11
1.7779261e-11
1.7569364e-11
1.7366007e-11
1.7168801e-11
1.6977325e-11
1.6791185e-11
1.6610072e-11
1.6433707e-11
1.6261802e-11
1.6094071e-11
1.5930254e-11
1.5770149e-11
1.5613562e-11
1.5460277e-11
1.5310083e-11
1.5162815e-11
1.5018325e-11
1.4876461e-11
1.4737064e-11
1.4599976e-11
1.4465077e-11
1.4332257e-11
1.4201394e-11
1.4072363e-11
1.3945043e-11
1.381934e-11
1.3695165e-11
1.3572419e-11
1.3450997e-11
1.3330801e-11
1.3211754e-11
1.3093777e-11
1.2976785e-11
1.2860685e-11
1.2745394e-11
1.2630842e-11
1.2516956e-11
1.2403652e-11
1.2290846e-11
1.2178463e-11
1.2066432e-11
1.1954676e-11
1.1843111e-11
1.1731651e-11
1.1620223e-11
1.1508747e-11
1.1397131e-11
1.1285284e-11
1.1173118e-11
1.1060542e-11
1.0947452e-11
1.0833743e-11
1.0719299e-11
1.0604049e-11
1.0490278e-11
1.0381467e-11
1.0278512e-11
1.0180905e-11
1.0088196e-11
9.9999813e-12
9.915902e-12
9.8356343e-12
9.7588863e-12
9.6853965e-12
9.6149303e-12
9.5472741e-12
9.4822302e-12
9.419618e-12
9.3592595e-12
9.3010105e-12
9.2446485e-12
9.1901604e-12
9.1368853e-12
9.0857151e-12
9.033284e-12
8.9877655e-12
8.9129388e-12
3.896006e-07
2.4731956e-07
2.1812814e-07
2.0637731e-07
1.9979336e-07
1.9544215e-07
1.9236019e-07
1.9008855e-07
1.883626e-07
1.8701884e-07
1.8595182e-07
1.8509098e-07
1.8438746e-07
1.8380652e-07
1.8332289e-07
1.8291778e-07
1.8257768e-07
1.8229075e-07
1.8205778e-07
1.8183207e-07
1.8185531e-07
1.8083309e-07
1.8508196e-07
1.2271502e-07
7.8182173e-09
1.0126223e-08
9.5308671e-09
8.860838e-09
8.3461516e-09
7.917861e-09
7.5469988e-09
7.2251063e-09
6.9450692e-09
6.6992087e-09
6.4810003e-09
6.2855779e-09
6.1094507e-09
5.9497098e-09
5.8036565e-09
5.6692684e-09
5.545057e-09
5.4296968e-09
5.3221157e-09
5.2214126e-09
5.1268008e-09
5.0376324e-09
4.9533464e-09
4.8734806e-09
4.7976357e-09
4.7254377e-09
4.6565789e-09
4.5907832e-09
4.5277847e-09
4.4673553e-09
4.4093081e-09
4.353462e-09
4.2996411e-09
4.247708e-09
4.1975404e-09
4.1490085e-09
4.1019922e-09
4.0563988e-09
4.0121446e-09
3.9691387e-09
3.9272955e-09
3.8865487e-09
3.8468382e-09
3.8081014e-09
3.7702759e-09
3.7333055e-09
3.6971462e-09
3.6617561e-09
3.6270878e-09
3.5930953e-09
3.5597422e-09
3.5269967e-09
3.4948255e-09
3.4631934e-09
3.4320653e-09
3.4014155e-09
3.3712195e-09
3.3414506e-09
3.312081e-09
3.2830836e-09
3.254438e-09
3.2261245e-09
3.1981208e-09
3.1704038e-09
3.1429514e-09
3.1157463e-09
3.0887714e-09
3.062007e-09
3.0354325e-09
3.0090292e-09
2.9827811e-09
2.956672e-09
2.9306829e-09
2.9047944e-09
2.8789895e-09
2.8532524e-09
2.8275653e-09
2.8019086e-09
2.7762632e-09
2.7506118e-09
2.7249363e-09
2.6992154e-09
2.6734278e-09
2.6475534e-09
2.6215711e-09
2.5954565e-09
2.5691851e-09
2.5427299e-09
2.5160741e-09
2.4897465e-09
2.4645538e-09
2.4407057e-09
2.418086e-09
2.3965917e-09
2.3761309e-09
2.3566216e-09
2.3379895e-09
2.3201679e-09
2.3030968e-09
2.2867224e-09
2.2709958e-09
2.2558716e-09
2.2413083e-09
2.2272649e-09
2.2137084e-09
2.2005873e-09
2.1878988e-09
2.1754894e-09
2.1635665e-09
2.1513474e-09
2.1407337e-09
2.1232823e-09
3.9071819e-07
2.4779837e-07
2.183928e-07
2.0655365e-07
1.9991783e-07
1.9553189e-07
1.9242512e-07
1.9013499e-07
1.8839486e-07
1.8703995e-07
1.8596401e-07
1.8509588e-07
1.8438636e-07
1.8380038e-07
1.833125e-07
1.8290375e-07
1.8256049e-07
1.8227081e-07
1.8203544e-07
1.8180731e-07
1.8183001e-07
1.8079636e-07
1.8508959e-07
1.2280656e-07
3.9051183e-08
5.4448369e-08
5.2811794e-08
5.0040832e-08
4.776936e-08
4.5809782e-08
4.4070471e-08
4.2532374e-08
4.1173629e-08
3.9965116e-08
3.8880385e-08
3.7899112e-08
3.7006545e-08
3.6190289e-08
3.5438432e-08
3.474183e-08
3.4093828e-08
3.3488439e-08
3.2920742e-08
3.2386568e-08
3.1882245e-08
3.1404731e-08
3.0951383e-08
3.0520022e-08
3.0108755e-08
2.9715787e-08
2.9339647e-08
2.8978999e-08
2.8632544e-08
2.8299164e-08
2.7977945e-08
2.7667994e-08
2.7368433e-08
2.7078582e-08
2.6797837e-08
2.6525542e-08
2.6261088e-08
2.600401e-08
2.575389e-08
2.5510261e-08
2.5272682e-08
2.5040818e-08
2.4814363e-08
2.4592996e-08
2.4376389e-08
2.4164251e-08
2.3956357e-08
2.3752488e-08
2.3552397e-08
2.3355837e-08
2.316262e-08
2.2972578e-08
2.2785535e-08
2.2601303e-08
2.2419692e-08
2.2240564e-08
2.206379e-08
2.1889225e-08
2.1716718e-08
2.1546118e-08
2.1377315e-08
2.1210201e-08
2.1044655e-08
2.0880545e-08
2.0717748e-08
2.0556167e-08
2.0395707e-08
2.0236255e-08
2.0077694e-08
1.9919914e-08
1.9762826e-08
1.9606335e-08
1.945033e-08
1.9294695e-08
1.9139331e-08
1.8984145e-08
1.8829028e-08
1.8673863e-08
1.8518534e-08
1.8362936e-08
1.8206958e-08
1.8050467e-08
1.7893333e-08
1.7735429e-08
1.7576622e-08
1.741676e-08
1.7255686e-08
1.709323e-08
1.6929279e-08
1.6767087e-08
1.6611646e-08
1.6464284e-08
1.6324315e-08
1.619113e-08
1.6064186e-08
1.5942996e-08
1.5827119e-08
1.5716156e-08
1.560975e-08
1.5507579e-08
1.540935e-08
1.531479e-08
1.522365e-08
1.5135683e-08
1.5050689e-08
1.4968354e-08
1.4888665e-08
1.4810669e-08
1.4735658e-08
1.4658748e-08
1.4591849e-08
1.4481758e-08
3.9265952e-07
2.4862429e-07
2.1885279e-07
2.0686232e-07
2.0013742e-07
1.9569183e-07
1.9254241e-07
1.9022051e-07
1.88456e-07
1.8708193e-07
1.8599063e-07
1.8510999e-07
1.8439012e-07
1.837955e-07
1.8330029e-07
1.8288527e-07
1.825366e-07
1.8224215e-07
1.8200267e-07
1.8177033e-07
1.8179187e-07
1.807411e-07
1.8510299e-07
1.2279294e-07
8.4576938e-08
1.2538423e-07
1.2503258e-07
1.205831e-07
1.1657422e-07
1.1295848e-07
1.0965993e-07
1.0668663e-07
1.0401989e-07
1.0161773e-07
9.9437947e-08
9.7446675e-08
9.5618846e-08
9.3933525e-08
9.2369815e-08
9.0911009e-08
8.954516e-08
8.8261534e-08
8.7051052e-08
8.5905987e-08
8.4819471e-08
8.3785779e-08
8.2799926e-08
8.185782e-08
8.0955867e-08
8.0090631e-08
7.92593e-08
7.8459292e-08
7.7688057e-08
7.6943412e-08
7.6223564e-08
7.5526748e-08
7.485121e-08
7.4195605e-08
7.3558737e-08
7.2939281e-08
7.2335994e-08
7.1747941e-08
7.1174286e-08
7.061407e-08
7.0066379e-08
6.9530532e-08
6.9005912e-08
6.8491848e-08
6.7987659e-08
6.749273e-08
6.7006596e-08
6.6528811e-08
6.6058845e-08
6.5596168e-08
6.5140382e-08
6.4691139e-08
6.4248061e-08
6.3810738e-08
6.3378753e-08
6.2951811e-08
6.2529636e-08
6.211191e-08
6.1698293e-08
6.1288447e-08
6.0882131e-08
6.0479107e-08
6.0079097e-08
5.9681803e-08
5.9286936e-08
5.8894279e-08
5.8503612e-08
5.8114672e-08
5.7727178e-08
5.7340874e-08
5.6955545e-08
5.6570964e-08
5.618686e-08
5.5802952e-08
5.5418995e-08
5.5034756e-08
5.4649968e-08
5.4264333e-08
5.3877556e-08
5.3489369e-08
5.3099485e-08
5.2707566e-08
5.2313264e-08
5.191625e-08
5.1516174e-08
5.1112628e-08
5.0705193e-08
5.0293408e-08
4.9876962e-08
4.9464111e-08
4.9067633e-08
4.8691022e-08
4.8332628e-08
4.7990988e-08
4.7664792e-08
4.7352864e-08
4.7054133e-08
4.6767628e-08
4.6492479e-08
4.62279e-08
4.5973174e-08
4.5727631e-08
4.5490657e-08
4.5261639e-08
4.5040087e-08
4.4825207e-08
4.4616984e-08
4.4412966e-08
4.4216489e-08
4.4014923e-08
4.3839233e-08
4.3549744e-08
3.9548959e-07
2.4983199e-07
2.1952925e-07
2.0731873e-07
2.0046419e-07
1.9593171e-07
1.9272015e-07
1.9035196e-07
1.8855192e-07
1.8714993e-07
1.8603624e-07
1.8513737e-07
1.8440242e-07
1.8379518e-07
1.8328929e-07
1.8286512e-07
1.8250854e-07
1.8220714e-07
1.8196163e-07
1.8172313e-07
1.8174282e-07
1.8066925e-07
1.8512656e-07
1.227009e-07
1.3251979e-07
2.0615219e-07
2.0988527e-07
2.0494414e-07
1.9985836e-07
1.9503662e-07
1.9052017e-07
1.8638281e-07
1.8262787e-07
1.7921338e-07
1.7609063e-07
1.7321812e-07
1.7056423e-07
1.681031e-07
1.6580817e-07
1.6365702e-07
1.6163391e-07
1.597249e-07
1.5791778e-07
1.5620212e-07
1.5456862e-07
1.5300946e-07
1.5151784e-07
1.5008822e-07
1.4871568e-07
1.4739547e-07
1.4612374e-07
1.448969e-07
1.4371135e-07
1.4256406e-07
1.4145248e-07
1.4037413e-07
1.3932651e-07
1.3830772e-07
1.3731607e-07
1.3634966e-07
1.3540667e-07
1.3448579e-07
1.3358581e-07
1.3270534e-07
1.3184304e-07
1.3099794e-07
1.3016914e-07
1.2935566e-07
1.285565e-07
1.2777076e-07
1.2699774e-07
1.2623681e-07
1.2548717e-07
1.2474802e-07
1.2401878e-07
1.2329893e-07
1.225879e-07
1.2188508e-07
1.2118983e-07
1.2050169e-07
1.1982027e-07
1.1914506e-07
1.1847555e-07
1.1781121e-07
1.1715166e-07
1.1649655e-07
1.1584543e-07
1.1519784e-07
1.1455331e-07
1.1391151e-07
1.1327208e-07
1.126346e-07
1.1199862e-07
1.1136372e-07
1.1072954e-07
1.1009573e-07
1.0946183e-07
1.0882737e-07
1.0819194e-07
1.0755515e-07
1.0691656e-07
1.0627566e-07
1.0563193e-07
1.0498493e-07
1.0433416e-07
1.0367903e-07
1.0301893e-07
1.023533e-07
1.0168151e-07
1.0100284e-07
1.0031655e-07
9.9621825e-08
9.8918077e-08
9.8219244e-08
9.7547048e-08
9.6907548e-08
9.6298069e-08
9.5716242e-08
9.5159948e-08
9.4627276e-08
9.4116481e-08
9.3625978e-08
9.3154342e-08
9.2700289e-08
9.226264e-08
9.1840297e-08
9.1432245e-08
9.1037472e-08
9.0655171e-08
9.0284008e-08
8.9923975e-08
8.957091e-08
8.9230462e-08
8.888112e-08
8.8575961e-08
8.8072597e-08
3.9929914e-07
2.51471e-07
2.2045282e-07
2.0794557e-07
2.0091599e-07
1.9626617e-07
1.9297066e-07
1.9053991e-07
1.8869184e-07
1.872521e-07
1.8610814e-07
1.851846e-07
1.8442926e-07
1.8380494e-07
1.8328459e-07
1.8284803e-07
1.8248073e-07
1.821699e-07
1.8191622e-07
1.8166936e-07
1.8168636e-07
1.8058358e-07
1.8516713e-07
1.2256326e-07
1.7873151e-07
2.90072e-07
3.0022467e-07
2.9581616e-07
2.902065e-07
2.8455386e-07
2.791083e-07
2.7404293e-07
2.6939799e-07
2.6514103e-07
2.612236e-07
2.576009e-07
2.5423727e-07
2.5110449e-07
2.4817281e-07
2.4541545e-07
2.4281392e-07
2.4035222e-07
2.3801578e-07
2.3579208e-07
2.3366996e-07
2.3163995e-07
2.2969387e-07
2.2782505e-07
2.2602751e-07
2.242955e-07
2.2262433e-07
2.2100958e-07
2.1944682e-07
2.1793228e-07
2.1646281e-07
2.1503532e-07
2.1364668e-07
2.1229453e-07
2.1097676e-07
2.0969096e-07
2.0843487e-07
2.0720679e-07
2.0600523e-07
2.0482843e-07
2.0367466e-07
2.0254271e-07
2.0143144e-07
2.003396e-07
1.9926591e-07
1.9820919e-07
1.9716858e-07
1.9614325e-07
1.9513219e-07
1.9413435e-07
1.9314898e-07
1.9217541e-07
1.9121291e-07
1.9026068e-07
1.8931785e-07
1.8838387e-07
1.8745819e-07
1.8654018e-07
1.8562913e-07
1.8472433e-07
1.8382532e-07
1.8293159e-07
1.8204258e-07
1.8115765e-07
1.8027617e-07
1.7939768e-07
1.7852173e-07
1.7764773e-07
1.7677506e-07
1.7590315e-07
1.7503152e-07
1.7415967e-07
1.7328697e-07
1.7241278e-07
1.7153652e-07
1.7065766e-07
1.6977556e-07
1.6888951e-07
1.679988e-07
1.6710279e-07
1.6620077e-07
1.6529191e-07
1.6437533e-07
1.6345024e-07
1.6251573e-07
1.6157077e-07
1.6061429e-07
1.596451e-07
1.5866234e-07
1.5768545e-07
1.5674488e-07
1.5584921e-07
1.5499481e-07
1.5417843e-07
1.5339721e-07
1.5264854e-07
1.5193004e-07
1.5123954e-07
1.5057507e-07
1.499349e-07
1.493174e-07
1.4872106e-07
1.4814448e-07
1.4758628e-07
1.4704534e-07
1.4651981e-07
1.4600969e-07
1.4550918e-07
1.4502607e-07
1.4453043e-07
1.4409662e-07
1.433805e-07
4.0420616e-07
2.5360729e-07
2.2166519e-07
2.0877399e-07
2.015177e-07
1.9671577e-07
1.9331142e-07
1.9079953e-07
1.8888916e-07
1.8740042e-07
1.8621718e-07
1.852616e-07
1.8447978e-07
1.8383327e-07
1.8329412e-07
1.8284146e-07
1.8246021e-07
1.821371e-07
1.8187277e-07
1.8161502e-07
1.8162835e-07
1.8048895e-07
1.8523409e-07
1.224148e-07
2.2227162e-07
3.7551435e-07
3.9424992e-07
3.9130022e-07
3.8561184e-07
3.7940077e-07
3.7321994e-07
3.6737688e-07
3.6196348e-07
3.569651e-07
3.5233909e-07
3.4804075e-07
3.4403233e-07
3.4028504e-07
3.3676775e-07
3.3345024e-07
3.30312e-07
3.2733572e-07
3.2450496e-07
3.2180554e-07
3.1922479e-07
3.1675183e-07
3.1437737e-07
3.1209385e-07
3.0989438e-07
3.0777236e-07
3.0572244e-07
3.0373944e-07
3.018182e-07
2.9995434e-07
2.9814415e-07
2.9638396e-07
2.9467013e-07
2.9299986e-07
2.9137067e-07
2.897797e-07
2.8822423e-07
2.8670228e-07
2.8521206e-07
2.8375147e-07
2.8231844e-07
2.8091152e-07
2.7952936e-07
2.7817046e-07
2.7683326e-07
2.7551636e-07
2.7421872e-07
2.7293935e-07
2.7167701e-07
2.7043044e-07
2.6919871e-07
2.6798104e-07
2.6677654e-07
2.655842e-07
2.6440299e-07
2.6323222e-07
2.6207123e-07
2.6091924e-07
2.5977538e-07
2.5863878e-07
2.5750885e-07
2.56385e-07
2.5526651e-07
2.5415257e-07
2.5304242e-07
2.5193549e-07
2.5083121e-07
2.4972884e-07
2.4862761e-07
2.4752679e-07
2.4642579e-07
2.4532397e-07
2.4422055e-07
2.4311469e-07
2.4200568e-07
2.4089282e-07
2.3977532e-07
2.3865227e-07
2.3752274e-07
2.3638592e-07
2.3524091e-07
2.3408663e-07
2.3292195e-07
2.3174584e-07
2.3055713e-07
2.2935449e-07
2.2813651e-07
2.2690166e-07
2.256488e-07
2.2440267e-07
2.232022e-07
2.2205843e-07
2.2096677e-07
2.1992315e-07
2.1892398e-07
2.1796597e-07
2.1704612e-07
2.161617e-07
2.1531023e-07
2.1448952e-07
2.1369751e-07
2.129323e-07
2.1219213e-07
2.1147522e-07
2.1078019e-07
2.1010467e-07
2.0944866e-07
2.0880483e-07
2.0818291e-07
2.0754513e-07
2.0698589e-07
2.0606229e-07
4.1035783e-07
2.5632598e-07
2.2322125e-07
2.0984558e-07
2.0230284e-07
1.973086e-07
1.9376655e-07
1.9115199e-07
1.8916274e-07
1.8761195e-07
1.8637894e-07
1.8538278e-07
1.8456737e-07
1.8389274e-07
1.8332974e-07
1.8285663e-07
1.8245767e-07
1.8211894e-07
1.8184105e-07
1.8156943e-07
1.8157789e-07
1.8039327e-07
1.8534102e-07
1.222931e-07
2.6298075e-07
4.6236449e-07
4.9193705e-07
4.9141972e-07
4.8607716e-07
4.795394e-07
4.7277068e-07
4.6625382e-07
4.6014914e-07
4.5446846e-07
4.4918042e-07
4.4424376e-07
4.3962043e-07
4.3528269e-07
4.3119956e-07
4.2733821e-07
4.2367664e-07
4.2019687e-07
4.1688101e-07
4.1371347e-07
4.1068034e-07
4.0776957e-07
4.0497088e-07
4.0227601e-07
3.9967728e-07
3.9716734e-07
3.9474027e-07
3.923902e-07
3.901113e-07
3.8789863e-07
3.8574796e-07
3.8365508e-07
3.8161586e-07
3.7962709e-07
3.7768593e-07
3.757891e-07
3.7393346e-07
3.7211672e-07
3.7033683e-07
3.6859135e-07
3.6687788e-07
3.6519474e-07
3.6354039e-07
3.6191306e-07
3.6031095e-07
3.5873242e-07
3.5717627e-07
3.5564133e-07
3.5412618e-07
3.5262929e-07
3.5114962e-07
3.4968623e-07
3.4823809e-07
3.4680401e-07
3.4538276e-07
3.4397353e-07
3.4257556e-07
3.4118792e-07
3.3980958e-07
3.3843948e-07
3.3707695e-07
3.3572128e-07
3.3437162e-07
3.33027e-07
3.316865e-07
3.3034945e-07
3.2901516e-07
3.2768277e-07
3.2635132e-07
3.2501994e-07
3.2368793e-07
3.2235452e-07
3.2101876e-07
3.1967963e-07
3.1833627e-07
3.1698785e-07
3.156334e-07
3.142718e-07
3.1290194e-07
3.1152281e-07
3.1013333e-07
3.0873217e-07
3.0731796e-07
3.0588941e-07
3.0444513e-07
3.0298344e-07
3.0150264e-07
3.0000082e-07
2.9847656e-07
2.9695995e-07
2.9549843e-07
2.9410552e-07
2.9277564e-07
2.9150389e-07
2.9028592e-07
2.891178e-07
2.8799589e-07
2.8691687e-07
2.8587776e-07
2.8487589e-07
2.8390878e-07
2.8297413e-07
2.820698e-07
2.8119365e-07
2.8034397e-07
2.7951794e-07
2.7871551e-07
2.7792786e-07
2.7716655e-07
2.7638623e-07
2.7570088e-07
2.7456862e-07
4.179334e-07
2.5973485e-07
2.2519208e-07
2.1121487e-07
2.0331589e-07
1.9808227e-07
1.9436874e-07
1.9162624e-07
1.8953866e-07
1.8791049e-07
1.8661538e-07
1.8556856e-07
1.8471123e-07
1.8400145e-07
1.8340865e-07
1.8290996e-07
1.8248883e-07
1.8213055e-07
1.8183564e-07
1.8154664e-07
1.8154872e-07
1.8030876e-07
1.8550703e-07
1.2224073e-07
3.0080868e-07
5.5086156e-07
5.9378958e-07
5.9683285e-07
5.9230369e-07
5.8567472e-07
5.7845428e-07
5.7135057e-07
5.6461271e-07
5.5828896e-07
5.5236537e-07
5.4680787e-07
5.4158013e-07
5.3665709e-07
5.320095e-07
5.2760274e-07
5.2341388e-07
5.1942489e-07
5.1561679e-07
5.1197288e-07
5.0847823e-07
5.0511979e-07
5.0188647e-07
4.987694e-07
4.9576025e-07
4.9285098e-07
4.9003521e-07
4.8730643e-07
4.8465815e-07
4.8208493e-07
4.7958202e-07
4.7714472e-07
4.7476838e-07
4.7244944e-07
4.701847e-07
4.6797044e-07
4.6580313e-07
4.6368016e-07
4.6159925e-07
4.5955759e-07
4.5755246e-07
4.5558195e-07
4.5364435e-07
4.517376e-07
4.4985965e-07
4.4800863e-07
4.4618317e-07
4.4438195e-07
4.4260331e-07
4.408455e-07
4.3910734e-07
4.3738776e-07
4.3568555e-07
4.3399936e-07
4.3232773e-07
4.3066975e-07
4.2902456e-07
4.2739105e-07
4.2576805e-07
4.2415431e-07
4.2254906e-07
4.2095149e-07
4.1936059e-07
4.1777525e-07
4.1619436e-07
4.1461717e-07
4.1304287e-07
4.1147044e-07
4.0989876e-07
4.0832682e-07
4.0675378e-07
4.0517875e-07
4.0360061e-07
4.0201815e-07
4.0043036e-07
3.9883627e-07
3.9723472e-07
3.9562439e-07
3.9400396e-07
3.9237225e-07
3.9072797e-07
3.8906954e-07
3.8739533e-07
3.8570381e-07
3.8399333e-07
3.8226188e-07
3.8050743e-07
3.787277e-07
3.7692097e-07
3.751229e-07
3.7338978e-07
3.7173773e-07
3.7016011e-07
3.6865115e-07
3.6720574e-07
3.6581922e-07
3.644873e-07
3.6320606e-07
3.6197198e-07
3.6078189e-07
3.5963288e-07
3.585222e-07
3.5744734e-07
3.5640577e-07
3.5539547e-07
3.5441309e-07
3.5345857e-07
3.5252156e-07
3.5161537e-07
3.5068715e-07
3.4987064e-07
3.4852133e-07
4.2714797e-07
2.6396886e-07
2.2766896e-07
2.1295282e-07
2.0461539e-07
1.9908685e-07
1.9516189e-07
1.9226154e-07
1.9005258e-07
1.8832884e-07
1.86957e-07
1.8584756e-07
1.8493837e-07
1.8418511e-07
1.835554e-07
1.8302503e-07
1.8257639e-07
1.8219383e-07
1.8187777e-07
1.8156717e-07
1.8156099e-07
1.8025376e-07
1.8575849e-07
1.2230725e-07
3.3562172e-07
6.4121901e-07
7.0042324e-07
7.0840141e-07
7.0524681e-07
6.9879796e-07
6.9127455e-07
6.8367325e-07
6.7635734e-07
6.6942369e-07
6.6288315e-07
6.5671328e-07
6.5088193e-07
6.4536862e-07
6.4014755e-07
6.351833e-07
6.3045267e-07
6.2593823e-07
6.2162036e-07
6.1748152e-07
6.1350605e-07
6.0968005e-07
6.0599178e-07
6.0243195e-07
5.9899163e-07
5.9566223e-07
5.9243694e-07
5.8930868e-07
5.8627033e-07
5.8331601e-07
5.8044045e-07
5.7763843e-07
5.7490486e-07
5.7223579e-07
5.6962769e-07
5.670764e-07
5.6457799e-07
5.6212954e-07
5.5972851e-07
5.5737175e-07
5.5505618e-07
5.5277971e-07
5.5054039e-07
5.4833592e-07
5.4616396e-07
5.4402243e-07
5.4190975e-07
5.3982448e-07
5.3776471e-07
5.3572844e-07
5.3371435e-07
5.3172124e-07
5.2974773e-07
5.2779226e-07
5.2585317e-07
5.2392945e-07
5.2202009e-07
5.2012386e-07
5.1823938e-07
5.1636523e-07
5.1450053e-07
5.1264436e-07
5.1079557e-07
5.0895285e-07
5.0711495e-07
5.0528098e-07
5.0345005e-07
5.0162096e-07
4.9979241e-07
4.9796323e-07
4.9613246e-07
4.9429908e-07
4.9246178e-07
4.9061914e-07
4.8877001e-07
4.8691326e-07
4.8504756e-07
4.8317133e-07
4.8128307e-07
4.793814e-07
4.7746481e-07
4.7553146e-07
4.7357943e-07
4.7160697e-07
4.6961211e-07
4.6759253e-07
4.6554583e-07
4.6346935e-07
4.6136103e-07
4.5926247e-07
4.5723946e-07
4.5531084e-07
4.5346886e-07
4.5170683e-07
4.5001878e-07
4.4839931e-07
4.4684341e-07
4.4534652e-07
4.4390453e-07
4.4251375e-07
4.4117079e-07
4.3987244e-07
4.3861578e-07
4.3739785e-07
4.3621631e-07
4.3506726e-07
4.3395059e-07
4.3285438e-07
4.3179371e-07
4.3070795e-07
4.2975147e-07
4.281705e-07
4.3825727e-07
2.6919588e-07
2.3076864e-07
2.1515139e-07
2.0627808e-07
2.003886e-07
1.9620464e-07
1.9311079e-07
1.9075292e-07
1.8891187e-07
1.8744579e-07
1.8625938e-07
1.8528644e-07
1.8447967e-07
1.8380453e-07
1.8323511e-07
1.8275256e-07
1.8234002e-07
1.8199779e-07
1.8166049e-07
1.8164368e-07
1.8025501e-07
1.8613123e-07
1.2255085e-07
3.6715046e-07
7.334604e-07
8.1243739e-07
8.2703386e-07
8.2595826e-07
8.2002552e-07
8.1238011e-07
8.0438767e-07
7.9655792e-07
7.8905154e-07
7.8191324e-07
7.7513787e-07
7.6870056e-07
7.6258765e-07
7.5677886e-07
7.5123922e-07
7.4594607e-07
7.4088337e-07
7.3603138e-07
7.3137211e-07
7.2688945e-07
7.2256888e-07
7.1839821e-07
7.1436789e-07
7.1046853e-07
7.0669107e-07
7.0302841e-07
6.9947292e-07
6.960169e-07
6.9265404e-07
6.8937859e-07
6.8618484e-07
6.8306724e-07
6.8002149e-07
6.7704371e-07
6.7412931e-07
6.7127394e-07
6.684744e-07
6.6572788e-07
6.6303086e-07
6.6037991e-07
6.5777274e-07
6.5520719e-07
6.5268066e-07
6.5019055e-07
6.4773454e-07
6.4531087e-07
6.4291791e-07
6.4055353e-07
6.3821547e-07
6.3590226e-07
6.3361256e-07
6.313448e-07
6.2909722e-07
6.2686795e-07
6.2465583e-07
6.2245976e-07
6.2027832e-07
6.1810995e-07
6.1595303e-07
6.1380656e-07
6.1166952e-07
6.0954059e-07
6.0741826e-07
6.0530112e-07
6.0318816e-07
6.0107836e-07
5.9897035e-07
5.9686263e-07
5.9475388e-07
5.92643e-07
5.9052881e-07
5.8840982e-07
5.8628438e-07
5.8415118e-07
5.8200895e-07
5.7985612e-07
5.7769089e-07
5.7551152e-07
5.7331644e-07
5.7110389e-07
5.6887175e-07
5.6661782e-07
5.6434006e-07
5.6203621e-07
5.5970356e-07
5.5733934e-07
5.5494047e-07
5.5250455e-07
5.5007959e-07
5.4774171e-07
5.4551274e-07
5.433837e-07
5.4134686e-07
5.3939537e-07
5.37523e-07
5.3572396e-07
5.3399298e-07
5.3232532e-07
5.3071672e-07
5.2916325e-07
5.2766122e-07
5.2620725e-07
5.2479792e-07
5.2343053e-07
5.2210061e-07
5.2080795e-07
5.19539e-07
5.1831061e-07
5.1705403e-07
5.1594553e-07
5.1411288e-07
4.5156353e-07
2.7562389e-07
2.3464028e-07
2.1792962e-07
2.0840437e-07
2.0207505e-07
1.9757511e-07
1.9424495e-07
1.9170508e-07
1.8972054e-07
1.8813913e-07
1.8685847e-07
1.858074e-07
1.8493501e-07
1.842041e-07
1.8358672e-07
1.8306247e-07
1.8261302e-07
1.8223851e-07
1.8186832e-07
1.8183784e-07
1.803509e-07
1.8667342e-07
1.2304539e-07
3.9494476e-07
8.2738566e-07
9.3033142e-07
9.5361496e-07
9.5552252e-07
9.5053764e-07
9.4300331e-07
9.3475785e-07
9.2649868e-07
9.1846966e-07
9.1076082e-07
9.0339144e-07
8.9634797e-07
8.8962636e-07
8.832144e-07
8.7707921e-07
8.7119967e-07
8.6556214e-07
8.6014744e-07
8.5493758e-07
8.499164e-07
8.4506908e-07
8.4038318e-07
8.3584915e-07
8.3145728e-07
8.2719817e-07
8.2306456e-07
8.1904832e-07
8.1514124e-07
8.1133666e-07
8.0762835e-07
8.0401011e-07
8.0047596e-07
7.9702126e-07
7.936418e-07
7.9033257e-07
7.8708879e-07
7.8390696e-07
7.8078402e-07
7.7771607e-07
7.7469931e-07
7.7173124e-07
7.688095e-07
7.659312e-07
7.6309342e-07
7.6029362e-07
7.5752985e-07
7.5480028e-07
7.5210256e-07
7.4943413e-07
7.4679337e-07
7.441788e-07
7.4158866e-07
7.3902098e-07
7.3647362e-07
7.3394531e-07
7.3143482e-07
7.2894056e-07
7.2646075e-07
7.2399356e-07
7.2153788e-07
7.1909257e-07
7.1665611e-07
7.1422681e-07
7.1180305e-07
7.0938371e-07
7.0696764e-07
7.0455328e-07
7.021389e-07
6.9972301e-07
6.9730438e-07
6.9488166e-07
6.9245314e-07
6.9001695e-07
6.8757159e-07
6.8511561e-07
6.8264723e-07
6.8016438e-07
6.7766507e-07
6.751475e-07
6.7260969e-07
6.7004916e-07
6.6746341e-07
6.6485011e-07
6.6220667e-07
6.5952996e-07
6.568168e-07
6.5406364e-07
6.512677e-07
6.4848405e-07
6.4580018e-07
6.4324117e-07
6.4079673e-07
6.3845796e-07
6.3621703e-07
6.3406682e-07
6.3200069e-07
6.3001255e-07
6.2809699e-07
6.2624911e-07
6.2446442e-07
6.2273867e-07
6.2106795e-07
6.1944839e-07
6.1787686e-07
6.1634826e-07
6.1486228e-07
6.1340362e-07
6.1199096e-07
6.1054689e-07
6.0927133e-07
6.0716196e-07
4.6742242e-07
2.8350971e-07
2.3947438e-07
2.2144158e-07
2.1112561e-07
2.042617e-07
1.9937716e-07
1.9575903e-07
1.9299716e-07
1.9083744e-07
1.8911509e-07
1.8771918e-07
1.8657249e-07
1.8561975e-07
1.8482049e-07
1.8414426e-07
1.8356878e-07
1.8307393e-07
1.8265965e-07
1.8224897e-07
1.8220092e-07
1.8059576e-07
1.8744916e-07
1.2388222e-07
4.1842013e-07
9.2247111e-07
1.0544593e-06
1.0889594e-06
1.0950225e-06
1.0915503e-06
1.0844352e-06
1.0761225e-06
1.0675508e-06
1.0590718e-06
1.0508354e-06
1.0428945e-06
1.0352522e-06
1.0279175e-06
1.0208896e-06
1.0141398e-06
1.0076498e-06
1.0014096e-06
9.9540156e-07
9.8960828e-07
9.8401408e-07
9.7860419e-07
9.7336628e-07
9.6829107e-07
9.6336876e-07
9.5858979e-07
9.5394686e-07
9.494315e-07
9.4503502e-07
9.4075048e-07
9.3657123e-07
9.3249062e-07
9.2850224e-07
9.2460115e-07
9.2078283e-07
9.1704184e-07
9.1337298e-07
9.0977248e-07
9.06237e-07
9.0276226e-07
8.9934409e-07
8.9597977e-07
8.9266676e-07
8.8940182e-07
8.8618174e-07
8.8300374e-07
8.7986566e-07
8.767655e-07
8.7370062e-07
8.7066818e-07
8.676664e-07
8.6469365e-07
8.6174797e-07
8.5882714e-07
8.5592877e-07
8.5305146e-07
8.5019385e-07
8.4735414e-07
8.4453033e-07
8.4172037e-07
8.3892302e-07
8.36137e-07
8.3336061e-07
8.3059193e-07
8.2782914e-07
8.2507098e-07
8.2231615e-07
8.195629e-07
8.1680925e-07
8.1405352e-07
8.1129434e-07
8.0853018e-07
8.0575909e-07
8.0297892e-07
8.00188e-07
7.9738469e-07
7.9456696e-07
7.9173243e-07
7.8887886e-07
7.8600422e-07
7.8310621e-07
7.8018204e-07
7.7722883e-07
7.7424394e-07
7.7122441e-07
7.6816666e-07
7.6506705e-07
7.6192153e-07
7.5872687e-07
7.5554595e-07
7.5247886e-07
7.4955433e-07
7.4676057e-07
7.4408741e-07
7.4152595e-07
7.3906804e-07
7.3670611e-07
7.344332e-07
7.3224311e-07
7.3013027e-07
7.2808951e-07
7.26116e-07
7.2420528e-07
7.2235289e-07
7.2055529e-07
7.1880667e-07
7.1710661e-07
7.1543789e-07
7.1382111e-07
7.121696e-07
7.1070896e-07
7.0829287e-07
4.862511e-07
2.9316937e-07
2.4551431e-07
2.2588666e-07
2.146136e-07
2.0710096e-07
2.0174881e-07
1.9778007e-07
1.9474755e-07
1.9237404e-07
1.9047954e-07
1.8894272e-07
1.8767903e-07
1.8662788e-07
1.8574482e-07
1.8499637e-07
1.8435794e-07
1.8380723e-07
1.833439e-07
1.8288337e-07
1.8281273e-07
1.8106573e-07
1.885431e-07
1.251733e-07
4.3688718e-07
1.0177873e-06
1.1849949e-06
1.233766e-06
1.2455105e-06
1.2442951e-06
1.2380108e-06
1.2298843e-06
1.2211639e-06
1.2123413e-06
1.2036451e-06
1.1951737e-06
1.1869536e-06
1.1790116e-06
1.171362e-06
1.1639831e-06
1.1568615e-06
1.1499924e-06
1.1433608e-06
1.1369507e-06
1.1307476e-06
1.1247373e-06
1.118908e-06
1.1132512e-06
1.1077571e-06
1.1024164e-06
1.0972219e-06
1.0921649e-06
1.0872364e-06
1.0824292e-06
1.0777364e-06
1.0731509e-06
1.0686659e-06
1.0642761e-06
1.0599769e-06
1.0557623e-06
1.0516268e-06
1.0475663e-06
1.0435771e-06
1.0396547e-06
1.0357945e-06
1.0319936e-06
1.0282492e-06
1.0245577e-06
1.0209156e-06
1.0173199e-06
1.0137683e-06
1.0102585e-06
1.0067876e-06
1.0033524e-06
9.9995106e-07
9.9658176e-07
9.9324231e-07
9.8993023e-07
9.8664286e-07
9.8337867e-07
9.8013614e-07
9.7691328e-07
9.7370782e-07
9.7051749e-07
9.673409e-07
9.6417663e-07
9.6102278e-07
9.5787717e-07
9.5473775e-07
9.5160315e-07
9.4847189e-07
9.4534199e-07
9.4221121e-07
9.3907768e-07
9.3593986e-07
9.32796e-07
9.296439e-07
9.2648113e-07
9.2330581e-07
9.2011611e-07
9.1690968e-07
9.1368385e-07
9.1043606e-07
9.0716403e-07
9.0386515e-07
9.0053624e-07
8.9717401e-07
8.9377549e-07
8.9033731e-07
8.8685536e-07
8.8332553e-07
8.7974317e-07
8.761046e-07
8.7248135e-07
8.6898754e-07
8.6565601e-07
8.6247327e-07
8.5942776e-07
8.5650937e-07
8.5370885e-07
8.5101753e-07
8.4842752e-07
8.4593174e-07
8.4352384e-07
8.4119795e-07
8.3894855e-07
8.3677055e-07
8.3465891e-07
8.3260956e-07
8.3061593e-07
8.2867746e-07
8.2677487e-07
8.2493072e-07
8.2304845e-07
8.2138166e-07
8.1862375e-07
5.0853716e-07
3.0499006e-07
2.5307089e-07
2.3152296e-07
2.190932e-07
2.1079392e-07
2.0487343e-07
2.0047776e-07
1.971152e-07
1.9448064e-07
1.923757e-07
1.9066645e-07
1.8925945e-07
1.8808762e-07
1.871017e-07
1.862645e-07
1.8554861e-07
1.8492906e-07
1.8440516e-07
1.8388317e-07
1.8378336e-07
1.8186682e-07
1.9006616e-07
1.2705682e-07
4.4934861e-07
1.1121378e-06
1.3219024e-06
1.3885604e-06
1.4079727e-06
1.4099974e-06
1.4050947e-06
1.3974995e-06
1.3888597e-06
1.3798483e-06
1.3707963e-06
1.3618629e-06
1.3531074e-06
1.34458e-06
1.3363153e-06
1.3283024e-06
1.3205351e-06
1.3130157e-06
1.3057334e-06
1.298675e-06
1.2918278e-06
1.2851792e-06
1.2787184e-06
1.2724379e-06
1.2663288e-06
1.2603819e-06
1.2545906e-06
1.2489462e-06
1.2434394e-06
1.2380632e-06
1.2328103e-06
1.2276731e-06
1.2226447e-06
1.2177197e-06
1.212893e-06
1.2081584e-06
1.2035099e-06
1.1989432e-06
1.1944544e-06
1.1900386e-06
1.1856908e-06
1.1814078e-06
1.1771868e-06
1.1730238e-06
1.168915e-06
1.1648571e-06
1.1608475e-06
1.1568838e-06
1.1529629e-06
1.1490811e-06
1.1452365e-06
1.1414271e-06
1.1376505e-06
1.1339038e-06
1.1301842e-06
1.12649e-06
1.1228195e-06
1.1191705e-06
1.1155405e-06
1.1119269e-06
1.1083282e-06
1.1047428e-06
1.1011686e-06
1.0976031e-06
1.0940441e-06
1.09049e-06
1.0869392e-06
1.0833894e-06
1.0798381e-06
1.0762833e-06
1.0727231e-06
1.0691557e-06
1.0655785e-06
1.0619888e-06
1.0583845e-06
1.0547635e-06
1.0511232e-06
1.0474605e-06
1.0437726e-06
1.0400569e-06
1.0363103e-06
1.0325294e-06
1.0287103e-06
1.0248498e-06
1.0209439e-06
1.0169881e-06
1.0129776e-06
1.0089072e-06
1.0047726e-06
1.000655e-06
9.9668437e-07
9.9289797e-07
9.8928049e-07
9.8581883e-07
9.8250151e-07
9.7931803e-07
9.7625857e-07
9.7331411e-07
9.7047665e-07
9.6773895e-07
9.6509435e-07
9.6253656e-07
9.600598e-07
9.5765834e-07
9.5532758e-07
9.5306008e-07
9.5085508e-07
9.4869113e-07
9.4659278e-07
9.4445283e-07
9.425556e-07
9.394153e-07
5.3484807e-07
3.1944626e-07
2.625378e-07
2.3868425e-07
2.2485858e-07
2.1560594e-07
2.089946e-07
2.0407878e-07
2.0031337e-07
1.9735967e-07
1.9499711e-07
1.9307651e-07
1.9149365e-07
1.9017357e-07
1.8906114e-07
1.8811463e-07
1.8730322e-07
1.8659865e-07
1.8599976e-07
1.8540183e-07
1.8526423e-07
1.83146e-07
1.9216241e-07
1.2970545e-07
4.5450296e-07
1.2038907e-06
1.4649015e-06
1.5536227e-06
1.583282e-06
1.5898446e-06
1.5870598e-06
1.5804646e-06
1.5722235e-06
1.5632441e-06
1.5539908e-06
1.5447036e-06
1.5354861e-06
1.5264199e-06
1.5175661e-06
1.5089294e-06
1.500514e-06
1.4923321e-06
1.4843792e-06
1.476646e-06
1.4691235e-06
1.461801e-06
1.4546696e-06
1.4477238e-06
1.4409558e-06
1.4343572e-06
1.4279223e-06
1.4216426e-06
1.415509e-06
1.4095144e-06
1.4036514e-06
1.3979125e-06
1.3922903e-06
1.3867794e-06
1.3813744e-06
1.376069e-06
1.3708568e-06
1.3657332e-06
1.3606942e-06
1.3557345e-06
1.3508487e-06
1.3460335e-06
1.3412857e-06
1.3366013e-06
1.3319759e-06
1.327406e-06