/*--------------------------------*- C++ -*----------------------------------*\
  =========                 |
  \\      /  F ield         | OpenFOAM: The Open Source CFD Toolbox
   \\    /   O peration     | Website:  https://openfoam.org
    \\  /    A nd           | Version:  12
     \\/     M anipulation  |
\*---------------------------------------------------------------------------*/
FoamFile
{
    format      ascii;
    class       volScalarField;
    location    "800";
    object      nut;
}
// * * * * * * * * * * * * * * * * * * * * * * * * * * * * * * * * * * * * * //

dimensions      [0 2 -1 0 0 0 0];

internalField   nonuniform List<scalar> 
7480
(
2.2913325e-06
3.6673421e-06
4.9344099e-06
5.9895924e-06
6.8080142e-06
7.4034469e-06
7.80739e-06
8.0574915e-06
8.1908124e-06
8.2397043e-06
8.2301357e-06
8.1817019e-06
8.108539e-06
8.0204984e-06
7.9242708e-06
7.8243556e-06
7.7238926e-06
7.6252649e-06
7.5302752e-06
7.4404334e-06
7.3571118e-06
7.2816041e-06
7.2150793e-06
7.1584841e-06
7.112433e-06
7.0769215e-06
7.0508129e-06
7.0322489e-06
7.0185858e-06
7.0069328e-06
6.9949084e-06
6.9811234e-06
6.965212e-06
6.9476e-06
6.9289698e-06
6.9098645e-06
6.8905114e-06
6.8708765e-06
6.8508338e-06
6.8303298e-06
6.8094558e-06
6.7884037e-06
6.7673747e-06
6.7464994e-06
6.7258248e-06
6.7053542e-06
6.6850895e-06
6.6650426e-06
6.6452269e-06
6.62565e-06
6.6063118e-06
6.5872064e-06
6.5683273e-06
6.5496718e-06
6.5312376e-06
6.5130183e-06
6.4950065e-06
6.4771978e-06
6.4595916e-06
6.4421804e-06
6.4249572e-06
6.4079162e-06
6.3910517e-06
6.3743596e-06
6.3578367e-06
6.3414795e-06
6.3252844e-06
6.3092482e-06
6.2933669e-06
6.277637e-06
6.2620552e-06
6.2466177e-06
6.2313214e-06
6.2161629e-06
6.2011391e-06
6.1862469e-06
6.1714833e-06
6.1568454e-06
6.1423304e-06
6.1279354e-06
6.1136578e-06
6.0994948e-06
6.085444e-06
6.0715028e-06
6.0576686e-06
6.0439389e-06
6.0303111e-06
6.0167826e-06
6.0033509e-06
5.9900122e-06
5.9767646e-06
5.9636001e-06
5.9505229e-06
5.9375013e-06
5.924583e-06
5.9116059e-06
5.8988783e-06
5.8854465e-06
5.8741287e-06
5.8531109e-06
9.1525515e-06
2.6481997e-06
1.2492277e-06
9.3884217e-07
9.510629e-07
1.0712657e-06
1.2340429e-06
1.4176559e-06
1.6094982e-06
1.8021752e-06
1.995019e-06
2.1897476e-06
2.3877887e-06
2.5946129e-06
2.8211186e-06
3.0834186e-06
3.4095943e-06
3.8221779e-06
4.291371e-06
4.8147802e-06
5.3966779e-06
6.0400891e-06
6.7431555e-06
7.5066923e-06
8.3144694e-06
9.1371159e-06
9.9405041e-06
1.0688515e-05
1.1347763e-05
1.190304e-05
1.2360116e-05
1.273807e-05
1.3060278e-05
1.334554e-05
1.3603889e-05
1.3836894e-05
1.4042123e-05
1.4218223e-05
1.4367599e-05
1.4496165e-05
1.4610858e-05
1.4716922e-05
1.4817188e-05
1.4911835e-05
1.5000392e-05
1.5082944e-05
1.5160242e-05
1.5233147e-05
1.5302166e-05
1.5367425e-05
1.5428916e-05
1.5486745e-05
1.5541126e-05
1.5592256e-05
1.5640226e-05
1.5685103e-05
1.5726992e-05
1.5766023e-05
1.5802209e-05
1.5835804e-05
1.5866849e-05
1.5895404e-05
1.5921568e-05
1.5945451e-05
1.5967153e-05
1.5986764e-05
1.6004374e-05
1.6020061e-05
1.60339e-05
1.6045968e-05
1.6056334e-05
1.6065069e-05
1.6072239e-05
1.6077911e-05
1.6082147e-05
1.6085009e-05
1.6086555e-05
1.6086842e-05
1.6085924e-05
1.6083854e-05
1.6080682e-05
1.6076457e-05
1.6071225e-05
1.6065033e-05
1.6057921e-05
1.6049934e-05
1.6041109e-05
1.6031487e-05
1.6021103e-05
1.6009994e-05
1.5998192e-05
1.5985741e-05
1.5972646e-05
1.5959002e-05
1.5944679e-05
1.59301e-05
1.5914453e-05
1.5899012e-05
1.5884508e-05
1.5854456e-05
7.0427415e-05
3.1773109e-05
1.5613651e-05
8.8374946e-06
5.6300021e-06
3.9029005e-06
2.8808474e-06
2.2357295e-06
1.8090176e-06
1.5167333e-06
1.3114544e-06
1.1648232e-06
1.0590831e-06
9.8289458e-07
9.2918673e-07
8.9354586e-07
8.7553218e-07
8.7029914e-07
9.0975234e-07
1.0040632e-06
1.1579478e-06
1.3774623e-06
1.6705039e-06
2.0256325e-06
2.4704466e-06
3.0442729e-06
3.8248708e-06
4.787208e-06
5.893685e-06
7.102348e-06
8.3710059e-06
9.6470187e-06
1.0868409e-05
1.1986174e-05
1.2973483e-05
1.3829584e-05
1.4574266e-05
1.5237323e-05
1.5846091e-05
1.6417542e-05
1.6956785e-05
1.7461695e-05
1.7928725e-05
1.8358784e-05
1.8756888e-05
1.9129476e-05
1.9481585e-05
1.9815719e-05
2.0132666e-05
2.0432993e-05
2.0717849e-05
2.0988736e-05
2.1246921e-05
2.1493202e-05
2.1728114e-05
2.1952189e-05
2.2166015e-05
2.2370133e-05
2.2564951e-05
2.2750642e-05
2.2927698e-05
2.3096557e-05
2.3257587e-05
2.3411115e-05
2.355744e-05
2.3696843e-05
2.3829586e-05
2.3955915e-05
2.407606e-05
2.4190245e-05
2.429868e-05
2.4401571e-05
2.4499114e-05
2.45915e-05
2.4678913e-05
2.476153e-05
2.4839522e-05
2.4913057e-05
2.4982295e-05
2.504739e-05
2.5108494e-05
2.5165752e-05
2.5219306e-05
2.5269292e-05
2.5315843e-05
2.5359087e-05
2.5399147e-05
2.5436145e-05
2.5470196e-05
2.5501418e-05
2.5529914e-05
2.5555811e-05
2.5579167e-05
2.5600222e-05
2.561877e-05
2.5635672e-05
2.5649266e-05
2.566368e-05
2.5671265e-05
2.5682848e-05
0.00012694041
9.6078063e-05
6.7589299e-05
4.7761327e-05
3.4891241e-05
2.6422912e-05
2.0653179e-05
1.6583439e-05
1.3625434e-05
1.1420246e-05
9.7402571e-06
8.4354338e-06
7.4034165e-06
6.5729944e-06
5.8925002e-06
5.3240634e-06
4.838412e-06
4.4123233e-06
4.028516e-06
3.6777282e-06
3.3402171e-06
3.0350104e-06
2.7364709e-06
2.453257e-06
2.1890864e-06
1.9572711e-06
1.7707008e-06
1.649937e-06
1.6791535e-06
1.8909155e-06
2.2656743e-06
2.8166626e-06
3.5855011e-06
4.654075e-06
5.9590315e-06
7.4039324e-06
8.9298732e-06
1.0461284e-05
1.1922469e-05
1.3263486e-05
1.4467147e-05
1.5546068e-05
1.6530077e-05
1.7449861e-05
1.8325232e-05
1.9162077e-05
1.9957756e-05
2.070904e-05
2.1416998e-05
2.2086732e-05
2.2724108e-05
2.3333039e-05
2.3915225e-05
2.4471584e-05
2.5003445e-05
2.5512575e-05
2.6000596e-05
2.646869e-05
2.6917764e-05
2.7348608e-05
2.7762093e-05
2.8159046e-05
2.8540195e-05
2.8906203e-05
2.9257689e-05
2.9595226e-05
2.9919342e-05
3.0230524e-05
3.0529235e-05
3.0815909e-05
3.1090957e-05
3.1354771e-05
3.1607727e-05
3.1850185e-05
3.2082488e-05
3.2304971e-05
3.2517953e-05
3.2721746e-05
3.2916647e-05
3.3102949e-05
3.3280932e-05
3.345087e-05
3.3613027e-05
3.3767661e-05
3.3915021e-05
3.4055352e-05
3.4188888e-05
3.4315861e-05
3.4436492e-05
3.4551004e-05
3.4659601e-05
3.4762517e-05
3.4859893e-05
3.4952096e-05
3.5038928e-05
3.5121609e-05
3.5197674e-05
3.5274744e-05
3.5331712e-05
3.5432278e-05
0.00014354938
0.00013299244
0.00011667569
9.9038311e-05
8.30988e-05
6.9818775e-05
5.9092084e-05
5.0491366e-05
4.3575193e-05
3.7974196e-05
3.3399608e-05
2.9630273e-05
2.6496519e-05
2.3866283e-05
2.1638235e-05
1.9733363e-05
1.8088459e-05
1.6652491e-05
1.5383884e-05
1.4247306e-05
1.3213612e-05
1.2258226e-05
1.1358314e-05
1.0493219e-05
9.641058e-06
8.7937125e-06
7.9200029e-06
7.0479104e-06
6.161611e-06
5.3133552e-06
4.5276907e-06
3.829767e-06
3.260538e-06
2.8326388e-06
2.6095462e-06
2.7004574e-06
3.0350393e-06
3.6382949e-06
4.5567553e-06
5.8315247e-06
7.3368766e-06
8.982912e-06
1.068252e-05
1.2345463e-05
1.3911028e-05
1.535539e-05
1.6687524e-05
1.793411e-05
1.9121474e-05
2.026383e-05
2.1362836e-05
2.241491e-05
2.3418705e-05
2.4377378e-05
2.5296111e-05
2.617892e-05
2.7027808e-05
2.7843946e-05
2.8628821e-05
2.9384217e-05
3.0111747e-05
3.0812678e-05
3.1488108e-05
3.2139121e-05
3.2766752e-05
3.3371929e-05
3.3955489e-05
3.4518214e-05
3.5060836e-05
3.5584042e-05
3.6088472e-05
3.6574736e-05
3.7043409e-05
3.749504e-05
3.7930156e-05
3.8349258e-05
3.8752832e-05
3.9141344e-05
3.9515244e-05
3.987497e-05
4.0220943e-05
4.0553576e-05
4.0873267e-05
4.1180406e-05
4.147537e-05
4.1758529e-05
4.2030242e-05
4.2290861e-05
4.2540726e-05
4.2780179e-05
4.3009536e-05
4.3229148e-05
4.3439257e-05
4.3640364e-05
4.3832298e-05
4.4016648e-05
4.4189974e-05
4.4364557e-05
4.4499673e-05
4.4739878e-05
0.00014763986
0.00014487542
0.0001389729
0.00013022703
0.00011984768
0.00010906668
9.8706731e-05
8.9180972e-05
8.0632414e-05
7.3058649e-05
6.6390004e-05
6.0531371e-05
5.5385444e-05
5.0858805e-05
4.6866916e-05
4.3335389e-05
4.0199286e-05
3.7402137e-05
3.4894879e-05
3.2633839e-05
3.0581198e-05
2.8702106e-05
2.6965674e-05
2.5342744e-05
2.3807095e-05
2.2336965e-05
2.0904969e-05
1.948759e-05
1.8059887e-05
1.6610413e-05
1.5129742e-05
1.3612067e-05
1.2078682e-05
1.0533089e-05
9.013206e-06
7.6036477e-06
6.3407846e-06
5.2743619e-06
4.4530155e-06
3.8761286e-06
3.6993799e-06
3.8755272e-06
4.3992855e-06
5.3105458e-06
6.6337196e-06
8.2141152e-06
9.967181e-06
1.1787626e-05
1.3584742e-05
1.5300751e-05
1.6917813e-05
1.8447904e-05
1.9913496e-05
2.1330489e-05
2.2702722e-05
2.4027179e-05
2.5301839e-05
2.6528785e-05
2.7712145e-05
2.8855117e-05
2.9959332e-05
3.1025976e-05
3.2056582e-05
3.3052839e-05
3.4016204e-05
3.4947879e-05
3.5848993e-05
3.6720641e-05
3.7563837e-05
3.837951e-05
3.916853e-05
3.9931723e-05
4.0669865e-05
4.1383693e-05
4.2073908e-05
4.2741179e-05
4.3386149e-05
4.4009436e-05
4.4611635e-05
4.5193323e-05
4.5755059e-05
4.6297386e-05
4.6820834e-05
4.7325916e-05
4.7813137e-05
4.8282986e-05
4.8735944e-05
4.9172482e-05
4.959306e-05
4.9998134e-05
5.0388136e-05
5.0763532e-05
5.1124673e-05
5.1472187e-05
5.1805938e-05
5.2127918e-05
5.2433477e-05
5.2740818e-05
5.2983585e-05
5.3414771e-05
0.00014910115
0.00014838464
0.00014661677
0.00014335898
0.00013856497
0.00013253612
0.00012572071
0.00011854653
0.00011134399
0.00010433641
9.7659123e-05
9.1383972e-05
8.5540969e-05
8.0133208e-05
7.5147376e-05
7.0560819e-05
6.6346001e-05
6.247327e-05
5.89126e-05
5.5634165e-05
5.2609245e-05
4.9809969e-05
4.7209607e-05
4.4782351e-05
4.2503076e-05
4.0348095e-05
3.8293387e-05
3.63138e-05
3.4383357e-05
3.2476731e-05
3.0573073e-05
2.8651194e-05
2.6700086e-05
2.4705383e-05
2.265303e-05
2.0544926e-05
1.8402307e-05
1.6238683e-05
1.4112157e-05
1.2050668e-05
1.0143444e-05
8.4435411e-06
7.0104953e-06
5.9078202e-06
5.1358782e-06
4.8917969e-06
5.0578985e-06
5.6636747e-06
6.7657628e-06
8.242047e-06
9.978933e-06
1.1870462e-05
1.3809623e-05
1.5716852e-05
1.7554263e-05
1.9319791e-05
2.1027929e-05
2.269048e-05
2.4309291e-05
2.5880773e-05
2.7402936e-05
2.8877433e-05
3.0307164e-05
3.1694071e-05
3.303922e-05
3.434373e-05
3.5609e-05
3.6836385e-05
3.8027038e-05
3.9182023e-05
4.0302389e-05
4.1389129e-05
4.244317e-05
4.3465393e-05
4.4456638e-05
4.5417712e-05
4.6349382e-05
4.725239e-05
4.8127452e-05
4.8975258e-05
4.9796482e-05
5.0591777e-05
5.136178e-05
5.2107114e-05
5.2828386e-05
5.3526194e-05
5.4201123e-05
5.4853749e-05
5.5484636e-05
5.6094345e-05
5.6683413e-05
5.7252412e-05
5.780179e-05
5.83323e-05
5.8843829e-05
5.9338807e-05
5.9811143e-05
6.0286133e-05
6.0666269e-05
6.1339542e-05
0.0001502065
0.00014992417
0.00014936466
0.0001482742
0.00014643342
0.00014373929
0.00014022512
0.00013602337
0.00013131177
0.00012627033
0.00012105715
0.00011579938
0.00011059332
0.0001055083
0.00010059176
9.5874106e-05
9.1372944e-05
8.7096343e-05
8.3045441e-05
7.921624e-05
7.5601077e-05
7.218958e-05
6.8969389e-05
6.5926666e-05
6.3046342e-05
6.03125e-05
5.7708488e-05
5.5216562e-05
5.281772e-05
5.0491864e-05
4.8218948e-05
4.5980893e-05
4.374832e-05
4.149677e-05
3.9208204e-05
3.6869303e-05
3.446881e-05
3.1995719e-05
2.9457352e-05
2.6857082e-05
2.4215371e-05
2.1550092e-05
1.8902144e-05
1.6333761e-05
1.3878883e-05
1.1659952e-05
9.7108909e-06
8.1301988e-06
6.9322698e-06
6.2852018e-06
6.170306e-06
6.5682811e-06
7.5300078e-06
8.9394228e-06
1.0678387e-05
1.2632627e-05
1.4684755e-05
1.6743648e-05
1.8761915e-05
2.0729995e-05
2.2654821e-05
2.4541014e-05
2.6385909e-05
2.8184929e-05
2.9936525e-05
3.1641852e-05
3.3302291e-05
3.4918543e-05
3.649123e-05
3.8021284e-05
3.9509737e-05
4.0957522e-05
4.2365529e-05
4.3734655e-05
4.5065774e-05
4.635973e-05
4.7617338e-05
4.8839395e-05
5.0026674e-05
5.1179928e-05
5.2299894e-05
5.3387293e-05
5.4442828e-05
5.5467193e-05
5.6461069e-05
5.7425125e-05
5.8360022e-05
5.9266415e-05
6.0144947e-05
6.0996261e-05
6.1820975e-05
6.2619748e-05
6.3393111e-05
6.4141918e-05
6.4866069e-05
6.5568451e-05
6.6241327e-05
6.6918111e-05
6.7465162e-05
6.8430943e-05
0.00015140345
0.00015119311
0.00015091689
0.000150489
0.00014979038
0.00014870139
0.00014713537
0.0001450569
0.00014248136
0.00013946226
0.00013607496
0.00013240255
0.00012852606
0.00012451883
0.00012044395
0.00011635379
0.00011229048
0.00010828703
0.00010436854
0.00010055339
9.6854312e-05
9.3279337e-05
8.9832558e-05
8.6514776e-05
8.3323972e-05
8.0255708e-05
7.7303527e-05
7.4459134e-05
7.1712419e-05
6.9051575e-05
6.6463278e-05
6.3934376e-05
6.1447485e-05
5.8983254e-05
5.6522937e-05
5.4049539e-05
5.1547303e-05
4.9001848e-05
4.6393776e-05
4.3706309e-05
4.093531e-05
3.8081237e-05
3.5130243e-05
3.2131243e-05
2.9063428e-05
2.5988295e-05
2.2924565e-05
1.9937939e-05
1.70622e-05
1.441447e-05
1.2069791e-05
1.0130488e-05
8.6313766e-06
7.7527835e-06
7.4813505e-06
7.8059493e-06
8.7594466e-06
1.0190565e-05
1.200046e-05
1.405741e-05
1.6234188e-05
1.8438459e-05
2.0625056e-05
2.2782935e-05
2.4911793e-05
2.7008053e-05
2.9065162e-05
3.1078611e-05
3.3047173e-05
3.497086e-05
3.6849549e-05
3.8683171e-05
4.0472046e-05
4.2216708e-05
4.3917724e-05
4.5575697e-05
4.7191284e-05
4.8765167e-05
5.0298034e-05
5.179058e-05
5.3243507e-05
5.4657512e-05
5.6033293e-05
5.7371545e-05
5.8672961e-05
5.9938232e-05
6.1168046e-05
6.2363089e-05
6.3524045e-05
6.46516e-05
6.5746421e-05
6.6809221e-05
6.7840586e-05
6.8841444e-05
6.9811685e-05
7.0754657e-05
7.1660804e-05
7.2572529e-05
7.3315561e-05
7.4623282e-05
0.00015275929
0.00015255544
0.00015233216
0.00015206946
0.00015172583
0.000151242
0.00015055162
0.0001495947
0.00014832834
0.00014673196
0.00014480694
0.00014257272
0.00014006138
0.0001373123
0.00013436774
0.00013126976
0.00012805805
0.00012476878
0.00012143398
0.00011808133
0.00011473428
0.0001114122
0.00010813068
0.00010490187
0.00010173472
9.8635259e-05
9.5606904e-05
9.2650706e-05
8.9765488e-05
8.6948016e-05
8.4193057e-05
8.1494167e-05
7.8842731e-05
7.6227747e-05
7.3636532e-05
7.1055679e-05
6.8471431e-05
6.5870489e-05
6.3237619e-05
6.055601e-05
5.7811845e-05
5.4995975e-05
5.2095364e-05
4.9116894e-05
4.603091e-05
4.2844556e-05
3.9567556e-05
3.6210184e-05
3.2788119e-05
2.9351208e-05
2.5930368e-05
2.2595337e-05
1.9388031e-05
1.6436203e-05
1.3830426e-05
1.1678923e-05
1.0035868e-05
9.1351512e-06
8.8735605e-06
9.3093511e-06
1.0383318e-05
1.1966256e-05
1.3937269e-05
1.6150142e-05
1.8477501e-05
2.0839354e-05
2.3201024e-05
2.5550668e-05
2.7879913e-05
3.0179176e-05
3.244099e-05
3.466153e-05
3.6838942e-05
3.897186e-05
4.1059316e-05
4.3100885e-05
4.5096485e-05
4.7046205e-05
4.8950276e-05
5.0809051e-05
5.2622959e-05
5.4392488e-05
5.6118169e-05
5.7800567e-05
5.9440277e-05
6.1037911e-05
6.2594101e-05
6.4109492e-05
6.5584742e-05
6.7020521e-05
6.8417494e-05
6.9776377e-05
7.1097772e-05
7.2382638e-05
7.3630826e-05
7.4846126e-05
7.6017016e-05
7.7195628e-05
7.8162958e-05
7.9860803e-05
0.00015427897
0.00015407275
0.00015385568
0.00015362618
0.00015337382
0.00015307803
0.0001527085
0.00015222845
0.00015159975
0.00015078828
0.00014976801
0.00014852324
0.00014704896
0.00014534977
0.000143438
0.00014133161
0.00013905222
0.00013662334
0.00013406909
0.00013141313
0.00012867792
0.00012588428
0.00012305106
0.00012019493
0.00011733033
0.00011446941
0.00011162208
0.00010879608
0.00010599708
0.00010322873
0.00010049276
9.7789205e-05
9.5116363e-05
9.2470519e-05
8.9845975e-05
8.7235355e-05
8.4629915e-05
8.2020131e-05
7.9395308e-05
7.674308e-05
7.405052e-05
7.130614e-05
6.8497053e-05
6.5617538e-05
6.2651953e-05
5.9589932e-05
5.6428807e-05
5.3165855e-05
4.9799223e-05
4.6311987e-05
4.2722293e-05
3.9049849e-05
3.5308724e-05
3.1552957e-05
2.7831398e-05
2.4217024e-05
2.0764877e-05
1.7634918e-05
1.4918305e-05
1.2705789e-05
1.1178669e-05
1.0409545e-05
1.038569e-05
1.1111028e-05
1.2457211e-05
1.4315618e-05
1.6527653e-05
1.8940924e-05
2.1447819e-05
2.3991422e-05
2.6545838e-05
2.9095008e-05
3.1624952e-05
3.412503e-05
3.6588781e-05
3.9012268e-05
4.1392647e-05
4.3727903e-05
4.6016773e-05
4.8258485e-05
5.0452592e-05
5.2598901e-05
5.4697414e-05
5.6748276e-05
5.8751741e-05
6.0708155e-05
6.2617931e-05
6.4481537e-05
6.6299489e-05
6.8072344e-05
6.9800679e-05
7.1485134e-05
7.3126264e-05
7.4724996e-05
7.6281097e-05
7.779876e-05
7.9264364e-05
8.0740393e-05
8.1959335e-05
8.4093965e-05
0.00015596076
0.00015575171
0.00015553333
0.00015530811
0.00015507465
0.00015482761
0.00015455665
0.00015424613
0.00015387581
0.00015342262
0.00015286296
0.00015217515
0.00015134132
0.00015034865
0.0001491899
0.00014786323
0.00014637167
0.00014472228
0.00014292527
0.00014099314
0.0001389398
0.00013677994
0.00013452842
0.0001321998
0.00012980793
0.00012736574
0.00012488493
0.00012237592
0.0001198477
0.00011730782
0.00011476232
0.00011221583
0.00010967151
0.00010713093
0.00010459401
0.00010205893
9.9522296e-05
9.6979333e-05
9.4423991e-05
9.1848742e-05
8.9244665e-05
8.6602408e-05
8.3911408e-05
8.1163134e-05
7.8346648e-05
7.5450483e-05
7.2465493e-05
6.9383869e-05
6.6199558e-05
6.290185e-05
5.9484443e-05
5.594709e-05
5.2286757e-05
4.8516442e-05
4.4628206e-05
4.0653716e-05
3.6617502e-05
3.2582474e-05
2.8621339e-05
2.4791722e-05
2.1218458e-05
1.8041506e-05
1.5370139e-05
1.3354465e-05
1.2169904e-05
1.1778851e-05
1.2214524e-05
1.336934e-05
1.5140414e-05
1.7357245e-05
1.9849701e-05
2.2490965e-05
2.5206864e-05
2.7958375e-05
3.0720854e-05
3.3475235e-05
3.6207638e-05
3.8909053e-05
4.157346e-05
4.4196501e-05
4.6775077e-05
4.9307055e-05
5.1790959e-05
5.4225791e-05
5.6610917e-05
5.894598e-05
6.1230831e-05
6.3465489e-05
6.5650104e-05
6.7784932e-05
6.9870307e-05
7.1906667e-05
7.3894408e-05
7.5834327e-05
7.7726028e-05
7.9574044e-05
8.1362518e-05
8.3164815e-05
8.4661384e-05
8.7277617e-05
0.000157803
0.00015759142
0.00015737096
0.00015714483
0.00015691366
0.00015667657
0.00015643085
0.00015617133
0.00015588993
0.00015557561
0.00015521483
0.00015479245
0.00015429288
0.00015370128
0.00015300455
0.00015219218
0.0001512566
0.00015019341
0.00014900128
0.00014768165
0.00014623839
0.00014467736
0.00014300595
0.00014123264
0.00013936661
0.00013741734
0.00013539434
0.00013330683
0.00013116358
0.00012897271
0.00012674156
0.00012447665
0.00012218352
0.0001198667
0.00011752951
0.00011517399
0.0001128008
0.00011040927
0.00010799745
0.00010556205
0.00010309838
0.00010060065
9.8061743e-05
9.5474464e-05
9.2830665e-05
9.012111e-05
8.7336506e-05
8.4467792e-05
8.1506892e-05
7.8444305e-05
7.5270362e-05
7.1977305e-05
6.8559875e-05
6.5014279e-05
6.1331115e-05
5.7507279e-05
5.3560228e-05
4.949092e-05
4.5309072e-05
4.1041316e-05
3.6734278e-05
3.2466011e-05
2.831826e-05
2.4391388e-05
2.0855443e-05
1.7822424e-05
1.5456129e-05
1.3959231e-05
1.3315124e-05
1.3557065e-05
1.4606629e-05
1.6353633e-05
1.8614173e-05
2.1206001e-05
2.3990744e-05
2.6882926e-05
2.9833194e-05
3.2809171e-05
3.5787066e-05
3.8750098e-05
4.168697e-05
4.4589777e-05
4.7452785e-05
5.0271877e-05
5.3044103e-05
5.5767333e-05
5.8440055e-05
6.1061217e-05
6.363012e-05
6.6146343e-05
6.860967e-05
7.102009e-05
7.3377641e-05
7.5682813e-05
7.7934922e-05
8.0138721e-05
8.2275951e-05
8.4431308e-05
8.622985e-05
8.9370235e-05
0.00015980424
0.0001595904
0.00015936793
0.00015914019
0.0001589081
0.00015867182
0.00015843088
0.00015818392
0.0001579284
0.00015766013
0.00015737316
0.00015705972
0.00015671053
0.00015631524
0.00015586303
0.00015534325
0.000154746
0.00015406264
0.00015328617
0.0001524114
0.00015143506
0.00015035576
0.00014917385
0.00014789123
0.00014651115
0.00014503789
0.00014347655
0.00014183281
0.00014011267
0.00013832225
0.00013646766
0.00013455482
0.00013258932
0.00013057629
0.00012852026
0.00012642501
0.00012429343
0.00012212742
0.00011992787
0.00011769459
0.00011542623
0.00011312028
0.00011077301
0.00010837986
0.00010593537
0.00010343307
0.0001008657
9.8225444e-05
9.5504478e-05
9.2694406e-05
8.9786089e-05
8.6770336e-05
8.3638736e-05
8.038401e-05
7.6996498e-05
7.3469206e-05
6.9797704e-05
6.5978404e-05
6.2007207e-05
5.7888482e-05
5.3629441e-05
4.9254119e-05
4.4770623e-05
4.0222023e-05
3.5690334e-05
3.1264797e-05
2.7052302e-05
2.3236883e-05
1.9932668e-05
1.7347986e-05
1.5654189e-05
1.4883595e-05
1.5051543e-05
1.6108674e-05
1.7918496e-05
2.0283155e-05
2.3013296e-05
2.5965851e-05
2.9049652e-05
3.2208448e-05
3.5404068e-05
3.860919e-05
4.1804823e-05
4.4977837e-05
4.8118831e-05
5.1220976e-05
5.42793e-05
5.729016e-05
6.0250873e-05
6.3159481e-05
6.6014566e-05
6.8815152e-05
7.156052e-05
7.4250532e-05
7.6883959e-05
7.9465564e-05
8.1974457e-05
8.4507016e-05
8.662968e-05
9.0333878e-05
0.0001619631
0.00016174717
0.00016152279
0.0001612934
0.00016105991
0.0001608226
0.00016058153
0.00016033648
0.0001600868
0.00015983123
0.00015956761
0.00015929277
0.00015900232
0.00015869077
0.00015835157
0.00015797741
0.00015756052
0.00015709301
0.00015656725
0.00015597621
0.0001553137
0.00015457456
0.00015375482
0.00015285174
0.00015186375
0.00015079046
0.00014963248
0.00014839135
0.00014706937
0.00014566945
0.00014419498
0.00014264969
0.00014103751
0.00013936241
0.00013762833
0.00013583895
0.00013399759
0.00013210705
0.00013016953
0.00012818654
0.00012615874
0.00012408593
0.00012196694
0.00011979962
0.00011758101
0.00011530717
0.00011297325
0.00011057357
0.00010810186
0.00010555128
0.00010291424
0.00010018249
9.7347521e-05
9.4401144e-05
9.1334128e-05
8.8137262e-05
8.4802034e-05
8.1321285e-05
7.7687482e-05
7.3893573e-05
6.9922225e-05
6.5809732e-05
6.1521078e-05
5.7072095e-05
5.2494372e-05
4.7801266e-05
4.3025046e-05
3.8259322e-05
3.3585044e-05
2.9146152e-05
2.5121451e-05
2.1641337e-05
1.8968311e-05
1.7207229e-05
1.644025e-05
1.6674858e-05
1.7863568e-05
1.9832566e-05
2.2371575e-05
2.5288712e-05
2.8442215e-05
3.1740021e-05
3.5122356e-05
3.8547763e-05
4.1987029e-05
4.5419834e-05
4.8831811e-05
5.2212558e-05
5.5554475e-05
5.8851961e-05
6.2100852e-05
6.5298058e-05
6.8441235e-05
7.1528949e-05
7.4558909e-05
7.7535492e-05
8.0434783e-05
8.3365066e-05
8.5831007e-05
9.0134826e-05
0.00016427814
0.00016406024
0.00016383403
0.00016360301
0.00016336804
0.00016312939
0.00016288719
0.00016264146
0.00016239212
0.00016213887
0.00016188108
0.00016161765
0.00016134687
0.00016106634
0.00016077286
0.00016046245
0.0001601304
0.0001597714
0.00015937972
0.0001589494
0.0001584745
0.00015794928
0.0001573684
0.00015672711
0.00015602133
0.00015524774
0.00015440383
0.00015348788
0.00015249894
0.0001514368
0.0001503019
0.00014909525
0.00014781839
0.00014647323
0.00014506198
0.00014358703
0.00014205082
0.00014045569
0.00013880379
0.00013709698
0.00013533668
0.00013352377
0.0001316585
0.00012974039
0.00012776826
0.00012574011
0.00012365317
0.0001215038
0.00011928764
0.00011699962
0.00011463394
0.00011218403
0.00010964264
0.00010700224
0.00010425458
0.00010139084
9.8401912e-05
9.5278945e-05
9.2012843e-05
8.8594624e-05
8.5010659e-05
8.126362e-05
7.733912e-05
7.3228729e-05
6.8939625e-05
6.4472643e-05
5.9829292e-05
5.5038938e-05
5.0134613e-05
4.513946e-05
4.0154421e-05
3.5264824e-05
3.0659043e-05
2.6495565e-05
2.2958889e-05
2.031462e-05
1.8627123e-05
1.8003872e-05
1.8466865e-05
1.9908877e-05
2.2130683e-05
2.4912799e-05
2.806648e-05
3.1456385e-05
3.4993088e-05
3.8616235e-05
4.228362e-05
4.5965707e-05
4.9641723e-05
5.3296746e-05
5.6919897e-05
6.0503163e-05
6.4040539e-05
6.7527801e-05
7.0960481e-05
7.4341738e-05
7.7643897e-05
8.0987134e-05
8.3811202e-05
8.8745005e-05
0.00016674789
0.00016652809
0.00016630008
0.00016606744
0.00016583096
0.00016559091
0.00016534737
0.00016510042
0.00016485009
0.00016459634
0.00016433904
0.00016407786
0.00016381225
0.00016354131
0.00016326371
0.00016297762
0.0001626807
0.00016237001
0.00016204209
0.00016169302
0.00016131847
0.00016091388
0.00016047455
0.0001599958
0.00015947308
0.00015890215
0.0001582791
0.0001576005
0.00015686341
0.00015606544
0.00015520477
0.00015428012
0.00015329076
0.00015223646
0.00015111744
0.00014993429
0.0001486879
0.00014737937
0.00014600992
0.00014458077
0.00014309305
0.00014154772
0.00013994539
0.00013828631
0.00013657021
0.00013479631
0.00013296319
0.00013106876
0.00012911027
0.00012708428
0.00012498664
0.00012281249
0.00012055623
0.00011821163
0.00011577185
0.00011322929
0.00011057574
0.00010780261
0.00010490085
0.00010186126
9.8671791e-05
9.5325758e-05
9.1812188e-05
8.8120735e-05
8.4242206e-05
8.017013e-05
7.5897903e-05
7.1426906e-05
6.6765971e-05
6.1914613e-05
5.6903396e-05
5.1770998e-05
4.6565739e-05
4.1376132e-05
3.6319261e-05
3.1604916e-05
2.7389483e-05
2.3940119e-05
2.1416975e-05
1.9961416e-05
1.9665586e-05
2.05041e-05
2.2314515e-05
2.4874329e-05
2.7961149e-05
3.139661e-05
3.5056029e-05
3.8855219e-05
4.2735981e-05
4.6657575e-05
5.0591391e-05
5.4517015e-05
5.841961e-05
6.2288532e-05
6.6114527e-05
6.9897686e-05
7.3605059e-05
7.7368184e-05
8.0558643e-05
8.6144637e-05
0.0001693708
0.00016914912
0.00016891933
0.00016868503
0.00016844702
0.00016820551
0.00016796058
0.00016771228
0.00016746065
0.00016720571
0.00016694746
0.00016668582
0.00016642062
0.00016615159
0.00016587823
0.00016559982
0.00016531534
0.00016502342
0.00016472227
0.00016440973
0.0001640832
0.0001637397
0.00016337595
0.00016298836
0.00016257319
0.0001621266
0.00016164474
0.00016112386
0.00016056038
0.00015995098
0.00015929264
0.00015858269
0.00015781888
0.00015699935
0.00015612265
0.00015518774
0.00015419395
0.0001531409
0.00015202853
0.00015085695
0.00014962643
0.00014833726
0.00014698973
0.00014558396
0.00014411989
0.00014259714
0.00014101495
0.00013937213
0.00013766698
0.00013589724
0.00013406009
0.00013215206
0.00013016903
0.00012810623
0.00012595824
0.00012371893
0.00012138148
0.00011893841
0.00011638162
0.00011370263
0.00011089118
0.00010793824
0.00010483357
0.00010156614
9.8124383e-05
9.4499144e-05
9.067762e-05
8.6650421e-05
8.2412753e-05
7.7958478e-05
7.3287415e-05
6.8408158e-05
6.3332646e-05
5.8088298e-05
5.2722002e-05
4.7313618e-05
4.194283e-05
3.6785038e-05
3.2020384e-05
2.789021e-05
2.4630153e-05
2.2399611e-05
2.1361452e-05
2.1568277e-05
2.2910691e-05
2.5183605e-05
2.8147334e-05
3.158683e-05
3.5340516e-05
3.9296592e-05
4.3378016e-05
4.7530985e-05
5.1717722e-05
5.5911665e-05
6.0092231e-05
6.4251954e-05
6.8349219e-05
7.2525159e-05
7.6079522e-05
8.2326903e-05
0.00017214524
0.00017192168
0.00017169007
0.00017145406
0.00017121446
0.00017097145
0.00017072506
0.00017047534
0.00017022232
0.00016996602
0.00016970645
0.0001694436
0.00016917743
0.00016890785
0.00016863471
0.00016835773
0.00016807653
0.00016779053
0.00016749892
0.00016720066
0.00016689441
0.0001665785
0.00016625095
0.00016590949
0.00016555153
0.00016517425
0.0001647746
0.00016434943
0.00016389547
0.00016340946
0.00016288818
0.00016232856
0.00016172768
0.00016108285
0.00016039165
0.00015965192
0.00015886182
0.0001580198
0.00015712459
0.00015617518
0.00015517081
0.00015411086
0.00015299488
0.00015182242
0.00015059306
0.00014930628
0.0001479614
0.0001465575
0.00014509337
0.00014356741
0.00014197764
0.00014032157
0.0001385962
0.00013679796
0.00013492272
0.00013296569
0.00013092143
0.00012878383
0.0001265461
0.0001242009
0.00012173969
0.00011915375
0.00011643365
0.00011356912
0.00011054886
0.00010736204
0.00010399619
0.00010043862
9.6679828e-05
9.2706388e-05
8.8507587e-05
8.4079895e-05
7.9417997e-05
7.4521924e-05
6.9401359e-05
6.4082785e-05
5.8593355e-05
5.3004657e-05
4.7400924e-05
4.1900322e-05
3.6694233e-05
3.200168e-05
2.8095997e-05
2.5168851e-05
2.3438947e-05
2.3025004e-05
2.3879098e-05
2.5827896e-05
2.8629368e-05
3.2041083e-05
3.5866599e-05
3.9964706e-05
4.423732e-05
4.8616311e-05
5.3052363e-05
5.7518879e-05
6.1957327e-05
6.6513519e-05
7.0410495e-05
7.7306305e-05
0.00017506948
0.00017484399
0.00017461051
0.00017437273
0.00017413147
0.00017388687
0.00017363895
0.00017338775
0.00017313326
0.00017287551
0.0001726145
0.00017235024
0.0001720827
0.00017181187
0.00017153767
0.00017126002
0.00017097877
0.00017069369
0.00017040445
0.0001701106
0.00016981149
0.00016950632
0.00016919404
0.00016887337
0.00016854275
0.0001682004
0.00016784426
0.00016747205
0.0001670813
0.00016666936
0.0001662335
0.00016577088
0.00016527868
0.00016475411
0.00016419445
0.00016359712
0.00016295969
0.00016227989
0.00016155569
0.00016078525
0.00015996693
0.00015909932
0.00015818115
0.0001572113
0.00015618874
0.00015511252
0.00015398163
0.00015279504
0.00015155156
0.00015024982
0.00014888821
0.00014746478
0.00014597724
0.00014442288
0.00014279849
0.00014110039
0.00013932432
0.00013746541
0.00013551817
0.0001334765
0.00013133347
0.00012908149
0.00012671231
0.00012421691
0.00012158521
0.00011880673
0.00011586994
0.00011276221
0.00010947172
0.00010598481
0.00010228894
9.8370204e-05
9.4216792e-05
8.9819915e-05
8.517197e-05
8.0272414e-05
7.5123036e-05
6.9742815e-05
6.4163232e-05
5.842829e-05
5.2624375e-05
4.6862224e-05
4.1300626e-05
3.6147507e-05
3.1676872e-05
2.8135305e-05
2.5782714e-05
2.4787203e-05
2.51632e-05
2.6777717e-05
2.9397787e-05
3.276304e-05
3.6646444e-05
4.0877959e-05
4.5335833e-05
4.994425e-05
5.4606737e-05
5.9460373e-05
6.3643341e-05
7.1134234e-05
0.00017814165
0.00017791419
0.00017767875
0.00017743912
0.0001771961
0.00017694982
0.00017670029
0.0001764475
0.00017619147
0.00017593219
0.00017566967
0.00017540389
0.00017513486
0.00017486254
0.00017458691
0.00017430792
0.00017402552
0.0001737396
0.00017345003
0.00017315661
0.00017285907
0.00017255703
0.00017224998
0.00017193726
0.00017161805
0.00017129132
0.00017095583
0.00017061014
0.00017025259
0.00016988132
0.00016949429
0.0001690893
0.00016866404
0.00016821608
0.00016774295
0.00016724217
0.00016671125
0.00016614777
0.00016554938
0.00016491385
0.00016423907
0.00016352306
0.00016276399
0.00016196017
0.00016111001
0.00016021204
0.00015926485
0.00015826705
0.00015721725
0.00015611399
0.00015495569
0.00015374063
0.00015246683
0.00015113206
0.00014973375
0.00014826896
0.00014673431
0.00014512593
0.00014343944
0.00014166989
0.00013981167
0.00013785851
0.00013580347
0.0001336389
0.00013135622
0.00012894614
0.00012639847
0.00012370185
0.00012084461
0.00011781384
0.00011459628
0.00011117738
0.00010754334
0.00010367926
9.9570613e-05
9.5206629e-05
9.0577611e-05
8.5677543e-05
8.050976e-05
7.5081838e-05
6.94209e-05
6.3570317e-05
5.7598398e-05
5.1606309e-05
4.5754274e-05
4.021908e-05
3.5269533e-05
3.1195203e-05
2.8290076e-05
2.6767762e-05
2.6699066e-05
2.7993327e-05
3.0433326e-05
3.374885e-05
3.7685589e-05
4.2055123e-05
4.6673872e-05
5.1635121e-05
5.5976144e-05
6.3929421e-05
0.00018135979
0.00018113027
0.00018089279
0.00018065121
0.00018040631
0.00018015824
0.00017990698
0.00017965252
0.00017939485
0.00017913395
0.00017886982
0.00017860245