/*--------------------------------*- C++ -*----------------------------------*\
  =========                 |
  \\      /  F ield         | OpenFOAM: The Open Source CFD Toolbox
   \\    /   O peration     | Website:  https://openfoam.org
    \\  /    A nd           | Version:  12
     \\/     M anipulation  |
\*---------------------------------------------------------------------------*/
FoamFile
{
    format      ascii;
    class       volScalarField;
    location    "800";
    object      p;
}
// * * * * * * * * * * * * * * * * * * * * * * * * * * * * * * * * * * * * * //

dimensions      [0 2 -2 0 0 0 0];

internalField   nonuniform List<scalar> 
13056
(
0.0065457421
0.0065851936
0.0066650267
0.0067641938
0.0068837626
0.0070219349
0.0071766225
0.0073466567
0.007531542
0.0077312595
0.0079462482
0.0081774809
0.0084265526
0.0086959733
0.0089892602
0.0093121419
0.0096717021
0.010082924
0.010558248
0.011152224
0.011864227
0.013016147
0.014279484
0.020132926
0.01650453
0.010312553
0.0089864796
0.0084961424
0.0079902964
0.0075615691
0.00723437
0.006979769
0.0067516825
0.0065415444
0.0063539089
0.0061932686
0.0060506844
0.0059122869
0.005785032
0.0056723965
0.005564272
0.0054631304
0.0053690408
0.0052796448
0.0051954472
0.0051152262
0.0050386466
0.0049661458
0.0048958361
0.0048286258
0.0047645333
0.0047020528
0.0046417608
0.0045838168
0.0045274565
0.0044722347
0.0044188157
0.004367071
0.0043161251
0.0042661411
0.0042175442
0.0041701003
0.0041232017
0.0040769087
0.0040316621
0.0039873032
0.0039432608
0.0038995036
0.0038564845
0.0038142456
0.0037721053
0.0037301781
0.0036884358
0.0036472262
0.0036063597
0.0035653955
0.0035243951
0.0034835118
0.0034429434
0.0034023075
0.003361444
0.0033203005
0.0032791998
0.0032381875
0.0031967154
0.003154861
0.0031125151
0.003070042
0.0030273533
0.0029838988
0.0029398389
0.0028951027
0.0028499483
0.0028041702
0.0027573728
0.0027095706
0.0026609233
0.0026114774
0.0025607775
0.0025086954
0.0024552181
0.0024005203
0.0023443239
0.0022861921
0.0022260921
0.0021641801
0.0021001914
0.0020335382
0.001964188
0.0018921495
0.0018170258
0.0017381171
0.0016556592
0.0015707989
0.0014858812
0.001402701
0.0013216048
0.00124215
0.0011639531
0.0010870728
0.0010117532
0.0009379444
0.00086533612
0.00079412652
0.00072437514
0.00065644002
0.00059047493
0.00052640166
0.00046505318
0.00040634708
0.00035348649
0.0003022651
0.00027260512
0.00022470454
0.00040258753
-0.0003651716
0.0065457421
0.0065851936
0.0066650267
0.0067641938
0.0068837626
0.0070219349
0.0071766225
0.0073466567
0.007531542
0.0077312595
0.0079462482
0.0081774809
0.0084265526
0.0086959733
0.0089892602
0.009312142
0.0096717021
0.010082924
0.010558248
0.011152224
0.011864227
0.013016147
0.014279485
0.02012994
0.016507286
0.010313185
0.0089867005
0.0084962885
0.0079904048
0.0075616576
0.007234445
0.0069798332
0.0067517379
0.0065415928
0.0063539516
0.0061933066
0.0060507184
0.0059123177
0.0057850599
0.005672422
0.0055642954
0.0054631519
0.0053690608
0.0052796633
0.0051954644
0.0051152423
0.0050386617
0.0049661599
0.0048958493
0.0048286383
0.0047645451
0.0047020639
0.0046417713
0.0045838267
0.0045274659
0.0044722437
0.0044188242
0.0043670791
0.0043161328
0.0042661484
0.0042175512
0.004170107
0.0041232081
0.0040769148
0.0040316679
0.0039873088
0.0039432661
0.0038995087
0.0038564894
0.0038142503
0.0037721098
0.0037301824
0.00368844
0.0036472302
0.0036063635
0.0035653991
0.0035243986
0.0034835151
0.0034429466
0.0034023106
0.003361447
0.0033203033
0.0032792025
0.0032381902
0.0031967179
0.0031548634
0.0031125174
0.0030700442
0.0030273555
0.0029839008
0.0029398409
0.0028951046
0.0028499501
0.002804172
0.0027573745
0.0027095722
0.0026609249
0.0026114789
0.0025607789
0.0025086967
0.0024552194
0.0024005215
0.0023443251
0.0022861932
0.0022260932
0.0021641811
0.0021001924
0.0020335391
0.0019641889
0.0018921504
0.0018170266
0.0017381178
0.0016556599
0.0015707995
0.0014858818
0.0014027016
0.0013216054
0.0012421506
0.0011639536
0.0010870733
0.0010117537
0.00093794486
0.00086533656
0.00079412695
0.00072437555
0.00065644042
0.00059047531
0.00052640202
0.00046505354
0.00040634742
0.00035348683
0.00030226543
0.00027260544
0.00022470488
0.00040258791
-0.00036517134
0.0065457421
0.0065851936
0.0066650267
0.0067641938
0.0068837626
0.0070219349
0.0071766225
0.0073466568
0.007531542
0.0077312595
0.0079462482
0.0081774809
0.0084265526
0.0086959733
0.0089892602
0.009312142
0.0096717021
0.010082924
0.010558248
0.011152224
0.011864226
0.013016147
0.014279486
0.02012749
0.016511718
0.010314326
0.008987046
0.0084965038
0.0079905618
0.0075617845
0.0072345518
0.0069799241
0.0067518161
0.006541661
0.0063540116
0.0061933599
0.006050766
0.0059123605
0.0057850988
0.0056724574
0.0055643278
0.0054631818
0.0053690884
0.0052796889
0.0051954882
0.0051152644
0.0050386824
0.0049661793
0.0048958675
0.0048286554
0.0047645612
0.0047020791
0.0046417857
0.0045838403
0.0045274788
0.0044722559
0.0044188358
0.0043670901
0.0043161433
0.0042661584
0.0042175607
0.0041701161
0.0041232167
0.0040769231
0.0040316758
0.0039873163
0.0039432733
0.0038995156
0.003856496
0.0038142566
0.0037721159
0.0037301882
0.0036884455
0.0036472355
0.0036063686
0.003565404
0.0035244033
0.0034835196
0.003442951
0.0034023147
0.003361451
0.0033203071
0.0032792062
0.0032381937
0.0031967213
0.0031548666
0.0031125205
0.0030700472
0.0030273583
0.0029839036
0.0029398435
0.0028951071
0.0028499525
0.0028041743
0.0027573767
0.0027095743
0.0026609269
0.0026114808
0.0025607807
0.0025086985
0.0024552211
0.0024005231
0.0023443266
0.0022861947
0.0022260946
0.0021641825
0.0021001937
0.0020335403
0.00196419
0.0018921515
0.0018170276
0.0017381188
0.0016556609
0.0015708004
0.0014858826
0.0014027024
0.0013216062
0.0012421513
0.0011639543
0.0010870739
0.0010117543
0.00093794546
0.00086533714
0.0007941275
0.00072437608
0.00065644093
0.00059047581
0.0005264025
0.000465054
0.00040634787
0.00035348727
0.00030226586
0.00027260587
0.0002247053
0.0004025884
-0.00036517103
0.0065457421
0.0065851936
0.0066650267
0.0067641938
0.0068837626
0.0070219349
0.0071766225
0.0073466568
0.0075315421
0.0077312595
0.0079462482
0.0081774809
0.0084265526
0.0086959734
0.0089892603
0.009312142
0.0096717021
0.010082924
0.010558248
0.011152224
0.011864226
0.013016146
0.014279487
0.020125704
0.016517835
0.010316204
0.00898755
0.0084967966
0.0079907707
0.0075619512
0.0072346909
0.006980042
0.006751917
0.0065417485
0.0063540885
0.006193428
0.0060508266
0.005912415
0.0057851481
0.0056725023
0.0055643688
0.0054632194
0.0053691231
0.005279721
0.005195518
0.0051152922
0.0050387083
0.0049662036
0.0048958902
0.0048286768
0.0047645813
0.004702098
0.0046418035
0.0045838572
0.0045274947
0.004472271
0.0044188502
0.0043671037
0.0043161562
0.0042661707
0.0042175724
0.0041701272
0.0041232274
0.0040769332
0.0040316855
0.0039873256
0.0039432822
0.003899524
0.0038565041
0.0038142643
0.0037721233
0.0037301953
0.0036884523
0.003647242
0.0036063749
0.00356541
0.003524409
0.0034835251
0.0034429562
0.0034023198
0.0033614558
0.0033203118
0.0032792107
0.0032381979
0.0031967254
0.0031548705
0.0031125243
0.0030700508
0.0030273618
0.0029839069
0.0029398467
0.0028951101
0.0028499554
0.0028041771
0.0027573794
0.0027095769
0.0026609294
0.0026114832
0.002560783
0.0025087007
0.0024552231
0.0024005251
0.0023443285
0.0022861965
0.0022260962
0.0021641841
0.0021001952
0.0020335417
0.0019641914
0.0018921528
0.0018170289
0.00173812
0.001655662
0.0015708015
0.0014858836
0.0014027033
0.001321607
0.0012421521
0.0011639551
0.0010870747
0.0010117551
0.00093794617
0.00086533782
0.00079412816
0.00072437671
0.00065644154
0.00059047639
0.00052640307
0.00046505455
0.0004063484
0.00035348778
0.00030226636
0.00027260636
0.00022470577
0.00040258898
-0.00036517067
0.0065457421
0.0065851936
0.0066650267
0.0067641938
0.0068837626
0.0070219349
0.0071766225
0.0073466568
0.0075315421
0.0077312596
0.0079462482
0.0081774809
0.0084265526
0.0086959734
0.0089892603
0.009312142
0.0096717021
0.010082924
0.010558248
0.011152224
0.011864226
0.013016145
0.014279488
0.020124243
0.016525526
0.010318949
0.0089882559
0.0084971906
0.0079910478
0.0075621706
0.0072348734
0.0069801961
0.0067520488
0.0065418628
0.0063541888
0.0061935166
0.0060509055
0.0059124858
0.0057852121
0.0056725605
0.005564422
0.0054632682
0.005369168
0.0052797626
0.0051955566
0.0051153281
0.0050387418
0.0049662349
0.0048959196
0.0048287043
0.0047646072
0.0047021224
0.0046418265
0.0045838789
0.0045275153
0.0044722904
0.0044188686
0.0043671212
0.0043161729
0.0042661865
0.0042175875
0.0041701416
0.004123241
0.0040769462
0.0040316979
0.0039873375
0.0039432935
0.0038995348
0.0038565145
0.0038142742
0.0037721328
0.0037302044
0.003688461
0.0036472503
0.0036063828
0.0035654176
0.0035244163
0.0034835321
0.0034429629
0.0034023262
0.003361462
0.0033203177
0.0032792163
0.0032382034
0.0031967306
0.0031548755
0.0031125291
0.0030700554
0.0030273662
0.0029839111
0.0029398507
0.002895114
0.0028499591
0.0028041806
0.0027573827
0.0027095801
0.0026609325
0.0026114861
0.0025607858
0.0025087034
0.0024552257
0.0024005276
0.0023443309
0.0022861987
0.0022260984
0.0021641861
0.0021001971
0.0020335436
0.0019641931
0.0018921544
0.0018170304
0.0017381214
0.0016556634
0.0015708028
0.0014858849
0.0014027045
0.0013216082
0.0012421532
0.0011639561
0.0010870757
0.001011756
0.00093794706
0.00086533867
0.00079412898
0.0007243775
0.0006564423
0.00059047713
0.00052640378
0.00046505524
0.00040634906
0.00035348843
0.00030226698
0.00027260699
0.00022470636
0.0004025897
-0.00036517022
0.0065457421
0.0065851936
0.0066650267
0.0067641938
0.0068837626
0.0070219349
0.0071766225
0.0073466568
0.0075315421
0.0077312596
0.0079462482
0.0081774809
0.0084265526
0.0086959734
0.0089892603
0.009312142
0.0096717021
0.010082924
0.010558248
0.011152223
0.011864226
0.013016144
0.014279489
0.02012291
0.016533809
0.010322457
0.0089891621
0.0084976832
0.0079913904
0.0075624405
0.0072350974
0.0069803852
0.0067522105
0.006542003
0.0063543118
0.0061936254
0.0060510024
0.0059125727
0.0057852908
0.005672632
0.0055644874
0.0054633283
0.0053692234
0.0052798138
0.0051956041
0.0051153723
0.005038783
0.0049662734
0.0048959557
0.0048287382
0.0047646391
0.0047021524
0.0046418549
0.0045839057
0.0045275406
0.0044723144
0.0044188914
0.0043671428
0.0043161934
0.004266206
0.0042176061
0.0041701593
0.0041232579
0.0040769623
0.0040317133
0.0039873521
0.0039433075
0.0038995482
0.0038565273
0.0038142865
0.0037721445
0.0037302156
0.0036884717
0.0036472606
0.0036063927
0.0035654271
0.0035244254
0.0034835408
0.0034429712
0.0034023342
0.0033614696
0.003320325
0.0032792233
0.0032382101
0.0031967371
0.0031548817
0.003112535
0.0030700611
0.0030273716
0.0029839163
0.0029398557
0.0028951188
0.0028499637
0.002804185
0.002757387
0.0027095841
0.0026609363
0.0026114898
0.0025607893
0.0025087067
0.0024552289
0.0024005306
0.0023443338
0.0022862015
0.002226101
0.0021641886
0.0021001995
0.0020335458
0.0019641953
0.0018921565
0.0018170323
0.0017381233
0.0016556651
0.0015708044
0.0014858864
0.001402706
0.0013216096
0.0012421545
0.0011639574
0.0010870769
0.0010117572
0.00093794817
0.00086533974
0.00079413
0.00072437849
0.00065644325
0.00059047804
0.00052640466
0.00046505609
0.00040634989
0.00035348923
0.00030226776
0.00027260776
0.00022470709
0.0004025906
-0.00036516966
0.0065457421
0.0065851936
0.0066650267
0.0067641938
0.0068837626
0.0070219349
0.0071766225
0.0073466568
0.0075315421
0.0077312596
0.0079462483
0.0081774809
0.0084265526
0.0086959734
0.0089892603
0.009312142
0.0096717021
0.010082924
0.010558248
0.011152223
0.011864226
0.013016142
0.014279491
0.020121599
0.016541863
0.01032637
0.0089902695
0.0084982716
0.0079917947
0.0075627574
0.0072353597
0.0069806065
0.0067523997
0.006542167
0.0063544557
0.0061937527
0.0060511157
0.0059126745
0.0057853829
0.0056727157
0.0055645639
0.0054633986
0.0053692881
0.0052798737
0.0051956597
0.005115424
0.0050388313
0.0049663186
0.004895998
0.0048287779
0.0047646764
0.0047021877
0.0046418881
0.0045839371
0.0045275703
0.0044723426
0.0044189181
0.0043671682
0.0043162175
0.0042662289
0.0042176279
0.00417018
0.0041232777
0.0040769812
0.0040317313
0.0039873693
0.0039433239
0.0038995639
0.0038565423
0.0038143008
0.0037721582
0.0037302288
0.0036884843
0.0036472727
0.0036064043
0.0035654382
0.003524436
0.003483551
0.003442981
0.0034023435
0.0033614786
0.0033203336
0.0032792316
0.003238218
0.0031967447
0.003154889
0.003112542
0.0030700678
0.0030273781
0.0029839225
0.0029398616
0.0028951245
0.0028499691
0.0028041902
0.0027573919
0.0027095889
0.0026609409
0.0026114942
0.0025607935
0.0025087107
0.0024552327
0.0024005342
0.0023443372
0.0022862048
0.0022261042
0.0021641916
0.0021002023
0.0020335485
0.0019641978
0.0018921589
0.0018170346
0.0017381254
0.0016556671
0.0015708063
0.0014858882
0.0014027077
0.0013216112
0.0012421561
0.0011639589
0.0010870783
0.0010117585
0.00093794949
0.000865341
0.00079413121
0.00072437965
0.00065644437
0.00059047912
0.0005264057
0.0004650571
0.00040635087
0.00035349018
0.00030226869
0.00027260868
0.00022470796
0.00040259166
-0.000365169
0.0065457421
0.0065851936
0.0066650267
0.0067641938
0.0068837626
0.0070219349
0.0071766225
0.0073466568
0.0075315421
0.0077312596
0.0079462483
0.0081774809
0.0084265527
0.0086959734
0.0089892603
0.009312142
0.0096717021
0.010082924
0.010558248
0.011152223
0.011864225
0.013016139
0.014279494
0.02012023
0.016549543
0.010330615
0.0089915986
0.0084989641
0.0079922645
0.0075631233
0.0072356616
0.0069808609
0.0067526169
0.0065423552
0.0063546208
0.0061938986
0.0060512455
0.005912791
0.0057854884
0.0056728116
0.0055646515
0.005463479
0.0053693623
0.0052799423
0.0051957233
0.0051154832
0.0050388866
0.0049663703
0.0048960464
0.0048288234
0.0047647192
0.004702228
0.0046419261
0.0045839731
0.0045276043
0.0044723748
0.0044189486
0.0043671972
0.004316245
0.0042662551
0.0042176528
0.0041702038
0.0041233003
0.0040770028
0.0040317519
0.003987389
0.0039433427
0.0038995819
0.0038565595
0.0038143173
0.003772174
0.0037302438
0.0036884988
0.0036472865
0.0036064175
0.0035654509
0.0035244482
0.0034835627
0.0034429922
0.0034023543
0.0033614889
0.0033203435
0.0032792411
0.0032382271
0.0031967534
0.0031548974
0.00311255
0.0030700755
0.0030273854
0.0029839295
0.0029398684
0.0028951309
0.0028499753
0.0028041962
0.0027573976
0.0027095943
0.0026609461
0.0026114992
0.0025607982
0.0025087153
0.0024552371
0.0024005384
0.0023443412
0.0022862086
0.0022261078
0.002164195
0.0021002056
0.0020335516
0.0019642008
0.0018921617
0.0018170373
0.0017381279
0.0016556695
0.0015708086
0.0014858903
0.0014027097
0.0013216131
0.0012421579
0.0011639606
0.00108708
0.0010117601
0.000937951
0.00086534245
0.00079413261
0.000724381
0.00065644566
0.00059048037
0.00052640691
0.00046505827
0.000406352
0.00035349128
0.00030226975
0.00027260974
0.00022470896
0.00040259288
-0.00036516825
0.0065457421
0.0065851936
0.0066650267
0.0067641938
0.0068837626
0.0070219349
0.0071766225
0.0073466568
0.0075315421
0.0077312596
0.0079462483
0.008177481
0.0084265527
0.0086959734
0.0089892603
0.009312142
0.0096717021
0.010082924
0.010558247
0.011152222
0.011864225
0.013016136
0.014279497
0.02011873
0.016556913
0.010335833
0.0089931853
0.0084997769
0.007992809
0.0075635445
0.0072360081
0.0069811522
0.0067528653
0.0065425702
0.0063548093
0.0061940652
0.0060513936
0.0059129239
0.0057856086
0.0056729209
0.0055647513
0.0054635706
0.0053694466
0.0052800203
0.0051957957
0.0051155506
0.0050389494
0.004966429
0.0048961015
0.0048288751
0.0047647678
0.0047022737
0.0046419693
0.0045840139
0.0045276429
0.0044724114
0.0044189833
0.0043672301
0.0043162763
0.0042662849
0.0042176811
0.0041702308
0.004123326
0.0040770273
0.0040317753
0.0039874114
0.0039433641
0.0038996023
0.003856579
0.003814336
0.0037721919
0.0037302609
0.0036885152
0.0036473022
0.0036064325
0.0035654653
0.003524462
0.0034835759
0.0034430049
0.0034023664
0.0033615006
0.0033203547
0.0032792518
0.0032382374
0.0031967633
0.0031549068
0.0031125591
0.0030700842
0.0030273938
0.0029839375
0.002939876
0.0028951383
0.0028499824
0.0028042029
0.0027574041
0.0027096005
0.002660952
0.0026115048
0.0025608036
0.0025087204
0.002455242
0.0024005431
0.0023443457
0.0022862128
0.0022261118
0.0021641989
0.0021002093
0.0020335551
0.0019642041
0.0018921648
0.0018170403
0.0017381308
0.0016556722
0.0015708111
0.0014858927
0.001402712
0.0013216153
0.00124216
0.0011639626
0.0010870818
0.0010117619
0.00093795272
0.0008653441
0.00079413419
0.00072438252
0.00065644713
0.00059048178
0.00052640827
0.00046505959
0.00040635327
0.00035349253
0.00030227096
0.00027261094
0.0002247101
0.00040259427
-0.00036516738
0.0065457421
0.0065851937
0.0066650268
0.0067641938
0.0068837627
0.007021935
0.0071766226
0.0073466568
0.0075315421
0.0077312596
0.0079462483
0.008177481
0.0084265527
0.0086959735
0.0089892603
0.009312142
0.009671702
0.010082924
0.010558247
0.011152222
0.011864224
0.013016131
0.0142795
0.02011702
0.016563994
0.01034234
0.0089950764
0.0085007318
0.0079934405
0.0075640299
0.0072364057
0.0069814859
0.0067531495
0.006542816
0.0063550246
0.0061942552
0.0060515625
0.0059130754
0.0057857455
0.0056730452
0.0055648648
0.0054636747
0.0053695426
0.005280109
0.0051958779
0.0051156271
0.0050390207
0.0049664957
0.0048961639
0.0048289337
0.0047648229
0.0047023256
0.0046420183
0.0045840601
0.0045276867
0.0044724528
0.0044190226
0.0043672674
0.0043163117
0.0042663186
0.0042177132
0.0041702613
0.0041233551
0.0040770551
0.0040318018
0.0039874367
0.0039433883
0.0038996254
0.0038566011
0.0038143571
0.0037722121
0.0037302803
0.0036885337
0.0036473199
0.0036064496
0.0035654816
0.0035244776
0.0034835909
0.0034430193
0.0034023802
0.0033615138
0.0033203673
0.003279264
0.0032382491
0.0031967744
0.0031549175
0.0031125694
0.003070094
0.0030274032
0.0029839466
0.0029398847
0.0028951466
0.0028499903
0.0028042105
0.0027574114
0.0027096075
0.0026609587
0.0026115112
0.0025608097
0.0025087262
0.0024552476
0.0024005484
0.0023443507
0.0022862177
0.0022261164
0.0021642033
0.0021002135
0.0020335591
0.0019642079
0.0018921684
0.0018170436
0.0017381339
0.0016556752
0.0015708139
0.0014858954
0.0014027146
0.0013216177
0.0012421623
0.0011639648
0.001087084
0.0010117639
0.00093795466
0.00086534596
0.00079413598
0.00072438424
0.00065644879
0.00059048338
0.00052640982
0.00046506108
0.00040635472
0.00035349393
0.00030227232
0.0002726123
0.00022471138
0.00040259583
-0.00036516641
0.0065457421
0.0065851937
0.0066650268
0.0067641938
0.0068837627
0.007021935
0.0071766226
0.0073466569
0.0075315422
0.0077312597
0.0079462484
0.008177481
0.0084265527
0.0086959735
0.0089892603
0.009312142
0.009671702
0.010082923
0.010558247
0.011152221
0.011864223
0.013016126
0.014279505
0.020114993
0.016570471
0.010349992
0.0089973305
0.0085018566
0.0079941746
0.00756459
0.007236863
0.0069818688
0.0067534752
0.0065430973
0.0063552708
0.0061944724
0.0060517554
0.0059132482
0.0057859016
0.005673187
0.0055649942
0.0054637934
0.0053696518
0.0052802099
0.0051959715
0.0051157141
0.0050391019
0.0049665715
0.0048962349
0.0048290003
0.0047648855
0.0047023846
0.0046420739
0.0045841127
0.0045277364
0.0044724999
0.0044190672
0.0043673097
0.0043163519
0.0042663568
0.0042177496
0.0041702959
0.0041233881
0.0040770865
0.0040318318
0.0039874653
0.0039434156
0.0038996516
0.0038566261
0.003814381
0.003772235
0.0037303022
0.0036885547
0.00364734
0.0036064688
0.0035655
0.0035244953
0.0034836078
0.0034430355
0.0034023958
0.0033615287
0.0033203817
0.0032792777
0.0032382622
0.003196787
0.0031549296
0.003112581
0.0030701051
0.0030274139
0.0029839568
0.0029398945
0.002895156
0.0028499993
0.0028042191
0.0027574196
0.0027096154
0.0026609662
0.0026115184
0.0025608166
0.0025087328
0.0024552539
0.0024005544
0.0023443565
0.0022862231
0.0022261216
0.0021642082
0.0021002182
0.0020335636
0.0019642121
0.0018921724
0.0018170474
0.0017381375
0.0016556786
0.0015708172
0.0014858985
0.0014027174
0.0013216205
0.0012421649
0.0011639673
0.0010870863
0.0010117662
0.00093795685
0.00086534806
0.000794138
0.00072438618
0.00065645065
0.00059048518
0.00052641155
0.00046506276
0.00040635635
0.00035349552
0.00030227385
0.00027261383
0.00022471282
0.0004025976
-0.00036516532
0.0065457421
0.0065851937
0.0066650268
0.0067641939
0.0068837627
0.007021935
0.0071766226
0.0073466569
0.0075315422
0.0077312597
0.0079462484
0.0081774811
0.0084265528
0.0086959735
0.0089892604
0.009312142
0.0096717019
0.010082923
0.010558247
0.01115222
0.011864222
0.013016119
0.014279511
0.02011252
0.016575343
0.010358845
0.0090000203
0.0085031852
0.0079950302
0.007565238
0.0072373899
0.0069823091
0.0067538492
0.00654342
0.0063555529
0.0061947211
0.0060519761
0.0059134459
0.0057860801
0.005673349
0.0055651419
0.0054639288
0.0053697764
0.005280325
0.0051960781
0.0051158132
0.0050391943
0.0049666578
0.0048963157
0.0048290761
0.0047649568
0.0047024517
0.0046421372
0.0045841724
0.0045277928
0.0044725533
0.0044191178
0.0043673577
0.0043163975
0.0042664002
0.0042177908
0.0041703352
0.0041234256
0.0040771222
0.0040318659
0.0039874978
0.0039434467
0.0038996812
0.0038566545
0.0038144082
0.0037722609
0.003730327
0.0036885784
0.0036473628
0.0036064906
0.0035655209
0.0035245153
0.003483627
0.0034430539
0.0034024134
0.0033615456
0.0033203979
0.0032792932
0.0032382771
0.0031968013
0.0031549433
0.0031125941
0.0030701177
0.0030274259
0.0029839683
0.0029399056
0.0028951666
0.0028500095
0.0028042289
0.0027574289
0.0027096243
0.0026609747
0.0026115266
0.0025608244
0.0025087403
0.002455261
0.0024005612
0.0023443629
0.0022862293
0.0022261275
0.0021642138
0.0021002235
0.0020335686
0.0019642169
0.0018921769
0.0018170517
0.0017381416
0.0016556824
0.0015708208
0.0014859019
0.0014027207
0.0013216236
0.0012421679
0.0011639701
0.001087089
0.0010117688
0.00093795932
0.00086535043
0.00079414028
0.00072438837
0.00065645276
0.00059048721
0.00052641352
0.00046506466
0.00040635818
0.0003534973
0.00030227559
0.00027261555
0.00022471445
0.00040259958
-0.00036516408
0.0065457421
0.0065851937
0.0066650268
0.0067641939
0.0068837627
0.007021935
0.0071766226
0.0073466569
0.0075315423
0.0077312598
0.0079462485
0.0081774811
0.0084265528
0.0086959736
0.0089892604
0.009312142
0.0096717019
0.010082923
0.010558246
0.011152219
0.011864221
0.01301611
0.014279518
0.020109459
0.016577999
0.010369046
0.0090032326
0.0085047594
0.0079960306
0.0075659897
0.0072379985
0.0069828166
0.0067542797
0.006543791
0.0063558769
0.0061950066
0.0060522292
0.0059136724
0.0057862845
0.0056735344
0.0055653109
0.0054640836
0.0053699189
0.0052804565
0.0051961999
0.0051159264
0.0050392997
0.0049667562
0.0048964079
0.0048291626
0.004765038
0.0047025281
0.0046422092
0.0045842404
0.0045278571
0.0044726141
0.0044191755
0.0043674124
0.0043164495
0.0042664495
0.0042178378
0.0041703799
0.0041234681
0.0040771628
0.0040319046
0.0039875348
0.0039434819
0.0038997149
0.0038566867
0.003814439
0.0037722904
0.0037303552
0.0036886054
0.0036473886
0.0036065153
0.0035655446
0.003524538
0.0034836488
0.0034430747
0.0034024334
0.0033615647
0.0033204162
0.0032793108
0.003238294
0.0031968175
0.0031549588
0.003112609
0.003070132
0.0030274396
0.0029839814
0.0029399181
0.0028951786
0.002850021
0.0028042399
0.0027574395
0.0027096344
0.0026609844
0.0026115358
0.0025608332
0.0025087487
0.002455269
0.0024005689
0.0023443703
0.0022862363
0.0022261341
0.0021642202
0.0021002295
0.0020335743
0.0019642223
0.0018921821
0.0018170566
0.0017381462
0.0016556868
0.0015708249
0.0014859058
0.0014027244
0.0013216271
0.0012421712
0.0011639733
0.0010870921
0.0010117717
0.00093796211
0.00086535311
0.00079414285
0.00072439084
0.00065645514
0.00059048951
0.00052641573
0.0004650668
0.00040636026
0.00035349932
0.00030227754
0.0002726175
0.00022471629
0.00040260183
-0.00036516269
0.0065457421
0.0065851937
0.0066650269
0.0067641939
0.0068837628
0.0070219351
0.0071766227
0.007346657
0.0075315423
0.0077312598
0.0079462485
0.0081774812
0.0084265529
0.0086959736
0.0089892604
0.009312142
0.0096717018
0.010082923
0.010558245
0.011152218
0.011864219
0.013016099
0.014279527
0.020105638
0.01657918
0.010380747
0.0090070666
0.0085066294
0.0079972036
0.0075668637
0.0072387031
0.0069834028
0.0067547761
0.0065442183
0.0063562498
0.0061953348
0.0060525201
0.0059139326
0.0057865191
0.005673747
0.0055655046
0.0054642611
0.005370082
0.005280607
0.0051963393
0.0051160558
0.0050394203
0.0049668688
0.0048965132
0.0048292613
0.0047651307
0.0047026153
0.0046422914
0.004584318
0.0045279304
0.0044726835
0.0044192413
0.0043674748
0.0043165086
0.0042665058
0.0042178913
0.0041704308
0.0041235166
0.004077209
0.0040319487
0.0039875768
0.0039435221
0.0038997533
0.0038567233
0.003814474
0.0037723239
0.0037303873
0.0036886361
0.003647418
0.0036065435
0.0035655715
0.0035245638
0.0034836735
0.0034430985
0.0034024561
0.0033615865
0.0033204371
0.0032793308
0.0032383132
0.0031968359
0.0031549765
0.0031126259
0.0030701482
0.0030274551
0.0029839963
0.0029399324
0.0028951922
0.0028500341
0.0028042524
0.0027574514
0.0027096458
0.0026609953
0.0026115463
0.0025608433
0.0025087583
0.0024552781
0.0024005776
0.0023443786
0.0022862442
0.0022261417
0.0021642273
0.0021002363
0.0020335808
0.0019642285
0.0018921879
0.0018170621
0.0017381514
0.0016556917
0.0015708296
0.0014859102
0.0014027286
0.0013216311
0.001242175
0.0011639769
0.0010870955
0.001011775
0.00093796528
0.00086535615
0.00079414576
0.00072439364
0.00065645784
0.00059049211
0.00052641824
0.00046506923
0.0004063626
0.00035350161
0.00030227975
0.00027261971
0.00022471838
0.00040260436
-0.00036516111
0.0065457421
0.0065851938
0.0066650269
0.006764194
0.0068837628
0.0070219351
0.0071766228
0.0073466571
0.0075315424
0.0077312599
0.0079462486
0.0081774813
0.008426553
0.0086959737
0.0089892604
0.0093121419
0.0096717016
0.010082922
0.010558245
0.011152216
0.011864216
0.013016084
0.014279538
0.020100851
0.016579569
0.010394095
0.0090116364
0.0085088559
0.0079985833
0.0075678826
0.0072395205
0.0069840813
0.0067553498
0.0065447115
0.0063566797
0.006195713
0.006052855
0.0059142319
0.0057867889
0.0056739914
0.0055657272
0.0054644647
0.0053702692
0.0052807797
0.0051964991
0.0051162042
0.0050395584
0.0049669977
0.0048966338
0.0048293743
0.0047652368
0.0047027151
0.0046423855
0.0045844067
0.0045280143
0.0044727629
0.0044193164
0.004367546
0.0043165762
0.00426657
0.0042179523
0.0041704889
0.0041235719
0.0040772617
0.004031999
0.0039876248
0.0039435679
0.003899797
0.0038567651
0.003814514
0.0037723621
0.0037304238
0.0036886711
0.0036474515
0.0036065755
0.0035656022
0.0035245932
0.0034837017
0.0034431254
0.003402482
0.0033616113
0.0033204609
0.0032793536
0.003238335
0.0031968568
0.0031549965
0.0031126451
0.0030701666
0.0030274728
0.0029840132
0.0029399486
0.0028952078
0.0028500489
0.0028042666
0.002757465
0.0027096588
0.0026610078
0.0026115582
0.0025608546
0.0025087691
0.0024552885
0.0024005875
0.002344388
0.0022862532
0.0022261502
0.0021642355
0.0021002441
0.0020335882
0.0019642354
0.0018921945
0.0018170684
0.0017381573
0.0016556973
0.0015708348
0.0014859152
0.0014027333
0.0013216356
0.0012421793
0.001163981
0.0010870995
0.0010117788
0.00093796886
0.00086535959
0.00079414907
0.00072439682
0.0006564609
0.00059049506
0.00052642109
0.00046507198
0.00040636526
0.0003535042
0.00030228226
0.0002726222
0.00022472074
0.00040260723
-0.00036515933
0.0065457421
0.0065851938
0.0066650269
0.006764194
0.0068837629
0.0070219352
0.0071766228
0.0073466571
0.0075315425
0.00773126
0.0079462487
0.0081774814
0.0084265531
0.0086959737
0.0089892605
0.0093121419
0.0096717014
0.010082922
0.010558244
0.011152213
0.011864214
0.013016066
0.014279553
0.020094845
0.016579139
0.010409102
0.0090170697
0.0085115107
0.0080002108
0.0075690731
0.0072404708
0.006984868
0.006756014
0.0065452819
0.0063571764
0.0061961495
0.0060532413
0.0059145769
0.0057870996
0.0056742727
0.0055659832
0.005464699
0.0053704843
0.0052809781
0.0051966827
0.0051163746
0.0050397169
0.0049671456
0.004896772
0.0048295039
0.0047653584
0.0047028295
0.0046424932
0.0045845084
0.0045281103
0.0044728537
0.0044194024
0.0043676275
0.0043166536
0.0042666434
0.0042180222
0.0041705553
0.0041236352
0.004077322
0.0040320564
0.0039876796
0.0039436202
0.003899847
0.0038568129
0.0038145596
0.0037724057
0.0037304655
0.003688711
0.0036474897
0.0036066121
0.0035656373
0.0035246268
0.0034837338
0.0034431562
0.0034025115
0.0033616396
0.003320488
0.0032793796
0.0032383599
0.0031968807
0.0031550194
0.003112667
0.0030701876
0.0030274929
0.0029840325
0.002939967
0.0028952254
0.0028500659
0.0028042828
0.0027574805
0.0027096737
0.002661022
0.0026115717
0.0025608676
0.0025087815
0.0024553003
0.0024005987
0.0023443987
0.0022862634
0.00222616
0.0021642448
0.0021002529
0.0020335965
0.0019642434
0.001892202
0.0018170755
0.0017381641
0.0016557036
0.0015708409
0.0014859209
0.0014027387
0.0013216407
0.0012421842
0.0011639857
0.0010871039
0.001011783
0.00093797294
0.0008653635
0.00079415282
0.00072440043
0.00065646437
0.00059049841
0.00052642432
0.0004650751
0.00040636829
0.00035350714
0.00030228511
0.00027262504
0.00022472342
0.00040261049
-0.0003651573
0.0065457421
0.0065851938
0.006665027
0.0067641941
0.0068837629
0.0070219353
0.0071766229
0.0073466572
0.0075315426
0.0077312601
0.0079462488
0.0081774815
0.0084265532
0.0086959738
0.0089892605
0.0093121418
0.0096717011
0.010082921
0.010558243
0.01115221
0.01186421
0.013016043
0.01427957
0.020087309
0.016577838
0.010425324
0.0090235041
0.008514679
0.0080021361
0.0075704672
0.0072415775
0.0069857819
0.0067567843
0.0065459424
0.0063577512
0.0061966542
0.0060536877
0.0059149752
0.0057874581
0.0056745971
0.0055662783
0.0054649688
0.0053707321
0.0052812064
0.0051968939
0.0051165705
0.0050398992
0.0049673156
0.0048969309
0.0048296527
0.0047654981
0.0047029608
0.0046426169
0.004584625
0.0045282204
0.0044729578
0.004419501
0.0043677209
0.0043167422
0.0042667276
0.0042181022
0.0041706314
0.0041237076
0.004077391
0.0040321222
0.0039877423
0.00394368
0.0038999041
0.0038568675
0.0038146118
0.0037724556
0.0037305132
0.0036887566
0.0036475334
0.0036066539
0.0035656773
0.0035246651
0.0034837705
0.0034431914
0.0034025452
0.0033616719
0.0033205189
0.0032794092
0.0032383883
0.0031969079
0.0031550455
0.003112692
0.0030702115
0.0030275159
0.0029840545
0.0029399881
0.0028952456
0.0028500852