/*--------------------------------*- C++ -*----------------------------------*\
  =========                 |
  \\      /  F ield         | OpenFOAM: The Open Source CFD Toolbox
   \\    /   O peration     | Website:  https://openfoam.org
    \\  /    A nd           | Version:  12
     \\/     M anipulation  |
\*---------------------------------------------------------------------------*/
FoamFile
{
    format      ascii;
    class       volVectorField;
    location    "800";
    object      U;
}
// * * * * * * * * * * * * * * * * * * * * * * * * * * * * * * * * * * * * * //

dimensions      [0 1 -1 0 0 0 0];

internalField   nonuniform List<vector> 
13056
(
(1 3.0527149e-10 4.0059439e-24)
(0.99997702 8.82203e-10 0)
(0.99993872 1.3136044e-09 0)
(0.99989562 1.6787686e-09 0)
(0.99984702 2.1423748e-09 0)
(0.99979243 2.7156823e-09 0)
(0.9997316 3.423295e-09 0)
(0.999664 4.3087376e-09 0)
(0.99958882 5.4250496e-09 0)
(0.99950506 6.8383751e-09 0)
(0.99941149 8.6348028e-09 0)
(0.99930656 1.0932747e-08 0)
(0.99918824 1.3888881e-08 0)
(0.999054 1.7748501e-08 0)
(0.99889996 2.2800757e-08 0)
(0.99872184 2.9723387e-08 0)
(0.99850986 3.8858828e-08 0)
(0.99825916 5.3261183e-08 0)
(0.99793157 7.0635559e-08 0)
(0.9975504 1.1172469e-07 0)
(0.99689376 1.4796077e-07 0)
(0.99624419 4.0910927e-07 0)
(0.99348603 2.7186409e-07 -1.4745097e-20)
(0.99399141 0.00012007038 2.0620128e-16)
(0.039023704 0.00012428071 0)
(0.029790374 1.1681164e-07 -3.5323829e-20)
(0.027436364 4.3415023e-08 0)
(0.025892148 3.5513116e-08 0)
(0.024787849 2.7635779e-08 0)
(0.02389556 2.3262769e-08 0)
(0.023132237 2.0145329e-08 0)
(0.022471495 1.752277e-08 0)
(0.021895976 1.5342738e-08 0)
(0.021388868 1.3573103e-08 0)
(0.020936594 1.2122131e-08 0)
(0.020529601 1.0895213e-08 0)
(0.02016135 9.8441568e-09 0)
(0.019825858 8.9601726e-09 0)
(0.019517448 8.2089162e-09 0)
(0.019232375 7.5509547e-09 0)
(0.018967759 6.9767082e-09 0)
(0.018720822 6.4716057e-09 0)
(0.0184895 6.0220577e-09 0)
(0.01827202 5.6217188e-09 0)
(0.018066809 5.2625511e-09 0)
(0.017872597 4.9388525e-09 0)
(0.017688248 4.645336e-09 0)
(0.017512851 4.376618e-09 0)
(0.017345618 4.1314187e-09 0)
(0.017185777 3.9062004e-09 0)
(0.017032735 3.6978105e-09 0)
(0.016885945 3.5060657e-09 0)
(0.016744854 3.3290628e-09 0)
(0.01660901 3.1642111e-09 0)
(0.016478052 3.0106154e-09 0)
(0.016351603 2.86813e-09 0)
(0.016229298 2.7349298e-09 0)
(0.016110874 2.6094644e-09 0)
(0.015996086 2.4919612e-09 0)
(0.015884657 2.3821457e-09 0)
(0.015776341 2.2786475e-09 0)
(0.015670959 2.1805397e-09 0)
(0.015568341 2.0880173e-09 0)
(0.01546829 2.001e-09 0)
(0.015370628 1.9185035e-09 0)
(0.015275225 1.8398627e-09 0)
(0.015181961 1.7652077e-09 0)
(0.015090696 1.6945341e-09 0)
(0.015001298 1.6273607e-09 0)
(0.014913654 1.5631657e-09 0)
(0.014827675 1.5018267e-09 0)
(0.01474327 1.4433198e-09 0)
(0.014660334 1.3876608e-09 0)
(0.014578768 1.3344013e-09 0)
(0.0144985 1.2832276e-09 0)
(0.014419463 1.234191e-09 0)
(0.014341581 1.1872813e-09 0)
(0.014264775 1.1424091e-09 0)
(0.014188969 1.099274e-09 0)
(0.014114111 1.0577095e-09 0)
(0.014040146 1.0177443e-09 0)
(0.013967012 9.7940116e-10 0)
(0.013894644 9.4255745e-10 0)
(0.013822984 9.0701572e-10 0)
(0.013751988 8.7270309e-10 0)
(0.013681608 8.3961444e-10 0)
(0.013611792 8.0777578e-10 0)
(0.013542484 7.7707415e-10 0)
(0.013473635 7.4738166e-10 0)
(0.013405205 7.1866446e-10 0)
(0.01333715 6.9091186e-10 0)
(0.013269421 6.6413498e-10 0)
(0.013201969 6.3824163e-10 0)
(0.013134748 6.1314839e-10 0)
(0.013067719 5.8883895e-10 0)
(0.013000838 5.653162e-10 0)
(0.012934056 5.4256116e-10 0)
(0.012867323 5.2050215e-10 0)
(0.012800597 4.9909322e-10 0)
(0.012733833 4.7833139e-10 0)
(0.012666982 4.5821852e-10 0)
(0.012599992 4.3871185e-10 0)
(0.01253281 4.1976547e-10 0)
(0.012465388 4.013647e-10 0)
(0.012397673 3.835109e-10 0)
(0.012329605 3.6618223e-10 0)
(0.012261122 3.4934027e-10 0)
(0.012192167 3.3296945e-10 0)
(0.012122674 3.1706803e-10 0)
(0.012052571 3.0161646e-10 0)
(0.011981787 2.8659828e-10 0)
(0.011910239 2.7195553e-10 0)
(0.011837872 2.5787383e-10 0)
(0.011766122 2.4473364e-10 0)
(0.011697205 2.3264004e-10 0)
(0.011631727 2.215237e-10 0)
(0.011569408 2.1128878e-10 0)
(0.011509995 2.0184869e-10 0)
(0.011453261 1.9312778e-10 0)
(0.011399 1.8505622e-10 0)
(0.011347028 1.7757115e-10 0)
(0.011297179 1.7061443e-10 0)
(0.011249302 1.6413679e-10 0)
(0.011203262 1.5809505e-10 0)
(0.011158934 1.5245816e-10 0)
(0.011116203 1.4719449e-10 0)
(0.011074963 1.4228935e-10 0)
(0.011035107 1.3770965e-10 0)
(0.010996551 1.3351712e-10 0)
(0.010959151 1.2956188e-10 0)
(0.010922915 1.2638914e-10 0)
(0.010887377 1.2290228e-10 0)
(0.010853215 1.2238083e-10 0)
(0.010817979 5.6870113e-10 0)
(0.010787481 1.4037529e-10 1.6654998e-22)
(0.010737265 4.3844831e-10 0)
(1 9.2183067e-10 0)
(0.99997694 2.6665302e-09 0)
(0.99993844 3.9719831e-09 0)
(0.9998951 5.0767715e-09 0)
(0.99984623 6.4786538e-09 0)
(0.99979133 8.211936e-09 0)
(0.99973018 1.0350944e-08 0)
(0.99966222 1.3027102e-08 0)
(0.99958665 1.6400553e-08 0)
(0.99950248 2.0670983e-08 0)
(0.99940847 2.6098247e-08 0)
(0.99930306 3.3039737e-08 0)
(0.99918424 4.1968257e-08 0)
(0.99904945 5.3624013e-08 0)
(0.99889482 6.8879356e-08 0)
(0.99871607 8.9779213e-08 0)
(0.99850339 1.1735592e-07 0)
(0.99825192 1.6082368e-07 0)
(0.99792345 2.1325552e-07 0)
(0.99754134 3.372206e-07 0)
(0.9968834 4.4650954e-07 0)
(0.99623279 1.234317e-06 0)
(0.99347078 8.2050089e-07 5.2628769e-20)
(0.99397293 0.0003542932 -6.7314254e-20)
(0.11376726 0.00035990694 0)
(0.08832973 5.6274707e-06 0)
(0.081430841 1.9530066e-06 0)
(0.076932474 1.3293705e-06 0)
(0.073712873 9.9574006e-07 0)
(0.071109328 8.1914321e-07 0)
(0.06887983 6.9850846e-07 0)
(0.066947786 6.0084491e-07 0)
(0.06526317 5.2116304e-07 0)
(0.063777451 4.5727094e-07 0)
(0.062451303 4.0538563e-07 0)
(0.061257026 3.6192472e-07 0)
(0.060175667 3.2501675e-07 0)
(0.059189877 2.9410109e-07 0)
(0.058283158 2.6800518e-07 0)
(0.057444591 2.4534767e-07 0)
(0.056665806 2.256141e-07 0)
(0.055938721 2.0836067e-07 0)
(0.055257314 1.9308827e-07 0)
(0.054616417 1.7953343e-07 0)
(0.054011443 1.6743367e-07 0)
(0.053438683 1.5656713e-07 0)
(0.052894823 1.4675112e-07 0)
(0.052377202 1.3781374e-07 0)
(0.051883514 1.2967535e-07 0)
(0.051411513 1.2223495e-07 0)
(0.050959455 1.1538581e-07 0)
(0.050525743 1.0909467e-07 0)
(0.050108764 1.0330828e-07 0)
(0.049707189 9.7941425e-08 0)
(0.049319962 9.2953451e-08 0)
(0.048945982 8.8334413e-08 0)
(0.048584174 8.4032559e-08 0)
(0.048233769 7.9995896e-08 0)
(0.047894052 7.6221587e-08 0)
(0.047564209 7.2701701e-08 0)
(0.047243515 6.9395507e-08 0)
(0.046931448 6.6271399e-08 0)
(0.04662751 6.3329833e-08 0)
(0.04633112 6.0567583e-08 0)
(0.046041753 5.7957335e-08 0)
(0.045759033 5.5477378e-08 0)
(0.045482601 5.3126487e-08 0)
(0.045212054 5.0903539e-08 0)
(0.044946996 4.8797051e-08 0)
(0.044687097 4.6790738e-08 0)
(0.044432096 4.487582e-08 0)
(0.044181724 4.3053053e-08 0)
(0.043935674 4.132148e-08 0)
(0.043693652 3.9669411e-08 0)
(0.043455449 3.8086512e-08 0)
(0.043220863 3.6571605e-08 0)
(0.042989673 3.5124546e-08 0)
(0.042761646 3.3742888e-08 0)
(0.042536559 3.2418489e-08 0)
(0.042314256 3.1144888e-08 0)
(0.042094576 2.9922256e-08 0)
(0.041877334 2.8750558e-08 0)
(0.041662344 2.7627149e-08 0)
(0.041449428 2.6546402e-08 0)
(0.041238457 2.5504488e-08 0)
(0.041029293 2.4501574e-08 0)
(0.040821778 2.3537612e-08 0)
(0.040615749 2.2610199e-08 0)
(0.040411058 2.1715478e-08 0)
(0.040207589 2.0851247e-08 0)
(0.040005212 2.0017539e-08 0)
(0.039803782 1.9214183e-08 0)
(0.039603149 1.8439071e-08 0)
(0.039403181 1.7689544e-08 0)
(0.039203762 1.6964466e-08 0)
(0.03900476 1.6263874e-08 0)
(0.038806029 1.5587314e-08 0)
(0.038607422 1.4932891e-08 0)
(0.038408811 1.4298878e-08 0)
(0.038210067 1.3684977e-08 0)
(0.038011041 1.3091128e-08 0)
(0.037811576 1.251635e-08 0)
(0.037611518 1.1959192e-08 0)
(0.037410724 1.1418921e-08 0)
(0.037209034 1.0895512e-08 0)
(0.037006267 1.0388464e-08 0)
(0.036802243 9.8966401e-09 0)
(0.036596788 9.4193504e-09 0)
(0.036389707 8.9565038e-09 0)
(0.036180786 8.5075974e-09 0)
(0.035969807 8.0721137e-09 0)
(0.035756528 7.6481772e-09 0)
(0.035540781 7.2411346e-09 0)
(0.035326852 6.8619682e-09 0)
(0.035121344 6.5137254e-09 0)
(0.034926071 6.1941934e-09 0)
(0.034740198 5.9004626e-09 0)
(0.034562978 5.6299799e-09 0)
(0.03439373 5.3804408e-09 0)
(0.034231849 5.1497504e-09 0)
(0.034076784 4.93608e-09 0)
(0.033928039 4.7377366e-09 0)
(0.033785168 4.5532237e-09 0)
(0.033647769 4.3812977e-09 0)
(0.033515472 4.221002e-09 0)
(0.033387931 4.0714428e-09 0)
(0.033264831 3.9321702e-09 0)
(0.033145856 3.8021626e-09 0)
(0.033030753 3.6831656e-09 0)
(0.032919097 3.5707616e-09 0)
(0.032810911 3.4805146e-09 0)
(0.032704802 3.3802419e-09 0)
(0.032602796 3.3651318e-09 0)
(0.032497587 3.2033091e-09 0)
(0.032406508 3.9063764e-09 -2.5278702e-22)
(0.032256536 2.4593317e-09 1.6067774e-23)
(1 1.5548553e-09 0)
(0.99997683 4.4997459e-09 0)
(0.99993809 6.7054375e-09 0)
(0.99989446 8.5717214e-09 0)
(0.99984524 1.0938554e-08 0)
(0.99978997 1.3864314e-08 0)
(0.99972839 1.7474368e-08 0)
(0.99965998 2.1990269e-08 0)
(0.99958393 2.7681971e-08 0)
(0.99949925 3.4886036e-08 0)
(0.99940467 4.4040376e-08 0)
(0.99929868 5.5747202e-08 0)
(0.99917922 7.0803092e-08 0)
(0.99904375 9.045509e-08 0)
(0.99888839 1.1617255e-07 0)
(0.99870884 1.5140022e-07 0)
(0.99849529 1.9787567e-07 0)
(0.99824288 2.7111907e-07 0)
(0.99791331 3.5945741e-07 0)
(0.99753004 5.682629e-07 0)
(0.9968705 7.5232487e-07 0)
(0.99621861 2.0790669e-06 0)
(0.99345204 1.3846387e-06 -2.7853019e-20)
(0.99395052 0.00057196374 6.7741321e-54)
(0.18145738 0.00058502882 -9.0347447e-54)
(0.14124112 1.6461022e-05 0)
(0.13038379 5.7064101e-06 0)
(0.12347588 3.8305815e-06 0)
(0.11854167 2.8649394e-06 0)
(0.11455115 2.3562838e-06 0)
(0.11113006 2.0100991e-06 0)
(0.10816045 1.7302529e-06 0)
(0.10556662 1.5018774e-06 0)
(0.10327518 1.3186686e-06 0)
(0.10122657 1.1698041e-06 0)
(0.099378907 1.0450175e-06 0)
(0.09770363 9.3896865e-07 0)
(0.096174426 8.500835e-07 0)
(0.094766142 7.7502194e-07 0)
(0.093462204 7.0981784e-07 0)
(0.09224991 6.5299145e-07 0)
(0.091116924 6.0328815e-07 0)
(0.090054068 5.5927289e-07 0)
(0.089053464 5.2018861e-07 0)
(0.088108102 4.8528665e-07 0)
(0.087212318 4.5392946e-07 0)
(0.086361035 4.255933e-07 0)
(0.085550185 3.9978552e-07 0)
(0.084776241 3.7627518e-07 0)
(0.084035754 3.5477483e-07 0)
(0.083326056 3.3497712e-07 0)
(0.082644697 3.1678539e-07 0)
(0.081989196 3.0004887e-07 0)
(0.08135751 2.8452174e-07 0)
(0.080748017 2.7008633e-07 0)
(0.080159024 2.5671486e-07 0)
(0.079588871 2.4425893e-07 0)
(0.079036375 2.3256795e-07 0)
(0.078500436 2.2163359e-07 0)
(0.077979797 2.1143407e-07 0)
(0.077473335 2.0185192e-07 0)
(0.076980244 1.9279542e-07 0)
(0.076499759 1.8426598e-07 0)
(0.076030979 1.7625493e-07 0)
(0.075573088 1.6868344e-07 0)
(0.075125506 1.6148841e-07 0)
(0.074687678 1.5466629e-07 0)
(0.074258977 1.4821421e-07 0)
(0.073838791 1.4209929e-07 0)
(0.073426601 1.3627426e-07 0)
(0.073022007 1.3071325e-07 0)
(0.072624592 1.2541903e-07 0)
(0.072233875 1.2038889e-07 0)
(0.071849396 1.1558904e-07 0)
(0.071470833 1.1098936e-07 0)
(0.071097871 1.0658643e-07 0)
(0.070730162 1.0238008e-07 0)
(0.070367345 9.8363324e-08 0)
(0.070009067 9.4512548e-08 0)
(0.069655087 9.0808795e-08 0)
(0.069305153 8.7252729e-08 0)
(0.068958975 8.3844322e-08 0)
(0.068616257 8.057604e-08 0)
(0.068276722 7.7431503e-08 0)
(0.067940167 7.4399388e-08 0)
(0.067606375 7.1480408e-08 0)
(0.067275095 6.8674426e-08 0)
(0.06694607 6.5974572e-08 0)
(0.066619068 6.3369576e-08 0)
(0.066293901 6.085292e-08 0)
(0.065970368 5.8424877e-08 0)
(0.065648237 5.6084959e-08 0)
(0.065327268 5.3827074e-08 0)
(0.065007253 5.1643438e-08 0)
(0.064688004 4.9530728e-08 0)
(0.064369313 4.7489132e-08 0)
(0.064050947 4.5517372e-08 0)
(0.06373267 4.3609924e-08 0)
(0.063414275 4.1761702e-08 0)
(0.063095557 3.9971898e-08 0)
(0.062776277 3.8240376e-08 0)
(0.062456179 3.6564288e-08 0)
(0.062135021 3.4939387e-08 0)
(0.061812566 3.336353e-08 0)
(0.061488559 3.1836695e-08 0)
(0.061162707 3.0357437e-08 0)
(0.060834718 2.892243e-08 0)
(0.06050431 2.7529652e-08 0)
(0.060171168 2.6178877e-08 0)
(0.059834944 2.486865e-08 0)
(0.059495283 2.3597449e-08 0)
(0.059151791 2.2359795e-08 0)
(0.058804197 2.1171319e-08 0)
(0.058459401 2.006411e-08 0)
(0.058128058 1.9047112e-08 0)
(0.057813109 1.811388e-08 0)
(0.057513223 1.7255929e-08 0)
(0.057227207 1.6465815e-08 0)
(0.056953977 1.5736807e-08 0)
(0.056692565 1.506281e-08 0)
(0.056442091 1.4438499e-08 0)
(0.056201764 1.3858932e-08 0)
(0.055970872 1.3319731e-08 0)
(0.055748768 1.2817281e-08 0)
(0.055534861 1.2348792e-08 0)
(0.0553286 1.1911664e-08 0)
(0.055129479 1.1504585e-08 0)
(0.05493699 1.1124557e-08 0)
(0.054750729 1.0776714e-08 0)
(0.054570012 1.0448101e-08 0)
(0.054394876 1.0184354e-08 0)
(0.054223074 9.8910366e-09 0)
(0.054057885 9.8474254e-09 0)
(0.053887478 9.3140025e-09 0)
(0.053739932 1.1440475e-08 0)
(0.053496938 7.1389937e-09 0)
(1 2.214415e-09 8.2196914e-24)
(0.99997671 6.4123305e-09 0)
(0.99993768 9.5604851e-09 0)
(0.99989367 1.2223593e-08 0)
(0.99984404 1.5598662e-08 0)
(0.99978829 1.9769727e-08 0)
(0.99972621 2.4915357e-08 0)
(0.99965725 3.1350911e-08 0)
(0.99958061 3.9460618e-08 0)
(0.99949529 4.9723424e-08 0)
(0.99940004 6.2762395e-08 0)
(0.99929332 7.9434248e-08 0)
(0.99917309 1.0087203e-07 0)
(0.99903679 1.2884945e-07 0)
(0.99888054 1.6545584e-07 0)
(0.99870003 2.1559025e-07 0)
(0.99848543 2.81721e-07 0)
(0.99823187 3.859188e-07 0)
(0.99790098 5.1157201e-07 0)
(0.99751631 8.0850475e-07 0)
(0.99685484 1.070187e-06 0)
(0.99620143 2.9564783e-06 0)
(0.99342953 1.9720254e-06 0)
(0.99392382 0.00078016716 -3.531075e-54)
(0.23958682 0.00080681035 4.0124827e-54)
(0.18525133 3.2587061e-05 0)
(0.17103974 1.1160252e-05 0)
(0.16232876 7.3932135e-06 0)
(0.15615093 5.520963e-06 0)
(0.15116878 4.5408756e-06 0)
(0.14690112 3.8766727e-06 0)
(0.14319553 3.3405341e-06 0)
(0.13995654 2.9028519e-06 0)
(0.13709264 2.551524e-06 0)
(0.13452977 2.2658415e-06 0)
(0.13221607 2.0261039e-06 0)
(0.13011636 1.8221466e-06 0)
(0.12819802 1.651082e-06 0)
(0.12642975 1.5065294e-06 0)
(0.12479108 1.3808487e-06 0)
(0.12326632 1.2712281e-06 0)
(0.12184014 1.1752905e-06 0)
(0.12050117 1.0902713e-06 0)
(0.11923964 1.0147241e-06 0)
(0.11804687 9.4721876e-07 0)
(0.11691582 8.8653177e-07 0)
(0.1158402 8.3165953e-07 0)
(0.11481495 7.8165411e-07 0)
(0.1138357 7.3607285e-07 0)
(0.11289815 6.9436646e-07 0)
(0.111999 6.5594094e-07 0)
(0.11113521 6.2061256e-07 0)
(0.11030367 5.8809505e-07 0)
(0.10950186 5.5791162e-07 0)
(0.10872777 5.2983543e-07 0)
(0.10797926 5.0381683e-07 0)
(0.10725429 4.7956896e-07 0)
(0.10655137 4.5679863e-07 0)
(0.10586914 4.3549184e-07 0)
(0.10520602 4.1560916e-07 0)
(0.10456062 3.9692206e-07 0)
(0.10393193 3.7925172e-07 0)
(0.10331899 3.626026e-07 0)
(0.10272068 3.469597e-07 0)
(0.10213597 3.3216936e-07 0)
(0.10156415 3.1810822e-07 0)
(0.10100451 3.0477038e-07 0)
(0.10045627 2.9215153e-07 0)
(0.099918663 2.8018793e-07 0)
(0.099391038 2.687871e-07 0)
(0.098872893 2.5789844e-07 0)
(0.098363706 2.4752858e-07 0)
(0.09786287 2.376728e-07 0)
(0.097369806 2.2826499e-07 0)
(0.096884107 2.1924601e-07 0)
(0.096405381 2.1060965e-07 0)
(0.095933188 2.0235626e-07 0)
(0.095467069 1.9447243e-07 0)
(0.095006579 1.8691185e-07 0)
(0.094551413 1.7963719e-07 0)
(0.094101254 1.726503e-07 0)
(0.093655733 1.6595146e-07 0)
(0.093214474 1.5952611e-07 0)
(0.092777124 1.5334203e-07 0)
(0.092343426 1.4737685e-07 0)
(0.091913104 1.4163248e-07 0)
(0.091485838 1.3610882e-07 0)
(0.091061297 1.3079251e-07 0)
(0.090639185 1.2566132e-07 0)
(0.090219264 1.2070242e-07 0)
(0.089801272 1.1591669e-07 0)
(0.089384912 1.1130331e-07 0)
(0.088969876 1.0685031e-07 0)
(0.088555895 1.0254233e-07 0)
(0.088142726 9.8372921e-08 0)
(0.087730102 9.4342641e-08 0)
(0.087317717 9.0449089e-08 0)
(0.086905265 8.6681356e-08 0)
(0.086492481 8.3029374e-08 0)
(0.086079094 7.9491721e-08 0)
(0.085664793 7.6068243e-08 0)
(0.085249245 7.2753334e-08 0)
(0.08483213 6.9538598e-08 0)
(0.084413142 6.6419868e-08 0)
(0.083991941 6.3397211e-08 0)
(0.083568146 6.0467814e-08 0)
(0.083141371 5.7625096e-08 0)
(0.082711242 5.4865089e-08 0)
(0.082277347 5.2187442e-08 0)
(0.081839222 4.9589304e-08 0)
(0.081396402 4.7067668e-08 0)
(0.080948363 4.4611659e-08 0)
(0.080494742 4.2252469e-08 0)
(0.080044545 4.0054012e-08 0)
(0.079611697 3.8034078e-08 0)
(0.079200069 3.6179889e-08 0)
(0.078807951 3.4474717e-08 0)
(0.078433806 3.2903858e-08 0)
(0.07807624 3.1454071e-08 0)
(0.077734003 3.0113315e-08 0)
(0.077405961 2.887108e-08 0)
(0.077091094 2.771758e-08 0)
(0.076788481 2.6644148e-08 0)
(0.076497289 2.564365e-08 0)
(0.076216753 2.471058e-08 0)
(0.075946159 2.3839806e-08 0)
(0.075684854 2.3028756e-08 0)
(0.075432178 2.2271466e-08 0)
(0.075187609 2.1578295e-08 0)
(0.074950253 2.0923288e-08 0)
(0.074720168 2.0398073e-08 0)
(0.074494397 1.9813031e-08 0)
(0.07427727 1.9728983e-08 0)
(0.0740532 1.8691541e-08 0)
(0.07385917 2.2934402e-08 0)
(0.073539549 1.4317386e-08 0)
(1 2.9111998e-09 0)
(0.99997656 8.4360207e-09 0)
(0.99993718 1.2585469e-08 0)
(0.99989273 1.6094688e-08 0)
(0.9998426 2.0538483e-08 0)
(0.99978629 2.6028715e-08 0)
(0.9997236 3.28002e-08 0)
(0.99965398 4.1267266e-08 0)
(0.99957663 5.193469e-08 0)
(0.99949055 6.5431557e-08 0)
(0.99939449 8.2576073e-08 0)
(0.9992869 1.0449311e-07 0)
(0.99916574 1.3267009e-07 0)
(0.99902846 1.6943533e-07 0)
(0.99887114 2.1753063e-07 0)
(0.99868948 2.8338615e-07 0)
(0.99847362 3.7023726e-07 0)
(0.9982187 5.0705032e-07 0)
(0.99788624 6.7200449e-07 0)
(0.99749991 1.0617043e-06 0)
(0.99683616 1.4049971e-06 0)
(0.99618094 3.8800108e-06 0)
(0.99340288 2.5919947e-06 0)
(0.99389245 0.00098384109 0)
(0.28980254 0.0010279029 0)
(0.22189736 5.4089859e-05 0)
(0.20462954 1.8134419e-05 0)
(0.1944378 1.1826705e-05 0)
(0.18728212 8.8037491e-06 0)
(0.18153913 7.2333568e-06 0)
(0.17663169 6.1749918e-06 0)
(0.17237497 5.3232494e-06 0)
(0.16865587 4.6284889e-06 0)
(0.16536795 4.0709354e-06 0)
(0.16242549 3.6175172e-06 0)
(0.15976879 3.2368106e-06 0)
(0.15735754 2.9127407e-06 0)
(0.15515418 2.6408844e-06 0)
(0.15312262 2.4110981e-06 0)
(0.15123949 2.2111917e-06 0)
(0.14948685 2.0367546e-06 0)
(0.14784703 1.8840453e-06 0)
(0.14630703 1.7486533e-06 0)
(0.14485568 1.628292e-06 0)
(0.14348302 1.520699e-06 0)
(0.14218101 1.4239343e-06 0)
(0.14094242 1.3364086e-06 0)
(0.13976146 1.2566136e-06 0)
(0.13863314 1.183849e-06 0)
(0.13755253 1.1172458e-06 0)
(0.13651585 1.0558555e-06 0)
(0.13551963 9.9939044e-07 0)
(0.13456032 9.4740076e-07 0)
(0.13363501 8.9912335e-07 0)
(0.13274141 8.5419796e-07 0)
(0.13187709 8.1255165e-07 0)
(0.13103968 7.7372625e-07 0)
(0.13022751 7.3725135e-07 0)
(0.129439 7.0310835e-07 0)
(0.12867236 6.7123797e-07 0)
(0.12792597 6.4127348e-07 0)
(0.12719869 6.1292805e-07 0)
(0.12648944 5.8621179e-07 0)
(0.1257969 5.6110323e-07 0)
(0.12511992 5.3735524e-07 0)
(0.12445765 5.1476937e-07 0)
(0.12380932 4.9333816e-07 0)
(0.12317401 4.7305657e-07 0)
(0.12255084 4.5382237e-07 0)
(0.12193907 4.3548656e-07 0)
(0.12133811 4.1796821e-07 0)
(0.12074738 4.0127976e-07 0)
(0.12016618 3.8541439e-07 0)
(0.11959382 3.7026532e-07 0)
(0.11902986 3.5573717e-07 0)
(0.11847384 3.4182105e-07 0)
(0.11792525 3.2851842e-07 0)
(0.11738356 3.1580798e-07 0)
(0.11684826 3.0361481e-07 0)
(0.11631901 2.9187871e-07 0)
(0.11579542 2.8060357e-07 0)
(0.11527708 2.6979038e-07 0)
(0.11476355 2.5941582e-07 0)
(0.11425443 2.4942764e-07 0)
(0.11374941 2.3978979e-07 0)
(0.11324817 2.3050609e-07 0)
(0.11275035 2.2157671e-07 0)
(0.11225556 2.1298006e-07 0)
(0.11176346 2.046801e-07 0)
(0.11127377 1.9665624e-07 0)
(0.11078618 1.8891044e-07 0)
(0.11030035 1.8144155e-07 0)
(0.10981592 1.7423014e-07 0)
(0.10933257 1.672513e-07 0)
(0.10885002 1.6049486e-07 0)
(0.10836796 1.53962e-07 0)
(0.10788602 1.4764897e-07 0)
(0.10740386 1.4153801e-07 0)
(0.10692115 1.3561279e-07 0)
(0.10643758 1.2987132e-07 0)
(0.10595278 1.2431353e-07 0)
(0.10546636 1.1893027e-07 0)
(0.10497795 1.1370792e-07 0)
(0.10448717 1.0863987e-07 0)
(0.10399363 1.0372639e-07 0)
(0.10349688 9.8962949e-08 0)
(0.10299645 9.4338832e-08 0)
(0.10249191 8.9847689e-08 0)
(0.10198277 8.5489092e-08 0)
(0.10146847 8.1258416e-08 0)
(0.10094846 7.7150777e-08 0)
(0.10042211 7.3148461e-08 0)
(0.099889004 6.9302587e-08 0)
(0.099359708 6.5717739e-08 0)
(0.098850612 6.2422967e-08 0)
(0.098366292 5.939741e-08 0)
(0.097904763 5.6613977e-08 0)
(0.097464238 5.4048924e-08 0)
(0.097043095 5.1680811e-08 0)
(0.096639881 4.9490133e-08 0)
(0.096253274 4.7459852e-08 0)
(0.095882086 4.5574054e-08 0)
(0.095525244 4.3818659e-08 0)
(0.095181779 4.2182118e-08 0)
(0.094850797 4.0655516e-08 0)
(0.094531466 3.9230538e-08 0)
(0.094223022 3.7903049e-08 0)
(0.093924694 3.6663311e-08 0)
(0.093635873 3.5528534e-08 0)
(0.093355506 3.4455959e-08 0)
(0.093083672 3.3596967e-08 0)
(0.092816867 3.2638299e-08 0)
(0.092560246 3.2506503e-08 0)
(0.092295301 3.0809711e-08 0)
(0.092065893 3.7805374e-08 -2.2998765e-22)
(0.091687936 2.3593113e-08 1.4642005e-23)
(1 3.6567959e-09 0)
(0.99997639 1.0605502e-08 0)
(0.99993659 1.5833626e-08 0)
(0.99989163 2.0253814e-08 0)
(0.99984089 2.5845846e-08 0)
(0.99978393 3.2752291e-08 0)
(0.99972051 4.1268204e-08 0)
(0.9996501 5.1913664e-08 0)
(0.99957191 6.5322217e-08 0)
(0.99948493 8.2283246e-08 0)
(0.99938791 1.038232e-07 0)
(0.9992793 1.3135299e-07 0)
(0.99915704 1.6673784e-07 0)
(0.99901859 2.1289736e-07 0)
(0.99886001 2.7326832e-07 0)
(0.998677 3.5591266e-07 0)
(0.99845967 4.6488045e-07 0)
(0.99820314 6.3648557e-07 0)
(0.99786883 8.4334444e-07 0)
(0.99748055 1.3318903e-06 0)
(0.99681415 1.7620059e-06 0)
(0.99615681 4.8639659e-06 0)
(0.99337169 3.254747e-06 0)
(0.99385598 0.00118638 0)
(0.33459115 0.0012520534 0)
(0.25367734 8.1799744e-05 0)
(0.23345806 2.6810568e-05 0)
(0.22192364 1.7190975e-05 0)
(0.21391443 1.2740412e-05 0)
(0.20752177 1.0447746e-05 0)
(0.20207582 8.9123326e-06 0)
(0.19735946 7.6817277e-06 0)
(0.1932427 6.6796136e-06 0)
(0.18960549 5.8760873e-06 0)
(0.18635178 5.2229115e-06 0)
(0.18341493 4.6744455e-06 0)
(0.18075016 4.2075225e-06 0)
(0.1783156 3.8159135e-06 0)
(0.17607108 3.4849231e-06 0)
(0.17399074 3.1968898e-06 0)
(0.17205468 2.9455281e-06 0)
(0.1702433 2.7254747e-06 0)
(0.16854218 2.5303391e-06 0)
(0.16693896 2.356835e-06 -3.3226015e-33)
(0.16542262 2.2017101e-06 0)
(0.16398428 2.062174e-06 0)
(0.16261594 1.9359436e-06 0)
(0.16131118 1.8208418e-06 0)
(0.16006449 1.7158619e-06 0)
(0.15887041 1.6197559e-06 0)
(0.15772478 1.5311512e-06 0)
(0.15662375 1.4496377e-06 0)
(0.15556341 1.3745732e-06 0)
(0.15454055 1.3048525e-06 0)
(0.15355264 1.2399575e-06 0)
(0.15259701 1.1797897e-06 0)
(0.15167101 1.1236868e-06 0)
(0.15077282 1.0709665e-06 0)
(0.14990071 1.0216064e-06 0)
(0.14905268 9.7552452e-07 0)
(0.14822696 9.321891e-07 0)
(0.14742228 8.9118474e-07 0)
(0.14663745 8.5252958e-07 0)
(0.14587103 8.1619518e-07 0)
(0.14512172 7.8182251e-07 0)
(0.14438862 7.491235e-07 0)
(0.14367084 7.1808991e-07 0)
(0.1429674 6.8871652e-07 0)
(0.14227731 6.6085473e-07 0)
(0.14159974 6.3428797e-07 0)
(0.14093408 6.0889982e-07 0)
(0.14027965 5.8471031e-07 0)
(0.13963569 5.6171014e-07 0)
(0.13900145 5.397436e-07 0)
(0.13837642 5.186721e-07 0)
(0.13776012 4.9848434e-07 0)
(0.13715196 4.7918345e-07 0)
(0.13655137 4.6073847e-07 0)
(0.13595778 4.4304018e-07 0)
(0.1353708 4.2600118e-07 0)
(0.13479004 4.096284e-07 0)
(0.134215 3.9392379e-07 0)
(0.13364522 3.7885339e-07 0)
(0.13308024 3.6434094e-07 0)
(0.13251974 3.5033421e-07 0)
(0.13196335 3.3683969e-07 0)
(0.13141067 3.2385795e-07 0)
(0.13086126 3.113574e-07 0)
(0.13031475 2.9928542e-07 0)
(0.12977083 2.8761238e-07 0)
(0.12922916 2.7634176e-07 0)
(0.12868936 2.6547205e-07 0)
(0.12815101 2.5497472e-07 0)
(0.12761378 2.4481344e-07 0)
(0.12707735 2.3497386e-07 0)
(0.12654137 2.2545801e-07 0)
(0.12600543 2.1626047e-07 0)
(0.12546914 2.073552e-07 0)
(0.12493215 1.9871843e-07 0)
(0.1243941 1.9034769e-07 0)
(0.12385458 1.8224304e-07 0)
(0.12331315 1.74391e-07 0)
(0.1227694 1.6677167e-07 0)
(0.12222291 1.5937567e-07 0)
(0.12167323 1.522036e-07 0)
(0.12111985 1.4524877e-07 0)
(0.12056227 1.3849552e-07 0)
(0.11999998 1.3193473e-07 0)
(0.11943244 1.2556594e-07 0)
(0.11885902 1.1938236e-07 0)
(0.1182791 1.1337682e-07 0)
(0.11769198 1.0752345e-07 0)
(0.11709718 1.018973e-07 0)
(0.11650649 9.6651863e-08 0)
(0.11593821 9.1829729e-08 0)
(0.11539746 8.7400269e-08 0)
(0.11488205 8.3324027e-08 0)
(0.11439 7.956659e-08 0)
(0.1139195 7.609675e-08 0)
(0.11346895 7.2886126e-08 0)
(0.11303688 6.9909887e-08 0)
(0.11262197 6.7144782e-08 0)
(0.11222303 6.4570275e-08 0)
(0.11183898 6.2169581e-08 0)
(0.11146883 5.9929742e-08 0)
(0.11111166 5.7838645e-08 0)
(0.11076662 5.5890314e-08 0)
(0.11043285 5.4070484e-08 0)
(0.11010967 5.2404762e-08 0)
(0.10979591 5.082999e-08 0)
(0.10949167 4.9570318e-08 0)
(0.109193 4.8161835e-08 0)
(0.10890572 4.7976419e-08 0)
(0.108609 4.5475414e-08 0)
(0.10835214 5.5813814e-08 0)
(0.10792894 3.4817e-08 -7.0448001e-24)
(1 4.4638668e-09 0)
(0.99997619 1.2959022e-08 0)
(0.99993591 1.9364095e-08 0)
(0.99989034 2.4777625e-08 0)
(0.9998389 3.1618624e-08 0)
(0.99978115 4.00641e-08 0)
(0.99971688 5.04744e-08 0)
(0.99964556 6.3483878e-08 0)
(0.99956638 7.9865196e-08 0)
(0.99947834 1.0058081e-07 0)
(0.99938019 1.2688187e-07 0)
(0.99927038 1.6048779e-07 0)
(0.99914684 2.0367105e-07 0)
(0.99900702 2.5998854e-07 0)
(0.99884697 3.3362535e-07 0)
(0.99866238 4.3440151e-07 0)
(0.99844332 5.6724143e-07 0)
(0.99818492 7.7637328e-07 0)
(0.99784847 1.028407e-06 0)
(0.99745792 1.6234259e-06 0)
(0.99678843 2.146949e-06 0)
(0.99612865 5.9236455e-06 0)
(0.99333552 3.9713446e-06 0)
(0.99381393 0.0013902805 0)
(0.37579651 0.0014836817 0)
(0.28236778 0.00011600734 0)
(0.25920205 3.7470522e-05 0)
(0.24637741 2.3617256e-05 0)
(0.23757455 1.7412717e-05 0)
(0.23058872 1.4244899e-05 0)
(0.22465686 1.2137571e-05 0)
(0.21952888 1.045645e-05 0)
(0.21505792 9.0903644e-06 0)
(0.211111 7.9962541e-06 0)
(0.20758231 7.1074775e-06 0)
(0.20439877 6.3613312e-06 0)
(0.20151141 5.7262039e-06 0)
(0.19887442 5.1937417e-06 0)
(0.19644385 4.743801e-06 0)
(0.19419159 4.3522131e-06 0)
(0.19209598 4.0105071e-06 0)
(0.19013562 3.711408e-06 0)
(0.18829483 3.4461702e-06 0)
(0.18656018 3.2103257e-06 2.996071e-33)
(0.18491969 2.9994564e-06 0)
(0.18336371 2.8097721e-06 0)
(0.18188354 2.6381754e-06 0)
(0.18047223 2.4817e-06 0)
(0.17912378 2.3389773e-06 0)
(0.17783226 2.2083138e-06 0)
(0.17659316 2.0878352e-06 0)
(0.17540232 1.9769877e-06 0)
(0.17425549 1.8749046e-06 0)
(0.17314919 1.7800776e-06 0)
(0.17208068 1.6918028e-06 0)
(0.17104707 1.6099538e-06 0)
(0.1700455 1.5336273e-06 0)
(0.16907398 1.4618916e-06 0)
(0.16813065 1.3947204e-06 0)
(0.16721334 1.3320057e-06 0)
(0.16632013 1.2730216e-06 0)
(0.16544966 1.2172014e-06 0)
(0.16460063 1.1645737e-06 0)
(0.16377148 1.1151024e-06 0)
(0.16296081 1.0682963e-06 0)
(0.16216764 1.0237619e-06 0)
(0.16139103 9.814908e-07 0)
(0.16062988 9.4147826e-07 0)
(0.15988314 9.0352043e-07 0)
(0.15914993 8.673211e-07 0)
(0.15842955 8.3272288e-07 0)
(0.1577213 7.997552e-07 0)
(0.15702433 7.6840572e-07 0)
(0.15633784 7.3846071e-07 0)
(0.15566129 7.0973084e-07 0)
(0.15499413 6.8220274e-07 0)
(0.15433576 6.5588172e-07 0)
(0.15368554 6.3072517e-07 0)
(0.15304285 6.0658327e-07 0)
(0.15240729 5.8333685e-07 0)
(0.1517784 5.6099691e-07 0)
(0.15115568 5.3956665e-07 0)
(0.15053861 5.189993e-07 0)
(0.14992668 4.9919021e-07 0)
(0.14931956 4.8006838e-07 0)
(0.14871686 4.6164379e-07 0)
(0.14811812 4.4391748e-07 0)
(0.14752287 4.2684584e-07 0)
(0.14693073 4.103567e-07 0)
(0.14634133 3.9441009e-07 0)
(0.14575433 3.7901145e-07 0)
(0.1451693 3.6415882e-07 0)
(0.14458579 3.4981276e-07 0)
(0.14400345 3.3592348e-07 0)
(0.14342191 3.2247204e-07 0)
(0.1428408 3.0946151e-07 0)
(0.14225969 2.9688444e-07 0)
(0.14167814 2.8470492e-07 0)
(0.14109577 2.7289046e-07 0)
(0.14051219 2.6143829e-07 0)
(0.13992696 2.5034861e-07 0)
(0.13933959 2.3960268e-07 0)
(0.13874962 2.2917323e-07 0)
(0.13815663 2.1904779e-07 0)
(0.1375601 2.0922735e-07 0)
(0.1369595 1.9970264e-07 0)
(0.13635425 1.9045212e-07 0)
(0.13574382 1.8146351e-07 0)
(0.13512761 1.7273639e-07 0)
(0.13450493 1.642613e-07 0)
(0.13387512 1.5602839e-07 0)
(0.1332374 1.4800224e-07 0)
(0.13259124 1.40286e-07 0)
(0.13194947 1.330907e-07 0)
(0.13133196 1.2647495e-07 0)
(0.1307443 1.2039653e-07 0)
(0.1301841 1.148015e-07 0)
(0.12964923 1.0964299e-07 0)
(0.12913774 1.0487842e-07 0)
(0.12864787 1.0046901e-07 0)
(0.12817805 9.6380779e-08 0)
(0.12772685 9.2581841e-08 0)
(0.12729297 8.9044103e-08 0)
(0.12687526 8.5744683e-08 0)
(0.12647263 8.26659e-08 0)
(0.12608409 7.9791192e-08 0)
(0.12570872 7.711244e-08 0)
(0.12534558 7.461005e-08 0)
(0.12499394 7.231965e-08 0)
(0.12465252 7.01539e-08 0)
(0.12432144 6.8423393e-08 0)
(0.12399638 6.6485072e-08 0)
(0.12368374 6.623978e-08 0)
(0.12336071 6.2789705e-08 -2.3994197e-23)
(0.12308115 7.7073257e-08 0)
(0.12262056 4.8064306e-08 0)
(1 5.3464279e-09 0)
(0.99997596 1.553931e-08 0)
(0.99993513 2.3243463e-08 0)
(0.99988884 2.9752702e-08 0)
(0.99983658 3.7967407e-08 0)
(0.99977793 4.8103783e-08 0)
(0.99971266 6.0593705e-08 0)
(0.99964026 7.6196258e-08 0)
(0.99955993 9.58359e-08 0)
(0.99947066 1.2066382e-07 0)
(0.9993712 1.5217598e-07 0)
(0.99925999 1.9242778e-07 0)
(0.99913496 2.4413494e-07 0)
(0.99899354 3.1154778e-07 0)
(0.9988318 3.9966487e-07 0)
(0.99864537 5.2021844e-07 0)
(0.99842431 6.7907988e-07 0)
(0.99816376 9.2908301e-07 0)
(0.99782483 1.2302892e-06 0)
(0.99743166 1.941091e-06 0)
(0.99675863 2.566037e-06 0)
(0.99609604 7.0757159e-06 0)
(0.99329389 4.753977e-06 0)
(0.99376578 0.0015974643 -9.3174933e-54)
(0.41465 0.0017254189 6.5410234e-54)
(0.30911508 0.00015875619 -6.7357906e-20)
(0.2829414 5.0477749e-05 0)
(0.26883166 3.1280332e-05 0)
(0.25926196 2.2931077e-05 0)
(0.25171229 1.870821e-05 0)
(0.24532332 1.5918542e-05 0)
(0.23981059 1.3704241e-05 0)
(0.23501005 1.1909173e-05 0)
(0.23077599 1.0473387e-05 0)
(0.22699316 9.3080451e-06 0)
(0.2235822 8.3300809e-06 0)
(0.22049013 7.4978612e-06 0)
(0.21766735 6.8005253e-06 0)
(0.21506636 6.2114527e-06 0)
(0.21265688 5.6987802e-06 0)
(0.2104156 5.2514928e-06 0)
(0.20831942 4.8600728e-06 0)
(0.20635147 4.5129893e-06 0)
(0.20449729 4.204383e-06 0)
(0.20274403 3.9284689e-06 0)