/*--------------------------------*- C++ -*----------------------------------*\
  =========                 |
  \\      /  F ield         | OpenFOAM: The Open Source CFD Toolbox
   \\    /   O peration     | Website:  https://openfoam.org
    \\  /    A nd           | Version:  12
     \\/     M anipulation  |
\*---------------------------------------------------------------------------*/
FoamFile
{
    format      ascii;
    class       volScalarField;
    location    "800";
    object      yPlus;
}
// * * * * * * * * * * * * * * * * * * * * * * * * * * * * * * * * * * * * * //

dimensions      [];

internalField   uniform 0;

boundaryField
{
    inlet
    {
        type            calculated;
        value           uniform 0;
    }
    top
    {
        type            calculated;
        value           uniform 0;
    }
    outlet
    {
        type            calculated;
        value           uniform 0;
    }
    slipsurface
    {
        type            calculated;
        value           uniform 0;
    }
    bottom
    {
        type            calculated;
        value           nonuniform List<scalar> 
100
(
116.34313
115.19407
113.92211
112.57186
111.1843
109.78766
108.39229
107.00264
105.62286
104.25654
102.9066
101.57541
100.26557
98.980027
97.722264
96.496924
95.310817
94.173853
93.094459
92.080019
91.137112
90.271296
89.486628
88.785934
88.169259
87.632323
87.166924
86.761973
86.404105
86.079552
85.77643
85.4861
85.203162
84.924706
84.649403
84.376268
84.104023
83.831275
83.556934
83.280713
83.003286
82.725815
82.449434
82.174855
81.902412
81.632333
81.364871
81.100251
80.838655
80.580248
80.325118
80.073239
79.824569
79.579133
79.336938
79.097917
78.861986
78.629112
78.399229
78.172263
77.948149
77.726822
77.508201
77.292219
77.078822
76.867946
76.65953
76.45352
76.249851
76.048464
75.849303
75.652306
75.457419
75.264584
75.073749
74.884862
74.69787
74.512726
74.32938
74.147786
73.967898
73.789671
73.613063
73.438029
73.26453
73.092523
72.921966
72.752816
72.585031
72.418554
72.253355
72.089302
71.92648
71.764358
71.603777
71.441986
71.284235
71.115502
70.975758
70.71314
)
;
    }
    frontandback
    {
        type            empty;
    }
}


// ************************************************************************* //
