/*--------------------------------*- C++ -*----------------------------------*\
  =========                 |
  \\      /  F ield         | OpenFOAM: The Open Source CFD Toolbox
   \\    /   O peration     | Website:  https://openfoam.org
    \\  /    A nd           | Version:  12
     \\/     M anipulation  |
\*---------------------------------------------------------------------------*/
FoamFile
{
    format      ascii;
    class       volScalarField;
    location    "400";
    object      omega;
}
// * * * * * * * * * * * * * * * * * * * * * * * * * * * * * * * * * * * * * //

dimensions      [0 0 -1 0 0 0 0];

internalField   nonuniform List<scalar> 
13056
(
407.81791
224.50907
218.15885
217.28722
217.70292
218.10545
218.31826
218.43485
218.51786
218.58896
218.65484
218.71841
218.78126
218.84467
218.90955
218.97672
219.04663
219.12144
219.1946
219.30883
219.26364
219.98187
217.50947
286.74462
15925793
15925793
15925793
15925793
15925793
15925793
15925793
15925793
15925793
15925793
15925793
15925793
15925793
15925793
15925793
15925793
15925793
15925793
15925793
15925793
15925793
15925793
15925793
15925793
15925793
15925793
15925793
15925793
15925793
15925793
15925793
15925793
15925793
15925793
15925793
15925793
15925793
15925793
15925793
15925793
15925793
15925793
15925793
15925793
15925793
15925793
15925793
15925793
15925793
15925793
15925793
15925793
15925793
15925793
15925793
15925793
15925793
15925793
15925793
15925793
15925793
15925793
15925793
15925793
15925793
15925793
15925793
15925793
15925793
15925793
15925793
15925793
15925793
15925793
15925793
15925793
15925793
15925793
15925793
15925793
15925793
15925793
15925793
15925793
15925793
15925793
15925793
15925793
15925793
15925793
15925793
15925793
15925793
15925793
15925793
15925793
15925793
15925793
15925793
15925793
15925793
15925793
15925793
15925793
15925793
15925793
15925793
15925793
15925793
15925793
15925793
15925793
407.82219
224.44194
218.08412
217.2099
217.62536
218.02793
218.24087
218.35756
218.44064
218.51179
218.5777
218.6413
218.70417
218.7676
218.83248
218.89967
218.96959
219.0444
219.11757
219.23177
219.18642
219.90643
217.42513
283.64434
2727977.2
2723733.9
2723624.6
2723623.4
2723615.3
2723603.6
2723592.4
2723583
2723574.9
2723568
2723562
2723556.7
2723551.8
2723547.4
2723543.3
2723539.6
2723536.1
2723533
2723530
2723527.2
2723524.6
2723522.2
2723519.8
2723517.7
2723515.6
2723513.6
2723511.7
2723509.9
2723508.2
2723506.6
2723505
2723503.4
2723502
2723500.6
2723499.2
2723497.9
2723496.6
2723495.3
2723494.1
2723492.9
2723491.8
2723490.7
2723489.6
2723488.5
2723487.5
2723486.4
2723485.4
2723484.4
2723483.5
2723482.5
2723481.6
2723480.7
2723479.8
2723478.9
2723478
2723477.1
2723476.3
2723475.4
2723474.6
2723473.8
2723473
2723472.2
2723471.4
2723470.6
2723469.8
2723469
2723468.2
2723467.4
2723466.7
2723465.9
2723465.2
2723464.4
2723463.6
2723462.9
2723462.1
2723461.4
2723460.6
2723459.9
2723459.1
2723458.3
2723457.6
2723456.8
2723456
2723455.3
2723454.5
2723453.7
2723452.9
2723452.1
2723451.3
2723450.5
2723449.8
2723449
2723448.4
2723447.7
2723447.1
2723446.5
2723445.9
2723445.4
2723444.8
2723444.3
2723443.9
2723443.4
2723442.9
2723442.5
2723442.1
2723441.7
2723441.3
2723440.9
2723440.6
2723440.2
2723439.8
2723439.3
407.82802
224.19146
217.81019
216.92768
217.34164
217.74419
217.95747
218.07443
218.15768
218.22893
218.29492
218.35857
218.42148
218.48493
218.54983
218.61701
218.68692
218.76172
218.83484
218.94901
218.90346
219.62611
217.12904
279.95716
912038.51
910434.17
910287.39
910283.41
910255.21
910219.54
910186.93
910159.39
910136.02
910115.83
910098.15
910082.48
910068.22
910055.16
910043.17
910032.12
910021.94
910012.5
910003.7
909995.48
909987.75
909980.47
909973.59
909967.08
909960.9
909955.02
909949.41
909944.06
909938.93
909934.01
909929.28
909924.73
909920.35
909916.11
909912.02
909908.05
909904.21
909900.48
909896.85
909893.32
909889.87
909886.5
909883.21
909880
909876.85
909873.78
909870.77
909867.81
909864.91
909862.06
909859.26
909856.51
909853.79
909851.12
909848.49
909845.89
909843.32
909840.78
909838.27
909835.79
909833.34
909830.9
909828.49
909826.09
909823.72
909821.36
909819.01
909816.68
909814.37
909812.06
909809.76
909807.46
909805.18
909802.9
909800.61
909798.33
909796.05
909793.77
909791.48
909789.19
909786.89
909784.58
909782.26
909779.92
909777.57
909775.21
909772.82
909770.41
909767.97
909765.56
909763.25
909761.06
909758.97
909756.99
909755.09
909753.29
909751.56
909749.91
909748.33
909746.81
909745.35
909743.94
909742.58
909741.28
909740.02
909738.79
909737.61
909736.45
909735.34
909734.2
909733.19
909731.55
407.83609
223.75167
217.33003
216.4332
216.84436
217.24683
217.46067
217.57807
217.66158
217.73298
217.79909
217.86282
217.92578
217.98927
218.05417
218.12135
218.19124
218.26601
218.33903
218.45314
218.40738
219.133
216.61433
275.99882
424478.04
421889.28
421649.31
421636.08
421575.77
421501.8
421434.71
421378.08
421329.98
421288.4
421251.94
421219.6
421190.14
421163.17
421138.37
421115.53
421094.46
421074.91
421056.68
421039.64
421023.62
421008.52
420994.25
420980.73
420967.9
420955.68
420944.04
420932.91
420922.24
420912.01
420902.18
420892.7
420883.57
420874.76
420866.23
420857.96
420849.95
420842.18
420834.61
420827.25
420820.06
420813.03
420806.17
420799.46
420792.9
420786.48
420780.19
420774.01
420767.96
420762.01
420756.16
420750.4
420744.73
420739.14
420733.63
420728.19
420722.82
420717.51
420712.26
420707.06
420701.92
420696.82
420691.77
420686.76
420681.78
420676.84
420671.93
420667.04
420662.18
420657.34
420652.52
420647.71
420642.91
420638.13
420633.34
420628.55
420623.76
420618.97
420614.17
420609.35
420604.52
420599.67
420594.79
420589.88
420584.95
420579.97
420574.95
420569.88
420564.76
420559.69
420554.83
420550.22
420545.82
420541.64
420537.66
420533.85
420530.22
420526.74
420523.4
420520.2
420517.12
420514.16
420511.3
420508.54
420505.89
420503.31
420500.81
420498.38
420496.03
420493.62
420491.49
420488.04
407.84753
223.11322
216.63254
215.71481
216.1218
216.5241
216.73874
216.85676
216.94062
217.01225
217.07852
217.14236
217.20539
217.26891
217.33383
217.40099
217.47084
217.54555
217.61846
217.73245
217.68649
218.41488
215.86952
271.81747
238300.79
234375.3
233991
233956.16
233851.81
233726.92
233614.11
233518.82
233437.79
233367.67
233306.14
233251.52
233201.73
233156.13
233114.16
233075.49
233039.79
233006.64
232975.72
232946.79
232919.59
232893.93
232869.67
232846.67
232824.84
232804.03
232784.2
232765.24
232747.04
232729.6
232712.83
232696.66
232681.07
232666.03
232651.45
232637.33
232623.64
232610.35
232597.4
232584.8
232572.5
232560.47
232548.72
232537.23
232525.99
232514.99
232504.21
232493.62
232483.24
232473.03
232462.99
232453.11
232443.37
232433.78
232424.31
232414.97
232405.74
232396.62
232387.59
232378.66
232369.82
232361.05
232352.35
232343.72
232335.16
232326.65
232318.19
232309.77
232301.4
232293.06
232284.75
232276.45
232268.18
232259.92
232251.67
232243.4
232235.13
232226.86
232218.57
232210.24
232201.9
232193.52
232185.09
232176.6
232168.07
232159.46
232150.77
232142
232133.13
232124.35
232115.93
232107.94
232100.32
232093.07
232086.17
232079.58
232073.27
232067.23
232061.44
232055.89
232050.55
232045.4
232040.44
232035.66
232031.04
232026.57
232022.23
232017.99
232013.92
232009.72
232006.03
232000.03
407.86394
222.26384
215.7029
214.75693
215.15826
215.5603
215.77598
215.8948
215.97913
216.05106
216.11753
216.18151
216.24463
216.30819
216.37312
216.44026
216.51006
216.58469
216.65744
216.77129
216.72511
217.45611
214.87846
267.40531
151110.55
146131.1
145538.9
145461.44
145303.17
145118.99
144953.12
144812.84
144693.36
144589.87
144498.95
144418.15
144344.47
144276.92
144214.7
144157.31
144104.28
144054.99
144008.99
143965.91
143925.37
143887.11
143850.9
143816.57
143783.94
143752.83
143723.17
143694.78
143667.54
143641.4
143616.26
143592.01
143568.62
143546.03
143524.14
143502.92
143482.34
143462.34
143442.87
143423.9
143405.38
143387.27
143369.55
143352.23
143335.3
143318.71
143302.43
143286.46
143270.77
143255.36
143240.19
143225.25
143210.53
143196.02
143181.7
143167.55
143153.58
143139.76
143126.09
143112.55
143099.15
143085.85
143072.65
143059.56
143046.56
143033.64
143020.79
143008
142995.27
142982.6
142969.95
142957.33
142944.75
142932.18
142919.6
142907.01
142894.42
142881.81
142869.16
142856.47
142843.74
142830.95
142818.07
142805.12
142792.07
142778.92
142765.63
142752.22
142738.66
142725.21
142712.32
142700.09
142688.42
142677.31
142666.73
142656.62
142646.95
142637.68
142628.8
142620.28
142612.07
142604.17
142596.55
142589.2
142582.11
142575.23
142568.57
142562.05
142555.79
142549.34
142543.66
142534.42
407.8875
221.18882
214.52291
213.54059
213.93452
214.33613
214.55311
214.67294
214.75787
214.83016
214.89689
214.96104
215.02427
215.08789
215.15283
215.21994
215.28966
215.36419
215.43675
215.5504
215.50402
216.23748
213.62134
262.74027
104708.36
99091.631
98211.651
98059.524
97840.913
97595.909
97375.965
97189.599
97030.593
96892.669
96771.356
96663.39
96564.878
96474.446
96391.057
96314.045
96242.784
96176.487
96114.537
96056.468
96001.762
95950.085
95901.132
95854.675
95810.49
95768.325
95728.083
95689.555
95652.547
95617.01
95582.81
95549.796
95517.933
95487.14
95457.282
95428.312
95400.211
95372.89
95346.263
95320.318
95294.972
95270.173
95245.911
95222.178
95198.957
95176.196
95153.857
95131.924
95110.38
95089.19
95068.328
95047.777
95027.517
95007.532
94987.802
94968.31
94949.044
94929.982
94911.108
94892.419
94873.899
94855.521
94837.28
94819.171
94801.181
94783.294
94765.493
94747.774
94730.135
94712.557
94695.013
94677.501
94660.025
94642.565
94625.088
94607.582
94590.065
94572.518
94554.91
94537.233
94519.493
94501.663
94483.709
94465.63
94447.421
94429.046
94410.481
94391.73
94372.76
94353.94
94335.893
94318.761
94302.411
94286.84
94272.001
94257.826
94244.252
94231.243
94218.771
94206.794
94195.266
94184.153
94173.442
94163.109
94153.124
94143.446
94134.066
94124.892
94116.068
94106.981
94098.972
94085.949
407.92103
219.87179
213.07159
212.04387
212.42826
212.82924
213.04778
213.16885
213.2545
213.32725
213.39429
213.45864
213.52201
213.5857
213.65065
213.71772
213.78735
213.86176
213.93408
214.04748
214.00089
214.7367
212.07528
257.79804
77736.662
71959.693
70688.872
70417.561
70136.88
69838.392
69571.579
69344.997
69151.313
68983.069
68834.867
68702.756
68582.152
68471.288
68368.893
68274.173
68186.388
68104.599
68028.065
67956.23
67888.468
67824.378
67763.595
67705.842
67650.854
67598.323
67548.134
67500.036
67453.79
67409.34
67366.523
67325.155
67285.193
67246.539
67209.031
67172.608
67137.248
67102.844
67069.289
67036.569
67004.588
66973.284
66942.638
66912.638
66883.264
66854.454
66826.159
66798.361
66771.037
66744.145
66717.653
66691.539
66665.778
66640.353
66615.236
66590.407
66565.851
66541.54
66517.456
66493.593
66469.931
66446.438
66423.106
66399.929
66376.892
66353.973
66331.151
66308.421
66285.781
66263.205
66240.662
66218.145
66195.662
66173.187
66150.677
66128.115
66105.527
66082.886
66060.154
66037.317
66014.386
65991.326
65968.089
65944.676
65921.081
65897.255
65873.167
65848.821
65824.174
65799.706
65776.226
65753.926
65732.636
65712.348
65693.003
65674.514
65656.8
65639.814
65623.523
65607.871
65592.798
65578.263
65564.246
65550.72
65537.644
65524.966
65512.672
65500.645
65489.073
65477.154
65466.642
65449.544
407.96811
218.29543
211.32573
210.24247
210.61466
211.01473
211.23508
211.35763
211.44416
211.51745
211.58486
211.64947
211.71299
211.77677
211.84173
211.90875
211.97826
212.05251
212.12455
212.23766
212.19087
212.92888
210.21506
252.55642
60919.884
55460.304
53678.55
53233.474
52893.201
52556.867
52258.382
52004.396
51786.966
51597.892
51431.116
51282.208
51146.278
51021.155
50905.379
50798.076
50698.444
50605.459
50518.305
50436.369
50358.962
50285.639
50215.999
50149.737
50086.56
50026.129
49968.313
49912.84
49859.44
49808.05
49758.492
49710.56
49664.204
49619.319
49575.72
49533.339
49492.152
49452.041
49412.884
49374.662
49337.286
49300.683
49264.817
49229.677
49195.239
49161.435
49128.206
49095.533
49063.39
49031.729
49000.515
48969.722
48939.32
48909.29
48879.6
48850.23
48821.158
48792.355
48763.799
48735.483
48707.385
48679.465
48651.717
48624.132
48596.693
48569.373
48542.15
48515.015
48487.968
48460.977
48434.004
48407.043
48380.102
48353.15
48326.135
48299.039
48271.889
48244.655
48217.29
48189.777
48162.129
48134.302
48106.24
48077.943
48049.401
48020.555
47991.368
47961.842
47931.926
47902.2
47873.649
47846.512
47820.595
47795.879
47772.295
47749.738
47728.113
47707.363
47687.447
47668.303
47649.857
47632.058
47614.885
47598.303
47582.267
47566.709
47551.617
47536.845
47522.625
47507.973
47495.043
47474.002
408.03314
216.4425
209.26069
208.11018
208.467
208.86573
209.08814
209.21243
209.29999
209.37391
209.44177
209.50666
209.57038
209.63425
209.69922
209.76618
209.83556
209.90961
209.98134
210.09407
210.04712
210.78712
208.01395
246.99726
49714.552
44991.292
42587.558
41912.538
41516.428
41161.398
40850.354
40585.509
40358.738
40161.564
39987.553
39832.028
39690.275
39559.678
39438.636
39326.244
39221.694
39123.954
39032.189
38945.774
38864.007
38786.433
38712.639
38642.319
38575.173
38510.853
38449.227
38390.018
38332.947
38277.949
38224.845
38173.42
38123.622
38075.346
38028.399
37982.711
37938.256
37894.916
37852.562
37811.17
37770.681
37731.01
37692.102
37653.939
37616.5
37579.714
37543.519
37507.892
37472.808
37438.219
37404.084
37370.376
37337.064
37304.13
37271.539
37239.268
37207.293
37175.586
37144.121
37112.893
37081.875
37051.027
37020.339
36989.805
36959.404
36929.108
36898.89
36868.743
36838.666
36808.624
36778.575
36748.51
36718.441
36688.33
36658.121
36627.793
36597.375
36566.835
36536.117
36505.204
36474.108
36442.78
36411.155
36379.233
36347.001
36314.392
36281.361
36247.911
36213.981
36180.23
36147.778
36116.905
36087.409
36059.253
36032.361
36006.618
35981.917
35958.196
35935.412
35913.493
35892.357
35871.949
35852.245
35833.206
35814.782
35796.897
35779.535
35762.532
35746.155
35729.27
35714.361
35690.081
408.12134
214.29691
206.85118
205.61953
205.95724
206.35407
206.57875
206.70503
206.79379
206.86846
206.93682
207.00205
207.06599
207.12996
207.19494
207.26182
207.33104
207.40487
207.47623
207.58852
207.54146
208.28312
205.44476
241.10687
41709.841
38040.153
34956.977
34006.306
33555.284
33196.895
32889.665
32628.615
32405.558
32212.055
32041.495
31889.108
31750.814
31623.448
31505.297
31395.452
31293.13
31197.353
31107.318
31022.42
30941.986
30865.574
30792.791
30723.34
30656.936
30593.244
30532.137
30473.355
30416.625
30361.886
30308.968
30257.663
30207.918
30159.638
30112.637
30066.839
30022.227
29978.687
29936.091
29894.413
29853.648
29813.704
29774.489
29735.982
29698.166
29660.972
29624.337
29588.24
29552.655
29517.538
29482.847
29448.554
29414.629
29381.055
29347.799
29314.835
29282.141
29249.688
29217.452
29185.426
29153.583
29121.882
29090.316
29058.877
29027.542
28996.283
28965.075
28933.909
28902.782
28871.66
28840.499
28809.29
28778.043
28746.721
28715.263
28683.649
28651.907
28620.001
28587.877
28555.513
28522.92
28490.046
28456.824
28423.25
28389.31
28354.931
28320.066
28284.714
28248.809
28213.047
28178.618
28145.833
28114.504
28084.565
28055.94
28028.51
28002.163
27976.839
27952.491
27929.046
27906.42
27884.555
27863.426
27842.995
27823.208
27803.985
27785.312
27767.011
27749.373
27731.168
27715.089
27688.875
408.2388
211.8451
204.07201
202.74271
203.05688
203.45097
203.67809
203.80661
203.89675
203.97226
204.04119
204.10682
204.17099
204.23508
204.30007
204.36685
204.43587
204.50944
204.58038
204.69214
204.64505
205.38781
202.4813
234.87626
35556.069
33160.661
29433.557
28179.647
27669.339
27314.202
27019.585
26770.742
26559.153
26376.519
26216.123
26073.153
25944.501
25826.275
25716.658
25614.734
25519.752
25430.816
25347.177
25268.263
25193.456
25122.342
25054.554
24989.817
24927.869
24868.4
24811.29
24756.308
24703.202
24651.909
24602.279
24554.121
24507.381
24461.978
24417.74
24374.594
24332.524
24291.432
24251.196
24211.786
24173.281
24135.577
24098.533
24062.121
24026.332
23991.103
23956.372
23922.117
23888.318
23854.936
23821.929
23789.27
23756.931
23724.9
23693.144
23661.636
23630.357
23599.281
23568.386
23537.662
23507.085
23476.616
23446.25
23415.977
23385.775
23355.617
23325.48
23295.354
23265.238
23235.095
23204.885
23174.6
23144.247
23113.789
23083.167
23052.364
23021.403
22990.249
22958.847
22927.177
22895.248
22863.007
22830.386
22797.383
22763.979
22730.103
22695.704
22660.781
22625.265
22589.845
22555.7
22523.16
22492.075
22462.337
22433.872
22406.566
22380.311
22355.049
22330.738
22307.307
22284.673
22262.782
22241.609
22221.118
22201.257
22181.946
22163.174
22144.76
22127.002
22108.649
22092.439
22065.972
408.39231
209.07765
200.89917
199.45241
199.73771
200.12793
200.35754
200.48854
200.58021
200.65668
200.72625
200.79229
200.85673
200.92094
200.98593
201.0526
201.12139
201.19464
201.2651
201.37624
201.32925
202.07213
199.10016
228.303
30484.016
29484.591
25254.725
23708.612
23130.837
22776.852
22495.77
22260.79
22062.474
21892.596
21744.303
21612.708
21495.907
21389.028
21290.145
21198.319
21112.817
21032.821
20957.639
20886.731
20819.537
20755.673
20694.799
20636.661
20581.019
20527.595
20476.272
20426.85
20379.101
20332.962
20288.303
20244.953
20202.858
20161.948
20122.075
20083.162
20045.199
20008.104
19971.765
19936.145
19901.435
19867.514
19834.174
19801.382
19769.132
19737.372
19706.042
19675.119
19644.59
19614.422
19584.575
19555.021
19525.736
19496.713
19467.924
19439.338
19410.937
19382.705
19354.619
19326.669
19298.83
19271.07
19243.386
19215.767
19188.191
19160.634
19133.077
19105.51
19077.928
19050.3
19022.59
18994.79
18966.904
18938.897
18910.717
18882.348
18853.808
18825.064
18796.066
18766.795
18737.256
18707.4
18677.163
18646.542
18615.518
18584.021
18552.005
18519.465
18486.335
18453.257
18421.333
18390.897
18361.865
18334.066
18307.43
18281.854
18257.239
18233.535
18210.702
18188.677
18167.384
18146.773
18126.823
18107.5
18088.757
18070.521
18052.78
18035.362
18018.558
18001.161
17985.804
17960.686
408.58909
205.99129
197.31097
195.7229
195.97289
196.35765
196.58964
196.72331
196.81667
196.89418
196.96442
197.03093
197.09564
197.15997
197.22494
197.29146
197.35997
197.43287
197.50279
197.61317
197.56651
198.30786
195.28316
221.39089
26063.145
26473.593
21966.825
20173.862
19524.444
19167.666
18899.022
18677.804
18492.856
18335.909
18199.987
18080.11
17974.439
17878.303
17789.692
17707.623
17631.355
17560.131
17493.304
17430.361
17370.788
17314.227
17260.36
17208.949
17159.773
17112.579
17067.253
17023.622
16981.484
16940.769
16901.368
16863.128
16825.993
16789.905
16754.736
16720.411
16686.917
16654.192
16622.132
16590.695
16560.214
16530.534
16501.367
16472.67
16444.441
16416.64
16389.209
16362.125
16335.377
16308.942
16282.783
16256.869
16231.182
16205.719
16180.453
16155.356
16130.41
16105.604
16080.92
16056.345
16031.855
16007.425
15983.054
15958.73
15934.43
15910.136
15885.831
15861.508
15837.159
15812.755
15788.267
15763.69
15739.022
15714.232
15689.276
15664.141
15638.841
15613.343
15587.604
15561.609
15535.359
15508.808
15481.902
15454.635
15426.988
15398.9
15370.329
15341.265
15311.651
15282.059
15253.476
15226.232
15200.333
15175.518
15151.724
15128.859
15106.84
15085.621
15065.168
15045.426
15026.328
15007.831
14989.916
14972.554
14955.703
14939.298
14923.329
14907.641
14892.501
14876.797
14862.95
14840.257
408.83635
202.5912
193.28947
191.53128
191.73802
192.11513
192.34917
192.48561
192.58076
192.65936
192.73033
192.7973
192.86229
192.92673
192.99165
193.05798
193.12616
193.19862
193.26794
193.37743
193.33139
194.06863
191.02053
214.1452
22067.041
23790.268
19293.12
17315.315
16595.182
16231.699
15973.899
15765.915
15593.933
15449.493
15325.541
15217.033
15121.316
15034.81
14955.483
14882.295
14814.481
14751.321
14692.208
14636.648
14584.167
14534.429
14487.134
14442.054
14398.982
14357.689
14318.062
14279.951
14243.175
14207.661
14173.315
14140.003
14107.665
14076.253
14045.659
14015.806
13986.682
13958.239
13930.385
13903.072
13876.618
13850.897
13825.633
13800.776
13776.328
13752.257
13728.509
13705.059
13681.902
13659.018
13636.375
13613.941
13591.702
13569.658
13547.786
13526.056
13504.454
13482.971
13461.595
13440.309
13419.092
13397.924
13376.806
13355.726
13334.662
13313.597
13292.521
13271.425
13250.301
13229.124
13207.87
13186.535
13165.115
13143.582
13121.899
13100.059
13078.068
13055.897
13033.511
13010.896
12988.05
12964.933
12941.5
12917.744
12893.647
12869.154
12844.23
12818.864
12793.005
12767.154
12742.171
12718.388
12695.918
12674.382
12653.723
12633.862
12614.728
12596.282
12578.495
12561.319
12544.697
12528.591
12512.987
12497.858
12483.169
12468.863
12454.933
12441.238
12428.024
12414.289
12402.198
12382.34
409.14043
198.89397
188.82213
186.85889
187.01256
187.379
187.61441
187.75357
187.85055
187.93027
188.00194
188.06936
188.1346
188.19911
188.26394
188.33002
188.39781
188.46976
188.53841
188.64682
188.60187
189.33101
186.31524
206.56672
18390.98
21222.221
17062.572
14973.635
14186.115
13810.496
13560.023
13363.102
13202.284
13068.662
12955.108
12856.519
12769.674
12691.742
12620.724
12555.525
12495.339
12439.47
12387.343
12338.484
12292.451
12248.933
12207.639
12168.349
12130.87
12094.992
12060.604
12027.573
11995.741
11965.03
11935.358
11906.609
11878.721
11851.651
11825.311
11799.626
11774.58
11750.137
11726.218
11702.77
11679.983
11657.797
11636.023
11614.607
11593.549
11572.828
11552.394
11532.219
11512.3
11492.625
11473.164
11453.885
11434.775
11415.838
11397.055
11378.395
11359.845
11341.402
11323.054
11304.785
11286.576
11268.41
11250.29
11232.204
11214.131
11196.057
11177.976
11159.879
11141.757
11123.588
11105.354
11087.052
11068.676
11050.202
11031.599
11012.866
10994.001
10974.98
10955.774
10936.371
10916.768
10896.93
10876.819
10856.429
10835.743
10814.714
10793.312
10771.527
10749.314
10727.105
10705.636
10685.203
10665.928
10647.455
10629.729
10612.686
10596.262
10580.427
10565.154
10550.402
10536.124
10522.287
10508.878
10495.874
10483.246
10470.943
10458.963
10447.179
10435.812
10423.968
10413.568
10396.444
409.5057
194.93092
183.90375
181.69304
181.78136
182.13297
182.36855
182.51018
182.60893
182.68969
182.762
182.82981
182.89524
182.95975
183.02441
183.09017
183.15746
183.22881
183.29671
183.40382
183.3606
184.07606
181.16026
198.67102
14995.93
18663.406
15158.349
13043.341
12195.133
11801.884
11554.38
11365.656
11213.701
11088.796
10983.693
10893.219
10813.773
10743.005
10678.976
10620.535
10566.822
10517.145
10470.961
10427.809
10387.279
10349.078
10312.921
10278.592
10245.909
10214.679
10184.791
10156.127
10128.547
10101.971
10076.326
10051.512
10027.465
10004.146
9981.4824
9959.4031
9937.8871
9916.9095
9896.4016
9876.31
9856.7374
9837.6655
9818.968
9800.5874
9782.5235
9764.7616
9747.2574
9729.9818
9712.9326
9696.1024
9679.4637
9662.9871
9646.6596
9630.4869
9614.4542
9598.5318
9582.7063
9566.9773
9551.3364
9535.7675
9520.252
9504.7772
9489.3464
9473.9504
9458.5676
9443.1864
9427.8027
9412.4102
9396.9985
9381.5496
9366.0487
9350.494
9334.8791
9319.1821
9303.3807
9287.4763
9271.4633
9255.3191
9239.0206
9222.5581
9205.9271
9189.0987
9172.0412
9154.7495
9137.2082
9119.3778
9101.2327
9082.7631
9063.9327
9045.1069
9026.9091
9009.571
8993.1505
8977.4158
8962.3177
8947.8
8933.811
8920.3226
8907.3126
8894.7458
8882.5821
8870.7941
8859.3701
8848.2906
8837.5296
8827.0455
8816.8362
8806.7893
8797.1031
8786.9874
8778.1283
8763.4997
409.93277
190.75209
178.53861
176.02904
176.03641
176.36748
176.60136
176.74488
176.84512
176.92674
176.99953
177.06759
177.13309
177.19749
177.26187
177.3272
177.39389
177.4645
177.53156
177.63708
177.59648
178.29091
175.54287
190.47938
11878.44
16104.402
13493.824
11445.873
10548.512
10133.417
9884.4592
9700.9356
9555.5418
9437.3064
9338.7687
9254.6632
9181.1303
9116.1245
9057.7808
9004.8724
8956.4737
8911.8878
8870.5925
8832.1398
8796.1537
8762.3515
8730.4448
8700.2199
8671.5055
8644.1222
8617.9607
8592.912
8568.8518
8545.7014
8523.3921
8501.8368
8480.9733
8460.7633
8441.1469
8422.0581
8403.4714
8385.368
8367.6909
8350.3871
8333.5045
8317.0473
8300.9316
8285.1009
8269.5521
8254.2759
8239.2341
8224.397
8209.7616
8195.3242
8181.0613
8166.9448
8152.9619
8139.1187
8125.4041
8111.7907
8098.2649
8084.8274
8071.4724
8058.1848
8044.9475
8031.7496
8018.5951
8005.476
7992.3725
7979.2743
7966.1788
7953.0813
7939.9713
7926.8333
7913.6559
7900.4381
7887.1731
7873.8417
7860.4305
7846.9429
7833.3679
7819.6851
7805.8761
7791.933
7777.8508
7763.6052
7749.1703
7734.5415
7719.7052
7704.6285
7689.2899
7673.6806
7657.7703
7641.8687
7626.5004
7611.8489
7597.9327
7584.6023
7571.8131
7559.5173
7547.6712
7536.2506
7525.236
7514.5977
7504.3017
7494.3249
7484.6568
7475.2806
7466.1744
7457.3027
7448.6647
7440.1615
7431.9687
7423.3956
7415.9099
7403.503
410.41614
186.43065
172.74287
169.87246
169.77886
170.0816
170.31091
170.45524
170.55644
170.63855
170.71153
170.77959
170.84495
170.90906
170.97301
171.03773
171.10366
171.17339
171.23948
171.34306
171.30625
171.97052
169.45544
182.00047
9055.1705
13596.549
12001.759
10116.083
9187.5896
8748.8378
8494.408
8313.2193
8172.2899
8058.9244
7965.3094
7886.0582
7817.1539
7756.7253
7702.979
7654.5727
7610.5107
7570.0807
7532.7764
7498.1603
7465.8995
7435.7095
7407.2894
7380.4277
7354.9627
7330.7259
7307.6111
7285.5157
7264.3286
7243.9728
7224.3832
7205.4831
7187.213
7169.5341
7152.3967
7135.7408
7119.5367
7103.7694
7088.3921
7073.3543
7058.6695
7044.3516
7030.346
7016.6
7003.1067
6989.8606
6976.8297
6963.9847
6951.3212
6938.8372
6926.5136
6914.3246
6902.2568
6890.3155
6878.4931
6866.7652
6855.1178
6843.5518
6832.0633
6820.639
6809.263
6797.9257
6786.6308
6775.3721
6764.1318
6752.9001
6741.6756
6730.4543
6719.2269
6707.98
6696.7038
6685.398
6674.0561
6662.6617
6651.2114
6639.7096
6628.1388
6616.4803
6604.7191
6592.8489
6580.8648
6568.7462
6556.4717
6544.0373
6531.4311
6518.6257
6505.6031
6492.3552
6478.8572
6465.3721
6452.3435
6439.9186
6428.0941
6416.772
6405.9125
6395.4747
6385.4213
6375.7312
6366.3874
6357.3645
6348.6338
6340.1755
6331.9802
6324.0332
6316.3162
6308.7991
6301.4813
6294.2769
6287.3398
6280.0703
6273.7424
6263.2055
410.94096
182.06777
166.54704
163.24184
163.02122
163.28493
163.50547
163.64884
163.75006
163.832
163.90466
163.97234
164.03723
164.10077
164.16402
164.22793
164.29289
164.36151
164.4265
164.52769
164.49613
165.11959
162.89764
173.2134
6492.2279
11243.092
10626.446
8995.9166
8062.8948
7601.8353
7338.617
7157.1272
7018.7977
6908.7707
6818.7089
6743.0649
6677.7875
6621.0423
6571.0922
6526.4161
6485.9523
6448.9698
6414.9717
6383.5296
6354.364
6327.175
6301.6444
6277.5639
6254.7808
6233.136
6212.5275
6192.8572
6174.0244
6155.956
6138.5893
6121.8558
6105.6997
6090.082
6074.9597
6060.2797
6046.0099
6032.136
6018.6204
6005.4166
5992.5173
5979.9377
5967.6431
5955.5869
5943.7588
5932.155
5920.7495
5909.515
5898.4446
5887.5372
5876.7777
5866.1431
5855.6196
5845.2107
5834.9116
5824.7015
5814.5665
5804.5063
5794.5184
5784.5919
5774.7124
5764.8706
5755.0694
5745.3044
5735.5602
5725.8275
5716.1047
5706.3888
5696.6719
5686.9422
5677.1912
5667.418
5657.6178
5647.7763
5637.9019
5627.9983
5618.0402
5608.011
5597.8979
5587.6956
5577.3996
5566.9927
5556.4567
5545.7878
5534.9761
5523.9985
5512.8395
5501.492
5489.9355
5478.3954
5467.2501
5456.6203
5446.49
5436.7942
5427.4976
5418.5648
5409.9637
5401.6757
5393.6857
5385.972
5378.5102
5371.2829
5364.2817
5357.4939
5350.904
5344.4859
5338.2398
5332.0905
5326.1727
5319.9676
5314.5822
5305.5638
411.47871
177.79707
159.99838
156.17183
155.78966
155.9998
156.20551
156.34516
156.44484
156.52555
156.59711
156.66376
156.72767
156.79022
156.85242
156.91517
156.97887
157.04611
157.10981
157.20805
157.18348
157.75448
155.87866
164.03679
4464.5651
9113.1969
9335.9483
8033.0147
7131.6567
6653.162
6378.8249
6194.685
6057.2835
5949.2839
5861.6384
5788.5929
5726.2304
5672.5593
5625.86
5584.3711
5546.9811
5512.942
5481.7591
5453.0125
5426.4668
5401.8055
5378.7009
5356.9509
5336.4102
5316.9283
5298.4077
5280.7542
5263.8748
5247.7014
5232.1734
5217.2285
5202.8154
5188.8952
5175.4289
5162.3708
5149.6876
5137.3643
5125.3702
5113.6649
5102.2288
5091.0728
5080.1764
5069.4999
5059.0304
5048.7642
5038.6811
5028.7565
5018.9811
5009.3533
4999.862
4990.4873
4981.2152
4972.0467
4962.9791
4953.9957
4945.0828
4936.2385
4927.461
4918.7419
4910.0686
4901.4318
4892.8329
4884.2693
4875.7283
4867.2007
4858.6843
4850.177
4841.6724
4833.1602
4824.6322
4816.0872
4807.5219
4798.9242
4790.3117
4781.6859
4773.0168
4764.2895
4755.4927
4746.6216
4737.6726
4728.631
4719.4811
4710.2193
4700.8372
4691.3153
4681.6399
4671.8049
4661.793
4651.7997
4642.1519
4632.9501
4624.1717
4615.7724
4607.7216
4599.9883
4592.5444
4585.3734
4578.4618
4571.791
4565.3398
4559.0927
4553.0423
4547.1775
4541.485
4535.9423
4530.5495
4525.2415
4520.1351
4514.7835
4510.1514
4502.3417
412.0051
173.76017
153.16283
148.7169
148.12646
148.26329
148.44567
148.57742
148.67314
148.75097
148.82017
148.88484
148.947
149.00793
149.06854
149.12968
149.1917
149.25717
149.31934
149.41392
149.39825
149.90504
148.41772
154.44492
2925.8425
7307.2493
8135.0592
7191.9649
6359.0244
5869.6304
5582.8218
5393.9613
5255.9357
5148.7983
5062.6016
4991.3333
4931.4035
4880.3919
4836.4967
4797.7446
4762.9999
4731.4984
4702.7392
4676.3101
4651.9386
4629.3407
4608.221
4588.3833
4569.6867
4551.987
4535.1901
4519.2035
4503.9404
4489.337
4475.3337
4461.8729
4448.9075
4436.398
4424.3084
4412.5992
4401.2365
4390.204
4379.4768
4369.0195
4358.8047
4348.8389
4339.1107
4329.5874
4320.2535
4311.1055
4302.1277
4293.298
4284.6052
4276.0473
4267.6158
4259.2943
4251.0681
4242.9365
4234.8979
4226.9395
4219.0478
4211.2193
4203.4527
4195.742
4188.0759
4180.4451
4172.8498
4165.2887
4157.7517
4150.2295
4142.7194
4135.2197
4127.7257
4120.2282
4112.7192
4105.1973
4097.6605
4090.0983
4082.5201
4074.9276
4067.2998
4059.624
4051.8896
4044.092
4036.2286
4028.2869
4020.2527
4012.1224
4003.8896
3995.5371
3987.0527
3978.4311
3969.6578
3960.9037
3952.4548
3944.3967
3936.703
3929.3429
3922.29
3915.5172
3908.9995