/*--------------------------------*- C++ -*----------------------------------*\
  =========                 |
  \\      /  F ield         | OpenFOAM: The Open Source CFD Toolbox
   \\    /   O peration     | Website:  https://openfoam.org
    \\  /    A nd           | Version:  12
     \\/     M anipulation  |
\*---------------------------------------------------------------------------*/
FoamFile
{
    format      ascii;
    class       volScalarField;
    location    "400";
    object      omega;
}
// * * * * * * * * * * * * * * * * * * * * * * * * * * * * * * * * * * * * * //

dimensions      [0 0 -1 0 0 0 0];

internalField   nonuniform List<scalar> 
7480
(
99.668428
99.668428
99.668428
99.668428
99.668428
99.668428
99.668428
99.668428
99.668428
99.668428
99.668428
99.668428
99.668428
425.2944
681.48729
848.49511
946.6521
996.87668
1022.6847
1021.7714
1016.2981
1006.0736
993.36563
979.77152
965.82952
951.8131
937.98652
924.726
912.4223
900.93475
890.2777
880.51818
871.70065
863.82357
856.84048
850.67653
845.23366
840.41698
836.16326
832.4252
829.13574
826.21288
823.58354
821.17404
818.95323
816.8246
814.76896
812.75341
810.74541
808.72345
806.66395
804.53863
802.32882
800.03329
797.66458
795.24015
792.77698
790.29253
787.80248
785.31717
782.84166
780.37852
777.93122
775.50561
773.10749
770.74007
768.40648
766.10913
763.84581
761.61059
759.39911
757.21092
755.04727
752.90889
750.79765
748.71565
746.66105
744.6295
742.61829
740.6276
738.65844
736.71257
734.79141
732.89287
731.0134
729.15203
727.3088
725.48505
723.68219
721.89827
720.13041
718.37778
716.64104
714.91931
713.21468
711.51077
709.84125
708.0725
706.57251
703.82363
24.732414
24.776308
24.841272
24.914034
24.991195
25.072042
25.155864
25.242796
25.331967
25.430429
25.507703
25.725018
25.342891
27.822887
39.123917
67.556127
115.73419
179.21646
251.79611
316.40564
363.32384
394.6537
415.38775
429.63979
438.47115
441.22937
439.26022
434.18064
429.51017
428.27852
429.78454
432.53806
435.22269
436.95723
437.2851
436.07993
433.45268
429.68673
425.25563
420.40309
414.93219
408.89218
402.60436
396.27435
390.01283
383.91459
378.05903
372.50234
367.26836
362.34979
357.79842
353.60494
349.74746
346.20389
342.95067
339.95655
337.18779
334.60983
332.17489
329.86014
327.65753
325.56121
323.56063
321.64484
319.80635
318.0388
316.33647
314.68832
313.08372
311.51926
309.99618
308.51629
307.08019
305.68654
304.33361
303.01764
301.73351
300.47804
299.2513
298.05438
296.88745
295.74998
294.63932
293.55252
292.48747
291.4443
290.42377
289.42572
288.44848
287.49012
286.54912
285.62547
284.71985
283.83094
282.95835
282.09749
281.25821
280.4102
279.66861
278.41052
24.644412
24.494732
24.343712
24.190665
24.035412
23.877928
23.718226
23.556333
23.392273
23.226113
23.057798
22.887729
22.715357
22.541038
22.399329
22.580915
23.532789
25.981377
30.68241
38.815115
51.009014
66.878874
85.729019
106.56462
129.10384
149.55305
167.06157
181.92318
195.04141
207.98175
222.62067
236.94219
248.841
258.15343
265.05891
269.69589
272.07411
272.01702
269.61532
265.64711
261.66508
258.21181
254.97056
251.70676
248.36089
245.07781
241.68732
238.12415
234.46307
230.76435
227.10155
223.57645
220.24572
217.12519
214.20243
211.45521
208.86901
206.43574
204.17299
202.07057
200.11036
198.27289
196.53985
194.89886
193.34181
191.86086
190.44733
189.0876
187.77408
186.50754
185.28909
184.11714
182.98905
181.90224
180.85479
179.84147
178.8566
177.89887
176.96938
176.06879
175.19647
174.35174
173.53114
172.73125
171.95094
171.19077
170.45126
169.73252
169.03234
168.34839
167.67978
167.02673
166.38988
165.76822
165.16051
164.56432
163.98472
163.40363
162.91191
162.04531
24.63884
24.480181
24.318947
24.155008
23.988377
23.819068
23.647097
23.472484
23.295249
23.115418
22.933018
22.748096
22.560682
22.370997
22.178867
21.985935
21.792663
21.606798
21.449447
21.368221
21.425596
21.687202
22.213459
23.093775
24.349354
26.455966
29.584556
33.852265
39.384083
46.335758
55.041446
65.756993
78.954441
93.19885
108.04228
123.31853
138.98613
155.03744
168.27698
177.74876
184.10229
188.10292
190.18689
190.61803
189.64002
187.50066
185.1156
182.77209
180.39948
177.87596
175.21134
172.56923
169.84597
167.09524
164.35551
161.65394
159.03192
156.51791
154.13913
151.90232
149.79599
147.80868
145.93526
144.17232
142.51006
140.93556
139.43447
138.00802
136.65749
135.37768
134.16092
132.9998
131.88935
130.82622
129.80703
128.8257
127.87872
126.96653
126.0893
125.24564
124.43345
123.65125
122.8947
122.16093
121.44977
120.76173
120.09656
119.45382
118.83048
118.22431
117.63496
117.0627
116.50786
115.96903
115.44461
114.93293
114.43807
113.94438
113.53623
112.80682
24.638423
24.4792
24.317419
24.152936
23.985719
23.815768
23.643089
23.467694
23.289597
23.108815
22.925365
22.739269
22.550551
22.359183
22.165348
21.968001
21.767477
21.564598
21.361384
21.156895
20.951671
20.747057
20.542713
20.340375
20.142593
19.955025
19.785432
19.647564
19.558391
19.540277
19.623916
19.8605
20.295938
21.241644
22.902147
25.505145
29.356638
34.918633
42.638566
53.29676
66.523043
81.077383
96.479276
112.76382
126.26144
135.77403
141.8603
145.29708
146.76613
146.80581
145.80501
144.23932
142.53057
140.69444
138.67981
136.51445
134.35026
132.13366
129.89066
127.65019
125.44747
123.32131
121.30009
119.38267
117.55284
115.80071
114.12414
112.53198
111.02932
109.61002
108.2632
106.98229
105.7637
104.60322
103.49367
102.43512
101.42872
100.47071
99.556511
98.681903
97.84378
97.039641
96.265722
95.520771
94.804677
94.116607
93.455018
92.818554
92.203742
91.609087
91.034549
90.479974
89.94503
89.427701
88.926401
88.439861
87.972081
87.506742
87.128016
86.44866
24.638389
24.479104
24.317256
24.152706
23.985424
23.815409
23.64267
23.467219
23.289071
23.108244
22.924759
22.738641
22.549921
22.358633
22.164829
21.968543
21.769813
21.56866
21.36509
21.158942
20.949755
20.736896
20.521806
20.304986
20.086839
19.867738
19.648916
19.429326
19.209053
18.988503
18.768973
18.549694
18.331207
18.115719
17.907782
17.715172
17.553675
17.449046
17.451901
17.612637
18.157137
19.425979
21.759477
25.704218
31.889404
41.44122
54.216057
68.571497
84.083279
97.786197
107.81504
114.1376
117.60497
119.0229
119.0995
118.31526
117.11856
115.74536
114.22093
112.53951
110.76941
108.98363
107.17427
105.34475
103.50995
101.70629
99.96643
98.295025
96.684231
95.132181
93.643762
92.22475
90.873813
89.584939
88.351294
87.174698
86.058938
85.000678
83.993578
83.032953
82.115932
81.238294
80.402092
79.606024
78.846749
78.120923
77.42578
76.758979
76.118117
75.502588
74.91175
74.344406
73.79928
73.273998
72.767405
72.278407
71.810818
71.34678
70.972033
70.302652
24.638395
24.479102
24.317245
24.152683
23.98539
23.815363
23.642611
23.467147
23.288985
23.108144
22.924645
22.738512
22.549777
22.358486
22.164688
21.96844
21.769799
21.568824
21.365562
21.160059
20.952353
20.742453
20.530393
20.316223
20.099996
19.881752
19.661541
19.43934
19.215025
18.988496
18.759018
18.528117
18.29629
18.063869
17.831203
17.59921
17.368037
17.137169
16.907168
16.679716
16.454632
16.235415
16.031775
15.862673
15.78224
15.856753
16.348837
17.675387
20.362001
25.07356
33.029655
44.607151
57.935919
72.383774
84.040859
92.077072
96.78584
99.005618
99.638486
99.338948
98.511765
97.470678
96.255975
94.919032
93.492839
92.062571
90.603839
89.108919
87.580512
86.051207
84.556769
83.10856
81.70213
80.336452
79.018586
77.752727
76.539199
75.37715
74.265918
73.205156
72.19321
71.225417
70.303105
69.427151
68.594423
67.800559
67.042522
66.316979
65.626449
64.968721
64.340823
63.740226
63.164692
62.612406
62.082922
61.574668
61.090834
60.611778
60.225902
59.543089
24.63841
24.479116
24.317259
24.152697
23.985401
23.815373
23.642619
23.467152
23.288989
23.108147
22.924648
22.738516
22.549785
22.358496
22.164699
21.968448
21.769798
21.568806
21.36553
21.160025
20.952349
20.742567
20.530739
20.316929
20.101198
19.883611
19.664228
19.443114
19.220332
18.995948
18.769997
18.542549
18.313689
18.083512
17.8521
17.619528
17.385823
17.150881
16.914458
16.675686
16.436428
16.197454
15.959584
15.724379
15.490649
15.259464
15.032698
14.814123
14.615927
14.480079
14.478905
14.855856
16.067617
18.735985
23.531496
32.371664
43.662603
56.593733
68.193996
76.599212
81.73044
84.230429
84.990647
84.844924
84.228168
83.413081
82.44014
81.355785
80.193259
79.017471
77.805207
76.549397
75.258775
73.96274
72.690501
71.442718
70.214293
69.011802
67.846444
66.723316
65.642293
64.602546
63.603961
62.648933
61.737063
60.866455
60.035769
59.241811
58.485954
57.76746
57.083489
56.430997
55.806987
55.212323
54.646495
54.105983
53.593028
53.086366
52.678442
51.965527
24.638427
24.479136
24.31728
24.152719
23.985424
23.815396
23.642642
23.467176
23.289014
23.108173
22.924675
22.738547
22.549819
22.358534
22.164742
21.968496
21.769851
21.568863
21.365587
21.160079
20.952396
20.742595
20.53074
20.316895
20.10113
19.883516
19.664128
19.443042
19.220338
18.9961
18.770417
18.543375
18.315059
18.085555
17.854951
17.623331
17.39078
17.157384
16.923225
16.688343
16.452819
16.216745
15.980194
15.743221
15.505659
15.266778
15.026452
14.786665
14.549565
14.315815
14.084647
13.859281
13.642911
13.447571
13.331565
13.372099
13.988123
15.718307
19.191601
26.003032
35.923947
47.649244
58.466133
66.25775
70.928285
73.087075
73.676859
73.511931
72.988995
72.309794
71.485057
70.563221
69.585765
68.592234
67.566016
66.495689
65.392692
64.283012
63.181232
62.089113
61.01124
59.958073
58.933523
57.938804
56.976269
56.049626
55.160806
54.308454
53.490764
52.709545
51.964459
51.253644
50.574719
49.928129
49.313644
48.728069
48.173345
47.627189
47.187998
46.430887
24.638446
24.479157
24.317303
24.152744
23.98545
23.815423
23.642671
23.467206
23.289045
23.108206
22.924712
22.738587
22.549865
22.358587
22.164801
21.968561
21.76992
21.568935
21.36566
21.160152
20.952467
20.742663
20.530804
20.316952
20.101177
19.88355
19.664145
19.443038
19.220309
18.99604
18.770318
18.54323
18.314867
18.085321
17.854687
17.623061
17.390542
17.157231
16.92323
16.688649
16.453591
16.218156
15.982439
15.746527
15.51051
15.274451
15.038386
14.80237
14.566498
14.330674
14.094644
13.856465
13.619016
13.385411
13.15573
12.929595
12.71119
12.505614
12.347525
12.307324
12.709637
14.093307
17.074091
23.369748
32.597076
43.63113
53.078894
59.511612
63.026144
64.459466
64.697637
64.424304
63.919841
63.299837
62.561417
61.759621
60.930161
60.073617
59.173854
58.233496
57.273656
56.313635
55.353898
54.394944
53.44641
52.517379
51.611602
50.731597
49.878448
49.055055
48.263068
47.503483
46.776442
46.080591
45.416006
44.781746
44.180782
43.590652
43.112634
42.297387
24.638466
24.47918
24.317328
24.152771
23.985479
23.815454
23.642703
23.46724
23.289081
23.108244
22.924753
22.738633
22.549917
22.358646
22.164867
21.968633
21.769998
21.569017
21.365744
21.160237
20.952552
20.742748
20.530887
20.317034
20.101257
19.883627
19.664219
19.443108
19.220374
18.9961
18.77037
18.543272
18.314896
18.085332
17.854677
17.623026
17.390478
17.157134
16.923096
16.688468
16.453356
16.217866
15.982106
15.746183
15.510207
15.274288
15.03854
14.803068
14.567964
14.333303
14.099174
13.865565
13.632496
13.400079
13.168163
12.936125
12.702658
12.471264
12.245558
12.023089
11.808862
11.605193
11.441804
11.387635
11.791278
13.227073
16.360175
23.266024
32.486744
42.388896
50.003689
54.645817
56.742746
57.37089
57.278183
56.903833
56.406037
55.816083
55.15293
54.450034
53.72678
52.965627
52.162703
51.331649
50.49077
49.642548
48.788917
47.94009
47.102822
46.279922
45.475075
44.693428
43.938312
43.209222
42.5071
41.832921
41.191517
40.561158
40.045536
39.168022
24.638488
24.479204
24.317355
24.1528
23.98551
23.815486
23.642737
23.467276
23.289119
23.108285
22.924798
22.738683
22.549973
22.358709
22.164937
21.96871
21.77008
21.569103
21.365834
21.160328
20.952643
20.742838
20.530975
20.31712
20.101341
19.883708
19.664297
19.443183
19.220446
18.996169
18.770436
18.543335
18.314955
18.085389
17.85473
17.623076
17.390525
17.157176
16.923132
16.688496
16.453373
16.217868
15.982089
15.746142
15.510136
15.274178
15.038378
14.802846
14.567688
14.333014
14.09893
13.865552
13.632983
13.401306
13.170587
12.940889
12.712169
12.484472
12.257737
12.031971
11.80407
11.578014
11.358437
11.142276
10.935229
10.739165
10.593383
10.582706
11.213287
12.999779
17.294274
24.869611
34.503911
42.57395
47.865326
50.311712
51.200368
51.258451
50.980817
50.567993
50.078752
49.515548
48.915531
48.29747
47.643797
46.947672
46.21988
45.478932
44.72741
43.966075
43.203596
42.447675
41.702763
40.971736
40.258319
39.564976
38.898744
38.239438
37.696502
36.765829
24.638512
24.47923
24.317383
24.15283
23.985542
23.81552
23.642773
23.467314
23.289159
23.108329
22.924845
22.738736
22.550033
22.358776
22.165012
21.968791
21.770167
21.569195
21.365928
21.160423
20.952739
20.742933
20.531069
20.317212
20.10143
19.883795
19.66438
19.443263
19.220523
18.996242
18.770506
18.543401
18.315019
18.085449
17.854788
17.623131
17.390577
17.157226
16.92318
16.688543
16.453418
16.217912
15.982131
15.746182
15.510173
15.274212
15.038406
14.802863
14.567691
14.332995
14.098882
13.865459
13.632829
13.401097
13.170365
12.940734
12.712312
12.485191
12.259418
12.03508
11.812087
11.590453
11.370135
11.151267
10.930241
10.711812
10.499962
10.292434
10.094449
9.9164787
9.8047867
10.025038
11.160478
14.008556
20.376395
29.049317
37.050531
42.500107
45.072061
46.051336
46.170736
45.935525
45.573485
45.150075
44.661256
44.141641
43.602496
43.031888
42.421842
41.780883
41.124105
40.452749
39.770036
39.084244
38.401119
37.72363
37.061497
36.396214
35.844083
34.881629
24.638536
24.479257
24.317413
24.152862
23.985576
23.815556
23.642811
23.467354
23.289202
23.108375
22.924896
22.738792
22.550096
22.358846
22.16509
21.968876
21.770258
21.56929
21.366026
21.160523
20.952839
20.743033
20.531167
20.317308
20.101524
19.883886
19.664468
19.443348
19.220604
18.99632
18.77058
18.543472
18.315085
18.085513
17.854848
17.623188
17.390631
17.157277
16.923229
16.688589
16.453462
16.217954
15.982172
15.746221
15.510211
15.274249
15.038442
14.802899
14.567726
14.333029
14.098915
13.865488
13.63285
13.401105
13.170353
12.940693
12.712223
12.485039
12.259236
12.034903
11.812145
11.591049
11.371645
11.15402
10.938044
10.723725
10.511015
10.299621
10.086721
9.8782287
9.6752264
9.479986
9.2967399
9.1539807
9.1945638
9.9886381
12.151527
17.741058
25.73836
33.345022
38.512613
40.863812
41.726557
41.81557
41.589256
41.257838
40.877439
40.447066
39.991302
39.517364
39.013311
38.470676
37.899393
37.310686
36.705864
36.088637
35.471582
34.835772
34.302594
33.345042
24.638563
24.479286
24.317444
24.152895
23.985612
23.815594
23.642851
23.467396
23.289248
23.108424
22.924949
22.738851
22.550162
22.35892
22.165171
21.968965
21.770353
21.569389
21.366128
21.160627
20.952943
20.743136
20.53127
20.317409
20.101622
19.883981
19.66456
19.443437
19.22069
18.996402
18.770658
18.543546
18.315156
18.08558
17.854912
17.623249
17.390689
17.157332
16.923281
16.688639
16.453509
16.217999
15.982214
15.746262
15.51025
15.274287
15.038478
14.802934
14.567759
14.333061
14.098946
13.865518
13.632881
13.401135
13.170382
12.94072
12.712246
12.485053
12.259234
12.03488
11.812078
11.590917
11.371481
11.153847
10.938111
10.724347
10.512575
10.302842
10.095023
9.8890215
9.6851725
9.4804503
9.2771262
9.0807136
8.8897123
8.7093216
8.5585382
8.5324897
9.1780942
11.119602
16.37041
24.032033
31.03367
35.507787
37.410835
38.034965
38.041976
37.809914
37.499535
37.153097
36.768594
36.36417
35.942561
35.4877
34.997477
34.482055
33.952702
33.386506
32.907393
32.004981
24.638591
24.479316
24.317477
24.15293
23.985649
23.815633
23.642893
23.467441
23.289296
23.108476
22.925006
22.738913
22.550231
22.358997
22.165256
21.969056
21.770451
21.569491
21.366234
21.160734
20.953051
20.743244
20.531376
20.317513
20.101724
19.884081
19.664657
19.44353
19.220779
18.996487
18.77074
18.543624
18.315231
18.085651
17.854979
17.623313
17.39075
17.15739
16.923336
16.688691
16.453559
16.218047
15.98226
15.746306
15.510292
15.274326
15.038517
14.80297
14.567794
14.333095
14.098978
13.865549
13.63291
13.401164
13.17041
12.940747
12.712272
12.485079
12.25926
12.034904
11.812099
11.59093
11.371479
11.153824
10.938045
10.724216
10.512412
10.302698
10.095162
9.889838
9.6867781
9.4858837
9.2870287
9.090319
8.8948516
8.6983273
8.5097461
8.3227288
8.1594421
7.9683853
7.9693062
8.6138596
10.673915
15.972492
23.547983
29.723497
33.088398
34.445084
34.808035
34.73289
34.498492
34.208465
33.890218
33.541922
33.176187
32.791909
32.379072
31.91514
31.523206
30.728765
24.638621
24.479349
24.317511
24.152967
23.985689
23.815675
23.642938
23.467489
23.289346
23.108531
22.925065
22.738979
22.550303
22.359077
22.165343
21.969151
21.770551
21.569597
21.366343
21.160845
20.953162
20.743355
20.531486
20.317622
20.10183
19.884184
19.664757
19.443626
19.220872
18.996577
18.770826
18.543706
18.315309
18.085725
17.85505
17.62338
17.390814
17.157451
16.923394
16.688746
16.453612
16.218097
15.982308
15.746352
15.510336
15.274369
15.038557
14.803009
14.567831
14.333131
14.099013
13.865582
13.632941
13.401194
13.170438
12.940774
12.712298
12.485104
12.259284
12.034927
11.812122
11.590952
11.371501
11.153845
10.938063
10.724226
10.512406
10.302669
10.095082
9.8897084
9.6866046
9.4858415
9.2874764
9.0915146
8.8979633
8.7066143
8.5174852
8.3305466
8.1408386
7.9588752
7.7815071
7.6165673
7.4715085
7.5077987
8.2579218
10.841227
16.581829
23.552807
28.644509
30.984066
31.859481
31.982238
31.827817
31.582005
31.304405
31.006375
30.692913
30.346023
30.059859
29.414899
24.638652
24.479383
24.317548
24.153007
23.98573
23.81572
23.642985
23.467539
23.2894
23.108588
22.925128
22.739047
22.550378
22.35916
22.165434
21.969249
21.770655
21.569706
21.366455
21.160959
20.953277
20.74347
20.5316
20.317734
20.10194
19.884291
19.664861
19.443727
19.220969
18.99667
18.770915
18.543791
18.31539
18.085803
17.855124
17.62345
17.390881
17.157515
16.923455
16.688804
16.453668
16.21815
15.982359
15.7464
15.510382
15.274413
15.038599
14.803049
14.56787
14.333168
14.099048
13.865616
13.632974
13.401225
13.170469
12.940803
12.712326
12.48513
12.259309
12.034951
11.812145
11.590974
11.371521
11.153865
10.938082
10.724245
10.512425
10.302687
10.095096
9.8897123
9.6865935
9.4857947
9.2873703
9.0913699
8.8978382
8.7068507
8.5183656
8.33252
8.1487675
7.9677284
7.7886831
7.6078709
7.4344816
7.2655085
7.1125101
6.9748721
7.1697377
8.1499844
11.923381
18.231973
24.184741
27.674428
29.055545
29.453277
29.418136
29.230463
28.993747
28.719657
28.497532
28.008663
24.638686
24.479419
24.317587
24.153048
23.985774
23.815766
23.643034
23.467591
23.289456
23.108649
22.925193
22.739119
22.550457
22.359245
22.165527
21.969349
21.770762
21.569817
21.36657
21.161076
20.953395
20.743588
20.531717
20.317849
20.102053
19.884401
19.664968
19.44383
19.221069
18.996766
18.771007
18.54388
18.315474
18.085883
17.855201
17.623524
17.390951
17.157582
16.923519
16.688865
16.453725
16.218205
15.982412
15.746451
15.510431
15.274459
15.038644
14.803092
14.567911
14.333207
14.099086
13.865652
13.633009
13.401258
13.1705
12.940834
12.712355
12.485158
12.259335
12.034976
11.812169
11.590997
11.371543
11.153886
10.938102
10.724264
10.512442
10.302704
10.095113
9.8897288
9.6866098
9.4858095
9.2873784
9.0913643
8.8978111
8.7067636
8.5182612
8.3323374
8.1490562
7.9684032
7.7904277
7.6147702
7.4417147
7.2701064
7.0978316
6.9322227
6.7740677
6.6320726
6.5369278
6.9694098
8.7208895
13.576722
19.85901
24.455083
26.472716
27.179097
27.262483
27.111128
26.949228
26.555619
24.638722
24.479457
24.317627
24.153091
23.98582
23.815815
23.643086
23.467647
23.289515
23.108712
22.925262
22.739193
22.550538
22.359334
22.165623
21.969453
21.770871
21.569931
21.366688
21.161196
20.953517
20.743709
20.531837
20.317968
20.10217
19.884515
19.665079
19.443938
19.221172
18.996866
18.771103
18.543972
18.315562
18.085967
17.855281
17.6236
17.391023
17.157651
16.923585
16.688928
16.453786
16.218263
15.982467
15.746504
15.510481
15.274508
15.03869
14.803137
14.567954
14.333248
14.099125
13.86569
13.633045
13.401293
13.170533
12.940865
12.712385
12.485187
12.259362
12.035002
11.812193
11.591021
11.371565
11.153907
10.938122
10.724283
10.51246
10.302721
10.095129
9.8897444
9.6866247
9.485824
9.2873928
9.0913784
8.8978249
8.7067726
8.5182597
8.332319
8.1489872
7.9682925
7.7902587
7.6149415
7.4423115
7.2724046
7.1047269
6.9401459
6.7748003
6.6124781
6.4544117
6.312397
6.1696025
6.2789148
7.0555499
10.520295
16.366479
21.460097
24.080934
25.040367
25.323828
25.120389
24.63876
24.479497
24.31767
24.153137
23.985868
23.815866
23.64314
23.467705
23.289577
23.108778
22.925334
22.739271
22.550622
22.359426
22.165722
21.969558
21.770983
21.570048
21.366808
21.161319
20.953641
20.743833
20.531961
20.31809
20.10229
19.884632
19.665193
19.444048
19.221279
18.996969
18.771202
18.544066
18.315653
18.086054
17.855364
17.623679
17.391099
17.157723
16.923654
16.688994
16.453848
16.218323
15.982524
15.746559
15.510534
15.274558
15.038739
14.803183
14.567998
14.333291
14.099166
13.865729
13.633083
13.401329
13.170568
12.940898
12.712416
12.485217
12.259391
12.03503
11.812219
11.591045
11.371589
11.153929
10.938143
10.724303
10.512479
10.302739
10.095146
9.8897604
9.6866399
9.4858383
9.2874063
9.0913913
8.8978373
8.706785
8.5182717
8.3323316
8.1489953
7.9682909
7.790242
7.6148751
7.4422077
7.2722662
7.1050687
6.9406414
6.7788344
6.6193002
6.4628922
6.3038424
6.1515906
6.0063917
5.8714218
5.7924105
6.2139519
8.190931
13.075822
18.403066
21.855764
23.258766
24.6388
24.47954
24.317715
24.153185
23.985919
23.81592
23.643197
23.467765
23.289642
23.108848
22.925408
22.739351
22.55071
22.35952
22.165824
21.969667
21.771097
21.570168
21.366931
21.161445
20.953768
20.74396
20.532087
20.318215
20.102413
19.884753
19.66531
19.444162
19.221389
18.997075
18.771304
18.544164
18.315747
18.086144
17.85545
17.623761
17.391177
17.157798
16.923725
16.689062
16.453914
16.218385
15.982584
15.746616
15.510589
15.27461
15.038789
14.803231
14.568044
14.333335
14.099209
13.86577
13.633122
13.401366
13.170604
12.940932
12.712449
12.485248
12.259421
12.035058
11.812246
11.591071
11.371613
11.153953
10.938165
10.724324
10.512499
10.302758
10.095164
9.8897771
9.6866556
9.4858531
9.2874203
9.0914045
8.8978497
8.7067967
8.5182828
8.3323423
8.1490058
7.9683012
7.7902529
7.614882
7.4422075
7.2722436
7.1050103
6.9405086
6.7787829
6.6197878
6.4636532
6.3097851
6.1589516
6.0083801
5.8599813
5.715783
5.5864307
5.4618982
5.6428603
7.0610831
10.312125
17.288284
24.638842
24.479585
24.317763
24.153235
23.985972
23.815977
23.643257
23.467829
23.289709
23.10892
22.925486
22.739435
22.5508
22.359617
22.165928
21.969778
21.771214
21.570289
21.367057
21.161573
20.953897
20.74409
20.532217
20.318343
20.102539
19.884876
19.66543
19.444279
19.221502
18.997184
18.771409
18.544265
18.315844
18.086236
17.855538
17.623846
17.391258
17.157875
16.923799
16.689132
16.453981
16.21845
15.982645
15.746675
15.510645
15.274665
15.038841
14.803281
14.568092
14.333381
14.099252
13.865812
13.633162
13.401405
13.17064
12.940968
12.712483
12.48528
12.259451
12.035087
11.812274
11.591097
11.371638
11.153976
10.938188
10.724345
10.51252
10.302777
10.095182
9.8897943
9.6866719
9.4858685
9.2874348
9.0914181
8.8978626
8.7068088
8.5182941
8.3323528
8.1490158
7.9683106
7.7902619
7.614891
7.4422164
7.2722531
7.1050139
6.9405077
6.7787431
6.6197289
6.4634641
6.3099742
6.1592631
6.0112018
5.8654962
5.7227743
5.5776846
5.4398431
5.3052472
5.2060573
5.1669123
8.3312978
24.638887
24.479632
24.317813
24.153288
23.986028
23.816036
23.64332
23.467895
23.28978
23.108996
22.925567
22.739522
22.550893
22.359718
22.166035
21.969891
21.771334
21.570414
21.367185
21.161704
20.954029
20.744223
20.532349
20.318474
20.102668
19.885002
19.665554
19.444399
19.221619
18.997296
18.771517
18.544369
18.315943
18.086332
17.85563
17.623933
17.391342
17.157955
16.923875
16.689205
16.454051
16.218516
15.982709
15.746736
15.510704
15.274721
15.038894
14.803332
14.568141
14.333428
14.099298
13.865855
13.633204
13.401445
13.170679
12.941004
12.712517
12.485313
12.259483
12.035117
11.812303
11.591125
11.371664
11.154001
10.938211
10.724368
10.51254
10.302797
10.095201
9.889812
9.6866886
9.4858842
9.2874496
9.0914321
8.8978757
8.7068211
8.5183057
8.3323637
8.149026
7.9683202
7.7902708
7.6148994
7.4422242
7.2722608
7.1050213
6.9405157
6.7787502
6.6197299
6.4634539
6.3099286
6.1591438
6.0111254
5.8658123
5.7233897
5.5829244
5.4467209
5.3047427
5.1878332
4.985312
5.0187726
24.638934
24.479682
24.317866
24.153344
23.986087
23.816098
23.643385
23.467965
23.289854
23.109074
22.925651
22.739612
22.550989
22.35982
22.166145
21.970008
21.771456
21.570541
21.367316
21.161837
20.954164
20.744358
20.532484
20.318608
20.1028
19.885132
19.66568
19.444522
19.221738
18.997412
18.771628
18.544476
18.316046
18.08643
17.855724
17.624023
17.391428
17.158037
16.923954
16.689281
16.454123
16.218585
15.982775
15.746799
15.510764
15.274779
15.03895
14.803386
14.568192
14.333477
14.099345
13.8659
13.633247
13.401486
13.170718
12.941042
12.712553
12.485347
12.259516
12.035148
11.812333
11.591153
11.371691
11.154026
10.938235
10.72439
10.512562
10.302817
10.09522
9.8898302
9.6867058
9.4859004
9.2874649
9.0914465
8.8978892
8.7068338
8.5183176
8.3323749
8.1490364
7.9683299
7.7902799
7.6149079
7.4422322
7.2722681
7.1050282
6.9405221
6.7787567
6.619736
6.4634614
6.3099322
6.1591439
6.0110929
5.8657726
5.7231791
5.5833042
5.4461707
5.3117938
5.1777102
5.0593705
4.859227
24.638984
24.479735
24.317921
24.153402
23.986149
23.816163
23.643454
23.468037
23.289931
23.109156
22.925738
22.739705
22.551089
22.359926
22.166257
21.970126
21.77158
21.57067
21.367448
21.161973
20.954302
20.744496
20.532622
20.318744
20.102934
19.885264
19.665809
19.444648
19.22186
18.99753
18.771742
18.544586
18.316152
18.086532
17.855821
17.624116
17.391517
17.158122
16.924035
16.689358
16.454197
16.218656
15.982843
15.746864
15.510826
15.274838
15.039007
14.80344
14.568245
14.333527
14.099393
13.865946
13.633291
13.401528
13.170759
12.94108
12.71259
12.485383
12.259549
12.03518
11.812363
11.591182
11.371719
11.154053
10.93826
10.724414
10.512584
10.302838
10.09524
9.8898489
9.6867234
9.485917
9.2874805
9.0914611
8.897903
8.7068467
8.5183298
8.3323862
8.149047
7.9683398
7.7902892
7.6149165
7.4422402
7.2722756
7.1050352
6.9405286
6.7787626
6.6197415
6.4634667
6.3099373
6.1591498
6.0110976
5.8657765
5.7231592
5.5833069
5.4459002
5.3122849
5.1765376
5.0644384
4.8640872
24.639037
24.47979
24.317979
24.153463
23.986213
23.816231
23.643526
23.468113
23.290011
23.109241
22.925828
22.739801
22.551191
22.360035
22.166372
21.970247
21.771707
21.570801
21.367584
21.162111
20.954441
20.744637
20.532762
20.318884
20.103072
19.885399
19.665942
19.444777
19.221985
18.997651
18.771859
18.544699
18.31626
18.086636
17.855921
17.624212
17.391608
17.158209
16.924118
16.689438
16.454273
16.218729
15.982913
15.746931
15.510891
15.2749
15.039066
14.803497
14.568299
14.333579
14.099443
13.865994
13.633336
13.401572
13.1708
12.94112
12.712628
12.485419
12.259584
12.035213
11.812394
11.591211
11.371747
11.154079
10.938285
10.724438
10.512607
10.30286
10.09526
9.889868
9.6867413
9.4859339
9.2874964
9.0914761
8.897917
8.7068599
8.5183421
8.3323978
8.1490578
7.9683499
7.7902986
7.6149253
7.4422483
7.2722831
7.1050422
6.940535
6.7787686
6.619747
6.4634718
6.3099419
6.1591542
6.011102
5.8657805
5.723165
5.5833067
5.4459091
5.3122056
5.1766399
5.063862
4.8637945
24.639093
24.479848
24.31804
24.153527
23.98628
23.816301
23.6436
23.468192
23.290094
23.109329
22.925921
22.7399
22.551296
22.360146
22.16649
21.970371
21.771836
21.570935
21.367721
21.162251
20.954583
20.74478
20.532905
20.319025
20.103212
19.885537
19.666077
19.444908
19.222113
18.997775
18.771979
18.544815
18.316371
18.086742
17.856023
17.62431
17.391702
17.158299
16.924204
16.68952
16.454352
16.218805
15.982985
15.747
15.510957
15.274963
15.039127
14.803555
14.568355
14.333633
14.099494
13.866043
13.633383
13.401617
13.170843
12.941161
12.712667
12.485456
12.259619
12.035247
11.812426
11.591242
11.371776
11.154107
10.938311
10.724462
10.51263
10.302882
10.09528
9.8898874
9.6867597
9.4859512
9.2875126
9.0914913
8.8979313
8.7068732
8.5183546
8.3324095
8.1490687
7.9683601
7.7903081
7.6149341
7.4422565
7.2722907
7.1050492
6.9405415
6.7787746
6.6197525
6.4634768
6.3099465
6.1591584
6.0111058
5.8657839
5.7231687
5.5833087
5.4459172
5.3121967
5.176663
5.0638094
4.8636326
24.639151
24.479909
24.318104
24.153594
23.986351
23.816375
23.643678
23.468274
23.290181
23.10942
22.926018
22.740002
22.551404
22.36026
22.16661
21.970497
21.771967
21.571071
21.367861
21.162394
20.954728
20.744925
20.53305
20.31917
20.103355
19.885678
19.666214
19.445043
19.222244
18.997902
18.772102
18.544933
18.316485
18.086852
17.856128
17.624411
17.391798
17.158392
16.924293
16.689605
16.454433
16.218882
15.983059
15.747071
15.511025
15.275028
15.039189
14.803615
14.568412
14.333687
14.099546
13.866093
13.633431
13.401663
13.170887
12.941203
12.712707
12.485494
12.259656
12.035282
11.812459
11.591273
11.371805
11.154135
10.938338
10.724487
10.512654
10.302904
10.095302
9.8899072
9.6867783
9.4859687
9.2875291
9.0915067
8.8979457
8.7068868
8.5183673
8.3324213
8.1490797
7.9683703
7.7903176
7.6149429
7.4422647
7.2722983
7.1050562
6.940548
6.7787805
6.6197579
6.4634818
6.3099511
6.1591625
6.0111096
5.8657873
5.7231718
5.5833114
5.4459199
5.3122001
5.1766663
5.0638157
4.8636335
24.639212
24.479974
24.318172
24.153665
23.986424
23.816453
23.643759
23.468359
23.29027
23.109515
22.926118
22.740107
22.551515
22.360377
22.166733
21.970626
21.772101
21.571209
21.368003
21.162539
20.954874
20.745073
20.533198
20.319317
20.1035
19.885821
19.666355
19.44518
19.222378
18.998032
18.772228
18.545054
18.316602
18.086964
17.856236
17.624514
17.391897
17.158487
16.924384
16.689692
16.454516
16.218962
15.983135
15.747144
15.511094
15.275095
15.039253
14.803676
14.568471
14.333744
14.0996
13.866145
13.633481
13.40171
13.170932
12.941246
12.712748
12.485533
12.259693
12.035317
11.812493
11.591305
11.371835
11.154163