/*--------------------------------*- C++ -*----------------------------------*\
  =========                 |
  \\      /  F ield         | OpenFOAM: The Open Source CFD Toolbox
   \\    /   O peration     | Website:  https://openfoam.org
    \\  /    A nd           | Version:  12
     \\/     M anipulation  |
\*---------------------------------------------------------------------------*/
FoamFile
{
    format      ascii;
    class       surfaceScalarField;
    location    "400";
    object      phi;
}
// * * * * * * * * * * * * * * * * * * * * * * * * * * * * * * * * * * * * * //

dimensions      [0 3 -1 0 0 0 0];

internalField   nonuniform List<scalar> 
14782
(
0.00079839094
1.068126e-06
-0.00079945906
0.00079695565
1.4352887e-06
0.0007953239
1.6317495e-06
0.00079361631
1.707583e-06
0.00079183343
1.7828803e-06
0.00078997383
1.8595992e-06
0.00078804015
1.9336885e-06
0.00078602905
2.0111003e-06
0.00078393029
2.0987583e-06
0.00078174391
2.1863798e-06
0.00077939592
2.34799e-06
0.0007769994
2.3965178e-06
0.0007734198
3.5795986e-06
0.00076708028
6.3395246e-06
0.0007581465
8.9337795e-06
0.00074742398
1.072252e-05
0.00073577058
1.1653399e-05
0.00072357768
1.2192901e-05
0.00071113011
1.2447564e-05
0.00069867489
1.2455225e-05
0.00068636198
1.2312909e-05
0.0006742713
1.2090674e-05
0.00066234877
1.1922533e-05
0.00065054026
1.1808512e-05
0.00063893976
1.1600498e-05
0.0006276922
1.1247559e-05
0.00061700364
1.0688566e-05
0.00060695262
1.0051021e-05
0.000597486
9.4666146e-06
0.00058863581
8.8501946e-06
0.00058045248
8.1833297e-06
0.00057296691
7.4855696e-06
0.00056618278
6.7841246e-06
0.00056008127
6.1015094e-06
0.00055462506
5.4562113e-06
0.00054976302
4.8620442e-06
0.00054543672
4.326303e-06
0.00054159524
3.8414775e-06
0.00053819489
3.4003514e-06
0.00053518784
3.0070475e-06
0.000532521
2.6668414e-06
0.00053013943
2.3815722e-06
0.00052799332
2.1461007e-06
0.00052604354
1.9497824e-06
0.00052424711
1.796435e-06
0.00052256158
1.6855279e-06
0.00052095499
1.6065888e-06
0.0005193986
1.5563907e-06
0.00051786964
1.5289583e-06
0.00051634624
1.5233988e-06
0.00051480279
1.5434507e-06
0.00051321532
1.587469e-06
0.00051157181
1.6435179e-06
0.00050987155
1.7002565e-06
0.00050811998
1.7515692e-06
0.00050632663
1.793349e-06
0.00050450238
1.8242491e-06
0.0005026619
1.84048e-06
0.00050081796
1.8439399e-06
0.00049897566
1.8423053e-06
0.0004971377
1.83796e-06
0.00049530615
1.8315435e-06
0.00049348617
1.8199801e-06
0.00049168278
1.8033897e-06
0.00048989854
1.7842435e-06
0.00048813606
1.7624817e-06
0.00048639951
1.7365492e-06
0.00048469139
1.7081161e-06
0.00048300932
1.682072e-06
0.00048134946
1.6598588e-06
0.00047971007
1.6393905e-06
0.00047809052
1.6195488e-06
0.00047649014
1.6003869e-06
0.00047490942
1.580713e-06
0.00047335042
1.5589978e-06
0.00047181426
1.5361634e-06
0.00047029882
1.5154392e-06
0.0004688021
1.4967251e-06
0.0004673226
1.4794935e-06
0.00046585996
1.4626415e-06
0.00046441428
1.4456794e-06
0.00046298691
1.4273681e-06
0.00046157864
1.4082773e-06
0.00046018717
1.3914677e-06
0.00045881145
1.3757163e-06
0.00045745076
1.3606913e-06
0.00045610412
1.3466381e-06
0.00045477307
1.3310523e-06
0.00045345796
1.3151153e-06
0.00045215663
1.301322e-06
0.00045086844
1.2881945e-06
0.00044959261
1.2758338e-06
0.00044832835
1.2642514e-06
0.00044707609
1.252262e-06
0.00044583291
1.243183e-06
0.00044459632
1.2365887e-06
0.00044335644
1.2398785e-06
0.00044208295
1.2734903e-06
0.00044085295
1.2300016e-06
1.4792033e-06
0.00082684509
1.0459793e-06
-0.00082682294
0.00082687761
1.4027631e-06
0.00082688435
1.625009e-06
0.00082686815
1.7237886e-06
0.00082683946
1.8115676e-06
0.0008267942
1.9048642e-06
0.00082673168
1.9962047e-06
0.00082664948
2.0932979e-06
0.00082654238
2.2058586e-06
0.00082639849
2.3302756e-06
0.00082620663
2.5398532e-06
0.00082584029
2.7628535e-06
0.00082541542
4.0044651e-06
0.00082492571
6.8292369e-06
0.00082397236
9.8871279e-06
0.00082230661
1.2388271e-05
0.00081985852
1.4101496e-05
0.000816701
1.5350412e-05
0.00081290765
1.6240917e-05
0.00080853185
1.6831023e-05
0.00080359403
1.7250733e-05
0.00079812176
1.7562939e-05
0.00079224545
1.7798849e-05
0.00078606588
1.7988085e-05
0.00077960161
1.8064762e-05
0.0007728755
1.7973666e-05
0.00076586864
1.7695435e-05
0.00075863694
1.7282714e-05
0.00075129285
1.681071e-05
0.00074389507
1.6247969e-05
0.00073649774
1.5580666e-05
0.00072915181
1.4831494e-05
0.00072191032
1.4025614e-05
0.0007148274
1.3184432e-05
0.00070795377
1.2329846e-05
0.00070133458
1.1481235e-05
0.00069501762
1.064326e-05
0.00068901986
9.8392371e-06
0.00068331701
9.1032018e-06
0.00067789608
8.4279719e-06
0.00067275941
7.8035113e-06
0.00066790684
7.2341461e-06
0.00066332894
6.7239989e-06
0.0006590038
6.2749289e-06
0.00065491078
5.8894557e-06
0.00065103236
5.5639459e-06
0.00064734554
5.2934048e-06
0.00064383141
5.0705181e-06
0.00064047862
4.8817552e-06
0.00063724634
4.7556794e-06
0.00063409079
4.6989945e-06
0.00063100546
4.6728063e-06
0.00062799221
4.6567668e-06
0.00062505319
4.6392695e-06
0.00062218668
4.6180861e-06
0.0006193882
4.5918266e-06
0.00061665222
4.5602248e-06
0.00061396927
4.523429e-06
0.00061132784
4.4853774e-06
0.00060872235
4.4477883e-06
0.00060615309
4.4072255e-06
0.00060362155
4.3630788e-06
0.00060113063
4.3109054e-06
0.00059868262
4.2513994e-06
0.00059627786
4.1890054e-06
0.0005939169
4.1234367e-06
0.0005916003
4.0531472e-06
0.00058932534
3.9830824e-06
0.0005870869
3.9205109e-06
0.00058488198
3.8647731e-06
0.00058271084
3.810532e-06
0.00058057438
3.7560097e-06
0.00057847244
3.7023281e-06
0.00057640508
3.6480718e-06
0.00057437287
3.5912119e-06
0.0005723745
3.5345267e-06
0.00057040646
3.4834808e-06
0.00056846669
3.4364963e-06
0.0005665547
3.3914839e-06
0.00056467065
3.3466904e-06
0.00056281463
3.301701e-06
0.00056098692
3.2550761e-06
0.00055918661
3.2085933e-06
0.00055741091
3.1671619e-06
0.00055565876
3.1278701e-06
0.0005539299
3.0895511e-06
0.00055222384
3.0526938e-06
0.00055054115
3.0137492e-06
0.00054888102
2.9752382e-06
0.00054724115
2.9411968e-06
0.00054562068
2.9086589e-06
0.00054401928
2.8772348e-06
0.00054243599
2.8475427e-06
0.00054087064
2.8176125e-06
0.00053931822
2.7956076e-06
0.00053778144
2.7733665e-06
0.00053623326
2.7880539e-06
0.00053470879
2.797965e-06
0.00053297115
2.9676346e-06
2.9625822e-06
0.00085447073
1.0422954e-06
-0.00085446705
0.00085448557
1.3879267e-06
0.00085449731
1.6132705e-06
0.0008544911
1.7299916e-06
0.0008544715
1.8311765e-06
0.00085443858
1.93778e-06
0.00085438993
2.044859e-06
0.00085432376
2.1594684e-06
0.00085423559
2.2940274e-06
0.00085411291
2.4529531e-06
0.00085394556
2.7072074e-06
0.0008536403
3.0681118e-06
0.00085337208
4.2726845e-06
0.00085335824
6.8430773e-06
0.00085349738
9.7479842e-06
0.00085369426
1.2191395e-05
0.00085384067
1.3955087e-05
0.00085389041
1.5300672e-05
0.00085378889
1.6342431e-05
0.00085349631
1.7123612e-05
0.00085299768
1.7749356e-05
0.00085227653
1.8284088e-05
0.00085131804
1.875734e-05
0.00085010571
1.9200415e-05
0.00084858269
1.9587786e-05
0.00084666238
1.989398e-05
0.00084424656
2.0111254e-05
0.0008412812
2.024807e-05
0.00083776493
2.0326977e-05
0.00083366878
2.0344117e-05
0.00082899851
2.0250942e-05
0.0008237971
2.0032901e-05
0.00081810736
1.9715356e-05
0.0008119895
1.9302295e-05
0.00080552188
1.8797462e-05
0.00079879782
1.8205294e-05
0.00079191787
1.7523211e-05
0.00078498868
1.6768431e-05
0.00077811184
1.5980042e-05
0.00077136916
1.5170647e-05
0.00076482621
1.4346459e-05
0.00075853097
1.3529394e-05
0.00075247723
1.2777734e-05
0.00074663786
1.2114303e-05
0.00074102182
1.1505493e-05
0.00073564532
1.094044e-05
0.00073052019
1.0418535e-05
0.0007256467
9.9440131e-06
0.0007210059
9.5225509e-06
0.00071657679
9.1847881e-06
0.00071234355
8.9322382e-06
0.00070828803
8.7283273e-06
0.00070439534
8.5494542e-06
0.00070065566
8.3789483e-06
0.00069705568
8.2180742e-06
0.00069357988
8.0676242e-06
0.00069021192
7.9281835e-06
0.00068692382
7.8115332e-06
0.00068369765
7.7115424e-06
0.00068053747
7.6079731e-06
0.00067744571
7.4989769e-06
0.00067442046
7.3883362e-06
0.00067145981
7.27155e-06
0.0006685629
7.1483163e-06
0.00066572814
7.0237607e-06
0.00066295446
6.8971183e-06
0.0006602383
6.7693083e-06
0.00065757196
6.6494157e-06
0.00065494996
6.5425108e-06
0.00065237172
6.4430167e-06
0.00064983888
6.343372e-06
0.00064735237
6.242523e-06
0.00064491152
6.1431788e-06
0.00064251587
6.0437166e-06
0.00064016469
5.9423964e-06
0.00063785451
5.8447056e-06
0.00063558098
5.7570044e-06
0.00063334271
5.6747736e-06
0.00063113997
5.5942193e-06
0.00062897308
5.5135868e-06
0.00062684193
5.4328436e-06
0.00062474598
5.3510246e-06
0.00062268299
5.2715844e-06
0.00062064984
5.2003178e-06
0.0006186457
5.1320084e-06
0.00061667067
5.0645779e-06
0.00061472445
4.9989208e-06
0.00061280696
4.9312338e-06
0.00061091658
4.8656156e-06
0.00060905079
4.8069874e-06
0.00060720881
4.7506385e-06
0.00060539054
4.6955111e-06
0.00060359484
4.6432441e-06
0.00060182107
4.5913747e-06
0.00060006325
4.5534335e-06
0.00059832601
4.510603e-06
0.00059657545
4.5386123e-06
0.00059487297
4.5004495e-06
0.00059285128
4.989323e-06
4.5290612e-06
0.000883019
1.0500165e-06
-0.00088302672
0.0008830303
1.3766229e-06
0.00088303999
1.6035748e-06
0.00088303178
1.7382064e-06
0.00088301051
1.8524503e-06
0.0008829762
1.9720821e-06
0.00088292594
2.095125e-06
0.00088285777
2.2276316e-06
0.00088276746
2.384341e-06
0.00088264325
2.5771667e-06
0.00088247402
2.876435e-06
0.00088220422
3.3379113e-06
0.00088195797
4.5189333e-06
0.00088193415
6.8668991e-06
0.00088208458
9.5975577e-06
0.00088232798
1.1947997e-05
0.00088258829
1.3694776e-05
0.00088284927
1.5039688e-05
0.00088308963
1.6102074e-05
0.00088329437
1.6918869e-05
0.00088346558
1.7578149e-05
0.00088360454
1.8145128e-05
0.00088370937
1.8652506e-05
0.00088378029
1.9129491e-05
0.00088381006
1.9558022e-05
0.00088378372
1.9920316e-05
0.00088368085
2.0214128e-05
0.00088347504
2.0453878e-05
0.00088313498
2.0667041e-05
0.00088262278
2.0856321e-05
0.00088186696
2.1006756e-05
0.00088077703
2.1122835e-05
0.00087927504
2.1217344e-05
0.00087728194
2.1295393e-05
0.00087472048
2.135892e-05
0.00087152045
2.1405325e-05
0.00086762246
2.14212e-05
0.00086302591
2.1364984e-05
0.00085778916
2.1216796e-05
0.00085197998
2.0979826e-05
0.00084568976
2.0636677e-05
0.00083904736
2.0171797e-05
0.00083220968
1.9615412e-05
0.00082532418
1.8999806e-05
0.0008185057
1.8323972e-05
0.00081184447
1.7601665e-05
0.00080541687
1.6846135e-05
0.00079922269
1.6138191e-05
0.0007932224
1.5522847e-05
0.00078744651
1.496068e-05
0.00078193511
1.4443638e-05
0.00077669818
1.3965251e-05
0.00077172676
1.3520879e-05
0.00076699135
1.311436e-05
0.00076245737
1.2752046e-05
0.00075810121
1.2423788e-05
0.00075390675
1.2122643e-05
0.00074986355
1.185473e-05
0.00074596377
1.1611322e-05
0.00074219372
1.1378028e-05
0.00073853803
1.1154669e-05
0.00073498223
1.0944136e-05
0.00073151829
1.0735488e-05
0.00072814394
1.0522666e-05
0.00072485602
1.0311685e-05
0.00072165018
1.0102958e-05
0.00071851445
9.9050294e-06
0.00071543579
9.7280769e-06
0.00071241395
9.5643542e-06
0.00070945283
9.4041407e-06
0.00070655335
9.2428474e-06
0.00070371446
9.0814168e-06
0.00070093418
8.923458e-06
0.00069821138
8.7665141e-06
0.00069554302
8.6107586e-06
0.00069292256
8.4651599e-06
0.00069034585
8.3337189e-06
0.00068781329
8.2073314e-06
0.00068532582
8.0816923e-06
0.00068288331
7.956093e-06
0.00068048522
7.8309354e-06
0.00067812965
7.7065974e-06
0.00067581267
7.5885604e-06
0.00067353116
7.4818266e-06
0.000671285
7.3781667e-06
0.0006690746
7.2749824e-06
0.00066689961
7.1739061e-06
0.00066475914
7.07171e-06
0.00066265046
6.9742959e-06
0.00066057098
6.8864696e-06
0.00065852021
6.8014059e-06
0.00065649827
6.7174479e-06
0.00065450372
6.6377927e-06
0.00065253527
6.5598227e-06
0.00065058623
6.5024784e-06
0.0006486624
6.4344283e-06
0.00064672581
6.475206e-06
0.00064485448
6.3717759e-06
0.00064259444
7.2493623e-06
6.2042158e-06
0.00091252404
1.064702e-06
-0.00091253872
0.00091252957
1.3710898e-06
0.00091253355
1.5996017e-06
0.00091252207
1.7496851e-06
0.0009124979
1.8766144e-06
0.00091246129
2.0086961e-06
0.00091240933
2.147089e-06
0.0009123395
2.2974585e-06
0.0009122476
2.4762399e-06
0.00091212286
2.7019042e-06
0.0009119564
3.042899e-06
0.00091171336
3.5809521e-06
0.00091148906
4.7432283e-06
0.00091145753
6.8984349e-06
0.0009115981
9.4569829e-06
0.00091183065
1.1715448e-05
0.00091208676
1.3438673e-05
0.0009123485
1.4777945e-05
0.00091259963
1.5850941e-05
0.00091282601
1.6692492e-05
0.00091302823
1.7375932e-05
0.00091321049
1.7962865e-05
0.00091337546
1.8487536e-05
0.00091352951
1.8975445e-05
0.00091367311
1.9414416e-05
0.00091380437
1.978906e-05
0.00091392158
2.0096915e-05
0.00091402356
2.0351899e-05
0.00091411148
2.0579119e-05
0.00091418413
2.0783671e-05
0.00091423574
2.0955144e-05
0.00091425923
2.1099345e-05
0.00091424453
2.1232047e-05
0.00091417502
2.1364901e-05
0.00091402536
2.1508583e-05
0.00091375872
2.1671962e-05
0.00091331871
2.1861214e-05
0.00091260889
2.2074805e-05
0.00091151225
2.231343e-05
0.00090991497
2.2577111e-05
0.00090769636
2.2855291e-05
0.00090473568
2.3132477e-05
0.000900966
2.3385091e-05
0.00089641179
2.3554017e-05
0.000891143
2.3592754e-05
0.00088524809
2.3496579e-05
0.00087885506
2.3239167e-05
0.00087214175
2.2851497e-05
0.00086528628
2.2378316e-05
0.00085843737
2.1809595e-05
0.00085171916
2.1161846e-05
0.00084523546
2.044895e-05
0.0008390052
1.9751141e-05
0.00083298079
1.9138769e-05
0.00082715969
1.8573144e-05
0.00082156352
1.8019965e-05
0.00081621305
1.7473109e-05
0.00081112438
1.6943399e-05
0.00080628039
1.6455319e-05
0.00080163814
1.6020275e-05
0.0007971674
1.5625405e-05
0.0007928509
1.526064e-05
0.0007886822
1.4904191e-05
0.00078465509
1.4549769e-05
0.00078075591
1.4210864e-05
0.00077696925
1.3889624e-05
0.00077328485
1.358943e-05
0.00076969918
1.3313739e-05
0.00076620878
1.305476e-05
0.00076280768
1.2805243e-05
0.00075948945
1.2561071e-05
0.00075624955
1.2321321e-05
0.00075308493
1.2088082e-05
0.00074999354
1.18579e-05
0.00074696768
1.1636622e-05
0.00074399705
1.1435786e-05
0.00074108076
1.1250013e-05
0.00073822224
1.1065847e-05
0.00073542175
1.0882181e-05
0.00073267776
1.0700085e-05
0.00072998888
1.0519818e-05
0.00072735087
1.0344603e-05
0.00072475773
1.0181701e-05
0.0007222074
1.0032157e-05
0.00071970096
9.8846036e-06
0.00071723882
9.7371221e-06
0.00071482025
9.5924785e-06
0.00071244287
9.4490909e-06
0.00071010257
9.3145916e-06
0.00070779714
9.1919047e-06
0.00070552664
9.0718992e-06
0.00070329134
8.9527493e-06
0.00070108914
8.8399909e-06
0.00069891779
8.7311724e-06
0.0006967701
8.6501723e-06
0.0006946529
8.5516304e-06
0.00069252516
8.6029473e-06
0.00069047798
8.418957e-06
0.00068798501
9.7423303e-06
8.005468e-06
0.00094301474
1.0851155e-06
-0.00094303515
0.00094301359
1.3722395e-06
0.00094301237
1.6008176e-06
0.00094299858
1.7634811e-06
0.0009429725
1.9026946e-06
0.00094293436
2.0468324e-06
0.00094288138
2.2000727e-06
0.00094281052
2.3683139e-06
0.00094271767
2.5690901e-06
0.00094259361
2.8259693e-06
0.00094243127
3.2052349e-06
0.00094221074
3.8014841e-06
0.00094200863
4.9453405e-06
0.00094197336
6.9337028e-06
0.0009421039
9.3264411e-06
0.00094232583
1.1493514e-05
0.00094257529
1.318922e-05
0.0009428312
1.4522028e-05
0.00094307875
1.5603397e-05
0.00094330444
1.64668e-05
0.00094350827
1.7172101e-05
0.00094369416
1.7776981e-05
0.00094386456
1.8317131e-05
0.00094402512
1.8814885e-05
0.00094417681
1.9262725e-05
0.00094431839
1.9647482e-05
0.00094444788
1.9967421e-05
0.00094456455
2.0235228e-05
0.00094467054
2.0473133e-05
0.00094476689
2.0687317e-05
0.00094485267
2.0869373e-05
0.00094492788
2.1024129e-05
0.00094499322
2.1166709e-05
0.00094504926
2.1308859e-05
0.00094509668
2.1461164e-05
0.00094513557
2.1633076e-05
0.00094516491
2.1831877e-05
0.00094518035
2.205936e-05
0.00094517386
2.2319918e-05
0.00094513171
2.2619264e-05
0.00094502927
2.2957733e-05
0.00094482397
2.3337777e-05
0.0009444486
2.3760459e-05
0.00094378126
2.4221357e-05
0.00094266224
2.4711779e-05
0.00094093984
2.5218976e-05
0.00093845646
2.5722549e-05
0.00093511093
2.6197023e-05
0.00093090926
2.6579984e-05
0.00092591561
2.6803245e-05
0.00092022596
2.6851494e-05
0.00091397951
2.6695408e-05
0.00090737141
2.6359236e-05
0.00090060374
2.5906436e-05
0.00089384021
2.5336674e-05
0.00088720054
2.4659644e-05
0.00088078026
2.3893383e-05
0.00087458746
2.3136204e-05
0.00086856902
2.2473751e-05
0.00086273388
2.1855416e-05
0.00085711729
2.1241993e-05
0.00085174611
2.0631825e-05
0.00084661454
2.0035755e-05
0.00084168453
1.947978e-05
0.00083692618
1.8969214e-05
0.000832324
1.8491809e-05
0.00082788092
1.8032504e-05
0.00082360408
1.7590584e-05
0.00081947966
1.7179183e-05
0.00081548523
1.6799666e-05
0.00081160624
1.6440069e-05
0.00080783734
1.6090215e-05
0.0008041739
1.5751524e-05
0.00080060838
1.5423416e-05
0.00079713319
1.5111814e-05
0.00079374346
1.482552e-05
0.00079043554
1.4557932e-05
0.00078720588
1.4295508e-05
0.00078405038
1.4037676e-05
0.00078096537
1.3785101e-05
0.00077794848
1.3536701e-05
0.00077499162
1.3301464e-05
0.00077208704
1.3086286e-05
0.00076923599
1.2883206e-05
0.00076644061
1.2679988e-05
0.00076370032
1.2477406e-05
0.00076101348
1.2279323e-05
0.00075837535
1.2087221e-05
0.0007557804
1.1909537e-05
0.00075322777
1.174454e-05
0.00075071816
1.1581507e-05
0.00074825162
1.1419291e-05
0.00074582487
1.1266741e-05
0.00074343439
1.1121653e-05
0.00074107284
1.101172e-05
0.00073874819
1.0876282e-05
0.00073641657
1.0934566e-05
0.0007341807
1.0654826e-05
0.00073144657
1.2476463e-05
9.9487983e-06
0.00097452372
1.1101445e-06
-0.00097454875
0.00097451638
1.3795785e-06
0.00097451053
1.6066682e-06
0.00097449426
1.7797497e-06
0.00097446604
1.9309159e-06
0.00097442598
2.0868872e-06
0.00097437155
2.2545013e-06
0.00097429948
2.440384e-06
0.00097420585
2.6627268e-06
0.00097408301
2.9488045e-06
0.00097392575
3.3624942e-06
0.00097372505
4.0021854e-06
0.00097354387
5.1265206e-06
0.00097350712
6.9704543e-06
0.00097362764
9.2059183e-06
0.00097383986
1.1281298e-05
0.00097408339
1.2945687e-05
0.00097433505
1.4270374e-05
0.00097458104
1.5357407e-05
0.00097480804
1.6239802e-05
0.00097501467
1.6965466e-05
0.0009752035
1.7588149e-05
0.00097537731
1.8143327e-05
0.0009755406
1.8651589e-05
0.00097569438
1.9108953e-05
0.00097583762
1.9504233e-05
0.00097596898
1.9836064e-05
0.00097608811
2.0116099e-05
0.00097619701
2.0364237e-05
0.00097629683
2.0587492e-05
0.00097638671
2.0779491e-05
0.0009764666
2.0944239e-05
0.00097653735
2.1095962e-05
0.00097659947
2.1246736e-05
0.00097665375
2.1406886e-05
0.0009767013
2.1585531e-05
0.00097674331
2.1789868e-05
0.00097678052
2.2022146e-05
0.00097681381
2.2286631e-05
0.00097684411
2.2588961e-05
0.00097687175
2.2930091e-05
0.00097689667
2.3312857e-05
0.00097691758
2.3739549e-05
0.00097692961
2.4209328e-05
0.00097692118
2.4720207e-05
0.00097687148
2.5268679e-05
0.00097674121
2.5852812e-05
0.00097646726
2.6470982e-05
0.00097592675
2.712049e-05
0.00097493632
2.7793676e-05
0.00097331271
2.8475102e-05
0.00097087099
2.9137126e-05
0.00096749229
2.9737939e-05
0.00096320917
3.0189558e-05
0.00095812456
3.0421278e-05
0.00095236006
3.0424148e-05
0.00094608378
3.016966e-05
0.00093950718
2.9712804e-05
0.00093282787
2.9153061e-05
0.00092618827
2.8495018e-05
0.00091969046
2.7739799e-05
0.00091341056
2.6911726e-05
0.00090730807
2.6138247e-05
0.00090132376
2.5464092e-05
0.00089550276
2.4790209e-05
0.00088989477
2.4099803e-05
0.0008845164
2.3410871e-05
0.00087934545
2.2761538e-05
0.00087435807
2.2166563e-05
0.00086954157
2.161617e-05
0.00086489326
2.1088377e-05
0.00086040971
2.0573763e-05
0.00085607701
2.0084227e-05
0.00085187718
1.9623239e-05
0.00084780465
1.9184347e-05
0.00084386358
1.8766589e-05
0.00084004612
1.837539e-05
0.00083633771
1.800392e-05
0.00083272808
1.7647308e-05
0.00082921151
1.7301669e-05
0.0008257832
1.696501e-05
0.00082243791
1.6646752e-05
0.00081917074
1.6353462e-05
0.00081597754
1.6076408e-05
0.00081285559
1.5801931e-05
0.00080980179
1.5531205e-05
0.00080681312
1.5267994e-05
0.00080388137
1.5018975e-05
0.00080100027
1.4790637e-05
0.0007981719
1.4572911e-05
0.00079539701
1.4356394e-05
0.00079267476
1.4141541e-05
0.00078999995
1.3941555e-05
0.00078736763
1.3753965e-05
0.00078477102
1.3608331e-05
0.00078221934
1.3427968e-05
0.00077966557
1.348833e-05
0.00077722345
1.3096947e-05
0.00077423147
1.5468448e-05
1.205129e-05
0.001007085
1.1388211e-06
-0.0010071137
0.0010070721
1.3924964e-06
0.0010070617
1.6170548e-06
0.0010070427
1.7987922e-06
0.0010070123
1.9613131e-06
0.0010069704
2.1287869e-06
0.0010069147
2.3102048e-06
0.0010068418
2.5132365e-06
0.0010067481
2.7564428e-06
0.0010066274
3.069518e-06
0.0010064763
3.5135939e-06
0.0010062934
4.1850523e-06
0.0010061316
5.2883626e-06
0.0010060953
7.0067174e-06
0.0010062064
9.0948305e-06
0.0010064091
1.1078572e-05
0.0010066464
1.2708381e-05
0.0010068937
1.4023131e-05
0.0010071378
1.5113299e-05
0.001007366
1.6011547e-05
0.0010075754
1.6756128e-05
0.0010077676
1.7395922e-05
0.0010079453
1.7965615e-05
0.0010081122
1.8484692e-05
0.0010082694
1.8951788e-05
0.0010084159
1.9357735e-05
0.0010085504
1.9701535e-05
0.0010086726
1.9993862e-05
0.0010087843
2.0252578e-05
0.0010088866
2.0485239e-05
0.0010089787
2.068734e-05
0.0010090606
2.0862382e-05
0.0010091329
2.1023648e-05
0.0010091964
2.118318e-05
0.0010092523
2.1351058e-05
0.0010093016
2.1536201e-05
0.0010093457
2.1745754e-05
0.0010093853
2.1982507e-05
0.0010094215
2.2250518e-05
0.0010094551
2.2555348e-05
0.0010094866
2.2898595e-05
0.0010095166
2.328284e-05
0.0010095457
2.3710397e-05
0.0010095745
2.4180523e-05
0.0010096034
2.4691345e-05
0.0010096323
2.5239811e-05
0.0010096609
2.5824225e-05
0.0010096879
2.6443889e-05
0.0010097094
2.7099078e-05
0.0010097132
2.7789802e-05
0.0010096761
2.8512206e-05
0.0010095524
2.9260832e-05
0.0010092628
3.0027531e-05
0.0010086498
3.0802586e-05
0.0010074972
3.1573932e-05
0.0010056026
3.2318691e-05
0.0010027623
3.3009976e-05
0.00099890965
3.3565446e-05
0.00099416627
3.3896437e-05
0.00098868518
3.3976107e-05
0.00098263205
3.3792938e-05
0.00097621015
3.3333619e-05
0.00096962938
3.2719022e-05
0.00096304296
3.2050507e-05
0.00095654347
3.1289702e-05
0.00095021664
3.0426632e-05
0.0009440411
2.9586412e-05
0.0009379516
2.8851036e-05
0.00093199237
2.8125794e-05
0.00092623111
2.7377431e-05
0.00092069241
2.6627081e-05
0.0009153508
2.5915375e-05
0.00091018275
2.5252268e-05
0.00090518144
2.4624554e-05
0.00090035161
2.401418e-05
0.00089569595
2.3422242e-05
0.00089120206
2.2869281e-05
0.00088685408
2.2351905e-05
0.00088264265
2.1858738e-05
0.00087856134
2.1382973e-05
0.00087459975
2.0926603e-05
0.00087075388
2.0492627e-05
0.00086702301
2.0084325e-05
0.00086339726
1.9702163e-05
0.00085986657
1.9332615e-05
0.00085642369
1.8974093e-05
0.00085306309
1.8628593e-05
0.00084978062
1.8301438e-05
0.00084657183
1.7999428e-05
0.00084343239
1.7712359e-05
0.0008403594
1.7429375e-05
0.00083735035
1.7150593e-05
0.00083439727
1.6894639e-05
0.00083149407
1.6657159e-05
0.00082863562
1.6466781e-05
0.00082583225
1.6231343e-05
0.00082303301
1.6287571e-05
0.00082036247
1.5767482e-05
0.00081708924
1.8741684e-05
1.4332255e-05
0.0010407337
1.1704261e-06
-0.0010407653
0.0010407158
1.4104151e-06
0.001040701
1.6318555e-06
0.0010406791
1.8206921e-06
0.0010406466
1.9937866e-06
0.001040603
2.1724011e-06
0.0010405462
2.3670751e-06
0.0010404728
2.5866371e-06
0.0010403794
2.849817e-06
0.0010402613
3.18759e-06
0.0010401169
3.6579945e-06
0.00103995
4.3519505e-06
0.0010398058
5.4326056e-06
0.0010397715
7.0409927e-06
0.0010398739
8.9924068e-06
0.0010400672
1.0885251e-05
0.0010402981
1.2477533e-05
0.0010405409
1.3780363e-05
0.0010407828
1.4871318e-05
0.0010410119
1.578244e-05
0.0010412237
1.6544348e-05
0.0010414192
1.7200405e-05
0.0010416008
1.7784094e-05
0.0010417713
1.8314102e-05
0.0010419321
1.8791034e-05
0.0010420822
1.9207673e-05
0.0010422203
1.9563393e-05
0.0010423462
1.9867969e-05
0.0010424613
2.0137479e-05
0.0010425667
2.0379811e-05
0.0010426619
2.0592134e-05
0.0010427467
2.0777641e-05
0.0010428216
2.0948683e-05
0.0010428876
2.1117182e-05
0.0010429457
2.1293014e-05
0.001042997
2.1484893e-05
0.0010430428
2.1699914e-05
0.001043084
2.1941354e-05
0.0010431213
2.2213203e-05
0.0010431558
2.252083e-05
0.0010431882
2.2866236e-05
0.0010432191
2.3251872e-05
0.0010432495
2.3680015e-05
0.0010432799
2.4150151e-05
0.0010433108
2.4660453e-05
0.0010433424
2.5208167e-05
0.0010433748
2.5791821e-05
0.0010434079
2.6410852e-05
0.0010434416
2.706535e-05
0.0010434763
2.7755065e-05
0.001043512
2.8476572e-05
0.001043548
2.9224831e-05
0.0010435827
2.9992808e-05
0.0010436095
3.0775831e-05
0.0010436111
3.1572257e-05
0.001043552
3.2377861e-05
0.0010433681
3.3193866e-05
0.0010429169
3.4016603e-05
0.0010419735
3.4839816e-05
0.0010403024
3.5647206e-05
0.0010376877
3.6407676e-05
0.0010339888
3.7032474e-05
0.0010293018
3.7406087e-05
0.0010238583
3.7493983e-05
0.0010178482
3.7299778e-05
0.0010114754
3.679947e-05
0.0010049415
3.6120282e-05
0.00099838864
3.5403913e-05
0.00099189897
3.4615461e-05
0.00098555307
3.3723333e-05
0.0009793277
3.2852449e-05
0.00097316335
3.2079724e-05
0.0009671164
3.1299216e-05
0.00096125749
3.0483464e-05
0.00095560275
2.9668916e-05
0.00095012719
2.8897812e-05
0.00094482164
2.8174822e-05
0.00093969212
2.7481426e-05
0.00093474187
2.6808993e-05
0.00092996217
2.6162674e-05
0.00092533698
2.555179e-05
0.00092085945
2.4970154e-05
0.00091653085
2.4412925e-05
0.00091234285
2.3890163e-05
0.0009082824
2.3393068e-05
0.00090433995
2.2916541e-05
0.0009005071
2.2461445e-05
0.00089678269
2.2025846e-05
0.00089316406
2.1618057e-05
0.0008896397
2.1236719e-05
0.00088620151
2.0867571e-05
0.00088284344
2.0508661e-05
0.00087955945
2.0178629e-05
0.00087634591
1.9870698e-05
0.00087319323
1.961946e-05
0.00087010825
1.9316321e-05
0.00086703482
1.9361e-05
0.00086410873
1.8693571e-05
0.00086052456
2.2325856e-05
1.681399e-05
0.0010755062
1.204444e-06
-0.0010755402
0.0010754838
1.4327669e-06
0.0010754648
1.6508605e-06
0.0010754401
1.8454589e-06
0.0010754056
2.028283e-06
0.0010753603
2.2176422e-06
0.0010753024
2.4250155e-06
0.0010752287
2.6603486e-06
0.0010751361
2.9423986e-06
0.0010750212
3.3024833e-06
0.001074884
3.7952405e-06
0.0010747316
4.5042709e-06
0.0010746035
5.5607526e-06
0.0010745724
7.0720988e-06
0.0010746671
8.8976692e-06
0.0010748512
1.0701142e-05
0.0010750755
1.2253259e-05
0.0010753138
1.3542111e-05
0.0010755534
1.4631697e-05
0.0010757829
1.5552912e-05
0.0010759969
1.63304e-05
0.0010761955
1.7001798e-05
0.0010763806
1.7598952e-05
0.0010765548
1.8139896e-05
0.0010767191
1.8626748e-05
0.0010768727
1.9054089e-05
0.0010770144
1.9421673e-05
0.0010771439
1.9738452e-05
0.0010772625
2.001894e-05
0.0010773711
2.0271186e-05
0.0010774694
2.0493831e-05
0.0010775571
2.0689916e-05
0.0010776349
2.0870901e-05
0.0010777036
2.1048514e-05
0.0010777641
2.123246e-05
0.0010778178
2.1431257e-05
0.0010778657
2.1651948e-05
0.0010779088
2.1898228e-05
0.001077948
2.2174073e-05
0.0010779841
2.2484666e-05
0.001078018
2.2832354e-05
0.0010780504
2.3219509e-05
0.001078082
2.3648364e-05
0.0010781136
2.4118632e-05
0.0010781454
2.4628631e-05
0.0010781777
2.517583e-05
0.0010782108
2.5758787e-05
0.0010782447
2.6376948e-05
0.0010782797
2.7030319e-05
0.0010783162
2.7718507e-05
0.0010783547
2.8438135e-05
0.001078395
2.9184517e-05
0.0010784365
2.9951339e-05
0.0010784785
3.0733764e-05
0.001078521
3.1529803e-05
0.001078563
3.2335882e-05
0.0010786036
3.3153274e-05
0.0010786387
3.3981475e-05
0.0010786546
3.4823915e-05
0.0010786175
3.5684308e-05
0.0010784662
3.6559007e-05
0.0010780529
3.7445709e-05
0.0010771285
3.8330554e-05
0.001075428
3.9194471e-05
0.0010727186
4.0009122e-05
0.0010688656
4.0652446e-05
0.0010639872
4.0998754e-05
0.0010583624
4.1028728e-05
0.001052229
4.074885e-05
0.0010458005
4.0151848e-05
0.0010392582
3.9394732e-05
0.0010327146
3.8623316e-05
0.0010262371
3.7776701e-05
0.0010198851
3.6835501e-05
0.0010136121
3.5941877e-05
0.0010073782
3.5131747e-05
0.0010012704
3.4282615e-05
0.00099534625
3.3405541e-05
0.00098960539
3.2549853e-05
0.0009840348
3.1733261e-05
0.00097863595
3.0950649e-05
0.00097341605
3.019005e-05
0.00096837601
2.9452965e-05
0.0009635049
2.876127e-05
0.00095879355
2.8104424e-05
0.00095423752
2.7472569e-05
0.00094982622
2.6872746e-05
0.00094555179
2.6300276e-05
0.00094141127
2.5758575e-05
0.00093739614
2.5251852e-05
0.00093349573
2.4767979e-05
0.00092969996
2.4304435e-05
0.00092600476
2.3873829e-05
0.00092240899
2.3466463e-05
0.00091889749
2.3130962e-05
0.00091547197
2.2741841e-05
0.00091206989
2.2763075e-05
0.00090884548
2.1917983e-05
0.00090491332
2.6258022e-05
1.9522596e-05
0.00111144
1.2404977e-06
-0.001111476
0.0011114137
1.4590162e-06
0.0011113908
1.6738093e-06
0.0011113632
1.8730668e-06
0.0011113267
2.064756e-06
0.0011112799
2.2643948e-06
0.0011112211
2.4838723e-06
0.0011111473
2.7341008e-06
0.001111056
3.033749e-06
0.0011109447
3.4137401e-06
0.0011108149
3.9250647e-06
0.001110676
4.6432027e-06
0.0011105625
5.67426e-06
0.0011105353
7.099287e-06
0.0011106233
8.8096267e-06
0.0011107985
1.0526002e-05
0.001111016
1.2035681e-05
0.0011112497
1.3308466e-05
0.0011114867
1.4394674e-05
0.0011117162
1.5323373e-05
0.0011119321
1.6114575e-05
0.0011121336
1.6800311e-05
0.0011123221
1.7410358e-05
0.0011124999
1.7962144e-05
0.0011126677
1.8458961e-05
0.0011128248
1.8896986e-05
0.0011129701
1.9276359e-05
0.0011131033
1.9605285e-05
0.0011132253
1.9896903e-05
0.0011133372
2.0159288e-05
0.0011134387
2.0392355e-05
0.0011135295
2.059912e-05
0.0011136102
2.0790206e-05
0.0011136816
2.0977083e-05
0.0011137448
2.1169305e-05
0.0011138008
2.1375203e-05
0.001113851
2.160176e-05
0.0011138962
2.1853033e-05
0.0011139373
2.2133013e-05
0.0011139752
2.2446719e-05
0.0011140108
2.2796787e-05
0.0011140447
2.3185559e-05
0.0011140779
2.3615219e-05
0.0011141108
2.408569e-05
0.001114144
2.459545e-05
0.0011141776
2.5142186e-05
0.0011142119
2.5724496e-05
0.001114247
2.6341832e-05
0.0011142832
2.6994128e-05
0.0011143208
2.7680909e-05
0.00111436
2.8398958e-05
0.0011144008
2.9143683e-05
0.0011144431
2.9909047e-05
0.0011144866
3.0690269e-05
0.0011145313
3.1485162e-05
0.0011145768
3.2290333e-05
0.001114623
3.3107128e-05
0.0011146688
3.393567e-05
0.0011147141
3.4778602e-05
0.0011147588
3.5639582e-05
0.001114802
3.6515775e-05
0.0011148406
3.7407142e-05
0.0011148599
3.8311263e-05
0.0011148209
3.9233425e-05
0.0011146535