/*--------------------------------*- C++ -*----------------------------------*\
  =========                 |
  \\      /  F ield         | OpenFOAM: The Open Source CFD Toolbox
   \\    /   O peration     | Website:  https://openfoam.org
    \\  /    A nd           | Version:  12
     \\/     M anipulation  |
\*---------------------------------------------------------------------------*/
FoamFile
{
    format      ascii;
    class       surfaceScalarField;
    location    "400";
    object      phi;
}
// * * * * * * * * * * * * * * * * * * * * * * * * * * * * * * * * * * * * * //

dimensions      [0 3 -1 0 0 0 0];

internalField   nonuniform List<scalar> 
25880
(
2.0046374e-06
1.6758936e-11
2.00459e-06
4.7423699e-11
2.004523e-06
6.6962114e-11
2.0044471e-06
7.5915014e-11
2.0043628e-06
8.4256708e-11
2.0042693e-06
9.3538177e-11
2.004166e-06
1.0333049e-10
2.0040523e-06
1.1369175e-10
2.0039272e-06
1.2504008e-10
2.0037894e-06
1.3779552e-10
2.0036371e-06
1.5235999e-10
2.0034678e-06
1.6925131e-10
2.0032786e-06
1.8920905e-10
2.0030652e-06
2.1340456e-10
2.0028218e-06
2.43421e-10
2.0025392e-06
2.825589e-10
2.0022056e-06
3.3367052e-10
2.001794e-06
4.1153333e-10
2.001283e-06
5.1105612e-10
2.0005423e-06
7.4064398e-10
1.9995844e-06
9.579164e-10
1.9967271e-06
2.8572643e-09
1.9946035e-06
2.1236543e-09
1.0239246e-06
9.7067889e-07
3.9309125e-08
9.8461547e-07
2.5483685e-08
1.382544e-08
2.5116308e-08
3.6737751e-10
2.4855029e-08
2.6127829e-10
2.4272333e-08
5.8269621e-10
2.3645055e-08
6.2727814e-10
2.3082057e-08
5.629979e-10
2.2595766e-08
4.8629139e-10
2.2171314e-08
4.2445173e-10
2.1795223e-08
3.7609129e-10
2.1458134e-08
3.3708921e-10
2.1150666e-08
3.0746767e-10
2.0865945e-08
2.8472059e-10
2.0601428e-08
2.6451729e-10
2.0355177e-08
2.4625138e-10
2.0125688e-08
2.2948844e-10
1.9911135e-08
2.1455309e-10
1.9709623e-08
2.0151252e-10
1.9519719e-08
1.8990398e-10
1.9340085e-08
1.7963378e-10
1.9169554e-08
1.7053067e-10
1.9007257e-08
1.6229756e-10
1.8852489e-08
1.5476747e-10
1.870464e-08
1.4784922e-10
1.8563014e-08
1.4162633e-10
1.8427162e-08
1.3585132e-10
1.8296661e-08
1.3050075e-10
1.8170881e-08
1.2578014e-10
1.8049518e-08
1.2136348e-10
1.7932327e-08
1.1719101e-10
1.7818849e-08
1.1347742e-10
1.7708839e-08
1.1001086e-10
1.7602153e-08
1.06686e-10
1.7498438e-08
1.037142e-10
1.7397415e-08
1.0102339e-10
1.729903e-08
9.8384881e-11
1.7203121e-08
9.5909011e-11
1.7109384e-08
9.3737304e-11
1.7017679e-08
9.1705209e-11
1.6927861e-08
8.9817285e-11
1.6839688e-08
8.8172835e-11
1.6753068e-08
8.6620322e-11
1.6668012e-08
8.5055849e-11
1.6584517e-08
8.349573e-11
1.6502469e-08
8.2047406e-11
1.6421703e-08
8.0766528e-11
1.6342137e-08
7.956522e-11
1.6263739e-08
7.839801e-11
1.6186425e-08
7.7313955e-11
1.6110086e-08
7.6339607e-11
1.6034646e-08
7.5440062e-11
1.5960051e-08
7.4594911e-11
1.5886257e-08
7.3793773e-11
1.58132e-08
7.3057527e-11
1.5740802e-08
7.2397955e-11
1.5669021e-08
7.178108e-11
1.5597807e-08
7.1213056e-11
1.55271e-08
7.070744e-11
1.5456857e-08
7.024288e-11
1.5387042e-08
6.9815198e-11
1.5317582e-08
6.9459543e-11
1.524843e-08
6.9151906e-11
1.5179566e-08
6.8864774e-11
1.5110948e-08
6.8618185e-11
1.5042524e-08
6.8423552e-11
1.4974239e-08
6.8285192e-11
1.4906054e-08
6.8185167e-11
1.4837954e-08
6.8100089e-11
1.4769895e-08
6.8058551e-11
1.4701791e-08
6.8103568e-11
1.463359e-08
6.8201282e-11
1.456529e-08
6.8299824e-11
1.4496856e-08
6.8434009e-11
1.4428183e-08
6.8673269e-11
1.4359181e-08
6.9001639e-11
1.4289856e-08
6.9324892e-11
1.42202e-08
6.9656392e-11
1.4150109e-08
7.009066e-11
1.4079504e-08
7.0605702e-11
1.4008373e-08
7.1130616e-11
1.3936667e-08
7.1705981e-11
1.3864252e-08
7.2415293e-11
1.3791053e-08
7.3199157e-11
1.371705e-08
7.4003127e-11
1.3642141e-08
7.4908529e-11
1.3566194e-08
7.5946641e-11
1.3489156e-08
7.7038032e-11
1.3410951e-08
7.8205774e-11
1.3331366e-08
7.958452e-11
1.3253693e-08
7.7672826e-11
1.3179737e-08
7.3956546e-11
1.310903e-08
7.0706305e-11
1.3041332e-08
6.7698247e-11
1.2976592e-08
6.4740295e-11
1.2914596e-08
6.1996209e-11
1.285509e-08
5.9505488e-11
1.279789e-08
5.7200006e-11
1.2742881e-08
5.5008984e-11
1.2689931e-08
5.295021e-11
1.2638864e-08
5.106659e-11
1.2589527e-08
4.9337208e-11
1.2541832e-08
4.7695487e-11
1.2495709e-08
4.6122546e-11
1.2451056e-08
4.4653164e-11
1.2407723e-08
4.3332626e-11
1.2365608e-08
4.2115387e-11
1.2324496e-08
4.1112027e-11
1.2284515e-08
3.9980493e-11
1.2244601e-08
3.9914635e-11
1.2206342e-08
3.825899e-11
1.2159472e-08
4.6869402e-11
2.9418286e-11
2.034511e-06
3.3802105e-11
2.0344627e-06
9.5705858e-11
2.0343945e-06
1.3520229e-10
2.0343171e-06
1.533159e-10
2.0342312e-06
1.7017008e-10
2.0341358e-06
1.8891015e-10
2.0340305e-06
2.0867675e-10
2.0339146e-06
2.295874e-10
2.0337871e-06
2.5248531e-10
2.0336467e-06
2.7821796e-10
2.0334915e-06
3.0759614e-10
2.0333191e-06
3.4166404e-10
2.0331263e-06
3.8191266e-10
2.0329091e-06
4.3070352e-10
2.0326612e-06
4.9122782e-10
2.0323737e-06
5.7013931e-10
2.0320341e-06
6.7318506e-10
2.0316155e-06
8.3015472e-10
2.0310958e-06
1.0307701e-09
2.0303429e-06
1.4935407e-09
2.0293694e-06
1.9314112e-09
2.0264672e-06
5.7595056e-09
2.0243034e-06
4.2874274e-09
1.0904966e-06
1.9044857e-06
1.1775881e-07
1.9573532e-06
7.7977481e-08
5.3606772e-08
7.6854047e-08
1.4908111e-09
7.6052546e-08
1.0627798e-09
7.4267835e-08
2.3674075e-09
7.2348192e-08
2.5469203e-09
7.0626162e-08
2.2850283e-09
6.9138466e-08
1.9739878e-09
6.7839739e-08
1.7231778e-09
6.6688995e-08
1.5268355e-09
6.565762e-08
1.3684649e-09
6.4716869e-08
1.248218e-09
6.3845714e-08
1.1558763e-09
6.3036371e-08
1.0738593e-09
6.2282923e-08
9.9970003e-10
6.1580761e-08
9.3165066e-10
6.0924293e-08
8.7102091e-10
6.0307724e-08
8.1808165e-10
5.972667e-08
7.7095769e-10
5.9177042e-08
7.2926174e-10
5.8655262e-08
6.9231052e-10
5.8158678e-08
6.5888127e-10
5.7685131e-08
6.2831477e-10
5.7232746e-08
6.0023437e-10
5.6799412e-08
5.7496052e-10
5.6383741e-08
5.5152217e-10
5.5984435e-08
5.2980624e-10
5.5599585e-08
5.1063054e-10
5.5228243e-08
4.9270593e-10
5.4869661e-08
4.7577261e-10
5.452245e-08
4.606883e-10
5.4185845e-08
4.4661607e-10
5.3859407e-08
4.3312399e-10
5.3542064e-08
4.2105756e-10
5.3232961e-08
4.1012615e-10
5.2931925e-08
3.9942026e-10
5.263846e-08
3.893749e-10
5.2351645e-08
3.8055227e-10
5.2071052e-08
3.722973e-10
5.1796231e-08
3.6463909e-10
5.1526436e-08
3.5796791e-10
5.1261397e-08
3.5165893e-10
5.1001149e-08
3.4530362e-10
5.074567e-08
3.3897464e-10
5.0494618e-08
3.3309957e-10
5.0247489e-08
3.2789521e-10
5.000404e-08
3.2301485e-10
4.976416e-08
3.1827818e-10
4.9527592e-08
3.1388141e-10
4.9294007e-08
3.0992481e-10
4.9063177e-08
3.0626968e-10
4.8834936e-08
3.0283671e-10
4.8609141e-08
2.9958832e-10
4.8385596e-08
2.9660223e-10
4.8164074e-08
2.9392037e-10
4.7944441e-08
2.9141423e-10
4.7726544e-08
2.8910976e-10
4.7510192e-08
2.8705993e-10
4.7295261e-08
2.8517307e-10
4.7081642e-08
2.8343468e-10
4.6869112e-08
2.8198928e-10
4.6657521e-08
2.8074318e-10
4.6446806e-08
2.7957979e-10
4.6236848e-08
2.7857568e-10
4.6027488e-08
2.7778426e-10
4.5818549e-08
2.7722352e-10
4.5609915e-08
2.7681944e-10
4.5401542e-08
2.7647355e-10
4.5193297e-08
2.7630329e-10
4.4984915e-08
2.7648534e-10
4.4776232e-08
2.7688411e-10
4.4567247e-08
2.7728522e-10
4.4357853e-08
2.7782803e-10
4.4147728e-08
2.7879846e-10
4.3936596e-08
2.801332e-10
4.3724474e-08
2.8144663e-10
4.351134e-08
2.8279095e-10
4.3296878e-08
2.8455297e-10
4.3080838e-08
2.8664523e-10
4.2863191e-08
2.8877727e-10
4.2643785e-08
2.9111203e-10
4.242221e-08
2.9399078e-10
4.2198234e-08
2.9717452e-10
4.1971798e-08
3.0043926e-10
4.1742593e-08
3.0411365e-10
4.1510211e-08
3.0832838e-10
4.1274489e-08
3.1276016e-10
4.1035195e-08
3.175006e-10
4.0791681e-08
3.2309776e-10
4.0554016e-08
3.1533775e-10
4.0327723e-08
3.0025036e-10
4.0111375e-08
2.8705405e-10
3.9904231e-08
2.7484249e-10
3.9706136e-08
2.6283451e-10
3.9516439e-08
2.5169362e-10
3.9334363e-08
2.415813e-10
3.9159341e-08
2.3222208e-10
3.8991022e-08
2.2332753e-10
3.8829004e-08
2.1496888e-10
3.8672749e-08
2.0732132e-10
3.8521786e-08
2.0030031e-10
3.8375846e-08
1.9363577e-10
3.8234718e-08
1.8725002e-10
3.8098088e-08
1.8128384e-10
3.7965498e-08
1.7592213e-10
3.7836634e-08
1.7097938e-10
3.771084e-08
1.6690582e-10
3.7588513e-08
1.6230732e-10
3.7466385e-08
1.6204311e-10
3.7349396e-08
1.5524842e-10
3.7205706e-08
1.9055879e-10
1.1901635e-10
2.0947035e-06
5.138752e-11
2.0946536e-06
1.455858e-10
2.094583e-06
2.0577642e-10
2.094503e-06
2.3340671e-10
2.094414e-06
2.5907834e-10
2.0943154e-06
2.8760095e-10
2.0942064e-06
3.176777e-10
2.0940865e-06
3.4948781e-10
2.0939546e-06
3.8431305e-10
2.0938094e-06
4.2344228e-10
2.0936489e-06
4.6810836e-10
2.0934707e-06
5.198983e-10
2.0932715e-06
5.810778e-10
2.093047e-06
6.5523522e-10
2.092791e-06
7.4721888e-10
2.092494e-06
8.6713902e-10
2.0921434e-06
1.0237229e-09
2.0917113e-06
1.2622349e-09
2.0911751e-06
1.5670281e-09
2.0903985e-06
2.2701014e-09
2.0893948e-06
2.9351249e-09
2.0864036e-06
8.750681e-09
2.0841703e-06
6.5207589e-09
1.1742275e-06
2.8144285e-06
2.0064679e-07
2.930934e-06
1.3514202e-07
1.1911154e-07
1.3319201e-07
3.4408202e-09
1.3179967e-07
2.4551223e-09
1.287045e-07
5.4625717e-09
1.2537717e-07
5.8742476e-09
1.2239379e-07
5.2684115e-09
1.1981609e-07
4.5516929e-09
1.1756549e-07
3.9737694e-09
1.1557133e-07
3.5209972e-09
1.1378407e-07
3.1557295e-09
1.1215384e-07
2.8784444e-09
1.1064421e-07
2.6655111e-09
1.0924169e-07
2.4763787e-09
1.0793603e-07
2.3053568e-09
1.0671925e-07
2.1484361e-09
1.0558164e-07
2.0086269e-09
1.0451317e-07
1.88655e-09
1.0350624e-07
1.7778845e-09
1.0255378e-07
1.6817299e-09
1.0164956e-07
1.5965243e-09
1.0078902e-07
1.5194277e-09
9.9968385e-08
1.4489453e-09
9.9184422e-08
1.3841978e-09
9.8433482e-08
1.3259e-09
9.7713145e-08
1.2718592e-09
9.7021162e-08
1.2217894e-09
9.635424e-08
1.1775529e-09
9.571072e-08
1.1362257e-09
9.5089308e-08
1.0971852e-09
9.4487608e-08
1.0623879e-09
9.3904287e-08
1.0299374e-09
9.3338577e-08
9.9883342e-10
9.278863e-08
9.7100422e-10
9.2252972e-08
9.4578433e-10
9.1731288e-08
9.2110466e-10
9.1222714e-08
8.9794906e-10
9.0725672e-08
8.7759374e-10
9.0239421e-08
8.5854875e-10
8.9763162e-08
8.4089839e-10
8.9295607e-08
8.2552197e-10
8.8836303e-08
8.1096319e-10
8.8385306e-08
7.9630058e-10
8.7942568e-08
7.8171324e-10
8.7507495e-08
7.6817254e-10
8.7079226e-08
7.5616419e-10
8.6657337e-08
7.4490375e-10
8.6241631e-08
7.3398385e-10
8.5831661e-08
7.2385144e-10
8.542686e-08
7.1472583e-10
8.5026839e-08
7.0629106e-10
8.4631304e-08
6.9837152e-10
8.4240005e-08
6.9088712e-10
8.3852602e-08
6.8400548e-10
8.3468708e-08
6.7781445e-10
8.308809e-08
6.7203163e-10
8.271048e-08
6.6672011e-10
8.2335542e-08
6.6199766e-10
8.196307e-08
6.576452e-10
8.1592872e-08
6.5363243e-10
8.1224565e-08
6.5029691e-10
8.085788e-08
6.4742798e-10
8.0492711e-08
6.4474869e-10
8.0128858e-08
6.4242853e-10
7.9766042e-08
6.4060097e-10
7.9403955e-08
6.393096e-10
7.9042394e-08
6.3838097e-10
7.8681285e-08
6.3758267e-10
7.8320401e-08
6.3718715e-10
7.795928e-08
6.3760593e-10
7.7597636e-08
6.3852893e-10
7.7235465e-08
6.3945566e-10
7.6872589e-08
6.4070433e-10
7.6508446e-08
6.4294083e-10
7.6142558e-08
6.4602157e-10
7.5774953e-08
6.4905211e-10
7.5405594e-08
6.521499e-10
7.5033935e-08
6.5621159e-10
7.4659542e-08
6.6103868e-10
7.4282362e-08
6.6595714e-10
7.3902134e-08
6.7133962e-10
7.3518148e-08
6.7797697e-10
7.3130001e-08
6.8532138e-10
7.2737589e-08
6.9285164e-10
7.2340379e-08
7.0132326e-10
7.1937664e-08
7.1104324e-10
7.1529159e-08
7.2126511e-10
7.1114463e-08
7.3219678e-10
7.0692457e-08
7.4510431e-10
7.0280584e-08
7.2721067e-10
6.9888417e-08
6.9241742e-10
6.9513487e-08
6.619837e-10
6.9154506e-08
6.3382337e-10
6.8811208e-08
6.0613279e-10
6.8482461e-08
5.8043994e-10
6.8166924e-08
5.5711897e-10
6.7863609e-08
5.355365e-10
6.7571911e-08
5.1502563e-10
6.7291131e-08
4.9574896e-10
6.702034e-08
4.7811198e-10
6.675872e-08
4.6192065e-10
6.6505804e-08
4.4655235e-10
6.6261227e-08
4.3182621e-10
6.6024445e-08
4.1806625e-10
6.5794667e-08
4.0570021e-10
6.5571346e-08
3.9430025e-10
6.5353347e-08
3.8490446e-10
6.5141359e-08
3.7429536e-10
6.4929723e-08
3.7367977e-10
6.4727041e-08
3.5792969e-10
6.4477836e-08
4.3976389e-10
2.7401032e-10
2.1861118e-06
6.97832e-11
2.1860596e-06
1.9783526e-10
2.1859856e-06
2.7979122e-10
2.1859015e-06
3.1745257e-10
2.1858082e-06
3.5238838e-10
2.1857046e-06
3.9117148e-10
2.1855903e-06
4.3205525e-10
2.1854645e-06
4.7528404e-10
2.1853262e-06
5.2259834e-10
2.1851739e-06
5.7574916e-10
2.1850056e-06
6.3641105e-10
2.1848187e-06
7.0673866e-10
2.18461e-06
7.8980728e-10
2.1843747e-06
8.9048738e-10
2.1841066e-06
1.0153584e-09
2.1837956e-06
1.1781423e-09
2.1834286e-06
1.3906766e-09
2.1829765e-06
1.7143959e-09
2.1824155e-06
2.1280192e-09
2.1816035e-06
3.0821281e-09
2.1805543e-06
3.9842497e-09
2.1774293e-06
1.1875738e-08
2.1750923e-06
8.8577838e-09
1.2784648e-06
3.7110559e-06
2.9261214e-07
3.9167867e-06
2.003917e-07
2.1133198e-07
1.9749624e-07
6.3362777e-09
1.9542351e-07
4.5278477e-09
1.9083116e-07
1.005493e-08
1.8589705e-07
1.0808353e-08
1.814752e-07
9.6902635e-09
1.7765424e-07
8.3726526e-09
1.7431767e-07
7.3103341e-09
1.7136122e-07
6.4774482e-09
1.6871155e-07
5.8054003e-09
1.6629468e-07
5.2953174e-09
1.6405656e-07
4.9036253e-09
1.6197725e-07
4.5556968e-09
1.6004153e-07
4.2410716e-09
1.5823757e-07
3.9524024e-09
1.5655098e-07
3.6952166e-09
1.5496688e-07
3.4706477e-09
1.5347401e-07
3.2707496e-09
1.5206188e-07
3.0938602e-09
1.5072129e-07
2.9371198e-09
1.4944543e-07
2.7952805e-09
1.4822875e-07
2.6656269e-09
1.4706643e-07
2.5465244e-09
1.4595307e-07
2.4392559e-09
1.4488508e-07
2.3398532e-09
1.4385911e-07
2.2477543e-09
1.4287031e-07
2.1663515e-09
1.419162e-07
2.0903347e-09
1.4099486e-07
2.0185273e-09
1.4010276e-07
1.9544944e-09
1.392379e-07
1.8947971e-09
1.3839914e-07
1.8375917e-09
1.3758375e-07
1.7863896e-09
1.3678956e-07
1.739976e-09
1.3601608e-07
1.6945872e-09
1.3526202e-07
1.6520042e-09
1.3452507e-07
1.6145416e-09
1.3380413e-07
1.5794914e-09
1.3309799e-07
1.5470365e-09
1.3240475e-07
1.5187615e-09
1.3172375e-07
1.4919625e-09
1.3105508e-07
1.4649766e-09
1.3039864e-07
1.4381533e-09
1.2975356e-07
1.4132551e-09
1.2911857e-07
1.3911532e-09
1.2849304e-07
1.3704273e-09
1.2787668e-07
1.3503437e-09
1.2726882e-07
1.3317145e-09
1.2666862e-07
1.3149244e-09
1.2607552e-07
1.2993971e-09
1.2548906e-07
1.2848234e-09
1.2490889e-07
1.2710654e-09
1.2433448e-07
1.2584126e-09
1.2376528e-07
1.2470131e-09
1.2320094e-07
1.2363683e-09
1.2264106e-07
1.2266017e-09
1.2208514e-07
1.2179214e-09
1.2153287e-07
1.2099127e-09
1.2098398e-07
1.2025236e-09
1.2043789e-07
1.1963839e-09
1.1989421e-07
1.1911138e-09
1.1935277e-07
1.1861905e-09
1.1881328e-07
1.1819152e-09
1.1827533e-07
1.1785487e-09
1.1773846e-07
1.1761762e-09
1.1720237e-07
1.1744732e-09
1.1666695e-07
1.1730038e-09
1.1613187e-07
1.1722715e-09
1.1559643e-07
1.1730406e-09
1.1506022e-07
1.1747444e-09
1.1452322e-07
1.1764524e-09
1.1398518e-07
1.1787449e-09
1.1344526e-07
1.1828577e-09
1.1290275e-07
1.1885302e-09
1.123577e-07
1.1941082e-09
1.1181004e-07
1.1998038e-09
1.1125898e-07
1.2072737e-09
1.1070386e-07
1.216158e-09
1.1014461e-07
1.22521e-09
1.0958084e-07
1.23511e-09
1.090115e-07
1.2473193e-09
1.0843598e-07
1.2608355e-09
1.0785414e-07
1.2746921e-09
1.0726519e-07
1.2902754e-09
1.0666807e-07
1.3081587e-09
1.0606237e-07
1.3269677e-09
1.0544749e-07
1.3470795e-09
1.0482177e-07
1.3708267e-09
1.0421107e-07
1.3379101e-09
1.0362959e-07
1.273899e-09
1.0307366e-07
1.2179061e-09
1.0254139e-07
1.1660995e-09
1.0203236e-07
1.1151576e-09
1.0154491e-07
1.0678879e-09
1.0107705e-07
1.0249817e-09
1.0062731e-07
9.8527688e-10
1.0019479e-07
9.475436e-10
9.9778464e-08
9.1207816e-10
9.9376947e-08
8.7962886e-10
9.8989027e-08
8.4984063e-10
9.8614011e-08
8.2156821e-10
9.8251362e-08
7.944759e-10
9.7900269e-08
7.6915877e-10
9.7559564e-08
7.464056e-10
9.7228434e-08
7.254304e-10
9.6905198e-08
7.0813973e-10
9.6590875e-08
6.8861837e-10
9.6277094e-08
6.8746068e-10
9.5976621e-08
6.5840341e-10
9.5606991e-08
8.0939316e-10
5.0366798e-10
2.3100982e-06
8.9271452e-11
2.3100428e-06
2.5327174e-10
2.3099641e-06
3.5842481e-10
2.3098748e-06
4.0680371e-10
2.3097756e-06
4.5160267e-10
2.3096654e-06
5.0128833e-10
2.3095438e-06
5.5364708e-10
2.3094101e-06
6.0899311e-10
2.3092632e-06
6.6955288e-10
2.3091014e-06
7.3756741e-10
2.3089226e-06
8.1517954e-10
2.3087242e-06
9.0514498e-10
2.3085026e-06
1.0113958e-09
2.3082529e-06
1.1401594e-09
2.3079684e-06
1.2998462e-09
2.3076386e-06
1.5080004e-09
2.3072495e-06
1.7797453e-09
2.3067703e-06
2.1936265e-09
2.3061759e-06
2.7223738e-09
2.305316e-06
3.9420358e-09
2.3042055e-06
5.0947413e-09
2.3008995e-06
1.5181769e-08
2.2984228e-06
1.1334506e-08
1.406827e-06
4.6026517e-06
3.9857089e-07
4.9250428e-06
2.7760925e-07
3.3229362e-07
2.7358246e-07
1.0363075e-08
2.7069041e-07
7.4198963e-09
2.6432603e-07
1.641931e-08
2.574929e-07
1.7641477e-08
2.5137233e-07
1.5810833e-08
2.4608286e-07
1.3662125e-08
2.4146316e-07
1.1930033e-08
2.3736961e-07
1.0571e-08
2.3370084e-07
9.4741692e-09
2.3035434e-07
8.6418153e-09
2.2725529e-07
8.0026746e-09
2.2437609e-07
7.4349059e-09
2.2169569e-07
6.9214652e-09
2.1919769e-07
6.4503994e-09
2.1686219e-07
6.030718e-09
2.1466858e-07
5.6642566e-09
2.1260128e-07
5.3380501e-09
2.1064576e-07
5.0493828e-09
2.0878928e-07
4.7936029e-09
2.0702244e-07
4.5621176e-09
2.0533752e-07
4.3505445e-09
2.0372786e-07
4.1561883e-09
2.0218601e-07
3.9811008e-09
2.0070697e-07
3.8188992e-09
1.9928611e-07
3.6686143e-09
1.9791673e-07
3.5357338e-09
1.9659537e-07
3.4116917e-09
1.9531937e-07
3.294524e-09
1.9408387e-07
3.189997e-09
1.928861e-07
3.0925717e-09
1.9172445e-07
2.9992369e-09
1.9059517e-07
2.9156658e-09
1.8949526e-07
2.8398926e-09
1.8842401e-07
2.7658385e-09
1.8737964e-07
2.6963674e-09
1.8635898e-07
2.6352041e-09
1.8536049e-07
2.5779799e-09
1.8438249e-07
2.5250383e-09
1.8342234e-07
2.4789131e-09
1.8247915e-07
2.4351522e-09
1.8155303e-07
2.3910922e-09
1.8064385e-07
2.3473363e-09
1.7975038e-07
2.3067214e-09
1.788709e-07
2.270635e-09
1.7800454e-07
2.2367931e-09
1.7715085e-07
2.2040253e-09
1.7630893e-07
2.1736398e-09
1.7547762e-07
2.1462358e-09
1.7465614e-07
2.1208787e-09
1.7384387e-07
2.0970878e-09
1.7304029e-07
2.074652e-09
1.7224468e-07
2.0540142e-09
1.714563e-07
2.0353949e-09
1.7067466e-07
2.0180123e-09
1.6989918e-07
2.0020815e-09
1.6912917e-07
1.9879277e-09
1.6836423e-07
1.9748556e-09
1.6760397e-07
1.9627859e-09
1.6684759e-07
1.9527614e-09
1.6609453e-07
1.9441736e-09
1.6534457e-07
1.9361487e-09
1.6459732e-07
1.9291616e-09
1.6385221e-07
1.9236608e-09
1.6310859e-07
1.9197953e-09
1.6236604e-07
1.917026e-09
1.6162442e-07
1.9146281e-09
1.6088326e-07
1.9134264e-09
1.6014162e-07
1.9146812e-09
1.5939889e-07
1.9174728e-09
1.5865508e-07
1.9202671e-09
1.5790982e-07
1.924003e-09
1.5716196e-07
1.9307149e-09
1.5641051e-07
1.9399827e-09
1.5565553e-07
1.9490924e-09
1.5489694e-07
1.9583847e-09
1.5413364e-07
1.9705747e-09
1.5336472e-07
1.9850834e-09
1.5259006e-07
1.9998651e-09
1.5180915e-07
2.0160221e-09
1.5102052e-07
2.0359496e-09
1.5022334e-07
2.0580199e-09
1.4941738e-07
2.0806437e-09
1.4860158e-07
2.1060777e-09
1.4777447e-07
2.135271e-09
1.4693546e-07
2.1659793e-09
1.4608373e-07
2.1988093e-09
1.4521698e-07
2.237574e-09
1.4437104e-07
2.183853e-09
1.4356557e-07
2.0793721e-09
1.427955e-07
1.987975e-09
1.4205818e-07
1.9034168e-09
1.4135307e-07
1.8202709e-09
1.4067784e-07
1.7431139e-09
1.4002974e-07
1.6730786e-09
1.3940675e-07
1.6082734e-09
1.388076e-07
1.5466865e-09
1.3823089e-07
1.4887967e-09
1.3767469e-07
1.4358288e-09
1.3713732e-07
1.387207e-09
1.3661783e-07
1.341062e-09
1.3611546e-07
1.2968411e-09
1.356291e-07
1.2555138e-09
1.3515714e-07
1.2183702e-09
1.3469844e-07
1.1841305e-09
1.3425068e-07
1.1558986e-09
1.3381527e-07
1.1240337e-09
1.3338064e-07
1.1220905e-09
1.3296446e-07
1.074581e-09
1.3245234e-07
1.3215153e-09
8.217013e-10
2.4685103e-06
1.1015349e-10
2.4684508e-06
3.12773e-10
2.4683663e-06
4.4294916e-10
2.4682701e-06
5.0292213e-10
2.4681634e-06
5.5834921e-10
2.4680449e-06
6.1975702e-10
2.4679141e-06
6.8444317e-10
2.4677703e-06
7.5279782e-10
2.4676123e-06
8.2756818e-10
2.4674384e-06
9.1152098e-10
2.4672462e-06
1.0073012e-09
2.4670331e-06
1.1183082e-09
2.4667951e-06
1.2493914e-09
2.466527e-06
1.4082301e-09
2.4662217e-06
1.605194e-09
2.4658677e-06
1.8619172e-09
2.4654505e-06
2.1970344e-09
2.4649367e-06
2.707402e-09
2.4642997e-06
3.3593088e-09
2.4633787e-06
4.8630568e-09
2.4621899e-06
6.2835761e-09
2.4586529e-06
1.871873e-08
2.455998e-06
1.3989394e-08
1.5633395e-06
5.4953103e-06
5.2393977e-07
5.9644425e-06
3.7132253e-07
4.8491086e-07
3.6587224e-07
1.5813369e-08
3.6195479e-07
1.1337343e-08
3.5344497e-07
2.4929136e-08
3.44318e-07
2.6768447e-08
3.3614686e-07
2.3981971e-08
3.2908399e-07
2.0724989e-08
3.2291408e-07
1.8099947e-08
3.1744645e-07
1.603863e-08
3.1254602e-07
1.4374597e-08
3.0807582e-07
1.3112013e-08
3.0393595e-07
1.2142545e-08
3.000896e-07
1.1281265e-08
2.9650869e-07
1.0502368e-08
2.9317133e-07
9.7877649e-09
2.9005093e-07
9.1511169e-09
2.8711999e-07
8.5951904e-09
2.8435773e-07
8.1003164e-09
2.8174473e-07
7.6623804e-09
2.7926399e-07
7.2743381e-09
2.7690299e-07
6.9231206e-09
2.7465139e-07
6.6021478e-09
2.7250029e-07
6.3072891e-09
2.7043979e-07
6.0416014e-09
2.6846315e-07
5.7955328e-09
2.6656423e-07
5.5675391e-09
2.6473408e-07
5.3658779e-09
2.6296808e-07
5.1776951e-09
2.6126266e-07
4.9999495e-09
2.5961134e-07
4.8413138e-09
2.5801042e-07
4.69349e-09
2.5645775e-07
4.5519089e-09
2.5494832e-07
4.4250907e-09
2.5347814e-07
4.3100795e-09
2.5204623e-07
4.1977459e-09
2.5065022e-07
4.0923723e-09
2.492859e-07
3.9995308e-09
2.4795121e-07
3.9126694e-09
2.4664387e-07
3.8323769e-09
2.4536036e-07
3.7624194e-09
2.4409953e-07
3.6959817e-09
2.4286153e-07
3.6290987e-09
2.4164613e-07
3.5627368e-09
2.4045171e-07
3.5011394e-09
2.3927598e-07
3.4463605e-09
2.3811779e-07
3.3949848e-09
2.3697654e-07
3.345279e-09
2.3585098e-07
3.2992016e-09
2.3473959e-07
3.2576177e-09
2.3364136e-07
3.219118e-09
2.3255543e-07
3.1830107e-09
2.3148109e-07
3.1489964e-09
2.304174e-07
3.117701e-09
2.2936337e-07
3.0894284e-09
2.2831834e-07
3.063039e-09
2.2728154e-07
3.038882e-09
2.2625204e-07
3.0174277e-09
2.252293e-07
2.9975932e-09
2.2421282e-07
2.9792655e-09
2.2320153e-07
2.9640518e-09
2.2219466e-07
2.9510451e-09
2.2119192e-07
2.9388877e-09
2.2019281e-07
2.9282752e-09
2.1919655e-07
2.9199228e-09
2.1820227e-07
2.9140725e-09
2.172094e-07
2.909891e-09
2.1621777e-07
2.9062585e-09
2.1522677e-07
2.9044308e-09
2.1423511e-07
2.9063408e-09
2.1324198e-07
2.9106004e-09
2.1224739e-07
2.914858e-09
2.1125087e-07
2.9205258e-09
2.1025086e-07
2.9307191e-09
2.0924604e-07
2.944807e-09
2.0823648e-07
2.9586483e-09
2.0722212e-07
2.972753e-09
2.0620143e-07
2.9912588e-09
2.0517322e-07
3.0132997e-09
2.0413733e-07
3.0357545e-09
2.0309307e-07
3.0602833e-09
2.0203848e-07
3.0905375e-09
2.0097244e-07
3.1240595e-09
1.9989466e-07
3.1584186e-09
1.9880371e-07
3.1970315e-09
1.9769762e-07
3.2413584e-09
1.9657561e-07
3.2879919e-09
1.9543658e-07
3.3378389e-09
1.9427746e-07
3.3966965e-09
1.9314614e-07
3.3151668e-09
1.9206894e-07
3.1565734e-09
1.9103908e-07
3.0178341e-09
1.9005302e-07
2.8894846e-09
1.8911001e-07
2.7632798e-09
1.8820696e-07
2.6461578e-09
1.873402e-07
2.5398451e-09
1.8650699e-07
2.4414789e-09
1.8570568e-07
2.3479978e-09
1.8493435e-07
2.2601212e-09
1.8419047e-07
2.179714e-09
1.8347177e-07
2.1059079e-09
1.8277697e-07
2.0358654e-09
1.8210507e-07
1.9687402e-09
1.8145458e-07
1.9060014e-09
1.8082334e-07
1.8496107e-09
1.8020984e-07
1.7976314e-09
1.7961098e-07
1.7547605e-09
1.7902862e-07
1.7063918e-09
1.7844736e-07
1.7033481e-09
1.7789079e-07
1.6311488e-09
1.7720576e-07
2.0065508e-09
1.2470097e-09
2.6637088e-06
1.327545e-10
2.6636443e-06
3.7729315e-10
2.6635525e-06
5.347551e-10
2.663448e-06
6.0741169e-10
2.6633319e-06
6.7441548e-10
2.6632031e-06
7.4855959e-10
2.6630609e-06
8.2662695e-10
2.6629046e-06
9.0909156e-10
2.6627329e-06
9.9926432e-10
2.662544e-06
1.1004817e-09
2.6623353e-06
1.2159325e-09
2.6621039e-06
1.3497129e-09
2.6618457e-06
1.5076636e-09
2.6615548e-06
1.6990336e-09
2.6612237e-06
1.9363091e-09
2.6608401e-06
2.2455453e-09
2.660388e-06
2.6491651e-09
2.6598316e-06
3.2638153e-09
2.6591421e-06
4.0487865e-09
2.6581457e-06
5.859461e-09
2.6568602e-06
7.5690287e-09
2.6530387e-06
2.254021e-08
2.6501641e-06
1.6864085e-08
1.7525444e-06
6.3929299e-06
6.7482095e-07
7.0421659e-06
4.8683825e-07
6.7289356e-07
4.7946951e-07
2.318211e-08
4.742216e-07
1.6585255e-08
4.6308863e-07
3.6062101e-08
4.5116849e-07
3.8688585e-08
4.405013e-07
3.4649165e-08
4.3127818e-07
2.9948112e-08
4.2321854e-07
2.6159587e-08
4.1607512e-07
2.3182047e-08
4.0967202e-07
2.0777694e-08
4.0383038e-07
1.8953659e-08
3.984198e-07
1.7553122e-08
3.9339229e-07
1.6308773e-08
3.8871127e-07
1.5183391e-08
3.8434816e-07
1.4150875e-08
3.802683e-07
1.3230976e-08
3.7643581e-07
1.2427677e-08
3.7282357e-07
1.1712556e-08
3.6940627e-07
1.1079686e-08
3.6616169e-07
1.0518914e-08
3.6307351e-07
1.0011301e-08
3.6012822e-07
9.5474389e-09
3.5731421e-07
9.1212989e-09
3.5461858e-07
8.737227e-09
3.5203251e-07
8.3816023e-09
3.4954796e-07
8.0520894e-09
3.4715331e-07
7.7605325e-09
3.4484245e-07
7.4885501e-09
3.4261074e-07
7.2316619e-09
3.4044976e-07
7.0022967e-09
3.3835464e-07
6.7886095e-09
3.3632255e-07
6.5839973e-09
3.3434699e-07
6.4006503e-09
3.3242273e-07
6.234336e-09
3.3054849e-07
6.07199e-09
3.2872115e-07
5.9197142e-09
3.2693523e-07
5.7854481e-09
3.2518807e-07
5.6598315e-09
3.2347663e-07
5.5438136e-09
3.2179633e-07
5.4427241e-09
3.2014568e-07
5.3466248e-09
3.1852489e-07
5.2498943e-09
3.1693362e-07
5.1540046e-09
3.1536976e-07
5.065001e-09
3.1383034e-07
4.9857783e-09
3.1231386e-07
4.9114713e-09
3.108195e-07
4.8396382e-09
3.0934563e-07
4.7730708e-09
3.0789029e-07
4.7129561e-09
3.0645214e-07
4.6572674e-09
3.0503009e-07
4.6050625e-09
3.0362315e-07
4.5559378e-09
3.0223012e-07
4.5107305e-09
3.0084971e-07
4.4698352e-09
2.9948108e-07
4.4316721e-09
2.9812318e-07
4.3967816e-09
2.967748e-07
4.3658084e-09
2.9543524e-07
4.3371457e-09
2.9410387e-07
4.31064e-09
2.9277927e-07
4.2886545e-09
2.9146041e-07
4.2699008e-09
2.9014693e-07
4.252367e-09
2.8883818e-07
4.2370242e-09
2.8753315e-07
4.2249563e-09
2.8623068e-07
4.2165387e-09
2.8493003e-07
4.2105425e-09
2.8363097e-07
4.2053185e-09
2.8233271e-07
4.2026893e-09
2.8103357e-07
4.2054823e-09
2.7973247e-07
4.2117e-09
2.7842942e-07
4.2179055e-09
2.7712383e-07
4.2261235e-09
2.7581364e-07
4.2409026e-09
2.7449711e-07
4.2613392e-09
2.7317435e-07
4.281408e-09
2.7184527e-07
4.3018387e-09
2.7050788e-07
4.3286419e-09
2.691606e-07
4.3605843e-09
2.6780323e-07
4.3931253e-09
2.6643486e-07
4.4286476e-09
2.6505294e-07
4.4724588e-09
2.6365598e-07
4.5210219e-09
2.622436e-07
4.5707928e-09
2.6081393e-07
4.6267018e-09
2.593644e-07
4.6908919e-09
2.5789396e-07
4.7584311e-09
2.5640119e-07
4.8306114e-09
2.5488205e-07
4.9158351e-09
2.5339932e-07
4.7978972e-09
2.5198748e-07
4.5684126e-09
2.5063767e-07
4.3676462e-09
2.4934523e-07
4.1819262e-09
2.481092e-07
3.999311e-09
2.4692553e-07
3.8298258e-09
2.4578939e-07
3.6759803e-09
2.4469723e-07
3.5336443e-09
2.4364685e-07
3.3983768e-09
2.4263576e-07
3.2712075e-09
2.4166063e-07
3.1548434e-09
2.407185e-07
3.0480378e-09
2.3980768e-07
2.9466845e-09
2.3892688e-07
2.8495469e-09
2.3807413e-07
2.7587473e-09
2.3724661e-07
2.6771299e-09
2.3644234e-07
2.6019023e-09
2.3565726e-07
2.5398378e-09
2.3489381e-07
2.4698467e-09
2.3413186e-07
2.4652945e-09
2.3340228e-07
2.360727e-09
2.3250413e-07
2.9047053e-09
1.8045753e-09
2.8986026e-06
1.5742914e-10
2.898532e-06
4.4788048e-10
2.8984314e-06
6.3538069e-10
2.8983167e-06
7.2205237e-10
2.8981894e-06
8.0178724e-10
2.898048e-06
8.8989763e-10
2.897892e-06
9.8262249e-10
2.8977206e-06
1.0805295e-09
2.8975323e-06
1.1875453e-09
2.8973252e-06
1.3076293e-09
2.8970965e-06
1.4445647e-09
2.896843e-06
1.6032078e-09
2.8965602e-06
1.7904805e-09
2.8962419e-06
2.0173434e-09
2.8958796e-06
2.2985889e-09
2.8954601e-06
2.6650915e-09
2.8949659e-06
3.1433963e-09
2.894358e-06
3.8717223e-09
2.893605e-06
4.8016891e-09
2.8925177e-06
6.9467982e-09
2.8911158e-06
8.9709742e-09
2.8869517e-06
2.6704244e-08
2.8838117e-06
2.0004148e-08
1.9795898e-06
7.2971518e-06
8.5812916e-07
8.1636265e-06
6.3025573e-07
9.0076699e-07
6.2005034e-07
3.33875e-08
6.1301434e-07
2.3621256e-08
5.9868401e-07
5.0392431e-08
5.8338448e-07
5.3988115e-08
5.6969733e-07
4.8336318e-08
5.5785733e-07
4.1788107e-08
5.4750612e-07
3.6510802e-08
5.383289e-07
3.2359266e-08
5.3010073e-07
2.9005861e-08
5.2259228e-07
2.6462107e-08
5.1563642e-07
2.4508984e-08
5.091716e-07
2.2773587e-08
5.03151e-07
2.1203994e-08
4.975381e-07
1.9763781e-08
4.9228852e-07
1.8480556e-08
4.8735631e-07
1.7359885e-08
4.8270673e-07
1.6362132e-08
4.7830734e-07
1.5479077e-08
4.7412967e-07
1.4696585e-08
4.701528e-07
1.3988172e-08
4.6635939e-07
1.3340849e-08
4.6273457e-07
1.2746119e-08
4.5926183e-07
1.2209965e-08
4.5592981e-07
1.1713626e-08
4.5272819e-07
1.1253701e-08
4.4964211e-07
1.0846613e-08
4.466637e-07
1.0466968e-08
4.4378696e-07
1.0108394e-08
4.4100115e-07
9.788105e-09
4.383e-07
9.4897665e-09
4.3567983e-07
9.204162e-09
4.3313234e-07
8.9481414e-09
4.3065082e-07
8.7158551e-09
4.2823357e-07
8.4892394e-09
4.2587659e-07
8.2766939e-09
4.2357289e-07
8.0891486e-09
4.2131904e-07
7.9136874e-09
4.1911108e-07
7.7517679e-09
4.1694313e-07
7.6106732e-09
4.1481335e-07
7.4764119e-09
4.1272195e-07
7.3412902e-09
4.1066849e-07
7.2074649e-09
4.0865024e-07
7.0832522e-09
4.0666342e-07
6.9725938e-09
4.047061e-07
6.8687941e-09
4.0277721e-07
6.7685337e-09
4.0087462e-07
6.6756562e-09
3.9899585e-07
6.5917303e-09
3.9713917e-07
6.5139395e-09
3.9530318e-07
6.441052e-09
3.9348658e-07
6.3725438e-09
3.9168782e-07
6.309488e-09
3.8990528e-07
6.2523739e-09
3.8813786e-07
6.1990897e-09
3.863842e-07
6.1504431e-09
3.8464273e-07
6.1072834e-09
3.8291257e-07
6.0673069e-09
3.8119289e-07
6.0303128e-09
3.7948189e-07
5.9996622e-09
3.777782e-07
5.9735862e-09
3.7608136e-07
5.949203e-09
3.7439057e-07
5.9278206e-09
3.727045e-07
5.911025e-09
3.7102166e-07
5.8993794e-09
3.6934107e-07
5.8911303e-09
3.6766246e-07
5.8839294e-09
3.6598482e-07
5.8803344e-09
3.6430595e-07
5.8843453e-09
3.6262447e-07
5.8931839e-09
3.6094038e-07
5.9019919e-09
3.5925293e-07
5.9135758e-09
3.5755947e-07
5.9343598e-09
3.5585772e-07
5.9630909e-09
3.5414784e-07
5.9912906e-09
3.5242971e-07
6.0199711e-09
3.5070077e-07
6.057575e-09
3.4895895e-07
6.1024058e-09
3.47204e-07
6.1480751e-09
3.4543476e-07
6.1978891e-09
3.4364791e-07
6.2593094e-09
3.4184152e-07
6.3274154e-09