/*--------------------------------*- C++ -*----------------------------------*\
  =========                 |
  \\      /  F ield         | OpenFOAM: The Open Source CFD Toolbox
   \\    /   O peration     | Website:  https://openfoam.org
    \\  /    A nd           | Version:  12
     \\/     M anipulation  |
\*---------------------------------------------------------------------------*/
FoamFile
{
    format      ascii;
    class       volVectorField;
    location    "400";
    object      U;
}
// * * * * * * * * * * * * * * * * * * * * * * * * * * * * * * * * * * * * * //

dimensions      [0 1 -1 0 0 0 0];

internalField   nonuniform List<vector> 
13056
(
(1 2.0896235e-10 3.677966e-24)
(0.99998427 6.708929e-10 0)
(0.99995363 1.0746199e-09 0)
(0.99991779 1.381941e-09 0)
(0.99987812 1.7394719e-09 0)
(0.999834 2.1891819e-09 0)
(0.99978509 2.7400465e-09 0)
(0.9997312 3.4133357e-09 0)
(0.99967196 4.2463303e-09 0)
(0.99960678 5.2867949e-09 0)
(0.99953484 6.5940705e-09 0)
(0.99945516 8.2468783e-09 0)
(0.99936641 1.0353714e-08 0)
(0.99926686 1.3073597e-08 0)
(0.99915403 1.6629648e-08 0)
(0.99902459 2.1421538e-08 0)
(0.99887283 2.7904248e-08 0)
(0.99869244 3.7687969e-08 0)
(0.99846345 5.0805872e-08 0)
(0.99818322 7.9112375e-08 0)
(0.99772805 1.0863874e-07 0)
(0.99722562 3.3950183e-07 0)
(0.99490206 2.6048636e-07 -4.541465e-21)
(0.99507284 0.00012165496 1.5471731e-16)
(0.026264305 0.00012494453 0)
(0.012891013 1.2845065e-06 -5.0237948e-17)
(0.012532018 9.0878132e-09 1.5377233e-20)
(0.012527076 6.2685151e-09 6.2657051e-21)
(0.012269112 1.4151549e-08 0)
(0.011945107 1.5172273e-08 0)
(0.011643603 1.3515879e-08 0)
(0.011383665 1.1549918e-08 0)
(0.011158551 9.9758605e-09 0)
(0.010960283 8.7515595e-09 0)
(0.010783419 7.7642712e-09 0)
(0.01062405 7.0068217e-09 0)
(0.010476708 6.4181006e-09 0)
(0.01034003 5.8962792e-09 0)
(0.010212839 5.426803e-09 0)
(0.010094385 4.9982264e-09 0)
(0.009983914 4.6169776e-09 0)
(0.0098803561 4.2832516e-09 0)
(0.0097828929 3.985788e-09 0)
(0.0096909131 3.7220257e-09 0)
(0.009603695 3.4868466e-09 0)
(0.0095207928 3.2741956e-09 0)
(0.0094417895 3.0793264e-09 0)
(0.0093663983 2.9001667e-09 0)
(0.0092942931 2.7386749e-09 0)
(0.009225113 2.5882541e-09 0)
(0.0091587672 2.4488493e-09 0)
(0.0090949213 2.3245567e-09 0)
(0.009033288 2.2076472e-09 0)
(0.0089738466 2.0975133e-09 0)
(0.0089163733 1.9981817e-09 0)
(0.0088606383 1.9048129e-09 0)
(0.008806623 1.8156419e-09 0)
(0.0087542034 1.7344295e-09 0)
(0.0087031514 1.6596792e-09 0)
(0.0086534184 1.5868831e-09 0)
(0.0086049975 1.5181749e-09 0)
(0.0085577323 1.4559389e-09 0)
(0.0085114784 1.3970514e-09 0)
(0.0084662419 1.3411915e-09 0)
(0.0084218688 1.2900517e-09 0)
(0.0083782712 1.241502e-09 0)
(0.0083354486 1.1936465e-09 0)
(0.0082934126 1.1466082e-09 0)
(0.0082521457 1.1020299e-09 0)
(0.0082115528 1.0607686e-09 0)
(0.0081715642 1.0212967e-09 0)
(0.00813217 9.8292258e-10 0)
(0.0080933455 9.4627374e-10 0)
(0.0080550314 9.1176661e-10 0)
(0.0080171788 8.7881718e-10 0)
(0.007979762 8.4708949e-10 0)
(0.0079427528 8.1632706e-10 0)
(0.0079061342 7.8686176e-10 0)
(0.0078698582 7.588799e-10 0)
(0.0078338983 7.3177664e-10 0)
(0.0077982373 7.0559637e-10 0)
(0.0077628434 6.8045807e-10 0)
(0.0077276857 6.562051e-10 0)
(0.0076927553 6.3271236e-10 0)
(0.0076580236 6.1024717e-10 0)
(0.0076234477 5.8848861e-10 0)
(0.007589022 5.6725736e-10 0)
(0.0075547315 5.4677173e-10 0)
(0.0075205519 5.269729e-10 0)
(0.0074864546 5.0787208e-10 0)
(0.0074524121 4.8931774e-10 0)
(0.0074184135 4.7116857e-10 0)
(0.0073844556 4.5357939e-10 0)
(0.0073504972 4.3678516e-10 0)
(0.007316493 4.2050302e-10 0)
(0.0072824359 4.0444073e-10 0)
(0.0072483327 3.8881534e-10 0)
(0.0072141403 3.7398476e-10 0)
(0.0071797963 3.5971065e-10 0)
(0.0071452744 3.4549074e-10 0)
(0.0071106072 3.3150724e-10 0)
(0.0070757527 3.1813217e-10 0)
(0.0070406495 3.052058e-10 0)
(0.0070052789 2.9241989e-10 0)
(0.0069696504 2.7994051e-10 0)
(0.0069337026 2.6804572e-10 0)
(0.0068973626 2.5645872e-10 0)
(0.0068606299 2.4498367e-10 0)
(0.0068234844 2.3387536e-10 0)
(0.0067858435 2.2317625e-10 0)
(0.0067476573 2.1262623e-10 0)
(0.0067089234 2.0227887e-10 0)
(0.0066695655 1.9244349e-10 0)
(0.006630347 1.8308761e-10 0)
(0.0065925756 1.7434658e-10 0)
(0.006556562 1.6670575e-10 0)
(0.0065220336 1.5963651e-10 0)
(0.006489021 1.526807e-10 0)
(0.0064574435 1.4622883e-10 0)
(0.0064271687 1.403711e-10 0)
(0.0063980762 1.3495205e-10 0)
(0.0063701015 1.2980585e-10 0)
(0.0063431949 1.2496678e-10 0)
(0.0063172742 1.205343e-10 0)
(0.0062922469 1.1646765e-10 0)
(0.0062680516 1.1261066e-10 0)
(0.0062446621 1.0891727e-10 0)
(0.006222036 1.0546385e-10 0)
(0.0062001126 1.0235363e-10 0)
(0.0061788039 9.949248e-11 0)
(0.0061580953 9.7129895e-11 0)
(0.0061377863 9.4505036e-11 0)
(0.0061182103 9.4319087e-11 0)
(0.0060979559 3.4074137e-10 0)
(0.006080081 1.0914277e-10 1.4984465e-22)
(0.006051011 2.6320592e-10 0)
(1 6.3076434e-10 0)
(0.99998424 2.0264799e-09 0)
(0.99995348 3.2477842e-09 0)
(0.99991749 4.1777154e-09 0)
(0.99987763 5.258796e-09 0)
(0.9998333 6.6181349e-09 0)
(0.99978417 8.2829946e-09 0)
(0.99973004 1.0317574e-08 0)
(0.99967054 1.2834381e-08 0)
(0.99960508 1.5977577e-08 0)
(0.99953286 1.9926245e-08 0)
(0.99945287 2.4917922e-08 0)
(0.9993638 3.1279942e-08 0)
(0.9992639 3.9492035e-08 0)
(0.99915071 5.0227223e-08 0)
(0.99902089 6.4691118e-08 0)
(0.99886872 8.4255626e-08 0)
(0.99868788 1.1377782e-07 0)
(0.99845839 1.5335396e-07 0)
(0.99817763 2.3874091e-07 0)
(0.99772177 3.2776048e-07 0)
(0.99721878 1.0240939e-06 0)
(0.99489294 7.8607326e-07 1.6771488e-20)
(0.99506122 0.00036140256 -1.1628583e-20)
(0.076727949 0.00036874587 0)
(0.038866497 7.2672717e-06 0)
(0.037783133 1.9108606e-07 2.3852407e-20)
(0.037768291 1.3487343e-07 0)
(0.036990137 2.9803061e-07 -4.5240885e-21)
(0.03601241 3.1785485e-07 0)
(0.035103656 2.826213e-07 0)
(0.034320224 2.418015e-07 0)
(0.033641579 2.0899181e-07 0)
(0.033043825 1.8331771e-07 0)
(0.032510621 1.6261132e-07 0)
(0.032030168 1.4675281e-07 0)
(0.031585966 1.3442099e-07 0)
(0.031173915 1.234935e-07 0)
(0.030790464 1.1365489e-07 0)
(0.030433356 1.0468114e-07 0)
(0.030100312 9.6697762e-08 0)
(0.029788109 8.9708141e-08 0)
(0.029494278 8.3480607e-08 0)
(0.029216978 7.7952684e-08 0)
(0.028954032 7.3031253e-08 0)
(0.028704099 6.8571972e-08 0)
(0.028465921 6.449274e-08 0)
(0.028238628 6.0745194e-08 0)
(0.028021245 5.7353002e-08 0)
(0.027812682 5.4207628e-08 0)
(0.027612659 5.129229e-08 0)
(0.027420175 4.8679312e-08 0)
(0.027234363 4.6235209e-08 0)
(0.027055156 4.3932188e-08 0)
(0.026881883 4.1845275e-08 0)
(0.026713853 3.9890614e-08 0)
(0.026551005 3.8026457e-08 0)
(0.026392966 3.6324464e-08 0)
(0.026239053 3.4753749e-08 0)
(0.026089118 3.3232794e-08 0)
(0.025943135 3.1797221e-08 0)
(0.025800636 3.0490101e-08 0)
(0.025661189 2.9253873e-08 0)
(0.025524809 2.8087879e-08 0)
(0.025391029 2.7019798e-08 0)
(0.025259587 2.5999593e-08 0)
(0.025130485 2.4995562e-08 0)
(0.025003754 2.401294e-08 0)
(0.024879338 2.308191e-08 0)
(0.024756955 2.2215668e-08 0)
(0.024636396 2.1387861e-08 0)
(0.02451763 2.0585262e-08 0)
(0.024400578 1.9819929e-08 0)
(0.024285065 1.9096951e-08 0)
(0.024170945 1.8406e-08 0)
(0.024058139 1.7740998e-08 0)
(0.023946562 1.709876e-08 0)
(0.023836161 1.6483194e-08 0)
(0.023726792 1.5895718e-08 0)
(0.023618379 1.5327986e-08 0)
(0.023510867 1.4780597e-08 0)
(0.023404159 1.4255511e-08 0)
(0.023298162 1.3747469e-08 0)
(0.023192851 1.3255127e-08 0)
(0.023088141 1.2784425e-08 0)
(0.022983899 1.2330008e-08 0)
(0.022880109 1.1886353e-08 0)
(0.022776727 1.1456513e-08 0)
(0.022673681 1.1041876e-08 0)
(0.022570882 1.0642357e-08 0)
(0.022468249 1.0254452e-08 0)
(0.022365746 9.8742436e-09 0)
(0.022263368 9.5056527e-09 0)
(0.022160988 9.1539224e-09 0)
(0.02205847 8.8134934e-09 0)
(0.021955792 8.4772417e-09 0)
(0.021852974 8.1494619e-09 0)
(0.02174989 7.8377273e-09 0)
(0.021646347 7.5390046e-09 0)
(0.021542267 7.2423547e-09 0)
(0.02143775 6.9493278e-09 0)
(0.021332668 6.6690794e-09 0)
(0.021226837 6.3984546e-09 0)
(0.021120199 6.1305022e-09 0)
(0.021012783 5.8686912e-09 0)
(0.020904405 5.6191511e-09 0)
(0.020794845 5.3761537e-09 0)
(0.0206841 5.135341e-09 0)
(0.020572111 4.9021611e-09 0)
(0.020458628 4.6777526e-09 0)
(0.020343501 4.4564241e-09 0)
(0.020226723 4.2392915e-09 0)
(0.020108064 4.0328393e-09 0)
(0.019989825 3.8363315e-09 0)
(0.019875948 3.6527674e-09 0)
(0.019767371 3.4922195e-09 0)
(0.019663272 3.3436326e-09 0)
(0.019563742 3.1975261e-09 0)
(0.019468539 3.0619812e-09 0)
(0.019377264 2.9389521e-09 0)
(0.019289554 2.8250714e-09 0)
(0.019205212 2.7168418e-09 0)
(0.019124092 2.6151466e-09 0)
(0.019045943 2.5221074e-09 0)
(0.018970489 2.4366844e-09 0)
(0.018897542 2.3555892e-09 0)
(0.018827025 2.2778898e-09 0)
(0.01875881 2.2053079e-09 0)
(0.018692713 2.1400838e-09 0)
(0.01862847 2.0799563e-09 0)
(0.018566037 2.0304012e-09 0)
(0.01850481 1.9744718e-09 0)
(0.01844579 1.971267e-09 0)
(0.018384741 1.9166163e-09 0)
(0.018330849 2.3163994e-09 -2.3347449e-22)
(0.018243205 1.4713549e-09 4.2145914e-23)
(1 1.0628387e-09 0)
(0.99998421 3.4165443e-09 0)
(0.99995333 5.4783829e-09 0)
(0.99991715 7.0487723e-09 0)
(0.9998771 8.8732208e-09 0)
(0.99983254 1.1166521e-08 0)
(0.99978316 1.3974876e-08 0)
(0.99972876 1.7406462e-08 0)
(0.99966898 2.1650808e-08 0)
(0.99960322 2.6950794e-08 0)
(0.99953068 3.3608115e-08 0)
(0.99945036 4.2022877e-08 0)
(0.99936093 5.2746387e-08 0)
(0.99926067 6.6586571e-08 0)
(0.99914708 8.4676746e-08 0)
(0.99901684 1.0904715e-07 0)
(0.99886422 1.4200726e-07 0)
(0.99868289 1.9173618e-07 0)
(0.99845287 2.5839073e-07 0)
(0.99817153 4.0218141e-07 0)
(0.99771491 5.5208923e-07 0)
(0.99721132 1.7244518e-06 0)
(0.99488311 1.3255833e-06 -8.8527906e-21)
(0.99504888 0.00059171831 4.9295542e-54)
(0.12589128 0.00061066548 -8.1747122e-54)
(0.0654248 1.9837351e-05 0)
(0.063598664 5.5473858e-07 -1.2703615e-20)
(0.063572269 3.9208978e-07 0)
(0.062261785 8.6578439e-07 0)
(0.060614892 9.2288823e-07 0)
(0.059085662 8.2023635e-07 0)
(0.057767372 7.018602e-07 0)
(0.056625168 6.0670716e-07 0)
(0.055619051 5.3217585e-07 0)
(0.054721611 4.7205481e-07 0)
(0.053912963 4.2602072e-07 0)
(0.053165322 3.902243e-07 0)
(0.052471792 3.5850298e-07 0)
(0.051826401 3.2994044e-07 0)
(0.051225347 3.0389082e-07 0)
(0.050664795 2.8071636e-07 0)
(0.050139317 2.6042622e-07 0)
(0.04964476 2.4234865e-07 0)
(0.049178027 2.2630079e-07 0)
(0.048735453 2.1201505e-07 0)
(0.048314779 1.9906842e-07 0)
(0.047913893 1.8722737e-07 0)
(0.047531324 1.7634958e-07 0)
(0.047165436 1.6649932e-07 0)
(0.046814396 1.5736989e-07 0)
(0.046477723 1.4890802e-07 0)
(0.046153742 1.4131972e-07 0)
(0.045840996 1.3422579e-07 0)
(0.045539357 1.2754145e-07 0)
(0.04524771 1.2148112e-07 0)
(0.044964891 1.1580684e-07 0)
(0.04469079 1.1039655e-07 0)
(0.044424782 1.0545509e-07 0)
(0.044165723 1.0089352e-07 0)
(0.04391336 9.6479384e-08 0)
(0.043667642 9.2313161e-08 0)
(0.043427789 8.8517117e-08 0)
(0.043193079 8.4927102e-08 0)
(0.04296353 8.1543427e-08 0)
(0.042738351 7.8443657e-08 0)
(0.04251711 7.5480624e-08 0)
(0.042299811 7.2564984e-08 0)
(0.042086503 6.9713266e-08 0)
(0.041877087 6.7011269e-08 0)
(0.041671092 6.4495638e-08 0)
(0.041468171 6.2091734e-08 0)
(0.041268267 5.9762035e-08 0)
(0.041071248 5.7540894e-08 0)
(0.040876816 5.5441803e-08 0)
(0.04068473 5.3435268e-08 0)
(0.04049486 5.150436e-08 0)
(0.040307057 4.9640477e-08 0)
(0.040121229 4.78538e-08 0)
(0.039937141 4.6147622e-08 0)
(0.039754662 4.4499083e-08 0)
(0.039573701 4.291014e-08 0)
(0.03939409 4.1386093e-08 0)
(0.039215676 3.9911032e-08 0)
(0.039038419 3.8481356e-08 0)
(0.038862173 3.7114622e-08 0)
(0.038686717 3.5795698e-08 0)
(0.038512018 3.4507933e-08 0)
(0.038338005 3.3259678e-08 0)
(0.03816456 3.2055737e-08 0)
(0.037991532 3.0895955e-08 0)
(0.03781878 2.9769994e-08 0)
(0.037646249 2.8666132e-08 0)
(0.037473926 2.7595868e-08 0)
(0.037301603 2.6574658e-08 0)
(0.037129047 2.5586515e-08 0)
(0.036956219 2.4610414e-08 0)
(0.036783158 2.3658661e-08 0)
(0.036609648 2.2753673e-08 0)
(0.036435366 2.1886565e-08 0)
(0.03626018 2.1025309e-08 0)
(0.036084257 2.0174485e-08 0)
(0.035907386 1.9360803e-08 0)
(0.035729253 1.8575227e-08 0)
(0.03554976 1.7797407e-08 0)
(0.035368959 1.7037287e-08 0)
(0.035186539 1.6312811e-08 0)
(0.035002128 1.5607474e-08 0)
(0.034815723 1.4908448e-08 0)
(0.034627224 1.4231461e-08 0)
(0.034436212 1.3580009e-08 0)
(0.034242431 1.2937539e-08 0)
(0.03404587 1.230719e-08 0)
(0.033846144 1.1707858e-08 0)
(0.033647124 1.1137466e-08 0)
(0.033455446 1.0604598e-08 0)
(0.03327269 1.0138512e-08 0)
(0.03309747 9.7072168e-09 0)
(0.032929942 9.2831203e-09 0)
(0.032769696 8.8896341e-09 0)
(0.032616061 8.5324742e-09 0)
(0.032468426 8.2019235e-09 0)
(0.032326462 7.8877853e-09 0)
(0.032189918 7.592564e-09 0)
(0.032058379 7.3224567e-09 0)
(0.031931373 7.0744825e-09 0)
(0.031808589 6.8391044e-09 0)
(0.031689893 6.613569e-09 0)
(0.031575072 6.4028439e-09 0)
(0.031463817 6.2134683e-09 0)
(0.031355684 6.0388868e-09 0)
(0.031250595 5.8950127e-09 0)
(0.031147541 5.7325609e-09 0)
(0.031048197 5.7232553e-09 0)
(0.03094546 5.4741864e-09 0)
(0.030854748 6.7327973e-09 0)
(0.030707222 4.1936044e-09 0)
(1 1.5118198e-09 7.8829326e-24)
(0.99998417 4.8629881e-09 0)
(0.99995316 7.8021704e-09 0)
(0.99991679 1.004152e-08 0)
(0.99987651 1.2641275e-08 0)
(0.9998317 1.5907938e-08 0)
(0.99978204 1.9907657e-08 0)
(0.99972735 2.4794312e-08 0)
(0.99966726 3.0837441e-08 0)
(0.99960117 3.8382486e-08 0)
(0.99952828 4.7858503e-08 0)
(0.99944759 5.9834431e-08 0)
(0.99935778 7.5094104e-08 0)
(0.9992571 9.4786141e-08 0)
(0.99914308 1.2052156e-07 0)
(0.99901238 1.5518647e-07 0)
(0.99885926 2.0206276e-07 0)
(0.99867741 2.7277748e-07 0)
(0.99844679 3.6754517e-07 0)
(0.99816483 5.7195731e-07 0)
(0.99770739 7.8502139e-07 0)
(0.99720314 2.4513477e-06 0)
(0.99487244 1.8863627e-06 0)
(0.99503567 0.00081697377 -2.5586176e-54)
(0.17439912 0.00085573297 4.2572953e-54)
(0.092956225 3.9379941e-05 0)
(0.090363083 1.1430373e-06 0)
(0.090319868 8.0901156e-07 0)
(0.08845681 1.7841584e-06 0)
(0.086115582 1.9010661e-06 0)
(0.083943735 1.6890016e-06 0)
(0.082071524 1.4453786e-06 0)
(0.080449033 1.2495629e-06 0)
(0.079019763 1.0960689e-06 0)
(0.07774491 9.7223016e-07 0)
(0.076596195 8.7742439e-07 0)
(0.075534126 8.0370445e-07 0)
(0.07454892 7.3837384e-07 0)
(0.073632097 6.7954598e-07 0)
(0.072778257 6.2589647e-07 0)
(0.071981947 5.7816901e-07 0)
(0.071235458 5.3638119e-07 0)
(0.07053289 4.9915028e-07 0)
(0.069869847 4.6609817e-07 0)
(0.06924112 4.366768e-07 0)
(0.068643504 4.1001036e-07 0)
(0.068073999 3.8562406e-07 0)
(0.067530508 3.6322186e-07 0)
(0.067010716 3.4293065e-07 0)
(0.066512021 3.2412981e-07 0)
(0.066033725 3.0670357e-07 0)
(0.065573464 2.9107085e-07 0)
(0.065129166 2.7646181e-07 0)
(0.06470064 2.6269659e-07 0)
(0.064286308 2.5021188e-07 0)
(0.063884523 2.385251e-07 0)
(0.063495118 2.2738401e-07 0)
(0.063117206 2.172056e-07 0)
(0.062749173 2.07808e-07 0)
(0.062390653 1.9871828e-07 0)
(0.062041565 1.9013933e-07 0)
(0.061700808 1.8231878e-07 0)
(0.061367365 1.7492288e-07 0)
(0.061041254 1.6795565e-07 0)
(0.060721343 1.6157267e-07 0)
(0.060407026 1.5546795e-07 0)
(0.060098317 1.4946142e-07 0)
(0.059795276 1.4358925e-07 0)
(0.059497759 1.3802537e-07 0)
(0.059205101 1.3284282e-07 0)
(0.058916815 1.278905e-07 0)
(0.058632816 1.2309263e-07 0)
(0.058352912 1.185189e-07 0)
(0.058076681 1.1419522e-07 0)
(0.057803785 1.1006145e-07 0)
(0.05753404 1.0608397e-07 0)
(0.05726723 1.0224594e-07 0)
(0.057003221 9.8566565e-08 0)
(0.056741685 9.5051464e-08 0)
(0.05648244 9.1655478e-08 0)
(0.056225348 8.8383123e-08 0)
(0.055970175 8.5244631e-08 0)
(0.055716699 8.2206293e-08 0)
(0.055464868 7.9261084e-08 0)
(0.055214477 7.6445761e-08 0)
(0.054965206 7.3729704e-08 0)
(0.054717007 7.1077664e-08 0)
(0.054469785 6.8506131e-08 0)
(0.054223371 6.6026087e-08 0)
(0.05397755 6.3637454e-08 0)
(0.053732119 6.1318604e-08 0)
(0.053487 5.9044894e-08 0)
(0.053242179 5.6840182e-08 0)
(0.05299736 5.4736696e-08 0)
(0.052752208 5.2701677e-08 0)
(0.052506667 5.069131e-08 0)
(0.052260795 4.8730718e-08 0)
(0.052014288 4.6866581e-08 0)
(0.051766684 4.5080765e-08 0)
(0.051517793 4.3306925e-08 0)
(0.051267854 4.1554303e-08 0)
(0.051016572 3.9878235e-08 0)
(0.050763495 3.8260282e-08 0)
(0.050508486 3.6658272e-08 0)
(0.050251617 3.5092532e-08 0)
(0.04999245 3.3600235e-08 0)
(0.049730454 3.2147533e-08 0)
(0.049465623 3.0707778e-08 0)
(0.049197816 2.9313278e-08 0)
(0.048926441 2.7971463e-08 0)
(0.04865113 2.6648199e-08 0)
(0.04837187 2.5349824e-08 0)
(0.048088112 2.4115344e-08 0)
(0.047805357 2.2940537e-08 0)
(0.047533032 2.1842966e-08 0)
(0.047273384 2.0882905e-08 0)
(0.047024442 1.9994587e-08 0)
(0.046786426 1.912108e-08 0)
(0.046558756 1.8310578e-08 0)
(0.04634048 1.7574895e-08 0)
(0.046130728 1.6894074e-08 0)
(0.045929031 1.6247058e-08 0)
(0.045735035 1.5638956e-08 0)
(0.045548149 1.5082577e-08 0)
(0.045367704 1.457181e-08 0)
(0.045193257 1.4087017e-08 0)
(0.045024618 1.3622473e-08 0)
(0.044861484 1.3188392e-08 0)
(0.044703418 1.2798281e-08 0)
(0.044549786 1.2438647e-08 0)
(0.044400481 1.2142228e-08 0)
(0.04425407 1.1807524e-08 0)
(0.044112925 1.1787996e-08 0)
(0.043966989 1.1284366e-08 0)
(0.043838106 1.3875539e-08 0)
(0.043628502 8.6354377e-09 0)
(1 1.9845396e-09 0)
(0.99998413 6.3881124e-09 0)
(0.99995297 1.0255447e-08 0)
(0.99991639 1.3203049e-08 0)
(0.99987586 1.6622361e-08 0)
(0.99983077 2.0917099e-08 0)
(0.99978081 2.6174716e-08 0)
(0.9997258 3.2597223e-08 0)
(0.99966536 4.0538362e-08 0)
(0.9995989 5.0451538e-08 0)
(0.99952562 6.2899857e-08 0)
(0.99944452 7.8629889e-08 0)
(0.99935428 9.8670059e-08 0)
(0.99925315 1.245273e-07 0)
(0.99913865 1.583149e-07 0)
(0.99900744 2.0381897e-07 0)
(0.99885378 2.6534306e-07 0)
(0.99867134 3.5813998e-07 0)
(0.99844007 4.8247912e-07 0)
(0.99815742 7.5064173e-07 0)
(0.99769908 1.0300473e-06 0)
(0.99719411 3.2157053e-06 0)
(0.99486078 2.4769097e-06 0)
(0.99502143 0.0010400618 0)
(0.22277907 0.001104204 0)
(0.12186281 6.5837696e-05 0)
(0.11846518 1.9828039e-06 0)
(0.11839261 1.4066362e-06 1.2453812e-20)
(0.11594868 3.0953362e-06 0)
(0.11287887 3.2968495e-06 0)
(0.11003401 2.9280394e-06 0)
(0.10758164 2.5059108e-06 0)
(0.10545584 2.1666636e-06 0)
(0.10358306 1.9005457e-06 0)
(0.10191262 1.6857994e-06 0)
(0.10040746 1.5214244e-06 0)
(0.099015783 1.393612e-06 0)
(0.097724805 1.2803374e-06 0)
(0.096523419 1.1783337e-06 0)
(0.095404554 1.085312e-06 0)
(0.094361055 1.0025596e-06 0)
(0.093382828 9.3010468e-07 0)
(0.092462144 8.6555025e-07 0)
(0.091593245 8.0823975e-07 0)
(0.090769305 7.5722604e-07 0)
(0.08998613 7.1098512e-07 0)
(0.08923979 6.6870217e-07 0)
(0.088527526 6.2985942e-07 0)
(0.08784632 5.9466974e-07 0)
(0.087192762 5.6207231e-07 0)
(0.086565921 5.3185788e-07 0)
(0.085962717 5.0474536e-07 0)
(0.085380437 4.7941549e-07 0)
(0.08481881 4.555493e-07 0)
(0.084275786 4.3389656e-07 0)
(0.08374921 4.1363135e-07 0)
(0.08323885 3.943156e-07 0)
(0.082743545 3.7666446e-07 0)
(0.082261194 3.6036497e-07 0)
(0.081791311 3.4460565e-07 0)
(0.081333776 3.2973233e-07 0)
(0.080887158 3.1616787e-07 0)
(0.080450134 3.0334017e-07 0)
(0.080022718 2.9126154e-07 0)
(0.079603416 2.8019529e-07 0)
(0.079191445 2.6960628e-07 0)
(0.078786832 2.5918834e-07 0)
(0.078389646 2.4900772e-07 0)
(0.07799969 2.3936147e-07 0)
(0.077616101 2.3037266e-07 0)
(0.077238248 2.2178307e-07 0)
(0.076866014 2.1346395e-07 0)
(0.07649914 2.0553431e-07 0)
(0.076137076 1.9803623e-07 0)
(0.075779387 1.9086623e-07 0)
(0.07542583 1.8396818e-07 0)
(0.075076118 1.7731409e-07 0)
(0.07473007 1.7093454e-07 0)
(0.074387263 1.6483751e-07 0)
(0.074047464 1.5894756e-07 0)
(0.073710487 1.5327346e-07 0)
(0.073376018 1.4783178e-07 0)
(0.073043773 1.4256263e-07 0)
(0.072713686 1.3745437e-07 0)
(0.072385486 1.3257178e-07 0)
(0.072058755 1.2786256e-07 0)
(0.071733423 1.2326408e-07 0)
(0.071409371 1.1880389e-07 0)
(0.071086382 1.1450262e-07 0)
(0.070764168 1.1036063e-07 0)
(0.070442463 1.0633983e-07 0)
(0.070121166 1.0239673e-07 0)
(0.06980026 9.857293e-08 0)
(0.069479356 9.4924989e-08 0)
(0.069158016 9.139634e-08 0)
(0.068836162 8.7910205e-08 0)
(0.068513875 8.45098e-08 0)
(0.068190756 8.1276893e-08 0)
(0.067866197 7.8180251e-08 0)
(0.067539949 7.5104217e-08 0)
(0.067212329 7.2064588e-08 0)
(0.066882947 6.9157792e-08 0)
(0.066551213 6.6352136e-08 0)
(0.066216942 6.3574081e-08 0)
(0.065880234 6.0858628e-08 0)
(0.065540514 5.8270582e-08 0)
(0.065197085 5.5751476e-08 0)
(0.064849936 5.3254739e-08 0)
(0.064498887 5.0836266e-08 0)
(0.064143159 4.850929e-08 0)
(0.063782271 4.6214563e-08 0)
(0.063416204 4.3962884e-08 0)
(0.063044241 4.1822022e-08 0)
(0.062673591 3.9784745e-08 0)
(0.062316611 3.7881326e-08 0)
(0.061976248 3.6216309e-08 0)
(0.061649919 3.4675819e-08 0)
(0.06133791 3.3161033e-08 0)
(0.061039462 3.1755414e-08 0)
(0.060753329 3.0479541e-08 0)
(0.060478368 2.9298897e-08 0)
(0.060213965 2.817688e-08 0)
(0.059959656 2.7122266e-08 0)
(0.059714667 2.6157333e-08 0)
(0.059478122 2.5271548e-08 0)
(0.059249439 2.4430853e-08 0)
(0.059028367 2.3625235e-08 0)
(0.058814513 2.2872378e-08 0)
(0.058607302 2.2195754e-08 0)
(0.058405906 2.1572011e-08 0)
(0.05821018 2.1057794e-08 0)
(0.058018253 2.0477282e-08 0)
(0.057833221 2.0442528e-08 0)
(0.057641952 1.9577206e-08 0)
(0.057472994 2.4071802e-08 -3.0064996e-22)
(0.057198212 1.4972992e-08 5.4273229e-23)
(1 2.488273e-09 0)
(0.99998409 8.0158779e-09 0)
(0.99995276 1.2877487e-08 0)
(0.99991595 1.6584489e-08 0)
(0.99987513 2.088102e-08 0)
(0.99982974 2.6275159e-08 0)
(0.99977944 3.2877416e-08 0)
(0.99972407 4.0941118e-08 0)
(0.99966324 5.0909693e-08 0)
(0.99959637 6.3351566e-08 0)
(0.99952266 7.8972626e-08 0)
(0.99944111 9.8708588e-08 0)
(0.99935039 1.2384824e-07 0)
(0.99924876 1.5627989e-07 0)
(0.99913373 1.9865123e-07 0)
(0.99900195 2.557061e-07 0)
(0.99884769 3.3283428e-07 0)
(0.9986646 4.4914683e-07 0)
(0.99843262 6.0496491e-07 0)
(0.9981492 9.4097106e-07 0)
(0.99768987 1.290914e-06 0)
(0.99718412 4.0290225e-06 0)
(0.99484798 3.1064125e-06 0)
(0.99500602 0.0012628 0)
(0.27144974 0.0013595711 0)
(0.15254705 9.9544575e-05 0)
(0.14828017 3.1253583e-06 0)
(0.14815093 2.2239097e-06 0)
(0.14509079 4.8741166e-06 0)
(0.1412517 5.1889666e-06 0)
(0.13769754 4.6068083e-06 0)
(0.13463354 3.943031e-06 0)
(0.13197676 3.4096658e-06 0)
(0.12963588 2.9909612e-06 0)
(0.12754789 2.6530078e-06 0)
(0.12566639 2.3943653e-06 0)
(0.12392666 2.1932599e-06 0)
(0.12231274 2.0150137e-06 0)
(0.12081076 1.8544968e-06 0)
(0.11941189 1.7081172e-06 0)
(0.1181072 1.5778985e-06 0)
(0.11688406 1.4638819e-06 0)
(0.11573283 1.3622955e-06 0)
(0.11464633 1.2721061e-06 -6.2781621e-33)
(0.113616 1.1918266e-06 0)
(0.11263662 1.1190521e-06 0)
(0.11170329 1.0525124e-06 0)
(0.11081253 9.9138558e-07 0)
(0.1099606 9.3599739e-07 0)
(0.10914324 8.8469997e-07 0)
(0.10835926 8.371519e-07 0)
(0.10760483 7.9447394e-07 0)
(0.10687656 7.5461212e-07 0)
(0.1061741 7.1705473e-07 0)
(0.10549489 6.8297057e-07 0)
(0.10483626 6.5107558e-07 0)
(0.10419789 6.2067984e-07 0)
(0.10357833 5.9289672e-07 0)
(0.10297498 5.6723746e-07 0)
(0.10238722 5.4243771e-07 0)
(0.10181489 5.19033e-07 0)
(0.1012562 4.9767867e-07 0)
(0.10070952 4.7748443e-07 0)
(0.10017484 4.5847793e-07 0)
(0.099650304 4.4106367e-07 0)
(0.099134931 4.2439245e-07 0)
(0.098628768 4.0799155e-07 0)
(0.09813189 3.9197088e-07 0)
(0.097644039 3.7679096e-07 0)
(0.097164148 3.6263989e-07 0)
(0.096691438 3.4911704e-07 0)
(0.096225752 3.3602402e-07 0)
(0.095766761 3.2354527e-07 0)
(0.09531378 3.1174263e-07 0)
(0.094866271 3.0045431e-07 0)
(0.094423934 2.8959555e-07 0)
(0.093986401 2.7912408e-07 0)
(0.09355344 2.6908377e-07 0)
(0.093124532 2.5948459e-07 0)
(0.09269939 2.50212e-07 0)
(0.092277774 2.4128154e-07 0)
(0.091859289 2.327173e-07 0)
(0.09144358 2.2442288e-07 0)
(0.091030571 2.1638063e-07 0)
(0.090619925 2.0869439e-07 0)
(0.09021111 2.0128288e-07 0)
(0.089804038 1.9404524e-07 0)
(0.089398564 1.8702326e-07 0)
(0.088994423 1.8025176e-07 0)
(0.088591249 1.7373223e-07 0)
(0.088188704 1.674037e-07 0)
(0.087786665 1.6119657e-07 0)
(0.087385115 1.5517666e-07 0)
(0.086983568 1.4943408e-07 0)
(0.086581469 1.4388013e-07 0)
(0.086178721 1.3839272e-07 0)
(0.08577543 1.3303935e-07 0)
(0.085371098 1.2795003e-07 0)
(0.084964958 1.2307586e-07 0)
(0.084556701 1.1823382e-07 0)
(0.084146723 1.1344851e-07 0)
(0.083734542 1.0887241e-07 0)
(0.083319413 1.0445608e-07 0)
(0.082901104 1.0008313e-07 0)
(0.082479742 9.5808245e-08 0)
(0.08205461 9.1733994e-08 0)
(0.081624832 8.776869e-08 0)
(0.081190392 8.3838465e-08 0)
(0.080751069 8.0031097e-08 0)
(0.080305889 7.6367952e-08 0)
(0.079854245 7.2755697e-08 0)
(0.079396117 6.9211019e-08 0)
(0.078930606 6.5840808e-08 0)
(0.078466734 6.2633819e-08 0)
(0.078019963 5.9637406e-08 0)
(0.077593987 5.7016187e-08 0)
(0.077185573 5.4591156e-08 0)
(0.076795076 5.2206634e-08 0)
(0.076421549 4.9993801e-08 0)
(0.076063431 4.7985205e-08 0)
(0.075719296 4.6126662e-08 0)
(0.07538837 4.4360414e-08 0)
(0.075070075 4.2700136e-08 0)
(0.074763444 4.1181007e-08 0)
(0.07446738 3.978655e-08 0)
(0.074181154 3.8463153e-08 0)
(0.073904451 3.7194911e-08 0)
(0.073636782 3.6009615e-08 0)
(0.073377428 3.4944285e-08 0)
(0.073125352 3.3962263e-08 0)
(0.072880371 3.3152465e-08 0)
(0.072640152 3.2238581e-08 0)
(0.072408551 3.2182188e-08 0)
(0.072169198 3.0819382e-08 0)
(0.071957713 3.7906021e-08 0)
(0.071613765 2.3563673e-08 -3.094864e-23)
(1 3.030837e-09 0)
(0.99998404 9.7722254e-09 0)
(0.99995254 1.5711072e-08 0)
(0.99991546 2.0241714e-08 0)
(0.99987433 2.5487848e-08 0)
(0.99982859 3.207086e-08 0)
(0.99977792 4.0126548e-08 0)
(0.99972213 4.9963536e-08 0)
(0.99966088 6.2121805e-08 0)
(0.99959355 7.7293638e-08 0)
(0.99951936 9.6338645e-08 0)
(0.9994373 1.203961e-07 0)
(0.99934605 1.5103491e-07 0)
(0.99924385 1.905536e-07 0)
(0.99912823 2.4217455e-07 0)
(0.99899583 3.1167154e-07 0)
(0.9988409 4.0560145e-07 0)
(0.9986571 5.4722465e-07 0)
(0.99842431 7.3691029e-07 0)
(0.99814005 1.1458842e-06 0)
(0.99767964 1.5716347e-06 0)
(0.99717302 4.9035912e-06 0)
(0.99483388 3.7847194e-06 0)
(0.99498928 0.001486382 0)
(0.32071825 0.0016237916 0)
(0.18538758 0.00014153511 0)
(0.18012161 4.6561274e-06 0)
(0.17987867 3.320291e-06 -3.2508853e-20)
(0.17616309 7.2237481e-06 1.5171795e-20)
(0.17151428 7.6853326e-06 0)
(0.16721482 6.8205996e-06 0)
(0.16350758 5.8385634e-06 0)
(0.16029171 5.0495805e-06 0)
(0.15745764 4.4297133e-06 0)
(0.15492946 3.9292652e-06 0)
(0.15265102 3.5463194e-06 0)
(0.15054402 3.2485698e-06 0)
(0.14858918 2.9846374e-06 0)
(0.14676973 2.7469457e-06 0)
(0.14507502 2.5301875e-06 0)
(0.14349424 2.3373594e-06 0)
(0.14201213 2.1685179e-06 0)
(0.14061704 2.0180774e-06 0)
(0.13930026 1.8845105e-06 6.7230871e-33)
(0.13805149 1.7656185e-06 0)
(0.13686437 1.6578319e-06 0)
(0.135733 1.5592864e-06 0)
(0.13465316 1.4687549e-06 0)
(0.13362033 1.3867073e-06 0)
(0.13262936 1.3107336e-06 0)
(0.13167879 1.2403112e-06 0)
(0.13076401 1.1770852e-06 0)
(0.12988092 1.1180448e-06 0)
(0.12902906 1.0624188e-06 0)
(0.12820537 1.0119221e-06 0)
(0.1274066 9.6467536e-07 0)
(0.12663237 9.1965662e-07 0)
(0.12588091 8.7849686e-07 0)
(0.1251491 8.4047806e-07 0)
(0.12443617 8.0374586e-07 0)
(0.1237419 7.6908098e-07 0)
(0.12306417 7.3743899e-07 0)
(0.122401 7.0751606e-07 0)
(0.12175237 6.7936557e-07 0)
(0.12111599 6.5357202e-07 0)
(0.12049073 6.2886691e-07 0)
(0.11987663 6.0456373e-07 0)
(0.11927378 5.808339e-07 0)
(0.11868185 5.5834898e-07 0)
(0.11809956 5.373794e-07 0)
(0.11752597 5.1734007e-07 0)
(0.1169609 4.9794375e-07 0)
(0.11640393 4.7945924e-07 0)
(0.11585423 4.6197163e-07 0)
(0.11531116 4.4524271e-07 0)
(0.11477436 4.2915254e-07 0)
(0.11424338 4.1364105e-07 0)
(0.11371792 3.987668e-07 0)
(0.11319737 3.8454078e-07 0)
(0.11268138 3.7079945e-07 0)
(0.11216966 3.5756866e-07 0)
(0.11166173 3.4488096e-07 0)
(0.11115715 3.3259038e-07 0)
(0.11065584 3.2067174e-07 0)
(0.11015739 3.0928175e-07 0)
(0.10966115 2.9830159e-07 0)
(0.10916701 2.8757831e-07 0)
(0.1086748 2.7717153e-07 0)
(0.1081842 2.671363e-07 0)
(0.10769477 2.5747631e-07 0)
(0.10720609 2.4809965e-07 0)
(0.106718 2.3890148e-07 0)
(0.10623051 2.2997981e-07 0)
(0.10574301 2.2146986e-07 0)
(0.10525483 2.1324067e-07 0)
(0.10476585 2.0510949e-07 0)
(0.1042762 1.9717552e-07 0)
(0.10378528 1.8963342e-07 0)
(0.10329215 1.8241108e-07 0)
(0.10279644 1.7523579e-07 0)
(0.10229863 1.6814371e-07 0)
(0.10179814 1.6136182e-07 0)
(0.10129406 1.548175e-07 0)
(0.1007861 1.4833734e-07 0)
(0.10027442 1.4200177e-07 0)
(0.099758165 1.3596362e-07 0)
(0.099236253 1.3008754e-07 0)
(0.098708665 1.2426322e-07 0)
(0.098175136 1.1862043e-07 0)
(0.097634484 1.1319164e-07 0)
(0.097085969 1.0783843e-07 0)
(0.096529565 1.0258506e-07 0)
(0.095964185 9.7590273e-08 0)
(0.095400781 9.2837606e-08 0)
(0.094858133 8.8396776e-08 0)
(0.094340734 8.4511829e-08 0)
(0.093844659 8.0917895e-08 0)
(0.093370335 7.7383998e-08 0)
(0.092916614 7.4104325e-08 0)
(0.092481605 7.1127315e-08 0)
(0.092063574 6.8372904e-08 0)
(0.091661579 6.5755281e-08 0)
(0.091274921 6.3294495e-08 0)
(0.090902428 6.1042843e-08 0)
(0.090542768 5.8976086e-08 0)
(0.090195052 5.7014762e-08 0)
(0.089858901 5.5135082e-08 0)
(0.089533719 5.3378156e-08 0)
(0.089218637 5.1798958e-08 0)
(0.088912396 5.034334e-08 0)
(0.08861477 4.9142644e-08 0)
(0.088322936 4.7788212e-08 0)
(0.088041555 4.7701844e-08 0)
(0.087750823 4.5679405e-08 -3.6680068e-23)
(0.087493875 5.6198227e-08 0)
(0.087075979 3.4919396e-08 0)
(1 3.6207142e-09 0)
(0.99998399 1.1685508e-08 0)
(0.99995229 1.8803253e-08 0)
(0.99991491 2.4236388e-08 0)
(0.99987344 3.052082e-08 0)
(0.99982731 3.8402214e-08 0)
(0.99977621 4.8044407e-08 0)
(0.99971997 5.9816189e-08 0)
(0.99965823 7.4362465e-08 0)
(0.9995904 9.2510137e-08 0)
(0.99951567 1.1528587e-07 0)
(0.99943304 1.4405004e-07 0)
(0.99934119 1.8067573e-07 0)
(0.99923837 2.2790681e-07 0)
(0.99912209 2.8958935e-07 0)
(0.998989 3.7261502e-07 0)
(0.99883332 4.8480612e-07 0)
(0.99864872 6.5392658e-07 0)
(0.99841506 8.8038864e-07 0)
(0.99812986 1.3685681e-06 0)
(0.99766824 1.8765326e-06 0)
(0.99716067 5.8526874e-06 0)
(0.99481833 4.5225218e-06 0)
(0.99497105 0.0017114933 -6.6401425e-54)
(0.37077086 0.0018985529 1.1145702e-53)
(0.22069177 0.00019302031 -6.1536231e-19)
(0.21414605 6.7299153e-06 0)
(0.21367878 4.7847863e-06 -3.7485938e-20)
(0.20927054 1.0273569e-05 0)
(0.20378479 1.0919058e-05 0)