/*--------------------------------*- C++ -*----------------------------------*\
  =========                 |
  \\      /  F ield         | OpenFOAM: The Open Source CFD Toolbox
   \\    /   O peration     | Website:  https://openfoam.org
    \\  /    A nd           | Version:  12
     \\/     M anipulation  |
\*---------------------------------------------------------------------------*/
FoamFile
{
    format      ascii;
    class       volVectorField;
    location    "400";
    object      wallShearStress;
}
// * * * * * * * * * * * * * * * * * * * * * * * * * * * * * * * * * * * * * //

dimensions      [0 2 -2 0 0 0 0];

internalField   uniform (0 0 0);

boundaryField
{
    bottom
    {
        type            calculated;
        value           nonuniform List<vector> 
112
(
(-0.0052406626 -3.4986952e-05 0)
(-0.0025722167 -5.6896613e-07 7.1530517e-19)
(-0.0025005846 -8.3913652e-09 8.9467633e-19)
(-0.0024995984 -5.9110067e-09 -3.1928142e-19)
(-0.0024481254 -1.3109899e-08 0)
(-0.0023834749 -1.3996726e-08 0)
(-0.0023233141 -1.2454631e-08 0)
(-0.0022714472 -1.0653329e-08 0)
(-0.0022265289 -9.2057846e-09 0)
(-0.0021869674 -8.0749249e-09 -8.6069747e-19)
(-0.0021516767 -7.1631469e-09 0)
(-0.0021198769 -6.4645681e-09 -6.8900681e-19)
(-0.0020904769 -5.9213461e-09 6.3110754e-19)
(-0.0020632048 -5.4399808e-09 -5.7980413e-19)
(-0.0020378256 -5.0066301e-09 0)
(-0.0020141898 -4.6113218e-09 4.914772e-19)
(-0.0019921469 -4.2596279e-09 0)
(-0.0019714834 -3.9517187e-09 -2.1059001e-19)
(-0.001952036 -3.677371e-09 0)
(-0.0019336828 -3.4338853e-09 -3.6598717e-19)
(-0.0019162797 -3.2170686e-09 3.4288431e-19)
(-0.0018997377 -3.0206775e-09 0)
(-0.0018839738 -2.8409628e-09 0)
(-0.0018689305 -2.6758477e-09 0)
(-0.001854543 -2.5265013e-09 -2.6926809e-19)
(-0.0018407391 -2.3879033e-09 0)
(-0.0018275007 -2.2594452e-09 0)
(-0.0018147612 -2.1444245e-09 0)
(-0.0018024631 -2.0367254e-09 0)
(-0.0017906025 -1.9352424e-09 -2.0626335e-19)
(-0.0017791345 -1.8433704e-09 1.9646014e-19)
(-0.0017680134 -1.7572631e-09 0)
(-0.0017572354 -1.6751099e-09 0)
(-0.0017467758 -1.6001501e-09 0)
(-0.0017365891 -1.5310076e-09 1.6316386e-19)
(-0.0017266656 -1.4639735e-09 0)
(-0.0017170039 -1.4006992e-09 0)
(-0.0017075728 -1.3431553e-09 -1.4314876e-19)
(-0.0016983435 -1.2887284e-09 0)
(-0.0016893172 -1.2373246e-09 0)
(-0.0016804632 -1.1902426e-09 0)
(-0.0016717639 -1.145335e-09 1.2206632e-19)
(-0.0016632193 -1.1011265e-09 -5.8675507e-20)
(-0.0016548316 -1.0578126e-09 1.1273961e-19)
(-0.0016465974 -1.0167717e-09 0)
(-0.0016384977 -9.7863236e-10 0)
(-0.0016305185 -9.4218026e-10 -1.5062162e-19)
(-0.001622658 -9.0681122e-10 0)
(-0.0016149111 -8.7307267e-10 9.3055605e-20)
(-0.0016072661 -8.4122539e-10 0)
(-0.0015997131 -8.1079893e-10 0)
(-0.0015922471 -7.815076e-10 -4.1646868e-20)
(-0.0015848625 -7.53194e-10 -4.0140022e-20)
(-0.0015775558 -7.2606057e-10 0)
(-0.0015703174 -7.0019393e-10 -7.4631858e-20)
(-0.0015631421 -6.751866e-10 0)
(-0.0015560265 -6.510616e-10 0)
(-0.0015489641 -6.2791484e-10 0)
(-0.0015419489 -6.0553434e-10 0)
(-0.0015349791 -5.8385075e-10 0)
(-0.0015280488 -5.6311527e-10 0)
(-0.0015211497 -5.4308302e-10 0)
(-0.0015142806 -5.2352832e-10 0)
(-0.0015074384 -5.0460013e-10 0)
(-0.0015006183 -4.863352e-10 -5.1845583e-20)
(-0.0014938147 -4.687289e-10 0)
(-0.001487022 -4.5163368e-10 -2.4074795e-20)
(-0.0014802381 -4.3488513e-10 0)
(-0.0014734623 -4.186508e-10 -2.231687e-20)
(-0.0014666864 -4.0315621e-10 4.2982371e-20)
(-0.0014599013 -3.8815339e-10 4.1384516e-20)
(-0.0014531057 -3.7333924e-10 -1.9902968e-20)
(-0.0014463009 -3.5890638e-10 0)
(-0.0014394783 -3.4518907e-10 0)
(-0.0014326254 -3.3202768e-10 3.5399795e-20)
(-0.0014257371 -3.1894474e-10 -3.4007947e-20)
(-0.0014188197 -3.0603781e-10 0)
(-0.001411865 -2.9369398e-10 0)
(-0.0014048607 -2.8177191e-10 -3.0045695e-20)
(-0.001397803 -2.69971e-10 0)
(-0.0013906938 -2.5844333e-10 0)
(-0.001383521 -2.47456e-10 0)
(-0.0013762698 -2.3675716e-10 0)
(-0.0013689404 -2.2615611e-10 0)
(-0.0013615285 -2.1589056e-10 0)
(-0.0013540178 -2.0600982e-10 0)
(-0.0013463983 -1.9626565e-10 0)
(-0.0013386695 -1.8670633e-10 1.9905679e-20)
(-0.0013308162 -1.7761793e-10 -1.8936022e-20)
(-0.0013229907 -1.689697e-10 0)
(-0.001315454 -1.6089042e-10 0)
(-0.001308268 -1.5382483e-10 0)
(-0.0013013783 -1.4728687e-10 0)
(-0.0012947911 -1.4085683e-10 0)
(-0.0012884903 -1.3489157e-10 0)
(-0.0012824494 -1.294767e-10 0)
(-0.0012766444 -1.2446548e-10 0)
(-0.0012710624 -1.1970408e-10 -1.2754157e-20)
(-0.0012656936 -1.1522908e-10 0)
(-0.0012605215 -1.1113337e-10 0)
(-0.0012555277 -1.0737382e-10 0)
(-0.0012506998 -1.03806e-10 0)
(-0.0012460328 -1.0038816e-10 0)
(-0.0012415181 -9.7194166e-11 0)
(-0.0012371436 -9.4322244e-11 0)
(-0.0012328917 -9.167581e-11 0)
(-0.0012287596 -8.949583e-11 0)
(-0.0012247073 -8.7039826e-11 0)
(-0.0012208012 -8.6905621e-11 0)
(-0.0012167597 -1.4982575e-10 0)
(-0.001213193 -1.0189032e-10 -1.0929498e-20)
(-0.0012073925 -1.1513863e-10 0)
)
;
    }
    back
    {
        type            empty;
    }
    front
    {
        type            empty;
    }
    inlet
    {
        type            calculated;
        value           uniform (0 0 0);
    }
    outlet
    {
        type            calculated;
        value           uniform (0 0 0);
    }
    top
    {
        type            calculated;
        value           uniform (0 0 0);
    }
    slipsurface
    {
        type            calculated;
        value           uniform (0 0 0);
    }
}


// ************************************************************************* //
