/*--------------------------------*- C++ -*----------------------------------*\
  =========                 |
  \\      /  F ield         | OpenFOAM: The Open Source CFD Toolbox
   \\    /   O peration     | Website:  https://openfoam.org
    \\  /    A nd           | Version:  12
     \\/     M anipulation  |
\*---------------------------------------------------------------------------*/
FoamFile
{
    format      ascii;
    class       volScalarField;
    location    "400";
    object      yPlus;
}
// * * * * * * * * * * * * * * * * * * * * * * * * * * * * * * * * * * * * * //

dimensions      [];

internalField   uniform 0;

boundaryField
{
    inlet
    {
        type            calculated;
        value           uniform 0;
    }
    top
    {
        type            calculated;
        value           uniform 0;
    }
    outlet
    {
        type            calculated;
        value           uniform 0;
    }
    slipsurface
    {
        type            calculated;
        value           uniform 0;
    }
    bottom
    {
        type            calculated;
        value           nonuniform List<scalar> 
100
(
1.0855311
1.0723471
1.0593932
1.0482483
1.0403175
1.0367367
1.0388581
1.0446371
1.0556789
1.066984
1.1020797
1.1005276
8.1104211
41.988139
67.281406
83.769658
93.460442
98.418983
100.96694
100.87678
100.33641
99.326976
98.07235
96.73024
95.353783
93.969978
92.604916
91.29574
90.081028
88.946893
87.89475
86.931219
86.060688
85.283004
84.593583
83.985033
83.447674
82.972136
82.552177
82.183129
81.85837
81.569803
81.310216
81.072332
80.853078
80.642924
80.439977
80.240986
80.042742
79.843119
79.63979
79.429963
79.211794
78.985163
78.751306
78.511949
78.268766
78.023483
77.777647
77.532279
77.287878
77.044699
76.803083
76.56361
76.32685
76.09312
75.862732
75.635921
75.412468
75.191792
74.973458
74.757424
74.543812
74.332696
74.124259
73.918708
73.715864
73.515294
73.316733
73.120198
72.925787
72.733677
72.544006
72.356569
72.171013
71.987245
71.805269
71.625214
71.447223
71.271101
71.096565
70.923533
70.75207
70.582088
70.413794
70.245572
70.080745
69.906121
69.75803
69.486641
)
;
    }
    frontandback
    {
        type            empty;
    }
}


// ************************************************************************* //
