/*--------------------------------*- C++ -*----------------------------------*\
  =========                 |
  \\      /  F ield         | OpenFOAM: The Open Source CFD Toolbox
   \\    /   O peration     | Website:  https://openfoam.org
    \\  /    A nd           | Version:  12
     \\/     M anipulation  |
\*---------------------------------------------------------------------------*/
FoamFile
{
    format      ascii;
    class       volScalarField;
    location    "1100";
    object      k;
}
// * * * * * * * * * * * * * * * * * * * * * * * * * * * * * * * * * * * * * //

dimensions      [0 2 -2 0 0 0 0];

internalField   nonuniform List<scalar> 
7480
(
9.1320696e-06
9.5179386e-06
1.033669e-05
1.2715269e-05
0.0017676018
0.0035112261
0.0049554584
0.0060289559
0.0067627068
0.0072238054
0.0074852023
0.0076042255
0.0076237856
0.0075751618
0.0074809929
0.0073574438
0.0072161027
0.0070661222
0.0069172653
0.0067705055
0.0066277467
0.0064894822
0.0063578216
0.0062346767
0.0061213263
0.0060185438
0.0059266083
0.005845313
0.0057740848
0.0057121028
0.005658383
0.0056119023
0.0055717785
0.0055372804
0.0055075335
0.0054815207
0.0054581739
0.0054366024
0.005416159
0.0053963861
0.0053768745
0.0053572537
0.0053372384
0.0053166166
0.005295284
0.0052732017
0.0052503311
0.0052265365
0.0052016869
0.0051757987
0.0051490007
0.0051214167
0.0050931485
0.0050643614
0.0050353076
0.0050061929
0.0049770861
0.0049479988
0.0049189898
0.0048901519
0.004861527
0.0048331402
0.0048050639
0.0047773724
0.0047500699
0.0047231498
0.0046966156
0.0046704278
0.0046445182
0.0046188782
0.0045935477
0.0045685217
0.0045438012
0.0045194446
0.0044954267
0.0044716814
0.0044482119
0.0044250034
0.0044020332
0.0043793438
0.0043569502
0.0043348256
0.0043129722
0.0042913592
0.0042699587
0.0042487943
0.0042278774
0.0042072077
0.0041867652
0.0041665263
0.0041464971
0.0041266708
0.0041070557
0.0040876244
0.0040683967
0.004049158
0.0040305917
0.004010754
0.0039932941
0.0039668021
8.947939e-06
8.8222239e-06
8.706769e-06
8.6318677e-06
4.7739502e-05
0.00014931582
0.00031207647
0.00052025119
0.0007516908
0.00098615507
0.0012045605
0.0013985173
0.0015688281
0.0017226153
0.0018691727
0.0020188632
0.0021844687
0.0023870699
0.0026128616
0.0028404754
0.0030741613
0.0033132142
0.0035546308
0.003795004
0.0040309514
0.0042582241
0.0044728388
0.0046715054
0.0048516554
0.0050115962
0.0051506835
0.0052695045
0.0053698524
0.0054548587
0.005525001
0.0055800522
0.0056198842
0.0056465322
0.005661604
0.0056665283
0.0056628798
0.0056523298
0.0056363258
0.0056158248
0.0055916407
0.0055645141
0.0055351396
0.0055041156
0.0054719529
0.0054393202
0.0054068197
0.0053748741
0.0053437469
0.0053136234
0.0052846641
0.005256755
0.0052295104
0.0052027348
0.0051763865
0.0051505312
0.0051252686
0.005100649
0.0050766257
0.0050530993
0.0050299887
0.0050072079
0.0049844582
0.0049615929
0.0049386595
0.0049157779
0.004893065
0.0048706013
0.0048484116
0.0048264985
0.0048047278
0.004782971
0.0047612086
0.0047395156
0.0047179881
0.0046966784
0.0046756217
0.0046547477
0.0046339495
0.0046132103
0.0045925865
0.0045721311
0.0045518912
0.0045318393
0.0045119012
0.004492056
0.004472336
0.0044527865
0.0044334294
0.0044141974
0.0043950983
0.0043759901
0.0043573283
0.0043378187
0.0043221294
0.0042880692
8.9433899e-06
8.809667e-06
8.6758645e-06
8.5428095e-06
9.0513491e-06
1.1697493e-05
1.865496e-05
3.194641e-05
5.2805604e-05
8.1720731e-05
0.00011804508
0.00016044817
0.00020748342
0.00025789439
0.00031073507
0.00036554358
0.0004226383
0.00048390802
0.0005488382
0.00061892809
0.00069625767
0.00078457934
0.00088741575
0.0010087708
0.0011534077
0.0013105397
0.0014770819
0.0016535396
0.0018399532
0.0020359225
0.0022406902
0.0024535015
0.0026715648
0.0028850576
0.0030921735
0.0032899214
0.0034739374
0.0036411065
0.0037923055
0.0039272155
0.0040469542
0.0041528268
0.0042443124
0.0043204764
0.004383106
0.0044339287
0.0044746777
0.004504009
0.0045255315
0.0045413118
0.0045525597
0.0045601035
0.0045647034
0.0045672289
0.0045683724
0.0045683688
0.004567175
0.0045648269
0.00456154
0.0045576146
0.0045532603
0.0045485498
0.004543438
0.0045378556
0.0045318053
0.0045252463
0.0045178164
0.0045095359
0.0045005984
0.0044911998
0.0044814688
0.0044714661
0.0044612161
0.0044507369
0.0044398007
0.0044283152
0.004416372
0.004404111
0.0043916619
0.0043790914
0.0043664347
0.0043535655
0.0043403757
0.0043269029
0.004313262
0.0042995375
0.0042857879
0.0042719517
0.0042579382
0.0042437631
0.0042294979
0.0042152129
0.0042009295
0.0041865638
0.0041720976
0.0041575458
0.0041430704
0.0041280328
0.0041154979
0.0040889114
8.9432842e-06
8.8092246e-06
8.675066e-06
8.5409187e-06
8.4160091e-06
8.3325971e-06
8.3606483e-06
8.6167244e-06
9.2641979e-06
1.0526221e-05
1.2643212e-05
1.5842674e-05
2.031516e-05
2.6203836e-05
3.3610435e-05
4.2608896e-05
5.3273875e-05
6.5755779e-05
8.0216024e-05
9.6858008e-05
0.00011593028
0.00013783082
0.00016312252
0.00019257381
0.00022725098
0.00026786015
0.0003151459
0.00037021343
0.00043469837
0.00051096536
0.00060237998
0.00071355696
0.0008429204
0.00098580793
0.0011432143
0.0013165045
0.0015063058
0.0017099898
0.0019169683
0.002122724
0.0023236089
0.0025166282
0.0026988029
0.0028687101
0.0030249977
0.0031666083
0.0032942653
0.0034084125
0.0035095256
0.0035960868
0.0036701797
0.0037337203
0.0037885783
0.0038367169
0.0038791552
0.0039154773
0.0039457859
0.0039717574
0.0039945593
0.004015032
0.0040334994
0.004050044
0.004064708
0.004077647
0.0040890985
0.0040991315
0.0041076337
0.0041146276
0.0041203187
0.0041249114
0.004128528
0.0041312139
0.0041330126
0.0041339816
0.0041338871
0.0041327408
0.0041307214
0.0041279911
0.0041246741
0.0041208391
0.0041165272
0.0041115679
0.0041059032
0.0040996435
0.0040929319
0.0040858634
0.0040785015
0.0040707492
0.0040625265
0.0040538979
0.0040449668
0.0040358153
0.0040264559
0.0040167894
0.0040068053
0.0039966101
0.003986234
0.0039753757
0.0039660482
0.0039455128
8.9432924e-06
8.8092233e-06
8.6750779e-06
8.5409292e-06
8.4069636e-06
8.2738181e-06
8.1431588e-06
8.01849e-06
7.9059645e-06
7.8156157e-06
7.7621059e-06
7.7653358e-06
7.8505486e-06
8.0482322e-06
8.3942477e-06
8.9298145e-06
9.7018467e-06
1.0764418e-05
1.2180609e-05
1.4021818e-05
1.6366602e-05
1.9308493e-05
2.2963651e-05
2.747862e-05
3.3049792e-05
3.9923986e-05
4.8389297e-05
5.8797586e-05
7.1600758e-05
8.7398729e-05
0.00010700816
0.0001315846
0.0001623994
0.00020071312
0.00024821717
0.00030732762
0.00038145715
0.00047524998
0.00059229983
0.00072594164
0.00087562454
0.001040163
0.0012193561
0.0014080723
0.001600082
0.0017911951
0.0019777157
0.0021564346
0.0023251322
0.0024838238
0.0026300238
0.002763169
0.0028842642
0.0029953025
0.0030953656
0.0031835708
0.0032610052
0.0033294725
0.0033909321
0.0034465799
0.0034967037
0.0035417621
0.003582354
0.0036192298
0.0036529197
0.0036833626
0.0037100831
0.003733986
0.0037556367
0.0037753289
0.0037931763
0.003809232
0.0038236369
0.0038365174
0.003847859
0.0038577117
0.0038662276
0.0038735574
0.0038798152
0.0038850737
0.0038893877
0.0038926013
0.0038947498
0.0038959946
0.0038964754
0.0038962843
0.0038954854
0.0038939587
0.0038916671
0.0038887293
0.0038852649
0.0038813562
0.003877003
0.0038720979
0.0038666668
0.003860867
0.0038546764
0.0038479412
0.0038421583
0.0038264367
8.943315e-06
8.8092556e-06
8.6751204e-06
8.5409731e-06
8.406876e-06
8.2728997e-06
8.1391362e-06
8.0057272e-06
7.8729071e-06
7.7410657e-06
7.6108304e-06
7.4831665e-06
7.3594844e-06
7.2417462e-06
7.1325891e-06
7.035444e-06
6.9546813e-06
6.8958057e-06
6.8657684e-06
6.8732075e-06
6.9284782e-06
7.0442539e-06
7.2364815e-06
7.5254368e-06
7.9381655e-06
8.5105065e-06
9.2884667e-06
1.0331597e-05
1.1718967e-05
1.355689e-05
1.5989346e-05
1.9218597e-05
2.3520841e-05
2.9267137e-05
3.6954697e-05
4.727296e-05
6.119564e-05
8.0103867e-05
0.00010585776
0.00014011806
0.00018485549
0.00024252435
0.00031659597
0.00041009597
0.00052525906
0.00065790307
0.00080705398
0.00097010716
0.0011440007
0.0013215686
0.0014991614
0.0016733589
0.00184147
0.0020018235
0.0021552544
0.002299558
0.0024330397
0.0025557721
0.0026692705
0.0027736454
0.0028674317
0.0029520366
0.0030288291
0.0030992028
0.0031636562
0.003222094
0.0032745017
0.0033218994
0.0033652187
0.0034048145
0.0034409056
0.0034737854
0.0035038678
0.0035313995
0.0035560423
0.0035782246
0.0035983716
0.0036167144
0.0036333747
0.003648443
0.0036620086
0.0036740978
0.0036847927
0.0036942201
0.0037024984
0.0037097214
0.0037159545
0.0037210997
0.0037251932
0.0037283861
0.0037307918
0.0037324871
0.0037334629
0.0037336245
0.0037330515
0.0037319231
0.0037301897
0.0037277717
0.003725899
0.003714717
8.943347e-06
8.8092925e-06
8.6751587e-06
8.5410107e-06
8.4069114e-06
8.272923e-06
8.1391064e-06
8.0055218e-06
7.8722325e-06
7.7393067e-06
7.6068208e-06
7.4748641e-06
7.3435522e-06
7.2130297e-06
7.083484e-06
6.9551603e-06
6.82838e-06
6.7035611e-06
6.5812485e-06
6.4621447e-06
6.3471305e-06
6.237307e-06
6.1340676e-06
6.0391832e-06
5.9549722e-06
5.8845068e-06
5.8317932e-06
5.802133e-06
5.8027033e-06
5.8433989e-06
5.93804e-06
6.1066528e-06
6.3786533e-06
6.7966911e-06
7.422891e-06
8.3498298e-06
9.7174614e-06
1.1738335e-05
1.4737981e-05
1.9173736e-05
2.5685528e-05
3.51695e-05
4.8897871e-05
6.8549503e-05
9.628605e-05
0.00013421965
0.00018481792
0.00025107201
0.00033685605
0.00044291746
0.00056604777
0.00070561025
0.00085926398
0.0010229446
0.0011887999
0.0013542342
0.0015166627
0.001674019
0.0018249737
0.0019707709
0.0021091409
0.0022387151
0.0023596719
0.0024731569
0.0025783088
0.0026739965
0.0027610548
0.0028407499
0.0029140112
0.0029807465
0.0030414224
0.0030968464
0.0031477703
0.0031944987
0.0032368555
0.0032752925
0.0033104514
0.0033426982
0.003372226
0.0033992471
0.0034239938
0.0034463269
0.0034665682
0.0034850124
0.0035018238
0.0035171179
0.0035309639
0.0035433997
0.0035545156
0.0035644269
0.003573229
0.0035809993
0.0035877375
0.0035933993
0.0035981093
0.0036020397
0.0036051247
0.0036073256
0.0036097696
0.003603186
8.9433891e-06
8.80934e-06
8.6752099e-06
8.5410647e-06
8.4069674e-06
8.2729794e-06
8.139161e-06
8.0055709e-06
7.8722685e-06
7.7393136e-06
7.6067658e-06
7.4746853e-06
7.3431319e-06
7.2121678e-06
7.0818546e-06
6.952257e-06
6.8234425e-06
6.6954837e-06
6.5684608e-06
6.4424639e-06
6.3175962e-06
6.1939766e-06
6.0717461e-06
5.9510738e-06
5.8321687e-06
5.7152949e-06
5.6007861e-06
5.489071e-06
5.3807137e-06
5.2764725e-06
5.1773848e-06
5.0849214e-06
5.0012177e-06
4.9293726e-06
4.8739319e-06
4.8417421e-06
4.8433701e-06
4.8954156e-06
5.0249866e-06
5.2758988e-06
5.717657e-06
6.4621748e-06
7.6909791e-06
9.6928127e-06
1.2916071e-05
1.8015393e-05
2.5932889e-05
3.8005372e-05
5.6116564e-05
8.254499e-05
0.00011955453
0.0001697673
0.00023635788
0.00032383652
0.00042946308
0.00055121763
0.00068816458
0.00083775335
0.00099520192
0.0011515795
0.0013065271
0.0014583998
0.001605929
0.0017488111
0.001887575
0.002019698
0.0021442321
0.0022614895
0.0023720874
0.0024731947
0.0025658905
0.002651383
0.0027304251
0.0028029673
0.0028690426
0.0029293193
0.0029845702
0.0030351494
0.0030813899
0.0031237685
0.0031627461
0.0031982682
0.0032306357
0.003260291
0.0032875329
0.0033125413
0.0033354581
0.0033562511
0.0033751736
0.0033924634
0.0034082461
0.0034226171
0.0034356228
0.0034473277
0.0034578296
0.003467274
0.0034755939
0.0034827835
0.0034900058
0.0034882132
8.9434379e-06
8.8093953e-06
8.6752698e-06
8.5411276e-06
8.4070315e-06
8.2730431e-06
8.139223e-06
8.0056309e-06
7.8723263e-06
7.7393689e-06
7.6068181e-06
7.4747329e-06
7.3431718e-06
7.2121928e-06
7.0818531e-06
6.9522087e-06
6.8233151e-06
6.6952263e-06
6.5679958e-06
6.4416766e-06
6.3163209e-06
6.1919804e-06
6.0687065e-06
5.9465512e-06
5.8255674e-06
5.7058108e-06
5.5873402e-06
5.4702198e-06
5.3545212e-06
5.2403281e-06
5.1277413e-06
5.016889e-06
4.9079418e-06
4.8011321e-06
4.6967849e-06
4.5953707e-06
4.4975935e-06
4.404533e-06
4.3179249e-06
4.2406007e-06
4.1771265e-06
4.1350453e-06
4.1270722e-06
4.1749166e-06
4.3162114e-06
4.6154379e-06
5.1823238e-06
6.2040675e-06
7.9969191e-06
1.1066552e-05
1.6169133e-05
2.4410264e-05
3.7370994e-05
5.7381027e-05
8.6822701e-05
0.00012818171
0.00018436918
0.00025927042
0.00035529513
0.00046716826
0.00059366645
0.00073300319
0.0008814598
0.0010325531
0.0011806313
0.0013268972
0.0014702253
0.0016094782
0.0017461107
0.0018773856
0.0020020149
0.0021200124
0.0022319004
0.0023355522
0.0024310413
0.0025192942
0.0026008685
0.0026756273
0.0027440465
0.0028068749
0.0028647067
0.0029175345
0.0029657252
0.0030098906
0.0030504423
0.0030876597
0.0031218586
0.003153132
0.0031817293
0.0032079678
0.0032320946
0.0032542677
0.0032745254
0.0032929377
0.0033097891
0.0033252401
0.00333924
0.0033518464
0.0033643848
0.0033675833
8.9434918e-06
8.8094563e-06
8.6753356e-06
8.5411964e-06
8.4071017e-06
8.2731133e-06
8.1392923e-06
8.0056987e-06
7.8723923e-06
7.7394329e-06
7.6068798e-06
7.474792e-06
7.3432282e-06
7.2122461e-06
7.0819028e-06
6.9522542e-06
6.823355e-06
6.6952588e-06
6.5680177e-06
6.4416828e-06
6.3163036e-06
6.1919278e-06
6.0686017e-06
5.9463697e-06
5.8252749e-06
5.7053587e-06
5.5866617e-06
5.4692227e-06
5.3530792e-06
5.2382681e-06
5.1248254e-06
5.0127873e-06
4.9021909e-06
4.7930759e-06
4.6854862e-06
4.5794727e-06
4.4750991e-06
4.3724501e-06
4.2716478e-06
4.1728787e-06
4.0764326e-06
3.9827764e-06
3.8926878e-06
3.807494e-06
3.7295222e-06
3.6628673e-06
3.6147252e-06
3.5979532e-06
3.6358471e-06
3.7707691e-06
4.0786306e-06
4.6943256e-06
5.8562045e-06
7.9842965e-06
1.1742305e-05
1.8135153e-05
2.8631215e-05
4.5389978e-05
7.1226229e-05
0.00010870707
0.00016064056
0.00023077342
0.00032132687
0.00042992313
0.0005520749
0.00068615488
0.00082866278
0.00097501927
0.0011173703
0.0012584773
0.001397343
0.0015327938
0.0016662063
0.00179509
0.0019180865
0.0020349994
0.0021460851
0.0022489964
0.0023442369
0.0024325619
0.002514373
0.0025894162
0.0026582326
0.0027214553
0.00277943
0.0028325515
0.0028813616
0.0029261074
0.0029670213
0.0030045275
0.0030390308
0.0030707779
0.0030999015
0.0031265299
0.003150992
0.0031735269
0.0031941826
0.0032129199
0.0032314129
0.0032396465
8.94355e-06
8.8095218e-06
8.6754063e-06
8.5412703e-06
8.4071773e-06
8.2731892e-06
8.1393674e-06
8.0057723e-06
7.872464e-06
7.7395023e-06
7.6069468e-06
7.4748566e-06
7.3432902e-06
7.2123056e-06
7.0819597e-06
6.9523084e-06
6.8234066e-06
6.6953076e-06
6.5680637e-06
6.4417257e-06
6.316343e-06
6.1919633e-06
6.0686325e-06
5.9463947e-06
5.8252923e-06
5.7053662e-06
5.5866556e-06
5.4691978e-06
5.3530284e-06
5.2381811e-06
5.1246876e-06
5.0125783e-06
4.9018815e-06
4.7926245e-06
4.6848329e-06
4.5785307e-06
4.473741e-06
4.3704863e-06
4.2687895e-06
4.1686756e-06
4.0701742e-06
3.9733234e-06
3.8781771e-06
3.7848196e-06
3.6933919e-06
3.6041382e-06
3.5174875e-06
3.43421e-06
3.3557166e-06
3.2846345e-06
3.2258491e-06
3.1884004e-06
3.1891952e-06
3.2605712e-06
3.4633069e-06
3.9101651e-06
4.8086917e-06
6.5379113e-06
9.7503791e-06
1.5468098e-05
2.5203848e-05
4.1207444e-05
6.6403309e-05
0.00010385946
0.00015641374
0.00022801446
0.00031907927
0.00042884822
0.00055099991
0.00068328176
0.00082223072
0.00096395696
0.0011019205
0.0012382376
0.0013727284
0.0015045757
0.0016345074
0.0017599511
0.0018798256
0.0019940982
0.00210243
0.002202772
0.0022959996
0.0023825289
0.0024622803
0.002535627
0.0026031712
0.0026652195
0.0027220125
0.0027740691
0.0028218894
0.0028657986
0.0029061013
0.0029430304
0.0029769203
0.0030081148
0.0030368252
0.0030629725
0.0030886108
0.0031028895
8.9436115e-06
8.8095908e-06
8.6754808e-06
8.5413483e-06
8.4072571e-06
8.2732695e-06
8.139447e-06
8.0058506e-06
7.8725405e-06
7.7395767e-06
7.6070188e-06
7.4749261e-06
7.3433572e-06
7.2123699e-06
7.0820213e-06
6.9523672e-06
6.8234625e-06
6.6953606e-06
6.5681138e-06
6.4417729e-06
6.3163873e-06
6.1920046e-06
6.0686709e-06
5.9464301e-06
5.8253249e-06
5.705396e-06
5.5866825e-06
5.4692218e-06
5.3530492e-06
5.2381982e-06
5.1247004e-06
5.0125858e-06
4.9018822e-06
4.792616e-06
4.6848117e-06
4.5784916e-06
4.4736764e-06
4.3703848e-06
4.2686335e-06
4.168438e-06
4.0698125e-06
3.9727696e-06
3.877321e-06
3.7834784e-06
3.6912551e-06
3.6006689e-06
3.5117465e-06
3.4245325e-06
3.3391072e-06
3.2556208e-06
3.1743584e-06
3.0958584e-06
3.021147e-06
2.9522207e-06
2.8929723e-06
2.8509354e-06
2.8407358e-06
2.8912491e-06
3.0596261e-06
3.4568595e-06
4.2949499e-06
5.9745562e-06
9.204784e-06
1.5148371e-05
2.5534505e-05
4.2972767e-05
7.0580603e-05
0.00011183944
0.00016987698
0.00024769032
0.00034436118
0.00045870837
0.00058360309
0.00071571259
0.00085217002
0.0009894655
0.0011229072
0.001255131
0.001385406
0.0015140712
0.0016400069
0.0017612471
0.0018771989
0.0019878817
0.0020915032
0.0021878929
0.0022775396
0.0023605575
0.0024370036
0.0025073549
0.0025720526
0.0026314231
0.0026859406
0.0027359576
0.0027817949
0.0028238955
0.0028626516
0.0028979903
0.0029323724
0.0029543822
8.9436758e-06
8.8096626e-06
8.6755582e-06
8.5414294e-06
8.4073403e-06
8.2733533e-06
8.1395304e-06
8.0059328e-06
7.872621e-06
7.7396551e-06
7.6070949e-06
7.4749998e-06
7.3434282e-06
7.2124382e-06
7.0820867e-06
6.9524298e-06
6.8235221e-06
6.6954173e-06
6.5681675e-06
6.4418237e-06
6.3164351e-06
6.1920495e-06
6.0687129e-06
5.9464694e-06
5.8253615e-06
5.70543e-06
5.5867141e-06
5.469251e-06
5.3530761e-06
5.238223e-06
5.1247233e-06
5.0126067e-06
4.9019013e-06
4.7926333e-06
4.6848271e-06
4.5785049e-06
4.4736873e-06
4.3703926e-06
4.2686373e-06
4.1684364e-06
4.069803e-06
3.9727484e-06
3.8772817e-06
3.7834107e-06
3.6911413e-06
3.6004786e-06
3.5114263e-06
3.4239876e-06
3.3381663e-06
3.2539683e-06
3.1714064e-06
3.0905066e-06
3.0113219e-06
2.9339614e-06
2.8586482e-06
2.7858297e-06
2.7164001e-06
2.6521654e-06
2.5968073e-06
2.5577892e-06
2.5501905e-06
2.6049416e-06
2.7855619e-06
3.2211381e-06
4.1671464e-06
6.1213538e-06
9.9685424e-06
1.7175648e-05
2.9955366e-05
5.1389999e-05
8.4923053e-05
0.00013436277
0.00020332298
0.00029111253
0.00039695558
0.0005175495
0.00064500258
0.00077688649
0.00091097806
0.0010433046
0.0011726825
0.0013010615
0.0014277453
0.0015528929
0.0016741946
0.0017905746
0.0019019657
0.0020073064
0.0021053962
0.0021966936
0.0022814294
0.0023595918
0.0024316368
0.0024979389
0.0025587693
0.0026146161
0.0026659906
0.0027128606
0.0027580763
0.0027900742
8.9437426e-06
8.8097368e-06
8.6756381e-06
8.5415132e-06
8.4074263e-06
8.2734402e-06
8.1396171e-06
8.0060184e-06
7.8727049e-06
7.739737e-06
7.6071746e-06
7.4750769e-06
7.3435027e-06
7.2125099e-06
7.0821556e-06
6.9524957e-06
6.8235851e-06
6.6954773e-06
6.5682245e-06
6.4418776e-06
6.3164859e-06
6.1920973e-06
6.0687577e-06
5.9465112e-06
5.8254005e-06
5.7054664e-06
5.5867479e-06
5.4692824e-06
5.3531052e-06
5.23825e-06
5.1247483e-06
5.0126299e-06
4.9019228e-06
4.7926533e-06
4.6848457e-06
4.5785222e-06
4.4737033e-06
4.3704075e-06
4.2686511e-06
4.168449e-06
4.0698144e-06
3.9727584e-06
3.87729e-06
3.7834168e-06
3.6911442e-06
3.6004767e-06
3.5114167e-06
3.4239652e-06
3.3381215e-06
3.2538839e-06
3.1712496e-06
3.0902154e-06
3.010778e-06
2.9329363e-06
2.8566943e-06
2.7820684e-06
2.7091004e-06
2.6378857e-06
2.5686337e-06
2.5017903e-06
2.4382881e-06
2.3800914e-06
2.3313685e-06
2.3009421e-06
2.307417e-06
2.3907344e-06
2.6359379e-06
3.2223729e-06
4.5178744e-06
7.2314887e-06
1.261176e-05
2.2684945e-05
4.0494889e-05
6.9521911e-05
0.00011355521
0.00017695678
0.00025972058
0.00036060452
0.00047710403
0.0006021438
0.00073072933
0.00086153589
0.00099212006
0.0011195075
0.0012454761
0.0013699538
0.0014936519
0.0016141525
0.0017300865
0.0018412565
0.0019468718
0.0020453106
0.0021370586
0.0022223515
0.0023010829
0.0023736458
0.0024405544
0.0025017323
0.0025602969
0.0026050184
8.9438114e-06
8.8098129e-06
8.67572e-06
8.541599e-06
8.4075145e-06
8.2735295e-06
8.1397063e-06
8.0061068e-06
7.8727918e-06
7.739822e-06
7.6072573e-06
7.4751572e-06
7.3435803e-06
7.2125848e-06
7.0822275e-06
6.9525647e-06
6.823651e-06
6.69554e-06
6.5682841e-06
6.4419341e-06
6.3165394e-06
6.1921477e-06
6.0688049e-06
5.9465555e-06
5.8254419e-06
5.705505e-06
5.5867839e-06
5.4693159e-06
5.3531364e-06
5.2382789e-06
5.1247752e-06
5.012655e-06
4.9019462e-06
4.7926751e-06
4.684866e-06
4.5785412e-06
4.4737211e-06
4.370424e-06
4.2686666e-06
4.1684636e-06
4.0698281e-06
3.9727711e-06
3.8773019e-06
3.7834278e-06
3.6911545e-06
3.6004861e-06
3.5114251e-06
3.4239723e-06
3.3381269e-06
3.2538867e-06
3.1712481e-06
3.0902062e-06
3.0107548e-06
2.9328864e-06
2.8565929e-06
2.7818657e-06
2.7086968e-06
2.6370798e-06
2.5670145e-06
2.4985137e-06
2.4316186e-06
2.366433e-06
2.303197e-06
2.2424464e-06
2.1853523e-06
2.1345005e-06
2.0956126e-06
2.0813124e-06
2.1195972e-06
2.2727242e-06
2.6777936e-06
3.6317444e-06
5.7500481e-06
1.0172109e-05
1.8809022e-05
3.4723833e-05
6.1580746e-05
0.00010326532
0.00016428121
0.00024514001
0.00034407933
0.00045828851
0.0005820266
0.00070844702
0.00083648014
0.00096482486
0.0010902101
0.0012137263
0.0013361319
0.0014581043
0.001577202
0.0016919868
0.0018021875
0.0019069968
0.002004757
0.002095911
0.0021807824
0.0022588761
0.0023333557
0.0023938522
8.9438822e-06
8.8098908e-06
8.6758036e-06
8.5416867e-06
8.4076047e-06
8.2736209e-06
8.1397979e-06
8.0061976e-06
7.8728813e-06
7.7399096e-06
7.6073427e-06
7.4752401e-06
7.3436607e-06
7.2126623e-06
7.0823022e-06
6.9526363e-06
6.8237195e-06
6.6956054e-06
6.5683463e-06
6.4419931e-06
6.3165952e-06
6.1922003e-06
6.0688545e-06
5.946602e-06
5.8254854e-06
5.7055457e-06
5.5868218e-06
5.4693513e-06
5.3531693e-06
5.2383096e-06
5.1248038e-06
5.0126816e-06
4.901971e-06
4.7926983e-06
4.6848876e-06
4.5785614e-06
4.47374e-06
4.3704417e-06
4.2686832e-06
4.1684792e-06
4.0698427e-06
3.9727849e-06
3.8773148e-06
3.7834399e-06
3.6911659e-06
3.6004967e-06
3.511435e-06
3.4239816e-06
3.3381356e-06
3.2538947e-06
3.1712553e-06
3.0902125e-06
3.0107599e-06
2.9328897e-06
2.8565931e-06
2.7818601e-06
2.7086799e-06
2.6370406e-06
2.5669297e-06
2.4983348e-06
2.4312442e-06
2.365649e-06
2.3015476e-06
2.2389559e-06
2.1779279e-06
2.118605e-06
2.0613274e-06
2.0068819e-06
1.9570717e-06
1.9160498e-06
1.8933696e-06
1.9110246e-06
2.0202374e-06
2.3386247e-06
3.1305567e-06
4.9759222e-06
8.9997918e-06
1.7144715e-05
3.2586246e-05
5.9237185e-05
0.00010115554
0.00016287471
0.00024461128
0.00034417937
0.00045804217
0.00058111546
0.00070589236
0.00083153933
0.0009574367
0.0010806492
0.0012019028
0.0013224863
0.0014425784
0.0015598324
0.0016729795
0.0017816208
0.00188483
0.0019808438
0.0020728939
0.0021518749
8.9439546e-06
8.8099702e-06
8.6758886e-06
8.5417758e-06
8.4076964e-06
8.273714e-06
8.1398913e-06
8.0062904e-06
7.8729729e-06
7.7399995e-06
7.6074305e-06
7.4753255e-06
7.3437434e-06
7.2127423e-06
7.0823792e-06
6.9527103e-06
6.8237903e-06
6.6956731e-06
6.5684108e-06
6.4420544e-06
6.3166532e-06
6.1922551e-06
6.068906e-06
5.9466504e-06
5.8255308e-06
5.7055882e-06
5.5868616e-06
5.4693884e-06
5.3532039e-06
5.2383419e-06
5.1248338e-06
5.0127096e-06
4.9019972e-06
4.7927228e-06
4.6849105e-06
4.5785829e-06
4.4737601e-06
4.3704606e-06
4.2687009e-06
4.1684958e-06
4.0698583e-06
3.9727995e-06
3.8773286e-06
3.7834529e-06
3.691178e-06
3.6005081e-06
3.5114458e-06
3.4239916e-06
3.338145e-06
3.2539035e-06
3.1712635e-06
3.0902202e-06
3.010767e-06
2.9328963e-06
2.856599e-06
2.7818653e-06
2.7086842e-06
2.6370433e-06
2.5669296e-06
2.4983293e-06
2.4312277e-06
2.3656094e-06
2.3014587e-06
2.2387605e-06
2.1775013e-06
2.1176719e-06
2.0592747e-06
2.0023394e-06
1.9469583e-06
1.8933727e-06
1.8421751e-06
1.7947804e-06
1.75459e-06
1.7297705e-06
1.7397989e-06
1.8319812e-06
2.1195276e-06
2.8668e-06
4.6745162e-06
8.7487612e-06
1.7211293e-05
3.3518197e-05
6.1861138e-05
0.00010651447
0.00017148886
0.00025667529
0.00035892023
0.00047378774
0.00059639623
0.00071972713
0.00084330699
0.00096672473
0.0010877243
0.001206865
0.0013258711
0.0014439688
0.0015591483
0.0016700857
0.001778951
0.0018771868
8.9440286e-06
8.8100509e-06
8.6759748e-06
8.5418661e-06
8.4077895e-06
8.2738086e-06
8.1399864e-06
8.0063851e-06
7.8730665e-06
7.7400915e-06
7.6075205e-06
7.4754131e-06
7.3438284e-06
7.2128245e-06
7.0824585e-06
6.9527865e-06
6.8238634e-06
6.6957429e-06
6.5684774e-06
6.4421177e-06
6.3167132e-06
6.1923118e-06
6.0689595e-06
5.9467007e-06
5.825578e-06
5.7056324e-06
5.586903e-06
5.469427e-06
5.35324e-06
5.2383756e-06
5.1248653e-06
5.012739e-06
4.9020247e-06
4.7927484e-06
4.6849346e-06
4.5786054e-06
4.4737812e-06
4.3704803e-06
4.2687195e-06
4.1685133e-06
4.0698748e-06
3.972815e-06
3.8773431e-06
3.7834665e-06
3.6911908e-06
3.6005202e-06
3.5114571e-06
3.4240023e-06
3.3381549e-06
3.2539128e-06
3.1712723e-06
3.0902283e-06
3.0107746e-06
2.9329033e-06
2.8566056e-06
2.7818714e-06
2.7086898e-06
2.6370484e-06
2.5669343e-06
2.4983333e-06
2.4312308e-06
2.3656109e-06
2.3014573e-06
2.238753e-06
2.1774806e-06
2.1176221e-06
2.0591599e-06
2.0020776e-06
1.9463619e-06
1.8920082e-06
1.8390332e-06
1.7875051e-06
1.737618e-06
1.6898767e-06
1.6455399e-06
1.6077586e-06
1.584414e-06
1.5950576e-06
1.6889862e-06
1.9888826e-06
2.7916804e-06
4.7868155e-06
9.3777288e-06
1.9048576e-05
3.7665826e-05
6.9741736e-05
0.00011976828
0.00019050488
0.00028107167
0.0003872175
0.00050366444
0.0006256157
0.00074747034
0.00086916723
0.000990142
0.0011089075
0.00122619
0.0013435952
0.0014617998
0.0015740393
8.9441041e-06
8.8101328e-06
8.6760621e-06
8.5419576e-06
8.4078838e-06
8.2739046e-06
8.1400829e-06
8.0064814e-06
7.8731618e-06
7.7401853e-06
7.6076123e-06
7.4755027e-06
7.3439154e-06
7.2129087e-06
7.0825398e-06
6.9528647e-06
6.8239384e-06
6.6958147e-06
6.5685459e-06
6.4421828e-06
6.316775e-06
6.1923702e-06
6.0690146e-06
5.9467526e-06
5.8256268e-06
5.7056782e-06
5.5869458e-06
5.4694671e-06
5.3532775e-06
5.2384106e-06
5.124898e-06
5.0127695e-06
4.9020533e-06
4.7927752e-06
4.6849597e-06
4.5786289e-06
4.4738032e-06
4.370501e-06
4.2687389e-06
4.1685316e-06
4.069892e-06
3.9728311e-06
3.8773583e-06
3.7834808e-06
3.6912043e-06
3.6005328e-06
3.5114689e-06
3.4240134e-06
3.3381654e-06
3.2539226e-06
3.1712814e-06
3.0902369e-06
3.0107826e-06
2.9329108e-06
2.8566125e-06
2.7818779e-06
2.7086958e-06
2.637054e-06
2.5669394e-06
2.498338e-06
2.4312351e-06
2.3656148e-06
2.3014607e-06
2.2387558e-06
2.1774824e-06
2.1176221e-06
2.0591561e-06
2.0020653e-06
1.9463303e-06
1.8919316e-06
1.8388511e-06
1.7870732e-06
1.7365896e-06
1.6874111e-06
1.6395961e-06
1.5933238e-06
1.5490837e-06
1.5081488e-06
1.473832e-06
1.4547518e-06
1.473156e-06
1.5872262e-06
1.9470104e-06
2.9275308e-06
5.4019559e-06
1.112636e-05
2.3175654e-05
4.5908031e-05
8.4096915e-05
0.00014226076
0.00022081422
0.00031789431
0.00042803614
0.00054599915
0.00066693351
0.00078720498
0.00090726262
0.0010255486
0.0011444175
0.0012604038
8.944181e-06
8.8102159e-06
8.6761505e-06
8.54205e-06
8.4079791e-06
8.2740016e-06
8.1401807e-06
8.0065791e-06
7.8732586e-06
7.7402807e-06
7.6077059e-06
7.475594e-06
7.3440042e-06
7.2129948e-06
7.0826229e-06
6.9529447e-06
6.8240153e-06
6.6958883e-06
6.5686162e-06
6.4422498e-06
6.3168386e-06
6.1924304e-06
6.0690715e-06
5.9468062e-06
5.8256772e-06
5.7057254e-06
5.5869901e-06
5.4695086e-06
5.3533163e-06
5.2384468e-06
5.1249319e-06
5.0128013e-06
4.9020829e-06
4.792803e-06
4.6849857e-06
4.5786533e-06
4.4738261e-06
4.3705225e-06
4.2687591e-06
4.1685506e-06
4.0699098e-06
3.972848e-06
3.8773741e-06
3.7834956e-06
3.6912182e-06
3.600546e-06
3.5114813e-06
3.424025e-06
3.3381763e-06
3.2539328e-06
3.171291e-06
3.0902458e-06
3.0107909e-06
2.9329185e-06
2.8566197e-06
2.7818846e-06
2.708702e-06
2.6370598e-06
2.5669447e-06
2.498343e-06
2.4312396e-06
2.365619e-06
2.3014646e-06
2.2387593e-06
2.1774856e-06
2.1176249e-06
2.0591585e-06
2.002067e-06
1.9463307e-06
1.8919294e-06
1.8388427e-06
1.7870502e-06
1.7365314e-06
1.687267e-06
1.6392402e-06
1.5924414e-06
1.5468803e-06
1.5026166e-06
1.4598414e-06
1.4190968e-06
1.3818479e-06
1.3520571e-06
1.3404351e-06
1.3757954e-06
1.5360318e-06
2.0279454e-06
3.379363e-06
6.7920283e-06
1.4600353e-05
3.070766e-05
5.9868116e-05
0.0001070374
0.00017510426
0.00026296893
0.00036684438
0.00048045748
0.00059964947
0.00071879004
0.00083974317
0.0009572591
8.9442591e-06
8.8103e-06
8.6762397e-06
8.5421432e-06
8.4080752e-06
8.2740996e-06
8.1402796e-06
8.006678e-06
7.8733568e-06
7.7403776e-06
7.607801e-06
7.475687e-06
7.3440947e-06
7.2130826e-06
7.0827078e-06
6.9530265e-06
6.8240939e-06
6.6959636e-06
6.5686881e-06
6.4423183e-06
6.3169037e-06
6.1924922e-06
6.0691298e-06
5.9468612e-06
5.825729e-06
5.7057741e-06
5.5870358e-06
5.4695514e-06
5.3533564e-06
5.2384843e-06
5.1249669e-06
5.012834e-06
4.9021136e-06
4.7928317e-06
4.6850126e-06
4.5786785e-06
4.4738498e-06
4.3705448e-06
4.26878e-06
4.1685702e-06
4.0699283e-06
3.9728654e-06
3.8773905e-06
3.783511e-06
3.6912327e-06
3.6005596e-06
3.5114941e-06
3.424037e-06
3.3381875e-06
3.2539434e-06
3.1713009e-06
3.0902551e-06
3.0107996e-06
2.9329266e-06
2.8566272e-06
2.7818916e-06
2.7087085e-06
2.6370657e-06
2.5669503e-06
2.4983481e-06
2.4312443e-06
2.3656233e-06
2.3014685e-06
2.238763e-06
2.1774889e-06
2.117628e-06
2.0591612e-06
2.0020695e-06
1.9463329e-06
1.8919312e-06
1.838844e-06
1.7870505e-06
1.7365296e-06
1.6872601e-06
1.6392209e-06
1.5923908e-06
1.54675e-06
1.5022817e-06
1.4589768e-06
1.4168485e-06
1.3759693e-06
1.3365747e-06
1.2993515e-06
1.2662261e-06
1.2426008e-06
1.2436009e-06
1.3116301e-06
1.5646899e-06
2.3229441e-06
4.3993713e-06
9.5459316e-06
2.1000854e-05
4.344552e-05
8.1935161e-05
0.00014097935
0.00022048934
0.00031815556
0.00042747241
0.0005458698
0.0006644095
8.9443385e-06
8.8103851e-06
8.6763297e-06
8.5422373e-06
8.4081722e-06
8.2741984e-06
8.1403794e-06
8.0067779e-06
7.8734562e-06
7.7404757e-06
7.6078974e-06
7.4757814e-06
7.3441867e-06
7.2131719e-06
7.0827942e-06
6.9531099e-06
6.8241741e-06
6.6960405e-06
6.5687617e-06
6.4423884e-06
6.3169704e-06
6.1925554e-06
6.0691896e-06
5.9469176e-06
5.8257821e-06
5.7058241e-06
5.5870827e-06
5.4695954e-06
5.3533975e-06
5.2385228e-06
5.125003e-06
5.0128678e-06
4.9021452e-06
4.7928614e-06
4.6850404e-06
4.5787046e-06
4.4738742e-06
4.3705677e-06
4.2688016e-06
4.1685905e-06
4.0699474e-06
3.9728833e-06
3.8774074e-06
3.7835269e-06
3.6912477e-06
3.6005736e-06
3.5115073e-06
3.4240494e-06
3.3381991e-06
3.2539543e-06
3.1713111e-06
3.0902646e-06
3.0108085e-06
2.9329349e-06
2.856635e-06
2.7818987e-06
2.7087151e-06
2.6370719e-06
2.566956e-06
2.4983534e-06
2.4312492e-06
2.3656278e-06
2.3014727e-06
2.2387668e-06
2.1774924e-06
2.1176311e-06