/*--------------------------------*- C++ -*----------------------------------*\
  =========                 |
  \\      /  F ield         | OpenFOAM: The Open Source CFD Toolbox
   \\    /   O peration     | Website:  https://openfoam.org
    \\  /    A nd           | Version:  12
     \\/     M anipulation  |
\*---------------------------------------------------------------------------*/
FoamFile
{
    format      ascii;
    class       volScalarField;
    location    "1100";
    object      nut;
}
// * * * * * * * * * * * * * * * * * * * * * * * * * * * * * * * * * * * * * //

dimensions      [0 2 -1 0 0 0 0];

internalField   nonuniform List<scalar> 
7480
(
8.0749656e-08
4.2962865e-08
3.1056919e-08
2.8365573e-08
3.1795005e-06
5.3315792e-06
6.3338592e-06
6.9863053e-06
7.3992347e-06
7.6473253e-06
7.4894674e-06
7.2193364e-06
6.898029e-06
6.5575103e-06
6.2182277e-06
5.8931003e-06
5.5905257e-06
5.3199992e-06
5.0762406e-06
4.8644846e-06
4.680293e-06
4.5210011e-06
4.3859338e-06
4.2745791e-06
4.1861108e-06
4.119902e-06
4.074868e-06
4.0495192e-06
4.0421488e-06
4.050876e-06
4.0736535e-06
4.1083795e-06
4.153001e-06
4.2077157e-06
4.2711737e-06
4.3413345e-06
4.4158614e-06
4.4924411e-06
4.5696831e-06
4.6465757e-06
4.7220039e-06
4.7948565e-06
4.8642579e-06
4.9294946e-06
4.990002e-06
5.0454555e-06
5.0953405e-06
5.1412499e-06
5.182804e-06
5.2192665e-06
5.2501991e-06
5.2755095e-06
5.2955184e-06
5.3109815e-06
5.3227186e-06
5.3315653e-06
5.3384623e-06
5.3439248e-06
5.3482327e-06
5.3514679e-06
5.3535647e-06
5.3545971e-06
5.3548216e-06
5.3544344e-06
5.3534847e-06
5.3520824e-06
5.3505323e-06
5.348856e-06
5.3469036e-06
5.3446241e-06
5.3419847e-06
5.338883e-06
5.3354005e-06
5.3316594e-06
5.3276408e-06
5.3233963e-06
5.3190044e-06
5.3143376e-06
5.3093459e-06
5.304132e-06
5.298661e-06
5.2929715e-06
5.287171e-06
5.2811841e-06
5.2749772e-06
5.2685993e-06
5.2620375e-06
5.2553263e-06
5.2484782e-06
5.2414953e-06
5.2343836e-06
5.227114e-06
5.219709e-06
5.2121963e-06
5.2044943e-06
5.1967555e-06
5.1889001e-06
5.1803328e-06
5.1684494e-06
5.1776264e-06
1.6699853e-07
1.6479302e-07
1.6275582e-07
1.6152409e-07
7.8952297e-07
2.0014198e-06
3.2199492e-06
4.1000986e-06
4.6102638e-06
4.8537367e-06
4.9292105e-06
4.9200658e-06
4.9202843e-06
4.9672927e-06
5.0575468e-06
5.1937099e-06
5.400079e-06
5.7434321e-06
5.8736823e-06
6.1612112e-06
6.4630939e-06
6.7817861e-06
7.1154125e-06
7.4619843e-06
7.8192619e-06
8.187412e-06
8.561686e-06
8.9377649e-06
9.312612e-06
9.6838254e-06
1.0049693e-05
1.0409551e-05
1.0764392e-05
1.111684e-05
1.1463958e-05
1.1800461e-05
1.2120542e-05
1.2422104e-05
1.2708224e-05
1.2978437e-05
1.3231692e-05
1.3467421e-05
1.368486e-05
1.3883274e-05
1.4063176e-05
1.4225373e-05
1.4370757e-05
1.4498924e-05
1.4609836e-05
1.4704729e-05
1.4785416e-05
1.4853842e-05
1.4912058e-05
1.4962326e-05
1.5006448e-05
1.5046419e-05
1.5083772e-05
1.5118046e-05
1.5149234e-05
1.5177558e-05
1.5203238e-05
1.5226707e-05
1.5248444e-05
1.5268645e-05
1.5287286e-05
1.530446e-05
1.5320385e-05
1.5334605e-05
1.5346808e-05
1.535714e-05
1.5365795e-05
1.5372844e-05
1.5378596e-05
1.5383224e-05
1.538653e-05
1.5388437e-05
1.5388957e-05
1.5387982e-05
1.5385723e-05
1.5382492e-05
1.5378298e-05
1.5373169e-05
1.5367067e-05
1.5359802e-05
1.5351497e-05
1.5342363e-05
1.5332496e-05
1.5321939e-05
1.5310578e-05
1.52984e-05
1.5285484e-05
1.5271917e-05
1.5257815e-05
1.5243138e-05
1.5227685e-05
1.5211899e-05
1.5195257e-05
1.5177464e-05
1.5157297e-05
1.515406e-05
1.6882485e-07
1.685664e-07
1.6827204e-07
1.679569e-07
1.7998488e-07
2.338715e-07
3.7066211e-07
6.1994161e-07
9.7979832e-07
1.4139785e-06
1.8590379e-06
2.2551541e-06
2.5711653e-06
2.8049504e-06
2.9700463e-06
3.0862905e-06
3.1760925e-06
3.2764381e-06
3.4092112e-06
3.58015e-06
3.7897587e-06
4.0379245e-06
4.3259401e-06
4.6573113e-06
5.0374557e-06
5.4516686e-06
5.9086382e-06
6.4111968e-06
6.9625991e-06
7.5669397e-06
8.2300994e-06
8.9618917e-06
9.7491174e-06
1.0441534e-05
1.1159168e-05
1.1897375e-05
1.2644561e-05
1.3390964e-05
1.4133895e-05
1.4866987e-05
1.558752e-05
1.6292821e-05
1.6970309e-05
1.7614493e-05
1.8230701e-05
1.8817265e-05
1.9374509e-05
1.9795052e-05
2.0167933e-05
2.0510413e-05
2.0826664e-05
2.1119711e-05
2.1392375e-05
2.1647833e-05
2.188869e-05
2.2114874e-05
2.2325177e-05
2.2520793e-05
2.2703722e-05
2.2875944e-05
2.3038815e-05
2.3193347e-05
2.3340173e-05
2.3479647e-05
2.3612142e-05
2.3737889e-05
2.3855812e-05
2.3965775e-05
2.406848e-05
2.4164885e-05
2.4255633e-05
2.4341019e-05
2.4421531e-05
2.4497466e-05
2.4567967e-05
2.4632894e-05
2.4692692e-05
2.4747759e-05
2.4798777e-05
2.4846214e-05
2.4890164e-05
2.4930347e-05
2.4966497e-05
2.4998685e-05
2.5027518e-05
2.5053438e-05
2.5076708e-05
2.5097204e-05
2.5114584e-05
2.5129035e-05
2.5140927e-05
2.5150569e-05
2.5158158e-05
2.5163375e-05
2.5166112e-05
2.5166871e-05
2.5166007e-05
2.5159584e-05
2.5161659e-05
2.5117434e-05
1.6885078e-07
1.6864751e-07
1.6843942e-07
1.6822676e-07
1.6818683e-07
1.6896536e-07
1.7200444e-07
1.7977413e-07
1.9582226e-07
2.250132e-07
2.7252382e-07
3.4288158e-07
4.3898649e-07
5.6141091e-07
7.081857e-07
8.7497632e-07
1.0557765e-06
1.245279e-06
1.438564e-06
1.6317276e-06
1.82191e-06
2.0080584e-06
2.1905348e-06
2.3709859e-06
2.5526677e-06
2.7515823e-06
2.9713448e-06
3.2171206e-06
3.4959341e-06
3.8170689e-06
4.1928465e-06
4.6395265e-06
5.1788516e-06
5.7987417e-06
6.5089807e-06
7.3171526e-06
8.2238215e-06
9.2228033e-06
1.0050034e-05
1.092445e-05
1.1839979e-05
1.2790987e-05
1.3770308e-05
1.4770373e-05
1.577733e-05
1.677856e-05
1.77682e-05
1.8737448e-05
1.967383e-05
2.0577621e-05
2.1449605e-05
2.2286159e-05
2.3084646e-05
2.3843201e-05
2.456424e-05
2.5198153e-05
2.5728496e-05
2.6228698e-05
2.6703865e-05
2.7157515e-05
2.7591314e-05
2.800644e-05
2.8404028e-05
2.8785323e-05
2.9151393e-05
2.9502067e-05
2.9834481e-05
3.0149425e-05
3.0448655e-05
3.073385e-05
3.1006073e-05
3.1265887e-05
3.1514143e-05
3.1751512e-05
3.1976626e-05
3.2189457e-05
3.2390962e-05
3.2581934e-05
3.2763322e-05
3.2935862e-05
3.3099857e-05
3.3254746e-05
3.3400405e-05
3.3537277e-05
3.3666276e-05
3.3788104e-05
3.390321e-05
3.4011311e-05
3.411207e-05
3.420599e-05
3.4293742e-05
3.4375839e-05
3.4452517e-05
3.4523339e-05
3.4588226e-05
3.4648356e-05
3.4703522e-05
3.4750512e-05
3.4799382e-05
3.4801276e-05
1.6885078e-07
1.6864867e-07
1.6844331e-07
1.6823487e-07
1.6802582e-07
1.6782775e-07
1.6767373e-07
1.6763625e-07
1.6784739e-07
1.6852885e-07
1.7001436e-07
1.7277034e-07
1.7740594e-07
1.8467774e-07
1.9549622e-07
2.1092208e-07
2.3216192e-07
2.605754e-07
2.9768444e-07
3.4509106e-07
4.0435611e-07
4.7704489e-07
5.6471379e-07
6.688228e-07
7.9075482e-07
9.3172872e-07
1.0920586e-06
1.2712085e-06
1.4680328e-06
1.6811047e-06
1.9092129e-06
2.152247e-06
2.4111981e-06
2.7049711e-06
3.0419685e-06
3.4341955e-06
3.8969124e-06
4.4488407e-06
5.1206229e-06
5.8940641e-06
6.7771446e-06
7.7762634e-06
8.8971005e-06
9.8758675e-06
1.0795296e-05
1.1789246e-05
1.2840735e-05
1.3945023e-05
1.5095225e-05
1.6281301e-05
1.7478762e-05
1.867147e-05
1.9852363e-05
2.1016535e-05
2.2173058e-05
2.3311799e-05
2.4419844e-05
2.5488322e-05
2.6510587e-05
2.7490281e-05
2.8432519e-05
2.9342532e-05
3.0222471e-05
3.1071006e-05
3.1885571e-05
3.2646301e-05
3.328399e-05
3.3893588e-05
3.4478634e-05
3.504103e-05
3.5581826e-05
3.6101871e-05
3.6602491e-05
3.7084583e-05
3.7544826e-05
3.7983401e-05
3.840227e-05
3.8802888e-05
3.9186521e-05
3.9554196e-05
3.9906525e-05
4.0242413e-05
4.0561907e-05
4.0865936e-05
4.115574e-05
4.1432306e-05
4.1696312e-05
4.1947253e-05
4.2184925e-05
4.2410234e-05
4.262415e-05
4.2827402e-05
4.3020246e-05
4.3202144e-05
4.3373232e-05
4.3535314e-05
4.3687706e-05
4.3828217e-05
4.396209e-05
4.4045796e-05
1.6885041e-07
1.6864838e-07
1.6844321e-07
1.6823497e-07
1.6802374e-07
1.6780974e-07
1.6759365e-07
1.6737722e-07
1.6716422e-07
1.6696193e-07
1.6678318e-07
1.6664897e-07
1.6659142e-07
1.6665711e-07
1.66911e-07
1.6744056e-07
1.6836099e-07
1.6982181e-07
1.7201708e-07
1.7519434e-07
1.7965878e-07
1.8579168e-07
1.9407906e-07
2.0514183e-07
2.198026e-07
2.391421e-07
2.6452659e-07
2.9768154e-07
3.40801e-07
3.9665549e-07
4.6867794e-07
5.6114895e-07
6.7898349e-07
8.2764062e-07
1.0124406e-06
1.2381774e-06
1.5083568e-06
1.8240679e-06
2.1825468e-06
2.5774824e-06
3.0273241e-06
3.5422473e-06
4.1406127e-06
4.8352186e-06
5.6787171e-06
6.6482509e-06
7.752029e-06
8.9907122e-06
1.0304206e-05
1.1259987e-05
1.230911e-05
1.3434481e-05
1.4627458e-05
1.5879782e-05
1.7189928e-05
1.8534937e-05
1.9894432e-05
2.1253571e-05
2.2601e-05
2.3963833e-05
2.5324097e-05
2.6671062e-05
2.7991998e-05
2.9278419e-05
3.0534727e-05
3.1762694e-05
3.2953664e-05
3.410418e-05
3.5208213e-05
3.626828e-05
3.729075e-05
3.8281925e-05
3.9239944e-05
4.0165353e-05
4.0961199e-05
4.1697442e-05
4.2405751e-05
4.3087928e-05
4.374519e-05
4.437873e-05
4.4989475e-05
4.5574401e-05
4.6133759e-05
4.6669471e-05
4.7183283e-05
4.7676501e-05
4.8150036e-05
4.8602885e-05
4.903494e-05
4.944758e-05
4.9842115e-05
5.0219535e-05
5.058009e-05
5.0923091e-05
5.1249041e-05
5.1560271e-05
5.1855746e-05
5.2134373e-05
5.2396848e-05
5.2603587e-05
1.6885008e-07
1.6864801e-07
1.6844283e-07
1.6823458e-07
1.6802334e-07
1.6780915e-07
1.6759205e-07
1.6737208e-07
1.6714935e-07
1.6692407e-07
1.6669664e-07
1.6646782e-07
1.6623891e-07
1.6601203e-07
1.6579041e-07
1.6557889e-07
1.6538443e-07
1.6521682e-07
1.6508963e-07
1.650213e-07
1.6503609e-07
1.6516566e-07
1.6545158e-07
1.6594847e-07
1.6672965e-07
1.6789448e-07
1.6957555e-07
1.7195181e-07
1.7526912e-07
1.7987023e-07
1.8623807e-07
1.9507617e-07
2.074178e-07
2.2476445e-07
2.4928935e-07
2.8417647e-07
3.3409528e-07
4.0577233e-07
5.0864528e-07
6.5409483e-07
8.5481345e-07
1.1226773e-06
1.4656169e-06
1.8803055e-06
2.3510566e-06
2.8756176e-06
3.4693225e-06
4.1468875e-06
4.9425158e-06
5.8961845e-06
6.9900525e-06
8.2366407e-06
9.6369447e-06
1.1178871e-05
1.2324354e-05
1.3446677e-05
1.4657867e-05
1.5950423e-05
1.7315893e-05
1.8758563e-05
2.0247726e-05
2.1756973e-05
2.3270438e-05
2.4793596e-05
2.6356009e-05
2.7929925e-05
2.9503731e-05
3.1052643e-05
3.2578794e-05
3.4081501e-05
3.5560343e-05
3.7010192e-05
3.841962e-05
3.9789141e-05
4.111273e-05
4.2390528e-05
4.3619943e-05
4.4801293e-05
4.5939996e-05
4.7041319e-05
4.8109244e-05
4.904163e-05
4.9902441e-05
5.0731791e-05
5.1531631e-05
5.2303257e-05
5.3047711e-05
5.3762307e-05
5.4446981e-05
5.5104068e-05
5.5735373e-05
5.634217e-05
5.6924536e-05
5.748131e-05
5.8013559e-05
5.8524067e-05
5.9011683e-05
5.9476208e-05
5.9914801e-05
6.0289626e-05
1.6884984e-07
1.6864772e-07
1.6844252e-07
1.6823429e-07
1.6802307e-07
1.678089e-07
1.675918e-07
1.6737178e-07
1.6714885e-07
1.6692303e-07
1.6669436e-07
1.6646287e-07
1.6622862e-07
1.6599172e-07
1.6575232e-07
1.6551066e-07
1.6526709e-07
1.6502214e-07
1.647766e-07
1.6453159e-07
1.6428865e-07
1.6404992e-07
1.638183e-07
1.6359769e-07
1.6339342e-07
1.6321276e-07
1.6306557e-07
1.6296519e-07
1.6293002e-07
1.6298574e-07
1.6316854e-07
1.6353099e-07
1.641509e-07
1.6514348e-07
1.6668088e-07
1.690264e-07
1.7259173e-07
1.7803106e-07
1.8642067e-07
1.9951757e-07
2.2012792e-07
2.5275116e-07
3.0453789e-07
3.8635822e-07
5.1357081e-07
7.0512704e-07
9.8111554e-07
1.3566204e-06
1.8330172e-06
2.3845729e-06
3.0011741e-06
3.6959408e-06
4.4871662e-06
5.4553071e-06
6.584664e-06
7.8711885e-06
9.3279907e-06
1.0952292e-05
1.2719026e-05
1.396933e-05
1.5211313e-05
1.6547797e-05
1.7970618e-05
1.9479899e-05
2.1073394e-05
2.2712476e-05
2.4377591e-05
2.6051477e-05
2.7804496e-05
2.9590284e-05
3.1386083e-05
3.3163701e-05
3.4928768e-05
3.6683751e-05
3.843278e-05
4.0160716e-05
4.184728e-05
4.349048e-05
4.5095799e-05
4.6661829e-05
4.8183522e-05
4.9646825e-05
5.1052429e-05
5.2405807e-05
5.3708832e-05
5.4964779e-05
5.6181992e-05
5.7263091e-05
5.8255288e-05
5.9212165e-05
6.0135753e-05
6.1027344e-05
6.1886235e-05
6.2709846e-05
6.3500615e-05
6.4261799e-05
6.4992439e-05
6.5692571e-05
6.6357228e-05
6.6947935e-05
1.6884967e-07
1.6864751e-07
1.6844229e-07
1.6823406e-07
1.6802285e-07
1.6780868e-07
1.6759158e-07
1.6737156e-07
1.6714863e-07
1.6692282e-07
1.6669413e-07
1.6646258e-07
1.6622821e-07
1.6599104e-07
1.6575108e-07
1.6550838e-07
1.6526296e-07
1.6501489e-07
1.6476422e-07
1.6451103e-07
1.6425544e-07
1.6399759e-07
1.6373769e-07
1.63476e-07
1.6321289e-07
1.6294886e-07
1.6268461e-07
1.6242106e-07
1.6215952e-07
1.6190177e-07
1.6165033e-07
1.6140885e-07
1.6118263e-07
1.6097949e-07
1.6081102e-07
1.6069474e-07
1.606578e-07
1.6074296e-07
1.6102039e-07
1.616068e-07
1.626945e-07
1.646073e-07
1.6790028e-07
1.7353589e-07
1.8320337e-07
1.9983532e-07
2.2845139e-07
2.7752555e-07
3.6087583e-07
4.9877832e-07
7.1682742e-07
1.0416935e-06
1.4905022e-06
2.060821e-06
2.7110237e-06
3.4481698e-06
4.281064e-06
5.2759254e-06
6.4970245e-06
7.8846373e-06
9.4505497e-06
1.1199071e-05
1.3109717e-05
1.4941487e-05
1.6246689e-05
1.7651886e-05
1.915327e-05
2.0749567e-05
2.245577e-05
2.4229641e-05
2.6043187e-05
2.7872915e-05
2.98004e-05
3.1785366e-05
3.3793134e-05
3.5797318e-05
3.7807919e-05
3.9822546e-05
4.1828721e-05
4.3806465e-05
4.5744736e-05
4.7656385e-05
4.9537831e-05
5.1371397e-05
5.3149331e-05
5.4876524e-05
5.6557979e-05
5.8175551e-05
5.9723448e-05
6.1211831e-05
6.2647219e-05
6.4033472e-05
6.5329061e-05
6.6469577e-05
6.7569627e-05
6.8632398e-05
6.9657343e-05
7.0643192e-05
7.1584388e-05
7.2440886e-05
1.6884955e-07
1.6864735e-07
1.6844212e-07
1.6823389e-07
1.6802267e-07
1.6780851e-07
1.6759141e-07
1.673714e-07
1.6714847e-07
1.6692266e-07
1.6669397e-07
1.6646243e-07
1.6622806e-07
1.6599087e-07
1.657509e-07
1.6550816e-07
1.6526269e-07
1.650145e-07
1.6476363e-07
1.6451012e-07
1.6425399e-07
1.6399528e-07
1.6373403e-07
1.6347029e-07
1.6320411e-07
1.6293555e-07
1.6266469e-07
1.6239161e-07
1.6211643e-07
1.6183931e-07
1.6156044e-07
1.6128009e-07
1.6099865e-07
1.6071665e-07
1.6043488e-07
1.6015452e-07
1.5987731e-07
1.59606e-07
1.5934495e-07
1.5910136e-07
1.5888703e-07
1.5872173e-07
1.5863936e-07
1.586992e-07
1.5900734e-07
1.597545e-07
1.6128335e-07
1.6421847e-07
1.6971179e-07
1.798904e-07
1.9862083e-07
2.328189e-07
2.9453355e-07
4.040299e-07
5.8982192e-07
8.8609515e-07
1.3218412e-06
1.9047464e-06
2.6010081e-06
3.4048211e-06
4.3141661e-06
5.4038149e-06
6.7367678e-06
8.2945225e-06
1.0036417e-05
1.1969715e-05
1.4070242e-05
1.6297075e-05
1.7757387e-05
1.9266857e-05
2.0878122e-05
2.2593539e-05
2.4430396e-05
2.6346143e-05
2.8309664e-05
3.0314916e-05
3.2449238e-05
3.4651965e-05
3.6875031e-05
3.9106125e-05
4.1357277e-05
4.3622621e-05
4.5883404e-05
4.8116464e-05
5.0317582e-05
5.2488451e-05
5.4615107e-05
5.6696579e-05
5.8732182e-05
6.0713974e-05
6.2634556e-05
6.4495488e-05
6.62965e-05
6.80191e-05
6.9671835e-05
7.1260065e-05
7.2806535e-05
7.4206652e-05
7.5472564e-05
7.6647625e-05
1.6884948e-07
1.6864725e-07
1.6844201e-07
1.6823377e-07
1.6802255e-07
1.6780839e-07
1.6759129e-07
1.6737128e-07
1.6714835e-07
1.6692254e-07
1.6669385e-07
1.6646231e-07
1.6622794e-07
1.6599075e-07
1.6575078e-07
1.6550804e-07
1.6526257e-07
1.6501438e-07
1.6476351e-07
1.6450998e-07
1.6425383e-07
1.6399509e-07
1.6373379e-07
1.6346996e-07
1.6320364e-07
1.6293487e-07
1.6266367e-07
1.623901e-07
1.6211419e-07
1.61836e-07
1.6155556e-07
1.6127293e-07
1.6098818e-07
1.6070137e-07
1.6041261e-07
1.6012199e-07
1.5982967e-07
1.5953585e-07
1.5924085e-07
1.5894513e-07
1.5864945e-07
1.5835501e-07
1.5806384e-07
1.5777945e-07
1.5750809e-07
1.5726101e-07
1.5705862e-07
1.5693848e-07
1.5697093e-07
1.5728966e-07
1.5814885e-07
1.6002988e-07
1.63852e-07
1.7140445e-07
1.8610346e-07
2.143689e-07
2.6797585e-07
3.6771324e-07
5.4621012e-07
8.4534056e-07
1.3029233e-06
1.931478e-06
2.6962873e-06
3.5947933e-06
4.6179755e-06
5.8782806e-06
7.3963368e-06
9.1864501e-06
1.1171793e-05
1.3348573e-05
1.5686128e-05
1.8144717e-05
1.9767687e-05
2.1413714e-05
2.3166352e-05
2.5034521e-05
2.7030884e-05
2.9110395e-05
3.1236787e-05
3.3469384e-05
3.5838593e-05
3.8261281e-05
4.070493e-05
4.3186591e-05
4.5703693e-05
4.8228211e-05
5.0728857e-05
5.3208507e-05
5.5673744e-05
5.8102611e-05
6.0476702e-05
6.2797746e-05
6.5069365e-05
6.7289717e-05
6.9445388e-05
7.1529816e-05
7.3562013e-05
7.5518188e-05
7.7320991e-05
7.9468564e-05
1.6884943e-07
1.6864718e-07
1.6844193e-07
1.6823369e-07
1.6802247e-07
1.6780831e-07
1.6759121e-07
1.673712e-07
1.6714827e-07
1.6692246e-07
1.6669377e-07
1.6646223e-07
1.6622785e-07
1.6599067e-07
1.6575069e-07
1.6550795e-07
1.6526248e-07
1.6501429e-07
1.6476341e-07
1.6450989e-07
1.6425373e-07
1.6399499e-07
1.6373368e-07
1.6346985e-07
1.6320352e-07
1.6293473e-07
1.6266352e-07
1.6238993e-07
1.6211399e-07
1.6183574e-07
1.6155522e-07
1.6127247e-07
1.6098754e-07
1.6070047e-07
1.6041131e-07
1.6012009e-07
1.5982689e-07
1.5953173e-07
1.592347e-07
1.5893585e-07
1.5863528e-07
1.583331e-07
1.5802946e-07
1.5772461e-07
1.5741895e-07
1.5711315e-07
1.5680843e-07
1.5650696e-07
1.5621282e-07
1.5593383e-07
1.5568503e-07
1.554954e-07
1.5542126e-07
1.5557433e-07
1.5617697e-07
1.5766969e-07
1.6092716e-07
1.6770976e-07
1.8155832e-07
2.0944567e-07
2.6468676e-07
3.7163616e-07
5.6954659e-07
9.1054649e-07
1.4382398e-06
2.1588351e-06
3.0368871e-06
4.0710397e-06
5.2926033e-06
6.7991362e-06
8.5916031e-06
1.0684715e-05
1.2979076e-05
1.5446342e-05
1.8057174e-05
2.0592613e-05
2.231683e-05
2.4130041e-05
2.6055729e-05
2.811996e-05
3.0304728e-05
3.2562774e-05
3.4900214e-05
3.7413764e-05
4.0035219e-05
4.2689075e-05
4.5391143e-05
4.8151599e-05
5.0938589e-05
5.3717266e-05
5.6480456e-05
5.9226119e-05
6.1934583e-05
6.4600772e-05
6.7222545e-05
6.9782615e-05
7.228379e-05
7.4737587e-05
7.7012779e-05
8.0060754e-05
1.6884941e-07
1.6864715e-07
1.6844189e-07
1.6823364e-07
1.6802243e-07
1.6780827e-07
1.6759117e-07
1.6737115e-07
1.6714822e-07
1.6692241e-07
1.6669372e-07
1.6646218e-07
1.662278e-07
1.6599061e-07
1.6575063e-07
1.6550789e-07
1.6526241e-07
1.6501422e-07
1.6476334e-07
1.6450981e-07
1.6425366e-07
1.6399491e-07
1.637336e-07
1.6346977e-07
1.6320344e-07
1.6293465e-07
1.6266344e-07
1.6238984e-07
1.621139e-07
1.6183564e-07
1.6155512e-07
1.6127237e-07
1.6098743e-07
1.6070034e-07
1.6041116e-07
1.6011992e-07
1.5982666e-07
1.5953144e-07
1.5923429e-07
1.5893527e-07
1.5863442e-07
1.5833179e-07
1.5802744e-07
1.5772142e-07
1.5741379e-07
1.5710465e-07
1.5679409e-07
1.5648229e-07
1.561695e-07
1.5585621e-07
1.555433e-07
1.5523246e-07
1.5492698e-07
1.5463341e-07
1.54365e-07
1.5414851e-07
1.5403813e-07
1.5414525e-07
1.5470146e-07
1.5618695e-07
1.5959467e-07
1.6700212e-07
1.8274715e-07
2.157583e-07
2.8362959e-07
4.191735e-07
6.7422604e-07
1.1131456e-06
1.7773578e-06
2.6392841e-06
3.6851844e-06
4.920595e-06
6.4625766e-06
8.3070513e-06
1.0476422e-05
1.2943996e-05
1.5583567e-05
1.83725e-05
2.1284556e-05
2.3555172e-05
2.5460369e-05
2.7471253e-05
2.9616477e-05
3.1910117e-05
3.430291e-05
3.6764777e-05
3.9430788e-05
4.2251644e-05
4.5117523e-05
4.8051496e-05
5.1066835e-05
5.4117373e-05
5.7164626e-05
6.0208644e-05
6.3246006e-05
6.624371e-05
6.9195683e-05
7.2119076e-05
7.484115e-05
7.8510355e-05
1.6884942e-07
1.6864714e-07
1.6844188e-07
1.6823363e-07
1.6802242e-07
1.6780825e-07
1.6759115e-07
1.6737113e-07
1.6714821e-07
1.6692239e-07
1.666937e-07
1.6646215e-07
1.6622777e-07
1.6599058e-07
1.657506e-07
1.6550786e-07
1.6526238e-07
1.6501418e-07
1.647633e-07
1.6450977e-07
1.6425361e-07
1.6399486e-07
1.6373355e-07
1.6346971e-07
1.6320337e-07
1.6293458e-07
1.6266337e-07
1.6238977e-07
1.6211382e-07
1.6183556e-07
1.6155504e-07
1.6127228e-07
1.6098734e-07
1.6070026e-07
1.6041107e-07
1.6011983e-07
1.5982657e-07
1.5953134e-07
1.5923419e-07
1.5893516e-07
1.5863429e-07
1.5833165e-07
1.5802726e-07
1.5772117e-07
1.5741344e-07
1.5710412e-07
1.5679324e-07
1.5648087e-07
1.5616706e-07
1.5585188e-07
1.5553541e-07
1.5521781e-07
1.5489928e-07
1.5458023e-07
1.5426146e-07
1.5394453e-07
1.5363264e-07
1.5333243e-07
1.5305788e-07
1.5283854e-07
1.5273686e-07
1.5288643e-07
1.5357631e-07
1.554324e-07
1.5980515e-07
1.6964974e-07
1.9136106e-07
2.3854846e-07
3.3860817e-07
5.4053734e-07
9.1576975e-07
1.5331728e-06
2.3968307e-06
3.4755409e-06
4.7531378e-06
6.3653536e-06
8.315894e-06
1.0616383e-05
1.3257581e-05
1.6118636e-05
1.9119895e-05
2.2247673e-05
2.5122294e-05
2.7169604e-05
2.9283134e-05
3.1530733e-05
3.3947828e-05
3.648188e-05
3.9091501e-05
4.1934551e-05
4.4963887e-05
4.8054932e-05
5.1234543e-05
5.4510367e-05
5.7830816e-05
6.1158477e-05
6.4495042e-05
6.7837964e-05
7.0986918e-05
7.5135753e-05
1.6884944e-07
1.6864715e-07
1.6844189e-07
1.6823364e-07
1.6802242e-07
1.6780826e-07
1.6759116e-07
1.6737114e-07
1.6714821e-07
1.6692239e-07
1.666937e-07
1.6646215e-07
1.6622777e-07
1.6599058e-07
1.657506e-07
1.6550785e-07
1.6526236e-07
1.6501416e-07
1.6476328e-07
1.6450974e-07
1.6425358e-07
1.6399482e-07
1.6373351e-07
1.6346967e-07
1.6320333e-07
1.6293453e-07
1.6266331e-07
1.6238971e-07
1.6211376e-07
1.618355e-07
1.6155497e-07
1.6127222e-07
1.6098728e-07
1.6070019e-07
1.60411e-07
1.6011976e-07
1.598265e-07
1.5953127e-07
1.5923412e-07
1.5893508e-07
1.5863422e-07
1.5833157e-07
1.5802718e-07
1.5772109e-07
1.5741336e-07
1.5710402e-07
1.5679313e-07
1.5648073e-07
1.5616687e-07
1.5585159e-07
1.5553494e-07
1.5521697e-07
1.5489774e-07
1.5457731e-07
1.5425576e-07
1.5393322e-07
1.5360991e-07
1.5328624e-07
1.5296305e-07
1.526421e-07
1.5232713e-07
1.520262e-07
1.5175711e-07
1.51559e-07
1.5151829e-07
1.518288e-07
1.5292823e-07
1.5580533e-07
1.6270072e-07
1.7868816e-07
2.1509455e-07
2.9632933e-07
4.7041649e-07
8.1428525e-07
1.4131951e-06
2.3000244e-06
3.4371012e-06
4.7980589e-06
6.5259795e-06
8.63555e-06
1.1125201e-05
1.3978401e-05
1.7097837e-05
2.0346002e-05
2.371391e-05
2.7056665e-05
2.9263297e-05
3.1497016e-05
3.3872212e-05
3.6431188e-05
3.9116517e-05
4.1909235e-05
4.4963967e-05
4.82133e-05
5.1547045e-05
5.4995337e-05
5.8552077e-05
6.2168602e-05
6.5665955e-05
7.0152412e-05
1.6884947e-07
1.6864718e-07
1.6844191e-07
1.6823367e-07
1.6802245e-07
1.6780829e-07
1.6759119e-07
1.6737117e-07
1.6714824e-07
1.6692242e-07
1.6669372e-07
1.6646218e-07
1.6622779e-07
1.6599059e-07
1.6575061e-07
1.6550786e-07
1.6526237e-07
1.6501417e-07
1.6476328e-07
1.6450974e-07
1.6425357e-07
1.6399481e-07
1.6373349e-07
1.6346964e-07
1.632033e-07
1.629345e-07
1.6266328e-07
1.6238967e-07
1.6211372e-07
1.6183546e-07
1.6155493e-07
1.6127217e-07
1.6098722e-07
1.6070013e-07
1.6041094e-07
1.601197e-07
1.5982644e-07
1.5953121e-07
1.5923405e-07
1.5893502e-07
1.5863416e-07
1.5833151e-07
1.5802711e-07
1.5772103e-07
1.5741329e-07
1.5710396e-07
1.5679306e-07
1.5648066e-07
1.561668e-07
1.5585151e-07
1.5553485e-07
1.5521687e-07
1.548976e-07
1.545771e-07
1.5425541e-07
1.5393257e-07
1.5360865e-07
1.5328369e-07
1.529578e-07
1.526311e-07
1.5230385e-07
1.5197654e-07
1.5165025e-07
1.5132733e-07
1.5101303e-07
1.5071928e-07
1.5047349e-07
1.5033875e-07
1.5046139e-07
1.5118465e-07
1.5331611e-07
1.5875823e-07
1.7202771e-07
2.0366191e-07
2.7738028e-07
4.4309153e-07
7.8597756e-07
1.4064188e-06
2.3485455e-06
3.5784121e-06
5.0698829e-06
6.9757143e-06
9.3058309e-06
1.2049015e-05
1.5168896e-05
1.8577232e-05
2.2099297e-05
2.5730581e-05
2.9373299e-05
3.1742332e-05
3.4118236e-05
3.6651754e-05
3.9377218e-05
4.2229668e-05
4.525115e-05
4.8555006e-05
5.2042077e-05
5.5658054e-05
5.9325621e-05
6.3881127e-05
1.6884951e-07
1.6864723e-07
1.6844196e-07
1.6823371e-07
1.680225e-07
1.6780834e-07
1.6759124e-07
1.6737122e-07
1.6714829e-07
1.6692246e-07
1.6669377e-07
1.6646222e-07
1.6622783e-07
1.6599063e-07
1.6575064e-07
1.6550789e-07
1.6526239e-07
1.6501419e-07
1.6476329e-07
1.6450975e-07
1.6425358e-07
1.6399481e-07
1.6373349e-07
1.6346964e-07
1.6320329e-07
1.6293449e-07
1.6266326e-07
1.6238965e-07
1.6211369e-07
1.6183543e-07
1.6155489e-07
1.6127213e-07
1.6098718e-07
1.6070009e-07
1.604109e-07
1.6011965e-07
1.5982639e-07
1.5953116e-07
1.59234e-07
1.5893497e-07
1.586341e-07
1.5833145e-07
1.5802706e-07
1.5772097e-07
1.5741324e-07
1.571039e-07
1.5679301e-07
1.564806e-07
1.5616674e-07
1.5585145e-07
1.5553479e-07
1.5521681e-07
1.5489754e-07
1.5457704e-07
1.5425534e-07
1.5393249e-07
1.5360853e-07
1.5328351e-07
1.5295747e-07
1.5263047e-07
1.5230254e-07
1.5197377e-07
1.5164423e-07
1.5131412e-07
1.5098375e-07
1.5065388e-07
1.5032615e-07
1.5000442e-07
1.4969771e-07
1.4942759e-07
1.4924577e-07
1.4927662e-07
1.49824e-07
1.5163354e-07
1.5652646e-07
1.6901517e-07
2.0007984e-07
2.7544286e-07
4.5121609e-07
8.2620119e-07
1.5159537e-06
2.5577574e-06
3.9238847e-06
5.6105747e-06
7.7590222e-06
1.0384637e-05
1.345038e-05
1.6890601e-05
2.0611122e-05
2.4428981e-05
2.8346498e-05
3.2095465e-05
3.4628048e-05
3.7171996e-05
3.9897415e-05
4.280973e-05
4.5849079e-05
4.9157925e-05
5.2737492e-05
5.6921538e-05
1.6884957e-07
1.6864728e-07
1.6844202e-07
1.6823377e-07
1.6802256e-07
1.678084e-07
1.675913e-07
1.6737128e-07
1.6714835e-07
1.6692252e-07
1.6669383e-07
1.6646227e-07
1.6622788e-07
1.6599068e-07
1.6575069e-07
1.6550793e-07
1.6526243e-07
1.6501422e-07
1.6476333e-07
1.6450978e-07
1.642536e-07
1.6399483e-07
1.637335e-07
1.6346965e-07
1.6320329e-07
1.6293449e-07
1.6266325e-07
1.6238964e-07
1.6211368e-07
1.6183541e-07
1.6155487e-07
1.6127211e-07
1.6098716e-07
1.6070006e-07
1.6041087e-07
1.6011962e-07
1.5982635e-07
1.5953112e-07
1.5923396e-07
1.5893493e-07
1.5863406e-07
1.5833141e-07
1.5802701e-07
1.5772093e-07
1.5741319e-07
1.5710385e-07
1.5679296e-07
1.5648055e-07
1.5616669e-07
1.558514e-07
1.5553474e-07
1.5521676e-07
1.5489749e-07
1.5457698e-07
1.5425528e-07
1.5393243e-07
1.5360847e-07
1.5328345e-07
1.5295741e-07
1.5263039e-07
1.5230243e-07
1.5197357e-07
1.5164387e-07
1.5131335e-07
1.509821e-07
1.5065016e-07
1.5031769e-07
1.4998493e-07
1.4965246e-07
1.4932157e-07
1.4899546e-07
1.4868185e-07
1.4839986e-07
1.4819746e-07
1.4819441e-07
1.4869507e-07
1.5047721e-07
1.555175e-07
1.689018e-07
2.0349854e-07
2.9048337e-07
4.9875214e-07
9.4821967e-07
1.7666668e-06
2.9725974e-06
4.5236783e-06
6.4863888e-06
8.9602825e-06
1.1958019e-05
1.540998e-05
1.9214212e-05
2.3261271e-05
2.739114e-05
3.1615921e-05
3.5260209e-05
3.7947569e-05
4.0693553e-05
4.363314e-05
4.6822663e-05
5.0148618e-05
1.6884963e-07
1.6864735e-07
1.6844208e-07
1.6823384e-07
1.6802263e-07
1.6780847e-07
1.6759138e-07
1.6737135e-07
1.6714842e-07
1.669226e-07
1.666939e-07
1.6646234e-07
1.6622795e-07
1.6599074e-07
1.6575075e-07
1.6550799e-07
1.6526249e-07
1.6501427e-07
1.6476337e-07
1.6450982e-07
1.6425364e-07
1.6399486e-07
1.6373353e-07
1.6346967e-07
1.6320331e-07
1.629345e-07
1.6266326e-07
1.6238964e-07
1.6211368e-07
1.618354e-07
1.6155486e-07
1.612721e-07
1.6098714e-07
1.6070004e-07
1.6041085e-07
1.6011959e-07
1.5982633e-07
1.5953109e-07
1.5923393e-07
1.589349e-07
1.5863403e-07
1.5833137e-07
1.5802698e-07
1.5772089e-07
1.5741315e-07
1.5710381e-07
1.5679292e-07
1.5648051e-07
1.5616664e-07
1.5585136e-07
1.555347e-07
1.5521671e-07
1.5489744e-07
1.5457694e-07
1.5425523e-07
1.5393238e-07
1.5360842e-07
1.532834e-07
1.5295736e-07
1.5263033e-07
1.5230237e-07
1.5197351e-07
1.516438e-07
1.5131327e-07
1.5098196e-07
1.5064992e-07
1.5031719e-07
1.4998381e-07
1.4964986e-07
1.4931544e-07
1.4898077e-07
1.4864634e-07
1.4831333e-07
1.479847e-07
1.4766793e-07
1.4738232e-07
1.4717822e-07
1.4718658e-07
1.4775339e-07
1.4979852e-07
1.5575481e-07
1.7211269e-07
2.1587149e-07
3.2924773e-07
6.0415334e-07
1.1886695e-06
2.2038119e-06
3.6343958e-06
5.4460951e-06
7.7883748e-06
1.0681466e-05
1.4125999e-05
1.8007429e-05
2.220792e-05
2.6592079e-05
3.1049453e-05
3.5607861e-05
3.8896836e-05
4.188535e-05
4.4488011e-05
1.688497e-07
1.6864742e-07
1.6844216e-07
1.6823392e-07
1.6802272e-07
1.6780856e-07
1.6759146e-07
1.6737144e-07
1.6714851e-07
1.6692268e-07
1.6669398e-07
1.6646242e-07
1.6622803e-07
1.6599082e-07
1.6575082e-07
1.6550806e-07
1.6526255e-07
1.6501433e-07
1.6476343e-07
1.6450987e-07
1.6425368e-07
1.6399491e-07
1.6373357e-07
1.634697e-07
1.6320334e-07
1.6293452e-07
1.6266328e-07
1.6238966e-07
1.6211369e-07
1.6183541e-07
1.6155487e-07
1.6127209e-07
1.6098714e-07
1.6070004e-07
1.6041084e-07
1.6011958e-07
1.5982631e-07
1.5953107e-07
1.5923391e-07
1.5893487e-07
1.58634e-07
1.5833135e-07
1.5802695e-07
1.5772086e-07
1.5741312e-07
1.5710378e-07
1.5679288e-07
1.5648048e-07
1.5616661e-07
1.5585132e-07
1.5553466e-07
1.5521667e-07
1.548974e-07
1.5457689e-07
1.5425519e-07
1.5393234e-07
1.5360838e-07
1.5328336e-07
1.5295731e-07
1.5263029e-07
1.5230233e-07
1.5197347e-07
1.5164375e-07
1.5131322e-07
1.5098191e-07
1.5064986e-07
1.5031711e-07
1.4998371e-07
1.4964967e-07
1.4931506e-07
1.4897991e-07
1.4864428e-07
1.4830828e-07
1.4797211e-07
1.4763624e-07
1.4730187e-07
1.4697212e-07
1.4665525e-07
1.4637339e-07
1.4618663e-07
1.4625768e-07
1.4703388e-07
1.4975237e-07
1.5782144e-07
1.8063723e-07
2.4344246e-07
4.0922632e-07
8.0702647e-07
1.6114612e-06
2.8944297e-06
4.6081571e-06
6.8177655e-06
9.6265319e-06
1.303945e-05
1.6995847e-05
2.1337049e-05
2.5961642e-05
3.0676656e-05
3.5565851e-05
3.9582737e-05
1.6884978e-07
1.686475e-07
1.6844225e-07
1.6823401e-07
1.6802281e-07
1.6780865e-07
1.6759156e-07
1.6737154e-07
1.671486e-07
1.6692278e-07
1.6669407e-07
1.6646251e-07
1.6622812e-07
1.6599091e-07
1.657509e-07
1.6550814e-07
1.6526263e-07
1.650144e-07
1.647635e-07
1.6450993e-07
1.6425374e-07
1.6399496e-07
1.6373362e-07
1.6346974e-07
1.6320338e-07
1.6293456e-07
1.6266331e-07
1.6238968e-07
1.6211371e-07
1.6183543e-07
1.6155488e-07
1.612721e-07
1.6098714e-07
1.6070004e-07
1.6041083e-07
1.6011958e-07
1.598263e-07
1.5953106e-07
1.592339e-07
1.5893486e-07
1.5863399e-07
1.5833133e-07
1.5802693e-07
1.5772084e-07
1.574131e-07
1.5710376e-07
1.5679286e-07
1.5648045e-07
1.5616658e-07
1.5585129e-07
1.5553463e-07
1.5521664e-07
1.5489737e-07
1.5457686e-07
1.5425516e-07
1.539323e-07
1.5360834e-07
1.5328332e-07
1.5295727e-07
1.5263025e-07
1.5230229e-07
1.5197343e-07
1.5164371e-07
1.5131318e-07
1.5098187e-07
1.5064982e-07
1.5031707e-07
1.4998366e-07
1.4964962e-07
1.49315e-07
1.4897982e-07
1.4864413e-07
1.4830796e-07
1.4797136e-07
1.4763438e-07
1.4729712e-07
1.469598e-07
1.4662295e-07
1.4628793e-07
1.4595852e-07
1.4564504e-07
1.4537643e-07
1.4523443e-07
1.4544985e-07
1.4668241e-07
1.5082413e-07
1.6329983e-07
1.9948001e-07
3.011603e-07
5.6903944e-07
1.1818434e-06
2.3039657e-06
3.9319958e-06
6.0378387e-06
8.7799535e-06
1.2168703e-05
1.619419e-05
2.0677693e-05
2.5592137e-05
3.0575401e-05
1.6884986e-07
1.6864759e-07
1.6844234e-07
1.682341e-07
1.6802291e-07
1.6780875e-07
1.6759166e-07
1.6737164e-07
1.6714871e-07
1.6692288e-07
1.6669417e-07
1.6646261e-07