/*--------------------------------*- C++ -*----------------------------------*\
  =========                 |
  \\      /  F ield         | OpenFOAM: The Open Source CFD Toolbox
   \\    /   O peration     | Website:  https://openfoam.org
    \\  /    A nd           | Version:  12
     \\/     M anipulation  |
\*---------------------------------------------------------------------------*/
FoamFile
{
    format      ascii;
    class       surfaceScalarField;
    location    "1100";
    object      phi;
}
// * * * * * * * * * * * * * * * * * * * * * * * * * * * * * * * * * * * * * //

dimensions      [0 3 -1 0 0 0 0];

internalField   nonuniform List<scalar> 
14782
(
0.00078251401
8.8482646e-06
-0.00079136227
0.00077195167
1.0562342e-05
0.0007608011
1.115057e-05
0.00074960951
1.1191587e-05
0.00073862561
1.0983903e-05
0.00072803114
1.0594471e-05
0.000717856
1.0175139e-05
0.0007080411
9.8149014e-06
0.00069851969
9.521402e-06
0.00068917438
9.3453096e-06
0.00067989404
9.2803484e-06
0.00067062253
9.2715062e-06
0.00066134878
9.2737542e-06
0.00065208584
9.2629373e-06
0.00064286018
9.2256548e-06
0.00063371838
9.141801e-06
0.00062474484
8.9735445e-06
0.00061595766
8.7871799e-06
0.0006073823
8.5753551e-06
0.0005991076
8.2747011e-06
0.00059118048
7.9271249e-06
0.00058364982
7.5306522e-06
0.00057655785
7.0919708e-06
0.00056993751
6.6203483e-06
0.00056382498
6.1125223e-06
0.00055824365
5.5813295e-06
0.00055318613
5.0575212e-06
0.0005486383
4.5478329e-06
0.00054457713
4.0611698e-06
0.0005409687
3.6084346e-06
0.0005377726
3.1960966e-06
0.00053495308
2.8195183e-06
0.00053248105
2.4720267e-06
0.00053031317
2.1678802e-06
0.00052840013
1.9130451e-06
0.00052669462
1.7055046e-06
0.00052514878
1.5458457e-06
0.00052372225
1.4265246e-06
0.00052239472
1.3275331e-06
0.00052114041
1.2543088e-06
0.00051992563
1.214781e-06
0.00051872744
1.1981951e-06
0.00051752793
1.199508e-06
0.0005163144
1.2135295e-06
0.00051508236
1.2320354e-06
0.00051382351
1.2588508e-06
0.00051252324
1.3002768e-06
0.00051116793
1.3553048e-06
0.00050975041
1.4175167e-06
0.00050827556
1.4748522e-06
0.00050674581
1.52975e-06
0.00050516187
1.5839447e-06
0.00050353022
1.631644e-06
0.00050186639
1.6638312e-06
0.00050018566
1.6807362e-06
0.00049849312
1.6925314e-06
0.0004967911
1.7020268e-06
0.00049508391
1.7071899e-06
0.00049337913
1.7047809e-06
0.00049167906
1.7000715e-06
0.00048998178
1.6972767e-06
0.00048829315
1.6886325e-06
0.00048662064
1.6725087e-06
0.00048496604
1.6545979e-06
0.00048332714
1.6389034e-06
0.00048170873
1.6184061e-06
0.00048011254
1.5961928e-06
0.00047853199
1.5805493e-06
0.00047696487
1.5671151e-06
0.000475414
1.5508747e-06
0.00047387926
1.5347358e-06
0.00047235686
1.5224005e-06
0.0004708526
1.5042602e-06
0.00046936894
1.4836636e-06
0.00046789908
1.4698569e-06
0.00046644503
1.4540536e-06
0.00046500802
1.4370077e-06
0.00046358163
1.4263866e-06
0.00046216866
1.4129696e-06
0.00046077263
1.3960377e-06
0.00045938916
1.3834619e-06
0.00045802076
1.3684042e-06
0.00045666832
1.3524416e-06
0.00045532608
1.3422404e-06
0.00045399619
1.3298902e-06
0.00045267965
1.3165417e-06
0.000451375
1.3046425e-06
0.00045008402
1.2909815e-06
0.00044880401
1.2800136e-06
0.00044753539
1.2686228e-06
0.0004462781
1.2572835e-06
0.00044503037
1.2477296e-06
0.00044379402
1.2363521e-06
0.00044256631
1.2277062e-06
0.00044134603
1.2202841e-06
0.00044013133
1.2146952e-06
0.00043894651
1.1848237e-06
0.00043762347
1.3230377e-06
0.00043659535
1.02812e-06
1.4083935e-06
0.0008255093
8.0481841e-06
-0.00082470922
0.00082600815
1.00635e-05
0.00082623996
1.0918754e-05
0.00082612484
1.1306711e-05
0.00082532527
1.1783471e-05
0.00082381006
1.2109684e-05
0.00082165497
1.233023e-05
0.00081891437
1.2555501e-05
0.00081567362
1.2762147e-05
0.00081203774
1.298119e-05
0.00080812266
1.3195427e-05
0.0008039832
1.3410972e-05
0.00079964073
1.3616219e-05
0.00079510315
1.3800521e-05
0.00079036937
1.3959432e-05
0.00078543374
1.4077435e-05
0.0007802667
1.4140586e-05
0.0007748865
1.4167377e-05
0.00076929791
1.4163941e-05
0.00076349823
1.4074388e-05
0.00075755207
1.3873287e-05
0.0007514967
1.3586015e-05
0.0007453618
1.3226872e-05
0.00073917777
1.2804383e-05
0.00073298347
1.2306824e-05
0.0007268144
1.1750398e-05
0.00072069711
1.1174807e-05
0.0007146655
1.0579443e-05
0.00070875502
9.971653e-06
0.00070299895
9.3645081e-06
0.00069742827
8.7667759e-06
0.00069207851
8.1692696e-06
0.00068695393
7.5966117e-06
0.00068203134
7.0904708e-06
0.00067731127
6.6331149e-06
0.00067280099
6.21578e-06
0.0006685045
5.8423359e-06
0.00066441754
5.5134843e-06
0.00066053514
5.2099363e-06
0.00065684324
4.9462087e-06
0.00065332029
4.7377296e-06
0.00064994974
4.5687525e-06
0.0006467159
4.433341e-06
0.0006436067
4.3227307e-06
0.00064061492
4.2238149e-06
0.00063773071
4.1430604e-06
0.00063491823
4.1127622e-06
0.00063214024
4.1332923e-06
0.00062939359
4.1641701e-06
0.00062668975
4.1786922e-06
0.00062403387
4.185629e-06
0.0006214224
4.1954078e-06
0.0006188503
4.203745e-06
0.00061631896
4.1951735e-06
0.00061383076
4.1689398e-06
0.00061137695
4.1463374e-06
0.00060894649
4.1324914e-06
0.00060653624
4.1174393e-06
0.00060415108
4.0899354e-06
0.00060179451
4.0566401e-06
0.00059946573
4.0260616e-06
0.00059716764
3.9867258e-06
0.00059490468
3.9354607e-06
0.0005926776
3.8816828e-06
0.00059048347
3.8330364e-06
0.00058832249
3.7793818e-06
0.00058619292
3.7257651e-06
0.00058408916
3.6843036e-06
0.00058200953
3.6467476e-06
0.00057995709
3.6033134e-06
0.00057793332
3.5585091e-06
0.00057593559
3.5201251e-06
0.00057396735
3.4725029e-06
0.00057203027
3.4207479e-06
0.00057011798
3.3821462e-06
0.0005682295
3.3425296e-06
0.00056636574
3.3007675e-06
0.00056452295
3.2691733e-06
0.00056270269
3.2332367e-06
0.00056090783
3.1908992e-06
0.00055913545
3.1558384e-06
0.00055738562
3.118236e-06
0.00055565818
3.0798772e-06
0.00055394906
3.051367e-06
0.0005522591
3.0198507e-06
0.00055058938
2.9862565e-06
0.00054893917
2.9548517e-06
0.00054730875
2.9213982e-06
0.00054569558
2.8931835e-06
0.00054409941
2.8647928e-06
0.00054252024
2.8364595e-06
0.00054095704
2.8109311e-06
0.00053940998
2.7834069e-06
0.00053787804
2.7596504e-06
0.00053635451
2.7438162e-06
0.00053485154
2.7176579e-06
0.00053335047
2.6858983e-06
0.00053183121
2.8422958e-06
0.00053016428
2.6950462e-06
2.9170169e-06
0.00085293757
7.6026451e-06
-0.00085249203
0.00085336599
9.635079e-06
0.00085372706
1.0557685e-05
0.00085401586
1.101791e-05
0.00085430528
1.149405e-05
0.0008545355
1.1879466e-05
0.00085466296
1.2202772e-05
0.00085468856
1.2529901e-05
0.00085461524
1.2835466e-05
0.0008544321
1.3164326e-05
0.00085413113
1.3496403e-05
0.00085370659
1.3835511e-05
0.0008531451
1.417771e-05
0.00085243558
1.451004e-05
0.00085156333
1.4831683e-05
0.00085050977
1.5130994e-05
0.00084924513
1.540522e-05
0.00084775349
1.5659018e-05
0.00084600953
1.59079e-05
0.00084395897
1.6124948e-05
0.00084156779
1.6264466e-05
0.00083881519
1.6338619e-05
0.00083568202
1.636004e-05
0.00083215916
1.6327243e-05
0.00082820791
1.6258072e-05
0.00082381116
1.6147151e-05
0.00081902279
1.5963177e-05
0.000813895
1.5707232e-05
0.0008084726
1.539406e-05
0.00080280492
1.5032181e-05
0.000796949
1.4622694e-05
0.00079097269
1.4145589e-05
0.00078495331
1.361599e-05
0.00077895476
1.3089015e-05
0.00077302802
1.2559857e-05
0.00076721907
1.2024727e-05
0.0007615707
1.1490706e-05
0.00075608199
1.1002196e-05
0.00075074241
1.0549517e-05
0.00074556866
1.0119957e-05
0.00074057229
9.7340997e-06
0.0007357665
9.3745411e-06
0.00073115785
9.0419992e-06
0.00072674049
8.7400889e-06
0.00072250399
8.4603074e-06
0.00071843348
8.2135773e-06
0.00071451548
8.0307594e-06
0.00071074074
7.9080357e-06
0.00070709958
7.8053227e-06
0.00070358638
7.6918975e-06
0.00070018971
7.5822976e-06
0.00069689271
7.4924114e-06
0.00069368055
7.4159056e-06
0.00069054854
7.327184e-06
0.00068749087
7.2266032e-06
0.00068448731
7.1498969e-06
0.00068152525
7.0945495e-06
0.00067860683
7.0358639e-06
0.00067573756
6.9592066e-06
0.00067291976
6.8744357e-06
0.000670151
6.7948296e-06
0.0006674313
6.70642e-06
0.00066476208
6.6046817e-06
0.000662142
6.501762e-06
0.00065956688
6.4081539e-06
0.00065703304
6.3132228e-06
0.00065453621
6.2225954e-06
0.00065207294
6.1475734e-06
0.00064964332
6.0763688e-06
0.00064725079
5.9958435e-06
0.00064489681
5.9124895e-06
0.0006425786
5.8383402e-06
0.00064029841
5.7526917e-06
0.00063805651
5.6626479e-06
0.0006358455
5.5931538e-06
0.00063366366
5.5243651e-06
0.00063151248
5.4519538e-06
0.00062938947
5.3921757e-06
0.00062729584
5.3268747e-06
0.00062523402
5.2527148e-06
0.00062320103
5.1888258e-06
0.00062119545
5.1238185e-06
0.00061921661
5.0587212e-06
0.00061726129
5.0066795e-06
0.00061533023
4.9509184e-06
0.00061342452
4.8919633e-06
0.00061154339
4.8359781e-06
0.0006096862
4.7785917e-06
0.00060785026
4.7291216e-06
0.00060603525
4.6798047e-06
0.00060424131
4.6304024e-06
0.00060246764
4.5845957e-06
0.00060071366
4.5373922e-06
0.00059897852
4.4947826e-06
0.00059725394
4.4683998e-06
0.00059555624
4.4153622e-06
0.00059385258
4.3895505e-06
0.00059217165
4.5232325e-06
0.00059019803
4.6686685e-06
4.5169277e-06
0.00088147164
7.2584335e-06
-0.00088112743
0.00088190255
9.2041719e-06
0.00088226344
1.0196794e-05
0.00088255549
1.0725859e-05
0.00088282478
1.1224762e-05
0.00088304043
1.1663812e-05
0.00088322313
1.2020076e-05
0.00088338402
1.2369014e-05
0.00088352063
1.2698857e-05
0.00088365453
1.3030423e-05
0.00088378401
1.3366922e-05
0.00088389513
1.372439e-05
0.00088398694
1.4085898e-05
0.00088405945
1.4437531e-05
0.00088410957
1.4781566e-05
0.00088413252
1.5108038e-05
0.00088412309
1.5414658e-05
0.00088407247
1.5709638e-05
0.00088397495
1.6005413e-05
0.00088381736
1.6282541e-05
0.00088357626
1.6505569e-05
0.00088323192
1.668296e-05
0.00088276149
1.6830468e-05
0.00088213711
1.6951617e-05
0.00088132094
1.7074241e-05
0.00088026093
1.7207168e-05
0.00087890708
1.7317019e-05
0.00087721831
1.7396008e-05
0.00087515468
1.7457685e-05
0.00087267513
1.7511738e-05
0.00086974629
1.755153e-05
0.00086630248
1.7589404e-05
0.0008622988
1.7619661e-05
0.00085778301
1.7604805e-05
0.00085282341
1.7519461e-05
0.00084748298
1.7365158e-05
0.00084183705
1.7136635e-05
0.00083598585
1.6853398e-05
0.0008300388
1.6496568e-05
0.00082407312
1.6085634e-05
0.0008181478
1.5659427e-05
0.00081232283
1.5199502e-05
0.00080662232
1.4742516e-05
0.00080103587
1.4326541e-05
0.00079557914
1.3917032e-05
0.00079027832
1.3514394e-05
0.0007851638
1.3145284e-05
0.00078026631
1.2805525e-05
0.00077558406
1.2487577e-05
0.00077109695
1.2179003e-05
0.00076677969
1.1899563e-05
0.00076260992
1.1662172e-05
0.00075857437
1.1451457e-05
0.00075467104
1.1230518e-05
0.00075089806
1.0999587e-05
0.00074724261
1.0805345e-05
0.0007436875
1.064966e-05
0.00074021927
1.050409e-05
0.00073683388
1.0344599e-05
0.00073352927
1.017904e-05
0.00073029946
1.0024647e-05
0.00072714023
9.8656418e-06
0.00072404885
9.6960691e-06
0.00072102142
9.5291928e-06
0.00071805187
9.3777013e-06
0.00071513056
9.2345292e-06
0.00071225294
9.1002191e-06
0.00070942167
8.9788464e-06
0.00070663806
8.8599776e-06
0.00070390473
8.7291713e-06
0.00070122201
8.5952056e-06
0.00069858598
8.474377e-06
0.00069599771
8.3409619e-06
0.00069345492
8.2054327e-06
0.00069094831
8.0997612e-06
0.00068847718
7.9955024e-06
0.00068604447
7.8846626e-06
0.0006836484
7.788244e-06
0.00068128969
7.6855862e-06
0.00067897026
7.5721424e-06
0.0006766861
7.4729875e-06
0.00067443411
7.3758032e-06
0.00067221363
7.2792074e-06
0.00067002243
7.1978732e-06
0.00066786141
7.111945e-06
0.0006657316
7.0217676e-06
0.00066363174
6.9358438e-06
0.00066156008
6.8502511e-06
0.00065951378
6.7754177e-06
0.00065749278
6.7008077e-06
0.00065549745
6.6257341e-06
0.000653527
6.5550391e-06
0.00065158011
6.4842852e-06
0.00064965569
6.4192059e-06
0.00064774483
6.3792535e-06
0.00064586579
6.2944033e-06
0.00064397871
6.2766318e-06
0.0006421371
6.3648405e-06
0.00063992423
6.8815404e-06
6.2201528e-06
0.00091101571
6.970644e-06
-0.00091072792
0.00091141691
8.8029682e-06
0.00091176047
9.8532297e-06
0.00091203965
1.0446687e-05
0.00091229345
1.0970962e-05
0.00091251046
1.1446794e-05
0.00091269417
1.1836372e-05
0.00091286167
1.2201513e-05
0.00091301191
1.2548613e-05
0.00091315134
1.2890998e-05
0.00091327944
1.3238822e-05
0.00091340368
1.360015e-05
0.00091352372
1.3965855e-05
0.00091363811
1.4323139e-05
0.0009137483
1.4671381e-05
0.00091385358
1.5002754e-05
0.0009139518
1.5316443e-05
0.00091404761
1.5613828e-05
0.00091414691
1.5906111e-05
0.00091424171
1.6187737e-05
0.00091432101
1.6426271e-05
0.00091438227
1.6621703e-05
0.00091442362
1.6789119e-05
0.00091444135
1.6933882e-05
0.00091443611
1.7079479e-05
0.00091440257
1.7240711e-05
0.00091432649
1.7393103e-05
0.00091419362
1.7528877e-05
0.00091398639
1.7664917e-05
0.00091368152
1.7816601e-05
0.00091324851
1.7984539e-05
0.00091264309
1.8194831e-05
0.00091180237
1.8460377e-05
0.00091065711
1.875007e-05
0.00090914111
1.9035457e-05
0.00090718961
1.931666e-05
0.00090473447
1.959177e-05
0.00090174801
1.9839856e-05
0.00089815742
2.0087158e-05
0.00089393542
2.0307641e-05
0.00088918289
2.0411954e-05
0.00088398302
2.0399374e-05
0.0008784375
2.0288038e-05
0.00087266717
2.0096864e-05
0.00086678112
1.9803084e-05
0.00086086065
1.9434866e-05
0.00085497531
1.9030622e-05
0.00084919185
1.8588985e-05
0.00084351595
1.8163476e-05
0.00083794067
1.7754288e-05
0.00083250192
1.7338307e-05
0.00082722664
1.6937456e-05
0.0008221343
1.65438e-05
0.00081723367
1.6131146e-05
0.00081251779
1.5715467e-05
0.00080797553
1.5347598e-05
0.00080359173
1.503346e-05
0.00079935039
1.474543e-05
0.0007952474
1.4447595e-05
0.0007912764
1.4150041e-05
0.00078742119
1.3879859e-05
0.0007836681
1.3618728e-05
0.00078000919
1.3354981e-05
0.00077644029
1.3098094e-05
0.00077295704
1.2860949e-05
0.00076955726
1.2634305e-05
0.00076623666
1.2420824e-05
0.00076298721
1.2228299e-05
0.00075980475
1.204243e-05
0.00075668957
1.1844353e-05
0.00075364006
1.1644716e-05
0.00075065024
1.1464198e-05
0.00074771975
1.1271457e-05
0.00074484193
1.1083251e-05
0.00074200592
1.093577e-05
0.00073921522
1.0786202e-05
0.00073647439
1.0625489e-05
0.00073378117
1.0481464e-05
0.00073113532
1.0331438e-05
0.00072853795
1.0169515e-05
0.00072598287
1.0028067e-05
0.00072346508
9.8935921e-06
0.00072098501
9.7592786e-06
0.00071854179
9.6410878e-06
0.00071613632
9.5174148e-06
0.00071376933
9.3887629e-06
0.00071143845
9.2667203e-06
0.00070914055
9.148154e-06
0.00070687288
9.0430874e-06
0.00070463601
8.9376732e-06
0.00070243055
8.8311949e-06
0.00070025546
8.7301279e-06
0.00069810842
8.6313329e-06
0.00069598788
8.5397448e-06
0.00069388485
8.4822812e-06
0.00069181888
8.3603691e-06
0.00068974514
8.3503786e-06
0.00068773492
8.3750558e-06
0.00068529173
9.3247334e-06
8.0455017e-06
0.00094155019
6.7319106e-06
-0.00094131146
0.00094191116
8.4419993e-06
0.00094223948
9.5249124e-06
0.00094251321
1.017295e-05
0.00094276344
1.0720735e-05
0.00094298598
1.1224253e-05
0.00094317559
1.1646767e-05
0.00094334702
1.2030078e-05
0.0009435009
1.2394739e-05
0.00094364148
1.2750411e-05
0.00094377078
1.3109522e-05
0.00094389547
1.3475463e-05
0.0009440164
1.3844919e-05
0.0009441329
1.4206649e-05
0.0009442464
1.4557873e-05
0.00094435614
1.4893015e-05
0.00094446149
1.5211099e-05
0.00094456204
1.5513276e-05
0.00094466037
1.5807778e-05
0.0009447576
1.609051e-05
0.00094484875
1.6335117e-05
0.00094493168
1.6538771e-05
0.0009450061
1.6714706e-05
0.00094507073
1.6869248e-05
0.00094512745
1.7022762e-05
0.00094518235
1.7185812e-05
0.00094523467
1.7340781e-05
0.00094527626
1.7487282e-05
0.00094530422
1.7636965e-05
0.00094531976
1.7801053e-05
0.00094532084
1.7983466e-05
0.00094530759
1.8208082e-05
0.00094527623
1.8491731e-05
0.00094521391
1.8812394e-05
0.00094510225
1.9147111e-05
0.00094491752
1.9501394e-05
0.00094462567
1.9883618e-05
0.00094418007
2.0285463e-05
0.00094351301
2.075421e-05
0.00094253452
2.1286139e-05
0.0009411547
2.1791767e-05
0.00093928943
2.2264646e-05
0.0009368784
2.2699067e-05
0.00093388203
2.309324e-05
0.00093022576
2.3459347e-05
0.00092591852
2.3742114e-05
0.00092107338
2.3875756e-05
0.00091579676
2.3865603e-05
0.000910222
2.373824e-05
0.00090447682
2.3499465e-05
0.00089865018
2.3164947e-05
0.00089281722
2.277042e-05
0.00088705067
2.2310349e-05
0.00088136591
2.1815909e-05
0.00087574526
2.1336108e-05
0.00087021931
2.0873557e-05
0.000864832
2.0420764e-05
0.000859619
1.9958431e-05
0.00085459552
1.947108e-05
0.00084974561
1.8999948e-05
0.0008450437
1.858177e-05
0.00084047628
1.8186146e-05
0.0008360425
1.7788758e-05
0.00083174466
1.7395935e-05
0.00082757673
1.7028881e-05
0.00082353716
1.6673874e-05
0.00081962025
1.6337734e-05
0.00081581109
1.6037462e-05
0.00081210267
1.5750848e-05
0.00080849086
1.5456162e-05
0.00080496816
1.5167412e-05
0.00080152459
1.4907769e-05
0.0007981583
1.463775e-05
0.00079486873
1.4372821e-05
0.00079164941
1.4155091e-05
0.00078849709
1.3938515e-05
0.0007854104
1.3712185e-05
0.00078238462
1.3507243e-05
0.00077941824
1.3297821e-05
0.00077651119
1.3076561e-05
0.0007736536
1.2885655e-05
0.00077083911
1.270809e-05
0.00076807142
1.2526963e-05
0.00076535083
1.2361682e-05
0.00076267744
1.2190802e-05
0.00076005128
1.2014926e-05
0.00075746815
1.1849843e-05
0.0007549233
1.169301e-05
0.00075241485
1.1551535e-05
0.00074994437
1.1408156e-05
0.0007475124
1.1263163e-05
0.00074511727
1.1125261e-05
0.00074275526
1.0993339e-05
0.00074042442
1.0870588e-05
0.00073811616
1.0790539e-05
0.000735851
1.0625527e-05
0.00073357989
1.0621492e-05
0.00073138819
1.056675e-05
0.00072870979
1.2003139e-05
1.0007476e-05
0.00097310562
6.5329776e-06
-0.00097290669
0.00097342889
8.118732e-06
0.0009737432
9.2106032e-06
0.00097401197
9.9041765e-06
0.00097425714
1.0475565e-05
0.00097447931
1.1002088e-05
0.00097467196
1.1454111e-05
0.00097484508
1.1856956e-05
0.00097500246
1.223736e-05
0.00097514624
1.2606634e-05
0.00097528015
1.2975616e-05
0.00097540834
1.3347266e-05
0.00097553286
1.3720401e-05
0.00097565289
1.4086621e-05
0.00097576951
1.4441257e-05
0.00097588188
1.4780638e-05
0.00097598944
1.5103543e-05
0.00097609197
1.5410749e-05
0.00097619156
1.5708182e-05
0.00097628946
1.5992617e-05
0.00097638186
1.6242711e-05
0.0009764668
1.6453833e-05
0.00097654405
1.6637458e-05
0.00097661236
1.6800935e-05
0.00097667401
1.696111e-05
0.00097673157
1.7128254e-05
0.00097678322
1.7289136e-05
0.0009768282
1.7442294e-05
0.00097686671
1.7598461e-05
0.00097689921
1.7768551e-05
0.00097692538
1.7957296e-05
0.00097694768
1.8185778e-05
0.00097697152
1.8467896e-05
0.00097699735
1.878656e-05
0.00097701995
1.9124517e-05
0.00097703709
1.9484257e-05
0.00097704724
1.9873462e-05
0.00097704521
2.0287499e-05
0.00097703084
2.0768574e-05
0.00097699474
2.1322242e-05
0.00097691015
2.1876359e-05
0.00097674729
2.24275e-05
0.00097646282
2.2983543e-05
0.00097599483
2.3561226e-05
0.00097525457
2.419961e-05
0.00097413487
2.4861815e-05
0.00097253365
2.547697e-05
0.00097036155
2.6037703e-05
0.00096756654
2.6533249e-05
0.00096408423
2.6981777e-05
0.00095992446
2.7324717e-05
0.00095520875
2.748613e-05
0.00095005295
2.7466151e-05
0.00094459523
2.7273624e-05
0.00093895416
2.6977185e-05
0.00093321082
2.6616899e-05
0.00092743751
2.6194072e-05
0.00092171187
2.5684065e-05
0.00091604529
2.5137659e-05
0.00091041353
2.4631716e-05
0.00090485082
2.4144476e-05
0.00089940624
2.3630726e-05
0.00089411793
2.3077069e-05
0.0008889928
2.2521059e-05
0.00088401139
2.2010294e-05
0.00087916665
2.1518611e-05
0.0008744641
2.1040288e-05
0.00086990932
2.0592241e-05
0.00086550074
2.0159431e-05
0.00086122645
1.9730451e-05
0.00085707149
1.9322367e-05
0.0008530253
1.8953958e-05
0.00084908798
1.8575074e-05
0.00084526343
1.8197374e-05
0.00084154676
1.7871762e-05
0.00083792761
1.7557659e-05
0.00083439929
1.7240505e-05
0.00083095384
1.6952691e-05
0.0008275866
1.6665065e-05
0.00082429433
1.6368833e-05
0.00082107106
1.6108924e-05
0.00081791453
1.5864617e-05
0.00081482328
1.5618215e-05
0.00081179242
1.5392542e-05
0.00080881998
1.5163241e-05
0.00080590502
1.4929882e-05
0.00080304054
1.471433e-05
0.00080022036
1.4513184e-05
0.00079744504
1.4326863e-05
0.00079471706
1.4136132e-05
0.00079203624
1.3943986e-05
0.00078939971
1.3761787e-05
0.00078680196
1.3591093e-05
0.00078424094
1.3431606e-05
0.00078170913
1.3322346e-05
0.00077922754
1.3107123e-05
0.00077674311
1.3105922e-05
0.00077435296
1.2956892e-05
0.00077142649
1.4929607e-05
1.2120268e-05
0.0010057162
6.3646224e-06
-0.0010055479
0.0010060051
7.8298369e-06
0.0010063032
8.9124701e-06
0.0010065653
9.642161e-06
0.0010068046
1.023625e-05
0.0010070252
1.0781429e-05
0.0010072209
1.1258405e-05
0.0010073973
1.1680644e-05
0.0010075586
1.2076046e-05
0.0010077068
1.2458407e-05
0.0010078455
1.2836898e-05
0.0010079775
1.3215292e-05
0.0010081052
1.3592652e-05
0.0010082285
1.3963309e-05
0.001008348
1.432177e-05
0.0010084631
1.4665555e-05
0.0010085734
1.4993257e-05
0.0010086788
1.53054e-05
0.0010087808
1.5606136e-05
0.0010088806
1.5892805e-05
0.0010089751
1.6148215e-05
0.0010090621
1.6366814e-05
0.0010091413
1.6558266e-05
0.0010092117
1.6730529e-05
0.0010092751
1.6897747e-05
0.0010093337
1.7069602e-05
0.0010093865
1.7236427e-05
0.0010094326
1.7396168e-05
0.0010094725
1.7558511e-05
0.0010095069
1.7734177e-05
0.0010095354
1.7928784e-05
0.0010095607
1.8160484e-05
0.0010095862
1.8442422e-05
0.0010096119
1.8760847e-05
0.0010096367
1.9099758e-05
0.0010096603
1.9460612e-05
0.0010096829
1.9850846e-05
0.0010097026
2.0267772e-05
0.0010097241
2.0747068e-05
0.001009752
2.1294409e-05
0.0010097829
2.1845431e-05
0.0010098123
2.2398136e-05
0.0010098319
2.2963864e-05
0.001009838
2.35552e-05
0.0010098267
2.4210904e-05
0.0010097793
2.4909196e-05
0.0010096607
2.5595548e-05
0.0010094253
2.6273135e-05
0.0010090043
2.6954276e-05
0.0010082988
2.7687246e-05
0.0010071907
2.8432768e-05
0.0010055677
2.9109185e-05
0.001003337
2.9696885e-05
0.0010004005
3.0210121e-05
0.00099673139
3.0646244e-05
0.00099242663
3.0921668e-05
0.00098760969
3.1011008e-05
0.00098240715
3.0886602e-05
0.00097694757
3.0597241e-05
0.00097132721
3.0252074e-05
0.00096561415
2.9857536e-05
0.00095987977
2.9365106e-05
0.00095418064
2.8776198e-05
0.00094849959
2.8202113e-05
0.00094282479
2.7685098e-05
0.00093721642
2.7126978e-05
0.00093173451
2.6522195e-05
0.00092640377
2.5922982e-05
0.00092121542
2.534778e-05
0.00091616207
2.4783799e-05
0.00091124406
2.4240381e-05
0.00090646722
2.3730798e-05
0.00090183642
2.3205878e-05
0.0008973453
2.2688493e-05
0.0008929834
2.2233664e-05
0.00088874885
2.1792205e-05
0.00088464105
2.1348306e-05
0.00088064877
2.0944972e-05
0.000876762
2.0551829e-05
0.00087297447
2.015637e-05
0.00086928509
1.9798302e-05
0.00086569563
1.945408e-05
0.00086219805
1.9115793e-05
0.00085878114
1.8809451e-05
0.00085544024
1.8504146e-05
0.00085217194
1.8198182e-05
0.00084897147
1.7914793e-05
0.00084583583
1.7648824e-05
0.00084276153
1.7401163e-05
0.00083974656
1.7151107e-05
0.0008367888
1.6901747e-05
0.00083388373
1.6666852e-05
0.00083102364
1.6451186e-05
0.00082820734
1.6247901e-05
0.00082542902
1.6100667e-05
0.00082270931
1.5826835e-05
0.00081999098
1.5824256e-05
0.00081738135
1.5566519e-05
0.00081418836
1.8122599e-05
1.43988e-05
0.001039416
6.2197112e-06
-0.0010392711
0.0010396738
7.5720604e-06
0.0010399542
8.6320879e-06
0.0010402086
9.3876703e-06
0.0010404427
1.0002225e-05
0.0010406615
1.0562597e-05
0.0010408595
1.1060402e-05
0.0010410387
1.1501475e-05
0.0010412032
1.1911563e-05
0.0010413551
1.2306438e-05
0.0010414975
1.2694542e-05
0.001041633
1.3079773e-05
0.0010417637
1.3461923e-05
0.0010418903
1.3836718e-05
0.0010420128
1.4199304e-05
0.0010421309
1.4547462e-05
0.0010422443
1.4879877e-05
0.0010423528
1.5196851e-05
0.0010424578
1.5501172e-05
0.00104256
1.5790541e-05
0.0010426571
1.6051164e-05
0.0010427467
1.6277187e-05
0.0010428284
1.6476544e-05
0.0010429016
1.6657409e-05
0.0010429674
1.6831871e-05
0.0010430282
1.7008884e-05
0.0010430829
1.7181697e-05
0.0010431309
1.7348123e-05
0.0010431726
1.7516805e-05
0.0010432086
1.7698207e-05
0.0010432387
1.789864e-05
0.0010432654
1.8133845e-05
0.0010432917
1.841608e-05
0.0010433181
1.8734455e-05
0.0010433436
1.9074298e-05
0.0010433681
1.9436102e-05
0.0010433919
1.9827045e-05
0.0010434134
2.024623e-05
0.0010434372
2.0723351e-05
0.0010434668
2.1264781e-05
0.0010434975
2.1814696e-05
0.0010435286
2.2367054e-05
0.0010435589
2.2933549e-05
0.0010435879
2.3526172e-05
0.0010436199
2.4178897e-05
0.0010436561
2.4873023e-05
0.0010436953
2.5556365e-05
0.00104373
2.6238413e-05
0.0010437478
2.6936525e-05
0.0010437444
2.7690599e-05
0.0010436998
2.8477373e-05
0.0010435721
2.9236893e-05
0.0010433043
2.9964676e-05
0.0010428054
3.0709034e-05
0.0010419539
3.1497794e-05
0.0010406239
3.2251597e-05
0.0010387103
3.2924606e-05
0.0010360833
3.3513598e-05
0.0010326646
3.401597e-05
0.001028551
3.4365631e-05
0.0010238982
3.4510361e-05
0.0010188369
3.4426405e-05
0.0010134861
3.4127036e-05
0.0010079395
3.3748653e-05
0.0010022657
3.335896e-05
0.00099652783
3.2864827e-05
0.00099079828
3.2251753e-05
0.0009850647
3.1656564e-05
0.00097930182
3.1110656e-05
0.00097357566
3.0509955e-05
0.0009679543
2.9861747e-05
0.00096246617
2.9218927e-05
0.00095710795
2.8564098e-05
0.00095187615
2.7920291e-05
0.00094677559
2.7334219e-05
0.00094182421
2.6743589e-05
0.00093702826
2.6144261e-05
0.00093237279
2.5600441e-05
0.00092784862
2.5075995e-05
0.00092345473
2.4550261e-05
0.00091918837
2.4064663e-05
0.00091504715
2.3595298e-05
0.00091102485
2.3138098e-05
0.00090711191
2.2722388e-05
0.00090330219
2.2313869e-05
0.000899588
2.1912366e-05
0.00089596646
2.1536331e-05
0.00089243864
2.1176648e-05
0.00088899624
2.084356e-05
0.00088563104
2.0516309e-05
0.00088233786
2.0194928e-05
0.000879112
1.9892708e-05
0.0008759493
1.9613886e-05
0.00087284747
1.9349737e-05
0.00086979516
1.9152979e-05
0.00086681108
1.8810914e-05
0.0008638335
1.8801831e-05
0.00086097901
1.8421015e-05
0.00085749656
2.1605047e-05
1.6858986e-05
0.0010742404
6.0930219e-06
-0.0010741138
0.0010744706
7.341866e-06
0.0010747328
8.3699644e-06
0.0010749791
9.1413698e-06
0.0010752079
9.7733685e-06
0.0010754242
1.0346324e-05
0.0010756233
1.0861319e-05
0.0010758048
1.1319989e-05
0.0010759721
1.1744263e-05
0.0010761275
1.2150982e-05
0.0010762736
1.2548484e-05
0.0010764127
1.2940618e-05
0.0010765469
1.3327758e-05
0.0010766768
1.3706798e-05
0.0010768024
1.4073693e-05
0.0010769236
1.4426289e-05
0.0010770401
1.4763423e-05
0.0010771517
1.5085198e-05
0.0010772595
1.539337e-05
0.0010773642
1.5685878e-05
0.0010774637
1.5951683e-05
0.0010775558
1.6185045e-05
0.00107764
1.6392336e-05
0.0010777158
1.6581634e-05
0.0010777842
1.6763449e-05
0.0010778471
1.6945977e-05
0.001077904
1.7124823e-05
0.0010779541
1.7297979e-05
0.0010779978
1.7473112e-05
0.0010780357
1.7660354e-05
0.0010780678
1.7866527e-05
0.0010780962
1.8105394e-05
0.001078124
1.8388281e-05
0.0010781517
1.8706762e-05
0.0010781784
1.9047574e-05
0.0010782041
1.9410435e-05
0.001078229
1.9802177e-05
0.0010782518
2.0223376e-05
0.0010782765
2.0698711e-05
0.0010783064
2.1234816e-05
0.0010783377
2.1783487e-05
0.0010783692
2.2335485e-05
0.0010784005
2.2902231e-05
0.0010784312
2.3495483e-05
0.0010784655
2.4144616e-05
0.0010785042
2.4834324e-05
0.0010785434
2.5517201e-05
0.0010785821
2.6199672e-05
0.0010786196
2.6899071e-05
0.0010786599
2.7650222e-05
0.0010787019
2.8435377e-05
0.0010787473
2.9191496e-05
0.0010787871
2.9924956e-05
0.0010788036
3.0692476e-05
0.0010787875
3.1513873e-05
0.0010787054
3.2333694e-05
0.0010785033
3.3126774e-05
0.0010780925
3.3924341e-05
0.0010773442
3.4764253e-05
0.0010761191
3.5590789e-05
0.0010743011
3.6328321e-05
0.0010717543
3.697327e-05
0.0010683627
3.7518565e-05
0.0010642265
3.7884934e-05
0.0010595568
3.8028642e-05
0.0010544964
3.7925172e-05
0.0010491508
3.759739e-05
0.0010436018
3.720557e-05
0.001037914
3.6798466e-05
0.0010321455
3.6278426e-05
0.0010263649
3.5642351e-05
0.0010205591
3.5024715e-05
0.0010147076
3.4415603e-05
0.0010088792
3.374869e-05
0.0010031399
3.3073535e-05
0.00099752231
3.2361173e-05
0.00099202617
3.1640402e-05
0.0009866521
3.0974509e-05
0.00098141677
3.0311319e-05
0.00097633482
2.9632216e-05
0.00097140066
2.8998819e-05
0.00096660733
2.8388625e-05
0.000961956
2.778943e-05
0.00095744471
2.7233684e-05
0.00095306651
2.6692068e-05
0.00094881079
2.6168087e-05
0.00094467295
2.5674163e-05
0.00094065376
2.5195846e-05
0.00093674549
2.4751824e-05
0.00093293909
2.4322713e-05
0.00092922735
2.3906661e-05
0.00092560462
2.3515439e-05
0.00092207024
2.3148269e-05
0.00091862074
2.2799236e-05
0.00091523821
2.2535514e-05
0.00091193736
2.211176e-05
0.00090865514
2.208405e-05
0.00090552098
2.1555174e-05
0.00090172261
2.5403417e-05
1.9517697e-05
0.0011102266
5.9806972e-06
-0.0011101143
0.0011104327
7.1357215e-06
0.0011106767
8.1259576e-06
0.0011109141
8.9040349e-06
0.0011111376
9.5498518e-06
0.0011113508
1.013315e-05
0.00111155
1.0662053e-05
0.0011117335
1.1136554e-05
0.0011119034
1.1574333e-05
0.0011120621
1.1992256e-05
0.0011122117
1.2398867e-05
0.0011123544
1.2797938e-05
0.0011124919
1.3190268e-05
0.001112625
1.3573728e-05
0.0011127536
1.3945027e-05
0.0011128778
1.4302114e-05
0.0011129973
1.4643956e-05
0.001113112
1.4970489e-05
0.0011132227
1.5282707e-05
0.0011133298
1.5578721e-05
0.0011134318
1.5849705e-05
0.0011135265
1.60903e-05
0.0011136133
1.6305523e-05
0.0011136919
1.6503122e-05
0.0011137629
1.6692377e-05
0.0011138282
1.6880749e-05
0.0011138873
1.7065712e-05
0.0011139396
1.7245646e-05
0.0011139854
1.7427341e-05
0.0011140252
1.7620523e-05
0.0011140594
1.7832368e-05
0.0011140897
1.8075027e-05
0.0011141191
1.8358895e-05
0.0011141482
1.8677644e-05
0.0011141764
1.9019455e-05
0.0011142033
1.938345e-05
0.0011142295
1.9776048e-05
0.0011142539
2.0198991e-05
0.0011142798
2.0672778e-05
0.0011143106
2.1203959e-05
0.001114343
2.1751148e-05
0.0011143756
2.230285e-05
0.0011144081
2.2869795e-05
0.00111444
2.3463563e-05
0.0011144751
2.4109508e-05
0.0011145142
2.4795189e-05
0.0011145538
2.547762e-05
0.0011145933
2.6160212e-05
0.0011146323
2.6860009e-05
0.0011146746
2.7607936e-05
0.0011147212
2.8388767e-05
0.0011147675
2.9145207e-05
0.0011148111
2.9881379e-05
0.0011148545
3.0649073e-05
0.0011148993
3.1469042e-05
0.0011149464
3.2286587e-05
0.0011149923
3.3080928e-05
0.00111502
3.3896633e-05
0.0011150144
3.4769856e-05
0.001114946
3.5659116e-05
0.0011147572
3.6517187e-05
0.0011143527
3.7377733e-05
0.0011135885
3.8282767e-05
0.0011123082
3.9165271e-05
0.0011103952