/*--------------------------------*- C++ -*----------------------------------*\
  =========                 |
  \\      /  F ield         | OpenFOAM: The Open Source CFD Toolbox
   \\    /   O peration     | Website:  https://openfoam.org
    \\  /    A nd           | Version:  12
     \\/     M anipulation  |
\*---------------------------------------------------------------------------*/
FoamFile
{
    format      ascii;
    class       volVectorField;
    location    "1100";
    object      U;
}
// * * * * * * * * * * * * * * * * * * * * * * * * * * * * * * * * * * * * * //

dimensions      [0 1 -1 0 0 0 0];

internalField   nonuniform List<vector> 
7480
(
(0.98222741 0.0007568346 0)
(0.96970277 0.001401878 0)
(0.95646979 0.0017613402 0)
(0.94236453 0.0020803423 0)
(0.92839314 0.0024834578 0)
(0.91491741 0.002733754 0)
(0.90196056 0.0027631211 0)
(0.88951027 0.0026981201 0)
(0.87747371 0.0025892248 0)
(0.86575591 0.002438287 0)
(0.85415596 0.0022629322 0)
(0.84258546 0.0020983961 0)
(0.83101202 0.0019451186 0)
(0.8194404 0.0018011489 0)
(0.80789403 0.0016651373 0)
(0.79641509 0.0015348089 0)
(0.78507663 0.0014031373 0)
(0.77402899 0.0012725974 0)
(0.76315273 0.0011558846 0)
(0.75262232 0.0010453591 0)
(0.7425027 0.00093926697 0)
(0.73284894 0.00083780173 0)
(0.72371715 0.00074151231 0)
(0.71515553 0.00065127834 0)
(0.70720687 0.00056638494 0)
(0.69991099 0.00048698901 0)
(0.69327972 0.00041474931 0)
(0.68729876 0.00034948307 0)
(0.6819414 0.00029113066 0)
(0.67717143 0.00024063315 0)
(0.67294205 0.00019785359 0)
(0.66920314 0.00016161635 0)
(0.66591531 0.00013082641 0)
(0.66303546 0.0001054041 0)
(0.66050686 8.4510866e-05 0)
(0.65826717 6.8162279e-05 0)
(0.65625417 5.666599e-05 0)
(0.65441075 4.9158467e-05 0)
(0.65270073 4.3666418e-05 0)
(0.65109725 4.0231683e-05 0)
(0.64956498 3.9293731e-05 0)
(0.64806744 4.0049161e-05 0)
(0.64657702 4.2010272e-05 0)
(0.64507423 4.4652013e-05 0)
(0.64354961 4.7399836e-05 0)
(0.64199635 5.0392528e-05 0)
(0.6404043 5.4151651e-05 0)
(0.6387516 5.8538044e-05 0)
(0.63702208 6.281601e-05 0)
(0.63521503 6.6454602e-05 0)
(0.63333741 6.956474e-05 0)
(0.63139276 7.2255531e-05 0)
(0.62938403 7.4305831e-05 0)
(0.62732346 7.5315627e-05 0)
(0.62523179 7.5283308e-05 0)
(0.62312452 7.468342e-05 0)
(0.62100636 7.37576e-05 0)
(0.61887846 7.2549533e-05 0)
(0.61674767 7.0996885e-05 0)
(0.61462187 6.9308263e-05 0)
(0.61250174 6.7697185e-05 0)
(0.61038819 6.5919256e-05 0)
(0.60828924 6.3870211e-05 0)
(0.60621257 6.1739248e-05 0)
(0.60415777 5.9715636e-05 0)
(0.60212528 5.7588895e-05 0)
(0.60011971 5.5417051e-05 0)
(0.59813879 5.349544e-05 0)
(0.59617571 5.1743875e-05 0)
(0.59422984 4.9982094e-05 0)
(0.59230444 4.8258627e-05 0)
(0.59039717 4.6696305e-05 0)
(0.58850807 4.5042118e-05 0)
(0.58664356 4.3334406e-05 0)
(0.58480177 4.1835929e-05 0)
(0.58297793 4.0362087e-05 0)
(0.58117419 3.8889162e-05 0)
(0.57938811 3.7610273e-05 0)
(0.57761632 3.6334254e-05 0)
(0.57586319 3.5002914e-05 0)
(0.57412924 3.3794612e-05 0)
(0.57241245 3.2584869e-05 0)
(0.57071513 3.1379595e-05 0)
(0.56903443 3.0326562e-05 0)
(0.56736719 2.9282783e-05 0)
(0.56571568 2.824353e-05 0)
(0.56408019 2.7260505e-05 0)
(0.56246104 2.6277942e-05 0)
(0.5608573 2.5369022e-05 0)
(0.5592672 2.4487153e-05 0)
(0.5576913 2.3631136e-05 0)
(0.55612828 2.2831981e-05 0)
(0.55457884 2.2030751e-05 0)
(0.55304106 2.1291648e-05 0)
(0.55151741 2.0600712e-05 0)
(0.54998703 1.9968718e-05 0)
(0.54851798 1.912158e-05 0)
(0.54691723 5.0182915e-05 0)
(0.54552152 9.4319071e-05 0)
(0.54341089 9.0343777e-05 0)
(0.99619972 0.0027568208 0)
(0.9970947 0.0038450145 0)
(0.99771455 0.0042243745 0)
(0.99795599 0.0041370228 0)
(0.9973797 0.0039219651 0)
(0.99593687 0.0035840544 0)
(0.99369876 0.0032692913 0)
(0.990715 0.0030125117 0)
(0.98707875 0.0028105585 0)
(0.98287928 0.0026633577 0)
(0.97829397 0.0025757243 0)
(0.9734167 0.0025246971 0)
(0.96828973 0.0024906495 0)
(0.96292561 0.0024611452 0)
(0.95732697 0.0024295224 0)
(0.95148834 0.0023911914 0)
(0.9454028 0.0023430733 0)
(0.93900591 0.0022852735 0)
(0.93240893 0.0022112094 0)
(0.92549898 0.0021176741 0)
(0.91839422 0.0020086327 0)
(0.91113909 0.0018879711 0)
(0.90376912 0.0017584686 0)
(0.89631952 0.0016234414 0)
(0.88883614 0.0014849203 0)
(0.88136021 0.0013471151 0)
(0.87393167 0.0012142556 0)
(0.86658772 0.0010873748 0)
(0.85936818 0.00096794132 0)
(0.85231509 0.00085729357 0)
(0.84546813 0.00075646752 0)
(0.83886543 0.00066433123 0)
(0.83255444 0.00058314607 0)
(0.82648917 0.00051561444 0)
(0.82066687 0.00045848681 0)
(0.81509443 0.00040942168 0)
(0.80977784 0.00036813319 0)
(0.80472094 0.00033416696 0)
(0.79991449 0.00030455739 0)
(0.7953463 0.00027921757 0)
(0.79099656 0.00025949413 0)
(0.78684183 0.00024400769 0)
(0.78286033 0.00023189426 0)
(0.77903437 0.00022202197 0)
(0.77535438 0.00021312862 0)
(0.77180885 0.00020552787 0)
(0.76838836 0.00020127634 0)
(0.76501795 0.00019995995 0)
(0.76168055 0.00019881641 0)
(0.75838655 0.00019636479 0)
(0.75514929 0.00019336613 0)
(0.7519708 0.00019041881 0)
(0.74884346 0.00018719451 0)
(0.74576188 0.00018291202 0)
(0.74273108 0.00017768651 0)
(0.73975059 0.00017261933 0)
(0.73680456 0.00016784878 0)
(0.73388225 0.00016295411 0)
(0.73098512 0.00015761429 0)
(0.72812095 0.00015221115 0)
(0.72529225 0.00014711047 0)
(0.72249849 0.0001418032 0)
(0.71974362 0.0001361651 0)
(0.71703264 0.00013059922 0)
(0.71436406 0.0001254052 0)
(0.71173571 0.00012016775 0)
(0.70914594 0.00011505735 0)
(0.70659107 0.00011053794 0)
(0.70406573 0.00010633719 0)
(0.70157001 0.00010211771 0)
(0.69910868 9.8023506e-05 0)
(0.69668125 9.4277303e-05 0)
(0.69428604 9.0394001e-05 0)
(0.69192834 8.6515687e-05 0)
(0.68960602 8.3117595e-05 0)
(0.68731172 7.9802323e-05 0)
(0.68504608 7.6549193e-05 0)
(0.68280879 7.3682157e-05 0)
(0.68059687 7.0819356e-05 0)
(0.67841366 6.7906425e-05 0)
(0.67626066 6.5264984e-05 0)
(0.67413447 6.264993e-05 0)
(0.67203537 6.0100134e-05 0)
(0.66996122 5.7851479e-05 0)
(0.66790884 5.5624385e-05 0)
(0.66588009 5.3436166e-05 0)
(0.66387578 5.1371008e-05 0)
(0.66189556 4.9335122e-05 0)
(0.65993779 4.7459927e-05 0)
(0.65800008 4.5647019e-05 0)
(0.65608306 4.3900007e-05 0)
(0.65418577 4.2264299e-05 0)
(0.65230868 4.0648547e-05 0)
(0.65044872 3.9150343e-05 0)
(0.64861035 3.7796944e-05 0)
(0.64676474 3.6386672e-05 0)
(0.64499767 3.5556714e-05 0)
(0.64308069 6.9972439e-05 0)
(0.64148668 0.00011860153 0)
(0.63857051 9.8415901e-05 0)
(0.99631319 0.0026084547 0)
(0.99684544 0.0030867555 0)
(0.99746332 0.0030462208 0)
(0.99789703 0.0029374236 0)
(0.99816669 0.002915298 0)
(0.99849024 0.0029456574 0)
(0.99869869 0.003008635 0)
(0.99878799 0.0030935925 0)
(0.99876358 0.0031632029 0)
(0.9986153 0.0032364125 0)
(0.99833307 0.0032784323 0)
(0.99790962 0.0032954665 0)
(0.99733506 0.0032904081 0)
(0.99659486 0.0032687512 0)
(0.99567361 0.0032310227 0)
(0.99455261 0.003177766 0)
(0.99320939 0.0031108167 0)
(0.99159278 0.0030377008 0)
(0.9897215 0.0029658433 0)
(0.98750951 0.0028871116 0)
(0.98491912 0.0027946209 0)
(0.98191748 0.0026926237 0)
(0.97848092 0.0025851701 0)
(0.9745865 0.002472103 0)
(0.97024398 0.0023517807 0)
(0.96534382 0.0022207549 0)
(0.95995534 0.0020841502 0)
(0.9541473 0.0019466923 0)
(0.94796722 0.0018106979 0)
(0.94146929 0.0016772052 0)
(0.93471604 0.0015473855 0)
(0.92778163 0.0014204603 0)
(0.92074899 0.0012965592 0)
(0.91370998 0.0011818567 0)
(0.90672886 0.0010788848 0)
(0.89986121 0.00098580329 0)
(0.89315499 0.00090160494 0)
(0.8866628 0.00082930463 0)
(0.88033302 0.00076621108 0)
(0.87418459 0.00070992287 0)
(0.86824 0.00066138241 0)
(0.86251177 0.00061823922 0)
(0.85701304 0.00057975114 0)
(0.85174458 0.00054548301 0)
(0.84669332 0.0005139918 0)
(0.84184469 0.00048603039 0)
(0.83718082 0.00046303481 0)
(0.83269125 0.00044506279 0)
(0.82836216 0.00043011878 0)
(0.82418497 0.00041508192 0)
(0.8201518 0.0004003038 0)
(0.81624654 0.0003866818 0)
(0.81244834 0.00037380369 0)
(0.80874271 0.00036031723 0)
(0.80513015 0.00034638423 0)
(0.80159553 0.00033387762 0)
(0.79811063 0.0003225369 0)
(0.79467457 0.00031118485 0)
(0.79129174 0.0002992619 0)
(0.78796856 0.00028736757 0)
(0.78470555 0.00027611063 0)
(0.78149957 0.00026479723 0)
(0.77835094 0.00025325701 0)
(0.77526124 0.00024206563 0)
(0.77222719 0.00023166073 0)
(0.76924492 0.00022154803 0)
(0.76630621 0.00021191982 0)
(0.76340863 0.00020322971 0)
(0.76055001 0.00019504703 0)
(0.75773176 0.00018687556 0)
(0.75495856 0.00017893136 0)
(0.7522297 0.00017157857 0)
(0.74954249 0.00016412678 0)
(0.74690139 0.00015679821 0)
(0.74430187 0.00015032008 0)
(0.74173554 0.00014409175 0)
(0.73920358 0.00013801916 0)
(0.73670692 0.00013254119 0)
(0.73424309 0.00012712139 0)
(0.73181483 0.00012167948 0)
(0.7294236 0.00011668855 0)
(0.72706466 0.00011182764 0)
(0.72473706 0.00010713992 0)
(0.72243914 0.00010293489 0)
(0.72016832 9.8805415e-05 0)
(0.71792643 9.4765417e-05 0)
(0.71571431 9.0936989e-05 0)
(0.71353086 8.7207706e-05 0)
(0.71137375 8.3763893e-05 0)
(0.70924058 8.0449909e-05 0)
(0.70713217 7.7259803e-05 0)
(0.7050478 7.4253808e-05 0)
(0.70298773 7.1322374e-05 0)
(0.70094816 6.8577549e-05 0)
(0.69893373 6.615409e-05 0)
(0.69691452 6.3491665e-05 0)
(0.69497829 6.1693082e-05 0)
(0.69289191 9.2458915e-05 0)
(0.69116177 0.00014049296 0)
(0.68793733 0.0001072525 0)
(0.99646479 0.002366461 0)
(0.99691351 0.0028578532 0)
(0.99748249 0.0030698104 0)
(0.99790899 0.0031894849 0)
(0.99820136 0.0032941244 0)
(0.99844889 0.0033745854 0)
(0.99867298 0.0033905079 0)
(0.99886888 0.0033767606 0)
(0.99903928 0.0033394085 0)
(0.99917953 0.0032860847 0)
(0.99933858 0.0032324591 0)
(0.99947376 0.0031845266 0)
(0.99958635 0.0031434169 0)
(0.99968035 0.0031020916 0)
(0.99975043 0.0030679917 0)
(0.99979295 0.0030367396 0)
(0.99980262 0.0030029397 0)
(0.99977081 0.0029707478 0)
(0.99968942 0.0029415401 0)
(0.99954811 0.0029089071 0)
(0.99932786 0.0028652656 0)
(0.99900322 0.0028122738 0)
(0.99854894 0.0027527737 0)
(0.99793604 0.0026879929 0)
(0.99713661 0.0026216084 0)
(0.99608619 0.0025586018 0)
(0.99473055 0.0024948537 0)
(0.99301993 0.0024253795 0)
(0.99090665 0.0023507548 0)
(0.98834595 0.0022733407 0)
(0.98529022 0.0021921425 0)
(0.98171589 0.002104715 0)
(0.97749336 0.0020116677 0)
(0.97264781 0.0019136936 0)
(0.96727132 0.0018105624 0)
(0.96142518 0.0017046897 0)
(0.95518754 0.0015976408 0)
(0.94865058 0.0014907421 0)
(0.94195552 0.0013861263 0)
(0.9351983 0.0012878698 0)
(0.92845905 0.0011988894 0)
(0.92179998 0.0011168858 0)
(0.91528869 0.0010433227 0)
(0.90890998 0.00097924167 0)
(0.90265722 0.00092049913 0)
(0.89656966 0.00086616604 0)
(0.89066948 0.00081877222 0)
(0.88500697 0.00077767224 0)
(0.8795982 0.00073990212 0)
(0.87442228 0.00070345279 0)
(0.86945138 0.00066938037 0)
(0.8646591 0.00063902397 0)
(0.86002382 0.00061141962 0)
(0.85553643 0.0005842 0)
(0.85119849 0.00055700397 0)
(0.84700337 0.000532266 0)
(0.84293267 0.00051054816 0)
(0.83896563 0.0004903201 0)
(0.83509121 0.00046997739 0)
(0.83130956 0.00044989798 0)
(0.82761739 0.00043091393 0)
(0.82400723 0.00041222664 0)
(0.82047432 0.00039361733 0)
(0.81701599 0.0003757634 0)
(0.81362748 0.00035919903 0)
(0.81030211 0.00034352291 0)
(0.8070215 0.0003286823 0)
(0.8037935 0.00031489514 0)
(0.80061923 0.00030172845 0)
(0.79749961 0.00028863368 0)
(0.79443794 0.00027592099 0)
(0.79143216 0.00026411377 0)
(0.78847811 0.00025232679 0)
(0.78557938 0.00024090598 0)
(0.78272659 0.00023081497 0)
(0.77991187 0.00022113785 0)
(0.7771388 0.00021166833 0)
(0.77440936 0.00020298779 0)
(0.77172106 0.00019445686 0)
(0.76907589 0.00018596231 0)
(0.76647496 0.00017813908 0)
(0.76391114 0.00017062117 0)
(0.7613826 0.0001634041 0)
(0.75888881 0.00015684103 0)
(0.75642801 0.0001504217 0)
(0.75400192 0.00014415341 0)
(0.75161126 0.00013820475 0)
(0.74925367 0.00013246264 0)
(0.74692604 0.00012714868 0)
(0.7446263 0.00012204205 0)
(0.7423557 0.00011712242 0)
(0.74011367 0.00011246788 0)
(0.73790012 0.0001079682 0)
(0.73571037 0.00010373295 0)
(0.73354891 0.00010003732 0)
(0.73138634 9.583532e-05 0)
(0.72930936 9.2930119e-05 0)
(0.72708592 0.00011879337 0)
(0.7252356 0.00016605833 0)
(0.72180254 0.00012561373 0)
(0.99664512 0.0022647923 0)
(0.99702626 0.0027802364 0)
(0.99753172 0.0030271714 0)
(0.99792751 0.0031111684 0)
(0.99820228 0.0031510309 0)
(0.998434 0.003154204 0)
(0.99865031 0.0031311616 0)
(0.99884578 0.0031071221 0)
(0.9990193 0.0030849948 0)
(0.99917602 0.0030721397 0)
(0.99932105 0.0030670308 0)
(0.99945793 0.0030680322 0)
(0.99959061 0.0030687856 0)
(0.99971902 0.0030678572 0)
(0.99984217 0.0030608827 0)
(0.99995985 0.0030453574 0)
(1.0000724 0.003023394 0)
(1.0001747 0.0029957945 0)
(1.0002839 0.0029645705 0)
(1.0003913 0.0029280293 0)
(1.0004877 0.0028815558 0)
(1.0005658 0.0028272701 0)
(1.0006233 0.0027690208 0)
(1.0006555 0.0027083211 0)
(1.0006635 0.0026507892 0)
(1.0006436 0.0025981518 0)
(1.0005866 0.0025436368 0)
(1.0004768 0.0024860453 0)
(1.0002959 0.0024286773 0)
(1.000022 0.0023735511 0)
(0.99962598 0.0023204676 0)
(0.9990737 0.0022729431 0)
(0.99829851 0.0022309338 0)
(0.99722614 0.0021934226 0)
(0.99578571 0.0021539196 0)
(0.9939028 0.0021106134 0)
(0.99150744 0.0020619993 0)
(0.98851922 0.0020096652 0)
(0.98496682 0.0019512665 0)
(0.98064843 0.0018829125 0)
(0.97571213 0.0018032426 0)
(0.97024108 0.0017160701 0)
(0.96432642 0.0016238803 0)
(0.95809986 0.0015304582 0)
(0.95169668 0.0014388822 0)
(0.94521487 0.001351868 0)
(0.93873709 0.0012718718 0)
(0.93233674 0.0011976403 0)
(0.92608319 0.001131298 0)
(0.91991749 0.0010706193 0)
(0.91388139 0.0010134415 0)
(0.90801507 0.00096068617 0)
(0.90233964 0.00091158722 0)
(0.89687562 0.00086404667 0)
(0.89161776 0.00081851921 0)
(0.88655527 0.00077766962 0)
(0.88167923 0.00074146289 0)
(0.87696466 0.00070784808 0)
(0.87240009 0.00067487978 0)
(0.8679863 0.0006429734 0)
(0.86371003 0.0006133042 0)
(0.85955187 0.000584976 0)
(0.85549852 0.00055747884 0)
(0.85154485 0.0005312691 0)
(0.84768831 0.00050680941 0)
(0.84392412 0.00048351791 0)
(0.84024931 0.00046168359 0)
(0.83665682 0.00044167163 0)
(0.83313904 0.0004226237 0)
(0.82969368 0.00040378728 0)
(0.82632203 0.00038554366 0)
(0.82301979 0.00036859763 0)
(0.81978066 0.00035186023 0)
(0.81660731 0.00033588947 0)
(0.81348185 0.00032175252 0)
(0.81040211 0.00030807543 0)
(0.80737539 0.00029460455 0)
(0.80440332 0.00028213556 0)
(0.80148251 0.00026995799 0)
(0.79861388 0.00025791778 0)
(0.79579784 0.00024685513 0)
(0.79302313 0.00023635874 0)
(0.79028835 0.00022627426 0)
(0.78759515 0.0002169859 0)
(0.78494238 0.00020792198 0)
(0.7823313 0.00019909071 0)
(0.77976231 0.0001907225 0)
(0.77723095 0.00018271427 0)
(0.77473343 0.00017528798 0)
(0.77226868 0.00016814604 0)
(0.76983843 0.00016125877 0)
(0.7674421 0.00015472959 0)
(0.76507899 0.00014846182 0)
(0.76274314 0.00014255168 0)
(0.76043916 0.00013741508 0)
(0.75813856 0.0001314783 0)
(0.75592665 0.00012746273 0)
(0.75357232 0.000149074 0)
(0.75160731 0.00019619315 0)
(0.74797997 0.00015034699 0)
(0.99681506 0.0021857333 0)
(0.99713589 0.0026676905 0)
(0.9975772 0.0029103115 0)
(0.99794397 0.002999487 0)
(0.99821203 0.0030549502 0)
(0.99844114 0.0030977916 0)
(0.99865619 0.0031234828 0)
(0.99885083 0.0031379351 0)
(0.99902297 0.0031466774 0)
(0.99917714 0.003146404 0)
(0.99931853 0.0031428791 0)
(0.99945163 0.0031360447 0)
(0.99958062 0.0031244625 0)
(0.99970635 0.0031061118 0)
(0.99982828 0.0030817144 0)
(0.9999464 0.0030522477 0)
(1.0000604 0.0030187021 0)
(1.0001697 0.0029815055 0)
(1.0002746 0.0029427777 0)
(1.0003774 0.0029021884 0)
(1.0004776 0.0028553486 0)
(1.0005711 0.0028025666 0)
(1.0006548 0.0027464298 0)
(1.0007284 0.0026880761 0)
(1.0007929 0.0026310243 0)
(1.0008484 0.0025764859 0)
(1.0009068 0.0025210789 0)
(1.0009594 0.0024651792 0)
(1.0009956 0.0024112971 0)
(1.0010186 0.0023610656 0)
(1.0010277 0.002314686 0)
(1.0010222 0.0022749972 0)
(1.0009998 0.0022448961 0)
(1.0009532 0.0022185078 0)
(1.0008664 0.0021918298 0)
(1.0007167 0.0021655023 0)
(1.0004742 0.0021409027 0)
(1.0000955 0.002116209 0)
(0.99953107 0.0020949671 0)
(0.99867768 0.002079039 0)
(0.997448 0.0020589752 0)
(0.99575037 0.0020308773 0)
(0.99349026 0.0019963051 0)
(0.99063531 0.0019563929 0)
(0.98713682 0.0019066151 0)
(0.98287841 0.0018443383 0)
(0.97800265 0.0017705674 0)
(0.97261095 0.0016891191 0)
(0.96682265 0.0016023515 0)
(0.96080254 0.0015151197 0)
(0.9546515 0.0014318701 0)
(0.94845971 0.0013539027 0)
(0.94229942 0.0012798451 0)
(0.93625132 0.001210272 0)
(0.93026115 0.0011457835 0)
(0.92434622 0.0010860308 0)
(0.9185596 0.0010301178 0)
(0.91294055 0.00097704185 0)
(0.90752347 0.00092576494 0)
(0.90230348 0.00087757017 0)
(0.89725319 0.000833469 0)
(0.89234905 0.00079222886 0)
(0.887583 0.00075281256 0)
(0.88296033 0.00071532103 0)
(0.87848207 0.0006804268 0)
(0.87413654 0.00064761993 0)
(0.86992925 0.00061701742 0)
(0.86584171 0.00058875363 0)
(0.86186393 0.00056193498 0)
(0.8579902 0.00053576514 0)
(0.8542158 0.00051071859 0)
(0.85053011 0.00048757357 0)
(0.84692518 0.000464926 0)
(0.84340213 0.00044322269 0)
(0.83995833 0.00042384241 0)
(0.83658609 0.00040533482 0)
(0.83328361 0.0003872497 0)
(0.83004885 0.00037044449 0)
(0.82687705 0.00035410848 0)
(0.82376782 0.00033804886 0)
(0.82072039 0.00032338717 0)
(0.81771711 0.00030957851 0)
(0.81476066 0.00029621152 0)
(0.81185559 0.00028375198 0)
(0.80900012 0.00027162543 0)
(0.80619455 0.00025984465 0)
(0.8034387 0.00024873359 0)
(0.80072486 0.00023819752 0)
(0.7980494 0.00022838861 0)
(0.7954131 0.00021892587 0)
(0.79281792 0.00020979433 0)
(0.7902629 0.00020113622 0)
(0.78774632 0.00019288349 0)
(0.78526061 0.00018510155 0)
(0.78281106 0.00017833008 0)
(0.78037037 0.00017045455 0)
(0.77802215 0.00016524509 0)
(0.77553583 0.00018314065 0)
(0.77345421 0.00023108744 0)
(0.76963692 0.00017939654 0)
(0.99697272 0.0021163626 0)
(0.99724371 0.0025601368 0)
(0.99762898 0.0028098709 0)
(0.99796869 0.0029228989 0)
(0.99822908 0.0029966412 0)
(0.99845211 0.003052293 0)
(0.99866075 0.0030803434 0)
(0.99885091 0.0030892346 0)
(0.99902037 0.0030865074 0)
(0.99917307 0.0030784431 0)
(0.9993139 0.0030674386 0)
(0.999447 0.0030543821 0)
(0.99957564 0.0030426581 0)
(0.99970083 0.0030284678 0)
(0.9998222 0.0030115619 0)
(0.99993955 0.0029904936 0)
(1.0000524 0.0029655323 0)
(1.0001602 0.0029368316 0)
(1.0002634 0.0029058949 0)
(1.0003639 0.0028721684 0)
(1.0004616 0.0028316147 0)
(1.0005535 0.0027840094 0)
(1.0006371 0.002731876 0)
(1.0007118 0.0026767766 0)
(1.000778 0.002621925 0)
(1.0008382 0.0025689316 0)
(1.0008939 0.0025156331 0)
(1.0009439 0.0024622388 0)
(1.0009869 0.0024103741 0)
(1.001023 0.0023612438 0)
(1.0010529 0.0023150832 0)
(1.0010777 0.0022745268 0)
(1.001099 0.0022409204 0)
(1.0011249 0.0022109178 0)
(1.001151 0.0021824849 0)
(1.0011718 0.0021565039 0)
(1.0011865 0.0021339157 0)
(1.0011917 0.002113797 0)
(1.001185 0.002101348 0)
(1.0011617 0.002095459 0)
(1.0011058 0.0020873774 0)
(1.0009889 0.002076821 0)
(1.0007717 0.0020639769 0)
(1.000404 0.0020496511 0)
(0.99981119 0.0020370081 0)
(0.99887976 0.0020239919 0)
(0.99750702 0.0020039886 0)
(0.99559185 0.0019753248 0)
(0.9930468 0.0019395273 0)
(0.98985578 0.0018954279 0)
(0.98589678 0.0018386264 0)
(0.98131857 0.0017696751 0)
(0.97622562 0.0016920074 0)
(0.97074912 0.0016071853 0)
(0.96503704 0.0015215957 0)
(0.95918339 0.0014416807 0)
(0.95326525 0.0013668813 0)
(0.947353 0.0012946694 0)
(0.94153379 0.0012263772 0)
(0.93573893 0.0011635741 0)
(0.92999099 0.0011046293 0)
(0.92434159 0.0010475764 0)
(0.91883586 0.00099206115 0)
(0.91350537 0.00093946271 0)
(0.90833371 0.00089105174 0)
(0.90329986 0.00084541921 0)
(0.89840725 0.00080263589 0)
(0.89366327 0.00076308807 0)
(0.88907527 0.00072582145 0)
(0.88463128 0.00069008932 0)
(0.88031703 0.00065646491 0)
(0.87611681 0.00062551436 0)
(0.8720276 0.00059538711 0)
(0.86804933 0.00056665506 0)
(0.86419 0.00054087093 0)
(0.86043488 0.00051629646 0)
(0.85677464 0.00049245615 0)
(0.85320408 0.00047033219 0)
(0.84971537 0.00044899789 0)
(0.84630476 0.00042821051 0)
(0.84296833 0.00040913122 0)
(0.83970054 0.00039117587 0)
(0.83650056 0.0003739213 0)
(0.8333655 0.00035783489 0)
(0.83029048 0.00034224187 0)
(0.82727466 0.00032713123 0)
(0.82431706 0.0003129717 0)
(0.82140515 0.00029962633 0)
(0.81853777 0.00028710177 0)
(0.81571823 0.00027496697 0)
(0.81294776 0.00026326215 0)
(0.81022456 0.0002521839 0)
(0.80754541 0.00024171078 0)
(0.80490084 0.00023183674 0)
(0.80229799 0.00022319531 0)
(0.79971062 0.00021314179 0)
(0.79722001 0.00020675039 0)
(0.79459634 0.00022099963 0)
(0.79239185 0.000270679 0)
(0.78838269 0.00021197653 0)
(0.99711931 0.0020584614 0)
(0.99735001 0.0024662645 0)
(0.99768611 0.0027192546 0)
(0.99799807 0.0028477969 0)
(0.99824795 0.0029289996 0)
(0.99846365 0.0029884373 0)
(0.99866581 0.0030220228 0)
(0.99885234 0.0030373254 0)
(0.99902028 0.0030434486 0)
(0.99917244 0.0030448322 0)
(0.99931333 0.0030435061 0)
(0.99944654 0.0030415003 0)
(0.99957465 0.0030359721 0)
(0.99969888 0.003027322 0)
(0.99981928 0.0030131669 0)
(0.99993563 0.0029938871 0)
(1.0000475 0.0029694295 0)
(1.0001545 0.002940325 0)
(1.000257 0.0029079952 0)
(1.0003566 0.0028722241 0)
(1.0004531 0.0028300364 0)
(1.0005439 0.0027812644 0)
(1.0006269 0.0027283274 0)
(1.0007011 0.0026729703 0)
(1.0007671 0.002617926 0)
(1.0008269 0.0025647289 0)
(1.0008818 0.0025116728 0)
(1.0009311 0.0024585656 0)
(1.000974 0.0024067662 0)
(1.0010106 0.002357619 0)
(1.0010417 0.0023116696 0)
(1.001068 0.0022712166 0)
(1.0010922 0.0022374194 0)
(1.001117 0.0022079398 0)
(1.0011423 0.0021807597 0)
(1.0011667 0.0021559183 0)
(1.0011897 0.0021338205 0)
(1.0012109 0.0021137525 0)
(1.0012311 0.0020994402 0)
(1.0012534 0.0020905893 0)
(1.0012822 0.0020803349 0)
(1.001316 0.0020688857 0)
(1.0013415 0.0020577556 0)
(1.0013552 0.0020481324 0)
(1.0013549 0.0020437373 0)
(1.0013307 0.0020416037 0)
(1.0012576 0.0020365806 0)
(1.0010959 0.0020280841 0)
(1.0007894 0.0020167019 0)
(1.0002593 0.0020052197 0)
(0.99938342 0.0019913222 0)
(0.9980521 0.0019696288 0)
(0.99615735 0.0019381112 0)
(0.99362126 0.0018972096 0)
(0.99032216 0.0018483127 0)
(0.98633142 0.0017879652 0)
(0.98177618 0.0017188085 0)
(0.97677348 0.0016417593 0)
(0.97145508 0.0015593591 0)
(0.96594142 0.0014796417 0)
(0.96030536 0.0014058654 0)
(0.95461217 0.0013349933 0)
(0.94893418 0.0012655934 0)
(0.94330942 0.0012011382 0)
(0.93766605 0.0011414606 0)
(0.93205734 0.0010828738 0)
(0.9265453 0.0010257726 0)
(0.92118643 0.00097228281 0)
(0.91597603 0.00092233908 0)
(0.9108999 0.00087479576 0)
(0.90595578 0.00083031236 0)
(0.9011475 0.00078918654 0)
(0.89648597 0.00074937596 0)
(0.89196588 0.00071150737 0)
(0.8875798 0.00067728121 0)
(0.88331836 0.00064484923 0)
(0.87918414 0.00061363041 0)
(0.8751724 0.00058480737 0)
(0.87126902 0.00055732726 0)
(0.8674661 0.00053079818 0)
(0.86375805 0.00050641018 0)
(0.86015147 0.00048344019 0)
(0.85664114 0.00046141761 0)
(0.85321559 0.00044093842 0)
(0.84986643 0.00042121682 0)
(0.84659107 0.00040220255 0)
(0.84338546 0.00038437559 0)
(0.84024524 0.00036760057 0)
(0.83716756 0.00035189471 0)
(0.83414936 0.00033673241 0)
(0.83118916 0.00032213951 0)
(0.82828412 0.0003083641 0)
(0.82542892 0.00029543849 0)
(0.82261221 0.00028321403 0)
(0.81984494 0.00027241947 0)
(0.81710094 0.00025991261 0)
(0.81445876 0.00025213581 0)
(0.81168866 0.00026279984 0)
(0.80935189 0.00031484559 0)
(0.80514509 0.00024792937 0)
(0.99725574 0.0020085922 0)
(0.99745371 0.002382253 0)
(0.9977467 0.0026326757 0)
(0.99803123 0.0027720135 0)
(0.99826939 0.002860878 0)
(0.99847789 0.002927058 0)
(0.99867382 0.0029697598 0)
(0.99885632 0.002993411 0)
(0.999022 0.0030058423 0)
(0.99917279 0.0030113169 0)
(0.99931271 0.0030122602 0)
(0.99944511 0.003009623 0)
(0.99957226 0.0030037367 0)
(0.99969542 0.0029932821 0)
(0.99981488 0.0029783275 0)
(0.99993037 0.0029587289 0)
(1.0000415 0.0029345707 0)
(1.0001481 0.0029064019 0)
(1.0002503 0.0028752556 0)
(1.0003493 0.002840926 0)
(1.000445 0.0028010289 0)
(1.0005353 0.0027551447 0)
(1.000618 0.0027052307 0)
(1.0006924 0.0026529493 0)
(1.0007588 0.0026005664 0)
(1.0008189 0.002549488 0)
(1.000874 0.0024984636 0)
(1.0009236 0.0024472527 0)
(1.0009668 0.0023971652 0)
(1.0010039 0.0023496021 0)
(1.0010355 0.0023052121 0)
(1.0010624 0.0022658915 0)
(1.001087 0.0022327401 0)
(1.0011116 0.0022038271 0)
(1.0011367 0.0021770663 0)
(1.001161 0.0021523002 0)
(1.0011842 0.0021300985 0)
(1.0012061 0.002110107 0)
(1.0012274 0.0020954503 0)
(1.0012517 0.0020862451 0)
(1.0012807 0.0020763996 0)
(1.0013114 0.0020656023 0)
(1.0013415 0.0020549278 0)
(1.00137 0.0020453395 0)
(1.0013988 0.0020396891 0)
(1.00143 0.0020359173 0)
(1.0014658 0.002029417 0)
(1.0015067 0.0020213258 0)
(1.0015332 0.0020132632 0)
(1.001542 0.0020089025 0)
(1.0015249 0.0020059986 0)
(1.0014528 0.001999015 0)
(1.0012795 0.001987068 0)
(1.0009391 0.0019727157 0)
(1.0003179 0.0019582293 0)
(0.99929585 0.0019390774 0)
(0.99775756 0.0019118204 0)
(0.99561643 0.0018740608 0)
(0.99270568 0.0018269154 0)
(0.98904189 0.0017709174 0)
(0.98480111 0.0017073622 0)
(0.98010777 0.0016359131 0)
(0.97508406 0.0015583292 0)
(0.96983396 0.0014810504 0)
(0.964436 0.0014089625 0)
(0.95894593 0.0013401562 0)
(0.95342414 0.0012723603 0)
(0.9479492 0.001209566 0)
(0.94242038 0.0011505968 0)
(0.93689066 0.0010921962 0)
(0.93143172 0.0010354159 0)
(0.92610339 0.00098213783 0)
(0.92090293 0.00093109879 0)
(0.91582215 0.00088254708 0)
(0.91086272 0.00083826242 0)
(0.90603689 0.00079607601 0)
(0.90136313 0.00075560684 0)
(0.89683369 0.00071846647 0)
(0.89243148 0.00068339919 0)
(0.8881536 0.00064972053 0)
(0.8839999 0.00061855877 0)
(0.87996848 0.00058911802 0)
(0.87605447 0.00056111893 0)
(0.87225003 0.00053520268 0)
(0.8685472 0.00051042286 0)
(0.86494022 0.00048671512 0)
(0.8614202 0.00046455216 0)
(0.85799179 0.00044368993 0)
(0.85465096 0.00042413758 0)
(0.85138677 0.00040537445 0)
(0.84819384 0.00038741188 0)
(0.84506753 0.00037047515 0)
(0.84200433 0.000354589 0)
(0.83899844 0.0003395957 0)
(0.836053 0.00032635495 0)
(0.83313953 0.0003111321 0)
(0.83033363 0.00030181079 0)
(0.82740481 0.00030881347 0)
(0.82492361 0.00036347099 0)
(0.82051123 0.0002873654 0)
(0.99738305 0.001965269 0)
(0.99755429 0.0023072251 0)
(0.99780986 0.0025514595 0)
(0.99806815 0.0026988794 0)
(0.99829378 0.0027954337 0)
(0.99849474 0.0028678153 0)
(0.99868408 0.0029175117 0)
(0.99886179 0.0029471482 0)
(0.99902461 0.0029639011 0)
(0.99917368 0.0029728361 0)
(0.9993125 0.0029766573 0)
(0.99944408 0.0029766734 0)
(0.99957045 0.0029732311 0)
(0.99969277 0.0029658331 0)
(0.99981136 0.0029539874 0)
(0.999926 0.0029374062 0)
(1.0000364 0.0029161745 0)
(1.0001423 0.0028907014 0)
(1.000244 0.0028617194 0)
(1.0003423 0.0028290834 0)
(1.0004372 0.0027909596 0)
(1.0005268 0.0027468866 0)
(1.0006091 0.002698558 0)
(1.0006835 0.0026476873 0)
(1.0007502 0.0025963163 0)
(1.0008106 0.0025458231 0)
(1.0008659 0.0024954122 0)
(1.0009158 0.0024448825 0)
(1.0009595 0.0023954283 0)
(1.0009973 0.002348398 0)
(1.0010296 0.0023044931 0)
(1.0010574 0.0022653306 0)
(1.0010828 0.0022319487 0)
(1.0011079 0.0022027505 0)
(1.0011333 0.0021758045 0)
(1.0011579 0.0021509306 0)
(1.0011814 0.0021287304 0)
(1.0012037 0.0021089943 0)
(1.0012254 0.0020942537 0)
(1.0012496 0.0020846655 0)
(1.0012779 0.0020748205 0)
(1.001308 0.002063989 0)
(1.0013377 0.0020532091 0)
(1.0013666 0.0020434781 0)
(1.001396 0.0020373425 0)
(1.001429 0.0020330793 0)
(1.0014657 0.0020265611 0)
(1.0015029 0.0020186221 0)
(1.0015386 0.0020107049 0)
(1.0015739 0.0020054772 0)
(1.0016124 0.0020010035 0)
(1.0016492 0.001992944 0)
(1.001698 0.00198196 0)
(1.0017252 0.0019727314 0)
(1.0017285 0.0019665888 0)
(1.0016919 0.0019587709 0)
(1.0015746 0.001946608 0)
(1.0013165 0.0019318119 0)
(1.0008092 0.0019160738 0)
(0.99991879 0.0018981811 0)
(0.99852495 0.0018723292 0)
(0.99653588 0.0018363299 0)
(0.99378502 0.0017894068 0)
(0.99022298 0.0017325688 0)
(0.98609352 0.0016713071 0)
(0.98154736 0.0016032664 0)
(0.97669149 0.0015300688 0)
(0.97161432 0.0014571965 0)
(0.96638459 0.0013882395 0)
(0.9610514 0.0013220893 0)
(0.95567045 0.0012571974 0)
(0.95031523 0.0011966326 0)
(0.94488933 0.0011380382 0)
(0.9394481 0.0010800736 0)
(0.93406434 0.0010251452 0)
(0.92879281 0.00097220378 0)
(0.92363405 0.00092160477 0)
(0.91858595 0.0008748914 0)
(0.91365658 0.00083062281 0)
(0.90886598 0.00078809232 0)
(0.90421982 0.00074870922 0)
(0.89970551 0.00071161381 0)
(0.89532035 0.00067640006 0)
(0.89106857 0.00064375541 0)
(0.88694499 0.00061276508 0)
(0.88293962 0.00058337876 0)
(0.87904291 0.00055585761 0)
(0.87525728 0.00052981391 0)
(0.87158019 0.00050549428 0)
(0.86800089 0.00048237711 0)
(0.86451269 0.00046037814 0)
(0.86110882 0.00043970257 0)
(0.85778647 0.00042033948 0)
(0.85454596 0.00040206333 0)
(0.8513821 0.00038589669 0)
(0.84826324 0.0003675721 0)
(0.84525953 0.00035634255 0)
(0.84214801 0.00035941945 0)
(0.83950799 0.00041642246 0)
(0.83488124 0.00033056447 0)
(0.99750219 0.0019271582 0)
(0.99765143 0.0022400952 0)
(0.99787475 0.0024757415 0)
(0.99810842 0.0026284067 0)
(0.99832089 0.0027314787 0)
(0.99851382 0.0028089399 0)
(0.99869634 0.0028643367 0)
(0.9988689 0.0028996706 0)
(0.99902853 0.0029213113 0)
(0.99917567 0.002934513 0)
(0.99931319 0.0029419799 0)
(0.99944376 0.0029449534 0)
(0.99956916 0.0029438323 0)
(0.99969045 0.0029383228 0)
(0.99980797 0.002927943 0)
(0.9999216 0.0029125783 0)
(1.0000311 0.0028924329 0)
(1.0001363 0.0028679241 0)
(1.0002375 0.0028396762 0)
(1.0003351 0.0028076553 0)
(1.0004291 0.0027705006 0)
(1.000518 0.0027277822 0)
(1.0006 0.002680948 0)
(1.0006744 0.0026316713 0)
(1.0007413 0.0025817656 0)
(1.0008021 0.0025325025 0)
(1.0008577 0.0024833927 0)
(1.0009079 0.0024342469 0)
(1.0009521 0.002386105 0)
(1.0009905 0.0023402482 0)
(1.0010235 0.0022974369 0)
(1.0010522 0.0022590759 0)
(1.0010784 0.0022261203 0)
(1.0011041 0.0021972658 0)
(1.0011299 0.0021707563 0)
(1.0011549 0.0021463364 0)
(1.0011788 0.0021245394 0)
(1.0012016 0.0021052619 0)
(1.0012239 0.002090552 0)
(1.0012484 0.0020806066 0)
(1.0012766 0.0020707399 0)
(1.0013066 0.0020599745 0)
(1.0013364 0.0020493356 0)
(1.0013654 0.0020398283 0)
(1.0013949 0.0020336382 0)
(1.0014275 0.002029295 0)