/*--------------------------------*- C++ -*----------------------------------*\
  =========                 |
  \\      /  F ield         | OpenFOAM: The Open Source CFD Toolbox
   \\    /   O peration     | Website:  https://openfoam.org
    \\  /    A nd           | Version:  12
     \\/     M anipulation  |
\*---------------------------------------------------------------------------*/
FoamFile
{
    format      ascii;
    class       volVectorField;
    location    "1100";
    object      wallShearStress;
}
// * * * * * * * * * * * * * * * * * * * * * * * * * * * * * * * * * * * * * //

dimensions      [0 2 -2 0 0 0 0];

internalField   uniform (0 0 0);

boundaryField
{
    inlet
    {
        type            calculated;
        value           uniform (0 0 0);
    }
    top
    {
        type            calculated;
        value           uniform (0 0 0);
    }
    outlet
    {
        type            calculated;
        value           uniform (0 0 0);
    }
    slipsurface
    {
        type            calculated;
        value           uniform (0 0 0);
    }
    bottom
    {
        type            calculated;
        value           nonuniform List<vector> 
100
(
(-0.0033445732 -3.5308557e-06 0)
(-0.0032712103 -6.5052519e-06 0)
(-0.003194298 -8.1519989e-06 0)
(-0.0031132806 -9.57741e-06 0)
(-0.003033901 -1.1306429e-05 0)
(-0.0029581347 -1.2316718e-05 0)
(-0.0028861251 -1.2348875e-05 0)
(-0.0028176862 -1.1972483e-05 0)
(-0.0027522093 -1.1415208e-05 0)
(-0.0026891126 -1.0694716e-05 0)
(-0.0026272798 -9.8897825e-06 0)
(-0.0025662321 -9.1429591e-06 0)
(-0.0025057982 -8.4527064e-06 0)
(-0.0024460048 -7.8086754e-06 0)
(-0.0023869726 -7.2036085e-06 0)
(-0.0023289106 -6.6264626e-06 0)
(-0.0022721733 -6.0465852e-06 0)
(-0.0022174855 -5.4789117e-06 0)
(-0.002164216 -4.9712161e-06 0)
(-0.0021131793 -4.4878805e-06 0)
(-0.0020646351 -4.0256642e-06 0)
(-0.0020187855 -3.5852981e-06 0)
(-0.0019758292 -3.1686687e-06 0)
(-0.0019359218 -2.7789376e-06 0)
(-0.0018991899 -2.4133216e-06 0)
(-0.0018657453 -2.0727339e-06 0)
(-0.0018355726 -1.7638465e-06 0)
(-0.0018085432 -1.4862077e-06 0)
(-0.0017844809 -1.2393469e-06 0)
(-0.0017631753 -1.026193e-06 0)
(-0.0017443776 -8.4573596e-07 0)
(-0.0017278329 -6.9299342e-07 0)
(-0.001713341 -5.6340588e-07 0)
(-0.001700691 -4.563911e-07 0)
(-0.0016896176 -3.6885479e-07 0)
(-0.0016798357 -3.00411e-07 0)
(-0.001671065 -2.5153028e-07 0)
(-0.0016630506 -2.1846583e-07 0)
(-0.0016556311 -1.9378412e-07 0)
(-0.001648687 -1.7740209e-07 0)
(-0.0016420631 -1.7073572e-07 0)
(-0.0016356006 -1.7079533e-07 0)
(-0.0016291798 -1.7559452e-07 0)
(-0.0016227169 -1.8306842e-07 0)
(-0.0016161715 -1.9109872e-07 0)
(-0.001609515 -2.0012676e-07 0)
(-0.0016027047 -2.1200816e-07 0)
(-0.0015956483 -2.2626898e-07 0)
(-0.0015882783 -2.4021867e-07 0)
(-0.0015805939 -2.5188506e-07 0)
(-0.0015726265 -2.6162381e-07 0)
(-0.0015643932 -2.6985113e-07 0)
(-0.0015559083 -2.7578801e-07 0)
(-0.0015472254 -2.7801642e-07 0)
(-0.001538433 -2.7655979e-07 0)
(-0.0015295972 -2.7313212e-07 0)
(-0.0015207381 -2.6864105e-07 0)
(-0.0015118608 -2.6322466e-07 0)
(-0.0015029942 -2.5665043e-07 0)
(-0.0014941709 -2.4964842e-07 0)
(-0.0014853937 -2.4295669e-07 0)
(-0.0014766662 -2.357444e-07 0)
(-0.0014680211 -2.2764779e-07 0)
(-0.0014594896 -2.1933081e-07 0)
(-0.0014510692 -2.1143908e-07 0)
(-0.0014427611 -2.0327119e-07 0)
(-0.0014345834 -1.950262e-07 0)
(-0.0014265261 -1.8769347e-07 0)
(-0.0014185608 -1.8099936e-07 0)
(-0.0014106845 -1.7432238e-07 0)
(-0.0014029099 -1.6782252e-07 0)
(-0.0013952269 -1.6189752e-07 0)
(-0.0013876352 -1.5571307e-07 0)
(-0.00138016 -1.4939929e-07 0)
(-0.0013727932 -1.4381903e-07 0)
(-0.001365515 -1.3837339e-07 0)
(-0.0013583336 -1.3297764e-07 0)
(-0.0013512388 -1.282485e-07 0)
(-0.0013442167 -1.2356497e-07 0)
(-0.0013372842 -1.1873444e-07 0)
(-0.001330443 -1.1432802e-07 0)
(-0.0013236844 -1.0995296e-07 0)
(-0.0013170172 -1.0562848e-07 0)
(-0.0013104298 -1.0182128e-07 0)
(-0.0013039093 -9.8074907e-08 0)
(-0.0012974642 -9.4365263e-08 0)
(-0.0012910954 -9.0854633e-08 0)
(-0.0012848036 -8.7374238e-08 0)
(-0.0012785849 -8.4150133e-08 0)
(-0.001272432 -8.1035112e-08 0)
(-0.0012663469 -7.8023182e-08 0)
(-0.0012603239 -7.5206597e-08 0)
(-0.0012543657 -7.2407004e-08 0)
(-0.0012484644 -6.981361e-08 0)
(-0.0012426292 -6.7416827e-08 0)
(-0.0012367803 -6.5130589e-08 0)
(-0.0012311773 -6.242997e-08 0)
(-0.0012250846 -1.5480336e-07 0)
(-0.0012197824 -2.8675656e-07 0)
(-0.0012117837 -2.7190133e-07 0)
)
;
    }
    frontandback
    {
        type            empty;
    }
}


// ************************************************************************* //
