/*--------------------------------*- C++ -*----------------------------------*\
  =========                 |
  \\      /  F ield         | OpenFOAM: The Open Source CFD Toolbox
   \\    /   O peration     | Website:  https://openfoam.org
    \\  /    A nd           | Version:  12
     \\/     M anipulation  |
\*---------------------------------------------------------------------------*/
FoamFile
{
    format      ascii;
    class       volScalarField;
    location    "600";
    object      epsilon;
}
// * * * * * * * * * * * * * * * * * * * * * * * * * * * * * * * * * * * * * //

dimensions      [0 2 -3 0 0 0 0];

internalField   nonuniform List<scalar> 
7480
(
0.0026782172
0.0046870582
0.0083600919
0.014626528
0.024888912
0.040997425
0.065084646
0.099171033
0.14455106
0.20105488
0.26648916
0.33678408
0.40667615
0.47081129
0.52479003
0.56611185
0.59295991
0.61182222
0.61123826
0.60607328
0.59465946
0.57892433
0.56066377
0.54138282
0.5222994
0.50438153
0.48838252
0.47484984
0.46413427
0.4563474
0.45128554
0.44840727
0.4469042
0.44589283
0.44465744
0.44280553
0.44027262
0.43720983
0.43382918
0.43028844
0.4266562
0.42294033
0.41913877
0.41527259
0.4113854
0.40752284
0.40371458
0.39997103
0.39629226
0.39267718
0.3891264
0.38563998
0.3822176
0.37885773
0.37555843
0.37231809
0.36913532
0.36600833
0.36293523
0.35991525
0.3569468
0.35402758
0.3511557
0.34832972
0.34554834
0.34281047
0.34011501
0.33746076
0.33484664
0.33227158
0.32973449
0.32723437
0.32477033
0.32234138
0.31994659
0.31758512
0.31525614
0.31295885
0.31069249
0.3084563
0.30624956
0.30407159
0.30192169
0.2997992
0.29770349
0.29563389
0.29358978
0.29157052
0.28957548
0.28760389
0.28565524
0.28372835
0.28182333
0.27993634
0.27807249
0.27621234
0.27439382
0.27249601
0.27088831
0.26794779
8.574929e-05
0.0001717223
0.00029014803
0.00046670605
0.00074635169
0.0012035026
0.0019526225
0.003150332
0.0049770294
0.0075937926
0.011087419
0.015502744
0.02079217
0.026698563
0.032860957
0.038954403
0.044605314
0.050057476
0.054952635
0.059758088
0.06506235
0.071955445
0.080645716
0.090055866
0.10027554
0.11152093
0.12383469
0.13692809
0.15033397
0.1633384
0.17496933
0.18427734
0.19061942
0.19388629
0.19451117
0.19327427
0.19101771
0.1884121
0.18583311
0.18339229
0.18105609
0.1787607
0.1764798
0.17423239
0.17205466
0.16997024
0.16798138
0.16607691
0.16424299
0.16247012
0.16075253
0.1590854
0.15746398
0.15588415
0.15434269
0.15283678
0.15136385
0.14992174
0.14850881
0.14712421
0.14576637
0.14443369
0.14312503
0.14183965
0.14057689
0.13933609
0.13811664
0.13691794
0.13573943
0.13458058
0.13344088
0.13231988
0.13121711
0.13013215
0.12906459
0.12801403
0.12698007
0.12596232
0.12496038
0.12397389
0.12300249
0.12204583
0.12110354
0.1201753
0.11926075
0.11835957
0.11747142
0.11659598
0.11573292
0.1148819
0.11404261
0.11321469
0.11239782
0.11159145
0.11079548
0.1100081
0.10923234
0.10844885
0.10775424
0.10656257
2.2364429e-05
3.2888983e-05
4.6660736e-05
6.3710023e-05
8.5277391e-05
0.00011338571
0.0001507288
0.00020053742
0.00026628792
0.00035134178
0.00045864936
0.00059114937
0.00075168308
0.00094182049
0.0011610023
0.0014068122
0.0016732205
0.0019565858
0.0022508433
0.0025555144
0.0028781147
0.0032479414
0.0037072397
0.0043067286
0.0051153235
0.0062277064
0.0077546474
0.0099661127
0.013132026
0.01755769
0.024079156
0.031992839
0.040987111
0.050651166
0.060318127
0.069320564
0.077032195
0.083010104
0.087134716
0.089601351
0.090810605
0.091218933
0.091210188
0.091022067
0.090753078
0.090419263
0.090012044
0.08953259
0.088998674
0.088432569
0.087849457
0.087255368
0.086651614
0.086039217
0.085420095
0.084796258
0.084169174
0.083539862
0.08290915
0.082277778
0.081646521
0.081016045
0.080386954
0.079759835
0.079135238
0.078513672
0.077895605
0.077281443
0.076671544
0.076066236
0.075465819
0.074870569
0.074280725
0.073696497
0.073118078
0.072545629
0.071979276
0.071419125
0.070865255
0.070317728
0.069776589
0.069241863
0.068713557
0.068191665
0.067676165
0.067167024
0.066664196
0.066167628
0.065677256
0.06519301
0.064714799
0.064242556
0.063776112
0.063315496
0.062860208
0.062410803
0.061966262
0.061521504
0.061126757
0.060445749
1.6820452e-05
1.8925684e-05
2.2103208e-05
2.611618e-05
3.0913069e-05
3.6585013e-05
4.3313833e-05
5.133025e-05
6.0876142e-05
7.2172125e-05
8.5393749e-05
0.00010067862
0.00011813741
0.00013783412
0.00015975456
0.00018379881
0.00020973757
0.00023730929
0.00026618933
0.00029609771
0.00032685155
0.00035869696
0.00039227509
0.00042906403
0.00047148677
0.00052329276
0.00058992197
0.00068047673
0.00081011708
0.00099999288
0.0013030841
0.0017779373
0.002510471
0.0035983765
0.0052764133
0.0076974574
0.011242294
0.015897371
0.021291773
0.027046184
0.032740501
0.037971627
0.042405712
0.045874926
0.048400472
0.050150545
0.051355764
0.052221851
0.052879966
0.05338939
0.053769219
0.054030474
0.054190131
0.05426893
0.054284384
0.054247936
0.054166832
0.054046825
0.053893256
0.053710843
0.053503562
0.053274687
0.053027007
0.052762986
0.052484813
0.052194423
0.051893526
0.051583638
0.051266107
0.050942151
0.050612863
0.050279236
0.049942157
0.049602429
0.049260774
0.048917845
0.048574224
0.048230434
0.047886939
0.047544153
0.047202446
0.046862144
0.046523533
0.046186865
0.045852356
0.045520198
0.045190551
0.044863558
0.044539334
0.044217986
0.043899584
0.043584223
0.043271878
0.042962771
0.042656493
0.042354014
0.042053952
0.041754479
0.041490001
0.041029469
1.5974705e-05
1.6433526e-05
1.7302539e-05
1.8557811e-05
2.0154203e-05
2.2064609e-05
2.4287381e-05
2.6840587e-05
2.9752997e-05
3.3055732e-05
3.6775913e-05
4.0934167e-05
4.5544987e-05
5.0616464e-05
5.6148459e-05
6.2131416e-05
6.8542939e-05
7.5350723e-05
8.2512565e-05
8.998188e-05
9.7710442e-05
0.00010566546
0.00011383572
0.00012225521
0.00013102053
0.00014032229
0.00015046302
0.00016189947
0.00017538565
0.0001918987
0.00021335613
0.0002424379
0.00028322232
0.00034140647
0.00042826584
0.00055973439
0.00077003274
0.0011133086
0.001656038
0.0025237314
0.0038453981
0.0057710157
0.0084712533
0.011726997
0.015303778
0.01894111
0.022377854
0.025401069
0.027901627
0.029881728
0.031426884
0.032651686
0.033650717
0.034480155
0.035166932
0.035727236
0.0361777
0.036536049
0.036817619
0.037033748
0.037192905
0.037302205
0.037367993
0.03739579
0.037390255
0.037355357
0.037294569
0.037210949
0.037107184
0.036985654
0.036848472
0.036697524
0.036534498
0.036360903
0.036178095
0.035987293
0.035789595
0.035585989
0.035377362
0.035164512
0.034948157
0.034728942
0.034507442
0.034284175
0.034059604
0.033834141
0.033608156
0.033381979
0.033155901
0.032930191
0.032705074
0.03248078
0.032257431
0.032035352
0.031814324
0.031595313
0.031377299
0.031159123
0.030967978
0.030630295
1.577623e-05
1.5875098e-05
1.610365e-05
1.6496965e-05
1.7064389e-05
1.7801156e-05
1.8699527e-05
1.975473e-05
2.0966114e-05
2.2336065e-05
2.3868228e-05
2.556606e-05
2.7432085e-05
2.9467573e-05
3.1672238e-05
3.4043964e-05
3.6578361e-05
3.9268682e-05
4.2105649e-05
4.5078073e-05
4.8173202e-05
5.1378256e-05
5.468174e-05
5.8076166e-05
6.1561098e-05
6.5147969e-05
6.8860738e-05
7.2743803e-05
7.6872695e-05
8.1355321e-05
8.6360971e-05
9.2155268e-05
9.9106702e-05
0.00010770978
0.00011873018
0.00013323834
0.00015301713
0.00018087619
0.00022098708
0.00028082952
0.0003722974
0.00051548662
0.00075033286
0.0011257344
0.001740583
0.0026811944
0.0040905948
0.0059715301
0.0082085099
0.01064249
0.0131012
0.015418134
0.017475993
0.019226366
0.020685948
0.021906753
0.022941819
0.023827272
0.024583783
0.025225843
0.025767657
0.026223213
0.026604459
0.026920834
0.027180065
0.027388908
0.027553331
0.027678488
0.027768826
0.027828249
0.027860205
0.027867742
0.027853561
0.027820066
0.027769404
0.027703496
0.027624069
0.02753267
0.027430693
0.027319389
0.027199885
0.027073196
0.026940233
0.026801819
0.026658692
0.026511519
0.026360898
0.026207369
0.026051417
0.025893485
0.025733961
0.025573222
0.02541154
0.025249336
0.025086593
0.024924209
0.024761611
0.02459774
0.024455331
0.024198688
1.5663699e-05
1.5691866e-05
1.5752625e-05
1.586872e-05
1.6058777e-05
1.6334126e-05
1.669983e-05
1.7157065e-05
1.7705446e-05
1.8344341e-05
1.9073307e-05
1.9892042e-05
2.0800187e-05
2.1797162e-05
2.2882044e-05
2.4053461e-05
2.5309524e-05
2.6647743e-05
2.8064922e-05
2.9557224e-05
3.1120204e-05
3.2748956e-05
3.4438319e-05
3.6183275e-05
3.7979585e-05
3.9824154e-05
4.1719337e-05
4.3669595e-05
4.5684801e-05
4.7782267e-05
4.9989193e-05
5.2349138e-05
5.4924714e-05
5.7802635e-05
6.1097826e-05
6.4978132e-05
6.9648607e-05
7.5433111e-05
8.2767442e-05
9.2339612e-05
0.00010513267
0.00012259135
0.00014724903
0.00018286257
0.00023676502
0.00031961628
0.0004528896
0.00066924753
0.001020167
0.0015825188
0.0024397907
0.0036457424
0.0051428913
0.0068358818
0.008611207
0.010350031
0.011958348
0.013386078
0.014628278
0.015706575
0.016647014
0.017468628
0.01818407
0.018804154
0.019339797
0.019801255
0.020197239
0.020535051
0.02082109
0.021061069
0.021260018
0.021422346
0.021551957
0.021652321
0.021726532
0.021777348
0.02180724
0.021818422
0.021812884
0.021792411
0.021758612
0.021712933
0.021656679
0.021591025
0.02151703
0.02143565
0.02134775
0.021254108
0.021155428
0.021052352
0.020945451
0.020835262
0.020722224
0.020606867
0.020489376
0.020370603
0.020250369
0.020127682
0.020021791
0.019825527
1.5545791e-05
1.5562718e-05
1.5586422e-05
1.5624734e-05
1.568778e-05
1.578556e-05
1.5926361e-05
1.6116164e-05
1.6358835e-05
1.6656659e-05
1.701087e-05
1.7422032e-05
1.7890245e-05
1.8415265e-05
1.8996553e-05
1.9633296e-05
2.0324431e-05
2.1068644e-05
2.1864339e-05
2.2709665e-05
2.360252e-05
2.4540555e-05
2.5521209e-05
2.6541789e-05
2.7599645e-05
2.8692212e-05
2.9817833e-05
3.0975768e-05
3.2166544e-05
3.3392588e-05
3.4658738e-05
3.5973489e-05
3.7349916e-05
3.8807258e-05
4.0371071e-05
4.2075038e-05
4.3982741e-05
4.6163631e-05
4.8702423e-05
5.1725611e-05
5.5400203e-05
5.9944068e-05
6.5670534e-05
7.3028957e-05
8.2767356e-05
9.5925843e-05
0.00011427264
0.00014058651
0.00017966403
0.00023968509
0.0003349278
0.00048941891
0.00073946691
0.0011433047
0.0017692776
0.0026450332
0.0037413023
0.004996914
0.0063312748
0.0076593834
0.0089121776
0.010052049
0.011071505
0.011979224
0.012786538
0.0135023
0.014133984
0.014689304
0.015176062
0.015601364
0.015971436
0.016291859
0.016567688
0.016803465
0.017003244
0.017170666
0.017309002
0.017421191
0.017509877
0.017577439
0.017626023
0.017657562
0.0176738
0.017676312
0.017666519
0.017645709
0.017615042
0.017575571
0.017528247
0.017473934
0.017413411
0.017347398
0.017276515
0.017201423
0.017122506
0.017040619
0.016955905
0.016867536
0.016791638
0.016644681
1.5412231e-05
1.5427725e-05
1.5444689e-05
1.5464785e-05
1.5491481e-05
1.5529477e-05
1.5584052e-05
1.56604e-05
1.5763151e-05
1.5896122e-05
1.6062271e-05
1.6263777e-05
1.6502147e-05
1.677833e-05
1.7092817e-05
1.7445719e-05
1.7836828e-05
1.8265672e-05
1.8731536e-05
1.9233506e-05
1.9770491e-05
2.034123e-05
2.0944311e-05
2.1578196e-05
2.2241284e-05
2.2931935e-05
2.3648642e-05
2.439016e-05
2.5155636e-05
2.5944814e-05
2.6758213e-05
2.7597447e-05
2.8465558e-05
2.936751e-05
3.0310535e-05
3.1304e-05
3.2363787e-05
3.3511055e-05
3.4770978e-05
3.6177295e-05
3.7772137e-05
3.9614007e-05
4.1787137e-05
4.4388979e-05
4.7559179e-05
5.1484059e-05
5.6439255e-05
6.2799953e-05
7.1167928e-05
8.2469184e-05
9.8189611e-05
0.00012071804
0.00015413566
0.00020544225
0.00028743925
0.00041949717
0.00063446348
0.00097775843
0.0015028444
0.0022139688
0.0030876999
0.0040792672
0.0051269586
0.0061681307
0.0071559897
0.008067219
0.008896688
0.0096471301
0.010322605
0.010927296
0.01146609
0.01194442
0.012367609
0.01274059
0.013067952
0.013353952
0.013602496
0.013817142
0.01400113
0.014157406
0.014288645
0.014397273
0.01448549
0.014555289
0.01460848
0.014646702
0.01467144
0.014684045
0.014685738
0.014677632
0.014660731
0.014635963
0.014604141
0.01456608
0.014522367
0.014473904
0.014421097
0.014363401
0.014313947
0.014210179
1.5263698e-05
1.5278912e-05
1.5294759e-05
1.531121e-05
1.5329101e-05
1.5349986e-05
1.5376082e-05
1.5410114e-05
1.5455097e-05
1.5514088e-05
1.5589983e-05
1.5685384e-05
1.5802513e-05
1.5943182e-05
1.6108801e-05
1.6300393e-05
1.6518633e-05
1.6763887e-05
1.7036242e-05
1.7335549e-05
1.7661459e-05
1.8013442e-05
1.8390811e-05
1.8792746e-05
1.9218327e-05
1.966656e-05
2.0136428e-05
2.0626955e-05
2.1137275e-05
2.1666717e-05
2.2214889e-05
2.2781782e-05
2.3367901e-05
2.3974431e-05
2.4603433e-05
2.5257844e-05
2.5942319e-05
2.6663765e-05
2.7431121e-05
2.8256133e-05
2.9153523e-05
3.0142325e-05
3.1248639e-05
3.2504127e-05
3.3949375e-05
3.5632793e-05
3.7626693e-05
4.0032167e-05
4.2976068e-05
4.6639406e-05
5.1285252e-05
5.7280703e-05
6.520396e-05
7.5956411e-05
9.1060834e-05
0.0001128867
0.0001456544
0.0001963786
0.00027809977
0.00040855127
0.00062105516
0.00095778139
0.0014383641
0.0020616145
0.0028044386
0.003625685
0.0044755721
0.0053100316
0.0061009599
0.0068359246
0.0075115191
0.0081277088
0.0086858822
0.0091886667
0.0096395456
0.010042272
0.010400574
0.010718076
0.010998246
0.01124434
0.011459385
0.011646184
0.011807316
0.011945147
0.012061845
0.012159389
0.012239588
0.01230409
0.012354398
0.012391881
0.012417786
0.012433256
0.012439316
0.01243695
0.012426951
0.012410307
0.01238764
0.012358798
0.012333939
0.01227006
1.5101606e-05
1.511659e-05
1.5132112e-05
1.5147802e-05
1.5163761e-05
1.518038e-05
1.5198361e-05
1.521875e-05
1.5242928e-05
1.5272554e-05
1.5309473e-05
1.5355619e-05
1.5412908e-05
1.548316e-05
1.5568027e-05
1.5668951e-05
1.5787141e-05
1.5923559e-05
1.6078924e-05
1.6253727e-05
1.6448245e-05
1.6662564e-05
1.6896593e-05
1.7150088e-05
1.7422674e-05
1.7713874e-05
1.8023132e-05
1.8349848e-05
1.8693419e-05
1.9053284e-05
1.9428967e-05
1.9820128e-05
2.0226612e-05
2.0648522e-05
2.1086302e-05
2.1540781e-05
2.2013374e-05
2.2506358e-05
2.3022996e-05
2.3567756e-05
2.4146461e-05
2.4766566e-05
2.5437944e-05
2.6172986e-05
2.6987358e-05
2.7899358e-05
2.8933169e-05
3.0121347e-05
3.1503635e-05
3.3132933e-05
3.5074961e-05
3.7431953e-05
4.0341853e-05
4.3990999e-05
4.8665071e-05
5.4770635e-05
6.2949611e-05
7.4208352e-05
9.0279998e-05
0.00011387898
0.00014983111
0.00020705665
0.00029829921
0.0004457977
0.00068181724
0.0010290844
0.0014948531
0.0020685733
0.0027229403
0.0034195622
0.0041207991
0.0047996099
0.0054412026
0.0060389484
0.0065901783
0.0070943518
0.0075524937
0.0079666487
0.0083393507
0.0086733374
0.0089714141
0.0092363531
0.0094708255
0.0096773675
0.0098583625
0.010016033
0.01015244
0.010269489
0.010368932
0.010452382
0.010521316
0.010577095
0.010620951
0.010654049
0.010677387
0.010692063
0.010698884
0.01069818
0.010697105
0.010671534
1.4927265e-05
1.4941995e-05
1.4957258e-05
1.4972633e-05
1.4988064e-05
1.5003622e-05
1.5019484e-05
1.5035967e-05
1.5053565e-05
1.5072959e-05
1.5095026e-05
1.5120817e-05
1.5151514e-05
1.5188392e-05
1.5232757e-05
1.5285897e-05
1.534904e-05
1.5423308e-05
1.5509696e-05
1.5609047e-05
1.572205e-05
1.5849233e-05
1.5990965e-05
1.6147466e-05
1.6318819e-05
1.6504985e-05
1.6705825e-05
1.6921113e-05
1.7150569e-05
1.7393882e-05
1.7650736e-05
1.7920841e-05
1.8203961e-05
1.8499941e-05
1.8808749e-05
1.9130516e-05
1.9465591e-05
1.9814666e-05
2.0178872e-05
2.05599e-05
2.0960102e-05
2.1382594e-05
2.1831507e-05
2.2312147e-05
2.283131e-05
2.339715e-05
2.4019795e-05
2.4712331e-05
2.5490728e-05
2.6375455e-05
2.7390851e-05
2.8570083e-05
2.9957285e-05
3.1608615e-05
3.3599741e-05
3.6038447e-05
3.9088118e-05
4.2967067e-05
4.8010946e-05
5.4717008e-05
6.38553e-05
7.6784869e-05
9.5618154e-05
0.00012397588
0.00016852354
0.00023922803
0.00035281099
0.00053525002
0.00080550835
0.0011736593
0.0016353887
0.0021714657
0.0027516365
0.0033447874
0.0039272456
0.0044846425
0.0050092822
0.0054972311
0.0059468792
0.0063582599
0.0067324583
0.0070711491
0.0073763324
0.0076501712
0.0078948764
0.0081126323
0.0083055525
0.0084756521
0.0086248324
0.0087548745
0.0088674368
0.0089640609
0.0090461669
0.0091150876
0.0091720086
0.0092181556
0.009254483
0.0092818744
0.0093044125
0.0093166542
1.4741937e-05
1.4756403e-05
1.4771398e-05
1.4786503e-05
1.4801635e-05
1.4816792e-05
1.4832012e-05
1.4847376e-05
1.4863028e-05
1.4879192e-05
1.4896201e-05
1.4914499e-05
1.4934655e-05
1.4957352e-05
1.4983372e-05
1.5013575e-05
1.5048865e-05
1.5090167e-05
1.5138386e-05
1.5194388e-05
1.5258972e-05
1.5332852e-05
1.5416643e-05
1.5510851e-05
1.5615875e-05
1.5732007e-05
1.585944e-05
1.5998274e-05
1.6148532e-05
1.6310175e-05
1.6483119e-05
1.6667251e-05
1.6862445e-05
1.7068581e-05
1.7285563e-05
1.7513343e-05
1.7751951e-05
1.8001542e-05
1.8262459e-05
1.8535296e-05
1.8820965e-05
1.9120763e-05
1.9436465e-05
1.9770424e-05
2.0125724e-05
2.0506215e-05
2.0916645e-05
2.1363007e-05
2.1852645e-05
2.2394779e-05
2.3000423e-05
2.3683367e-05
2.4461365e-05
2.5356593e-05
2.6397035e-05
2.7619271e-05
2.9074663e-05
3.083026e-05
3.2976577e-05
3.5646401e-05
3.9036856e-05
4.3437736e-05
4.9285052e-05
5.7236624e-05
6.8423029e-05
8.4644796e-05
0.00010891611
0.00014688454
0.00020674657
0.00030285647
0.00045544059
0.00068122594
0.00098931898
0.0013776534
0.0018308441
0.0023241167
0.0028319715
0.0033346292
0.0038193764
0.0042787248
0.0047084628
0.0051065845
0.0054726213
0.0058070919
0.0061111186
0.0063861892
0.0066339936
0.0068563123
0.0070549428
0.007231652
0.0073881457
0.0075260508
0.0076469032
0.0077521557
0.0078431438
0.0079212073
0.0079874072
0.0080432277
0.0080895768
0.0081398135
1.4546878e-05
1.4561075e-05
1.4575794e-05
1.4590625e-05
1.4605479e-05
1.4620344e-05
1.4635226e-05
1.4650144e-05
1.4665134e-05
1.4680257e-05
1.4695615e-05
1.4711361e-05
1.4727713e-05
1.4744966e-05
1.4763492e-05
1.4783745e-05
1.480625e-05
1.4831597e-05
1.4860422e-05
1.4893386e-05
1.4931163e-05
1.4974413e-05
1.5023767e-05
1.507981e-05
1.5143072e-05
1.5214014e-05
1.5293029e-05
1.538044e-05
1.5476497e-05
1.5581388e-05
1.5695245e-05
1.5818151e-05
1.5950145e-05
1.6091242e-05
1.6241429e-05
1.640069e-05
1.6569017e-05
1.6746434e-05
1.693303e-05
1.7128998e-05
1.733467e-05
1.7550564e-05
1.7777433e-05
1.8016318e-05
1.8268632e-05
1.8536212e-05
1.8821377e-05
1.9127055e-05
1.9456868e-05
1.9815334e-05
2.0207933e-05
2.0641321e-05
2.1123787e-05
2.1665572e-05
2.2279264e-05
2.2980515e-05
2.3789798e-05
2.4733379e-05
2.5844886e-05
2.716939e-05
2.8768908e-05
3.0730177e-05
3.3170681e-05
3.6269909e-05
4.0299928e-05
4.5660554e-05
5.2960758e-05
6.3244455e-05
7.8144007e-05
0.00010048632
0.0001352965
0.0001898571
0.00027777924
0.00041483676
0.00061534805
0.00088681193
0.0012268143
0.001621304
0.0020492646
0.0024898578
0.0029270177
0.003350075
0.0037523887
0.0041300571
0.0044811113
0.0048049158
0.0051017077
0.0053722858
0.0056178009
0.0058396093
0.0060391729
0.006217991
0.0063775569
0.0065193294
0.0066447057
0.0067550873
0.0068515762
0.006936277
0.0070067775
0.0070955475
1.4343326e-05
1.4357252e-05
1.4371691e-05
1.4386243e-05
1.4400818e-05
1.4415401e-05
1.4429994e-05
1.4444601e-05
1.4459231e-05
1.4473898e-05
1.4488626e-05
1.4503458e-05
1.4518459e-05
1.4533731e-05
1.4549418e-05
1.4565712e-05
1.4582862e-05
1.4601172e-05
1.4621001e-05
1.4642756e-05
1.4666885e-05
1.4693869e-05
1.4724202e-05
1.4758386e-05
1.4796914e-05
1.4840259e-05
1.4888867e-05
1.4943148e-05
1.5003467e-05
1.5070148e-05
1.5143469e-05
1.5223661e-05
1.5310915e-05
1.540538e-05
1.5507169e-05
1.5616362e-05
1.5733021e-05
1.5857195e-05
1.5988942e-05
1.6128347e-05
1.6275547e-05
1.6430754e-05
1.6594289e-05
1.6766614e-05
1.6948372e-05
1.7140437e-05
1.7343949e-05
1.7560371e-05
1.7791546e-05
1.8039786e-05
1.8307942e-05
1.8599476e-05
1.8918629e-05
1.9270602e-05
1.9661725e-05
2.0099698e-05
2.0594135e-05
2.1157108e-05
2.1803669e-05
2.2553004e-05
2.34296e-05
2.4467141e-05
2.5708239e-05
2.7212279e-05
2.9063642e-05
3.1379964e-05
3.4321757e-05
3.8167133e-05
4.3303573e-05
5.034058e-05
6.0302336e-05
7.4761976e-05
9.6634858e-05
0.00013059765
0.00018411653
0.00026946755
0.00040008291
0.00058746289
0.00083701855
0.0011444703
0.0014960758
0.001873689
0.002260398
0.0026434204
0.0030141105
0.003366932
0.0036985848
0.0040073697
0.0042926895
0.0045546848
0.0047939851
0.0050115298
0.0052084507
0.0053859783
0.0055453939
0.0056880391
0.0058149443
0.0059288083
0.00602372
0.0061516106
1.4132497e-05
1.4146152e-05
1.4160311e-05
1.417458e-05
1.4188873e-05
1.4203173e-05
1.421748e-05
1.4231797e-05
1.4246127e-05
1.4260471e-05
1.4274834e-05
1.4289222e-05
1.4303648e-05
1.4318138e-05
1.4332732e-05
1.4347496e-05
1.4362522e-05
1.437794e-05
1.4393913e-05
1.4410648e-05
1.442839e-05
1.4447425e-05
1.4468068e-05
1.4490666e-05
1.4515585e-05
1.4543205e-05
1.457391e-05
1.4608081e-05
1.4646089e-05
1.4688288e-05
1.4735009e-05
1.4786558e-05
1.4843211e-05
1.4905211e-05
1.4972768e-05
1.5046059e-05
1.5125231e-05
1.5210406e-05
1.530169e-05
1.5399181e-05
1.5502985e-05
1.5613228e-05
1.5730075e-05
1.5853751e-05
1.5984565e-05
1.612294e-05
1.6269441e-05
1.6424807e-05
1.6589988e-05
1.6766191e-05
1.6954926e-05
1.7158057e-05
1.7377862e-05
1.7617134e-05
1.7879267e-05
1.8168366e-05
1.8489438e-05
1.8848651e-05
1.9253569e-05
1.9713595e-05
2.0240249e-05
2.0848687e-05
2.1557817e-05
2.239218e-05
2.3384723e-05
2.4579806e-05
2.6034236e-05
2.7834856e-05
3.0101821e-05
3.3001493e-05
3.6812331e-05
4.1933445e-05
4.9022756e-05
5.9128837e-05
7.3956927e-05
9.6547115e-05
0.00013157247
0.00018719488
0.00027427489
0.00040453969
0.00058684357
0.00082356831
0.0011080326
0.0014266848
0.0017639564
0.0021063435
0.0024438674
0.0027697208
0.0030795131
0.0033706359
0.0036417564
0.0038924221
0.0041227901
0.0043334112
0.0045251134
0.0046989358
0.0048556378
0.0049984125
0.0051176387
0.0052849272
1.3915573e-05
1.3928958e-05
1.3942837e-05
1.3956825e-05
1.3970835e-05
1.3984851e-05
1.3998873e-05
1.4012902e-05
1.402694e-05
1.4040988e-05
1.4055044e-05
1.4069106e-05
1.4083171e-05
1.409724e-05
1.4111318e-05
1.4125416e-05
1.4139559e-05
1.4153788e-05
1.4168162e-05
1.4182765e-05
1.4197707e-05
1.4213128e-05
1.4229196e-05
1.4246109e-05
1.4264092e-05
1.4283397e-05
1.4304296e-05
1.4327076e-05
1.4352039e-05
1.4379491e-05
1.4409736e-05
1.4443076e-05
1.4479801e-05
1.4520185e-05
1.4564483e-05
1.4612924e-05
1.4665717e-05
1.4723046e-05
1.4785071e-05
1.4851939e-05
1.4923783e-05
1.5000732e-05
1.5082919e-05
1.5170495e-05
1.5263642e-05
1.5362593e-05
1.5467645e-05
1.5579188e-05
1.5697722e-05
1.582389e-05
1.5958504e-05
1.6102581e-05
1.6257376e-05
1.6424433e-05
1.6605639e-05
1.6803281e-05
1.7020129e-05
1.7259558e-05
1.7525665e-05
1.7823475e-05
1.8159042e-05
1.8540001e-05
1.897581e-05
1.9478295e-05
2.0062586e-05
2.0748419e-05
2.1560529e-05
2.2532912e-05
2.371187e-05
2.5157663e-05
2.696067e-05
2.9246675e-05
3.2200739e-05
3.6111728e-05
4.142844e-05
4.8878257e-05
5.9594411e-05
7.5555082e-05
9.9988591e-05
0.0001381964
0.00019848437
0.00029101202
0.00042540438
0.00060767259
0.00083653079
0.0011032325
0.0013948181
0.0016982888
0.0020030979
0.0023016011
0.002588598
0.0028607613
0.0031161568
0.0033538259
0.0035735233
0.0037755339
0.0039599918
0.0041303615
0.0042730552
0.0044792408
1.3693691e-05
1.3706811e-05
1.3720413e-05
1.3734121e-05
1.3747851e-05
1.3761584e-05
1.3775321e-05
1.3789064e-05
1.3802813e-05
1.3816569e-05
1.383033e-05
1.3844091e-05
1.3857848e-05
1.3871594e-05
1.3885322e-05
1.3899027e-05
1.3912708e-05
1.392637e-05
1.3940025e-05
1.3953696e-05
1.3967421e-05
1.3981254e-05
1.3995267e-05
1.4009554e-05
1.4024231e-05
1.4039437e-05
1.4055334e-05
1.4072105e-05
1.4089955e-05
1.4109104e-05
1.4129788e-05
1.4152251e-05
1.4176741e-05
1.4203508e-05
1.4232796e-05
1.4264841e-05
1.4299866e-05
1.433808e-05
1.4379677e-05
1.4424837e-05
1.4473725e-05
1.4526493e-05
1.4583289e-05
1.4644254e-05
1.4709539e-05
1.4779307e-05
1.4853749e-05
1.4933097e-05
1.5017635e-05
1.5107725e-05
1.5203816e-05
1.5306476e-05
1.5416409e-05
1.5534484e-05
1.5661773e-05
1.5799581e-05
1.5949493e-05
1.6113431e-05
1.6293723e-05
1.6493202e-05
1.6715269e-05
1.6964097e-05
1.7244802e-05
1.7563669e-05
1.7928491e-05
1.8349147e-05
1.8837867e-05
1.9410403e-05
2.0087559e-05
2.0895733e-05
2.1871195e-05
2.306296e-05
2.4538177e-05
2.6393562e-05
2.8770087e-05
3.187875e-05
3.60362e-05
4.1772353e-05
4.9911e-05
6.1805349e-05
7.9738901e-05
0.00010739331
0.000150973
0.00021873552
0.00031973296
0.0004614519
0.00064611393
0.00086903395
0.00112023
0.0013880061
0.0016619221
0.0019339338
0.0021983246
0.002451248
0.002690316
0.0029142598
0.0031219711
0.0033167572
0.0034807321
0.0037238548
1.346794e-05
1.3480799e-05
1.3494129e-05
1.3507562e-05
1.3521014e-05
1.3534469e-05
1.3547925e-05
1.3561384e-05
1.3574847e-05
1.3588314e-05
1.3601784e-05
1.3615252e-05
1.3628712e-05
1.3642158e-05
1.3655581e-05
1.366897e-05
1.3682318e-05
1.3695615e-05
1.3708857e-05
1.3722042e-05
1.3735175e-05
1.3748268e-05
1.3761343e-05
1.3774433e-05
1.3787586e-05
1.3800866e-05
1.3814352e-05
1.3828145e-05
1.3842361e-05
1.3857138e-05
1.3872629e-05
1.3889004e-05
1.3906446e-05
1.3925147e-05
1.3945305e-05
1.396712e-05
1.3990793e-05
1.401652e-05
1.4044494e-05
1.4074898e-05
1.4107909e-05
1.4143694e-05
1.4182411e-05
1.4224212e-05
1.4269244e-05
1.4317654e-05
1.4369598e-05
1.4425244e-05
1.4484783e-05
1.4548441e-05
1.461649e-05
1.4689261e-05
1.4767165e-05
1.4850704e-05
1.49405e-05
1.5037309e-05
1.5142057e-05
1.5255868e-05
1.53801e-05
1.5516405e-05
1.5666769e-05
1.5833596e-05
1.6019808e-05
1.622896e-05
1.6465385e-05
1.6734455e-05
1.704276e-05
1.7398491e-05
1.7812122e-05
1.8296739e-05
1.8869341e-05
1.9552192e-05
2.0374505e-05
2.1375836e-05
2.2610743e-05
2.4156111e-05
2.611975e-05
2.8666945e-05
3.2042393e-05
3.6625062e-05
4.3048756e-05
5.2299873e-05
6.60785e-05
8.7073497e-05
0.00011995296
0.00017131927
0.00024917636
0.00036123154
0.00051167854
0.00069884153
0.00091549273
0.0011515847
0.0013972631
0.0016444584
0.0018872055
0.0021214492
0.0023438317
0.0025567562
0.0027375839
0.0030132064
1.3239351e-05
1.3251955e-05
1.3265019e-05
1.3278183e-05
1.3291363e-05
1.3304544e-05
1.3317723e-05
1.3330904e-05
1.3344085e-05
1.3357268e-05
1.3370451e-05
1.338363e-05
1.33968e-05
1.3409955e-05
1.3423084e-05
1.3436179e-05
1.3449228e-05
1.3462221e-05
1.3475146e-05
1.3487994e-05
1.3500758e-05
1.3513431e-05
1.3526013e-05
1.3538509e-05
1.355093e-05
1.3563297e-05
1.3575641e-05
1.3588007e-05
1.3600451e-05
1.3613045e-05
1.3625877e-05
1.3639049e-05
1.3652676e-05
1.3666887e-05
1.368182e-05
1.3697625e-05
1.3714454e-05
1.3732467e-05
1.3751826e-05
1.3772692e-05
1.3795227e-05
1.3819591e-05
1.3845938e-05
1.3874418e-05
1.3905177e-05
1.3938359e-05
1.3974106e-05
1.4012562e-05
1.4053881e-05
1.4098228e-05
1.4145789e-05
1.419678e-05
1.4251457e-05
1.4310127e-05
1.4373161e-05
1.4441013e-05
1.4514232e-05
1.4593487e-05
1.4679588e-05
1.4773519e-05
1.4876464e-05
1.4989855e-05
1.511542e-05
1.5255252e-05
1.5411882e-05
1.55884e-05
1.5788573e-05
1.6016997e-05
1.6279397e-05
1.6582844e-05
1.6936221e-05
1.7350824e-05
1.7841059e-05
1.8425633e-05
1.9129241e-05
1.9985133e-05
2.1037784e-05
2.2350404e-05
2.4012317e-05
2.6151625e-05
2.8967099e-05
3.275346e-05
3.7991899e-05
4.5457963e-05
5.6456575e-05
7.3080196e-05
9.8903393e-05
0.00013922983
0.00020098076
0.00029148318
0.00041585018
0.00057442466
0.00076223536
0.00097089497
0.0011913838
0.0014160349
0.0016380611
0.0018578811
0.0020475149
0.0023471733
1.3008892e-05
1.3021249e-05
1.3034055e-05
1.3046956e-05
1.3059871e-05
1.3072785e-05
1.3085695e-05
1.3098603e-05
1.3111509e-05
1.3124414e-05
1.3137316e-05
1.3150213e-05
1.3163098e-05
1.3175966e-05
1.3188809e-05
1.3201617e-05
1.321438e-05
1.3227087e-05
1.3239725e-05
1.3252283e-05
1.3264749e-05
1.3277112e-05
1.3289363e-05
1.3301495e-05
1.3313502e-05
1.3325386e-05
1.3337152e-05
1.3348814e-05
1.3360392e-05
1.3371919e-05
1.3383436e-05
1.3394995e-05
1.3406661e-05
1.3418508e-05
1.3430621e-05
1.3443096e-05
1.3456035e-05
1.3469551e-05
1.3483761e-05
1.3498791e-05
1.351477e-05
1.353183e-05
1.3550104e-05
1.3569727e-05
1.359083e-05
1.3613546e-05
1.3638007e-05
1.3664342e-05
1.3692684e-05
1.3723172e-05
1.3755949e-05
1.3791174e-05
1.3829023e-05
1.3869701e-05
1.3913445e-05
1.3960537e-05
1.4011316e-05
1.406619e-05
1.4125651e-05
1.4190296e-05
1.4260844e-05
1.4338161e-05
1.4423296e-05
1.451751e-05
1.4622327e-05
1.4739593e-05
1.4871546e-05
1.5020894e-05
1.5190952e-05
1.5385776e-05
1.5610363e-05
1.5870927e-05
1.6175236e-05
1.653309e-05
1.6957008e-05
1.7463273e-05
1.807298e-05
1.8814446e-05
1.9726144e-05
2.0860301e-05
2.2292397e-05
2.4129062e-05
2.6530597e-05
2.9741105e-05
3.4148256e-05
4.0365706e-05
4.9444583e-05
6.3080403e-05
8.4109915e-05
0.00011686569
0.00016730058
0.00024214212
0.00034678704
0.00048282165
0.00064694513
0.00083243892
0.0010302436
0.0012383757
0.0014232369
0.0017321519
1.2777468e-05
1.2789586e-05
1.2802142e-05
1.2814789e-05
1.2827447e-05
1.2840102e-05
1.2852751e-05
1.2865394e-05
1.2878033e-05
1.2890668e-05
1.2903296e-05
1.2915917e-05
1.2928525e-05
1.2941114e-05
1.2953677e-05
1.2966205e-05
1.2978689e-05
1.2991118e-05
1.300348e-05
1.3015764e-05
1.3027957e-05
1.3040046e-05
1.3052021e-05
1.3063869e-05
1.307558e-05
1.3087147e-05
1.3098563e-05
1.3109828e-05
1.3120946e-05
1.3131923e-05
1.3142777e-05
1.3153529e-05
1.3164209e-05
1.3174855e-05
1.3185511e-05
1.319623e-05
1.3207072e-05
1.3218106e-05
1.3229408e-05
1.3241061e-05
1.3253157e-05
1.326579e-05
1.3279064e-05
1.3293083e-05
1.3307957e-05
1.3323794e-05
1.3340708e-05
1.3358813e-05
1.3378221e-05
1.3399051e-05
1.3421423e-05
1.3445462e-05
1.3471302e-05
1.3499092e-05
1.3528995e-05
1.35612e-05
1.3595927e-05
1.3633434e-05
1.3674029e-05
1.3718082e-05
1.3766037e-05
1.3818428e-05
1.3875897e-05
1.393922e-05
1.4009332e-05
1.4087359e-05
1.4174665e-05
1.4272894e-05
1.4384041e-05
1.4510528e-05
1.4655307e-05
1.4821996e-05
1.5015052e-05
1.5239995e-05
1.5503713e-05
1.5814937e-05
1.6184714e-05
1.6627306e-05
1.7161444e-05
1.7811629e-05
1.8611351e-05
1.9606055e-05
2.0859735e-05
2.2464177e-05
2.455607e-05
2.7339102e-05
3.1139728e-05
3.6472663e-05
4.4195518e-05
5.5730617e-05
7.3409e-05
0.00010087367
0.00014327066
0.00020670255
0.00029645622
0.00041504555
0.00055921978
0.00072921622
0.00088864431
0.0011828788
1.2545913e-05
1.2557801e-05
1.2570117e-05
1.2582519e-05
1.259493e-05
1.2607335e-05
1.2619731e-05
1.2632119e-05
1.26445e-05
1.2656873e-05
1.2669237e-05
1.2681591e-05
1.2693929e-05
1.2706247e-05
1.2718539e-05
1.2730795e-05
1.2743007e-05
1.2755166e-05
1.276726e-05
1.2779278e-05
1.2791208e-05
1.2803038e-05
1.2814755e-05
1.2826348e-05
1.2837805e-05
1.2849115e-05