/*--------------------------------*- C++ -*----------------------------------*\
  =========                 |
  \\      /  F ield         | OpenFOAM: The Open Source CFD Toolbox
   \\    /   O peration     | Website:  https://openfoam.org
    \\  /    A nd           | Version:  12
     \\/     M anipulation  |
\*---------------------------------------------------------------------------*/
FoamFile
{
    format      ascii;
    class       volScalarField;
    location    "500";
    object      k;
}
// * * * * * * * * * * * * * * * * * * * * * * * * * * * * * * * * * * * * * //

dimensions      [0 2 -2 0 0 0 0];

internalField   nonuniform List<scalar> 
7480
(
9.1321123e-06
9.5179921e-06
1.0336758e-05
1.271535e-05
0.0017675946
0.0035112111
0.0049554367
0.0060289288
0.0067626758
0.0072237716
0.0074851668
0.0076041887
0.0076237479
0.0075751232
0.0074809534
0.0073574034
0.0072160614
0.0070660799
0.0069172222
0.0067704617
0.0066277025
0.006489438
0.0063577776
0.0062346332
0.0061212835
0.0060185017
0.0059265669
0.0058452722
0.0057740444
0.0057120627
0.0056583431
0.0056118624
0.0055717385
0.0055372404
0.0055074934
0.0054814805
0.0054581337
0.0054365622
0.0054161189
0.0053963462
0.0053768348
0.0053572143
0.0053371995
0.0053165782
0.0052952463
0.0052731649
0.0052502952
0.0052265017
0.0052016534
0.0051757666
0.0051489702
0.0051213879
0.0050931217
0.0050643365
0.0050352847
0.0050061722
0.0049770677
0.0049479826
0.0049189759
0.0048901402
0.0048615176
0.0048331332
0.0048050591
0.0047773698
0.0047500694
0.0047231513
0.004696619
0.0046704329
0.0046445248
0.0046188862
0.0045935568
0.0045685317
0.0045438119
0.0045194556
0.0044954379
0.0044716924
0.0044482226
0.0044250135
0.0044020424
0.0043793521
0.0043569574
0.0043348315
0.0043129768
0.0042913625
0.0042699608
0.0042487952
0.0042278772
0.0042072067
0.0041867634
0.004166524
0.0041464944
0.0041266679
0.0041070527
0.0040876214
0.0040683938
0.0040491558
0.0040305851
0.0040107529
0.0039932968
0.0039668034
8.9479325e-06
8.8222181e-06
8.706764e-06
8.6318637e-06
4.7739292e-05
0.00014931511
0.00031207479
0.00052024814
0.00075168594
0.00098614835
0.0012045514
0.0013985059
0.0015688143
0.0017225992
0.0018691543
0.0020188423
0.0021844449
0.002387043
0.0026128361
0.0028404523
0.0030741409
0.0033131968
0.0035546161
0.0037949913
0.0040309399
0.0042582127
0.0044728265
0.0046714913
0.004851639
0.0050115772
0.0051506618
0.0052694804
0.0053698262
0.0054548307
0.0055249716
0.0055800217
0.005619853
0.0056465004
0.005661572
0.0056664963
0.0056628479
0.0056522983
0.0056362949
0.0056157946
0.0055916114
0.005564486
0.0055351127
0.0055040902
0.0054719292
0.0054392982
0.0054067996
0.0053748561
0.005343731
0.0053136096
0.0052846524
0.0052567452
0.0052295024
0.0052027289
0.0051763826
0.0051505294
0.0051252688
0.0051006511
0.0050766296
0.0050531049
0.0050299959
0.0050072166
0.0049844682
0.0049616041
0.0049386717
0.0049157909
0.0048930786
0.0048706151
0.0048484254
0.0048265121
0.004804741
0.0047829837
0.0047612206
0.0047395266
0.004717998
0.0046966871
0.0046756292
0.0046547539
0.0046339547
0.0046132145
0.0045925898
0.0045721338
0.0045518934
0.0045318414
0.0045119034
0.0044920585
0.0044723389
0.0044527898
0.0044334333
0.0044142018
0.0043951033
0.0043759951
0.0043573348
0.0043378239
0.004322132
0.0042880668
8.9433817e-06
8.8096582e-06
8.6758554e-06
8.5428002e-06
9.0513391e-06
1.1697474e-05
1.8654911e-05
3.1946302e-05
5.2805371e-05
8.1720353e-05
0.00011804442
0.00016044716
0.00020748197
0.00025789242
0.00031073251
0.00036554036
0.00042263436
0.00048390329
0.00054883284
0.00061892239
0.00069625189
0.00078457374
0.00088741054
0.0010087662
0.0011534038
0.001310537
0.0014770801
0.0016535383
0.001839952
0.0020359209
0.0022406879
0.002453498
0.0026715602
0.0028850518
0.0030921664
0.0032899129
0.0034739273
0.003641095
0.0037922925
0.0039272014
0.0040469391
0.0041528108
0.0042442958
0.0043204595
0.004383089
0.0044339118
0.0044746611
0.0045039923
0.0045255154
0.0045412968
0.004552546
0.0045600911
0.0045646924
0.0045672194
0.0045683643
0.0045683621
0.0045671697
0.0045648232
0.0045615379
0.004557614
0.0045532613
0.0045485523
0.0045434419
0.0045378609
0.0045318118
0.004525254
0.0045178253
0.0045095458
0.0045006093
0.0044912114
0.0044814809
0.0044714784
0.0044612285
0.0044507491
0.0044398127
0.0044283269
0.0044163831
0.0044041214
0.0043916715
0.0043791001
0.0043664424
0.0043535724
0.0043403818
0.0043269082
0.0043132667
0.0042995416
0.0042857916
0.0042719553
0.004257942
0.0042437671
0.0042295021
0.0042152174
0.0042009344
0.0041865689
0.0041721029
0.0041575507
0.0041430799
0.0041280362
0.0041154948
0.004088906
8.9432761e-06
8.8092161e-06
8.6750572e-06
8.5409096e-06
8.4159998e-06
8.332588e-06
8.3606397e-06
8.6167172e-06
9.2641913e-06
1.0526218e-05
1.2643207e-05
1.5842662e-05
2.0315137e-05
2.6203791e-05
3.3610359e-05
4.2608773e-05
5.3273691e-05
6.5755515e-05
8.0215673e-05
9.6857577e-05
0.0001159298
0.00013783032
0.00016312207
0.00019257346
0.00022725081
0.00026786024
0.0003151463
0.00037021416
0.00043469941
0.00051096666
0.00060238145
0.0007135585
0.00084292167
0.00098580876
0.0011432146
0.0013165041
0.0015063045
0.0017099874
0.0019169651
0.0021227199
0.0023236039
0.0025166221
0.0026987959
0.0028687019
0.0030249884
0.003166598
0.0032942543
0.0034084007
0.0035095135
0.0035960746
0.0036701678
0.0037337088
0.0037885673
0.0038367064
0.0038791453
0.0039154677
0.0039457772
0.0039717498
0.0039945529
0.0040150269
0.0040334955
0.0040500414
0.0040647068
0.0040776471
0.0040890999
0.0040991342
0.0041076378
0.0041146329
0.0041203253
0.0041249189
0.0041285362
0.0041312227
0.0041330219
0.0041339912
0.004133897
0.0041327508
0.0041307313
0.0041280007
0.0041246833
0.0041208477
0.0041165351
0.0041115752
0.00410591
0.0040996496
0.0040929372
0.0040858682
0.0040785058
0.0040707533
0.0040625304
0.0040539016
0.0040449704
0.0040358187
0.0040264592
0.0040167927
0.0040068083
0.0039966125
0.0039862406
0.0039753756
0.0039660416
0.0039455058
8.9432843e-06
8.8092148e-06
8.6750691e-06
8.54092e-06
8.4069542e-06
8.2738085e-06
8.1431493e-06
8.0184806e-06
7.9059554e-06
7.8156074e-06
7.7620987e-06
7.7653305e-06
7.850546e-06
8.0482329e-06
8.3942528e-06
8.9298247e-06
9.7018627e-06
1.076444e-05
1.2180637e-05
1.4021852e-05
1.6366646e-05
1.930855e-05
2.2963729e-05
2.7478728e-05
3.3049941e-05
3.9924195e-05
4.8389582e-05
5.8797962e-05
7.1601238e-05
8.7399317e-05
0.00010700885
0.00013158539
0.00016240023
0.00020071394
0.00024821792
0.0003073282
0.00038145745
0.00047524985
0.00059229914
0.00072594024
0.00087562227
0.0010401597
0.0012193517
0.0014080674
0.0016000764
0.0017911887
0.0019777085
0.0021564266
0.0023251228
0.0024838134
0.0026300125
0.0027631571
0.0028842518
0.0029952897
0.0030953528
0.0031835577
0.0032609923
0.00332946
0.0033909201
0.0034465687
0.0034966935
0.0035417529
0.003582346
0.0036192231
0.0036529144
0.0036833585
0.0037100807
0.0037339852
0.0037556375
0.0037753311
0.0037931798
0.0038092368
0.0038236428
0.0038365243
0.0038478668
0.0038577204
0.0038662369
0.003873567
0.003879825
0.0038850834
0.0038893972
0.0038926105
0.0038947586
0.0038960028
0.0038964828
0.0038962911
0.0038954915
0.0038939642
0.0038916722
0.0038887338
0.0038852687
0.0038813593
0.0038770056
0.0038721
0.0038666681
0.0038608676
0.0038546808
0.0038479386
0.0038421499
0.0038264293
8.9433069e-06
8.8092471e-06
8.6751116e-06
8.5409639e-06
8.4068666e-06
8.2728901e-06
8.1391267e-06
8.0057176e-06
7.8728976e-06
7.7410564e-06
7.6108213e-06
7.4831578e-06
7.3594761e-06
7.2417386e-06
7.1325824e-06
7.0354385e-06
6.9546772e-06
6.8958033e-06
6.8657683e-06
6.8732101e-06
6.9284841e-06
7.0442639e-06
7.2364964e-06
7.525458e-06
7.9381945e-06
8.5105457e-06
9.2885184e-06
1.0331665e-05
1.1719053e-05
1.3556997e-05
1.5989477e-05
1.9218751e-05
2.3521014e-05
2.9267321e-05
3.6954875e-05
4.7273108e-05
6.1195719e-05
8.0103821e-05
0.00010585752
0.00014011752
0.00018485453
0.0002425228
0.00031659362
0.00041009279
0.00052525504
0.00065789809
0.0008070479
0.00097009985
0.0011439928
0.00132156
0.001499152
0.0016733486
0.0018414588
0.0020018114
0.0021552409
0.0022995433
0.0024330241
0.0025557559
0.0026692539
0.0027736289
0.0028674155
0.002952021
0.0030288142
0.0030991889
0.0031636436
0.0032220827
0.0032744921
0.0033218917
0.0033652129
0.0034048107
0.0034409037
0.0034737854
0.0035038696
0.0035314031
0.0035560477
0.0035782317
0.0035983801
0.0036167241
0.0036333854
0.0036484543
0.0036620203
0.0036741097
0.0036848044
0.0036942314
0.003702509
0.0037097314
0.0037159636
0.003721108
0.0037252005
0.0037283924
0.003730797
0.0037324911
0.0037334659
0.0037336265
0.0037330523
0.003731923
0.0037301938
0.0037277681
0.0037258905
0.00371471
8.9433388e-06
8.809284e-06
8.6751499e-06
8.5410015e-06
8.406902e-06
8.2729135e-06
8.1390968e-06
8.0055122e-06
7.872223e-06
7.7392973e-06
7.6068116e-06
7.4748551e-06
7.3435435e-06
7.2130213e-06
7.083476e-06
6.9551528e-06
6.8283729e-06
6.7035546e-06
6.5812425e-06
6.4621393e-06
6.3471258e-06
6.2373031e-06
6.1340645e-06
6.0391811e-06
5.9549712e-06
5.8845072e-06
5.8317952e-06
5.8021368e-06
5.8027092e-06
5.8434072e-06
5.9380509e-06
6.1066663e-06
6.3786691e-06
6.7967079e-06
7.4229069e-06
8.3498409e-06
9.7174605e-06
1.1738311e-05
1.4737916e-05
1.9173598e-05
2.5685273e-05
3.5169065e-05
4.8897163e-05
6.8548409e-05
9.6284451e-05
0.0001342174
0.00018481483
0.00025106783
0.00033685085
0.00044291129
0.00056604047
0.00070560167
0.00085925402
0.0010229331
0.0011887878
0.0013542212
0.0015166487
0.0016740039
0.0018249575
0.0019707533
0.0021091224
0.002238696
0.0023596525
0.0024731375
0.0025782902
0.0026739788
0.0027610385
0.0028407351
0.0029139983
0.0029807358
0.003041414
0.0030968404
0.0031477669
0.0031944978
0.0032368572
0.0032752968
0.0033104581
0.0033427071
0.0033722368
0.0033992594
0.0034240072
0.0034463413
0.003466583
0.0034850272
0.0035018382
0.0035171318
0.0035309769
0.0035434116
0.0035545263
0.003564436
0.0035732367
0.0035810054
0.0035877422
0.0035934025
0.003598111
0.0036020403
0.003605128
0.0036073221
0.0036097624
0.0036031803
8.9433809e-06
8.8093315e-06
8.675201e-06
8.5410556e-06
8.406958e-06
8.2729699e-06
8.1391514e-06
8.0055613e-06
7.8722589e-06
7.7393041e-06
7.6067566e-06
7.4746763e-06
7.3431232e-06
7.2121594e-06
7.0818466e-06
6.9522493e-06
6.8234352e-06
6.6954769e-06
6.5684543e-06
6.4424578e-06
6.3175905e-06
6.1939713e-06
6.0717411e-06
5.9510692e-06
5.8321645e-06
5.715291e-06
5.6007825e-06
5.4890678e-06
5.3807107e-06
5.2764699e-06
5.1773825e-06
5.0849194e-06
5.0012159e-06
4.9293709e-06
4.87393e-06
4.8417396e-06
4.8433662e-06
4.8954088e-06
5.0249747e-06
5.2758774e-06
5.7176192e-06
6.4621092e-06
7.6908667e-06
9.6926233e-06
1.291576e-05
1.8014893e-05
2.5932107e-05
3.8004182e-05
5.6114819e-05
8.2542553e-05
0.00011955123
0.00016976293
0.00023635214
0.00032382888
0.0004294544
0.00055120775
0.00068815331
0.00083774052
0.00099518753
0.0011515644
0.0013065111
0.0014583828
0.001605911
0.0017487918
0.001887555
0.0020196776
0.0021442118
0.0022614698
0.0023720691
0.0024731781
0.0025658759
0.0026513707
0.0027304155
0.0028029606
0.0028690391
0.0029293191
0.0029845733
0.0030351556
0.0030813989
0.00312378
0.0031627596
0.0031982836
0.0032306524
0.0032603084
0.0032875505
0.0033125586
0.0033354748
0.003356267
0.0033751881
0.0033924763
0.0034082571
0.0034226262
0.0034356301
0.0034473332
0.0034578332
0.0034672763
0.0034755964
0.0034827811
0.0034900009
0.0034882095
8.9434297e-06
8.8093868e-06
8.6752609e-06
8.5411184e-06
8.4070221e-06
8.2730336e-06
8.1392134e-06
8.0056213e-06
7.8723167e-06
7.7393595e-06
7.6068088e-06
7.4747238e-06
7.343163e-06
7.2121844e-06
7.081845e-06
6.952201e-06
6.8233077e-06
6.6952194e-06
6.5679893e-06
6.4416704e-06
6.3163151e-06
6.1919749e-06
6.0687014e-06
5.9465464e-06
5.8255629e-06
5.7058065e-06
5.5873362e-06
5.470216e-06
5.3545176e-06
5.2403246e-06
5.1277379e-06
5.0168858e-06
4.9079387e-06
4.801129e-06
4.6967819e-06
4.5953676e-06
4.4975903e-06
4.4045297e-06
4.3179211e-06
4.240596e-06
4.1771203e-06
4.1350364e-06
4.1270586e-06
4.1748949e-06
4.3161758e-06
4.615378e-06
5.1822226e-06
6.2038975e-06
7.9966357e-06
1.1066091e-05
1.6168401e-05
2.4409134e-05
3.7369303e-05
5.7378536e-05
8.6819259e-05
0.00012817715
0.00018436328
0.00025926274
0.00035528571
0.00046715772
0.00059365464
0.00073298993
0.00088144506
0.001032538
0.0011806152
0.0013268801
0.0014702074
0.00160946
0.0017460918
0.0018773668
0.0020019969
0.0021199957
0.0022318855
0.00233554
0.002431032
0.0025192883
0.0026008662
0.0026756287
0.0027440515
0.0028068833
0.002864718
0.0029175486
0.0029657415
0.0030099087
0.0030504614
0.0030876793
0.0031218781
0.0031531511
0.0031817472
0.0032079842
0.0032321092
0.0032542803
0.0032745362
0.0032929463
0.0033097956
0.0033252452
0.0033392436
0.0033518463
0.003364383
0.0033675821
8.9434837e-06
8.8094478e-06
8.6753268e-06
8.5411872e-06
8.4070923e-06
8.2731038e-06
8.1392827e-06
8.0056891e-06
7.8723828e-06
7.7394234e-06
7.6068705e-06
7.474783e-06
7.3432194e-06
7.2122377e-06
7.0818947e-06
6.9522465e-06
6.8233477e-06
6.6952519e-06
6.5680112e-06
6.4416767e-06
6.3162978e-06
6.1919224e-06
6.0685966e-06
5.9463649e-06
5.8252703e-06
5.7053545e-06
5.5866576e-06
5.4692188e-06
5.3530756e-06
5.2382646e-06
5.124822e-06
5.012784e-06
4.9021877e-06
4.7930728e-06
4.6854831e-06
4.5794697e-06
4.4750961e-06
4.3724471e-06
4.2716449e-06
4.1728758e-06
4.0764296e-06
3.9827731e-06
3.8926842e-06
3.8074898e-06
3.7295169e-06
3.6628599e-06
3.6147142e-06
3.5979357e-06
3.6358179e-06
3.7707196e-06
4.0785453e-06
4.694179e-06
5.8559556e-06
7.9838764e-06
1.1741617e-05
1.813407e-05
2.862957e-05
4.5387554e-05
7.12228e-05
0.0001087025
0.00016063467
0.00023076584
0.0003213177
0.00042991315
0.00055206388
0.00068614255
0.00082864909
0.00097500433
0.0011173552
0.0012584619
0.0013973274
0.0015327784
0.0016661909
0.0017950755
0.0019180736
0.0020349887
0.0021460772
0.0022489921
0.0023442363
0.0024325649
0.0025143797
0.0025894265
0.0026582461
0.0027214715
0.0027794483
0.0028325713
0.0028813821
0.0029261282
0.0029670417
0.0030045468
0.0030390487
0.0030707939
0.0030999157
0.0031265421
0.0031510021
0.0031735353
0.0031941889
0.0032129233
0.0032314152
0.0032396485
8.9435418e-06
8.8095132e-06
8.6753974e-06
8.5412612e-06
8.4071679e-06
8.2731797e-06
8.1393577e-06
8.0057627e-06
7.8724544e-06
7.7394929e-06
7.6069376e-06
7.4748476e-06
7.3432815e-06
7.2122972e-06
7.0819516e-06
6.9523007e-06
6.8233993e-06
6.6953007e-06
6.5680571e-06
6.4417195e-06
6.3163372e-06
6.1919579e-06
6.0686274e-06
5.9463898e-06
5.8252877e-06
5.7053619e-06
5.5866515e-06
5.469194e-06
5.3530247e-06
5.2381775e-06
5.1246842e-06
5.012575e-06
4.9018783e-06
4.7926214e-06
4.6848299e-06
4.5785277e-06
4.4737381e-06
4.3704835e-06
4.2687867e-06
4.1686728e-06
4.0701715e-06
3.9733207e-06
3.8781744e-06
3.7848169e-06
3.6933892e-06
3.6041354e-06
3.5174845e-06
3.4342065e-06
3.3557123e-06
3.2846286e-06
3.2258402e-06
3.188386e-06
3.1891707e-06
3.2605284e-06
3.4632314e-06
3.9100322e-06
4.8084608e-06
6.5375164e-06
9.7497201e-06
1.5467044e-05
2.5202238e-05
4.120508e-05
6.6400006e-05
0.00010385516
0.00015640829
0.0002280075
0.00031907103
0.00042883849
0.0005509896
0.0006832707
0.00082221879
0.00096394431
0.0011019086
0.0012382258
0.001372717
0.0015045645
0.0016344974
0.0017599431
0.0018798202
0.0019940958
0.0021024311
0.0022027766
0.0022960079
0.0023825406
0.0024622951
0.0025356443
0.0026031903
0.00266524
0.0027220335
0.00277409
0.0028219095
0.0028658175
0.0029061188
0.0029430461
0.0029769342
0.0030081269
0.003036835
0.0030629802
0.0030886179
0.0031028955
8.9436034e-06
8.8095822e-06
8.6754719e-06
8.5413391e-06
8.4072477e-06
8.2732599e-06
8.1394374e-06
8.0058409e-06
7.8725309e-06
7.7395672e-06
7.6070096e-06
7.4749171e-06
7.3433485e-06
7.2123615e-06
7.0820132e-06
6.9523595e-06
6.8234552e-06
6.6953537e-06
6.5681072e-06
6.4417667e-06
6.3163815e-06
6.1919992e-06
6.0686657e-06
5.9464253e-06
5.8253204e-06
5.7053917e-06
5.5866785e-06
5.4692179e-06
5.3530455e-06
5.2381946e-06
5.124697e-06
5.0125825e-06
4.901879e-06
4.7926129e-06
4.6848086e-06
4.5784887e-06
4.4736735e-06
4.3703819e-06
4.2686306e-06
4.1684352e-06
4.0698097e-06
3.9727669e-06
3.8773183e-06
3.7834758e-06
3.6912526e-06
3.6006664e-06
3.5117441e-06
3.4245302e-06
3.3391049e-06
3.2556184e-06
3.1743559e-06
3.0958556e-06
3.0211435e-06
2.9522158e-06
2.8929648e-06
2.8509228e-06
2.8407138e-06
2.8912096e-06
3.0595548e-06
3.4567313e-06
4.2947242e-06
5.9741672e-06
9.2041349e-06
1.5147344e-05
2.5532963e-05
4.2970551e-05
7.0577588e-05
0.00011183546
0.00016987192
0.0002476843
0.00034435409
0.00045870009
0.00058359479
0.00071570398
0.00085216106
0.00098945732
0.0011228998
0.0012551241
0.0013854001
0.0015140663
0.0016400039
0.0017612466
0.0018772014
0.0019878874
0.0020915124
0.0021879054
0.0022775549
0.0023605751
0.002437023
0.0025073753
0.0025720733
0.0026314436
0.0026859605
0.0027359764
0.0027818123
0.0028239114
0.0028626654
0.0028980026
0.0029323847
0.0029543927
8.9436677e-06
8.8096541e-06
8.6755493e-06
8.5414203e-06
8.4073309e-06
8.2733438e-06
8.1395208e-06
8.0059232e-06
7.8726114e-06
7.7396456e-06
7.6070857e-06
7.4749907e-06
7.3434195e-06
7.2124298e-06
7.0820786e-06
6.9524221e-06
6.8235148e-06
6.6954104e-06
6.568161e-06
6.4418175e-06
6.3164293e-06
6.1920441e-06
6.0687078e-06
5.9464645e-06
5.8253569e-06
5.7054257e-06
5.58671e-06
5.4692471e-06
5.3530724e-06
5.2382194e-06
5.1247198e-06
5.0126034e-06
4.9018981e-06
4.7926302e-06
4.684824e-06
4.5785019e-06
4.4736843e-06
4.3703897e-06
4.2686345e-06
4.1684336e-06
4.0698003e-06
3.9727457e-06
3.8772791e-06
3.7834081e-06
3.6911388e-06
3.6004761e-06
3.5114239e-06
3.4239854e-06
3.3381641e-06
3.2539662e-06
3.1714044e-06
3.0905046e-06
3.01132e-06
2.9339596e-06
2.8586462e-06
2.7858275e-06
2.7163973e-06
2.6521613e-06
2.5968005e-06
2.5577774e-06
2.5501692e-06
2.6049023e-06
2.7854899e-06
3.221008e-06
4.1669179e-06
6.1209636e-06
9.9679036e-06
1.7174654e-05
2.9953904e-05
5.1388007e-05
8.4920444e-05
0.00013435936
0.00020331893
0.00029110783
0.0003969501
0.00051754431
0.00064499745
0.00077688116
0.00091097264
0.0010433004
0.0011726792
0.0013010594
0.0014277441
0.0015528937
0.0016741981
0.001790581
0.0019019751
0.002007319
0.0021054115
0.0021967111
0.0022814486
0.0023596121
0.0024316575
0.0024979596
0.0025587895
0.0026146353
0.0026660082
0.0027128775
0.0027580939
0.0027900898
8.9437344e-06
8.8097282e-06
8.6756292e-06
8.541504e-06
8.4074169e-06
8.2734306e-06
8.1396074e-06
8.0060087e-06
7.8726953e-06
7.7397276e-06
7.6071653e-06
7.4750679e-06
7.343494e-06
7.2125015e-06
7.0821475e-06
6.952488e-06
6.8235777e-06
6.6954703e-06
6.5682179e-06
6.4418714e-06
6.3164801e-06
6.1920918e-06
6.0687525e-06
5.9465064e-06
5.8253959e-06
5.705462e-06
5.5867438e-06
5.4692785e-06
5.3531015e-06
5.2382464e-06
5.1247448e-06
5.0126266e-06
4.9019196e-06
4.7926502e-06
4.6848426e-06
4.5785192e-06
4.4737004e-06
4.3704046e-06
4.2686483e-06
4.1684463e-06
4.0698117e-06
3.9727557e-06
3.8772874e-06
3.7834142e-06
3.6911417e-06
3.6004742e-06
3.5114143e-06
3.4239629e-06
3.3381194e-06
3.2538818e-06
3.1712476e-06
3.0902135e-06
3.0107763e-06
2.9329346e-06
2.8566927e-06
2.782067e-06
2.709099e-06
2.6378843e-06
2.5686323e-06
2.5017886e-06
2.4382857e-06
2.3800877e-06
2.331362e-06
2.3009302e-06
2.307395e-06
2.3906932e-06
2.6358622e-06
3.2222367e-06
4.517638e-06
7.2310994e-06
1.2611154e-05
2.2684051e-05
4.049369e-05
6.9520383e-05
0.00011355325
0.0001769543
0.00025971787
0.00036060136
0.00047710016
0.00060214052
0.00073072618
0.00086153285
0.00099211825
0.0011195068
0.0012454765
0.0013699553
0.0014936555
0.0016141588
0.0017300958
0.0018412687
0.0019468869
0.0020453281
0.0021370779
0.0022223721
0.0023011043
0.0023736673
0.002440575
0.0025017532
0.0025603194
0.0026050394
8.9438033e-06
8.8098044e-06
8.6757111e-06
8.5415899e-06
8.4075051e-06
8.2735199e-06
8.1396967e-06
8.0060971e-06
7.8727822e-06
7.7398125e-06
7.607248e-06
7.4751481e-06
7.3435716e-06
7.2125763e-06
7.0822194e-06
6.9525569e-06
6.8236436e-06
6.6955331e-06
6.5682776e-06
6.4419279e-06
6.3165336e-06
6.1921422e-06
6.0687998e-06
5.9465507e-06
5.8254373e-06
5.7055007e-06
5.5867798e-06
5.469312e-06
5.3531327e-06
5.2382754e-06
5.1247718e-06
5.0126516e-06
4.901943e-06
4.792672e-06
4.6848629e-06
4.5785382e-06
4.4737181e-06
4.3704211e-06
4.2686638e-06
4.1684608e-06
4.0698253e-06
3.9727684e-06
3.8772993e-06
3.7834252e-06
3.691152e-06
3.6004836e-06
3.5114227e-06
3.42397e-06
3.3381247e-06
3.2538846e-06
3.1712461e-06
3.0902043e-06
3.010753e-06
2.9328847e-06
2.8565913e-06
2.7818643e-06
2.7086955e-06
2.6370787e-06
2.5670135e-06
2.4985127e-06
2.4316178e-06
2.3664321e-06
2.3031961e-06
2.2424451e-06
2.1853503e-06
2.134497e-06
2.095606e-06
2.0812998e-06
2.1195732e-06
2.2726797e-06
2.6777136e-06
3.6316076e-06
5.7498266e-06
1.0171776e-05
1.8808557e-05
3.4723231e-05
6.1580044e-05
0.00010326443
0.00016427974
0.0002451383
0.00034407719
0.00045828576
0.00058202444
0.00070844502
0.00083647825
0.00096482417
0.0010902106
0.0012137281
0.0013361352
0.0014581102
0.0015772108
0.0016919987
0.0018022024
0.0019070146
0.0020047771
0.0020959326
0.0021808044
0.0022588996
0.0023333822
0.0023938781
8.943874e-06
8.8098823e-06
8.6757947e-06
8.5416775e-06
8.4075953e-06
8.2736113e-06
8.1397882e-06
8.0061879e-06
7.8728717e-06
7.7399001e-06
7.6073334e-06
7.4752311e-06
7.3436519e-06
7.2126538e-06
7.082294e-06
6.9526285e-06
6.8237121e-06
6.6955984e-06
6.5683397e-06
6.4419869e-06
6.3165894e-06
6.1921948e-06
6.0688493e-06
5.9465971e-06
5.8254808e-06
5.7055413e-06
5.5868177e-06
5.4693474e-06
5.3531656e-06
5.238306e-06
5.1248003e-06
5.0126782e-06
4.9019678e-06
4.7926951e-06
4.6848846e-06
4.5785584e-06
4.473737e-06
4.3704388e-06
4.2686804e-06
4.1684764e-06
4.06984e-06
3.9727822e-06
3.8773122e-06
3.7834373e-06
3.6911633e-06
3.6004943e-06
3.5114327e-06
3.4239793e-06
3.3381334e-06
3.2538926e-06
3.1712533e-06
3.0902106e-06
3.0107581e-06
2.9328881e-06
2.8565915e-06
2.7818587e-06
2.7086786e-06
2.6370395e-06
2.5669287e-06
2.4983339e-06
2.4312434e-06
2.3656483e-06
2.3015471e-06
2.2389555e-06
2.1779275e-06
2.1186046e-06
2.0613269e-06
2.006881e-06
1.9570699e-06
1.9160462e-06
1.8933626e-06
1.911011e-06
2.0202121e-06
2.3385808e-06
3.1304851e-06
4.9758147e-06
8.9996513e-06
1.7144552e-05
3.258604e-05
5.9236939e-05
0.00010115509
0.00016287384
0.00024460997
0.00034417743
0.00045803953
0.00058111331
0.00070589033
0.00083153755
0.00095743628
0.0010806503
0.0012019056
0.0013224914
0.0014425868
0.0015598442
0.0016729948
0.0017816393
0.0018848506
0.0019808673
0.0020729222
0.0021519044
8.9439465e-06
8.8099616e-06
8.6758797e-06
8.5417666e-06
8.407687e-06
8.2737044e-06
8.1398817e-06
8.0062808e-06
7.8729633e-06
7.7399901e-06
7.6074212e-06
7.4753165e-06
7.3437347e-06
7.2127338e-06
7.0823711e-06
6.9527025e-06
6.823783e-06
6.6956661e-06
6.5684042e-06
6.4420482e-06
6.3166474e-06
6.1922496e-06
6.0689008e-06
5.9466455e-06
5.8255262e-06
5.7055838e-06
5.5868575e-06
5.4693844e-06
5.3532002e-06
5.2383383e-06
5.1248304e-06
5.0127063e-06
4.901994e-06
4.7927196e-06
4.6849075e-06
4.5785799e-06
4.4737571e-06
4.3704577e-06
4.268698e-06
4.168493e-06
4.0698556e-06
3.9727968e-06
3.8773259e-06
3.7834503e-06
3.6911755e-06
3.6005057e-06
3.5114434e-06
3.4239893e-06
3.3381428e-06
3.2539014e-06
3.1712615e-06
3.0902183e-06
3.0107652e-06
2.9328946e-06
2.8565974e-06
2.7818639e-06
2.7086829e-06
2.6370421e-06
2.5669286e-06
2.4983284e-06
2.4312269e-06
2.3656087e-06
2.3014582e-06
2.2387602e-06
2.177501e-06
2.1176717e-06
2.0592746e-06
2.0023394e-06
1.9469583e-06
1.8933727e-06
1.8421749e-06
1.7947797e-06
1.7545882e-06
1.7297669e-06
1.7397919e-06
1.8319687e-06
2.1195077e-06
2.8667732e-06
4.6744857e-06
8.7487399e-06
1.7211293e-05
3.35182e-05
6.1861054e-05
0.00010651399
0.00017148775
0.00025667349
0.00035891759
0.00047378442
0.0005963934
0.00071972465
0.00084330524
0.00096672479
0.0010877266
0.0012068698
0.0013258792
0.0014439809
0.0015591635
0.0016701054
0.0017789776
0.0018772173
8.9440205e-06
8.8100423e-06
8.6759659e-06
8.541857e-06
8.4077801e-06
8.2737991e-06
8.1399768e-06
8.0063755e-06
7.8730569e-06
7.740082e-06
7.6075112e-06
7.4754041e-06
7.3438197e-06
7.212816e-06
7.0824504e-06
6.9527787e-06
6.823856e-06
6.6957359e-06
6.5684708e-06
6.4421114e-06
6.3167073e-06
6.1923063e-06
6.0689543e-06
5.9466958e-06
5.8255734e-06
5.705628e-06
5.5868988e-06
5.4694231e-06
5.3532363e-06
5.238372e-06
5.1248618e-06
5.0127356e-06
4.9020214e-06
4.7927453e-06
4.6849315e-06
4.5786024e-06
4.4737782e-06
4.3704774e-06
4.2687166e-06
4.1685105e-06
4.069872e-06
3.9728123e-06
3.8773404e-06
3.7834639e-06
3.6911883e-06
3.6005177e-06
3.5114547e-06
3.424e-06
3.3381527e-06
3.2539107e-06
3.1712702e-06
3.0902264e-06
3.0107728e-06
2.9329016e-06
2.856604e-06
2.78187e-06
2.7086885e-06
2.6370473e-06
2.5669332e-06
2.4983324e-06
2.43123e-06
2.3656102e-06
2.3014568e-06
2.2387526e-06
2.1774803e-06
2.1176219e-06
2.0591599e-06
2.0020777e-06
1.9463621e-06
1.8920084e-06
1.8390336e-06
1.7875055e-06
1.7376184e-06
1.689877e-06
1.6455399e-06
1.6077582e-06
1.5844127e-06
1.595055e-06
1.6889822e-06
1.9888785e-06
2.791681e-06
4.7868304e-06
9.3777669e-06
1.9048614e-05
3.766579e-05
6.9741414e-05
0.00011976718
0.00019050293
0.00028106887
0.00038721395
0.00050366056
0.00062561252
0.00074746806
0.00086916651
0.00099014383
0.0011089124
0.0012261974
0.0013436074
0.0014618199
0.0015740664
8.944096e-06
8.8101243e-06
8.6760533e-06
8.5419484e-06
8.4078744e-06
8.273895e-06
8.1400733e-06
8.0064718e-06
7.8731522e-06
7.7401758e-06
7.607603e-06
7.4754936e-06
7.3439066e-06
7.2129003e-06
7.0825316e-06
6.9528569e-06
6.8239311e-06
6.6958077e-06
6.5685393e-06
6.4421766e-06
6.3167692e-06
6.1923647e-06
6.0690095e-06
5.9467477e-06
5.8256222e-06
5.7056738e-06
5.5869417e-06
5.4694632e-06
5.3532738e-06
5.238407e-06
5.1248945e-06
5.0127662e-06
4.90205e-06
4.792772e-06
4.6849566e-06
4.5786258e-06
4.4738002e-06
4.3704981e-06
4.268736e-06
4.1685287e-06
4.0698892e-06
3.9728284e-06
3.8773556e-06
3.7834782e-06
3.6912017e-06
3.6005304e-06
3.5114665e-06
3.4240111e-06
3.3381632e-06
3.2539205e-06
3.1712794e-06
3.090235e-06
3.0107808e-06
2.9329091e-06
2.8566109e-06
2.7818764e-06
2.7086944e-06
2.6370528e-06
2.5669383e-06
2.4983371e-06
2.4312343e-06
2.3656141e-06
2.3014602e-06
2.2387554e-06
2.1774822e-06
2.117622e-06
2.0591561e-06
2.0020654e-06
1.9463305e-06
1.8919319e-06
1.8388515e-06
1.7870737e-06
1.7365901e-06
1.6874117e-06
1.6395968e-06
1.5933245e-06
1.5490844e-06
1.5081494e-06
1.4738325e-06
1.454752e-06
1.4731563e-06
1.5872275e-06
1.9470152e-06
2.9275431e-06
5.4019777e-06
1.1126372e-05
2.3175556e-05
4.5907681e-05
8.4095986e-05
0.00014225902
0.00022081155
0.00031789086
0.00042803239
0.00054599585
0.00066693139
0.00078720465
0.00090726411
0.001025553
0.0011444281
0.0012604231
8.9441728e-06
8.8102073e-06
8.6761416e-06
8.5420408e-06
8.4079697e-06
8.273992e-06
8.1401711e-06
8.0065694e-06
7.8732491e-06
7.7402712e-06
7.6076966e-06
7.4755849e-06
7.3439955e-06
7.2129863e-06
7.0826148e-06
6.952937e-06
6.8240079e-06
6.6958813e-06
6.5686095e-06
6.4422435e-06
6.3168327e-06
6.1924249e-06
6.0690663e-06
5.9468013e-06
5.8256726e-06
5.7057211e-06
5.586986e-06
5.4695047e-06
5.3533126e-06
5.2384433e-06
5.1249284e-06
5.0127979e-06
4.9020797e-06
4.7927998e-06
4.6849826e-06
4.5786502e-06
4.4738231e-06
4.3705196e-06
4.2687562e-06
4.1685477e-06
4.0699071e-06
3.9728452e-06
3.8773714e-06
3.783493e-06
3.6912157e-06
3.6005435e-06
3.5114789e-06
3.4240227e-06
3.338174e-06
3.2539307e-06
3.171289e-06
3.0902439e-06
3.0107891e-06
2.9329168e-06
2.8566182e-06
2.7818831e-06
2.7087007e-06
2.6370586e-06
2.5669437e-06
2.498342e-06
2.4312388e-06
2.3656183e-06
2.301464e-06
2.2387589e-06
2.1774853e-06
2.1176248e-06
2.0591584e-06
2.002067e-06
1.9463308e-06
1.8919296e-06
1.8388431e-06
1.7870507e-06
1.736532e-06
1.6872676e-06
1.6392409e-06
1.5924421e-06
1.5468812e-06
1.5026175e-06
1.4598423e-06
1.4190977e-06
1.3818489e-06
1.3520581e-06
1.3404363e-06
1.3757971e-06
1.5360346e-06
2.0279498e-06
3.3793643e-06
6.7920072e-06
1.460025e-05
3.0707367e-05
5.9867432e-05
0.00010703588
0.0001751021
0.00026296629
0.00036684162
0.00048045532
0.00059964808
0.00071879004
0.00083974791
0.00095726973
8.944251e-06
8.8102914e-06
8.6762308e-06
8.5421341e-06
8.4080658e-06
8.27409e-06
8.1402699e-06
8.0066683e-06
7.8733472e-06
7.7403681e-06
7.6077917e-06
7.4756779e-06
7.3440859e-06
7.2130741e-06
7.0826996e-06
6.9530188e-06
6.8240865e-06
6.6959566e-06
6.5686815e-06
6.4423121e-06
6.3168979e-06
6.1924866e-06
6.0691246e-06
5.9468563e-06
5.8257243e-06
5.7057697e-06
5.5870317e-06
5.4695475e-06
5.3533526e-06
5.2384807e-06
5.1249634e-06
5.0128307e-06
4.9021103e-06
4.7928286e-06
4.6850095e-06
4.5786755e-06
4.4738468e-06
4.3705418e-06
4.2687771e-06
4.1685674e-06
4.0699256e-06
3.9728626e-06
3.8773878e-06
3.7835084e-06
3.6912302e-06
3.6005571e-06
3.5114917e-06
3.4240347e-06
3.3381853e-06
3.2539412e-06
3.1712988e-06
3.0902532e-06
3.0107978e-06
2.9329249e-06
2.8566257e-06
2.7818901e-06
2.7087071e-06
2.6370645e-06
2.5669492e-06
2.4983471e-06
2.4312435e-06
2.3656226e-06
2.301468e-06
2.2387626e-06
2.1774886e-06
2.1176278e-06
2.0591612e-06
2.0020695e-06
1.946333e-06
1.8919315e-06
1.8388444e-06
1.787051e-06
1.7365302e-06
1.6872608e-06
1.6392216e-06
1.5923916e-06
1.5467509e-06
1.5022826e-06
1.4589777e-06
1.4168495e-06
1.3759703e-06
1.3365757e-06
1.2993526e-06
1.2662272e-06
1.242602e-06
1.2436022e-06
1.3116311e-06
1.5646888e-06
2.3229364e-06
4.3993436e-06
9.5458525e-06
2.1000631e-05
4.3445104e-05
8.1934393e-05
0.0001409783
0.00022048817
0.00031815418
0.0004274719
0.00054587305
0.00066441587
8.9443304e-06
8.8103766e-06
8.6763208e-06
8.5422281e-06
8.4081628e-06
8.2741889e-06
8.1403697e-06
8.0067682e-06
7.8734466e-06
7.7404663e-06
7.6078881e-06
7.4757723e-06
7.3441779e-06
7.2131634e-06
7.0827861e-06
6.9531022e-06
6.8241667e-06
6.6960335e-06
6.568755e-06
6.4423822e-06
6.3169645e-06
6.1925499e-06
6.0691844e-06
5.9469127e-06
5.8257775e-06
5.7058197e-06
5.5870786e-06
5.4695914e-06
5.3533938e-06
5.2385192e-06
5.1249995e-06
5.0128644e-06
4.902142e-06
4.7928582e-06
4.6850373e-06
4.5787015e-06
4.4738712e-06
4.3705648e-06
4.2687987e-06
4.1685877e-06
4.0699446e-06
3.9728806e-06
3.8774047e-06
3.7835243e-06
3.6912451e-06
3.6005712e-06
3.5115049e-06
3.4240471e-06
3.3381969e-06
3.2539521e-06
3.171309e-06
3.0902627e-06
3.0108066e-06
2.9329332e-06
2.8566334e-06
2.7818973e-06
2.7087138e-06
2.6370707e-06
2.5669549e-06
2.4983524e-06
2.4312484e-06
2.3656271e-06
2.3014721e-06