/*--------------------------------*- C++ -*----------------------------------*\
  =========                 |
  \\      /  F ield         | OpenFOAM: The Open Source CFD Toolbox
   \\    /   O peration     | Website:  https://openfoam.org
    \\  /    A nd           | Version:  12
     \\/     M anipulation  |
\*---------------------------------------------------------------------------*/
FoamFile
{
    format      ascii;
    class       volScalarField;
    location    "500";
    object      nut;
}
// * * * * * * * * * * * * * * * * * * * * * * * * * * * * * * * * * * * * * //

dimensions      [0 2 -1 0 0 0 0];

internalField   nonuniform List<scalar> 
7480
(
8.0743158e-08
4.2962476e-08
3.1056899e-08
2.8365619e-08
3.1794787e-06
5.3315698e-06
6.3338476e-06
6.9862922e-06
7.3992204e-06
7.64731e-06
7.4894303e-06
7.2193003e-06
6.8979934e-06
6.5574751e-06
6.2181927e-06
5.8930655e-06
5.5904909e-06
5.3199645e-06
5.0762058e-06
4.8644511e-06
4.6802615e-06
4.5209723e-06
4.3859081e-06
4.2745566e-06
4.1860915e-06
4.1198857e-06
4.0748545e-06
4.049508e-06
4.0421394e-06
4.0508681e-06
4.0736468e-06
4.1083738e-06
4.152996e-06
4.2077111e-06
4.2711695e-06
4.3413306e-06
4.4158579e-06
4.4924378e-06
4.5696802e-06
4.6465731e-06
4.7220014e-06
4.7948542e-06
4.8642556e-06
4.9294924e-06
4.9899999e-06
5.0454535e-06
5.0953385e-06
5.1412483e-06
5.1828027e-06
5.2192654e-06
5.2501982e-06
5.2755088e-06
5.2955179e-06
5.3109813e-06
5.3227187e-06
5.3315658e-06
5.3384633e-06
5.3439263e-06
5.3482345e-06
5.3514701e-06
5.3535672e-06
5.3546e-06
5.3548248e-06
5.354438e-06
5.3534886e-06
5.3520866e-06
5.3505369e-06
5.3488608e-06
5.3469085e-06
5.3446291e-06
5.3419898e-06
5.3388881e-06
5.3354055e-06
5.3316642e-06
5.3276455e-06
5.3234007e-06
5.3190085e-06
5.3143413e-06
5.3093492e-06
5.3041347e-06
5.2986631e-06
5.2929729e-06
5.2871716e-06
5.2811838e-06
5.274976e-06
5.2685971e-06
5.2620343e-06
5.2553219e-06
5.2484726e-06
5.2414886e-06
5.2343756e-06
5.2271049e-06
5.2196988e-06
5.2121851e-06
5.2044818e-06
5.1967431e-06
5.1888832e-06
5.1803193e-06
5.1684398e-06
5.1776268e-06
1.6699852e-07
1.6479305e-07
1.6275586e-07
1.6152416e-07
7.8952044e-07
2.0014139e-06
3.2199402e-06
4.1000882e-06
4.6102527e-06
4.8537257e-06
4.9291985e-06
4.9200534e-06
4.9202679e-06
4.9672728e-06
5.0575235e-06
5.1936832e-06
5.4000449e-06
5.7433906e-06
5.8736308e-06
6.161167e-06
6.4630581e-06
6.7817595e-06
7.1153949e-06
7.461975e-06
7.8192594e-06
8.1874148e-06
8.5616924e-06
8.9377735e-06
9.3126214e-06
9.6838347e-06
1.0049702e-05
1.040956e-05
1.07644e-05
1.1116849e-05
1.1463966e-05
1.1800469e-05
1.2120552e-05
1.2422114e-05
1.2708236e-05
1.2978449e-05
1.3231706e-05
1.3467437e-05
1.3684877e-05
1.3883291e-05
1.4063195e-05
1.4225393e-05
1.4370778e-05
1.4498947e-05
1.460986e-05
1.4704754e-05
1.4785443e-05
1.485387e-05
1.4912088e-05
1.4962357e-05
1.500648e-05
1.5046453e-05
1.5083806e-05
1.5118081e-05
1.5149269e-05
1.5177594e-05
1.5203274e-05
1.5226742e-05
1.5248479e-05
1.5268679e-05
1.5287319e-05
1.5304492e-05
1.5320416e-05
1.5334634e-05
1.5346836e-05
1.5357166e-05
1.5365819e-05
1.5372865e-05
1.5378613e-05
1.5383239e-05
1.5386542e-05
1.5388447e-05
1.5388963e-05
1.5387986e-05
1.5385724e-05
1.5382491e-05
1.5378294e-05
1.5373164e-05
1.5367059e-05
1.5359793e-05
1.5351487e-05
1.5342352e-05
1.5332484e-05
1.5321927e-05
1.5310565e-05
1.5298386e-05
1.5285469e-05
1.5271901e-05
1.5257799e-05
1.5243121e-05
1.5227666e-05
1.521188e-05
1.5195238e-05
1.5177437e-05
1.5157268e-05
1.5154046e-05
1.6882483e-07
1.6856638e-07
1.6827202e-07
1.6795688e-07
1.7998486e-07
2.3387136e-07
3.7066156e-07
6.199403e-07
9.7979543e-07
1.4139743e-06
1.8590315e-06
2.2551459e-06
2.5711554e-06
2.8049391e-06
2.9700337e-06
3.0862768e-06
3.1760775e-06
3.2764213e-06
3.4091934e-06
3.5801325e-06
3.7897428e-06
4.037911e-06
4.3259301e-06
4.6573052e-06
5.0374538e-06
5.451672e-06
5.9086463e-06
6.4112088e-06
6.962614e-06
7.5669566e-06
8.2301175e-06
8.9619106e-06
9.7491394e-06
1.0441558e-05
1.1159193e-05
1.1897401e-05
1.2644588e-05
1.3390993e-05
1.4133924e-05
1.4867017e-05
1.5587552e-05
1.6292856e-05
1.6970347e-05
1.7614533e-05
1.8230744e-05
1.881731e-05
1.9374557e-05
1.9795073e-05
2.0167956e-05
2.0510439e-05
2.0826694e-05
2.1119745e-05
2.1392414e-05
2.1647875e-05
2.1888736e-05
2.2114922e-05
2.2325227e-05
2.2520845e-05
2.2703778e-05
2.2876001e-05
2.3038874e-05
2.3193408e-05
2.3340234e-05
2.3479709e-05
2.3612203e-05
2.3737949e-05
2.3855872e-05
2.3965833e-05
2.4068536e-05
2.4164938e-05
2.4255683e-05
2.4341064e-05
2.4421571e-05
2.4497501e-05
2.4567996e-05
2.4632919e-05
2.4692712e-05
2.4747773e-05
2.4798786e-05
2.4846218e-05
2.4890163e-05
2.4930342e-05
2.4966489e-05
2.4998675e-05
2.5027506e-05
2.5053425e-05
2.5076694e-05
2.5097191e-05
2.5114571e-05
2.5129023e-05
2.5140915e-05
2.5150558e-05
2.5158146e-05
2.5163363e-05
2.5166099e-05
2.5166856e-05
2.5166009e-05
2.515955e-05
2.5161602e-05
2.5117394e-05
1.6885076e-07
1.6864749e-07
1.684394e-07
1.6822674e-07
1.6818682e-07
1.6896535e-07
1.7200446e-07
1.7977419e-07
1.9582235e-07
2.2501341e-07
2.7252402e-07
3.4288172e-07
4.3898649e-07
5.6141058e-07
7.0818485e-07
8.7497472e-07
1.0557739e-06
1.2452753e-06
1.4385592e-06
1.631722e-06
1.8219041e-06
2.0080527e-06
2.1905299e-06
2.3709823e-06
2.5526662e-06
2.7515833e-06
2.9713484e-06
3.2171266e-06
3.4959422e-06
3.8170789e-06
4.1928578e-06
4.6395389e-06
5.1788647e-06
5.7987552e-06
6.5089943e-06
7.3171656e-06
8.2238333e-06
9.2228129e-06
1.0050047e-05
1.0924466e-05
1.1839997e-05
1.2791008e-05
1.3770333e-05
1.4770401e-05
1.5777362e-05
1.6778599e-05
1.7768245e-05
1.87375e-05
1.9673887e-05
2.0577683e-05
2.1449674e-05
2.2286236e-05
2.3084731e-05
2.3843294e-05
2.4564339e-05
2.5198208e-05
2.5728554e-05
2.622876e-05
2.6703932e-05
2.7157586e-05
2.7591388e-05
2.8006517e-05
2.8404108e-05
2.8785404e-05
2.9151474e-05
2.9502148e-05
2.9834561e-05
3.0149505e-05
3.0448733e-05
3.0733925e-05
3.1006145e-05
3.1265954e-05
3.1514203e-05
3.1751567e-05
3.1976674e-05
3.2189499e-05
3.2390999e-05
3.2581964e-05
3.2763345e-05
3.2935877e-05
3.3099865e-05
3.3254749e-05
3.3400403e-05
3.353727e-05
3.3666266e-05
3.3788091e-05
3.3903195e-05
3.4011294e-05
3.4112052e-05
3.4205971e-05
3.4293722e-05
3.4375816e-05
3.4452492e-05
3.4523312e-05
3.4588195e-05
3.4648321e-05
3.47035e-05
3.4750448e-05
3.4799298e-05
3.4801222e-05
1.6885076e-07
1.6864865e-07
1.6844329e-07
1.6823485e-07
1.6802581e-07
1.6782773e-07
1.6767372e-07
1.6763625e-07
1.678474e-07
1.6852888e-07
1.7001442e-07
1.7277043e-07
1.774061e-07
1.8467798e-07
1.9549657e-07
2.1092256e-07
2.3216254e-07
2.6057619e-07
2.9768538e-07
3.4509217e-07
4.0435744e-07
4.770465e-07
5.6471579e-07
6.6882535e-07
7.9075807e-07
9.3173289e-07
1.0920638e-06
1.2712147e-06
1.46804e-06
1.6811127e-06
1.9092213e-06
2.1522554e-06
2.4112063e-06
2.7049786e-06
3.0419751e-06
3.4342007e-06
3.8969158e-06
4.4488415e-06
5.1206203e-06
5.8940576e-06
6.7771341e-06
7.7762485e-06
8.8970811e-06
9.8758641e-06
1.0795297e-05
1.1789253e-05
1.2840748e-05
1.3945045e-05
1.5095254e-05
1.628134e-05
1.7478813e-05
1.8671534e-05
1.9852441e-05
2.101663e-05
2.2173163e-05
2.3311911e-05
2.4419964e-05
2.548845e-05
2.6510724e-05
2.7490426e-05
2.843267e-05
2.9342686e-05
3.0222627e-05
3.1071163e-05
3.1885728e-05
3.2646395e-05
3.3284084e-05
3.3893684e-05
3.4478731e-05
3.5041126e-05
3.5581918e-05
3.6101959e-05
3.6602575e-05
3.7084662e-05
3.7544898e-05
3.7983467e-05
3.8402329e-05
3.8802938e-05
3.9186563e-05
3.955423e-05
3.990655e-05
4.0242431e-05
4.0561917e-05
4.086594e-05
4.1155737e-05
4.1432298e-05
4.1696299e-05
4.1947237e-05
4.2184906e-05
4.2410211e-05
4.2624124e-05
4.2827372e-05
4.3020213e-05
4.3202107e-05
4.3373189e-05
4.3535269e-05
4.368767e-05
4.3828134e-05
4.3961995e-05
4.4045741e-05
1.6885039e-07
1.6864836e-07
1.6844319e-07
1.6823495e-07
1.6802372e-07
1.6780972e-07
1.6759364e-07
1.6737721e-07
1.6716422e-07
1.6696193e-07
1.6678319e-07
1.6664898e-07
1.6659144e-07
1.6665715e-07
1.6691105e-07
1.6744064e-07
1.6836109e-07
1.6982195e-07
1.7201727e-07
1.751946e-07
1.7965912e-07
1.8579212e-07
1.9407964e-07
2.0514258e-07
2.1980357e-07
2.3914335e-07
2.6452819e-07
2.9768358e-07
3.4080357e-07
3.9665864e-07
4.686817e-07
5.6115327e-07
6.7898822e-07
8.2764547e-07
1.0124453e-06
1.2381814e-06
1.5083597e-06
1.8240696e-06
2.182547e-06
2.5774793e-06
3.027317e-06
3.5422354e-06
4.1405949e-06
4.8351936e-06
5.6786856e-06
6.648213e-06
7.7519849e-06
8.990662e-06
1.0304201e-05
1.125999e-05
1.2309123e-05
1.3434507e-05
1.4627496e-05
1.5879835e-05
1.7189995e-05
1.8535023e-05
1.9894536e-05
2.1253695e-05
2.2601144e-05
2.396399e-05
2.5324266e-05
2.6671243e-05
2.7992191e-05
2.927862e-05
3.0534933e-05
3.17629e-05
3.295387e-05
3.4104386e-05
3.520842e-05
3.6268485e-05
3.729095e-05
3.8282116e-05
3.9240125e-05
4.0165522e-05
4.0961296e-05
4.1697532e-05
4.2405834e-05
4.3088001e-05
4.3745253e-05
4.4378782e-05
4.4989516e-05
4.5574432e-05
4.613378e-05
4.6669482e-05
4.7183285e-05
4.7676494e-05
4.8150022e-05
4.8602866e-05
4.9034916e-05
4.9447552e-05
4.9842082e-05
5.0219498e-05
5.058005e-05
5.0923048e-05
5.1248993e-05
5.1560222e-05
5.1855706e-05
5.2134285e-05
5.2396756e-05
5.2603539e-05
1.6885006e-07
1.6864799e-07
1.6844281e-07
1.6823456e-07
1.6802332e-07
1.6780914e-07
1.6759203e-07
1.6737207e-07
1.6714934e-07
1.6692406e-07
1.6669665e-07
1.6646782e-07
1.6623892e-07
1.6601204e-07
1.6579043e-07
1.6557892e-07
1.6538446e-07
1.6521686e-07
1.6508967e-07
1.6502135e-07
1.6503615e-07
1.6516573e-07
1.6545167e-07
1.6594858e-07
1.6672979e-07
1.6789465e-07
1.6957576e-07
1.7195207e-07
1.7526944e-07
1.7987062e-07
1.8623855e-07
1.9507674e-07
2.0741845e-07
2.2476514e-07
2.4929003e-07
2.8417702e-07
3.3409549e-07
4.0577185e-07
5.0864364e-07
6.540913e-07
8.5480719e-07
1.1226676e-06
1.4656034e-06
1.8802885e-06
2.3510376e-06
2.8755932e-06
3.4692919e-06
4.1468491e-06
4.942469e-06
5.8961312e-06
6.9899926e-06
8.2365746e-06
9.636873e-06
1.1178794e-05
1.2324369e-05
1.344671e-05
1.4657921e-05
1.5950499e-05
1.731599e-05
1.8758681e-05
2.0247867e-05
2.1757139e-05
2.327063e-05
2.47938e-05
2.6356229e-05
2.7930161e-05
2.9503981e-05
3.1052905e-05
3.2579063e-05
3.4081772e-05
3.556061e-05
3.701045e-05
3.8419867e-05
3.9789373e-05
4.1112943e-05
4.2390722e-05
4.3620119e-05
4.4801447e-05
4.5940124e-05
4.7041421e-05
4.8109318e-05
4.9041669e-05
4.9902466e-05
5.0731802e-05
5.1531628e-05
5.2303242e-05
5.3047685e-05
5.3762275e-05
5.4446943e-05
5.5104024e-05
5.5735325e-05
5.6342119e-05
5.6924484e-05
5.7481258e-05
5.8013505e-05
5.8524015e-05
5.9011637e-05
5.9476121e-05
5.9914718e-05
6.0289586e-05
1.6884982e-07
1.686477e-07
1.684425e-07
1.6823427e-07
1.6802305e-07
1.6780889e-07
1.6759179e-07
1.6737177e-07
1.6714884e-07
1.6692303e-07
1.6669436e-07
1.6646287e-07
1.6622863e-07
1.6599174e-07
1.6575234e-07
1.6551068e-07
1.6526711e-07
1.6502217e-07
1.6477663e-07
1.6453162e-07
1.6428869e-07
1.6404996e-07
1.6381834e-07
1.6359773e-07
1.6339346e-07
1.6321281e-07
1.6306561e-07
1.6296524e-07
1.6293007e-07
1.6298579e-07
1.631686e-07
1.6353106e-07
1.6415097e-07
1.6514354e-07
1.6668094e-07
1.6902644e-07
1.7259172e-07
1.7803094e-07
1.8642037e-07
1.9951692e-07
2.2012667e-07
2.5274888e-07
3.0453389e-07
3.8635148e-07
5.1356001e-07
7.0511059e-07
9.8109206e-07
1.3565894e-06
1.8329804e-06
2.3845341e-06
3.0011297e-06
3.69589e-06
4.4871072e-06
5.4552311e-06
6.5845843e-06
7.8711051e-06
9.3279039e-06
1.0952202e-05
1.2718935e-05
1.3969382e-05
1.5211394e-05
1.654791e-05
1.7970762e-05
1.9480069e-05
2.1073594e-05
2.2712707e-05
2.4377853e-05
2.6051767e-05
2.7804799e-05
2.9590595e-05
3.1386399e-05
3.3164019e-05
3.4929079e-05
3.6684048e-05
3.8433057e-05
4.0160968e-05
4.1847503e-05
4.3490669e-05
4.509595e-05
4.6661942e-05
4.8183596e-05
4.9646866e-05
5.105244e-05
5.2405788e-05
5.3708781e-05
5.4964698e-05
5.6181882e-05
5.7263033e-05
5.8255222e-05
5.9212092e-05
6.0135675e-05
6.1027264e-05
6.1886159e-05
6.2709774e-05
6.3500546e-05
6.4261737e-05
6.499238e-05
6.5692487e-05
6.6357153e-05
6.6947899e-05
1.6884965e-07
1.6864749e-07
1.6844227e-07
1.6823404e-07
1.6802283e-07
1.6780867e-07
1.6759157e-07
1.6737155e-07
1.6714863e-07
1.6692281e-07
1.6669413e-07
1.6646259e-07
1.6622822e-07
1.6599105e-07
1.657511e-07
1.655084e-07
1.6526299e-07
1.6501492e-07
1.6476425e-07
1.6451106e-07
1.6425547e-07
1.6399763e-07
1.6373772e-07
1.6347603e-07
1.6321292e-07
1.629489e-07
1.6268464e-07
1.624211e-07
1.6215955e-07
1.619018e-07
1.6165036e-07
1.6140888e-07
1.6118266e-07
1.6097952e-07
1.6081104e-07
1.6069475e-07
1.606578e-07
1.6074295e-07
1.6102036e-07
1.6160674e-07
1.6269437e-07
1.6460706e-07
1.6789985e-07
1.7353512e-07
1.8320202e-07
1.9983294e-07
2.2844725e-07
2.7751847e-07
3.6086405e-07
4.9875965e-07
7.1679941e-07
1.0416544e-06
1.4904527e-06
2.060763e-06
2.7109593e-06
3.4481008e-06
4.2809894e-06
5.275837e-06
6.4969259e-06
7.8845402e-06
9.4504544e-06
1.1198978e-05
1.3109627e-05
1.4941594e-05
1.6246834e-05
1.7652072e-05
1.9153495e-05
2.0749827e-05
2.2456058e-05
2.422996e-05
2.6043532e-05
2.7873284e-05
2.9800763e-05
3.1785724e-05
3.3793483e-05
3.5797644e-05
3.7808211e-05
3.9822797e-05
4.1828929e-05
4.3806627e-05
4.5744848e-05
4.7656436e-05
4.9537824e-05
5.1371338e-05
5.3149222e-05
5.4876369e-05
5.6557784e-05
5.8175343e-05
5.9723231e-05
6.1211606e-05
6.2646989e-05
6.403324e-05
6.5328948e-05
6.6469472e-05
6.756953e-05
6.8632312e-05
6.9657264e-05
7.0643104e-05
7.1584315e-05
7.2440847e-05
1.6884953e-07
1.6864733e-07
1.684421e-07
1.6823387e-07
1.6802266e-07
1.678085e-07
1.675914e-07
1.6737139e-07
1.6714847e-07
1.6692266e-07
1.6669398e-07
1.6646244e-07
1.6622807e-07
1.6599089e-07
1.6575092e-07
1.6550818e-07
1.6526271e-07
1.6501453e-07
1.6476366e-07
1.6451015e-07
1.6425402e-07
1.6399531e-07
1.6373407e-07
1.6347033e-07
1.6320415e-07
1.6293559e-07
1.6266472e-07
1.6239164e-07
1.6211647e-07
1.6183934e-07
1.6156047e-07
1.6128012e-07
1.6099867e-07
1.6071667e-07
1.604349e-07
1.6015453e-07
1.5987733e-07
1.5960601e-07
1.5934495e-07
1.5910136e-07
1.5888702e-07
1.5872171e-07
1.5863932e-07
1.5869913e-07
1.5900722e-07
1.5975429e-07
1.6128297e-07
1.6421779e-07
1.6971057e-07
1.798882e-07
1.9861692e-07
2.3281202e-07
2.9452176e-07
4.0401022e-07
5.8979089e-07
8.8605e-07
1.3217815e-06
1.904675e-06
2.6009282e-06
3.4047373e-06
4.3140794e-06
5.4037184e-06
6.7366661e-06
8.2944314e-06
1.0036335e-05
1.196964e-05
1.4070175e-05
1.6297017e-05
1.7757603e-05
1.9267128e-05
2.0878439e-05
2.2593893e-05
2.4430775e-05
2.6346544e-05
2.8310083e-05
3.0315315e-05
3.2449608e-05
3.4652308e-05
3.6875343e-05
3.9106387e-05
4.1357477e-05
4.3622748e-05
4.5883455e-05
4.811644e-05
5.0317485e-05
5.248829e-05
5.461489e-05
5.66963e-05
5.8731868e-05
6.071364e-05
6.263421e-05
6.4495141e-05
6.6296185e-05
6.8018811e-05
6.9671574e-05
7.1259814e-05
7.2806311e-05
7.4206547e-05
7.5472477e-05
7.6647571e-05
1.6884946e-07
1.6864723e-07
1.6844199e-07
1.6823375e-07
1.6802254e-07
1.6780838e-07
1.6759128e-07
1.6737127e-07
1.6714835e-07
1.6692254e-07
1.6669385e-07
1.6646232e-07
1.6622795e-07
1.6599077e-07
1.657508e-07
1.6550806e-07
1.6526259e-07
1.6501441e-07
1.6476354e-07
1.6451002e-07
1.6425387e-07
1.6399513e-07
1.6373383e-07
1.6347e-07
1.6320368e-07
1.629349e-07
1.6266371e-07
1.6239013e-07
1.6211423e-07
1.6183603e-07
1.6155559e-07
1.6127296e-07
1.609882e-07
1.6070139e-07
1.6041262e-07
1.60122e-07
1.5982968e-07
1.5953586e-07
1.5924086e-07
1.5894514e-07
1.5864945e-07
1.5835501e-07
1.5806384e-07
1.5777944e-07
1.5750808e-07
1.5726099e-07
1.5705858e-07
1.5693842e-07
1.5697082e-07
1.5728947e-07
1.5814851e-07
1.6002926e-07
1.6385085e-07
1.7140234e-07
1.8609961e-07
2.1436194e-07
2.6796361e-07
3.6769239e-07
5.461764e-07
8.4529042e-07
1.3028563e-06
1.9313982e-06
2.6962002e-06
3.5947063e-06
4.6178902e-06
5.878191e-06
7.3962493e-06
9.1863637e-06
1.1171726e-05
1.3348522e-05
1.5686091e-05
1.8144691e-05
1.9768018e-05
2.1414101e-05
2.3166778e-05
2.5034963e-05
2.7031337e-05
2.9110849e-05
3.1237231e-05
3.3469765e-05
3.5838914e-05
3.8261537e-05
4.0705102e-05
4.3186669e-05
4.5703682e-05
4.8228118e-05
5.0728684e-05
5.3208254e-05
5.5673427e-05
5.8102247e-05
6.0476307e-05
6.2797337e-05
6.5068941e-05
6.72893e-05
6.9444998e-05
7.1529437e-05
7.3561686e-05
7.5517919e-05
7.7320703e-05
7.9468481e-05
1.6884941e-07
1.6864716e-07
1.6844191e-07
1.6823367e-07
1.6802246e-07
1.678083e-07
1.675912e-07
1.6737119e-07
1.6714827e-07
1.6692245e-07
1.6669377e-07
1.6646223e-07
1.6622786e-07
1.6599068e-07
1.6575071e-07
1.6550798e-07
1.652625e-07
1.6501431e-07
1.6476344e-07
1.6450992e-07
1.6425377e-07
1.6399502e-07
1.6373372e-07
1.6346989e-07
1.6320356e-07
1.6293477e-07
1.6266356e-07
1.6238996e-07
1.6211402e-07
1.6183577e-07
1.6155525e-07
1.612725e-07
1.6098757e-07
1.6070049e-07
1.6041132e-07
1.6012011e-07
1.598269e-07
1.5953174e-07
1.5923471e-07
1.5893586e-07
1.5863528e-07
1.583331e-07
1.5802946e-07
1.5772461e-07
1.5741895e-07
1.5711315e-07
1.5680842e-07
1.5650694e-07
1.5621281e-07
1.5593381e-07
1.55685e-07
1.5549535e-07
1.5542117e-07
1.5557415e-07
1.5617664e-07
1.5766908e-07
1.6092601e-07
1.6770759e-07
1.8155426e-07
2.094382e-07
2.6467344e-07
3.7161333e-07
5.6950976e-07
9.1049272e-07
1.4381703e-06
2.1587555e-06
3.0368045e-06
4.0709571e-06
5.2925225e-06
6.7990628e-06
8.5915367e-06
1.0684654e-05
1.2979042e-05
1.5446329e-05
1.8057173e-05
2.0593037e-05
2.2317316e-05
2.4130554e-05
2.6056246e-05
2.8120454e-05
3.0305191e-05
3.2563193e-05
3.4900534e-05
3.7413986e-05
4.0035355e-05
4.2689108e-05
4.5391074e-05
4.8151437e-05
5.093834e-05
5.3716941e-05
5.6480075e-05
5.92257e-05
6.1934123e-05
6.4600296e-05
6.7222076e-05
6.9782147e-05
7.228336e-05
7.473715e-05
7.7012236e-05
8.0060294e-05
1.6884939e-07
1.6864713e-07
1.6844187e-07
1.6823362e-07
1.6802241e-07
1.6780825e-07
1.6759116e-07
1.6737114e-07
1.6714822e-07
1.6692241e-07
1.6669372e-07
1.6646218e-07
1.6622781e-07
1.6599063e-07
1.6575065e-07
1.6550791e-07
1.6526244e-07
1.6501425e-07
1.6476338e-07
1.6450985e-07
1.6425369e-07
1.6399495e-07
1.6373364e-07
1.634698e-07
1.6320347e-07
1.6293468e-07
1.6266347e-07
1.6238987e-07
1.6211393e-07
1.6183567e-07
1.6155515e-07
1.6127239e-07
1.6098745e-07
1.6070036e-07
1.6041118e-07
1.6011993e-07
1.5982667e-07
1.5953145e-07
1.592343e-07
1.5893527e-07
1.5863442e-07
1.5833179e-07
1.5802744e-07
1.5772142e-07
1.5741379e-07
1.5710464e-07
1.5679409e-07
1.5648228e-07
1.5616949e-07
1.558562e-07
1.5554329e-07
1.5523245e-07
1.5492696e-07
1.5463339e-07
1.5436497e-07
1.5414846e-07
1.5403804e-07
1.5414508e-07
1.5470112e-07
1.561863e-07
1.5959341e-07
1.669997e-07
1.8274258e-07
2.1574988e-07
2.8361466e-07
4.1914831e-07
6.7418672e-07
1.1130903e-06
1.7772899e-06
2.6392126e-06
3.6851149e-06
4.9205285e-06
6.4625217e-06
8.3070085e-06
1.0476389e-05
1.2943994e-05
1.5583585e-05
1.8372525e-05
2.128458e-05
2.355571e-05
2.5460926e-05
2.7471791e-05
2.9616959e-05
3.1910536e-05
3.4303249e-05
3.6764982e-05
3.9430875e-05
4.225163e-05
4.5117396e-05
4.8051267e-05
5.1066527e-05
5.4116994e-05
5.7164185e-05
6.0208165e-05
6.3245502e-05
6.6243183e-05
6.919518e-05
7.2118515e-05
7.4840407e-05
7.8509665e-05
1.6884939e-07
1.6864712e-07
1.6844186e-07
1.6823361e-07
1.680224e-07
1.6780824e-07
1.6759114e-07
1.6737112e-07
1.671482e-07
1.6692239e-07
1.666937e-07
1.6646216e-07
1.6622778e-07
1.659906e-07
1.6575062e-07
1.6550788e-07
1.652624e-07
1.6501421e-07
1.6476333e-07
1.645098e-07
1.6425364e-07
1.6399489e-07
1.6373358e-07
1.6346974e-07
1.6320341e-07
1.6293462e-07
1.626634e-07
1.623898e-07
1.6211385e-07
1.6183559e-07
1.6155507e-07
1.6127231e-07
1.6098737e-07
1.6070028e-07
1.6041109e-07
1.6011984e-07
1.5982658e-07
1.5953135e-07
1.592342e-07
1.5893516e-07
1.586343e-07
1.5833165e-07
1.5802726e-07
1.5772117e-07
1.5741344e-07
1.5710411e-07
1.5679323e-07
1.5648086e-07
1.5616705e-07
1.5585187e-07
1.5553541e-07
1.552178e-07
1.5489927e-07
1.5458023e-07
1.5426145e-07
1.5394452e-07
1.5363263e-07
1.5333241e-07
1.5305785e-07
1.5283849e-07
1.5273676e-07
1.5288623e-07
1.5357593e-07
1.5543165e-07
1.5980367e-07
1.6964689e-07
1.913557e-07
2.3853868e-07
3.3859119e-07
5.4051015e-07
9.1573049e-07
1.5331226e-06
2.3967753e-06
3.4754886e-06
4.7530906e-06
6.3653169e-06
8.3158747e-06
1.0616374e-05
1.3257572e-05
1.6118648e-05
1.9119908e-05
2.2247672e-05
2.5122886e-05
2.7170192e-05
2.9283658e-05
3.1531155e-05
3.3948149e-05
3.6482086e-05
3.909155e-05
4.1934475e-05
4.4963704e-05
4.8054643e-05
5.1234172e-05
5.4509934e-05
5.7830321e-05
6.1157934e-05
6.4494515e-05
6.7837328e-05
7.0986046e-05
7.5134912e-05
1.6884941e-07
1.6864713e-07
1.6844187e-07
1.6823362e-07
1.6802241e-07
1.6780825e-07
1.6759115e-07
1.6737113e-07
1.6714821e-07
1.6692239e-07
1.666937e-07
1.6646216e-07
1.6622778e-07
1.6599059e-07
1.6575061e-07
1.6550787e-07
1.6526239e-07
1.6501419e-07
1.6476331e-07
1.6450978e-07
1.6425361e-07
1.6399486e-07
1.6373355e-07
1.634697e-07
1.6320336e-07
1.6293457e-07
1.6266335e-07
1.6238974e-07
1.6211379e-07
1.6183553e-07
1.61555e-07
1.6127224e-07
1.609873e-07
1.6070021e-07
1.6041102e-07
1.6011977e-07
1.5982651e-07
1.5953128e-07
1.5923412e-07
1.5893509e-07
1.5863422e-07
1.5833157e-07
1.5802718e-07
1.5772109e-07
1.5741336e-07
1.5710402e-07
1.5679313e-07
1.5648072e-07
1.5616686e-07
1.5585158e-07
1.5553493e-07
1.5521696e-07
1.5489773e-07
1.545773e-07
1.5425575e-07
1.5393322e-07
1.5360991e-07
1.5328624e-07
1.5296305e-07
1.526421e-07
1.5232712e-07
1.5202619e-07
1.5175708e-07
1.5155895e-07
1.5151817e-07
1.5182856e-07
1.5292776e-07
1.558044e-07
1.6269891e-07
1.7868471e-07
2.1508826e-07
2.9631847e-07
4.7039918e-07
8.1426058e-07
1.4131639e-06
2.2999882e-06
3.4370687e-06
4.7980306e-06
6.5259514e-06
8.6355326e-06
1.1125185e-05
1.3978375e-05
1.7097821e-05
2.0345972e-05
2.371385e-05
2.7057278e-05
2.9263859e-05
3.1497463e-05
3.3872519e-05
3.6431363e-05
3.9116543e-05
4.19091e-05
4.4963723e-05
4.8212953e-05
5.1546601e-05
5.4994829e-05
5.855157e-05
6.2167943e-05
6.5665031e-05
7.0151467e-05
1.6884945e-07
1.6864716e-07
1.6844189e-07
1.6823365e-07
1.6802244e-07
1.6780828e-07
1.6759118e-07
1.6737116e-07
1.6714824e-07
1.6692242e-07
1.6669373e-07
1.6646218e-07
1.662278e-07
1.6599061e-07
1.6575063e-07
1.6550788e-07
1.6526239e-07
1.6501419e-07
1.6476331e-07
1.6450977e-07
1.6425361e-07
1.6399485e-07
1.6373353e-07
1.6346968e-07
1.6320334e-07
1.6293454e-07
1.6266331e-07
1.6238971e-07
1.6211375e-07
1.6183549e-07
1.6155495e-07
1.6127219e-07
1.6098725e-07
1.6070015e-07
1.6041096e-07
1.6011971e-07
1.5982645e-07
1.5953122e-07
1.5923406e-07
1.5893503e-07
1.5863416e-07
1.5833151e-07
1.5802711e-07
1.5772103e-07
1.5741329e-07
1.5710395e-07
1.5679306e-07
1.5648066e-07
1.5616679e-07
1.558515e-07
1.5553485e-07
1.5521686e-07
1.548976e-07
1.5457709e-07
1.542554e-07
1.5393257e-07
1.5360864e-07
1.5328369e-07
1.529578e-07
1.526311e-07
1.5230385e-07
1.5197654e-07
1.5165025e-07
1.5132733e-07
1.5101303e-07
1.5071927e-07
1.5047346e-07
1.5033869e-07
1.5046125e-07
1.5118435e-07
1.5331552e-07
1.5875709e-07
1.7202555e-07
2.0365811e-07
2.7737402e-07
4.4308214e-07
7.859655e-07
1.4064046e-06
2.3485252e-06
3.578391e-06
5.0698615e-06
6.9756882e-06
9.3058005e-06
1.204897e-05
1.5168826e-05
1.8577157e-05
2.2099192e-05
2.5730434e-05
2.9373884e-05
3.1742811e-05
3.4118551e-05
3.6651902e-05
3.9377212e-05
4.2229487e-05
4.5250821e-05
4.8554584e-05
5.2041608e-05
5.5657418e-05
5.932471e-05
6.3880133e-05
1.6884949e-07
1.6864721e-07
1.6844194e-07
1.6823369e-07
1.6802248e-07
1.6780832e-07
1.6759123e-07
1.6737121e-07
1.6714828e-07
1.6692246e-07
1.6669377e-07
1.6646222e-07
1.6622784e-07
1.6599064e-07
1.6575066e-07
1.6550791e-07
1.6526242e-07
1.6501421e-07
1.6476333e-07
1.6450978e-07
1.6425361e-07
1.6399485e-07
1.6373353e-07
1.6346967e-07
1.6320333e-07
1.6293452e-07
1.626633e-07
1.6238968e-07
1.6211372e-07
1.6183546e-07
1.6155492e-07
1.6127216e-07
1.6098721e-07
1.6070011e-07
1.6041092e-07
1.6011967e-07
1.598264e-07
1.5953117e-07
1.5923401e-07
1.5893497e-07
1.5863411e-07
1.5833145e-07
1.5802706e-07
1.5772097e-07
1.5741323e-07
1.571039e-07
1.56793e-07
1.564806e-07
1.5616673e-07
1.5585144e-07
1.5553479e-07
1.552168e-07
1.5489753e-07
1.5457703e-07
1.5425533e-07
1.5393248e-07
1.5360852e-07
1.5328351e-07
1.5295747e-07
1.5263046e-07
1.5230254e-07
1.5197376e-07
1.5164423e-07
1.5131412e-07
1.5098376e-07
1.5065388e-07
1.5032615e-07
1.5000442e-07
1.4969771e-07
1.4942757e-07
1.4924573e-07
1.4927653e-07
1.4982382e-07
1.5163318e-07
1.5652578e-07
1.6901396e-07
2.000779e-07
2.7544019e-07
4.5121283e-07
8.2619804e-07
1.5159496e-06
2.557749e-06
3.923868e-06
5.6105445e-06
7.7589739e-06
1.0384569e-05
1.3450281e-05
1.6890465e-05
2.0610969e-05
2.442879e-05
2.8346267e-05
3.2095986e-05
3.4628401e-05
3.7172141e-05
3.9897376e-05
4.2809511e-05
4.5848722e-05
4.915738e-05
5.2736631e-05
5.6920555e-05
1.6884955e-07
1.6864726e-07
1.68442e-07
1.6823375e-07
1.6802254e-07
1.6780839e-07
1.6759129e-07
1.6737127e-07
1.6714834e-07
1.6692252e-07
1.6669383e-07
1.6646228e-07
1.6622789e-07
1.6599069e-07
1.6575071e-07
1.6550795e-07
1.6526246e-07
1.6501425e-07
1.6476336e-07
1.6450981e-07
1.6425364e-07
1.6399487e-07
1.6373354e-07
1.6346968e-07
1.6320333e-07
1.6293452e-07
1.6266329e-07
1.6238967e-07
1.6211371e-07
1.6183544e-07
1.615549e-07
1.6127213e-07
1.6098718e-07
1.6070008e-07
1.6041089e-07
1.6011963e-07
1.5982636e-07
1.5953113e-07
1.5923397e-07
1.5893493e-07
1.5863406e-07
1.5833141e-07
1.5802701e-07
1.5772092e-07
1.5741319e-07
1.5710385e-07
1.5679295e-07
1.5648055e-07
1.5616668e-07
1.5585139e-07
1.5553473e-07
1.5521675e-07
1.5489748e-07
1.5457698e-07
1.5425527e-07
1.5393242e-07
1.5360847e-07
1.5328345e-07
1.529574e-07
1.5263038e-07
1.5230242e-07
1.5197357e-07
1.5164387e-07
1.5131336e-07
1.509821e-07
1.5065017e-07
1.503177e-07
1.4998494e-07
1.4965246e-07
1.4932158e-07
1.4899547e-07
1.4868185e-07
1.4839985e-07
1.4819744e-07
1.4819436e-07
1.4869497e-07
1.5047701e-07
1.5551718e-07
1.6890131e-07
2.0349798e-07
2.9048318e-07
4.9875302e-07
9.4822136e-07
1.7666639e-06
2.972583e-06
4.5236449e-06
6.4863255e-06
8.9601914e-06
1.1957897e-05
1.5409822e-05
1.9214018e-05
2.3261054e-05
2.7390891e-05
3.1615649e-05
3.5260646e-05
3.7947756e-05
4.0693568e-05
4.3632871e-05
4.6821927e-05
5.0147703e-05
1.6884961e-07
1.6864733e-07
1.6844206e-07
1.6823382e-07
1.6802262e-07
1.6780846e-07
1.6759136e-07
1.6737135e-07
1.6714842e-07
1.669226e-07
1.666939e-07
1.6646235e-07
1.6622796e-07
1.6599076e-07
1.6575077e-07
1.6550801e-07
1.6526251e-07
1.650143e-07
1.647634e-07
1.6450985e-07
1.6425367e-07
1.639949e-07
1.6373357e-07
1.634697e-07
1.6320335e-07
1.6293453e-07
1.626633e-07
1.6238968e-07
1.6211371e-07
1.6183543e-07
1.6155489e-07
1.6127212e-07
1.6098716e-07
1.6070007e-07
1.6041087e-07
1.6011961e-07
1.5982634e-07
1.595311e-07
1.5923394e-07
1.589349e-07
1.5863403e-07
1.5833137e-07
1.5802698e-07
1.5772089e-07
1.5741315e-07
1.5710381e-07
1.5679291e-07
1.5648051e-07
1.5616664e-07
1.5585135e-07
1.5553469e-07
1.552167e-07
1.5489743e-07
1.5457693e-07
1.5425523e-07
1.5393238e-07
1.5360842e-07
1.532834e-07
1.5295735e-07
1.5263033e-07
1.5230237e-07
1.5197351e-07
1.516438e-07
1.5131327e-07
1.5098196e-07
1.5064992e-07
1.5031719e-07
1.4998382e-07
1.4964986e-07
1.4931545e-07
1.4898078e-07
1.4864635e-07
1.4831334e-07
1.4798471e-07
1.4766793e-07
1.4738232e-07
1.4717821e-07
1.4718656e-07
1.4775335e-07
1.4979845e-07
1.5575473e-07
1.721127e-07
2.1587183e-07
3.2924872e-07
6.0415471e-07
1.1886677e-06
2.2037951e-06
3.6343579e-06
5.4460296e-06
7.7882793e-06
1.0681337e-05
1.4125838e-05
1.8007239e-05
2.2207712e-05
2.6591855e-05
3.1049215e-05
3.5607608e-05
3.8897136e-05
4.1885129e-05
4.4487324e-05
1.6884968e-07
1.686474e-07
1.6844214e-07
1.682339e-07
1.680227e-07
1.6780854e-07
1.6759145e-07
1.6737143e-07
1.671485e-07
1.6692268e-07
1.6669398e-07
1.6646243e-07
1.6622804e-07
1.6599083e-07
1.6575084e-07
1.6550808e-07
1.6526258e-07
1.6501436e-07
1.6476346e-07
1.645099e-07
1.6425372e-07
1.6399494e-07
1.637336e-07
1.6346974e-07
1.6320338e-07
1.6293456e-07
1.6266332e-07
1.6238969e-07
1.6211372e-07
1.6183544e-07
1.6155489e-07
1.6127212e-07
1.6098716e-07
1.6070006e-07
1.6041085e-07
1.601196e-07
1.5982632e-07
1.5953108e-07
1.5923392e-07
1.5893488e-07
1.5863401e-07
1.5833135e-07
1.5802695e-07
1.5772086e-07
1.5741312e-07
1.5710378e-07
1.5679288e-07
1.5648047e-07
1.561666e-07
1.5585131e-07
1.5553465e-07
1.5521666e-07
1.5489739e-07
1.5457689e-07
1.5425519e-07
1.5393233e-07
1.5360838e-07
1.5328335e-07
1.5295731e-07
1.5263029e-07
1.5230232e-07
1.5197347e-07
1.5164375e-07
1.5131322e-07
1.5098191e-07
1.5064987e-07
1.5031712e-07
1.4998371e-07
1.4964968e-07
1.4931507e-07
1.4897992e-07
1.4864429e-07
1.4830829e-07
1.4797212e-07
1.4763625e-07
1.4730187e-07
1.4697213e-07
1.4665526e-07
1.463734e-07
1.4618663e-07
1.4625767e-07
1.4703387e-07
1.4975238e-07
1.578215e-07
1.8063739e-07
2.4344273e-07
4.0922589e-07
8.0702252e-07
1.611446e-06
2.8943952e-06
4.6080969e-06
6.8176717e-06
9.6264193e-06
1.3039322e-05
1.6995706e-05
2.1336901e-05
2.5961482e-05
3.0676476e-05
3.5565732e-05
3.9582686e-05
1.6884976e-07
1.6864748e-07
1.6844222e-07
1.6823399e-07
1.6802279e-07
1.6780864e-07
1.6759154e-07
1.6737153e-07
1.671486e-07
1.6692277e-07
1.6669408e-07
1.6646252e-07
1.6622813e-07
1.6599092e-07
1.6575092e-07
1.6550816e-07
1.6526265e-07
1.6501443e-07
1.6476353e-07
1.6450996e-07
1.6425378e-07
1.63995e-07
1.6373365e-07
1.6346978e-07
1.6320342e-07
1.6293459e-07
1.6266335e-07
1.6238972e-07
1.6211374e-07
1.6183546e-07
1.6155491e-07
1.6127213e-07
1.6098716e-07
1.6070006e-07
1.6041085e-07
1.6011959e-07
1.5982632e-07
1.5953107e-07
1.5923391e-07
1.5893487e-07
1.5863399e-07
1.5833133e-07
1.5802693e-07
1.5772084e-07
1.5741309e-07
1.5710375e-07
1.5679285e-07
1.5648044e-07
1.5616657e-07
1.5585128e-07
1.5553462e-07
1.5521663e-07
1.5489736e-07
1.5457685e-07
1.5425515e-07
1.539323e-07
1.5360834e-07
1.5328331e-07
1.5295727e-07
1.5263024e-07
1.5230228e-07
1.5197342e-07
1.5164371e-07
1.5131318e-07
1.5098187e-07
1.5064982e-07
1.5031707e-07
1.4998366e-07
1.4964963e-07
1.49315e-07
1.4897983e-07
1.4864414e-07
1.4830797e-07
1.4797136e-07
1.4763439e-07
1.4729713e-07
1.4695981e-07
1.4662296e-07
1.4628794e-07
1.4595852e-07
1.4564505e-07
1.4537644e-07
1.4523444e-07
1.4544985e-07
1.4668242e-07
1.5082415e-07
1.6329979e-07
1.9947967e-07
3.0115894e-07
5.690351e-07
1.1818315e-06
2.303935e-06
3.9319474e-06
6.0377753e-06
8.7798864e-06
1.2168638e-05
1.6194119e-05
2.0677643e-05
2.5592186e-05
3.0575468e-05
1.6884984e-07
1.6864757e-07
1.6844232e-07
1.6823408e-07
1.6802289e-07
1.6780874e-07
1.6759165e-07
1.6737163e-07
1.671487e-07
1.6692288e-07
1.6669418e-07