/*--------------------------------*- C++ -*----------------------------------*\
  =========                 |
  \\      /  F ield         | OpenFOAM: The Open Source CFD Toolbox
   \\    /   O peration     | Website:  https://openfoam.org
    \\  /    A nd           | Version:  12
     \\/     M anipulation  |
\*---------------------------------------------------------------------------*/
FoamFile
{
    format      ascii;
    class       volVectorField;
    location    "500";
    object      U;
}
// * * * * * * * * * * * * * * * * * * * * * * * * * * * * * * * * * * * * * //

dimensions      [0 1 -1 0 0 0 0];

internalField   nonuniform List<vector> 
7480
(
(0.98222419 0.00075647734 0)
(0.96970046 0.0014019472 0)
(0.95646758 0.0017615324 0)
(0.94236232 0.002080545 0)
(0.92839094 0.0024837996 0)
(0.9149152 0.0027340956 0)
(0.90195837 0.0027634224 0)
(0.88950809 0.0026984008 0)
(0.87747153 0.0025894884 0)
(0.8657537 0.0024385338 0)
(0.85415371 0.0022631595 0)
(0.84258317 0.0020986081 0)
(0.83100967 0.0019453134 0)
(0.81943798 0.0018013244 0)
(0.80789153 0.0016652931 0)
(0.79641251 0.0015349401 0)
(0.78507396 0.0014032627 0)
(0.77402622 0.0012727024 0)
(0.76314988 0.0011559654 0)
(0.75261939 0.0010454164 0)
(0.74249973 0.00093930387 0)
(0.73284595 0.00083782118 0)
(0.72371416 0.00074151805 0)
(0.71515255 0.00065127388 0)
(0.70720391 0.00056637328 0)
(0.69990805 0.00048697294 0)
(0.6932768 0.00041473063 0)
(0.68729586 0.00034946402 0)
(0.6819385 0.00029111257 0)
(0.67716854 0.00024061691 0)
(0.67293915 0.00019783991 0)
(0.66920023 0.00016160561 0)
(0.66591238 0.00013081869 0)
(0.66303252 0.00010539931 0)
(0.6605039 8.4508758e-05 0)
(0.65826419 6.8162412e-05 0)
(0.65625118 5.6667859e-05 0)
(0.65440775 4.9161669e-05 0)
(0.65269772 4.3670523e-05 0)
(0.65109424 4.0236229e-05 0)
(0.64956197 3.9298489e-05 0)
(0.64806444 4.0053903e-05 0)
(0.64657404 4.2014693e-05 0)
(0.64507128 4.4655942e-05 0)
(0.6435467 4.7403124e-05 0)
(0.64199349 5.0394971e-05 0)
(0.64040149 5.4153176e-05 0)
(0.63874887 5.8538584e-05 0)
(0.63701942 6.2815244e-05 0)
(0.63521246 6.6452401e-05 0)
(0.63333495 6.9560998e-05 0)
(0.63139042 7.2250446e-05 0)
(0.62938181 7.4299627e-05 0)
(0.62732138 7.5308343e-05 0)
(0.62522985 7.5275173e-05 0)
(0.62312274 7.467465e-05 0)
(0.62100474 7.3748456e-05 0)
(0.61887701 7.2540139e-05 0)
(0.61674638 7.098727e-05 0)
(0.61462077 6.929847e-05 0)
(0.61250081 6.7687381e-05 0)
(0.61038744 6.5909528e-05 0)
(0.60828867 6.3860525e-05 0)
(0.60621216 6.1729651e-05 0)
(0.60415754 5.9706254e-05 0)
(0.60212521 5.757982e-05 0)
(0.60011979 5.5408287e-05 0)
(0.59813901 5.3487099e-05 0)
(0.59617606 5.1736085e-05 0)
(0.59423031 4.9974928e-05 0)
(0.59230501 4.8252114e-05 0)
(0.59039783 4.669061e-05 0)
(0.58850878 4.5037281e-05 0)
(0.58664432 4.3330393e-05 0)
(0.58480255 4.1832841e-05 0)
(0.58297871 4.0359937e-05 0)
(0.58117496 3.888793e-05 0)
(0.57938884 3.760997e-05 0)
(0.57761699 3.6334858e-05 0)
(0.5758638 3.5004341e-05 0)
(0.57412976 3.379677e-05 0)
(0.57241287 3.258764e-05 0)
(0.57071546 3.1382827e-05 0)
(0.56903465 3.0330143e-05 0)
(0.56736731 2.9286581e-05 0)
(0.56571569 2.8247394e-05 0)
(0.56408011 2.7264321e-05 0)
(0.56246088 2.6281555e-05 0)
(0.56085707 2.5372306e-05 0)
(0.55926691 2.4490036e-05 0)
(0.55769097 2.3633552e-05 0)
(0.55612792 2.2833942e-05 0)
(0.55457846 2.2032282e-05 0)
(0.55304068 2.129268e-05 0)
(0.55151702 2.0602543e-05 0)
(0.54998672 1.9950901e-05 0)
(0.5485172 1.925433e-05 0)
(0.54691702 5.0455488e-05 0)
(0.54552173 9.449547e-05 0)
(0.54341103 9.0117924e-05 0)
(0.99619762 0.0027572071 0)
(0.99709276 0.0038447252 0)
(0.99771263 0.0042241996 0)
(0.99795404 0.0041368578 0)
(0.99737772 0.0039217775 0)
(0.99593486 0.0035838673 0)
(0.99369672 0.0032691268 0)
(0.99071292 0.0030123637 0)
(0.98707663 0.0028104271 0)
(0.98287711 0.002663222 0)
(0.97829175 0.002575616 0)
(0.97341443 0.0025246022 0)
(0.96828741 0.0024905628 0)
(0.96292323 0.0024610631 0)
(0.95732453 0.0024294458 0)
(0.95148582 0.002391121 0)
(0.94540021 0.0023430017 0)
(0.93900323 0.0022852061 0)
(0.93240618 0.0022111481 0)
(0.92549613 0.0021176181 0)
(0.91839126 0.0020085821 0)
(0.91113602 0.0018879288 0)
(0.90376594 0.0017584302 0)
(0.89631623 0.0016234065 0)
(0.88883274 0.0014848894 0)
(0.88135671 0.0013470879 0)
(0.87392809 0.001214234 0)
(0.86658406 0.0010873591 0)
(0.85936445 0.00096793086 0)
(0.8523113 0.00085728714 0)
(0.84546429 0.00075646442 0)
(0.83886155 0.00066433064 0)
(0.83255052 0.0005831471 0)
(0.82648522 0.00051561657 0)
(0.8206629 0.00045848966 0)
(0.81509045 0.00040942468 0)
(0.80977384 0.00036813576 0)
(0.80471693 0.000334169 0)
(0.79991049 0.00030455873 0)
(0.7953423 0.00027921784 0)
(0.79099259 0.00025949342 0)
(0.78683789 0.00024400609 0)
(0.78285642 0.00023189151 0)
(0.77903051 0.00022201808 0)
(0.77535059 0.00021312365 0)
(0.77180513 0.00020552168 0)
(0.76838473 0.00020126951 0)
(0.76501442 0.0001999526 0)
(0.76167712 0.00019880785 0)
(0.75838325 0.00019635516 0)
(0.75514612 0.00019335539 0)
(0.7519678 0.00019040751 0)
(0.74884063 0.00018718296 0)
(0.74575922 0.00018289994 0)
(0.74272862 0.00017767419 0)
(0.73974832 0.00017260691 0)
(0.73680249 0.0001678365 0)
(0.73388039 0.00016294192 0)
(0.73098348 0.00015760202 0)
(0.72811953 0.00015219885 0)
(0.72529105 0.00014709857 0)
(0.72249752 0.00014179184 0)
(0.71974286 0.00013615411 0)
(0.7170321 0.00013058873 0)
(0.71436374 0.00012539554 0)
(0.71173559 0.00012015901 0)
(0.709146 0.00011504928 0)
(0.70659131 0.00011053071 0)
(0.70406613 0.00010633095 0)
(0.70157057 0.00010211244 0)
(0.69910937 9.8019098e-05 0)
(0.69668204 9.4274115e-05 0)
(0.6942869 9.0391931e-05 0)
(0.69192926 8.6514442e-05 0)
(0.68960697 8.3117338e-05 0)
(0.68731267 7.9802922e-05 0)
(0.68504701 7.655047e-05 0)
(0.68280968 7.3684083e-05 0)
(0.68059769 7.0821866e-05 0)
(0.6784144 6.7909342e-05 0)
(0.67626131 6.5268199e-05 0)
(0.674135 6.2653296e-05 0)
(0.67203579 6.0103449e-05 0)
(0.66996152 5.7854686e-05 0)
(0.66790903 5.5627363e-05 0)
(0.66588017 5.343878e-05 0)
(0.66387576 5.137328e-05 0)
(0.66189545 4.933694e-05 0)
(0.65993762 4.7461247e-05 0)
(0.65799987 4.5647897e-05 0)
(0.65608282 4.3900453e-05 0)
(0.65418551 4.2264479e-05 0)
(0.65230843 4.0648502e-05 0)
(0.65044848 3.9150094e-05 0)
(0.64861012 3.7796044e-05 0)
(0.6467646 3.6389064e-05 0)
(0.64499704 3.5712562e-05 0)
(0.6430807 7.0274443e-05 0)
(0.64148714 0.0001187949 0)
(0.63857067 9.7930441e-05 0)
(0.99631114 0.0026083046 0)
(0.99684352 0.0030868733 0)
(0.99746131 0.0030464322 0)
(0.99789496 0.0029376448 0)
(0.99816457 0.0029155376 0)
(0.99848804 0.0029459018 0)
(0.99869642 0.0030088873 0)
(0.99878565 0.0030938546 0)
(0.99876118 0.0031634435 0)
(0.99861284 0.003236713 0)
(0.99833054 0.0032786588 0)
(0.99790703 0.0032956771 0)
(0.99733239 0.0032906047 0)
(0.99659213 0.0032689366 0)
(0.9956708 0.0032311924 0)
(0.99454973 0.0031779201 0)
(0.99320644 0.003110957 0)
(0.99158976 0.0030378237 0)
(0.98971841 0.0029659492 0)
(0.98750635 0.0028872026 0)
(0.98491588 0.0027946998 0)
(0.98191415 0.0026926806 0)
(0.97847749 0.0025852198 0)
(0.97458297 0.0024721465 0)
(0.97024035 0.0023518188 0)
(0.96534007 0.0022207908 0)
(0.95995148 0.0020841796 0)
(0.95414334 0.0019467161 0)
(0.94796316 0.0018107168 0)
(0.94146513 0.0016772212 0)
(0.93471181 0.0015473991 0)
(0.92777733 0.0014204716 0)
(0.92074463 0.0012965685 0)
(0.91370557 0.001181864 0)
(0.90672442 0.0010788904 0)
(0.89985673 0.00098580748 0)
(0.89315049 0.00090160769 0)
(0.88665829 0.00082930595 0)
(0.88032851 0.00076621083 0)
(0.8741801 0.00070992077 0)
(0.86823553 0.00066137886 0)
(0.86250733 0.00061823439 0)
(0.85700865 0.00057974465 0)
(0.85174025 0.00054547473 0)
(0.84668907 0.00051398175 0)
(0.84184053 0.00048601828 0)
(0.83717677 0.00046302113 0)
(0.83268731 0.00044504795 0)
(0.82835835 0.00043010216 0)
(0.82418132 0.00041506357 0)
(0.82014831 0.00040028353 0)
(0.81624322 0.0003866604 0)
(0.81244521 0.00037378172 0)
(0.80873978 0.0003602943 0)
(0.80512744 0.00034636106 0)
(0.80159303 0.00033385426 0)
(0.79810835 0.00032251347 0)
(0.79467252 0.00031116148 0)
(0.79128992 0.00029923848 0)
(0.78796699 0.00028734419 0)
(0.78470423 0.00027608794 0)
(0.7814985 0.00026477553 0)
(0.77835011 0.00025323603 0)
(0.77526065 0.00024204553 0)
(0.77222684 0.00023164207 0)
(0.76924479 0.00022153094 0)
(0.76630629 0.00021190396 0)
(0.76340891 0.00020321529 0)
(0.76055047 0.00019503437 0)
(0.75773239 0.00018686468 0)
(0.75495934 0.00017892214 0)
(0.7522306 0.00017157155 0)
(0.74954348 0.00016412184 0)
(0.74690244 0.00015679492 0)
(0.74430296 0.00015031867 0)
(0.74173664 0.00014409201 0)
(0.73920467 0.00013802082 0)
(0.73670798 0.0001325442 0)
(0.73424408 0.00012712562 0)
(0.73181573 0.00012168463 0)
(0.72942441 0.00011669438 0)
(0.72706535 0.00011183388 0)
(0.72473763 0.0001071462 0)
(0.72243959 0.00010294108 0)
(0.72016865 9.881129e-05 0)
(0.71792665 9.4770709e-05 0)
(0.71571442 9.0941658e-05 0)
(0.71353089 8.721153e-05 0)
(0.71137372 8.3766779e-05 0)
(0.70924051 8.045194e-05 0)
(0.70713208 7.7261002e-05 0)
(0.7050477 7.4254425e-05 0)
(0.70298764 7.1322516e-05 0)
(0.70094809 6.8577168e-05 0)
(0.69893369 6.6153185e-05 0)
(0.69691456 6.3492517e-05 0)
(0.69497791 6.182617e-05 0)
(0.69289214 9.2774845e-05 0)
(0.69116236 0.00014068008 0)
(0.68793754 0.00010670664 0)
(0.99646282 0.0023665158 0)
(0.99691153 0.0028578044 0)
(0.99748043 0.0030697425 0)
(0.99790688 0.0031893944 0)
(0.9981992 0.0032940195 0)
(0.99844667 0.0033744565 0)
(0.99867069 0.003390363 0)
(0.99886652 0.0033766043 0)
(0.99903685 0.0033392483 0)
(0.99917703 0.0032859028 0)
(0.99933602 0.0032322954 0)
(0.9994711 0.0031843758 0)
(0.9995836 0.0031432792 0)
(0.99967751 0.0031019553 0)
(0.99974751 0.0030678692 0)
(0.99978995 0.0030366313 0)
(0.99979953 0.0030028427 0)
(0.99976763 0.0029706669 0)
(0.99968616 0.0029414716 0)
(0.99954477 0.0029088504 0)
(0.99932443 0.002865221 0)
(0.99899971 0.002812243 0)
(0.99854533 0.0027527514 0)
(0.99793235 0.0026879773 0)
(0.99713283 0.0026215979 0)
(0.99608232 0.0025585968 0)
(0.99472659 0.002494854 0)
(0.99301588 0.0024253844 0)
(0.99090251 0.0023507656 0)
(0.98834172 0.0022733526 0)
(0.9852859 0.0021921548 0)
(0.98171148 0.0021047272 0)
(0.97748887 0.0020116788 0)
(0.97264324 0.0019137032 0)
(0.96726669 0.0018105709 0)
(0.96142049 0.0017046959 0)
(0.95518281 0.0015976448 0)
(0.94864581 0.0014907441 0)
(0.94195074 0.0013861262 0)
(0.93519351 0.0012878668 0)
(0.92845427 0.0011988838 0)
(0.92179523 0.0011168779 0)
(0.91528397 0.0010433118 0)
(0.90890532 0.00097922755 0)
(0.90265264 0.00092048227 0)
(0.89656516 0.00086614623 0)
(0.89066509 0.00081875037 0)
(0.88500271 0.00077764884 0)
(0.87959408 0.00073987615 0)
(0.87441832 0.00070342444 0)
(0.86944759 0.00066934936 0)
(0.8646555 0.00063899141 0)
(0.86002042 0.00061138632 0)
(0.85553324 0.00058416545 0)
(0.85119552 0.00055696888 0)
(0.84700063 0.00053223062 0)
(0.84293018 0.00051051292 0)
(0.83896338 0.00049028505 0)
(0.83508922 0.00046994234 0)
(0.83130784 0.00044986308 0)
(0.82761593 0.00043088009 0)
(0.82400603 0.0004121943 0)
(0.82047338 0.0003935861 0)
(0.81701531 0.00037573351 0)
(0.81362705 0.00035917137 0)
(0.81030192 0.00034349754 0)
(0.80702153 0.00032865866 0)
(0.80379375 0.00031487364 0)
(0.80061968 0.00030170957 0)
(0.79750024 0.0002886175 0)
(0.79443873 0.00027590736 0)
(0.79143309 0.00026410339 0)
(0.78847914 0.00025231948 0)
(0.78558048 0.00024090119 0)
(0.78272774 0.00023081293 0)
(0.77991304 0.00022113825 0)
(0.77713996 0.00021167082 0)
(0.77441049 0.00020299226 0)
(0.77172212 0.00019446309 0)
(0.76907688 0.00018596984 0)
(0.76647585 0.00017814756 0)
(0.76391191 0.00017063016 0)
(0.76138325 0.0001634131 0)
(0.75888934 0.00015684985 0)
(0.75642842 0.00015042999 0)
(0.75400221 0.00014416079 0)
(0.75161145 0.00013821113 0)
(0.74925379 0.0001324677 0)
(0.74692609 0.00012715234 0)
(0.74462632 0.00012204446 0)
(0.74235571 0.00011712365 0)
(0.74011368 0.00011246827 0)
(0.73790014 0.00010796793 0)
(0.73571042 0.00010373197 0)
(0.733549 0.00010003572 0)
(0.73138648 9.583902e-05 0)
(0.72930915 9.3036104e-05 0)
(0.72708629 0.00011909469 0)
(0.72523625 0.00016622526 0)
(0.72180275 0.00012514453 0)
(0.99664312 0.0022648326 0)
(0.99702427 0.0027802331 0)
(0.99752967 0.003027206 0)
(0.9979254 0.0031112162 0)
(0.99820012 0.0031510855 0)
(0.99843178 0.0031542635 0)
(0.99864803 0.0031312242 0)
(0.99884343 0.0031071915 0)
(0.99901688 0.0030850646 0)
(0.99917352 0.0030722262 0)
(0.99931847 0.0030671163 0)
(0.99945527 0.0030681247 0)
(0.99958787 0.0030688824 0)
(0.9997162 0.00306796 0)
(0.99983926 0.0030609865 0)
(0.99995686 0.0030454626 0)
(1.0000693 0.0030235007 0)
(1.0001716 0.0029958975 0)
(1.0002807 0.0029646704 0)
(1.0003879 0.0029281268 0)
(1.0004842 0.00288165 0)
(1.0005622 0.0028273589 0)
(1.0006196 0.0027691048 0)
(1.0006518 0.0027084002 0)
(1.0006596 0.0026508635 0)
(1.0006397 0.0025982211 0)
(1.0005826 0.0025436998 0)
(1.0004727 0.0024861024 0)
(1.0002917 0.0024287288 0)
(1.0000178 0.002373598 0)
(0.99962166 0.0023205096 0)
(0.9990693 0.0022729803 0)
(0.99829404 0.0022309653 0)
(0.99722159 0.0021934487 0)
(0.9957811 0.0021539405 0)
(0.99389812 0.0021106305 0)
(0.99150271 0.0020620111 0)
(0.98851443 0.0020096715 0)
(0.98496199 0.0019512682 0)
(0.98064357 0.0018829102 0)
(0.97570726 0.0018032355 0)
(0.97023621 0.0017160593 0)
(0.96432156 0.0016238656 0)
(0.95809503 0.0015304393 0)
(0.95169189 0.0014388593 0)
(0.94521014 0.0013518407 0)
(0.93873244 0.0012718415 0)
(0.93233219 0.0011976072 0)
(0.92607877 0.0011312613 0)
(0.91991322 0.0010705798 0)
(0.91387729 0.0010133987 0)
(0.90801116 0.00096064161 0)
(0.90233593 0.00091154177 0)
(0.89687211 0.00086399962 0)
(0.89161448 0.00081847139 0)
(0.88655224 0.00077762128 0)
(0.88167646 0.0007414145 0)
(0.87696215 0.00070779997 0)
(0.87239785 0.00067483176 0)
(0.86798434 0.00064292567 0)
(0.86370834 0.00061325791 0)
(0.85955046 0.00058493168 0)
(0.85549739 0.00055743603 0)
(0.851544 0.00053122813 0)
(0.84768773 0.00050677131 0)
(0.8439238 0.0004834829 0)
(0.84024923 0.00046165108 0)
(0.83665698 0.00044164206 0)
(0.83313942 0.00042259767 0)
(0.82969426 0.00040376496 0)
(0.82632278 0.00038552486 0)
(0.82302068 0.00036858318 0)
(0.81978168 0.00035184994 0)
(0.81660841 0.00033588267 0)
(0.81348301 0.00032174942 0)
(0.8104033 0.00030807562 0)
(0.80737657 0.00029460763 0)
(0.80440447 0.00028214136 0)
(0.80148361 0.00026996615 0)
(0.79861491 0.00025792771 0)
(0.79579877 0.00024686632 0)
(0.79302395 0.00023637057 0)
(0.79028906 0.00022628615 0)
(0.78759573 0.00021699754 0)
(0.78494284 0.00020793289 0)
(0.78233165 0.00019910038 0)
(0.77976256 0.00019073074 0)
(0.77723112 0.00018272067 0)
(0.77473355 0.00017529249 0)
(0.77226876 0.0001681489 0)
(0.76983851 0.00016126008 0)
(0.76744218 0.00015472977 0)
(0.76507908 0.00014846113 0)
(0.76274326 0.00014255007 0)
(0.76043932 0.00013741289 0)
(0.75813876 0.00013148331 0)
(0.75592658 0.00012754859 0)
(0.75357279 0.00014935195 0)
(0.75160796 0.00019634055 0)
(0.74798017 0.00014993843 0)
(0.99681306 0.0021857969 0)
(0.9971339 0.0026677288 0)
(0.99757516 0.00291037 0)
(0.99794187 0.0029995527 0)
(0.99820987 0.00305502 0)
(0.99843893 0.003097862 0)
(0.99865391 0.0031235543 0)
(0.99884848 0.00313801 0)
(0.99902055 0.0031467566 0)
(0.99917465 0.0031464906 0)
(0.99931596 0.0031429689 0)
(0.99944898 0.0031361415 0)
(0.99957789 0.003124564 0)
(0.99970354 0.0031062172 0)
(0.99982538 0.0030818242 0)
(0.99994342 0.0030523599 0)
(1.0000574 0.0030188151 0)
(1.0001666 0.0029816179 0)
(1.0002714 0.0029428901 0)
(1.000374 0.0029023012 0)
(1.0004741 0.0028554586 0)
(1.0005675 0.0028026716 0)
(1.0006512 0.0027465305 0)
(1.0007247 0.0026881721 0)
(1.000789 0.0026311152 0)
(1.0008445 0.0025765722 0)
(1.0009028 0.0025211605 0)
(1.0009553 0.0024652556 0)
(1.0009914 0.0024113681 0)
(1.0010144 0.0023611305 0)
(1.0010233 0.0023147449 0)
(1.0010178 0.0022750506 0)
(1.0009953 0.0022449437 0)
(1.0009486 0.002218549 0)
(1.0008618 0.0021918656 0)
(1.000712 0.0021655323 0)
(1.0004694 0.0021409267 0)
(1.0000907 0.0021162289 0)
(0.99952625 0.00209498 0)
(0.99867282 0.0020790424 0)
(0.99744311 0.0020589735 0)
(0.99574547 0.0020308709 0)
(0.99348535 0.0019962928 0)
(0.9906304 0.0019563744 0)
(0.98713193 0.0019065912 0)
(0.98287356 0.0018443093 0)
(0.97799786 0.0017705334 0)
(0.97260624 0.0016890809 0)
(0.96681802 0.0016023079 0)
(0.96079802 0.0015150713 0)
(0.9546471 0.0014318167 0)
(0.94845546 0.0013538464 0)
(0.94229534 0.0012797874 0)
(0.93624742 0.0012102116 0)
(0.93025748 0.0011457211 0)
(0.92434279 0.0010859674 0)
(0.91855643 0.0010300547 0)
(0.91293766 0.00097697939 0)
(0.90752086 0.00092570273 0)
(0.90230115 0.00087750825 0)
(0.89725116 0.00083340885 0)
(0.89234732 0.00079217116 0)
(0.88758157 0.00075275682 0)
(0.88295919 0.00071526768 0)
(0.87848123 0.00068037714 0)
(0.87413598 0.00064757424 0)
(0.86992897 0.00061697493 0)
(0.86584169 0.00058871495 0)
(0.86186415 0.00056190087 0)
(0.85799064 0.00053573582 0)
(0.85421644 0.00051069382 0)
(0.85053092 0.0004875543 0)
(0.84692612 0.00046491203 0)
(0.84340318 0.00044321322 0)
(0.83995946 0.00042383772 0)
(0.83658726 0.00040533443 0)
(0.8332848 0.00038725308 0)
(0.83005001 0.00037045141 0)
(0.82687817 0.00035411842 0)
(0.82376887 0.0003380611 0)
(0.82072136 0.000323401 0)
(0.81771797 0.00030959317 0)
(0.81476141 0.00029622634 0)
(0.81185622 0.00028376653 0)
(0.80900063 0.00027163905 0)
(0.80619495 0.00025985669 0)
(0.803439 0.00024874373 0)
(0.80072508 0.00023820526 0)
(0.79804957 0.000228394 0)
(0.79541324 0.00021892918 0)
(0.79281805 0.00020979572 0)
(0.79026303 0.00020113615 0)
(0.78774646 0.00019288232 0)
(0.78526078 0.0001850993 0)
(0.78281127 0.00017832737 0)
(0.78037061 0.00017046016 0)
(0.77802218 0.000165319 0)
(0.77553636 0.00018339046 0)
(0.77345483 0.00023121897 0)
(0.76963709 0.00017903608 0)
(0.99697072 0.0021164449 0)
(0.99724172 0.0025601987 0)
(0.99762694 0.0028099433 0)
(0.99796658 0.0029229783 0)
(0.99822692 0.0029967236 0)
(0.99844989 0.0030523753 0)
(0.99865847 0.0030804256 0)
(0.99884856 0.0030893184 0)
(0.99901795 0.0030865904 0)
(0.99917058 0.0030785312 0)
(0.99931133 0.0030675223 0)
(0.99944435 0.0030544659 0)
(0.99957291 0.0030427464 0)
(0.99969802 0.0030285527 0)
(0.99981931 0.0030116463 0)
(0.99993656 0.0029905757 0)
(1.0000493 0.0029656112 0)
(1.000157 0.0029369058 0)
(1.0002601 0.0029059651 0)
(1.0003605 0.0028722353 0)
(1.0004582 0.0028316763 0)
(1.00055 0.0027840647 0)
(1.0006335 0.0027319258 0)
(1.000708 0.0026768213 0)
(1.0007742 0.0026219646 0)
(1.0008343 0.0025689668 0)
(1.0008899 0.0025156656 0)
(1.0009398 0.002462268 0)
(1.0009827 0.0024103987 0)
(1.0010188 0.0023612644 0)
(1.0010486 0.0023151004 0)
(1.0010733 0.002274541 0)
(1.0010945 0.0022409317 0)
(1.0011203 0.0022109262 0)
(1.0011464 0.0021824904 0)
(1.0011671 0.0021565063 0)
(1.0011818 0.0021339151 0)
(1.0011869 0.0021137926 0)
(1.0011801 0.0021013409 0)
(1.0011568 0.0020954488 0)
(1.0011009 0.002087363 0)
(1.000984 0.0020768028 0)
(1.0007667 0.0020639553 0)
(1.000399 0.002049624 0)
(0.99980622 0.002036975 0)
(0.9988748 0.002023952 0)
(0.99750209 0.0020039445 0)
(0.99558698 0.001975277 0)
(0.99304197 0.0019394741 0)
(0.98985104 0.0018953702 0)
(0.98589214 0.001838564 0)
(0.98131406 0.0017696091 0)
(0.97622126 0.0016919392 0)
(0.97074491 0.0016071137 0)
(0.965033 0.0015215212 0)
(0.95917956 0.0014416037 0)
(0.95326164 0.0013668037 0)
(0.94734964 0.0012945921 0)
(0.94153068 0.0012262993 0)
(0.93573611 0.001163496 0)
(0.92998849 0.0011045535 0)
(0.9243394 0.0010475037 0)
(0.91883398 0.00099199088 0)
(0.91350381 0.00093939526 0)
(0.90833247 0.0008909886 0)
(0.90329894 0.00084536086 0)
(0.89840664 0.00080258175 0)
(0.89366295 0.00076303884 0)
(0.88907522 0.00072577795 0)
(0.88463148 0.00069005178 0)
(0.88031746 0.00065643297 0)
(0.87611744 0.00062548917 0)
(0.87202839 0.00059536846 0)
(0.86805026 0.00056664208 0)
(0.86419104 0.00054086395 0)
(0.86043599 0.00051629486 0)
(0.85677579 0.0004924593 0)
(0.85320524 0.00047033975 0)
(0.8497165 0.00044900922 0)
(0.84630584 0.00042822473 0)
(0.84296934 0.00040914754 0)
(0.83970145 0.00039119332 0)
(0.83650136 0.00037393902 0)
(0.83336618 0.00035785236 0)
(0.83029106 0.00034225822 0)
(0.82727513 0.00032714567 0)
(0.82431743 0.00031298372 0)
(0.82140545 0.00029963542 0)
(0.81853801 0.00028710811 0)
(0.81571843 0.00027497082 0)
(0.81294794 0.00026326368 0)
(0.81022474 0.00025218364 0)
(0.80754561 0.00024170917 0)
(0.80490106 0.00023183392 0)
(0.80229824 0.00022319221 0)
(0.79971088 0.00021314976 0)
(0.79722023 0.00020673859 0)
(0.7945969 0.0002212177 0)
(0.79239244 0.00027080092 0)
(0.78838284 0.00021165187 0)
(0.9971173 0.0020585614 0)
(0.99734802 0.00246635 0)
(0.99768407 0.002719346 0)
(0.99799597 0.0028478946 0)
(0.99824579 0.0029290999 0)
(0.99846144 0.002988538 0)
(0.99866353 0.0030221237 0)
(0.99884999 0.0030374276 0)
(0.99901786 0.0030435515 0)
(0.99916995 0.0030449382 0)
(0.99931076 0.0030436128 0)
(0.9994439 0.0030416096 0)
(0.99957192 0.0030360795 0)
(0.99969607 0.0030274334 0)
(0.99981638 0.0030132762 0)
(0.99993265 0.0029939957 0)
(1.0000444 0.0029695366 0)
(1.0001513 0.0029404295 0)
(1.0002538 0.0029080975 0)
(1.0003532 0.0028723247 0)
(1.0004496 0.0028301336 0)
(1.0005404 0.0027813572 0)
(1.0006232 0.0027284161 0)
(1.0006974 0.0026730552 0)
(1.0007633 0.0026180069 0)
(1.000823 0.0025648064 0)
(1.0008778 0.0025117477 0)
(1.000927 0.0024586371 0)
(1.0009698 0.0024068335 0)
(1.0010064 0.002357682 0)
(1.0010373 0.0023117287 0)
(1.0010636 0.0022712714 0)
(1.0010878 0.0022374701 0)
(1.0011124 0.0022079865 0)
(1.0011376 0.0021808012 0)
(1.001162 0.002155954 0)
(1.0011849 0.0021338505 0)
(1.0012061 0.0021137771 0)
(1.0012262 0.0020994589 0)
(1.0012486 0.0020906016 0)
(1.0012772 0.0020803409 0)
(1.001311 0.0020688846 0)
(1.0013364 0.0020577469 0)
(1.0013502 0.0020481162 0)
(1.0013499 0.0020437139 0)
(1.0013257 0.0020415731 0)
(1.0012526 0.0020365426 0)
(1.0010909 0.0020280397 0)
(1.0007845 0.0020166494 0)
(1.0002544 0.002005159 0)
(0.99937857 0.001991253 0)
(0.99804733 0.001969555 0)
(0.99615269 0.0019380342 0)
(0.99361673 0.0018971271 0)
(0.99031781 0.0018482261 0)
(0.98632724 0.0017878765 0)
(0.98177219 0.0017187184 0)
(0.9767697 0.0016416685 0)
(0.97145153 0.0015592672 0)
(0.96593812 0.0014795487 0)
(0.96030232 0.001405774 0)
(0.95460942 0.001334905 0)
(0.94893173 0.0012655069 0)
(0.94330731 0.0012010543 0)
(0.93766429 0.0011413819 0)
(0.93205591 0.0010828009 0)
(0.9265442 0.0010257049 0)
(0.92118566 0.00097222119 0)
(0.91597556 0.00092228431 0)
(0.91089972 0.00087474813 0)
(0.90595588 0.00083027148 0)
(0.90114785 0.00078915384 0)
(0.89648653 0.00074935117 0)
(0.89196663 0.00071148944 0)
(0.8875807 0.00067727062 0)
(0.88331937 0.00064484535 0)
(0.87918523 0.00061363242 0)
(0.87517352 0.00058481478 0)
(0.87127016 0.00055733931 0)
(0.86746721 0.00053081387 0)
(0.86375911 0.00050642863 0)
(0.86015246 0.00048346025 0)
(0.85664203 0.00046143817 0)
(0.85321637 0.00044095876 0)
(0.8498671 0.0004212359 0)
(0.84659163 0.00040221942 0)
(0.84338593 0.00038438968 0)
(0.84024562 0.00036761124 0)
(0.83716788 0.00035190213 0)
(0.83414964 0.00033673692 0)
(0.83118941 0.00032214128 0)
(0.82828436 0.00030836368 0)
(0.82542918 0.00029543651 0)
(0.82261249 0.00028321077 0)
(0.81984522 0.00027241619 0)
(0.81710123 0.00025992007 0)
(0.81445905 0.00025212211 0)
(0.81168924 0.00026299293 0)
(0.80935244 0.00031495878 0)
(0.80514522 0.00024763105 0)
(0.99725372 0.0020087107 0)
(0.99745172 0.0023823612 0)
(0.99774466 0.0026327868 0)
(0.99802913 0.0027721297 0)
(0.99826723 0.0028609965 0)
(0.99847568 0.0029271774 0)
(0.99867154 0.0029698796 0)
(0.99885397 0.0029935322 0)
(0.99901958 0.0030059646 0)
(0.9991703 0.0030114421 0)
(0.99931014 0.0030123857 0)
(0.99944246 0.0030097499 0)
(0.99956954 0.0030038662 0)
(0.99969261 0.0029934109 0)
(0.99981198 0.0029784569 0)
(0.99992739 0.002958858 0)
(1.0000385 0.0029346988 0)
(1.0001449 0.0029065279 0)
(1.000247 0.0028753797 0)
(1.0003459 0.0028410485 0)
(1.0004416 0.0028011484 0)
(1.0005318 0.0027552601 0)
(1.0006144 0.0027053421 0)
(1.0006887 0.0026530568 0)
(1.000755 0.0026006698 0)
(1.000815 0.0025495876 0)
(1.00087 0.00249856 0)
(1.0009195 0.0024473452 0)
(1.0009626 0.0023972528 0)
(1.0009996 0.0023496847 0)
(1.0010311 0.0023052896 0)
(1.001058 0.0022659638 0)
(1.0010825 0.0022328071 0)
(1.0011071 0.0022038888 0)
(1.001132 0.0021771214 0)
(1.0011563 0.0021523486 0)
(1.0011795 0.00213014 0)
(1.0012013 0.0021101421 0)
(1.0012225 0.0020954779 0)
(1.0012468 0.0020862657 0)
(1.0012757 0.0020764131 0)
(1.0013064 0.0020656065 0)
(1.0013365 0.0020549233 0)
(1.001365 0.002045327 0)
(1.0013937 0.0020396683 0)
(1.0014249 0.0020358882 0)
(1.0014607 0.0020293798 0)
(1.0015016 0.0020212802 0)
(1.0015282 0.0020132093 0)
(1.0015371 0.0020088414 0)
(1.0015199 0.002005929 0)
(1.0014479 0.0019989385 0)
(1.0012747 0.0019869873 0)
(1.0009344 0.001972629 0)
(1.0003132 0.0019581358 0)
(0.99929133 0.0019389779 0)
(0.99775319 0.0019117187 0)
(0.99561224 0.0018739578 0)
(0.99270172 0.0018268101 0)
(0.98903815 0.0017708109 0)
(0.98479762 0.0017072571 0)
(0.98010452 0.0016358104 0)
(0.97508109 0.0015582278 0)
(0.96983128 0.0014809513 0)
(0.96443363 0.0014088682 0)
(0.95894388 0.0013400679 0)
(0.95342241 0.0012722775 0)
(0.9479478 0.0012094893 0)
(0.94241934 0.0011505278 0)
(0.93688995 0.0010921359 0)
(0.93143134 0.0010353638 0)
(0.9261033 0.00098209537 0)
(0.92090312 0.00093106562 0)
(0.91582259 0.00088252209 0)
(0.91086337 0.0008382463 0)
(0.90603771 0.00079606813 0)
(0.90136409 0.00075560619 0)
(0.89683474 0.00071847241 0)
(0.8924326 0.00068341089 0)
(0.88815473 0.00064973684 0)
(0.88400102 0.00061857873 0)
(0.87996955 0.0005891403 0)
(0.87605547 0.00056114207 0)
(0.87225093 0.00053522574 0)
(0.86854802 0.00051044461 0)
(0.86494093 0.00048673443 0)
(0.86142082 0.00046456842 0)
(0.85799232 0.00044370239 0)
(0.85465142 0.00042414634 0)
(0.85138717 0.00040537985 0)
(0.8481942 0.00038741413 0)
(0.84506787 0.0003704749 0)
(0.84200466 0.00035458695 0)
(0.83899877 0.0003395922 0)
(0.83605333 0.00032635166 0)
(0.83313986 0.00031113941 0)
(0.83033396 0.00030179275 0)
(0.82740541 0.00030898585 0)
(0.82492415 0.00036357846 0)
(0.82051136 0.00028708602 0)
(0.99738103 0.0019654063 0)
(0.99755229 0.0023073552 0)
(0.99780782 0.0025515908 0)
(0.99806605 0.0026990147 0)
(0.99829162 0.0027955713 0)
(0.99849252 0.0028679539 0)
(0.9986818 0.0029176509 0)
(0.99885944 0.0029472887 0)
(0.99902219 0.0029640428 0)
(0.99917119 0.00297298 0)
(0.99930993 0.0029768019 0)
(0.99944144 0.0029768195 0)
(0.99956773 0.0029733783 0)
(0.99968996 0.0029659807 0)
(0.99980847 0.0029541348 0)
(0.99992302 0.0029375529 0)
(1.0000333 0.0029163196 0)
(1.0001392 0.002890844 0)
(1.0002408 0.0028618594 0)
(1.000339 0.0028292209 0)
(1.0004338 0.0027910932 0)
(1.0005233 0.0027470152 0)
(1.0006055 0.0026986816 0)
(1.0006798 0.0026478058 0)
(1.0007464 0.0025964294 0)
(1.0008067 0.0025459312 0)
(1.000862 0.0024955155 0)
(1.0009118 0.0024449805 0)
(1.0009554 0.0023955201 0)
(1.000993 0.0023484833 0)
(1.0010253 0.0023045721 0)
(1.001053 0.0022654031 0)
(1.0010783 0.0022320146 0)
(1.0011034 0.0022028098 0)
(1.0011287 0.0021758563 0)
(1.0011532 0.0021509746 0)
(1.0011767 0.0021287668 0)
(1.0011989 0.0021090234 0)
(1.0012205 0.0020942747 0)
(1.0012447 0.0020846789 0)
(1.001273 0.002074826 0)
(1.001303 0.0020639848 0)
(1.0013327 0.0020531963 0)
(1.0013615 0.0020434573 0)
(1.001391 0.0020373127 0)
(1.001424 0.0020330425 0)
(1.0014606 0.002026516 0)
(1.0014979 0.0020185664 0)
(1.0015336 0.002010641 0)
(1.0015689 0.0020054059 0)
(1.0016074 0.0020009258 0)
(1.0016441 0.0019928596 0)
(1.0016931 0.0019818681 0)
(1.0017204 0.0019726327 0)
(1.0017238 0.0019664855 0)
(1.0016872 0.0019586634 0)
(1.00157 0.0019464975 0)
(1.001312 0.0019316984 0)
(1.0008048 0.001915957 0)
(0.99991465 0.0018980616 0)
(0.998521 0.0018722099 0)
(0.99653216 0.0018362127 0)
(0.99378157 0.0017892908 0)
(0.99021979 0.0017324546 0)
(0.9860906 0.0016711979 0)
(0.98154473 0.001603163 0)
(0.97668917 0.0015299704 0)
(0.97161232 0.0014571051 0)
(0.96638291 0.0013881564 0)
(0.96105005 0.0013220149 0)
(0.95566944 0.0012571318 0)
(0.95031453 0.0011965772 0)
(0.94488897 0.0011379933 0)
(0.93944806 0.0010800386 0)
(0.93406459 0.0010251208 0)
(0.9287933 0.00097218924 0)
(0.92363475 0.00092159905 0)
(0.91858683 0.00087489382 0)
(0.91365759 0.00083063245 0)
(0.90886707 0.0007881078 0)
(0.90422095 0.00074872944 0)
(0.89970664 0.0007116373 0)
(0.89532145 0.00067642505 0)
(0.89106962 0.00064378072 0)
(0.88694597 0.0006127892 0)
(0.88294052 0.00058340038 0)
(0.87904372 0.00055587618 0)
(0.87525801 0.00052982852 0)
(0.87158084 0.00050550473 0)
(0.86800147 0.00048238374 0)
(0.86451321 0.00046038121 0)
(0.86110931 0.00043970285 0)
(0.85778692 0.00042033771 0)
(0.85454639 0.00040205996 0)
(0.85138252 0.00038589367 0)
(0.84826363 0.00036757946 0)
(0.84525992 0.0003563237 0)
(0.84214864 0.00035957576 0)
(0.83950854 0.00041652755 0)
(0.83488138 0.00033029804 0)
(0.99750017 0.0019273148 0)
(0.99764943 0.0022402471 0)
(0.99787272 0.0024758937 0)
(0.99810632 0.002628562 0)
(0.99831873 0.0027316361 0)
(0.99851161 0.0028090984 0)
(0.99869406 0.0028644959 0)
(0.99886655 0.0028998311 0)
(0.99902611 0.0029214731 0)
(0.99917318 0.0029346766 0)
(0.99931062 0.0029421443 0)
(0.99944112 0.0029451189 0)
(0.99956644 0.0029439989 0)
(0.99968764 0.0029384897 0)
(0.99980508 0.0029281095 0)
(0.99991862 0.0029127438 0)
(1.000028 0.0028925965 0)
(1.0001332 0.0028680851 0)
(1.0002342 0.0028398343 0)
(1.0003317 0.0028078103 0)
(1.0004256 0.0027706513 0)
(1.0005145 0.0027279276 0)
(1.0005964 0.0026810879 0)
(1.0006706 0.0026318056 0)
(1.0007375 0.002581894 0)
(1.0007982 0.0025326252 0)
(1.0008537 0.0024835101 0)
(1.0009038 0.0024343584 0)
(1.000948 0.0023862097 0)
(1.0009862 0.0023403459 0)
(1.0010192 0.0022975277 0)
(1.0010478 0.0022591596 0)
(1.0010739 0.0022261969 0)
(1.0010996 0.0021973353 0)
(1.0011252 0.0021708179 0)
(1.0011502 0.0021463898 0)
(1.0011741 0.0021245848 0)
(1.0011968 0.0021052994 0)
(1.001219 0.0020905811 0)
(1.0012435 0.0020806274 0)
(1.0012717 0.0020707524 0)
(1.0013016 0.0020599771 0)
(1.0013314 0.002049329 0)
(1.0013604 0.0020398131 0)
(1.0013898 0.0020336136 0)