/*--------------------------------*- C++ -*----------------------------------*\
  =========                 |
  \\      /  F ield         | OpenFOAM: The Open Source CFD Toolbox
   \\    /   O peration     | Website:  https://openfoam.org
    \\  /    A nd           | Version:  12
     \\/     M anipulation  |
\*---------------------------------------------------------------------------*/
FoamFile
{
    format      ascii;
    class       volVectorField;
    location    "500";
    object      wallShearStress;
}
// * * * * * * * * * * * * * * * * * * * * * * * * * * * * * * * * * * * * * //

dimensions      [0 2 -2 0 0 0 0];

internalField   uniform (0 0 0);

boundaryField
{
    inlet
    {
        type            calculated;
        value           uniform (0 0 0);
    }
    top
    {
        type            calculated;
        value           uniform (0 0 0);
    }
    outlet
    {
        type            calculated;
        value           uniform (0 0 0);
    }
    slipsurface
    {
        type            calculated;
        value           uniform (0 0 0);
    }
    bottom
    {
        type            calculated;
        value           nonuniform List<vector> 
100
(
(-0.0033445546 -3.5292357e-06 0)
(-0.0032711969 -6.505547e-06 0)
(-0.0031942853 -8.1528426e-06 0)
(-0.003113268 -9.5782891e-06 0)
(-0.0030338886 -1.1307901e-05 0)
(-0.0029581223 -1.2318171e-05 0)
(-0.002886113 -1.235014e-05 0)
(-0.0028176743 -1.1973649e-05 0)
(-0.0027521975 -1.1416292e-05 0)
(-0.0026891008 -1.0695721e-05 0)
(-0.0026272679 -9.8906996e-06 0)
(-0.0025662201 -9.1438064e-06 0)
(-0.002505786 -8.4534777e-06 0)
(-0.0024459924 -7.8093633e-06 0)
(-0.0023869599 -7.2042127e-06 0)
(-0.0023288976 -6.6269656e-06 0)
(-0.00227216 -6.0470619e-06 0)
(-0.0022174719 -5.4793061e-06 0)
(-0.0021642022 -4.9715151e-06 0)
(-0.0021131651 -4.4880881e-06 0)
(-0.0020646209 -4.0257931e-06 0)
(-0.0020187713 -3.5853612e-06 0)
(-0.0019758152 -3.1686813e-06 0)
(-0.0019359079 -2.7789134e-06 0)
(-0.0018991763 -2.4132723e-06 0)
(-0.0018657319 -2.0726699e-06 0)
(-0.0018355593 -1.7637745e-06 0)
(-0.0018085301 -1.4861359e-06 0)
(-0.001784468 -1.2392797e-06 0)
(-0.0017631625 -1.0261333e-06 0)
(-0.0017443648 -8.4568633e-07 0)
(-0.00172782 -6.9295472e-07 0)
(-0.0017133281 -5.6337803e-07 0)
(-0.0017006781 -4.5637366e-07 0)
(-0.0016896047 -3.6884697e-07 0)
(-0.0016798227 -3.0041086e-07 0)
(-0.001671052 -2.5153601e-07 0)
(-0.0016630376 -2.1847616e-07 0)
(-0.001655618 -1.9379743e-07 0)
(-0.0016486739 -1.7741677e-07 0)
(-0.0016420501 -1.70751e-07 0)
(-0.0016355877 -1.708103e-07 0)
(-0.001629167 -1.7560815e-07 0)
(-0.0016227042 -1.8308017e-07 0)
(-0.001616159 -1.9110811e-07 0)
(-0.0016095028 -2.0013323e-07 0)
(-0.0016026927 -2.1201128e-07 0)
(-0.0015956366 -2.2626865e-07 0)
(-0.001588267 -2.4021394e-07 0)
(-0.0015805829 -2.5187528e-07 0)
(-0.0015726161 -2.6160876e-07 0)
(-0.0015643833 -2.6983168e-07 0)
(-0.001555899 -2.7576486e-07 0)
(-0.0015472166 -2.7798973e-07 0)
(-0.0015384249 -2.7653034e-07 0)
(-0.0015295898 -2.7310065e-07 0)
(-0.0015207313 -2.6860851e-07 0)
(-0.0015118548 -2.6319151e-07 0)
(-0.0015029888 -2.5661665e-07 0)
(-0.0014941664 -2.4961422e-07 0)
(-0.0014853899 -2.4292273e-07 0)
(-0.0014766631 -2.3571083e-07 0)
(-0.0014680188 -2.2761466e-07 0)
(-0.0014594879 -2.1929815e-07 0)
(-0.0014510683 -2.1140729e-07 0)
(-0.0014427608 -2.032407e-07 0)
(-0.0014345837 -1.9499694e-07 0)
(-0.001426527 -1.8766579e-07 0)
(-0.0014185622 -1.8097364e-07 0)
(-0.0014106864 -1.7429888e-07 0)
(-0.0014029122 -1.678013e-07 0)
(-0.0013952296 -1.6187915e-07 0)
(-0.0013876381 -1.5569762e-07 0)
(-0.0013801631 -1.4938659e-07 0)
(-0.0013727963 -1.4380943e-07 0)
(-0.0013655181 -1.3836684e-07 0)
(-0.0013583367 -1.3297409e-07 0)
(-0.0013512417 -1.2824799e-07 0)
(-0.0013442194 -1.2356732e-07 0)
(-0.0013372867 -1.1873939e-07 0)
(-0.001330445 -1.1433531e-07 0)
(-0.0013236861 -1.099621e-07 0)
(-0.0013170185 -1.0563901e-07 0)
(-0.0013104306 -1.0183285e-07 0)
(-0.0013039097 -9.8087091e-08 0)
(-0.0012974643 -9.4377572e-08 0)
(-0.0012910951 -9.0866676e-08 0)
(-0.001284803 -8.7385572e-08 0)
(-0.001278584 -8.4160384e-08 0)
(-0.0012724309 -8.1044051e-08 0)
(-0.0012663456 -7.8030618e-08 0)
(-0.0012603225 -7.5212599e-08 0)
(-0.0012543642 -7.2411637e-08 0)
(-0.0012484629 -6.9816713e-08 0)
(-0.0012426277 -6.7422182e-08 0)
(-0.0012367791 -6.5077822e-08 0)
(-0.0012311743 -6.2827064e-08 0)
(-0.0012250838 -1.5561578e-07 0)
(-0.0012197832 -2.8728198e-07 0)
(-0.0012117842 -2.7122997e-07 0)
)
;
    }
    frontandback
    {
        type            empty;
    }
}


// ************************************************************************* //
