/*--------------------------------*- C++ -*----------------------------------*\
  =========                 |
  \\      /  F ield         | OpenFOAM: The Open Source CFD Toolbox
   \\    /   O peration     | Website:  https://openfoam.org
    \\  /    A nd           | Version:  12
     \\/     M anipulation  |
\*---------------------------------------------------------------------------*/
FoamFile
{
    format      ascii;
    class       volScalarField;
    location    "500";
    object      yPlus;
}
// * * * * * * * * * * * * * * * * * * * * * * * * * * * * * * * * * * * * * //

dimensions      [];

internalField   uniform 0;

boundaryField
{
    inlet
    {
        type            calculated;
        value           uniform 0;
    }
    top
    {
        type            calculated;
        value           uniform 0;
    }
    outlet
    {
        type            calculated;
        value           uniform 0;
    }
    slipsurface
    {
        type            calculated;
        value           uniform 0;
    }
    bottom
    {
        type            calculated;
        value           nonuniform List<scalar> 
100
(
115.85453
114.57523
113.22156
111.77644
110.34279
108.95778
107.62397
106.34034
105.09752
103.88583
102.68457
101.48461
100.28258
99.078918
97.876056
96.678372
95.493508
94.337247
93.197176
92.091675
91.027717
90.011269
89.048438
88.144522
87.304265
86.532105
85.829523
85.19521
84.626519
84.11977
83.670123
83.272361
82.922387
82.615684
82.346268
82.10754
81.892899
81.696277
81.513829
81.342702
81.179131
81.019228
80.860045
80.699502
80.536585
80.370565
80.200354
80.023612
79.8386
79.645236
79.444259
79.236038
79.020882
78.800097
78.575897
78.349943
78.122737
77.894402
77.665668
77.437385
77.209624
76.982483
76.756827
76.533479
76.312402
76.093643
75.877699
75.664331
75.452807
75.24306
75.035442
74.829706
74.625853
74.424582
74.225691
74.028668
73.833748
73.640668
73.449065
73.259416
73.071776
72.885929
72.70213
72.52007
72.339409
72.160395
71.983061
71.807444
71.633444
71.46087
71.289787
71.120049
70.951735
70.784638
70.619025
70.452639
70.292812
70.118722
69.966877
69.737092
)
;
    }
    frontandback
    {
        type            empty;
    }
}


// ************************************************************************* //
