#      distance             U_x             U_y             U_z wallShearStr... wallShearStr... wallShearStr...               p           omega               k             nut
  3.0219182e-06     0.018437896   2.6284724e-09  -3.4461375e-23               0               0               0    0.0002327671       5570601.8   3.9968279e-07   3.7391004e-13
  5.0865428e-06     0.031038043   6.6678809e-09  -1.4611542e-23               0               0               0   0.00023276732       1240850.2   1.8252619e-06   3.4559039e-12
  7.2269684e-06     0.044100095   1.3130602e-08  -3.7643246e-23               0               0               0   0.00023276753       495682.18   5.7569161e-06   1.9325644e-11
  9.4750924e-06     0.057816686   2.2379093e-08  -5.6458831e-23               0               0               0   0.00023276775       256764.63   1.4417816e-05   7.8819655e-11
  1.1864417e-05     0.072385818   3.4924821e-08     -2.3401e-23               0               0               0   0.00023276798       152802.44   3.1086369e-05   2.5990362e-10
  1.4430548e-05     0.088006908   5.1502159e-08   7.8882647e-23               0               0               0   0.00023276824       99058.221   6.0518645e-05   7.3658792e-10
  1.7211727e-05      0.10486874    7.306918e-08   1.2748068e-22               0               0               0   0.00023276852       68139.936   0.00010940369   1.8611141e-09
  2.0249401e-05      0.12312319   1.0082075e-07    2.878665e-23               0               0               0   0.00023276884       49052.783   0.00018656251   4.2814154e-09
  2.3588836e-05      0.14283964   1.3618069e-07  -3.0451927e-23               0               0               0   0.00023276923       36671.309   0.00030228833   9.0656068e-09
  2.7279799e-05      0.16394571    1.807384e-07  -1.5225964e-23               0               0               0   0.00023276971       28321.837   0.00046603806   1.7755304e-08
  3.1377293e-05      0.18618224   2.3612774e-07               0               0               0               0   0.00023277034       22484.259   0.00068235585    3.224825e-08
  3.5942381e-05      0.20911579   3.0391053e-07    7.194958e-23               0               0               0   0.00023277116       18244.025   0.00094682934   5.4497311e-08
  4.1043091e-05       0.2322271   3.8555826e-07   1.0791283e-22               0               0               0   0.00023277225        15039.65    0.0012453325   8.6183055e-08
  4.6755437e-05      0.25503558   4.8251736e-07   1.2149726e-22               0               0               0   0.00023277367       12530.035    0.0015580313   1.2857473e-07
  5.3164546e-05      0.27720473   5.9646472e-07    1.282873e-22               0               0               0   0.00023277547       10510.289    0.0018656962   1.8205247e-07
  6.0365928e-05      0.29857474   7.2962614e-07  -1.9330811e-22               0               0               0   0.00023277771         8853.58     0.002154509   2.4683793e-07
    6.84669e-05       0.3190897   8.8472003e-07  -4.1173422e-22               0               0               0    0.0002327805       7476.9381    0.0024168749   3.2495178e-07
  7.7588184e-05      0.33871267   1.0647596e-06  -2.1503852e-22               0               0               0   0.00023278398       6324.5497    0.0026493293   4.1961684e-07
   8.786571e-05      0.35741909   1.2731148e-06   6.1355538e-23               0               0               0   0.00023278827       5357.5397    0.0028511051   5.3377094e-07
  9.9452634e-05      0.37521871    1.513659e-06   2.7236185e-22               0               0               0   0.00023279352       4546.6257    0.0030237001   6.6994531e-07
  0.00011252163      0.39216384   1.7909266e-06   5.6552964e-23               0               0               0   0.00023279983       3867.6649    0.0031701517   8.2954919e-07
  0.00012726745      0.40834864   2.1104156e-06  -1.5311968e-22               0               0               0   0.00023280732       3299.2831    0.0032941999    1.012785e-06
  0.00014390985      0.42388514   2.4787072e-06  -3.8032036e-23               0               0               0   0.00023281612       2822.4272    0.0033995553   1.2215794e-06
  0.00016269684      0.43886733   2.9032227e-06   6.8210261e-23               0               0               0   0.00023282646         2421.01    0.0034893255   1.4605676e-06
  0.00018390838      0.45336306   3.3922607e-06   5.4409947e-22               0               0               0   0.00023283859       2082.0043       0.0035659   1.7344577e-06
  0.00020786057      0.46742749    3.955406e-06   6.7966329e-22               0               0               0   0.00023285281       1794.8365    0.0036312178   2.0475801e-06
  0.00023491035      0.48110998   4.6037384e-06   2.0377407e-22               0               0               0   0.00023286942       1550.8454    0.0036869331   2.4048036e-06
  0.00026546084      0.49445448   5.3499571e-06               0               0               0               0   0.00023288877       1342.9266     0.003734441   2.8115955e-06
   0.0002999673      0.50750009   6.2086318e-06               0               0               0               0   0.00023291126       1165.2412    0.0037749087   3.2740854e-06
  0.00033894396      0.52028159    7.196492e-06  -1.8512504e-22               0               0               0   0.00023293734       1012.9788    0.0038093071   3.7991349e-06
  0.00038297165      0.53282997   8.3327517e-06  -3.7025008e-22               0               0               0   0.00023296755       882.16486    0.0038384392   4.3944106e-06
  0.00043270649      0.54517289   9.6394845e-06   8.0095939e-22               0               0               0   0.00023300247       769.50519    0.0038629656   5.0684604e-06
  0.00048888965      0.55733522   1.1142058e-05   1.5554403e-21               0               0               0   0.00023304276       672.26047     0.003883425   5.8307903e-06
  0.00055235838      0.56933934   1.2869641e-05   5.6935588e-22               0               0               0    0.0002330892       588.14488    0.0039002519   6.6919398e-06
   0.0006240585      0.58120559   1.4855792e-05               0               0               0               0   0.00023314265       515.24446    0.0039137907   7.6635527e-06
  0.00070505852      0.59295256   1.7139151e-05   2.3905899e-22               0               0               0   0.00023320408        451.9511    0.0039243067   8.7584365e-06
  0.00079656552      0.60459743   1.9764252e-05   4.7811798e-22               0               0               0   0.00023327459       396.90908    0.0039319945   9.9906042e-06
  0.00089994316      0.61615622   2.2782476e-05   2.3905899e-22               0               0               0   0.00023335542       348.97175    0.0039369849   1.1375287e-05
    0.001016732      0.62764411   2.6253188e-05               0               0               0               0   0.00023344795       307.16622    0.0039393491   1.2928905e-05
   0.0011486725      0.63907565   3.0245087e-05   1.0417279e-21               0               0               0   0.00023355373       270.66458    0.0039391012   1.4668978e-05
   0.0012977308      0.65046507   3.4837825e-05  -7.8789633e-22               0               0               0   0.00023367447       238.76034    0.0039361998   1.6613945e-05
   0.0014661282       0.6618265   4.0123968e-05  -3.4905371e-21               0               0               0   0.00023381209       210.84899    0.0039305472   1.8782864e-05
   0.0016563743      0.67317431   4.6211369e-05  -2.6967121e-21               0               0               0   0.00023396866       186.41205    0.0039219874   2.1194951e-05
   0.0018713042       0.6845234    5.322609e-05  -1.5854694e-21               0               0               0   0.00023414647       165.00389    0.0039103025    2.386888e-05
   0.0021141207      0.69588954   6.1316006e-05  -5.4967008e-22               0               0               0   0.00023434795       146.24069     0.003895207   2.6821796e-05
   0.0023884425       0.7072898   7.0655307e-05  -4.0098785e-22               0               0               0    0.0002345757       129.79136      0.00387634   3.0067919e-05
   0.0026983575        0.718743   8.1450177e-05   1.2443668e-21               0               0               0    0.0002348324       115.36991    0.0038532547    3.361662e-05
   0.0030484842      0.73027034   9.3946024e-05   -2.236822e-21               0               0               0   0.00023512075        102.7291    0.0038254048   3.7469831e-05
   0.0034440402      0.74189608   0.00010843679  -5.6989958e-21               0               0               0    0.0002354433        91.65513    0.0037921265   4.1618582e-05
   0.0038909203      0.75364848    0.0001252771  -1.8168191e-21               0               0               0   0.00023580227       81.963238    0.0037526148   4.6038473e-05
    0.004395784      0.76556089    0.0001448983   3.1397477e-21               0               0               0   0.00023619926       73.494031    0.0037058927   5.0683835e-05
   0.0049661549      0.77767329   0.00016783049   -4.684563e-21               0               0               0    0.0002366348       66.110547    0.0036507711   5.5480373e-05
   0.0056105328      0.79003417   0.00019473272  -1.3757686e-20               0               0               0   0.00023710772        59.69595     0.003585796   6.0316125e-05
   0.0063385204      0.80270312    0.0002264313   5.3445631e-21               0               0               0   0.00023761303        54.15193    0.0035091804   6.5030744e-05
   0.0071609664      0.81575423   0.00026394907   1.8558424e-20               0               0               0   0.00023813792       49.397935    0.0034187189   6.9403401e-05
   0.0080901272      0.82929293   0.00030865429   2.9366234e-20               0               0               0   0.00023866658       45.366216    0.0033113851   7.3002868e-05
   0.0091398493      0.84349123   0.00036255614   3.4052826e-20               0               0               0   0.00023918427       41.988028    0.0031823928    7.515014e-05
    0.010325776      0.85859793   0.00042856883   1.6023624e-20               0               0               0   0.00023965478       39.180274    0.0030240917   7.5298506e-05
     0.01166558       0.8749133   0.00051062755   4.0565482e-21               0               0               0   0.00024000774         36.8332     0.002824626   7.3110016e-05
    0.013179228       0.8927714   0.00061403939   1.7909536e-20               0               0               0   0.00024015105       34.786978     0.002566596   6.8305592e-05
    0.014889277      0.91247574   0.00074574787   1.6570971e-20               0               0               0    0.0002399366       32.818574    0.0022283427   6.0909889e-05
    0.016821209      0.93403215    0.0009105283   5.0714596e-20               0               0               0    0.0002390431       30.697485    0.0017936212    5.146636e-05
    0.019003816      0.95679108    0.0011121035   7.7419477e-20               0               0               0   0.00023727396       28.146581    0.0012635045   4.0159539e-05
    0.021469624      0.97883312    0.0013395401   4.3864649e-20               0               0               0   0.00023446786       23.077368   0.00068845239   2.6268408e-05
    0.024255377      0.99526697    0.0015166026   2.4054598e-20               0               0               0   0.00022960072       14.332467   0.00023566259   1.2129274e-05
    0.027402591       1.0024697    0.0015843222   5.5562231e-21               0               0               0   0.00022278769       7.3126196   3.6690255e-05   3.1150527e-06
    0.030958166        1.003776     0.001588305               0               0               0               0   0.00021582935       5.3269999   1.7761259e-06   3.2427519e-07
    0.034975088       1.0038179    0.0015795056               0               0               0               0    0.0002093382       5.2603574   6.5595382e-07   1.2469788e-07
    0.039513219       1.0038154    0.0015693761    1.970315e-20               0               0               0   0.00020287738       5.2618481   6.5391264e-07   1.2427305e-07
    0.044640187       1.0038176    0.0015601516   2.9551635e-20               0               0               0   0.00019621879       5.2622593   6.5412435e-07   1.2430341e-07
    0.050432395       1.0038245    0.0015498648   9.8484499e-21               0               0               0    0.0001893599       5.2622371   6.5413621e-07   1.2430619e-07
    0.056976161       1.0038303    0.0015380534               0               0               0               0    0.0001823984       5.2622295   6.5413299e-07   1.2430576e-07
    0.064369002       1.0038309    0.0015254744               0               0               0               0   0.00017550906       5.2622238   6.5413178e-07   1.2430567e-07
    0.072721087       1.0038279    0.0015117655               0               0               0               0   0.00016884484       5.2622136   6.5413017e-07    1.243056e-07
    0.082156882       1.0038227    0.0014970805               0               0               0               0    0.0001624932       5.2621961   6.5412763e-07   1.2430553e-07
    0.092817002        1.003815    0.0014811886               0               0               0               0   0.00015653509       5.2621689   6.5412383e-07   1.2430545e-07
