#      distance             U_x             U_y             U_z wallShearStr... wallShearStr... wallShearStr...               p           omega               k             nut
              0      0.99942917               0               0               0               0               0    0.0046624667       89.718284    1.189277e-05   1.3255642e-07
   0.0021021021      0.99941261               0               0               0               0               0    0.0046806589       89.707734   1.1875512e-05   1.3237961e-07
   0.0042042042      0.99939605               0               0               0               0               0    0.0046988512       89.697184   1.1858254e-05   1.3220281e-07
   0.0063063063      0.99937949               0               0               0               0               0    0.0047170434       89.686634   1.1840996e-05   1.3202601e-07
   0.0084084084      0.99936293               0               0               0               0               0    0.0047352356       89.676084   1.1823738e-05   1.3184921e-07
    0.010510511      0.99934411               0               0               0               0               0    0.0047558552       89.667282   1.1807782e-05   1.3168422e-07
    0.012612613      0.99932388               0               0               0               0               0    0.0047779823       89.659565   1.1792633e-05   1.3152657e-07
    0.014714715      0.99930365               0               0               0               0               0    0.0048001095       89.651848   1.1777485e-05   1.3136892e-07
    0.016816817      0.99928341               0               0               0               0               0    0.0048222366       89.644132   1.1762336e-05   1.3121126e-07
    0.018918919      0.99926318               0               0               0               0               0    0.0048443637       89.636415   1.1747188e-05   1.3105361e-07
    0.021021021      0.99924237               0               0               0               0               0     0.004867108       89.629006   1.1732255e-05    1.308979e-07
    0.023123123      0.99921763               0               0               0               0               0    0.0048940008       89.623667   1.1718771e-05   1.3075521e-07
    0.025225225      0.99919289               0               0               0               0               0    0.0049208936       89.618329   1.1705286e-05   1.3061253e-07
    0.027327327      0.99916815               0               0               0               0               0    0.0049477864        89.61299   1.1691801e-05   1.3046984e-07
    0.029429429      0.99914341               0               0               0               0               0    0.0049746793       89.607651   1.1678317e-05   1.3032716e-07
    0.031531532      0.99911724               0               0               0               0               0      0.00500306       89.602862   1.1665177e-05   1.3018751e-07
    0.033633634      0.99908692               0               0               0               0               0    0.0050357867       89.599677   1.1653044e-05   1.3005671e-07
    0.035735736      0.99905659               0               0               0               0               0    0.0050685134       89.596493   1.1640911e-05   1.2992592e-07
    0.037837838      0.99902626               0               0               0               0               0    0.0051012401       89.593308   1.1628778e-05   1.2979512e-07
     0.03993994      0.99899594               0               0               0               0               0    0.0051339668       89.590124   1.1616645e-05   1.2966433e-07
    0.042042042      0.99895919               0               0               0               0               0    0.0051733109       89.588771   1.1605542e-05   1.2954236e-07
    0.044144144      0.99892184               0               0               0               0               0    0.0052132752        89.58759   1.1594536e-05   1.2942122e-07
    0.046246246       0.9988845               0               0               0               0               0    0.0052532395       89.586408    1.158353e-05   1.2930008e-07
    0.048348348      0.99884682               0               0               0               0               0    0.0052935391       89.585297   1.1572559e-05   1.2917923e-07
     0.05045045      0.99880053               0               0               0               0               0    0.0053426396       89.586022   1.1562518e-05    1.290661e-07
    0.052552553      0.99875424               0               0               0               0               0    0.0053917402       89.586747   1.1552477e-05   1.2895298e-07
    0.054654655      0.99870795               0               0               0               0               0    0.0054408408       89.587471   1.1542436e-05   1.2883986e-07
    0.056756757      0.99865509               0               0               0               0               0    0.0054965286       89.589202   1.1532865e-05   1.2873054e-07
    0.058858859      0.99859705               0               0               0               0               0    0.0055574097       89.591726   1.1523665e-05   1.2862422e-07
    0.060960961      0.99853902               0               0               0               0               0    0.0056182908        89.59425   1.1514464e-05   1.2851791e-07
    0.063063063      0.99847438               0               0               0               0               0    0.0056858401       89.597607   1.1505593e-05   1.2841408e-07
    0.065165165      0.99840083               0               0               0               0               0    0.0057624047       89.602092   1.1497168e-05   1.2831363e-07
    0.067267267      0.99832727               0               0               0               0               0    0.0058389693       89.606576   1.1488742e-05   1.2821318e-07
    0.069369369       0.9982404               0               0               0               0               0     0.005928128        89.61169   1.1480673e-05   1.2811581e-07
    0.071471471      0.99814406               0               0               0               0               0    0.0060262661       89.617252   1.1472857e-05   1.2802065e-07
    0.073573574      0.99804771               0               0               0               0               0    0.0061244042       89.622815   1.1465042e-05   1.2792549e-07
    0.075675676      0.99792166               0               0               0               0               0    0.0062542285       89.633366   1.1458245e-05   1.2783462e-07
    0.077777778      0.99779526               0               0               0               0               0    0.0063844127       89.643975   1.1451459e-05    1.277438e-07
     0.07987988      0.99763122               0               0               0               0               0     0.006543701       89.647483   1.1444038e-05     1.27656e-07
    0.081981982      0.99744186               0               0               0               0               0    0.0067225564       89.646217    1.143619e-05   1.2757023e-07
    0.084084084      0.99722868               0               0               0               0               0    0.0069370172       89.667027    1.143115e-05   1.2748448e-07
    0.086186186      0.99697537               0               0               0               0               0    0.0072114547       89.725022   1.1430843e-05   1.2739875e-07
    0.088288288      0.99658263               0  -3.2657047e-22               0               0               0    0.0075257858       89.721852   1.1422535e-05   1.2731049e-07
     0.09039039      0.99582447               0  -1.5089365e-21               0               0               0    0.0079446602       89.558395   1.1393265e-05   1.2721561e-07
    0.092492492      0.99509711               0   9.2792078e-18               0               0               0    0.0085569793       94.160242   1.1556172e-05   1.2448495e-07
    0.094594595      0.99445098               0   4.3034987e-17               0               0               0    0.0096793848       111.32753   1.2225825e-05   1.1480409e-07
    0.096696697      0.90641548               0   6.5440488e-17  -0.00046065102  -3.0798893e-06               0     0.010452629       1403697.6   1.1674252e-05   9.7181417e-08
    0.098798799      0.64588245               0   6.5441724e-17   -0.0018305791  -1.2239159e-05               0     0.010536666         5577783   8.7121069e-06   6.3882438e-08
      0.1009009      0.38539973               0   5.0746818e-17   -0.0029008359  -1.7536735e-05   8.0162318e-20    0.0096906305       9751088.2   5.4452386e-06    3.478203e-08
       0.103003      0.12498409               0   1.6457056e-17   -0.0035715311  -1.7685387e-05   2.6720773e-19    0.0076044993        13923353   1.7720727e-06   1.1279719e-08
     0.10510511               0               0               0   -0.0035241268  -1.3034593e-05   4.6168012e-19    0.0059439044        15925793   1.3120895e-08               0
     0.10720721               0               0               0   -0.0028140185  -3.9545912e-06   6.6300656e-19     0.004676019        15925793   2.0717047e-08               0
     0.10930931               0               0               0   -0.0025175423  -2.0100205e-07   5.9025001e-19    0.0042374078        15925793   2.6579206e-08               0
     0.11141141               0               0               0   -0.0025013085  -5.6142424e-08   3.3179789e-19    0.0043606433        15925793   3.1266558e-08               0
     0.11351351               0               0               0    -0.002487757  -7.2741171e-09   1.1303565e-19    0.0044857333        15925793   3.3357472e-08               0
     0.11561562               0               0               0   -0.0024756113  -8.7101609e-09  -8.4927053e-20    0.0046117953        15925793    3.408772e-08               0
     0.11771772               0               0               0   -0.0024516803   -1.066104e-08  -9.3235632e-20    0.0046226491        15925793    3.379255e-08               0
     0.11981982               0               0               0    -0.002422687  -1.2833074e-08  -2.0076062e-20    0.0045840138        15925793   3.3056899e-08               0
     0.12192192               0               0               0   -0.0023921035   -1.333811e-08               0    0.0045053277        15925793   3.2173286e-08               0
     0.12402402               0               0               0   -0.0023609187  -1.3212691e-08               0    0.0044114945        15925793   3.1233715e-08               0
     0.12612613               0               0               0   -0.0023322228  -1.2576911e-08               0    0.0043370304        15925793   3.0384076e-08               0
     0.12822823               0               0               0   -0.0023044302  -1.1755889e-08               0    0.0042695966        15925793    2.956708e-08               0
     0.13033033               0               0               0   -0.0022795315  -1.0951761e-08               0    0.0042215565        15925793   2.8841355e-08               0
     0.13243243               0               0               0   -0.0022557405    -1.01541e-08               0    0.0041809404        15925793   2.8150569e-08               0
     0.13453453               0               0               0    -0.002234188  -9.4743537e-09  -1.4524487e-19    0.0041438721        15925793   2.7526476e-08               0
     0.13663664               0               0               0   -0.0022136256  -8.8467712e-09  -3.5474338e-19    0.0041083732        15925793   2.6931887e-08               0
     0.13873874               0               0               0   -0.0021946879  -8.3065513e-09  -4.2945801e-19    0.0040730076        15925793   2.6387681e-08               0
     0.14084084               0               0               0   -0.0021766509  -7.8147588e-09  -4.2945805e-19    0.0040377158        15925793   2.5871403e-08               0
     0.14294294               0               0               0   -0.0021597786  -7.3850405e-09  -4.0605525e-19    0.0040038339        15925793   2.5392072e-08               0
     0.14504505               0               0               0   -0.0021437758  -7.0016515e-09  -3.6518559e-19    0.0039710043        15925793   2.4940316e-08               0
     0.14714715               0               0               0   -0.0021285202    -6.66196e-09  -2.7237522e-19    0.0039395333        15925793    2.451138e-08               0
     0.14924925               0               0               0    -0.002114073  -6.3695511e-09  -1.2336264e-19    0.0039095325        15925793   2.4107137e-08               0
     0.15135135               0               0               0   -0.0021000687  -6.0967372e-09  -1.9524312e-20    0.0038803221        15925793   2.3716322e-08               0
     0.15345345               0               0               0   -0.0020868325  -5.8579255e-09   5.9250977e-21     0.003852483        15925793   2.3348807e-08               0
     0.15555556               0               0               0    -0.002073841  -5.6254455e-09   -7.608377e-21    0.0038250657        15925793   2.2989144e-08               0
     0.15765766               0               0               0   -0.0020616792  -5.4144412e-09  -1.5336436e-19     0.003799079        15925793   2.2656109e-08               0
     0.15975976               0               0               0    -0.002049581  -5.2048826e-09   -2.734526e-19    0.0037732131        15925793   2.2325123e-08               0
     0.16186186               0               0               0    -0.002038387  -5.0158686e-09  -2.8802564e-20     0.003749063        15925793   2.2023243e-08               0
     0.16396396               0               0               0    -0.002027193  -4.8268545e-09   2.1584747e-19    0.0037249128        15925793   2.1721363e-08               0
     0.16606607               0               0               0   -0.0020167748  -4.6559388e-09   2.4548321e-19    0.0037023635        15925793   2.1444076e-08               0
     0.16816817               0               0               0   -0.0020064635  -4.4875176e-09   2.4548324e-19    0.0036800349        15925793   2.1170178e-08               0
     0.17027027               0               0               0   -0.0019966753  -4.3333917e-09    1.411715e-19     0.003658704        15925793   2.0912512e-08               0
     0.17237237               0               0               0   -0.0019871494  -4.1864305e-09  -1.5419797e-20    0.0036378733        15925793    2.066298e-08               0
     0.17447447               0               0               0   -0.0019779168  -4.0474909e-09  -1.0520499e-19    0.0036176036        15925793   2.0422416e-08               0
     0.17657658               0               0               0   -0.0019690787  -3.9193323e-09    -1.05205e-19    0.0035980878        15925793   2.0193905e-08               0
     0.17867868               0               0               0   -0.0019603381  -3.7936602e-09  -1.1059481e-19    0.0035787449        15925793   1.9968353e-08               0
     0.18078078               0               0               0   -0.0019521127  -3.6811062e-09  -1.4441923e-19    0.0035603135        15925793   1.9758412e-08               0
     0.18288288               0               0               0   -0.0019438873  -3.5685523e-09  -1.7824364e-19    0.0035418821        15925793   1.9548471e-08               0
     0.18498498               0               0               0   -0.0019361315  -3.4678947e-09  -1.1927452e-19    0.0035243341        15925793     1.93526e-08               0
     0.18708709               0               0               0   -0.0019284501  -3.3691211e-09  -4.5609625e-20    0.0035069261        15925793   1.9158958e-08               0
     0.18918919               0               0               0    -0.001921029  -3.2763888e-09   3.0164793e-20    0.0034899828        15925793   1.8973037e-08               0
     0.19129129               0               0               0   -0.0019138319  -3.1888574e-09   1.0775528e-19    0.0034734395        15925793   1.8793762e-08               0
     0.19339339               0               0               0   -0.0019067141  -3.1029347e-09   1.5838883e-19    0.0034570457        15925793   1.8616824e-08               0
      0.1954955               0               0               0   -0.0018999562   -3.024314e-09   8.6666767e-20    0.0034413304        15925793   1.8450491e-08               0
      0.1975976               0               0               0   -0.0018931983  -2.9456933e-09     1.49447e-20    0.0034256151        15925793   1.8284159e-08               0
      0.1996997               0               0               0   -0.0018867584  -2.8730283e-09               0    0.0034106244        15925793   1.8127055e-08               0
      0.2018018               0               0               0   -0.0018804021  -2.8019309e-09               0    0.0033958244        15925793    1.797238e-08               0
      0.2039039               0               0               0   -0.0018741822  -2.7334818e-09  -2.0239556e-20    0.0033812017        15925793   1.7821617e-08               0
     0.20600601               0               0               0   -0.0018681949  -2.6695522e-09  -7.5020257e-20    0.0033668814        15925793   1.7677529e-08               0
     0.20810811               0               0               0   -0.0018622077  -2.6056226e-09  -1.2980096e-19     0.003352561        15925793   1.7533442e-08               0
     0.21021021               0               0               0   -0.0018565254  -2.5473766e-09  -1.3457712e-19     0.003338846        15925793   1.7398067e-08               0
     0.21231231               0               0               0   -0.0018508724  -2.4896734e-09  -1.3457715e-19    0.0033251888        15925793   1.7263523e-08               0
     0.21441441               0               0               0   -0.0018453495  -2.4340571e-09   -1.122111e-19    0.0033118818        15925793   1.7132637e-08               0
     0.21651652               0               0               0   -0.0018400062  -2.3813177e-09  -5.9008483e-20    0.0032990576        15925793   1.7006793e-08               0
     0.21861862               0               0               0    -0.001834663  -2.3285783e-09  -5.8058692e-21    0.0032862334        15925793   1.6880949e-08               0
     0.22072072               0               0               0   -0.0018295754  -2.2806295e-09               0     0.003273652        15925793   1.6762197e-08               0
     0.22282282               0               0               0   -0.0018245193  -2.2332675e-09               0    0.0032611005        15925793   1.6644314e-08               0
     0.22492492               0               0               0   -0.0018195462  -2.1874231e-09               0     0.003248711        15925793   1.6528734e-08               0
     0.22702703               0               0               0   -0.0018147475  -2.1447617e-09               0    0.0032366617        15925793   1.6417983e-08               0
     0.22912913               0               0               0   -0.0018099488  -2.1021003e-09               0    0.0032246123        15925793   1.6307231e-08               0
     0.23123123               0               0               0   -0.0018053222  -2.0617308e-09  -2.7820833e-20    0.0032130768        15925793   1.6201179e-08               0
     0.23333333               0               0               0   -0.0018007642  -2.0222752e-09  -6.6736494e-20    0.0032017461        15925793   1.6097001e-08               0
     0.23543544               0               0               0   -0.0017962211  -1.9830541e-09  -1.0071498e-19    0.0031904285        15925793   1.5993224e-08               0
     0.23753754               0               0               0   -0.0017918901  -1.9471776e-09   -6.423915e-20    0.0031792978        15925793   1.5895155e-08               0
     0.23963964               0               0               0   -0.0017875591  -1.9113011e-09   -2.776332e-20    0.0031681671        15925793   1.5797086e-08               0
     0.24174174               0               0               0   -0.0017833047  -1.8766991e-09   9.1574217e-21    0.0031571522        15925793   1.5701083e-08               0
     0.24384384               0               0               0   -0.0017791792  -1.8442391e-09   4.6825924e-20    0.0031463319        15925793   1.5608553e-08               0
     0.24594595               0               0               0   -0.0017750537  -1.8117791e-09   8.4494427e-20    0.0031355116        15925793   1.5516023e-08               0
     0.24804805               0               0               0   -0.0017710505   -1.780758e-09    7.577343e-20    0.0031250783        15925793   1.5426756e-08               0
     0.25015015               0               0               0   -0.0017671174  -1.7505607e-09   4.0491304e-20    0.0031148666        15925793   1.5339358e-08               0
     0.25225225               0               0               0   -0.0017631843  -1.7203634e-09   5.2091788e-21    0.0031046548        15925793    1.525196e-08               0
     0.25435435               0               0               0   -0.0017594078  -1.6922618e-09               0    0.0030946985        15925793   1.5168656e-08               0
     0.25645646               0               0               0   -0.0017556585  -1.6645233e-09               0    0.0030847864        15925793   1.5086061e-08               0
     0.25855856               0               0               0   -0.0017519126  -1.6368414e-09   5.8296527e-22    0.0030748763        15925793   1.5003556e-08               0
     0.26066066               0               0               0   -0.0017483311  -1.6118544e-09   2.8889274e-20    0.0030650615        15925793    1.492534e-08               0
     0.26276276               0               0               0   -0.0017447495  -1.5868673e-09   5.7195582e-20    0.0030552468        15925793   1.4847124e-08               0
     0.26486486               0               0               0   -0.0017411894    -1.56213e-09    8.157497e-20    0.0030454938        15925793    1.476947e-08               0
     0.26696697               0               0               0   -0.0017377625  -1.5389433e-09    8.157499e-20    0.0030361248        15925793    1.469531e-08               0
     0.26906907               0               0               0   -0.0017343357  -1.5157566e-09   8.1575009e-20    0.0030267558        15925793   1.4621149e-08               0
     0.27117117               0               0               0   -0.0017309396  -1.4928562e-09   7.5984464e-20    0.0030174914        15925793   1.4547775e-08               0
     0.27327327               0               0               0   -0.0017276626  -1.4710673e-09    4.868451e-20    0.0030086332        15925793   1.4477451e-08               0
     0.27537538               0               0               0   -0.0017243857  -1.4492784e-09   2.1384556e-20     0.002999775        15925793   1.4407128e-08               0
     0.27747748               0               0               0   -0.0017211393  -1.4279141e-09   -5.094192e-21    0.0029909301        15925793   1.4337575e-08               0
     0.27957958               0               0               0   -0.0017180038  -1.4080845e-09  -2.8604226e-20    0.0029821334        15925793   1.4270809e-08               0
     0.28168168               0               0               0   -0.0017148682   -1.388255e-09  -5.2114259e-20    0.0029733367        15925793   1.4204042e-08               0
     0.28378378               0               0               0   -0.0017117549  -1.3687351e-09  -7.1574635e-20    0.0029645509        15925793   1.4137841e-08               0
     0.28588589               0               0               0   -0.0017087482  -1.3507033e-09  -7.1574654e-20    0.0029558175        15925793   1.4074353e-08               0
     0.28798799               0               0               0   -0.0017057414  -1.3326714e-09  -7.1574673e-20    0.0029470841        15925793   1.4010866e-08               0
     0.29009009               0               0               0   -0.0017027431  -1.3147308e-09  -7.0008977e-20    0.0029383826        15925793   1.3947594e-08               0
     0.29219219               0               0               0   -0.0016998583  -1.2980164e-09    -4.73877e-20    0.0029301092        15925793   1.3887211e-08               0
     0.29429429               0               0               0   -0.0016969734  -1.2813021e-09  -2.4766423e-20    0.0029218358        15925793   1.3826829e-08               0
      0.2963964               0               0               0   -0.0016940885  -1.2645878e-09  -2.1451462e-21    0.0029135624        15925793   1.3766446e-08               0
      0.2984985               0               0               0   -0.0016913076     -1.2492e-09               0    0.0029056561        15925793   1.3708575e-08               0
      0.3006006               0               0               0   -0.0016885376  -1.2339513e-09               0    0.0028977883        15925793   1.3650966e-08               0
      0.3027027               0               0               0   -0.0016857676  -1.2187025e-09               0    0.0028899204        15925793   1.3593358e-08               0
      0.3048048               0               0               0   -0.0016830689  -1.2043267e-09   1.2556926e-20    0.0028820527        15925793   1.3537415e-08               0
     0.30690691               0               0               0   -0.0016804042  -1.1903661e-09   3.1088224e-20    0.0028741851        15925793   1.3482263e-08               0
     0.30900901               0               0               0   -0.0016777394  -1.1764056e-09   4.9619521e-20    0.0028663174        15925793   1.3427112e-08               0
     0.31111111               0               0               0   -0.0016751133  -1.1627183e-09   5.7687836e-20    0.0028584704        15925793   1.3372901e-08               0
     0.31321321               0               0               0   -0.0016725492  -1.1494696e-09   4.8962712e-20    0.0028506566        15925793     1.33202e-08               0
     0.31531532               0               0               0   -0.0016699851  -1.1362209e-09   4.0237587e-20    0.0028428428        15925793   1.3267498e-08               0
     0.31741742               0               0               0    -0.001667423   -1.122983e-09   3.1668526e-20    0.0028350374        15925793   1.3214849e-08               0
     0.31951952               0               0               0   -0.0016649579  -1.1102446e-09   3.0310954e-20    0.0028276243        15925793   1.3164595e-08               0
     0.32162162               0               0               0   -0.0016624928  -1.0975063e-09   2.8953382e-20    0.0028202112        15925793   1.3114341e-08               0
     0.32372372               0               0               0   -0.0016600277  -1.0847679e-09    2.759581e-20    0.0028127982        15925793   1.3064087e-08               0
     0.32582583               0               0               0   -0.0016576194   -1.072454e-09   3.1938614e-20    0.0028055949        15925793   1.3015199e-08               0
     0.32792793               0               0               0   -0.0016552511  -1.0604393e-09   4.0298647e-20    0.0027985395        15925793   1.2967273e-08               0
     0.33003003               0               0               0   -0.0016528829  -1.0484246e-09   4.8658679e-20    0.0027914841        15925793   1.2919346e-08               0
     0.33213213               0               0               0   -0.0016505217  -1.0364855e-09   5.5164108e-20    0.0027844304        15925793   1.2871588e-08               0
     0.33423423               0               0               0   -0.0016482452  -1.0254526e-09   3.9451263e-20    0.0027773964        15925793   1.2825838e-08               0
     0.33633634               0               0               0   -0.0016459688  -1.0144198e-09   2.3738418e-20    0.0027703624        15925793   1.2780088e-08               0
     0.33843844               0               0               0   -0.0016436923   -1.003387e-09   8.0255734e-21    0.0027633285        15925793   1.2734338e-08               0
     0.34054054               0               0               0   -0.0016414576  -9.9277962e-10  -1.0041751e-20     0.002756303        15925793   1.2689593e-08               0
     0.34264264               0               0               0   -0.0016392666  -9.8261649e-10  -3.0567171e-20    0.0027492865        15925793   1.2645897e-08               0
     0.34474474               0               0               0   -0.0016370755  -9.7245337e-10  -5.1092591e-20      0.00274227        15925793   1.2602201e-08               0
     0.34684685               0               0               0   -0.0016348845  -9.6229024e-10  -7.1618012e-20    0.0027352536        15925793   1.2558505e-08               0
     0.34894895               0               0               0   -0.0016327603  -9.5261872e-10  -7.5317941e-20    0.0027284639        15925793   1.2516419e-08               0
     0.35105105               0               0               0   -0.0016306509   -9.430553e-10   -7.531797e-20    0.0027217241        15925793   1.2474687e-08               0
     0.35315315               0               0               0   -0.0016285415  -9.3349188e-10  -7.5317999e-20    0.0027149843        15925793   1.2432954e-08               0