#      distance             U_x             U_y             U_z               p         epsilon               k             nut
  5.5511169e-17      0.99945372   3.5239309e-22               0    0.0044291291   6.5871467e-06     0.000148468   0.00030116971
   0.0021021021      0.99943739   3.5239309e-22               0    0.0044449944   6.5870326e-06    0.0001484536   0.00030111651
   0.0042042042      0.99942106   3.5239309e-22               0    0.0044608598   6.5869186e-06    0.0001484392   0.00030106331
   0.0063063063      0.99940473   3.5239309e-22               0    0.0044767251   6.5868045e-06    0.0001484248   0.00030101011
   0.0084084084       0.9993884   3.5239309e-22               0    0.0044925904   6.5866904e-06    0.0001484104   0.00030095691
    0.010510511      0.99937207   3.5239309e-22               0    0.0045084557   6.5865764e-06     0.000148396   0.00030090371
    0.012612613      0.99935573   3.5239309e-22               0     0.004524321   6.5864623e-06    0.0001483816   0.00030085051
    0.014714715       0.9993394   3.5239309e-22               0    0.0045401864   6.5863483e-06    0.0001483672    0.0003007973
    0.016816817      0.99932307   3.5239309e-22               0    0.0045560517   6.5862342e-06    0.0001483528    0.0003007441
    0.018918919      0.99930674   3.5239309e-22               0     0.004571917   6.5861201e-06    0.0001483384    0.0003006909
    0.021021021      0.99929041   3.5239309e-22               0    0.0045877823   6.5860061e-06     0.000148324    0.0003006377
    0.023123123      0.99926415   5.6772272e-22               0    0.0046142102   6.5859613e-06   0.00014830986   0.00030058242
    0.025225225      0.99923757   5.6772272e-22               0    0.0046409835   6.5859188e-06   0.00014829572   0.00030052706
    0.027327327      0.99921099   5.6772272e-22               0    0.0046677568   6.5858763e-06   0.00014828158   0.00030047171
    0.029429429      0.99918441   5.6772272e-22               0    0.0046945301   6.5858338e-06   0.00014826744   0.00030041636
    0.031531532      0.99915783   5.6772272e-22               0    0.0047213034   6.5857912e-06    0.0001482533     0.000300361
    0.033633634      0.99913125   5.6772272e-22               0    0.0047480766   6.5857487e-06   0.00014823916   0.00030030565
    0.035735736      0.99910466   5.6772272e-22               0    0.0047748499   6.5857062e-06   0.00014822502    0.0003002503
    0.037837838      0.99907808   5.6772272e-22               0    0.0048016232   6.5856637e-06   0.00014821088   0.00030019494
     0.03993994       0.9990515   5.6772272e-22               0    0.0048283965   6.5856212e-06   0.00014819674   0.00030013959
    0.042042042      0.99902492   5.6772272e-22               0    0.0048551698   6.5855787e-06    0.0001481826   0.00030008424
    0.044144144      0.99899834   5.6772272e-22               0     0.004881943   6.5855362e-06   0.00014816846   0.00030002888
    0.046246246      0.99897176   5.6772272e-22               0    0.0049087163   6.5854937e-06   0.00014815432   0.00029997353
    0.048348348      0.99893241   9.8825179e-22               0      0.00494627   6.5855433e-06   0.00014814058   0.00029991563
     0.05045045       0.9988868   9.8825179e-22               0    0.0049891166   6.5856381e-06   0.00014812703   0.00029985648
    0.052552553      0.99884119   9.8825179e-22               0    0.0050319631   6.5857329e-06   0.00014811348   0.00029979733
    0.054654655      0.99879557   9.8825179e-22               0    0.0050748097   6.5858277e-06   0.00014809994   0.00029973818
    0.056756757      0.99874996   9.8825179e-22               0    0.0051176563   6.5859225e-06   0.00014808639   0.00029967903
    0.058858859      0.99870435   9.8825179e-22               0    0.0051605029   6.5860174e-06   0.00014807284   0.00029961988
    0.060960961      0.99865874   9.8825179e-22               0    0.0052033495   6.5861122e-06   0.00014805929   0.00029956073
    0.063063063      0.99861312   9.8825179e-22               0    0.0052461961    6.586207e-06   0.00014804575   0.00029950158
    0.065165165      0.99856751   9.8825179e-22               0    0.0052890426   6.5863018e-06    0.0001480322   0.00029944243
    0.067267267      0.99849973   1.5195146e-21               0    0.0053595989   6.5866853e-06   0.00014802112   0.00029938019
    0.069369369      0.99842819   1.5195146e-21               0     0.005434859   6.5871177e-06   0.00014801045   0.00029931742
    0.071471471      0.99835664   1.5195146e-21               0    0.0055101192   6.5875501e-06   0.00014799979   0.00029925465
    0.073573574       0.9982851   1.5195146e-21               0    0.0055853793   6.5879826e-06   0.00014798912   0.00029919188
    0.075675676      0.99821356   1.5195146e-21               0    0.0056606394    6.588415e-06   0.00014797846   0.00029912911
    0.077777778      0.99814202   1.5195146e-21               0    0.0057358995   6.5888474e-06   0.00014796779   0.00029906634
     0.07987988      0.99802732   3.3599463e-21   5.1415707e-21     0.005836682   6.6013693e-06   0.00014796323   0.00029849626
    0.081981982      0.99787513   3.3599463e-21   1.4750682e-20     0.005959641   6.6243958e-06   0.00014796398   0.00029748536
    0.084084084      0.99772293   3.3599463e-21   2.4359792e-20       0.0060826   6.6474223e-06   0.00014796472   0.00029647447
    0.086186186      0.99757074   3.3599463e-21   3.3968903e-20     0.006205559   6.6704488e-06   0.00014796546   0.00029546357
    0.088288288      0.99741814   5.5691729e-21   4.3521855e-20    0.0063295199   6.7144676e-06   0.00014796712   0.00029428514
     0.09039039      0.99717658   5.5691729e-21   4.0881369e-20    0.0066710103   1.1316367e-05   0.00014816603   0.00025673165
    0.092492492      0.99693503   5.5691729e-21   3.8240884e-20    0.0070125007   1.5918267e-05   0.00014836494   0.00021917816
    0.094594595      0.99669348   5.5691729e-21   3.5600399e-20    0.0073539911   2.0520166e-05   0.00014856385   0.00018162467
    0.096696697      0.83460158   6.9788665e-20   2.0807522e-20    0.0077880937    0.0027263142   0.00028298895   0.00012554192
    0.098798799      0.62050098   6.9788665e-20   2.1096174e-21     0.008251956    0.0063001047   0.00046054605   6.3505004e-05
      0.1009009      0.35489453   7.5170216e-20  -6.1088778e-21    0.0084823315     0.018115122   0.00086451036   2.0321628e-05
       0.103003     0.020613607   7.5170216e-20  -3.5482656e-22     0.008401391     0.040918442    0.0015703509   2.2762983e-06
     0.10510511   1.0834507e-16   1.7071782e-19               0    0.0078285816       0.0877585    0.0024777424    1.156166e-06
     0.10720721   1.0696372e-16   2.3950758e-19               0    0.0072510655      0.14561296    0.0034201081   1.1481606e-06
     0.10930931   1.0696372e-16   2.3950758e-19               0     0.006714579      0.21748391    0.0043947545   1.1399114e-06
     0.11141141   1.0549998e-16   2.8371903e-19               0    0.0063934327      0.29785862    0.0052912613   1.1315672e-06
     0.11351351   1.0399828e-16   3.1333062e-19               0    0.0061376394      0.37930361    0.0061382103    1.123221e-06
     0.11561562   1.0399828e-16   3.1333062e-19               0    0.0059590863      0.45724262    0.0068449604   1.1149564e-06
     0.11771772   1.0248897e-16   3.3156382e-19               0    0.0057898812      0.52788442    0.0074549153   1.1067988e-06
     0.11981982   1.0248897e-16   3.3156382e-19               0    0.0056298294      0.59138114    0.0079700931   1.0987458e-06
     0.12192192   1.0098321e-16   3.4037732e-19               0     0.005485649      0.64065493    0.0083501492   1.0908837e-06
     0.12402402   1.0098321e-16   3.4037732e-19               0    0.0053461664      0.68571878    0.0086902099   1.0830782e-06
     0.12612613   9.9485895e-17   3.4053159e-19               0    0.0052292986      0.71341453    0.0088903619   1.0755324e-06
     0.12822823   9.8001572e-17   3.3611828e-19               0    0.0051151323      0.73879568    0.0090732565   1.0680299e-06
     0.13033033   9.8001572e-17   3.3611828e-19               0    0.0050150644      0.75191068    0.0091656675   1.0607638e-06
     0.13243243   9.6534064e-17   3.2637665e-19               0    0.0049177571      0.76249951    0.0092402313   1.0535667e-06
     0.13453453   9.6534064e-17   3.2637665e-19               0    0.0048289822      0.76528075    0.0092596354   1.0465832e-06
     0.13663664    9.508645e-17   3.1293326e-19               0    0.0047426606      0.76611082    0.0092654267    1.039682e-06
     0.13873874    9.508645e-17   3.1293326e-19               0    0.0046624124      0.76211073      0.00923752   1.0329842e-06
     0.14084084   9.3661208e-17   2.9686698e-19               0    0.0045842319      0.75701469    0.0092018659   1.0263643e-06
     0.14294294   9.3661208e-17   2.9686698e-19               0    0.0045116169      0.74896872    0.0091453587   1.0199538e-06
     0.14504505    9.226107e-17    2.788713e-19               0    0.0044401729      0.74051389    0.0090858277    1.013599e-06
     0.14714715    9.226107e-17    2.788713e-19               0    0.0043736541      0.73033923    0.0090135776    1.007478e-06
     0.14924925   9.0889076e-17   2.5942322e-19               0     0.004307366      0.72012139    0.0089409669   1.0013715e-06
     0.15135135   9.0889076e-17   2.5942322e-19               0    0.0042455179      0.70907284    0.0088614193   9.9554347e-07
     0.15345345   9.0889076e-17   2.5942322e-19               0    0.0041836698      0.69802429    0.0087818716   9.8971548e-07
     0.15555556   8.9548854e-17   2.3887401e-19               0    0.0041253172      0.68689541    0.0087006914   9.8413931e-07
     0.15765766   8.9548854e-17   2.3887401e-19               0    0.0040676259      0.67575133    0.0086192024    9.786108e-07
     0.15975976   8.8245219e-17   2.1739744e-19               0    0.0040119625      0.66481662    0.0085385083   9.7325842e-07
     0.16186186   8.8245219e-17   2.1739744e-19               0    0.0039578633      0.65404339    0.0084584275    9.680419e-07
     0.16396396   8.6985238e-17   1.9502568e-19               0    0.0039046257      0.64341196    0.0083791231   9.6289827e-07
     0.16606607   8.6985238e-17   1.9502568e-19               0    0.0038544742      0.63328839    0.0083025991   9.5801574e-07
     0.16816817   8.6985238e-17   1.9502568e-19               0    0.0038043227      0.62316481    0.0082260752    9.531332e-07
     0.17027027   8.5779255e-17   1.7223705e-19               0    0.0037577794      0.61369031    0.0081535092   9.4853614e-07
     0.17237237   8.5779255e-17   1.7223705e-19               0    0.0037121387      0.60437819    0.0080819335    9.440105e-07
     0.17447447   8.4635993e-17   1.4967581e-19               0    0.0036678461      0.59534221    0.0080121538   9.3959919e-07
     0.17657658   8.4635993e-17   1.4967581e-19               0    0.0036265933      0.58692893    0.0079464242    9.354457e-07
     0.17867868   8.4635993e-17   1.4967581e-19               0    0.0035853406      0.57851566    0.0078806946   9.3129222e-07
     0.18078078   8.3563022e-17   1.2761585e-19               0    0.0035471889      0.57080016    0.0078197397   9.2742047e-07
     0.18288288   8.3563022e-17   1.2761585e-19               0    0.0035101384      0.56333241      0.00776048   9.2364875e-07
     0.18498498   8.2567022e-17   1.0612694e-19               0    0.0034734711      0.55595164    0.0077018424   9.1991172e-07
     0.18708709   8.2567022e-17   1.0612694e-19               0    0.0034406888      0.54945256    0.0076495099   9.1652632e-07
     0.18918919   8.2567022e-17   1.0612694e-19               0    0.0034079065      0.54295349    0.0075971774   9.1314092e-07
     0.19129129   8.1653582e-17   8.5526444e-20               0    0.0033766828      0.53680541    0.0075474553   9.0989421e-07
     0.19339339   8.1653582e-17   8.5526444e-20               0    0.0033482272      0.53128063    0.0075023687    9.068938e-07
      0.1954955   8.1653582e-17   8.5526444e-20               0    0.0033197716      0.52575586    0.0074572821    9.038934e-07
      0.1975976   8.0826688e-17   6.6257896e-20               0    0.0032937051      0.52075708     0.007416244   9.0109971e-07
      0.1996997   8.0826688e-17   6.6257896e-20               0    0.0032696183      0.51619416    0.0073785608   8.9847734e-07
      0.2018018   8.0826688e-17   6.6257896e-20               0    0.0032455315      0.51163124    0.0073408775   8.9585496e-07
      0.2039039   8.0089038e-17   4.8810063e-20               0    0.0032242489      0.50766948    0.0073079592   8.9346802e-07
     0.20600601   8.0089038e-17   4.8810063e-20               0    0.0032044962      0.50403566    0.0072776405   8.9120951e-07
     0.20810811   8.0089038e-17   4.8810063e-20               0    0.0031847435      0.50040185    0.0072473218     8.88951e-07
     0.21021021   7.9440434e-17   3.3625143e-20               0     0.003167616      0.49733933     0.007221641   8.8691504e-07
     0.21231231   7.9440434e-17   3.3625143e-20               0    0.0031518525      0.49457361      0.00719837   8.8499471e-07
     0.21441441   7.9440434e-17   3.3625143e-20               0     0.003136089      0.49180789    0.0071750989   8.8307437e-07
     0.21651652   7.8876161e-17   2.1386293e-20               0    0.0031223939      0.48948037    0.0071554499    8.813275e-07
     0.21861862   7.8876161e-17   2.1386293e-20               0    0.0031102129      0.48747365    0.0071384526   8.7970761e-07
     0.22072072   7.8876161e-17   2.1386293e-20               0     0.003098032      0.48546692    0.0071214553   8.7808772e-07
     0.22282282   7.8387432e-17   1.2635486e-20               0    0.0030871016      0.48370389    0.0071064982   8.7657011e-07
     0.22492492   7.8387432e-17   1.2635486e-20               0    0.0030780318      0.48230345    0.0070945769   8.7520467e-07
     0.22702703   7.8387432e-17   1.2635486e-20               0    0.0030689621      0.48090301    0.0070826556   8.7383923e-07
     0.22912913   7.7962469e-17   7.4182698e-21               0    0.0030601566      0.47955755    0.0070711983   8.7250008e-07
     0.23123123   7.7962469e-17   7.4182698e-21               0    0.0030531358      0.47858339    0.0070628751   8.7133845e-07
     0.23333333   7.7962469e-17   7.4182698e-21               0     0.003046115      0.47760923    0.0070545519   8.7017682e-07
     0.23543544   7.7962469e-17   7.4182698e-21               0    0.0030390942      0.47663507    0.0070462287    8.690152e-07
     0.23753754   7.7587148e-17   5.2833256e-21               0    0.0030327262      0.47583883    0.0070394122   8.6796915e-07
     0.23963964   7.7587148e-17   5.2833256e-21               0    0.0030265696      0.47510017    0.0070330834   8.6696052e-07
     0.24174174   7.7587148e-17   5.2833256e-21               0    0.0030204129      0.47436151    0.0070267546   8.6595188e-07
     0.24384384   7.7246955e-17   5.4727899e-21               0    0.0030142639      0.47364268    0.0070205918   8.6497337e-07
     0.24594595   7.7246955e-17   5.4727899e-21               0     0.003008135      0.47297524    0.0070148596   8.6407295e-07
     0.24804805   7.7246955e-17   5.4727899e-21               0    0.0030020061       0.4723078    0.0070091274   8.6317253e-07
     0.25015015   7.7246955e-17   5.4727899e-21               0    0.0029958772      0.47164036    0.0070033952   8.6227211e-07
     0.25225225    7.692938e-17   7.0285315e-21               0     0.002989426      0.47094795    0.0069974385   8.6142315e-07
     0.25435435    7.692938e-17   7.0285315e-21               0     0.002982833      0.47024455    0.0069913832   8.6059685e-07
     0.25645646    7.692938e-17   7.0285315e-21               0      0.00297624      0.46954115    0.0069853278   8.5977055e-07
     0.25855856   7.6625322e-17   9.0122321e-21               0    0.0029696468      0.46883773    0.0069792722   8.5894426e-07
     0.26066066   7.6625322e-17   9.0122321e-21               0    0.0029624663      0.46805517    0.0069725178   8.5816948e-07
     0.26276276   7.6625322e-17   9.0122321e-21               0    0.0029552858      0.46727262    0.0069657634    8.573947e-07
     0.26486486   7.6625322e-17   9.0122321e-21               0    0.0029481053      0.46649006     0.006959009   8.5661992e-07
     0.26696697   7.6329091e-17   1.0756369e-20               0    0.0029408633      0.46569377    0.0069521319   8.5585251e-07
     0.26906907   7.6329091e-17   1.0756369e-20               0    0.0029333637      0.46483994    0.0069447407   8.5511601e-07
     0.27117117   7.6329091e-17   1.0756369e-20               0    0.0029258641      0.46398611    0.0069373495    8.543795e-07
     0.27327327   7.6329091e-17   1.0756369e-20               0    0.0029183645      0.46313229    0.0069299583     8.53643e-07
     0.27537538   7.6037624e-17   1.1905343e-20               0    0.0029108771      0.46226832    0.0069224727   8.5291488e-07
     0.27747748   7.6037624e-17   1.1905343e-20               0     0.002903423      0.46137667    0.0069147291   8.5220968e-07
     0.27957958   7.6037624e-17   1.1905343e-20               0    0.0028959689      0.46048503    0.0069069856   8.5150447e-07
     0.28168168   7.6037624e-17   1.1905343e-20               0    0.0028885147      0.45959338     0.006899242   8.5079926e-07
     0.28378378   7.5749533e-17    1.241856e-20               0    0.0028810677       0.4587007    0.0068914835   8.5010013e-07
     0.28588589   7.5749533e-17    1.241856e-20               0    0.0028736455      0.45780442    0.0068836727   8.4942218e-07
     0.28798799   7.5749533e-17    1.241856e-20               0    0.0028662232      0.45690813     0.006875862   8.4874424e-07
     0.29009009   7.5749533e-17    1.241856e-20               0    0.0028588009      0.45601184    0.0068680512   8.4806629e-07
     0.29219219   7.5463803e-17   1.2524779e-20               0    0.0028513743      0.45511635    0.0068602459   8.4738961e-07
     0.29429429   7.5463803e-17   1.2524779e-20               0    0.0028438703      0.45423486    0.0068525366   8.4673526e-07
      0.2963964   7.5463803e-17   1.2524779e-20               0    0.0028363663      0.45335337    0.0068448273   8.4608091e-07
      0.2984985   7.5463803e-17   1.2524779e-20               0    0.0028288623      0.45247188    0.0068371179   8.4542657e-07
      0.3006006   7.5463803e-17   1.2524779e-20               0    0.0028213583      0.45159039    0.0068294086   8.4477222e-07
      0.3027027   7.5179115e-17   1.2512399e-20               0    0.0028137859      0.45072358    0.0068218068   8.4413278e-07
      0.3048048   7.5179115e-17   1.2512399e-20               0    0.0028061914      0.44986151    0.0068142397   8.4349816e-07
     0.30690691   7.5179115e-17   1.2512399e-20               0    0.0027985968      0.44899944    0.0068066726   8.4286354e-07
     0.30900901   7.5179115e-17   1.2512399e-20               0    0.0027910023      0.44813737    0.0067991055   8.4222891e-07
     0.31111111   7.4894025e-17   1.2575679e-20               0    0.0027833815       0.4472805    0.0067915749   8.4159963e-07
     0.31321321   7.4894025e-17   1.2575679e-20               0    0.0027757065      0.44643435    0.0067841197   8.4098134e-07
     0.31531532   7.4894025e-17   1.2575679e-20               0    0.0027680315      0.44558819    0.0067766645   8.4036306e-07
     0.31741742   7.4894025e-17   1.2575679e-20               0    0.0027603564      0.44474203    0.0067692093   8.3974478e-07
     0.31951952   7.4894025e-17   1.2575679e-20               0    0.0027526814      0.44389588    0.0067617541    8.391265e-07
     0.32162162   7.4607399e-17   1.2765139e-20               0    0.0027450484      0.44305904    0.0067543597   8.3851918e-07
     0.32372372   7.4607399e-17   1.2765139e-20               0    0.0027374287      0.44222514    0.0067469845   8.3791531e-07
     0.32582583   7.4607399e-17   1.2765139e-20               0    0.0027298089      0.44139124    0.0067396092   8.3731143e-07
     0.32792793   7.4607399e-17   1.2765139e-20               0    0.0027221892      0.44055734    0.0067322339   8.3670756e-07
     0.33003003   7.4318932e-17   1.2993623e-20               0    0.0027145794      0.43972416    0.0067248635   8.3610449e-07
     0.33213213   7.4318932e-17   1.2993623e-20               0    0.0027071418      0.43890349    0.0067175769    8.355151e-07
     0.33423423   7.4318932e-17   1.2993623e-20               0    0.0026997041      0.43808281    0.0067102903   8.3492571e-07
     0.33633634   7.4318932e-17   1.2993623e-20               0    0.0026922665      0.43726214    0.0067030037   8.3433633e-07
     0.33843844   7.4318932e-17   1.2993623e-20               0    0.0026848288      0.43644146    0.0066957171   8.3374694e-07
     0.34054054   7.4029316e-17   1.3157823e-20               0    0.0026774219      0.43562463    0.0066884589   8.3316084e-07
     0.34264264   7.4029316e-17   1.3157823e-20               0    0.0026701344      0.43482274    0.0066813107   8.3258748e-07
     0.34474474   7.4029316e-17   1.3157823e-20               0    0.0026628469      0.43402085    0.0066741626   8.3201413e-07
     0.34684685   7.4029316e-17   1.3157823e-20               0    0.0026555594      0.43321896    0.0066670145   8.3144078e-07
     0.34894895   7.4029316e-17   1.3157823e-20               0    0.0026482719      0.43241706    0.0066598664   8.3086743e-07
     0.35105105   7.3739761e-17   1.3199813e-20               0    0.0026410098      0.43162046    0.0066527597   8.3029775e-07
     0.35315315   7.3739761e-17   1.3199813e-20               0    0.0026338463      0.43084433    0.0066458134    8.297423e-07
     0.35525526   7.3739761e-17   1.3199813e-20               0    0.0026266828       0.4300682    0.0066388671   8.2918684e-07
     0.35735736   7.3739761e-17   1.3199813e-20               0    0.0026195193      0.42929207    0.0066319208   8.2863139e-07
     0.35945946   7.3739761e-17   1.3199813e-20               0    0.0026123558      0.42851594    0.0066249745   8.2807594e-07
     0.36156156   7.3451454e-17   1.3104865e-20               0    0.0026052011      0.42774142    0.0066180413   8.2752149e-07
     0.36366366   7.3451454e-17   1.3104865e-20               0    0.0025982072      0.42699618    0.0066113445   8.2698519e-07
     0.36576577   7.3451454e-17   1.3104865e-20               0    0.0025912132      0.42625093    0.0066046477   8.2644889e-07
     0.36786787   7.3451454e-17   1.3104865e-20               0    0.0025842193      0.42550569     0.006597951   8.2591259e-07
     0.36996997   7.3451454e-17   1.3104865e-20               0    0.0025772253      0.42476045    0.0065912542   8.2537629e-07
     0.37207207   7.3451454e-17   1.3104865e-20               0    0.0025702314       0.4240152    0.0065845575   8.2483999e-07
     0.37417417   7.3165143e-17   1.2901714e-20               0    0.0025634143      0.42329421    0.0065780596   8.2431814e-07
     0.37627628   7.3165143e-17   1.2901714e-20               0    0.0025566591      0.42258171    0.0065716313   8.2380134e-07
     0.37837838   7.3165143e-17   1.2901714e-20               0     0.002549904      0.42186921     0.006565203   8.2328455e-07
     0.38048048   7.3165143e-17   1.2901714e-20               0    0.0025431488      0.42115671    0.0065587748   8.2276776e-07
     0.38258258   7.3165143e-17   1.2901714e-20               0    0.0025363936      0.42044421    0.0065523465   8.2225097e-07
     0.38468468   7.2881182e-17   1.2627168e-20               0    0.0025297083      0.41974028     0.006545989   8.2173932e-07
     0.38678679   7.2881182e-17   1.2627168e-20               0    0.0025232153      0.41905997    0.0065398266   8.2124188e-07
     0.38888889   7.2881182e-17   1.2627168e-20               0    0.0025167224      0.41837966    0.0065336641   8.2074444e-07
     0.39099099   7.2881182e-17   1.2627168e-20               0    0.0025102295      0.41769934    0.0065275017     8.20247e-07
     0.39309309   7.2881182e-17   1.2627168e-20               0    0.0025037366      0.41701903    0.0065213393   8.1974955e-07
      0.3951952   7.2881182e-17   1.2627168e-20               0    0.0024972437      0.41633872    0.0065151769   8.1925211e-07
      0.3972973   7.2599809e-17   1.2310797e-20               0    0.0024908726      0.41567765    0.0065091742   8.1876657e-07
      0.3993994   7.2599809e-17   1.2310797e-20               0    0.0024845751      0.41502819    0.0065032679   8.1828821e-07
      0.4015015   7.2599809e-17   1.2310797e-20               0    0.0024782776      0.41437874    0.0064973616   8.1780986e-07
      0.4036036   7.2599809e-17   1.2310797e-20               0    0.0024719801      0.41372929    0.0064914553   8.1733151e-07
     0.40570571   7.2599809e-17   1.2310797e-20               0    0.0024656826      0.41307983     0.006485549   8.1685315e-07
     0.40780781   7.2599809e-17   1.2310797e-20               0    0.0024593851      0.41243038    0.0064796428    8.163748e-07
     0.40990991   7.2321285e-17   1.1969198e-20               0    0.0024532082       0.4118049    0.0064739366   8.1591163e-07
     0.41201201   7.2321285e-17   1.1969198e-20               0    0.0024470602      0.41118514    0.0064682782   8.1545209e-07
     0.41411411   7.2321285e-17   1.1969198e-20               0    0.0024409121      0.41056539    0.0064626198   8.1499254e-07
     0.41621622   7.2321285e-17   1.1969198e-20               0     0.002434764      0.40994563    0.0064569614     8.14533e-07
     0.41831832   7.2321285e-17   1.1969198e-20               0    0.0024286159      0.40932588     0.006451303   8.1407345e-07
     0.42042042   7.2321285e-17   1.1969198e-20               0    0.0024224679      0.40870612    0.0064456446   8.1361391e-07
     0.42252252   7.2045839e-17   1.1610335e-20               0    0.0024164753      0.40810973    0.0064401823   8.1316936e-07
     0.42462462   7.2045839e-17   1.1610335e-20               0    0.0024105187      0.40751872    0.0064347653   8.1272828e-07
     0.42672673   7.2045839e-17   1.1610335e-20               0    0.0024045621      0.40692771    0.0064293483   8.1228719e-07
     0.42882883   7.2045839e-17   1.1610335e-20               0    0.0023986054      0.40633671    0.0064239312    8.118461e-07
     0.43093093   7.2045839e-17   1.1610335e-20               0    0.0023926488       0.4057457    0.0064185142   8.1140502e-07
     0.43303303   7.2045839e-17   1.1610335e-20               0    0.0023866922      0.40515469    0.0064130972   8.1096393e-07
     0.43513514   7.1773659e-17   1.1237813e-20               0    0.0023808816      0.40458127    0.0064078287   8.1053429e-07
     0.43723724   7.1773659e-17   1.1237813e-20               0    0.0023751556      0.40401803    0.0064026461   8.1011126e-07
     0.43933934   7.1773659e-17   1.1237813e-20               0    0.0023694295      0.40345478    0.0063974635   8.0968823e-07
     0.44144144   7.1773659e-17   1.1237813e-20               0    0.0023637035      0.40289153    0.0063922809    8.092652e-07
     0.44354354   7.1773659e-17   1.1237813e-20               0    0.0023579774      0.40232828    0.0063870983   8.0884217e-07
     0.44564565   7.1773659e-17   1.1237813e-20               0    0.0023522514      0.40176504    0.0063819157   8.0841914e-07
     0.44774775   7.1504916e-17   1.0857737e-20               0    0.0023465731      0.40120884     0.006376793   8.0800077e-07
     0.44984985   7.1504916e-17   1.0857737e-20               0    0.0023410277       0.4006722    0.0063718363   8.0759532e-07
     0.45195195   7.1504916e-17   1.0857737e-20               0    0.0023354823      0.40013557    0.0063668796   8.0718987e-07
     0.45405405   7.1504916e-17   1.0857737e-20               0    0.0023299369      0.39959894     0.006361923   8.0678443e-07
     0.45615616   7.1504916e-17   1.0857737e-20               0    0.0023243915      0.39906231    0.0063569663   8.0637898e-07
     0.45825826   7.1504916e-17   1.0857737e-20               0    0.0023188461      0.39852568    0.0063520096   8.0597353e-07
     0.46036036   7.1504916e-17   1.0857737e-20               0    0.0023133007      0.39798905     0.006347053   8.0556808e-07
     0.46246246   7.1239699e-17    1.048076e-20               0    0.0023078493      0.39747015    0.0063422476   8.0517451e-07
     0.46456456   7.1239699e-17    1.048076e-20               0    0.0023024381      0.39695885    0.0063375069   8.0478603e-07
     0.46666667   7.1239699e-17    1.048076e-20               0     0.002297027      0.39644755    0.0063327662   8.0439754e-07
     0.46876877   7.1239699e-17    1.048076e-20               0    0.0022916158      0.39593624    0.0063280255   8.0400905e-07
     0.47087087   7.1239699e-17    1.048076e-20               0    0.0022862047      0.39542494    0.0063232848   8.0362056e-07
     0.47297297   7.1239699e-17    1.048076e-20               0    0.0022807935      0.39491364    0.0063185441   8.0323208e-07
     0.47507508   7.1239699e-17    1.048076e-20               0    0.0022753823      0.39440233    0.0063138035   8.0284359e-07
     0.47717718   7.0977977e-17   1.0112738e-20               0    0.0022701199      0.39391347    0.0063092549    8.024703e-07
     0.47927928   7.0977977e-17   1.0112738e-20               0    0.0022648679      0.39342619    0.0063047199   8.0209808e-07
     0.48138138   7.0977977e-17   1.0112738e-20               0    0.0022596159       0.3929389    0.0063001849   8.0172586e-07
     0.48348348   7.0977977e-17   1.0112738e-20               0    0.0022543639      0.39245162    0.0062956499   8.0135363e-07
     0.48558559   7.0977977e-17   1.0112738e-20               0     0.002249112      0.39196434    0.0062911149   8.0098141e-07
     0.48768769   7.0977977e-17   1.0112738e-20               0      0.00224386      0.39147705    0.0062865799   8.0060919e-07