/*--------------------------------*- C++ -*----------------------------------*\
  =========                 |
  \\      /  F ield         | OpenFOAM: The Open Source CFD Toolbox
   \\    /   O peration     | Website:  https://openfoam.org
    \\  /    A nd           | Version:  12
     \\/     M anipulation  |
\*---------------------------------------------------------------------------*/
FoamFile
{
    format      ascii;
    class       volScalarField;
    location    "1100";
    object      epsilon;
}
// * * * * * * * * * * * * * * * * * * * * * * * * * * * * * * * * * * * * * //

dimensions      [0 2 -3 0 0 0 0];

internalField   nonuniform List<scalar> 
7480
(
0.016573629
0.067843775
0.16515248
0.29527309
0.43351544
0.55742846
0.65368568
0.71850216
0.75473656
0.76831831
0.76563717
0.75219622
0.73219654
0.70860532
0.68340661
0.65788203
0.63286614
0.60893184
0.58645791
0.56571682
0.54692302
0.53025501
0.51585316
0.50380783
0.49414587
0.48678006
0.48141183
0.47761956
0.4748421
0.47248258
0.47005623
0.4672843
0.46409746
0.46058598
0.45689014
0.45312024
0.44932261
0.44549164
0.44160389
0.43765025
0.43364957
0.42963942
0.42565829
0.42173063
0.41786466
0.41406025
0.41031697
0.40663623
0.40301965
0.39946783
0.39597993
0.39255407
0.38918831
0.38588141
0.38263222
0.37943894
0.37629958
0.37321274
0.37017767
0.36719248
0.3642554
0.36136487
0.35851942
0.35571782
0.35295907
0.35024209
0.34756585
0.34492935
0.34233153
0.33977139
0.33724798
0.33476033
0.33230754
0.32988871
0.327503
0.32514959
0.32282767
0.32053648
0.31827525
0.31604326
0.31383981
0.31166421
0.3095158
0.30739392
0.30529794
0.30322724
0.30118118
0.29915914
0.29716052
0.29518455
0.29323076
0.29129773
0.28938596
0.28749052
0.28561822
0.28374578
0.2819152
0.27999367
0.27838535
0.27540726
0.00023110336
0.0010202785
0.0033312857
0.0078465864
0.014499044
0.022877092
0.032061369
0.040904958
0.048608612
0.054823131
0.059526437
0.063009928
0.065778213
0.06835838
0.071288182
0.075132975
0.080776787
0.088414362
0.096801201
0.10594984
0.11605682
0.12723109
0.13937743
0.15214951
0.1651302
0.17765121
0.1888489
0.19788943
0.20416107
0.20747793
0.20813314
0.20677164
0.20417079
0.20103155
0.19783615
0.19480905
0.19198167
0.18929637
0.18669072
0.18414147
0.18166492
0.17929132
0.17703891
0.17490851
0.17288466
0.17094833
0.16908535
0.16728691
0.16554637
0.16385741
0.16221439
0.16061291
0.15904955
0.15752132
0.15602562
0.15456026
0.15312359
0.15171428
0.15033098
0.14897313
0.1476397
0.1463297
0.14504238
0.14377713
0.14253341
0.1413107
0.14010844
0.13892612
0.13776322
0.13661925
0.13549376
0.13438629
0.13329642
0.13222373
0.13116782
0.13012828
0.12910472
0.12809678
0.12710407
0.12612624
0.12516292
0.12421378
0.12327846
0.12235665
0.121448
0.12055219
0.11966892
0.11879786
0.1179387
0.11709112
0.11625481
0.11542939
0.11461458
0.11380965
0.11301477
0.11222744
0.11145156
0.11066491
0.10996756
0.10877426
2.5917038e-05
6.0901244e-05
0.0001280258
0.00023256287
0.00037571332
0.00055878677
0.00078127144
0.0010388837
0.0013237692
0.0016253517
0.0019318277
0.0022327444
0.0025215196
0.0027971337
0.0030658874
0.003341627
0.0036540766
0.0040430919
0.0045503535
0.0052279138
0.00614303
0.0073804114
0.0090664046
0.011465652
0.014772911
0.019249394
0.025723727
0.033479554
0.042248954
0.051712468
0.061342182
0.070541412
0.078739859
0.085458548
0.090432959
0.093683951
0.095465699
0.096168989
0.096202186
0.0958977
0.095461511
0.09498102
0.09447234
0.093922293
0.093325134
0.092690862
0.092037148
0.091378339
0.090720566
0.090063873
0.089406758
0.088748766
0.088090461
0.087432467
0.086775091
0.086118497
0.085462911
0.08480866
0.08415602
0.083505318
0.082857071
0.082211778
0.081569879
0.080931789
0.080297904
0.079668582
0.079044124
0.078424792
0.077810819
0.077202408
0.076599741
0.076002982
0.075412272
0.074827731
0.074249457
0.07367753
0.073112008
0.072552933
0.07200033
0.071454212
0.070914574
0.070381403
0.069854673
0.069334346
0.068820376
0.06831271
0.067811286
0.067316034
0.066826877
0.066343735
0.065866505
0.065395106
0.064929363
0.064469257
0.064014347
0.063564918
0.0631204
0.062674474
0.062277779
0.061595583
1.2918122e-05
1.8252714e-05
2.7133759e-05
3.9371198e-05
5.4677303e-05
7.285138e-05
9.3737775e-05
0.00011713711
0.00014276428
0.00017024882
0.00019915012
0.00022899444
0.00025933149
0.00028979587
0.00032017103
0.00035041402
0.00038083749
0.00041208448
0.00044537106
0.00048262724
0.00052632758
0.00058044978
0.00065033682
0.00074483253
0.00087773251
0.0010674872
0.0013604887
0.0018063704
0.0024744809
0.0034465536
0.004890237
0.0069718592
0.0098365855
0.013940299
0.018867243
0.024353897
0.030044831
0.035584001
0.040625521
0.044888235
0.048232718
0.050679381
0.052374986
0.053526542
0.054331103
0.054926683
0.055384348
0.055729139
0.055969057
0.056114152
0.056180481
0.056185006
0.056140448
0.056054483
0.055931999
0.055777189
0.055594147
0.055386593
0.055157614
0.054909718
0.054645171
0.054366076
0.054074342
0.053771671
0.053459586
0.053139447
0.052812469
0.052479746
0.052142261
0.051800897
0.051456456
0.051109664
0.050761179
0.050411597
0.050061454
0.049711232
0.049361364
0.049012238
0.0486642
0.048317558
0.047972586
0.047629526
0.047288591
0.046949966
0.046613814
0.046280274
0.045949466
0.045621493
0.045296438
0.044974377
0.044655351
0.044339434
0.044026576
0.043716974
0.043410216
0.043107147
0.042806608
0.042506229
0.042239975
0.041778124
1.0852655e-05
1.2164286e-05
1.4451313e-05
1.7609841e-05
2.150636e-05
2.6036476e-05
3.1128744e-05
3.6731141e-05
4.279837e-05
4.9284621e-05
5.6140654e-05
6.3313266e-05
7.074696e-05
7.8387171e-05
8.6184835e-05
9.409902e-05
0.00010210608
0.00011020397
0.0001184225
0.00012684669
0.00013559537
0.00014489426
0.00015504163
0.00016648008
0.00017989113
0.00019612345
0.00021678746
0.00024411297
0.00028130593
0.00033287628
0.00040653963
0.00051497101
0.00067603591
0.00093149047
0.0013340323
0.0019422909
0.0028904496
0.004276038
0.0062321111
0.0089129802
0.012107442
0.015609932
0.019190478
0.022619275
0.025694396
0.028294126
0.030390563
0.03203808
0.033336056
0.034383854
0.035252028
0.035978446
0.036581169
0.037073123
0.037468893
0.037783746
0.038030546
0.038218717
0.038355328
0.038446352
0.03849722
0.038512763
0.038497128
0.038453875
0.038386145
0.03829673
0.038188106
0.038062468
0.037921771
0.037767764
0.037602021
0.037425956
0.037240845
0.037047841
0.036847983
0.036642212
0.036431378
0.036216247
0.035997513
0.035775803
0.03555168
0.035325654
0.035098184
0.034869681
0.034640516
0.034411022
0.034181495
0.033952204
0.033723385
0.033495256
0.033267993
0.033041795
0.032816741
0.03259313
0.032370713
0.032150389
0.031931234
0.031711853
0.031518842
0.031179417
1.0372265e-05
1.0731253e-05
1.1455106e-05
1.2552029e-05
1.3978434e-05
1.5682303e-05
1.7621012e-05
1.9763516e-05
2.2087304e-05
2.4574928e-05
2.7211542e-05
2.9983449e-05
3.2877367e-05
3.5880141e-05
3.8978983e-05
4.2161723e-05
4.5417618e-05
4.8738147e-05
5.2118028e-05
5.5558297e-05
5.9065813e-05
6.2658838e-05
6.636797e-05
7.0239594e-05
7.4345611e-05
7.8782041e-05
8.3693118e-05
8.9299744e-05
9.5895505e-05
0.0001038836
0.00011380633
0.00012653941
0.00014314408
0.00016558913
0.00019683201
0.00024089161
0.00030532903
0.00040135061
0.00054754397
0.00077976649
0.0011410549
0.0017133345
0.0025791623
0.0038313191
0.0055592609
0.007656526
0.0099894557
0.012412378
0.014772299
0.016939142
0.018834342
0.020439356
0.021783934
0.022918561
0.023888814
0.024724305
0.025442005
0.026054292
0.026573651
0.027012518
0.027381612
0.027689425
0.027942897
0.028148132
0.028310603
0.028435105
0.02852579
0.028586305
0.028619891
0.02862943
0.028617488
0.028586358
0.028538095
0.028474547
0.028397374
0.028308077
0.028208008
0.028098387
0.027980321
0.027854807
0.02772275
0.027584966
0.027442196
0.027295109
0.02714431
0.026990345
0.026833711
0.026674854
0.02651418
0.026352057
0.026188807
0.026024754
0.025860112
0.025695266
0.025530152
0.025365619
0.025201121
0.025035486
0.024890941
0.024631925
1.0221608e-05
1.0320963e-05
1.055181e-05
1.0952376e-05
1.1528757e-05
1.2266857e-05
1.3146119e-05
1.4147213e-05
1.525448e-05
1.6455809e-05
1.7741761e-05
1.9104705e-05
2.0538177e-05
2.2036448e-05
2.3594251e-05
2.5206649e-05
2.686903e-05
2.8577192e-05
3.0327468e-05
3.2117219e-05
3.3945039e-05
3.5811476e-05
3.771972e-05
3.9676158e-05
4.1692019e-05
4.3784314e-05
4.5977611e-05
4.8309318e-05
5.0830628e-05
5.36133e-05
5.6743239e-05
6.0357237e-05
6.4602572e-05
6.969974e-05
7.5977938e-05
8.3861922e-05
9.4001375e-05
0.00010731444
0.00012511984
0.00014965287
0.00018421594
0.00023477158
0.00031052441
0.00042657591
0.00061082571
0.00089682742
0.0013560127
0.002043676
0.0030626473
0.0043764756
0.0059278792
0.0076273729
0.0093704112
0.011054647
0.012603388
0.013978905
0.015180778
0.016229695
0.017149378
0.017957184
0.018664554
0.019281033
0.019816349
0.020279929
0.020679948
0.021023251
0.021315798
0.021562954
0.021769506
0.021939671
0.022077188
0.022185398
0.022267293
0.022325551
0.022362577
0.022380535
0.022381377
0.022366862
0.022338581
0.022297971
0.022246333
0.022184845
0.022114575
0.022036489
0.021951462
0.02186029
0.021763692
0.021662324
0.021556777
0.021447593
0.021335255
0.021220224
0.021102865
0.020983654
0.020862713
0.02074085
0.020617869
0.020492701
0.020384252
0.020184826
1.014322e-05
1.0173669e-05
1.0245441e-05
1.0385697e-05
1.0613288e-05
1.0934853e-05
1.1347667e-05
1.1844312e-05
1.2416163e-05
1.3055154e-05
1.3754377e-05
1.4508105e-05
1.5311601e-05
1.6160899e-05
1.7052592e-05
1.7983674e-05
1.8951437e-05
1.9953408e-05
2.0987329e-05
2.2051216e-05
2.3143428e-05
2.4262792e-05
2.5408809e-05
2.6581833e-05
2.7783427e-05
2.901678e-05
3.0287021e-05
3.1602199e-05
3.2973828e-05
3.4418543e-05
3.5956917e-05
3.761693e-05
3.9443624e-05
4.1491114e-05
4.3826313e-05
4.6534431e-05
4.9731058e-05
5.3572713e-05
5.8251937e-05
6.4052198e-05
7.1365518e-05
8.080895e-05
9.328711e-05
0.00011012641
0.00013354566
0.00016680193
0.00021632484
0.00029100069
0.00040925918
0.00059446207
0.00088977865
0.001343644
0.0020271312
0.002936698
0.0040429872
0.0052894769
0.0066030496
0.0079079662
0.0091423884
0.010271292
0.011286187
0.012194057
0.013005378
0.013728576
0.014370392
0.014937613
0.015437359
0.015876364
0.016260572
0.016595271
0.016885288
0.017135003
0.017348356
0.017528885
0.017679787
0.017803947
0.017903972
0.017982218
0.018040817
0.018081698
0.01810661
0.018117138
0.01811472
0.018100659
0.018076139
0.018042235
0.017999924
0.017950093
0.017893549
0.017831028
0.017763191
0.017690661
0.017613962
0.017533682
0.017450128
0.017364101
0.017275698
0.017184014
0.017105003
0.016953959
1.007396e-05
1.0087698e-05
1.011245e-05
1.0160468e-05
1.0245436e-05
1.0378105e-05
1.0564349e-05
1.0805552e-05
1.1100046e-05
1.1444578e-05
1.1835352e-05
1.2268631e-05
1.2740998e-05
1.3249439e-05
1.3791327e-05
1.4364359e-05
1.4966503e-05
1.5595937e-05
1.6251017e-05
1.6930258e-05
1.7632345e-05
1.8356147e-05
1.9100768e-05
1.9865618e-05
2.0650508e-05
2.1455805e-05
2.2282554e-05
2.313272e-05
2.4009416e-05
2.4917374e-05
2.5862948e-05
2.685441e-05
2.7904204e-05
2.9028782e-05
3.0248612e-05
3.1588875e-05
3.3081076e-05
3.4764634e-05
3.6692982e-05
3.8942426e-05
4.1596698e-05
4.4773314e-05
4.8635331e-05
5.3405112e-05
5.9386429e-05
6.70114e-05
7.7022355e-05
9.0421393e-05
0.0001089896
0.00013530947
0.00017411908
0.00023251329
0.0003244098
0.00046814998
0.00069683565
0.0010510857
0.0015784787
0.002280832
0.0031367086
0.004106678
0.0051359958
0.0061673856
0.0071550609
0.0080732936
0.0089141258
0.0096788517
0.010371045
0.01099432
0.011552758
0.012051148
0.012494464
0.012887402
0.013234318
0.013539294
0.013806116
0.014038263
0.014238913
0.014410976
0.014557106
0.014679724
0.014781035
0.014863046
0.014927587
0.014976321
0.015010765
0.015032298
0.015042177
0.015041548
0.015031451
0.015012838
0.01498657
0.014953449
0.014914172
0.014869459
0.014819802
0.014766038
0.014708503
0.014646553
0.014593315
0.014484402
9.9999036e-06
1.0009787e-05
1.0022114e-05
1.0040948e-05
1.0072841e-05
1.0125136e-05
1.0204324e-05
1.0315033e-05
1.0459782e-05
1.0639275e-05
1.0852934e-05
1.1099414e-05
1.1377007e-05
1.1683892e-05
1.201829e-05
1.2378523e-05
1.2763047e-05
1.3170446e-05
1.3599424e-05
1.40488e-05
1.4517502e-05
1.5004567e-05
1.5509151e-05
1.6030552e-05
1.6568242e-05
1.7121926e-05
1.7691592e-05
1.8277592e-05
1.8880733e-05
1.9502428e-05
2.0144791e-05
2.0810694e-05
2.1504272e-05
2.2231251e-05
2.2999092e-05
2.3817172e-05
2.4697087e-05
2.5653047e-05
2.6702673e-05
2.7870234e-05
2.9183862e-05
3.0678085e-05
3.2396797e-05
3.4394529e-05
3.6761022e-05
3.9592599e-05
4.3036147e-05
4.7282241e-05
5.2626901e-05
5.9454732e-05
6.8419119e-05
8.044073e-05
9.7126673e-05
0.00012085624
0.00015587601
0.00020895435
0.00029231521
0.00042211364
0.00062870936
0.0009487704
0.0014047328
0.0019976362
0.0027092802
0.0035055774
0.0043423002
0.0051762715
0.0059763473
0.0067263082
0.0074204308
0.0080576759
0.0086386705
0.0091651836
0.0096400191
0.010066527
0.010448157
0.010788309
0.011090285
0.011357238
0.011592127
0.011797713
0.011976558
0.012131028
0.012263301
0.01237538
0.012469101
0.012546148
0.012608062
0.012656252
0.012692007
0.012716506
0.012730824
0.012735952
0.012732775
0.012722165
0.012704796
0.012681578
0.012653047
0.012618915
0.012589498
0.01251929
9.918769e-06
9.9275637e-06
9.9368163e-06
9.9474523e-06
9.9618777e-06
9.9836124e-06
1.0016738e-05
1.0065266e-05
1.0132587e-05
1.0221168e-05
1.0332495e-05
1.0467204e-05
1.0625279e-05
1.0806262e-05
1.1009424e-05
1.1233889e-05
1.1478719e-05
1.1742967e-05
1.2025706e-05
1.2326048e-05
1.2643157e-05
1.2976253e-05
1.332462e-05
1.3687619e-05
1.4064698e-05
1.4455418e-05
1.4859481e-05
1.5276752e-05
1.5707308e-05
1.6151486e-05
1.6609941e-05
1.7083678e-05
1.7574191e-05
1.8083623e-05
1.8614904e-05
1.9171867e-05
1.9759361e-05
2.0383406e-05
2.1051288e-05
2.1772503e-05
2.2558592e-05
2.342334e-05
2.4383498e-05
2.5458661e-05
2.6677138e-05
2.8071265e-05
2.9684737e-05
3.1570426e-05
3.3799176e-05
3.6483283e-05
3.9764751e-05
4.3834355e-05
4.8985129e-05
5.5623789e-05
6.4392627e-05
7.6271679e-05
9.2904521e-05
0.00011679908
0.00015237802
0.00020737027
0.0002931006
0.00042816426
0.00064031222
0.00095495914
0.0013822007
0.0019167135
0.002538848
0.0032164342
0.0039131696
0.0045990465
0.0052551776
0.0058720826
0.0064455704
0.0069740122
0.0074574441
0.0078971688
0.0082952448
0.008654077
0.0089762218
0.0092642814
0.0095208181
0.0097483006
0.0099490767
0.010125358
0.010279213
0.010412567
0.010527204
0.010624771
0.010706789
0.010774658
0.010829661
0.010872986
0.010905708
0.010928856
0.010943291
0.010950021
0.010949748
0.010942631
0.01093613
0.010902923
9.8305917e-06
9.8388286e-06
9.8471903e-06
9.855668e-06
9.8649669e-06
9.8764218e-06
9.891938e-06
9.9138412e-06
9.9446178e-06
9.9866296e-06
1.0041891e-05
1.0111949e-05
1.0197862e-05
1.0300242e-05
1.0419331e-05
1.0555089e-05
1.0707271e-05
1.0875494e-05
1.1059287e-05
1.1258131e-05
1.1471482e-05
1.1698795e-05
1.1939538e-05
1.2193204e-05
1.2459325e-05
1.2737487e-05
1.3027344e-05
1.3328633e-05
1.3641193e-05
1.3964989e-05
1.4300139e-05
1.4646933e-05
1.5005883e-05
1.537779e-05
1.5763823e-05
1.6165595e-05
1.6585233e-05
1.702546e-05
1.7489625e-05
1.7981969e-05
1.8507749e-05
1.9073308e-05
1.968628e-05
2.0355479e-05
2.1092379e-05
2.1910514e-05
2.2827039e-05
2.3862637e-05
2.5041719e-05
2.6400455e-05
2.7983812e-05
2.9848296e-05
3.2070625e-05
3.475984e-05
3.8076464e-05
4.2232633e-05
4.7549598e-05
5.4493732e-05
6.3778018e-05
7.6610378e-05
9.4849135e-05
0.00012158996
0.00016224022
0.00022536322
0.0003238894
0.00047956681
0.00071378672
0.0010394404
0.0014577154
0.001957263
0.0025143704
0.0030995189
0.003686339
0.0042565136
0.0047993806
0.0053091808
0.0057829644
0.0062196736
0.0066196051
0.0069839004
0.0073141791
0.0076123328
0.0078803902
0.0081204181
0.008334459
0.0085244921
0.0086924093
0.0088400006
0.0089689475
0.0090808217
0.0091770843
0.0092590949
0.0093281037
0.0093852943
0.0094317046
0.0094684543
0.0094963824
0.0095161641
0.009532331
0.009535522
9.7357447e-06
9.7435421e-06
9.7514613e-06
9.7592787e-06
9.767142e-06
9.775474e-06
9.7849949e-06
9.7967537e-06
9.8120918e-06
9.8325389e-06
9.8596763e-06
9.8950062e-06
9.9398502e-06
9.9952894e-06
1.0062144e-05
1.014098e-05
1.023214e-05
1.0335777e-05
1.0451893e-05
1.0580374e-05
1.0721023e-05
1.0873583e-05
1.1037759e-05
1.1213236e-05
1.1399694e-05
1.1596825e-05
1.1804341e-05
1.2021992e-05
1.2249572e-05
1.2486937e-05
1.2734015e-05
1.299082e-05
1.3257476e-05
1.3534244e-05
1.3821563e-05
1.4120096e-05
1.4430774e-05
1.4754847e-05
1.5093911e-05
1.5449994e-05
1.5825641e-05
1.6223978e-05
1.6648805e-05
1.7104554e-05
1.7596694e-05
1.813172e-05
1.8717573e-05
1.9363876e-05
2.0081569e-05
2.0885224e-05
2.1793139e-05
2.2827238e-05
2.4016195e-05
2.5396256e-05
2.701795e-05
2.8946952e-05
3.1270599e-05
3.4111789e-05
3.7657468e-05
4.2172573e-05
4.8045111e-05
5.5861958e-05
6.6563456e-05
8.166824e-05
0.00010359349
0.00013665998
0.00018770073
0.00026697755
0.00039222542
0.00058040784
0.00084431161
0.0011876457
0.0016030638
0.0020719553
0.002570166
0.0030753933
0.0035713301
0.004047674
0.0044982871
0.0049197036
0.0053103301
0.0056698848
0.0059989289
0.0062985481
0.0065701519
0.0068153315
0.0070357619
0.0072331364
0.0074091232
0.0075653376
0.0077033231
0.0078245449
0.007930378
0.0080221281
0.00810098
0.0081681627
0.0082246159
0.0082715822
0.0083105619
0.0083502457
9.6346223e-06
9.6420375e-06
9.6496106e-06
9.6570915e-06
9.6644728e-06
9.6718676e-06
9.6795069e-06
9.6877826e-06
9.6972791e-06
9.7087706e-06
9.7231865e-06
9.7415546e-06
9.764932e-06
9.7943391e-06
9.8307056e-06
9.8748337e-06
9.9273797e-06
9.9888504e-06
1.005961e-05
1.0139897e-05
1.0229838e-05
1.0329471e-05
1.043876e-05
1.0557616e-05
1.0685907e-05
1.082348e-05
1.0970168e-05
1.1125804e-05
1.1290231e-05
1.1463314e-05
1.1644944e-05
1.1835052e-05
1.203362e-05
1.2240695e-05
1.2456412e-05
1.2681017e-05
1.2914899e-05
1.3158618e-05
1.3412931e-05
1.3678826e-05
1.3957572e-05
1.4250761e-05
1.4560364e-05
1.4888732e-05
1.5238713e-05
1.5613705e-05
1.6017787e-05
1.6455897e-05
1.6933677e-05
1.7458084e-05
1.8037772e-05
1.8682957e-05
1.9406494e-05
2.0223979e-05
2.1155365e-05
2.2226835e-05
2.3470875e-05
2.4929584e-05
2.666258e-05
2.8750239e-05
3.1300928e-05
3.4470089e-05
3.8501213e-05
4.3737814e-05
5.069293e-05
6.0197156e-05
7.3579951e-05
9.2928574e-05
0.00012205565
0.00016671783
0.00023613467
0.00034483142
0.00050700165
0.00073384639
0.0010293123
0.001387315
0.0017920476
0.0022233497
0.0026626506
0.0030960882
0.0035144759
0.0039120308
0.0042853343
0.0046326675
0.0049534929
0.0052480546
0.0055171082
0.0057617349
0.0059832102
0.006182912
0.0063622588
0.006522667
0.006665522
0.006792169
0.0069038744
0.0070019402
0.0070873545
0.0071619553
0.0072240738
0.0073007406
9.5276219e-06
9.5347011e-06
9.5419656e-06
9.549178e-06
9.5562922e-06
9.5633295e-06
9.5703544e-06
9.5774929e-06
9.584961e-06
9.5930843e-06
9.602307e-06
9.6131869e-06
9.6263754e-06
9.6425859e-06
9.6625571e-06
9.6870154e-06
9.7166438e-06
9.7520579e-06
9.7937902e-06
9.8422837e-06
9.8978913e-06
9.9608797e-06
1.0031438e-05
1.0109685e-05
1.0195685e-05
1.0289454e-05
1.0390973e-05
1.0500198e-05
1.0617069e-05
1.0741518e-05
1.0873481e-05
1.1012897e-05
1.1159725e-05
1.1313949e-05
1.147559e-05
1.1644725e-05
1.1821502e-05
1.2006158e-05
1.2199041e-05
1.2400627e-05
1.2611552e-05
1.2832633e-05
1.306491e-05
1.3309653e-05
1.3568416e-05
1.3843062e-05
1.4135822e-05
1.4449394e-05
1.4786906e-05
1.5152076e-05
1.5549437e-05
1.5984328e-05
1.6463254e-05
1.6994018e-05
1.7586065e-05
1.8251453e-05
1.9004952e-05
1.9864556e-05
2.0854341e-05
2.2005441e-05
2.3358095e-05
2.4965496e-05
2.6904423e-05
2.9279078e-05
3.2230443e-05
3.5981135e-05
4.086613e-05
4.7362463e-05
5.6273133e-05
6.8826092e-05
8.7025213e-05
0.00011441236
0.00015618349
0.00022145642
0.00032203571
0.0004704413
0.00067579467
0.00094092306
0.0012593145
0.0016167167
0.0019960264
0.0023819364
0.0027630017
0.0031314277
0.0034821663
0.0038121758
0.0041198692
0.0044046708
0.0046666925
0.0049065066
0.0051249852
0.005323184
0.0055022654
0.0056634417
0.0058079285
0.0059370117
0.0060516398
0.0061542374
0.0062397995
0.006354055
9.4151529e-06
9.4219346e-06
9.4289185e-06
9.435884e-06
9.4427764e-06
9.4495909e-06
9.4563421e-06
9.463066e-06
9.4698328e-06
9.476761e-06
9.4840308e-06
9.4918954e-06
9.500685e-06
9.5108035e-06
9.5227167e-06
9.5369345e-06
9.5539895e-06
9.5744162e-06
9.5987308e-06
9.6274153e-06
9.6609059e-06
9.6995851e-06
9.7437783e-06
9.793754e-06
9.849726e-06
9.9118587e-06
9.9802729e-06
1.0055052e-05
1.0136249e-05
1.0223894e-05
1.0317997e-05
1.0418557e-05
1.052557e-05
1.063903e-05
1.0758944e-05
1.0885336e-05
1.1018264e-05
1.1157827e-05
1.1304182e-05
1.1457557e-05
1.1618266e-05
1.1786731e-05
1.1963499e-05
1.2149263e-05
1.2344881e-05
1.2551402e-05
1.277009e-05
1.3002474e-05
1.3250358e-05
1.3515866e-05
1.3801544e-05
1.4110394e-05
1.4446002e-05
1.481264e-05
1.5215353e-05
1.5660354e-05
1.6155208e-05
1.6708897e-05
1.7332789e-05
1.8041186e-05
1.8852043e-05
1.9788026e-05
2.0879328e-05
2.2166441e-05
2.3700798e-05
2.5555517e-05
2.7835691e-05
3.0682944e-05
3.4307443e-05
3.9051006e-05
4.5396115e-05
5.4149213e-05
6.6514431e-05
8.4613284e-05
0.0001118284
0.0001534486
0.00021818116
0.00031659265
0.0004591492
0.00065311581
0.00089903237
0.0011892841
0.0015106087
0.0018484627
0.0021904014
0.0025271919
0.0028524638
0.0031620528
0.003453444
0.0037253152
0.0039771828
0.0042091404
0.0044216797
0.0046155478
0.0047916572
0.0049510971
0.0050946224
0.0052251781
0.0053342284
0.0054864781
9.297638e-06
9.3041538e-06
9.3108806e-06
9.3176136e-06
9.3242971e-06
9.3309177e-06
9.3374758e-06
9.3439801e-06
9.3504516e-06
9.356929e-06
9.3634764e-06
9.3701929e-06
9.3772213e-06
9.3847544e-06
9.3930375e-06
9.4023661e-06
9.4130791e-06
9.4255491e-06
9.44017e-06
9.4573443e-06
9.4774705e-06
9.5009317e-06
9.5280869e-06
9.5592642e-06
9.5947568e-06
9.634821e-06
9.6796767e-06
9.7295081e-06
9.7844671e-06
9.8446758e-06
9.9102305e-06
9.9812051e-06
1.0057656e-05
1.0139626e-05
1.0227152e-05
1.032027e-05
1.0419022e-05
1.0523467e-05
1.0633687e-05
1.0749799e-05
1.0871966e-05
1.1000407e-05
1.1135416e-05
1.1277371e-05
1.1426752e-05
1.1584155e-05
1.1750308e-05
1.1926099e-05
1.211259e-05
1.2311039e-05
1.2522942e-05
1.2750068e-05
1.299451e-05
1.3258749e-05
1.3545695e-05
1.3858833e-05
1.4202362e-05
1.458123e-05
1.5001458e-05
1.5470438e-05
1.5997254e-05
1.6593082e-05
1.7271872e-05
1.8052186e-05
1.8956691e-05
2.0015315e-05
2.1269048e-05
2.277162e-05
2.4595444e-05
2.6849656e-05
2.968321e-05
3.3317773e-05
3.8092222e-05
4.4544925e-05
5.3509706e-05
6.6296664e-05
8.514532e-05
0.00011352938
0.00015729154
0.00022464314
0.00032516572
0.00046754059
0.00065647922
0.00088983611
0.0011588606
0.0014512556
0.0017548321
0.0020596505
0.0023584202
0.0026461077
0.0029194408
0.0031764616
0.0034161706
0.0036382369
0.0038428085
0.0040304392
0.0042014194
0.0043590531
0.004491045
0.0046810904
9.1755107e-06
9.1817859e-06
9.1882757e-06
9.1947889e-06
9.2012709e-06
9.2077053e-06
9.2140877e-06
9.2204188e-06
9.2267043e-06
9.232956e-06
9.2391945e-06
9.2454542e-06
9.2517888e-06
9.2582778e-06
9.265032e-06
9.2721972e-06
9.2799559e-06
9.2885265e-06
9.2981597e-06
9.309133e-06
9.3217436e-06
9.3363005e-06
9.3531159e-06
9.3724979e-06
9.3947436e-06
9.4201339e-06
9.4489296e-06
9.4813683e-06
9.5176635e-06
9.5580037e-06
9.6025528e-06
9.6514514e-06
9.7048184e-06
9.762754e-06
9.8253425e-06
9.8926571e-06
9.964764e-06
1.0041729e-05
1.0123621e-05
1.0210523e-05
1.0302535e-05
1.0399788e-05
1.0502448e-05
1.0610732e-05
1.0724912e-05
1.0845335e-05
1.0972427e-05
1.1106711e-05
1.1248822e-05
1.1399519e-05
1.1559708e-05
1.1730461e-05
1.1913048e-05
1.2108967e-05
1.2319978e-05
1.2548155e-05
1.2795972e-05
1.3066335e-05
1.3362704e-05
1.3689237e-05
1.4050955e-05
1.4453944e-05
1.4905522e-05
1.5415105e-05
1.5994134e-05
1.6656933e-05
1.7422223e-05
1.8314066e-05
1.9363218e-05
2.0612606e-05
2.2119456e-05
2.3962533e-05
2.62539e-05
2.9159591e-05
3.29213e-05
3.790619e-05
4.4716087e-05
5.4261256e-05
6.8067402e-05
8.8561512e-05
0.00011972019
0.00016773452
0.00024055862
0.0003466658
0.00049266338
0.00068013406
0.00090436384
0.0011558847
0.0014236631
0.0016977531
0.0019703805
0.0022359217
0.0024905432
0.0027317851
0.0029582242
0.0031692761
0.0033642969
0.0035466292
0.0036999372
0.0039264071
9.0492106e-06
9.0552659e-06
9.0615356e-06
9.0678402e-06
9.0741276e-06
9.0803802e-06
9.0865914e-06
9.0927592e-06
9.0988844e-06
9.1049703e-06
9.1110231e-06
9.1170535e-06
9.1230792e-06
9.1291288e-06
9.1352458e-06
9.1414923e-06
9.1479531e-06
9.154738e-06
9.1619837e-06
9.1698535e-06
9.1785358e-06
9.1882408e-06
9.1991966e-06
9.2116439e-06
9.2258307e-06
9.2420073e-06
9.2604211e-06
9.2813125e-06
9.3049106e-06
9.3314311e-06
9.3610733e-06
9.3940192e-06
9.4304325e-06
9.4704593e-06
9.5142288e-06
9.5618553e-06
9.6134406e-06
9.6690773e-06
9.7288521e-06
9.7928504e-06
9.8611611e-06
9.9338829e-06
1.0011131e-05
1.0093044e-05
1.0179793e-05
1.0271587e-05
1.0368686e-05
1.0471408e-05
1.0580138e-05
1.0695344e-05
1.0817584e-05
1.0947523e-05
1.108595e-05
1.1233795e-05
1.1392155e-05
1.1562316e-05
1.1745798e-05
1.1944385e-05
1.2160176e-05
1.2395663e-05
1.2653805e-05
1.2938153e-05
1.3252899e-05
1.3603245e-05
1.3995494e-05
1.4437312e-05
1.4938316e-05
1.551062e-05
1.616928e-05
1.6934077e-05
1.7830746e-05
1.8893083e-05
2.0166402e-05
2.1713943e-05
2.362328e-05
2.6018065e-05
2.9086024e-05
3.3099162e-05
3.8483502e-05
4.5930061e-05
5.6524078e-05
7.2052635e-05
9.5357222e-05
0.00013107962
0.0001856065
0.00026653791
0.00038095787
0.00053261619
0.00071988577
0.00093604029
0.0011716505
0.0014172902
0.0016651028
0.0019091482
0.0021452195
0.0023706181
0.0025829845
0.0027851293
0.0029563085
0.0032158066
8.9191795e-06
8.9250318e-06
8.9310958e-06
8.9372022e-06
8.9433016e-06
8.9493763e-06
8.9554188e-06
8.9614258e-06
8.9673962e-06
8.9733303e-06
8.9792296e-06
8.9850971e-06
8.9909377e-06
8.9967602e-06
9.0025792e-06
9.0084175e-06
9.014309e-06
9.0203015e-06
9.0264595e-06
9.032866e-06
9.0396243e-06
9.0468583e-06
9.0547115e-06
9.0633458e-06
9.0729386e-06
9.0836803e-06
9.0957704e-06
9.1094139e-06
9.1248173e-06
9.1421854e-06
9.1617177e-06
9.1836055e-06
9.2080302e-06
9.2351612e-06
9.2651553e-06
9.2981567e-06
9.3342974e-06
9.373698e-06
9.4164698e-06
9.4627165e-06
9.5125374e-06
9.5660308e-06
9.623299e-06
9.6844527e-06
9.7496165e-06
9.8189349e-06
9.892579e-06
9.9707538e-06
1.0053706e-05
1.014173e-05
1.023518e-05
1.0334478e-05
1.0440123e-05
1.0552708e-05
1.0672931e-05
1.080161e-05
1.0939709e-05
1.1088358e-05
1.1248881e-05
1.1422834e-05
1.1612052e-05
1.1818709e-05
1.2045355e-05
1.2295069e-05
1.2571548e-05
1.2879227e-05
1.3223503e-05
1.3611042e-05
1.4049976e-05
1.4550547e-05
1.512575e-05
1.5792136e-05
1.6570983e-05
1.7490584e-05
1.8588641e-05
1.9915619e-05
2.1543085e-05
2.3570378e-05
2.6140911e-05
2.9473036e-05
3.3893906e-05
3.9914788e-05
4.8375311e-05
6.0623266e-05
7.8834655e-05
0.00010652973
0.00014881009
0.00021225473
0.00030371033
0.00042797546
0.00058552821
0.00077194017
0.00097946527
0.0011995083
0.0014244252
0.0016483477
0.0018661317
0.0020791684
0.002261827
0.0025476539
8.785857e-06
8.7915204e-06
8.7973912e-06
8.8033088e-06
8.8092267e-06
8.8151279e-06
8.8210043e-06
8.8268521e-06
8.832669e-06
8.8384542e-06
8.8442075e-06
8.8499293e-06
8.8556202e-06
8.8612823e-06
8.8669192e-06
8.8725377e-06
8.878149e-06
8.8837707e-06
8.8894287e-06
8.8951596e-06
8.9010126e-06
8.9070511e-06
8.9133542e-06
8.9200169e-06
8.9271504e-06
8.9348811e-06
8.9433493e-06
8.9527073e-06
8.9631167e-06
8.974746e-06
8.9877675e-06
9.0023544e-06
9.0186783e-06
9.0369069e-06
9.057202e-06
9.0797184e-06
9.1046028e-06
9.1319933e-06
9.1620193e-06
9.1948022e-06
9.2304565e-06
9.2690913e-06
9.3108131e-06
9.3557287e-06
9.4039483e-06
9.4555898e-06
9.5107834e-06
9.5696768e-06
9.6324404e-06
9.6992733e-06
9.7704099e-06
9.8461272e-06
9.9267522e-06
1.001267e-05
1.0104336e-05
1.0202281e-05
1.0307134e-05
1.0419625e-05
1.0540614e-05
1.0671104e-05
1.081227e-05
1.0965497e-05
1.1132402e-05
1.1314901e-05
1.1515273e-05
1.1736228e-05
1.1981e-05
1.2253513e-05
1.2558488e-05
1.290171e-05
1.3290339e-05
1.3733294e-05
1.4241719e-05
1.4829881e-05
1.5516198e-05
1.6324451e-05
1.7286591e-05
1.8445392e-05
1.9859056e-05
2.1610662e-05
2.3818659e-05
2.6655786e-05
3.0388259e-05
3.5426834e-05
4.2418902e-05
5.2432459e-05
6.7199643e-05
8.947714e-05
0.0001234171
0.00017463127
0.00024942829
0.00035296305
0.00048702022
0.00064892843
0.00083244381
0.0010301033
0.0012337872
0.0014426755
0.0016258571
0.0019261068
8.6496775e-06
8.6551639e-06
8.6608525e-06
8.66659e-06
8.6723329e-06
8.678065e-06
8.6837785e-06
8.6894688e-06
8.6951335e-06
8.7007708e-06
8.7063798e-06
8.7119597e-06
8.71751e-06
8.7230304e-06
8.7285208e-06
8.7339823e-06
8.7394171e-06
8.7448299e-06
8.7502291e-06
8.7556279e-06
8.7610463e-06
8.7665124e-06
8.772064e-06
8.7777504e-06
8.7836327e-06
8.7897853e-06
8.7962955e-06
8.8032633e-06
8.8108008e-06
8.8190304e-06
8.8280837e-06
8.8380987e-06
8.8492185e-06
8.8615889e-06
8.8753566e-06
8.8906672e-06
8.907664e-06
8.9264866e-06
8.9472695e-06
8.9701422e-06
8.9952282e-06
9.0226458e-06
9.0525089e-06
9.0849284e-06
9.1200138e-06
9.1578756e-06
9.1986281e-06
9.2423931e-06
9.2893036e-06
9.3395073e-06
9.3931724e-06
9.450492e-06
9.5116903e-06
9.5770278e-06
9.6468093e-06
9.721391e-06
9.8011893e-06
9.8866906e-06
9.9784633e-06
1.0077171e-05
1.0183586e-05
1.0298616e-05
1.0423316e-05
1.0558927e-05
1.0706907e-05
1.086898e-05
1.1047181e-05
1.1243939e-05
1.146215e-05
1.1705294e-05
1.1977595e-05
1.2284217e-05
1.2631489e-05
1.3027276e-05
1.3481476e-05
1.4006543e-05
1.4618537e-05
1.5338323e-05
1.6193141e-05
1.7219859e-05
1.8468854e-05
2.0009677e-05
2.1942709e-05
2.441484e-05
2.7644301e-05
3.1970872e-05
3.7932272e-05
4.6393918e-05
5.8760802e-05
7.7285994e-05
0.00010542076
0.00014797703
0.00021065368
0.00029858361
0.00041423595
0.00055641275
0.00071906609
0.00090113642
0.0010676019
0.0013626294
8.5110666e-06
8.5163865e-06
8.5219027e-06
8.5274682e-06
8.5330425e-06
8.5386103e-06
8.5441642e-06
8.5496997e-06
8.5552137e-06
8.5607042e-06
8.5661697e-06
8.571609e-06
8.577021e-06
8.5824045e-06
8.5877585e-06
8.5930818e-06
8.5983738e-06
8.6036344e-06
8.6088647e-06
8.6140678e-06
8.6192499e-06
8.6244212e-06
8.629597e-06
8.6347994e-06
8.6400581e-06
8.6454117e-06
8.6509087e-06
8.6566077e-06
8.6625783e-06
8.6689e-06
8.6756625e-06
8.6829645e-06