/*--------------------------------*- C++ -*----------------------------------*\
  =========                 |
  \\      /  F ield         | OpenFOAM: The Open Source CFD Toolbox
   \\    /   O peration     | Website:  https://openfoam.org
    \\  /    A nd           | Version:  12
     \\/     M anipulation  |
\*---------------------------------------------------------------------------*/
FoamFile
{
    format      ascii;
    class       volScalarField;
    location    "1100";
    object      k;
}
// * * * * * * * * * * * * * * * * * * * * * * * * * * * * * * * * * * * * * //

dimensions      [0 2 -2 0 0 0 0];

internalField   nonuniform List<scalar> 
13056
(
0.00011154975
7.8491768e-05
6.7861523e-05
6.3527808e-05
6.1114667e-05
5.9506792e-05
5.8351433e-05
5.7489432e-05
5.6829201e-05
5.6312794e-05
5.5902016e-05
5.5570883e-05
5.5301197e-05
5.507987e-05
5.4897304e-05
5.4746279e-05
5.4621555e-05
5.4518559e-05
5.4436582e-05
5.4365513e-05
5.4336129e-05
5.4250358e-05
5.4354281e-05
5.4525987e-05
0.00016700997
0.00020646799
0.00019136002
0.00017621267
0.00016494631
0.00015580163
0.00014804654
0.00014142627
0.00013574205
0.00013080253
0.00012645448
0.00012258674
0.00011911942
0.00011598639
0.00011312995
0.00011050825
0.00010808964
0.00010584623
0.00010375552
0.00010179899
9.9961101e-05
9.8228965e-05
9.6591186e-05
9.5038374e-05
9.3562575e-05
9.2156579e-05
9.0814648e-05
8.9531513e-05
8.8301945e-05
8.7121669e-05
8.5986893e-05
8.489384e-05
8.3839193e-05
8.2820305e-05
8.18347e-05
8.0879884e-05
7.9953805e-05
7.9054778e-05
7.8181068e-05
7.7330881e-05
7.6502716e-05
7.5695345e-05
7.4907533e-05
7.4137957e-05
7.3385422e-05
7.2649052e-05
7.1928032e-05
7.1221354e-05
7.0528016e-05
6.9847364e-05
6.9178779e-05
6.8521537e-05
6.7874875e-05
6.7238056e-05
6.6610623e-05
6.5992119e-05
6.5381936e-05
6.477945e-05
6.418417e-05
6.3595738e-05
6.3013765e-05
6.2437731e-05
6.1867088e-05
6.1301525e-05
6.0740732e-05
6.0184314e-05
5.9631823e-05
5.9082798e-05
5.8536994e-05
5.7994144e-05
5.745383e-05
5.6915616e-05
5.6379179e-05
5.5844259e-05
5.531053e-05
5.4777565e-05
5.4244944e-05
5.37124e-05
5.3179641e-05
5.2646206e-05
5.211164e-05
5.1575638e-05
5.1037855e-05
5.0497774e-05
4.9954896e-05
4.940884e-05
4.8859131e-05
4.8305095e-05
4.7746341e-05
4.7194311e-05
4.6666155e-05
4.616625e-05
4.5692207e-05
4.5241894e-05
4.48133e-05
4.4404657e-05
4.401445e-05
4.3641295e-05
4.3283883e-05
4.2941027e-05
4.2611693e-05
4.2294939e-05
4.1989876e-05
4.1695606e-05
4.1411384e-05
4.1136053e-05
4.0869572e-05
4.0608509e-05
4.0357271e-05
4.0098699e-05
3.9871593e-05
3.9501566e-05
0.00011156131
7.8498683e-05
6.7860276e-05
6.3521981e-05
6.1106166e-05
5.9496489e-05
5.8339804e-05
5.7476786e-05
5.6815754e-05
5.6298703e-05
5.58874e-05
5.5555833e-05
5.5285784e-05
5.5064148e-05
5.4881318e-05
5.4730065e-05
5.460514e-05
5.4501965e-05
5.4419828e-05
5.4348607e-05
5.4319103e-05
5.4233123e-05
5.4337301e-05
5.4500364e-05
0.0018181396
0.0022353363
0.0020745029
0.0019131534
0.0017928823
0.0016950814
0.0016120109
0.0015409987
0.0014799544
0.0014268525
0.0013800663
0.0013384146
0.0013010476
0.0012672609
0.0012364384
0.0012081331
0.001182007
0.0011577618
0.0011351569
0.0011139938
0.0010941062
0.001075356
0.0010576208
0.0010408001
0.0010248085
0.0010095687
0.00099501895
0.00098110281
0.00096776401
0.00095495663
0.00094263989
0.00093077315
0.00091932067
0.00090825401
0.0008975465
0.00088717127
0.00087710622
0.00086733321
0.00085783355
0.00084858788
0.00083958002
0.00083079674
0.0008222247
0.00081384962
0.00080565861
0.0007976422
0.0007897916
0.00078209594
0.00077454434
0.00076712975
0.00075984551
0.00075268376
0.00074563626
0.00073869501
0.00073185508
0.00072511152
0.00071845776
0.00071188701
0.00070539395
0.00069897471
0.00069262508
0.0006863394
0.00068011171
0.00067393866
0.00066781687
0.00066174204
0.00065570932
0.00064971366
0.00064375241
0.00063782268
0.00063191989
0.00062603931
0.00062017741
0.00061433134
0.00060849756
0.0006026714
0.00059684826
0.00059102525
0.00058519915
0.00057936492
0.00057351758
0.0005676538
0.00056176978
0.00055585987
0.00054991859
0.00054394176
0.00053792417
0.00053185842
0.00052574021
0.00051969484
0.00051391017
0.00050843427
0.00050324107
0.0004983073
0.000493611
0.00048913288
0.0004848564
0.00048076643
0.00047684867
0.00047309015
0.00046947959
0.00046600668
0.0004626617
0.00045943484
0.00045631794
0.00045329835
0.00045037563
0.00044751214
0.00044475623
0.00044191969
0.00043942813
0.00043536839
0.00011159401
7.8509318e-05
6.7843609e-05
6.3491069e-05
6.1066911e-05
5.9451563e-05
5.8290698e-05
5.742447e-05
5.676091e-05
5.6241831e-05
5.5828873e-05
5.5495936e-05
5.5224738e-05
5.5002126e-05
5.4818456e-05
5.4666471e-05
5.45409e-05
5.4437145e-05
5.4354483e-05
5.428275e-05
5.4252838e-05
5.41661e-05
5.4271082e-05
5.4415435e-05
0.003913101
0.0047377027
0.0044124537
0.0040877983
0.0038447053
0.0036461255
0.0034767308
0.0033313557
0.0032059477
0.0030965161
0.0029998301
0.0029135371
0.0028359437
0.0027656382
0.0027013768
0.0026422579
0.0025875999
0.0025367978
0.0024893633
0.0024448931
0.0024030484
0.0023635478
0.0023261416
0.0022906241
0.0022568208
0.0022245733
0.0021937555
0.0021642515
0.0021359455
0.0021087431
0.0020825604
0.0020573132
0.0020329278
0.0020093455
0.0019865111
0.001964369
0.0019428734
0.0019219868
0.0019016705
0.0018818841
0.001862594
0.0018437727
0.0018253926
0.0018074237
0.0017898392
0.0017726192
0.0017557456
0.0017391955
0.001722946
0.0017069825
0.001691291
0.001675855
0.0016606571
0.0016456805
0.0016309148
0.0016163496
0.001601971
0.0015877647
0.0015737192
0.0015598266
0.0015460779
0.0015324609
0.001518963
0.0015055771
0.001492296
0.0014791104
0.00146601
0.0014529839
0.0014400264
0.0014271314
0.0014142889
0.0014014887
0.0013887232
0.0013759862
0.00136327
0.0013505643
0.0013378594
0.0013251486
0.0013124251
0.0012996778
0.0012868957
0.0012740715
0.0012611968
0.0012482592
0.0012352466
0.0012221495
0.0012089566
0.0011956514
0.0011822242
0.0011689501
0.0011562422
0.0011442068
0.0011327877
0.0011219343
0.001111599
0.0011017401
0.0010923216
0.0010833106
0.0010746761
0.0010663898
0.0010584272
0.0010507658
0.0010433845
0.0010362617
0.0010293799
0.001022711
0.0010162545
0.0010099271
0.001003836
0.00099756509
0.00099205553
0.00098307586
0.00011164902
7.8524714e-05
6.7811874e-05
6.3434979e-05
6.0996545e-05
5.9371479e-05
5.8203445e-05
5.733171e-05
5.6663814e-05
5.6141254e-05
5.5725455e-05
5.5390165e-05
5.5116993e-05
5.4892703e-05
5.4707589e-05
5.4554344e-05
5.442766e-05
5.4322902e-05
5.4239331e-05
5.4166707e-05
5.4136085e-05
5.4048015e-05
5.4154365e-05
5.4272021e-05
0.0057975183
0.0069454327
0.0064972459
0.0060524485
0.0057184826
0.0054446118
0.005210042
0.0050079383
0.0048329577
0.0046797628
0.004544001
0.0044224947
0.0043129566
0.0042134702
0.0041223347
0.0040383171
0.0039604864
0.0038880117
0.0038202218
0.0037565612
0.0036965629
0.0036398385
0.0035860424
0.0035348898
0.0034861395
0.0034395711
0.0033950104
0.0033522965
0.0033112677
0.0032717923
0.0032337534
0.0031970331
0.003161528
0.0031271559
0.0030938397
0.003061501
0.0030300754
0.0029995107
0.0029697522
0.002940743
0.0029124354
0.002884791
0.0028577705
0.0028313315
0.0028054357
0.0027800553
0.0027551645
0.0027307306
0.0027067209
0.0026831146
0.002659892
0.0026370293
0.0026145015
0.0025922844
0.0025703631
0.0025487229
0.0025273436
0.0025062043
0.0024852886
0.0024645849
0.0024440802
0.0024237568
0.0024035962
0.0023835878
0.0023637213
0.0023439832
0.0023243579
0.0023048295
0.0022853895
0.0022660288
0.0022467327
0.0022274856
0.0022082763
0.0021890955
0.0021699315
0.002150769
0.0021315927
0.002112393
0.002093159
0.002073874
0.0020545212
0.0020350891
0.0020155649
0.0019959292
0.0019761634
0.0019562529
0.0019361797
0.0019159182
0.0018954532
0.0018752039
0.0018558015
0.0018374109
0.0018199481
0.0018033382
0.0017875099
0.0017724007
0.0017579569
0.0017441293
0.0017308714
0.0017181406
0.0017059002
0.0016941164
0.0016827574
0.0016717907
0.0016611896
0.0016509117
0.0016409563
0.0016311956
0.0016217952
0.0016121127
0.0016036022
0.0015897243
0.00011172813
7.8546523e-05
6.7765679e-05
6.335363e-05
6.0894574e-05
5.925546e-05
5.8077057e-05
5.7197353e-05
5.652318e-05
5.599558e-05
5.5575668e-05
5.5236971e-05
5.4960938e-05
5.4734216e-05
5.4547007e-05
5.4391934e-05
5.4263633e-05
5.4157418e-05
5.4072524e-05
5.3998603e-05
5.3966942e-05
5.3876928e-05
5.3985238e-05
5.4069355e-05
0.0072517235
0.0086782471
0.0081453487
0.007618379
0.0072228584
0.0068980277
0.0066192291
0.0063784764
0.0061695822
0.0059863308
0.0058236323
0.0056777657
0.0055460531
0.0054262465
0.005316341
0.0052148826
0.0051207748
0.0050330365
0.0049508736
0.0048736292
0.0048007501
0.0047317761
0.0046662971
0.0046039753
0.0045445241
0.0044876818
0.0044332415
0.0043810121
0.0043308007
0.0042824503
0.0042358217
0.0041907739
0.0041471829
0.0041049508
0.0040639855
0.0040241929
0.0039854959
0.0039478321
0.0039111361
0.0038753391
0.0038403842
0.003806225
0.0037728146
0.0037401016
0.0037080397
0.0036765956
0.0036457381
0.003615428
0.0035856252
0.0035563047
0.0035274427
0.0034990104
0.0034709774
0.003443314
0.0034160022
0.0033890241
0.0033623551
0.0033359693
0.0033098469
0.0032839735
0.0032583333
0.0032329045
0.0032076639
0.0031825987
0.0031576961
0.0031329393
0.0031083089
0.003083785
0.003059357
0.0030350135
0.003010736
0.002986505
0.0029623062
0.0029381279
0.0029139552
0.0028897685
0.0028655487
0.0028412831
0.002816958
0.0027925516
0.0027680426
0.0027434161
0.0027186552
0.0026937351
0.0026686314
0.0026433252
0.0026177928
0.0025920011
0.0025659298
0.0025401126
0.0025153559
0.0024918725
0.0024695578
0.002448318
0.0024280643
0.0024087183
0.0023902129
0.0023724865
0.0023554805
0.0023391416
0.0023234237
0.0023082841
0.002293683
0.0022795792
0.0022659391
0.0022527087
0.0022398876
0.0022273116
0.0022151946
0.0022027085
0.0021917291
0.0021738162
0.00011183376
7.8577112e-05
6.7706034e-05
6.3247112e-05
6.0760531e-05
5.9102658e-05
5.7910401e-05
5.7020047e-05
5.633748e-05
5.5803137e-05
5.537772e-05
5.5034461e-05
5.4754596e-05
5.4524614e-05
5.4334598e-05
5.4177074e-05
5.4046604e-05
5.3938432e-05
5.3851762e-05
5.3776097e-05
5.3743035e-05
5.3650414e-05
5.3761313e-05
5.3805676e-05
0.0083104676
0.010031325
0.0094407729
0.0088545317
0.0084150605
0.008053975
0.0077437209
0.007475455
0.0072423877
0.0070376885
0.0068557486
0.0066924628
0.006544877
0.0064105101
0.0062871442
0.0061731673
0.0060673661
0.0059686538
0.005876149
0.0057891229
0.0057069613
0.0056291532
0.0055552427
0.0054848542
0.0054176692
0.0053533965
0.0052918061
0.0052326853
0.0051758192
0.0051210328
0.0050681707
0.005017076
0.0049676097
0.0049196629
0.0048731326
0.0048279136
0.0047839198
0.0047410813
0.0046993253
0.0046585747
0.0046187654
0.0045798458
0.0045417632
0.0045044601
0.0044678842
0.0044319983
0.0043967676
0.0043621477
0.0043280936
0.0042945771
0.0042615715
0.0042290445
0.0041969614
0.0041652888
0.0041340064
0.004103094
0.0040725238
0.0040422663
0.004012299
0.0039826056
0.0039531682
0.0039239619
0.0038949602
0.0038661487
0.0038375125
0.0038090325
0.0037806864
0.0037524515
0.0037243154
0.0036962651
0.0036682792
0.0036403352
0.0036124165
0.0035845095
0.0035565968
0.0035286559
0.0035006643
0.0034726073
0.0034444685
0.0034162229
0.0033878451
0.0033593177
0.0033306208
0.0033017252
0.0032726022
0.0032432291
0.0032135781
0.0031836098
0.0031533002
0.0031232694
0.0030944565
0.003067111
0.0030411133
0.0030163559
0.0029927367
0.0029701659
0.0029485664
0.0029278673
0.0029080014
0.0028889073
0.0028705318
0.0028528259
0.0028357435
0.0028192371
0.0028032679
0.0027877732
0.002772753
0.0027580152
0.0027438108
0.0027291689
0.00271629
0.0026952704
0.00011196893
7.8619696e-05
6.7634559e-05
6.3115907e-05
6.0594208e-05
5.8912388e-05
5.7702437e-05
5.6798469e-05
5.6105167e-05
5.5562198e-05
5.5129732e-05
5.4780631e-05
5.4495858e-05
5.4261699e-05
5.4068082e-05
5.3907414e-05
5.3774159e-05
5.3663476e-05
5.3574523e-05
5.3496619e-05
5.3461754e-05
5.3365794e-05
5.3479959e-05
5.3478762e-05
0.0090476926
0.011108963
0.01048234
0.009851566
0.0093790814
0.0089907874
0.0086569048
0.0083679423
0.0081166657
0.0078957936
0.007699334
0.0075228946
0.007363313
0.0072179355
0.0070843866
0.0069609347
0.0068462785
0.0067392529
0.0066389107
0.0065444689
0.0064552677
0.0063707578
0.006290449
0.006213937
0.0061408795
0.0060709633
0.0060039406
0.0059395827
0.005877658
0.0058179779
0.0057603751
0.0057046801
0.0056507433
0.0055984468
0.0055476799
0.0054983289
0.0054503007
0.00540352
0.0053579082
0.0053133819
0.0052698719
0.0052273223
0.0051856762
0.0051448713
0.0051048512
0.0050655752
0.005027006
0.0049890954
0.0049517944
0.0049150726
0.004878901
0.0048432445
0.0048080655
0.0047733275
0.0047390086
0.0047050868
0.0046715317
0.0046383112
0.0046054008
0.0045727827
0.0045404374
0.0045083376
0.0044764543
0.0044447716
0.0044132735
0.0043819387
0.0043507431
0.0043196613
0.00428868
0.0042577846
0.0042269517
0.0041961563
0.0041653803
0.0041346084
0.0041038214
0.0040729944
0.0040421022
0.0040111288
0.0039800557
0.0039488549
0.0039174985
0.0038859668
0.0038542375
0.0038222779
0.0037900561
0.0037575466
0.003724718
0.0036915263
0.0036579442
0.0036246589
0.0035927117
0.0035623809
0.0035335352
0.0035060567
0.0034798333
0.0034547663
0.0034307709
0.0034077694
0.0033856876
0.003364458
0.0033440222
0.0033243261
0.0033053189
0.0032869484
0.0032691715
0.0032519189
0.003235191
0.0032187741
0.0032029479
0.0031866309
0.0031722752
0.0031488395
0.00011213729
7.8678488e-05
6.7553725e-05
6.2961157e-05
6.0395926e-05
5.8684407e-05
5.7452495e-05
5.6531618e-05
5.5824973e-05
5.5271273e-05
5.4830036e-05
5.447366e-05
5.4182771e-05
5.3943405e-05
5.3745299e-05
5.3580709e-05
5.3443979e-05
5.333016e-05
5.3238356e-05
5.3157656e-05
5.3120532e-05
5.3020423e-05
5.313858e-05
5.308638e-05
0.0095234201
0.011983355
0.011339779
0.01067514
0.010177119
0.009767699
0.0094154059
0.0091102701
0.0088447291
0.0086111663
0.0084032995
0.0082165153
0.0080474886
0.0078934335
0.0077518548
0.0076209264
0.0074992781
0.0073856849
0.0072791482
0.0071788425
0.0070840726
0.0069942589
0.0069088849
0.0068275236
0.0067498139
0.0066754257
0.0066040971
0.0065355867
0.0064696504
0.0064060883
0.0063447237
0.0062853778
0.0062278921
0.006172142
0.0061180104
0.0060653771
0.0060141436
0.0059642303
0.0059155538
0.005868026
0.0058215736
0.0057761372
0.0057316568
0.0056880663
0.0056453057
0.005603332
0.0055621056
0.0055215754
0.0054816895
0.0054424153
0.0054037223
0.0053655731
0.0053279277
0.0052907474
0.0052540087
0.0052176884
0.005181754
0.0051461714
0.0051109143
0.0050759639
0.0050412993
0.0050068914
0.0049727092
0.0049387356
0.0049049536
0.0048713404
0.00483787
0.0048045155
0.0047712623
0.0047380949
0.0047049881
0.0046719151
0.0046388563
0.0046057953
0.0045727114
0.0045395776
0.0045063669
0.0044730618
0.0044396424
0.0044060785
0.0043723396
0.0043384046
0.0043042492
0.004269838
0.0042351363
0.0042001163
0.0041647438
0.0041289712
0.0040927686
0.0040568766
0.0040224186
0.0039896962
0.0039585685
0.0039289095
0.0039005988
0.0038735309
0.0038476149
0.0038227674
0.0037989088
0.0037759668
0.0037538785
0.0037325861
0.003712035
0.0036921689
0.0036729416
0.0036542786
0.0036361803
0.0036184159
0.0036012877
0.0035836267
0.0035680849
0.0035427087
0.00011234304
7.8758873e-05
6.7467141e-05
6.2784978e-05
6.0166867e-05
5.8419248e-05
5.7160619e-05
5.6219151e-05
5.5496242e-05
5.4929453e-05
5.4477508e-05
5.4112246e-05
5.3813883e-05
5.3568151e-05
5.3364552e-05
5.319516e-05
5.3054176e-05
5.2936515e-05
5.2841217e-05
5.2757094e-05
5.2717193e-05
5.2612033e-05
5.2734959e-05
5.2626723e-05
0.0097802231
0.012700879
0.012058906
0.011368953
0.010850969
0.010424865
0.010057928
0.009739864
0.009462876
0.0092191009
0.0090020369
0.0088068987
0.0086302311
0.0084691458
0.0083210556
0.0081840583
0.0080567285
0.0079377949
0.0078262173
0.0077211364
0.0076218289
0.007527691
0.0074381851
0.007352866
0.0072713577
0.0071933164
0.0071184688
0.0070465636
0.0069773463
0.0069106081
0.0068461647
0.0067838296
0.0067234376
0.0066648582
0.0066079693
0.0065526456
0.0064987841
0.0064463015
0.0063951109
0.0063451202
0.0062962528
0.0062484465
0.0062016387
0.0061557602
0.0061107484
0.0060665581
0.0060231479
0.0059804644
0.0059384532
0.0058970801
0.0058563132
0.0058161134
0.0057764388
0.0057372486
0.0056985182
0.0056602233
0.0056223299
0.005584802
0.0055476122
0.0055107405
0.0054741649
0.0054378551
0.0054017781
0.0053659162
0.0053302512
0.0052947593
0.0052594129
0.0052241838
0.0051890565
0.0051540146
0.0051190315
0.0050840788
0.0050491357
0.005014185
0.0049792047
0.0049441661
0.0049090407
0.0048738098
0.0048384522
0.0048029358
0.0047672285
0.0047313074
0.0046951468
0.0046587091
0.0046219573
0.0045848617
0.0045473858
0.0045094788
0.0044711088
0.0044330607
0.0043965258
0.0043618246
0.004328809
0.0042973457
0.0042673079
0.0042385842
0.0042110787
0.0041847034
0.0041593743
0.0041350148
0.0041115588
0.004088945
0.0040671157
0.0040460115
0.0040255834
0.0040057525
0.0039865194
0.0039676393
0.0039494329
0.0039306594
0.0039141349
0.0038871503
0.00011259091
7.8867588e-05
6.7379868e-05
6.2590819e-05
5.9909444e-05
5.8118605e-05
5.6827955e-05
5.5861779e-05
5.5119334e-05
5.4536805e-05
5.4071976e-05
5.3696012e-05
5.3388642e-05
5.3135233e-05
5.2925007e-05
5.274982e-05
5.2603696e-05
5.2481394e-05
5.2381873e-05
5.2293615e-05
5.2250348e-05
5.2139129e-05
5.2267644e-05
5.2098871e-05
0.0098478027
0.013290688
0.012669838
0.011962068
0.011428604
0.010989292
0.010610623
0.010282117
0.0099958301
0.0097437237
0.0095191341
0.0093171436
0.0091341931
0.0089673144
0.0088138509
0.0086718382
0.0085398061
0.0084164476
0.0083006888
0.0081916432
0.0080885648
0.0079908303
0.0078978852
0.0078092694
0.0077245945
0.0076435064
0.0075657221
0.007490982
0.0074190236
0.0073496307
0.0072826124
0.0072177763
0.0071549515
0.0070940028
0.0070348038
0.0069772253
0.0069211604
0.0068665228
0.0068132227
0.0067611648
0.0067102697
0.0066604731
0.0066117098
0.0065639084
0.0065170041
0.0064709499
0.0064257027
0.0063812075
0.0063374076
0.0062942676
0.0062517544
0.0062098274
0.0061684431
0.0061275592
0.0060871502
0.0060471905
0.006007645
0.0059684764
0.005929656
0.005891163
0.0058529746
0.005815059
0.0057773821
0.0057399253
0.0057026698
0.0056655905
0.0056286588
0.0055918452
0.0055551335
0.0055185066
0.0054819365
0.0054453938
0.0054088567
0.005372307
0.0053357217
0.0052990707
0.0052623244
0.0052254628
0.0051884637
0.0051512936
0.0051139186
0.0050763149
0.0050384551
0.0050002998
0.0049618102
0.0049229551
0.0048836958
0.0048439788
0.0048037706
0.0047638936
0.0047255968
0.0046892171
0.0046545997
0.0046216055
0.0045901022
0.0045599734
0.0045311191
0.0045034473
0.0044768701
0.0044513075
0.0044266905
0.0044029551
0.0043800409
0.0043578855
0.004336438
0.0043156157
0.0042954191
0.0042755919
0.0042564696
0.0042367523
0.0042193925
0.0041910408
0.00011288612
7.9012886e-05
6.7298758e-05
6.2383854e-05
5.9627725e-05
5.7785764e-05
5.6457193e-05
5.5461717e-05
5.4696074e-05
5.4094835e-05
5.3614672e-05
5.3225962e-05
5.2907857e-05
5.264529e-05
5.2427155e-05
5.2245045e-05
5.209278e-05
5.1964929e-05
5.1860357e-05
5.176716e-05
5.1719853e-05
5.1601451e-05
5.1736401e-05
5.1503292e-05
0.0097474268
0.013770349
0.013192804
0.012474141
0.011929062
0.01147944
0.011091423
0.010754496
0.01046064
0.01020171
0.0099709296
0.0097632819
0.0095751254
0.0094034316
0.0092454929
0.0090992942
0.0089633293
0.0088362641
0.0087169975
0.0086046211
0.0084983706
0.0083976071
0.0083017625
0.0082103644
0.0081230146
0.0080393507
0.0079590814
0.0078819408
0.0078076597
0.0077360155
0.0076668121
0.0075998524
0.0075349608
0.0074719978
0.0074108339
0.0073513363
0.0072933953
0.0072369218
0.0071818236
0.0071280031
0.0070753782
0.0070238827
0.0069734498
0.0069240059
0.0068754845
0.0068278368
0.0067810187
0.0067349735
0.0066896428
0.0066449902
0.0066009815
0.0065575747
0.0065147253
0.0064723896
0.006430541
0.0063891533
0.0063481903
0.0063076134
0.0062673931
0.0062275077
0.0061879338
0.0061486385
0.0061095865
0.0060707585
0.0060321351
0.0059936903
0.0059553946
0.0059172172
0.0058791416
0.0058411498
0.0058032131
0.0057653005
0.0057273898
0.005689462
0.0056514931
0.0056134519
0.0055753076
0.0055370393
0.0054986241
0.0054600268
0.0054212124
0.0053821559
0.005342829
0.0053031904
0.0052631998
0.0052228245
0.0051820241
0.0051407429
0.0050989458
0.0050574877
0.0050176676
0.0049798364
0.0049438339
0.0049095158
0.004876745
0.0048454009
0.0048153799
0.0047865864
0.0047589296
0.0047323261
0.0047067046
0.0046819988
0.0046581457
0.0046350808
0.004612751
0.0045910706
0.0045700401
0.0045493933
0.0045294779
0.0045089448
0.0044908611
0.0044613243
0.00011323429
7.9204683e-05
6.7232799e-05
6.2171412e-05
5.9327885e-05
5.7426088e-05
5.6053066e-05
5.5023188e-05
5.4230265e-05
5.3606994e-05
5.3108755e-05
5.2705004e-05
5.2374217e-05
5.2100824e-05
5.1873331e-05
5.1683026e-05
5.1523486e-05
5.1389059e-05
5.1278496e-05
5.117945e-05
5.1127334e-05
5.1000498e-05
5.1142726e-05
5.0842366e-05
0.0094950975
0.014149662
0.013641424
0.012918703
0.012365563
0.011908188
0.011512885
0.01116926
0.010869303
0.010604818
0.010368963
0.010156654
0.0099641852
0.0097884855
0.0096268122
0.0094771098
0.0093378435
0.0092076596
0.0090854355
0.0089702451
0.0088613101
0.008757979
0.0086596731
0.0085659098
0.0084762831
0.0083904241
0.0083080351
0.0082288443
0.0081525777
0.0080790073
0.0080079327
0.0079391528
0.0078724883
0.0078077962
0.0077449441
0.0076837968
0.0076242418
0.0075661879
0.0075095408
0.0074542009
0.0074000842
0.0073471229
0.0072952483
0.0072443856
0.0071944665
0.007145441
0.0070972637
0.0070498769
0.0070032207
0.0069572576
0.0069119527
0.0068672629
0.0068231424
0.0067795469
0.0067364485
0.0066938206
0.006651626
0.0066098251
0.0065683875
0.0065272911
0.0064865116
0.0064460154
0.006405766
0.0063657436
0.0063259284
0.0062862934
0.0062468083
0.0062074417
0.006168176
0.0061289932
0.0060898633
0.0060507545
0.006011644
0.0059725122
0.0059333341
0.0058940776
0.0058547107
0.0058152122
0.0057755579
0.0057357118
0.0056956374
0.0056553091
0.0056146972
0.0055737594
0.0055324536
0.0054907462
0.0054485952
0.0054059427
0.0053627523
0.0053199074
0.0052787511
0.0052396467
0.005202429
0.0051669493
0.0051330663
0.0051006557
0.0050696106
0.0050398328
0.0050112282
0.0049837111
0.0049572077
0.0049316498
0.0049069725
0.0048831089
0.0048600043
0.0048375704
0.0048158074
0.0047944411
0.0047738287
0.0047525802
0.0047338596
0.0047032798
0.00011364132
7.9454643e-05
6.719344e-05
6.1963396e-05
5.901869e-05
5.7047519e-05
5.5622874e-05
5.4552966e-05
5.3728244e-05
5.3079249e-05
5.2559877e-05
5.2138519e-05
5.1792873e-05
5.1506782e-05
5.1268304e-05
5.1068371e-05
5.0900278e-05
5.0758116e-05
5.0640502e-05
5.0534582e-05
5.047678e-05
5.0340128e-05
5.0490418e-05
5.012093e-05
0.0091049224
0.014432197
0.014024817
0.013305172
0.01274745
0.0122847
0.011883981
0.011535202
0.011230441
0.010961516
0.010721561
0.010505455
0.010309448
0.010130438
0.0099656652
0.0098130422
0.0096710123
0.0095382094
0.0094134941
0.0092959269
0.009184719
0.0090792089
0.0089788099
0.0088830316
0.0087914616
0.0087037264
0.0086195226
0.0085385742
0.0084606035
0.0083853778
0.0083126929
0.008242345
0.0081741517
0.0081079669
0.0080436561
0.007981082
0.00792013
0.0078607068
0.0078027167
0.0077460584
0.0076906464
0.0076364111
0.0075832827
0.0075311853
0.0074800492
0.0074298231
0.0073804608
0.0073319035
0.0072840903
0.0072369826
0.0071905448
0.0071447332
0.0070995008
0.0070548025
0.0070106097
0.0069668952
0.006923621
0.0068807466
0.0068382411
0.0067960817
0.0067542435
0.0067126922
0.0066713902
0.0066303177
0.006589454
0.0065487717
0.0065082395
0.0064678253
0.0064275112
0.0063872785
0.0063470966
0.0063069329
0.0062667637
0.0062265692
0.0061863235
0.0061459935
0.0061055466
0.0060649607
0.0060242111
0.0059832605
0.0059420716
0.0059006178
0.0058588688
0.0058167806
0.0057743103
0.0057314229
0.0056880752
0.0056442073
0.0055997819
0.0055557074
0.0055133661
0.0054731325
0.0054348368
0.0053983267
0.0053634568
0.0053300998
0.0052981461
0.0052674946
0.0052380489
0.0052097207
0.0051824345
0.0051561202
0.005130711
0.0051061383
0.0050823456
0.0050592425
0.005036829
0.0050148237
0.0049935919
0.0049717092
0.0049524221
0.0049209137
0.00011411324
7.9776183e-05
6.7194847e-05
6.1772693e-05
5.8711962e-05
5.6661097e-05
5.5177034e-05
5.4060951e-05
5.319947e-05
5.2520686e-05
5.19768e-05
5.1534991e-05
5.1172064e-05
5.087119e-05
5.0619909e-05
5.0408745e-05
5.0230668e-05
5.007947e-05
4.9953614e-05
4.9839671e-05
4.9775188e-05
4.9627207e-05
4.9786213e-05
4.9346839e-05
0.0085904332
0.014616783
0.014348891
0.013640095
0.013081399
0.012615594
0.012211235
0.011858742
0.011550378
0.011278032
0.011034862
0.010815738
0.010616884
0.010435186
0.010267877
0.010112849
0.0099685297
0.0098335464
0.0097067483
0.0095871861
0.0094740636
0.0093667123
0.0092645398
0.0091670494
0.0090738241
0.0089844876
0.0088987319
0.0088162774
0.0087368439
0.0086601949
0.0085861233
0.008514423
0.0084449094
0.0083774339
0.0083118598
0.0082480487
0.0081858841
0.0081252712
0.0080661128
0.0080083065
0.0079517655
0.0078964189
0.0078421958
0.0077890193
0.0077368188
0.0076855418
0.0076351413
0.0075855579
0.0075367296
0.007488617
0.007441184
0.007394386
0.0073481755
0.0073025065
0.0072573497
0.0072126774
0.0071684512
0.0071246295
0.0070811811
0.0070380826
0.0069953086
0.0069528242
0.0069105911
0.0068685888
0.0068267965
0.006785186
0.0067437255
0.0067023822
0.0066611378
0.006619973
0.0065788568
0.0065377555
0.0064966453
0.0064555058
0.0064143102
0.0063730248
0.0063316163
0.006290062
0.0062483364
0.0062064014
0.0061642187
0.0061217611
0.0060789974
0.0060358825
0.0059923724
0.0059484313
0.0059040145
0.0058590605
0.0058135311
0.0057683573
0.0057249562
0.0056837125
0.0056444526
0.0056070205
0.0055712676
0.0055370637
0.0055042967
0.0054728633
0.0054426646
0.0054136103
0.0053856232
0.0053586316
0.0053325669
0.0053073591
0.0052829501
0.0052592476
0.0052362512
0.0052136739
0.0051918866
0.0051694373
0.0051496415
0.0051172987
0.00011465598
8.018435e-05
6.7254069e-05
6.1615501e-05
5.8423005e-05
5.6281446e-05
5.4729613e-05
5.3560732e-05
5.2657119e-05
5.1944118e-05
5.1372023e-05
5.0906642e-05
5.0523768e-05
5.020581e-05
4.9939716e-05
4.9715545e-05
4.9525893e-05
4.9364214e-05
4.9228789e-05
4.9105546e-05
4.9033261e-05
4.8872317e-05
4.9040446e-05
4.8531519e-05
0.0079649837
0.014698592
0.014617137
0.013927907
0.013372187
0.012905698
0.012499455
0.012144648
0.011833829
0.011559029
0.011313475
0.011092062
0.010891004
0.010707189
0.010537861
0.010380899
0.01023472
0.010097954
0.009969441
0.0098482269
0.009733511
0.0096246202
0.0095209588
0.0094220258
0.0093274009
0.0092367065
0.0091496309
0.0090658922
0.0089852086
0.0089073405
0.0088320783
0.0087592146
0.0086885632
0.0086199732
0.0085533066
0.0084884239
0.0084252076
0.008363561
0.0083033862
0.0082445799
0.0081870543
0.0081307373
0.008075557
0.0080214361
0.0079683031
0.0079161045
0.0078647926
0.0078143075
0.0077645863
0.0077155892
0.0076672793
0.0076196115
0.0075725376
0.0075260113
0.0074800025
0.0074344829
0.0073894138
0.007344753
0.0073004689
0.0072565373
0.0072129327
0.0071696195
0.0071265586
0.0070837295
0.0070411109
0.0069986739
0.0069563862
0.0069142147
0.0068721404
0.0068301439
0.0067881934
0.0067462545
0.0067043033
0.0066623187
0.0066202733
0.0065781328
0.0065358633
0.0064934414
0.006450841
0.0064080234
0.0063649492
0.0063215909
0.0062779163
0.0062338794
0.0061894352
0.0061445471
0.0060991692
0.0060532385
0.0060067158
0.0059605527
0.0059161977
0.0058740447
0.0058339166
0.0057956542
0.0057591059
0.0057241391
0.0056906395
0.0056585015
0.0056276242
0.0055979154
0.0055692966
0.0055416944
0.0055150389
0.0054892584
0.0054642936
0.0054400505
0.0054165283
0.0053934355
0.0053711467
0.0053481881
0.0053279326
0.0052948345
0.00011527518
8.0695543e-05
6.7391018e-05
6.1511517e-05
5.8170913e-05
5.5927161e-05
5.4298779e-05
5.307009e-05
5.2118621e-05
5.1366658e-05
5.0762376e-05
5.0270048e-05
4.9864335e-05
4.9526786e-05
4.9243685e-05
4.9004562e-05
4.8801592e-05
4.8627843e-05
4.8481387e-05
4.8347444e-05
4.8266101e-05
4.8090465e-05
4.8267728e-05
4.7690489e-05
0.0072428227
0.014669415
0.014831024
0.014171378
0.013623172
0.013158523
0.0127522
0.012396489
0.012084358
0.011808053
0.011560923
0.01133792
0.011135273
0.010949887
0.010779027
0.010620573
0.010472938
0.010334757
0.010204872
0.010082322
0.0099663087
0.0098561551
0.0097512652
0.0096511352
0.0095553432
0.0094635116
0.0093753262
0.0092905037
0.0092087615
0.0091298579
0.0090535813
0.0089797236
0.0089080978
0.0088385509
0.0087709439
0.0087051372
0.008641012
0.0085784705
0.008517414
0.0084577389
0.0083993564
0.0083421935
0.0082861777
0.0082312311
0.0081772819
0.0081242756
0.0080721637
0.0080208862
0.0079703797
0.0079206034
0.0078715204
0.0078230848
0.0077752482
0.0077279637
0.0076812007
0.0076349304
0.0075891138
0.0075437082
0.0074986815
0.0074540093
0.0074096655
0.0073656142
0.0073218157
0.0072782491
0.0072348929
0.0071917177
0.0071486907
0.0071057784
0.0070629614
0.0070202199
0.0069775218
0.0069348319
0.006892126
0.0068493828
0.0068065741
0.0067636651
0.0067206213
0.0066774189
0.0066340311
0.0065904185
0.0065465411
0.0065023708
0.0064578747
0.0064130059
0.0063677186
0.0063219754
0.0062757292
0.0062289158
0.0061814952
0.0061344372
0.0060892192
0.0060462434
0.0060053296
0.0059663156
0.0059290472
0.0058933896
0.0058592265
0.0058264504
0.0057949584
0.0057646567
0.0057354654
0.0057073098
0.0056801188
0.0056538192
0.0056283505
0.0056036174
0.0055796184
0.0055560584
0.0055333144
0.0055098959
0.0054892227
0.0054554371
0.00011597584
8.1327045e-05
6.7628216e-05
6.1483915e-05
5.7978683e-05
5.5621029e-05
5.3907096e-05
5.2611357e-05
5.160607e-05
5.0810172e-05
5.0169505e-05
4.9646654e-05
4.9215022e-05
4.8855203e-05
4.8552741e-05
4.8296574e-05
4.8078406e-05
4.789087e-05
4.7731799e-05
4.7585645e-05
4.7493854e-05
4.7301753e-05
4.7487564e-05
4.684382e-05
0.006440401
0.014518974
0.014989468
0.014371843
0.013836592
0.013376573
0.012972088
0.012616941
0.01230467
0.012027821
0.011779924
0.011556029
0.0113524
0.011165973
0.010994057
0.010834537
0.010685833
0.010546592
0.010415658
0.010292074
0.010175041
0.010063885
0.0099580101
0.0098569124
0.0097601695
0.0096674057
0.0095783051
0.0094925837
0.0094099596
0.0093301892
0.0092530596
0.0091783631
0.0091059119
0.0090355518
0.0089671431