/*--------------------------------*- C++ -*----------------------------------*\
  =========                 |
  \\      /  F ield         | OpenFOAM: The Open Source CFD Toolbox
   \\    /   O peration     | Website:  https://openfoam.org
    \\  /    A nd           | Version:  12
     \\/     M anipulation  |
\*---------------------------------------------------------------------------*/
FoamFile
{
    format      ascii;
    class       volScalarField;
    location    "1100";
    object      p;
}
// * * * * * * * * * * * * * * * * * * * * * * * * * * * * * * * * * * * * * //

dimensions      [0 2 -2 0 0 0 0];

internalField   nonuniform List<scalar> 
13056
(
0.0071861315
0.0072267283
0.0073088563
0.0074106497
0.0075332893
0.0076748506
0.007833105
0.0080068011
0.0081953868
0.0083987974
0.0086174362
0.0088522507
0.0091048174
0.009377638
0.0096742159
0.010000297
0.010362915
0.010777178
0.011255185
0.011852307
0.012565231
0.013722488
0.014978287
0.02085779
0.01720706
0.011026836
0.009714542
0.0092211834
0.0087193364
0.0083007095
0.0079836219
0.0077391287
0.0075198311
0.0073182361
0.0071377883
0.0069821055
0.006844146
0.0067095354
0.006584922
0.0064740866
0.0063671469
0.0062666034
0.0061725301
0.0060826647
0.0059975613
0.0059159679
0.0058376796
0.0057631124
0.0056904168
0.0056205346
0.0055535165
0.0054877748
0.0054242078
0.00536285
0.0053026248
0.0052435972
0.0051862222
0.0051302761
0.0050749294
0.0050205969
0.0049675508
0.0049153325
0.0048635361
0.004812447
0.0047623359
0.0047127788
0.004663477
0.0046144951
0.0045662239
0.0045184431
0.0044707202
0.0044229823
0.0043757161
0.0043289279
0.0042819356
0.0042349184
0.00418781
0.0041409612
0.0040941811
0.0040470492
0.0039995954
0.0039520162
0.0039044667
0.0038565162
0.0038080773
0.0037590384
0.0037098027
0.0036603047
0.0036099534
0.0035588958
0.0035070817
0.0034547705
0.0034017122
0.0033475526
0.0032922188
0.0032360387
0.0031789586
0.0031203682
0.0030602959
0.0029987725
0.0029358918
0.0028712678
0.0028045501
0.0027357709
0.0026650107
0.0025918938
0.0025158858
0.0024370916
0.0023554215
0.0022703038
0.0021812275
0.0020883336
0.0019914905
0.0018913298
0.0017911602
0.0016931687
0.0015971211
0.0015025727
0.0014098592
0.0013189194
0.0012293483
0.0011412463
0.0010547386
0.00097006622
0.00088715242
0.00080598054
0.00072693119
0.00065026319
0.00057701449
0.00050689327
0.00044368408
0.00038206465
0.00034634945
0.0002897796
0.00049376526
-0.00044245832
0.0071861315
0.0072267283
0.0073088563
0.0074106497
0.0075332893
0.0076748506
0.007833105
0.0080068012
0.0081953868
0.0083987974
0.0086174362
0.0088522507
0.0091048174
0.009377638
0.0096742159
0.010000297
0.010362915
0.010777178
0.011255185
0.011852307
0.012565231
0.013722488
0.014978287
0.020855128
0.017209807
0.011027465
0.0097147629
0.0092213297
0.0087194444
0.0083007971
0.0079836957
0.0077391915
0.007519885
0.0073182831
0.0071378298
0.0069821423
0.0068441789
0.0067095651
0.006584949
0.0064741113
0.0063671696
0.0062666244
0.0061725495
0.0060826828
0.0059975781
0.0059159836
0.0058376944
0.0057631263
0.0056904299
0.0056205469
0.0055535281
0.0054877858
0.0054242182
0.0053628599
0.0053026341
0.0052436061
0.0051862307
0.0051302842
0.0050749372
0.0050206042
0.0049675579
0.0049153392
0.0048635425
0.0048124531
0.0047623418
0.0047127845
0.0046634824
0.0046145003
0.0045662289
0.0045184479
0.0044707248
0.0044229868
0.0043757204
0.004328932
0.0042819396
0.0042349222
0.0041878137
0.0041409647
0.0040941845
0.0040470524
0.0039995985
0.0039520192
0.0039044696
0.003856519
0.00380808
0.003759041
0.0037098052
0.003660307
0.0036099556
0.003558898
0.0035070838
0.0034547725
0.0034017142
0.0033475545
0.0032922206
0.0032360404
0.0031789602
0.0031203698
0.0030602974
0.0029987739
0.0029358932
0.0028712692
0.0028045514
0.0027357721
0.0026650119
0.0025918949
0.0025158868
0.0024370926
0.0023554225
0.0022703047
0.0021812283
0.0020883345
0.0019914913
0.0018913306
0.0017911609
0.0016931694
0.0015971218
0.0015025733
0.0014098598
0.00131892
0.0012293488
0.0011412468
0.0010547391
0.00097006669
0.00088715287
0.00080598098
0.00072693161
0.00065026359
0.00057701489
0.00050689366
0.00044368445
0.00038206502
0.00034634981
0.00028977999
0.00049376569
-0.00044245802
0.0071861315
0.0072267283
0.0073088563
0.0074106497
0.0075332893
0.0076748506
0.007833105
0.0080068012
0.0081953868
0.0083987975
0.0086174362
0.0088522507
0.0091048174
0.009377638
0.0096742159
0.010000297
0.010362915
0.010777178
0.011255185
0.011852307
0.012565231
0.013722488
0.014978288
0.020852945
0.017214222
0.011028601
0.0097151083
0.009221545
0.0087196008
0.0083009228
0.0079838009
0.0077392807
0.0075199615
0.0073183496
0.0071378883
0.0069821942
0.0068442252
0.0067096069
0.0065849869
0.0064741458
0.0063672013
0.0062666536
0.0061725765
0.0060827078
0.0059976014
0.0059160055
0.0058377148
0.0057631455
0.0056904479
0.0056205639
0.0055535441
0.005487801
0.0054242325
0.0053628734
0.005302647
0.0052436184
0.0051862423
0.0051302953
0.0050749477
0.0050206143
0.0049675675
0.0049153484
0.0048635513
0.0048124615
0.0047623498
0.0047127922
0.0046634898
0.0046145074
0.0045662357
0.0045184544
0.0044707311
0.0044229928
0.0043757261
0.0043289376
0.0042819449
0.0042349273
0.0041878186
0.0041409695
0.004094189
0.0040470568
0.0039996027
0.0039520232
0.0039044735
0.0038565227
0.0038080836
0.0037590444
0.0037098085
0.0036603102
0.0036099587
0.0035589009
0.0035070866
0.0034547752
0.0034017168
0.003347557
0.003292223
0.0032360427
0.0031789624
0.0031203719
0.0030602995
0.0029987759
0.002935895
0.0028712709
0.0028045531
0.0027357737
0.0026650134
0.0025918964
0.0025158882
0.0024370939
0.0023554237
0.0022703059
0.0021812295
0.0020883355
0.0019914923
0.0018913316
0.0017911619
0.0016931702
0.0015971226
0.0015025741
0.0014098606
0.0013189207
0.0012293495
0.0011412474
0.0010547398
0.00097006731
0.00088715346
0.00080598155
0.00072693216
0.00065026413
0.00057701541
0.00050689416
0.00044368494
0.0003820655
0.00034635029
0.00028978046
0.00049376625
-0.00044245766
0.0071861315
0.0072267283
0.0073088563
0.0074106497
0.0075332893
0.0076748506
0.007833105
0.0080068012
0.0081953868
0.0083987975
0.0086174362
0.0088522507
0.0091048174
0.009377638
0.0096742159
0.010000297
0.010362915
0.010777178
0.011255185
0.011852307
0.012565231
0.013722487
0.014978288
0.020851365
0.017220316
0.011030472
0.0097156116
0.0092218374
0.0087198087
0.0083010879
0.0079839382
0.0077393966
0.0075200605
0.0073184354
0.0071379635
0.0069822608
0.0068442846
0.0067096602
0.0065850352
0.0064741899
0.0063672416
0.0062666907
0.0061726108
0.0060827396
0.005997631
0.005916033
0.0058377406
0.0057631696
0.0056904706
0.0056205852
0.0055535643
0.00548782
0.0054242505
0.0053628905
0.0053026632
0.0052436337
0.0051862569
0.0051303092
0.0050749609
0.0050206269
0.0049675795
0.0049153598
0.0048635623
0.004812472
0.0047623598
0.0047128018
0.004663499
0.0046145162
0.0045662441
0.0045184624
0.0044707388
0.0044230002
0.0043757333
0.0043289444
0.0042819514
0.0042349336
0.0041878246
0.0041409753
0.0040941946
0.0040470621
0.0039996078
0.0039520282
0.0039044782
0.0038565273
0.003808088
0.0037590486
0.0037098125
0.0036603141
0.0036099624
0.0035589045
0.00350709
0.0034547785
0.00340172
0.00334756
0.0032922259
0.0032360455
0.0031789651
0.0031203745
0.0030603019
0.0029987782
0.0029358973
0.0028712731
0.0028045551
0.0027357757
0.0026650153
0.0025918982
0.0025158899
0.0024370955
0.0023554253
0.0022703074
0.0021812308
0.0020883368
0.0019914936
0.0018913327
0.001791163
0.0016931713
0.0015971236
0.001502575
0.0014098615
0.0013189216
0.0012293504
0.0011412482
0.0010547405
0.00097006805
0.00088715417
0.00080598223
0.00072693282
0.00065026477
0.00057701602
0.00050689476
0.00044368553
0.00038206606
0.00034635086
0.000289781
0.00049376691
-0.00044245725
0.0071861315
0.0072267284
0.0073088563
0.0074106497
0.0075332893
0.0076748506
0.007833105
0.0080068012
0.0081953869
0.0083987975
0.0086174362
0.0088522508
0.0091048174
0.009377638
0.009674216
0.010000297
0.010362915
0.010777178
0.011255185
0.011852307
0.012565231
0.013722486
0.014978289
0.020850084
0.017227976
0.011033209
0.0097163164
0.0092222305
0.0087200842
0.0083013053
0.0079841184
0.0077395484
0.0075201901
0.0073185476
0.007138062
0.0069823479
0.0068443622
0.00670973
0.0065850984
0.0064742474
0.0063672943
0.0062667391
0.0061726555
0.006082781
0.0059976695
0.0059160689
0.0058377742
0.0057632011
0.0056905002
0.0056206131
0.0055535905
0.0054878447
0.0054242739
0.0053629126
0.0053026842
0.0052436536
0.0051862758
0.0051303272
0.0050749781
0.0050206433
0.0049675951
0.0049153747
0.0048635765
0.0048124856
0.0047623728
0.0047128142
0.0046635108
0.0046145275
0.004566255
0.0045184729
0.0044707488
0.0044230098
0.0043757425
0.0043289532
0.0042819599
0.0042349417
0.0041878324
0.0041409828
0.0040942018
0.0040470691
0.0039996145
0.0039520346
0.0039044844
0.0038565331
0.0038080936
0.0037590541
0.0037098178
0.0036603191
0.0036099672
0.0035589091
0.0035070945
0.0034547828
0.003401724
0.0033475639
0.0032922297
0.0032360491
0.0031789686
0.0031203778
0.0030603051
0.0029987812
0.0029359002
0.0028712758
0.0028045578
0.0027357782
0.0026650177
0.0025919005
0.0025158921
0.0024370976
0.0023554272
0.0022703092
0.0021812326
0.0020883385
0.0019914951
0.0018913342
0.0017911644
0.0016931726
0.0015971249
0.0015025763
0.0014098626
0.0013189227
0.0012293514
0.0011412492
0.0010547415
0.00097006899
0.00088715508
0.0008059831
0.00072693366
0.00065026558
0.00057701681
0.00050689552
0.00044368627
0.00038206679
0.00034635158
0.00028978169
0.00049376776
-0.00044245673
0.0071861315
0.0072267284
0.0073088563
0.0074106497
0.0075332893
0.0076748506
0.007833105
0.0080068012
0.0081953869
0.0083987975
0.0086174362
0.0088522508
0.0091048175
0.009377638
0.009674216
0.010000297
0.010362915
0.010777178
0.011255185
0.011852306
0.012565231
0.013722485
0.014978291
0.020848919
0.017236232
0.011036711
0.0097172209
0.0092227216
0.0087204247
0.0083015729
0.0079843398
0.007739735
0.0075203495
0.0073186858
0.0071381833
0.0069824552
0.0068444579
0.006709816
0.0065851764
0.0064743185
0.0063673593
0.006266799
0.0061727108
0.0060828323
0.0059977172
0.0059161134
0.0058378158
0.0057632401
0.0056905368
0.0056206476
0.005553623
0.0054878754
0.005424303
0.0053629401
0.0053027102
0.0052436784
0.0051862994
0.0051303496
0.0050749994
0.0050206636
0.0049676145
0.0049153932
0.0048635941
0.0048125025
0.0047623889
0.0047128296
0.0046635256
0.0046145417
0.0045662686
0.0045184859
0.0044707613
0.0044230217
0.004375754
0.0043289642
0.0042819705
0.0042349519
0.0041878422
0.0041409921
0.0040942108
0.0040470777
0.0039996228
0.0039520425
0.003904492
0.0038565405
0.0038081007
0.0037590609
0.0037098243
0.0036603254
0.0036099732
0.0035589149
0.0035071
0.0034547881
0.0034017291
0.0033475688
0.0032922343
0.0032360536
0.0031789729
0.0031203819
0.003060309
0.002998785
0.0029359038
0.0028712793
0.0028045611
0.0027357813
0.0026650207
0.0025919033
0.0025158948
0.0024371002
0.0023554297
0.0022703115
0.0021812348
0.0020883406
0.0019914971
0.0018913361
0.0017911662
0.0016931743
0.0015971265
0.0015025778
0.0014098641
0.0013189241
0.0012293528
0.0011412505
0.0010547427
0.00097007017
0.00088715621
0.0008059842
0.00072693472
0.0006502666
0.0005770178
0.00050689648
0.00044368721
0.0003820677
0.00034635249
0.00028978256
0.00049376882
-0.00044245608
0.0071861315
0.0072267284
0.0073088563
0.0074106497
0.0075332893
0.0076748507
0.007833105
0.0080068012
0.0081953869
0.0083987975
0.0086174363
0.0088522508
0.0091048175
0.0093776381
0.009674216
0.010000297
0.010362915
0.010777178
0.011255185
0.011852306
0.012565231
0.013722483
0.014978293
0.020847772
0.017244267
0.011040623
0.009718326
0.009223308
0.0087208265
0.0083018869
0.0079845993
0.0077399536
0.0075205362
0.0073188477
0.0071383254
0.0069825812
0.0068445702
0.006709917
0.006585268
0.0064744019
0.0063674358
0.0062668693
0.0061727759
0.0060828926
0.0059977733
0.0059161658
0.0058378648
0.0057632861
0.00569058
0.0056206882
0.0055536613
0.0054879117
0.0054243372
0.0053629725
0.005302741
0.0052437076
0.0051863271
0.005130376
0.0050750246
0.0050206876
0.0049676374
0.0049154151
0.004863615
0.0048125224
0.0047624081
0.0047128479
0.0046635431
0.0046145585
0.0045662846
0.0045185013
0.0044707761
0.0044230359
0.0043757676
0.0043289773
0.004281983
0.0042349639
0.0041878537
0.0041410032
0.0040942215
0.0040470879
0.0039996326
0.003952052
0.0039045011
0.0038565492
0.0038081091
0.0037590689
0.003709832
0.0036603328
0.0036099804
0.0035589218
0.0035071066
0.0034547944
0.0034017352
0.0033475747
0.0032922399
0.003236059
0.003178978
0.0031203868
0.0030603137
0.0029987895
0.0029359081
0.0028712834
0.002804565
0.0027357851
0.0026650243
0.0025919067
0.0025158981
0.0024371033
0.0023554326
0.0022703143
0.0021812375
0.0020883431
0.0019914995
0.0018913383
0.0017911683
0.0016931763
0.0015971284
0.0015025796
0.0014098658
0.0013189257
0.0012293544
0.0011412521
0.0010547442
0.00097007158
0.00088715757
0.00080598551
0.00072693599
0.00065026783
0.00057701899
0.00050689763
0.00044368833
0.00038206879
0.00034635358
0.0002897836
0.00049377009
-0.00044245529
0.0071861315
0.0072267284
0.0073088563
0.0074106498
0.0075332894
0.0076748507
0.007833105
0.0080068012
0.0081953869
0.0083987976
0.0086174363
0.0088522508
0.0091048175
0.0093776381
0.009674216
0.010000297
0.010362915
0.010777178
0.011255185
0.011852306
0.01256523
0.01372248
0.014978295
0.020846565
0.017251932
0.011044863
0.0097196522
0.0092239979
0.0087212931
0.0083022496
0.0079848981
0.0077402052
0.007520751
0.0073190339
0.0071384889
0.006982726
0.0068446993
0.0067100332
0.0065853734
0.0064744979
0.0063675237
0.0062669503
0.0061728507
0.006082962
0.0059978379
0.0059162261
0.0058379212
0.0057633389
0.0056906297
0.005620735
0.0055537055
0.0054879533
0.0054243766
0.0053630099
0.0053027764
0.0052437412
0.0051863591
0.0051304064
0.0050750536
0.0050207152
0.0049676637
0.0049154403
0.0048636391
0.0048125454
0.0047624301
0.004712869
0.0046635633
0.0046145778
0.0045663032
0.0045185191
0.0044707931
0.0044230523
0.0043757833
0.0043289924
0.0042819975
0.0042349778
0.0041878671
0.0041410161
0.0040942338
0.0040470998
0.003999644
0.0039520629
0.0039045116
0.0038565593
0.0038081188
0.0037590783
0.003709841
0.0036603414
0.0036099887
0.0035589297
0.0035071142
0.0034548017
0.0034017422
0.0033475814
0.0032922464
0.0032360652
0.0031789839
0.0031203925
0.0030603192
0.0029987947
0.0029359131
0.0028712882
0.0028045695
0.0027357894
0.0026650284
0.0025919107
0.0025159018
0.0024371069
0.002355436
0.0022703176
0.0021812405
0.002088346
0.0019915022
0.0018913409
0.0017911707
0.0016931787
0.0015971306
0.0015025817
0.0014098679
0.0013189277
0.0012293562
0.0011412538
0.0010547459
0.00097007323
0.00088715916
0.00080598704
0.00072693746
0.00065026925
0.00057702037
0.00050689897
0.00044368964
0.00038207006
0.00034635486
0.00028978481
0.00049377157
-0.00044245437
0.0071861315
0.0072267284
0.0073088563
0.0074106498
0.0075332894
0.0076748507
0.0078331051
0.0080068013
0.0081953869
0.0083987976
0.0086174363
0.0088522509
0.0091048176
0.0093776382
0.0096742161
0.010000297
0.010362915
0.010777178
0.011255185
0.011852306
0.01256523
0.013722477
0.014978298
0.020845228
0.017259287
0.011050069
0.0097212352
0.0092248072
0.0087218337
0.0083026671
0.0079852413
0.0077404936
0.0075209971
0.0073192471
0.0071386761
0.0069828917
0.0068448471
0.0067101661
0.0065854939
0.0064746077
0.0063676242
0.0062670428
0.0061729362
0.0060830413
0.0059979117
0.0059162949
0.0058379856
0.0057633994
0.0056906865
0.0056207885
0.0055537559
0.0054880009
0.0054244217
0.0053630525
0.0053028169
0.0052437797
0.0051863957
0.0051304412
0.0050750867
0.0050207468
0.0049676939
0.004915469
0.0048636666
0.0048125717
0.0047624552
0.004712893
0.0046635863
0.0046145999
0.0045663243
0.0045185394
0.0044708125
0.0044230709
0.0043758012
0.0043290096
0.004282014
0.0042349937
0.0041878823
0.0041410307
0.0040942479
0.0040471133
0.003999657
0.0039520754
0.0039045236
0.0038565709
0.0038081298
0.0037590889
0.0037098512
0.0036603512
0.0036099981
0.0035589388
0.0035071229
0.0034548101
0.0034017502
0.0033475891
0.0032922538
0.0032360722
0.0031789907
0.003120399
0.0030603254
0.0029988007
0.0029359188
0.0028712936
0.0028045747
0.0027357944
0.0026650332
0.0025919152
0.0025159061
0.0024371109
0.0023554399
0.0022703213
0.002181244
0.0020883493
0.0019915054
0.0018913439
0.0017911736
0.0016931814
0.0015971332
0.0015025842
0.0014098702
0.0013189299
0.0012293584
0.0011412559
0.0010547479
0.00097007511
0.00088716097
0.00080598879
0.00072693915
0.00065027088
0.00057702195
0.00050690051
0.00044369114
0.00038207151
0.00034635631
0.0002897862
0.00049377327
-0.00044245332
0.0071861315
0.0072267284
0.0073088564
0.0074106498
0.0075332894
0.0076748507
0.0078331051
0.0080068013
0.008195387
0.0083987976
0.0086174364
0.0088522509
0.0091048176
0.0093776382
0.0096742161
0.010000297
0.010362915
0.010777178
0.011255185
0.011852305
0.01256523
0.013722473
0.014978301
0.020843683
0.017266357
0.011056562
0.0097231217
0.0092257579
0.0087224606
0.0083031482
0.0079856353
0.0077408244
0.0075212791
0.0073194912
0.0071388904
0.0069830814
0.0068450161
0.0067103181
0.0065856316
0.0064747332
0.0063677391
0.0062671485
0.0061730338
0.0060831319
0.0059979959
0.0059163735
0.0058380592
0.0057634683
0.0056907513
0.0056208495
0.0055538134
0.0054880552
0.0054244731
0.0053631012
0.005302863
0.0052438235
0.0051864373
0.0051304808
0.0050751245
0.0050207828
0.0049677282
0.0049155018
0.0048636979
0.0048126017
0.0047624839
0.0047129204
0.0046636126
0.0046146251
0.0045663484
0.0045185625
0.0044708347
0.0044230922
0.0043758216
0.0043290292
0.0042820328
0.0042350117
0.0041878997
0.0041410474
0.0040942639
0.0040471287
0.0039996718
0.0039520896
0.0039045373
0.003856584
0.0038081425
0.003759101
0.0037098629
0.0036603624
0.0036100088
0.0035589491
0.0035071328
0.0034548196
0.0034017594
0.0033475979
0.0032922622
0.0032360803
0.0031789984
0.0031204064
0.0030603325
0.0029988074
0.0029359252
0.0028712998
0.0028045807
0.0027358
0.0026650386
0.0025919204
0.002515911
0.0024371156
0.0023554443
0.0022703255
0.002181248
0.0020883531
0.001991509
0.0018913473
0.0017911768
0.0016931844
0.0015971361
0.0015025869
0.0014098728
0.0013189324
0.0012293608
0.0011412582
0.0010547501
0.00097007726
0.00088716304
0.00080599078
0.00072694108
0.00065027274
0.00057702375
0.00050690226
0.00044369284
0.00038207317
0.00034635797
0.00028978779
0.0004937752
-0.00044245213
0.0071861315
0.0072267284
0.0073088564
0.0074106498
0.0075332894
0.0076748508
0.0078331051
0.0080068013
0.008195387
0.0083987977
0.0086174364
0.008852251
0.0091048177
0.0093776383
0.0096742162
0.010000297
0.010362915
0.010777178
0.011255185
0.011852305
0.012565229
0.013722467
0.014978306
0.020841827
0.017272836
0.011064202
0.0097253703
0.0092268774
0.0087231892
0.0083037036
0.0079860888
0.0077412044
0.0075216027
0.0073197713
0.007139136
0.0069832987
0.0068452097
0.0067104921
0.0065857893
0.0064748768
0.0063678705
0.0062672695
0.0061731455
0.0060832354
0.0059980922
0.0059164634
0.0058381432
0.0057635471
0.0056908253
0.0056209191
0.005553879
0.0054881172
0.0054245317
0.0053631567
0.0053029156
0.0052438735
0.0051864849
0.005130526
0.0050751675
0.0050208239
0.0049677674
0.0049155392
0.0048637336
0.0048126358
0.0047625165
0.0047129517
0.0046636425
0.0046146537
0.0045663759
0.0045185888
0.00447086
0.0044231164
0.0043758449
0.0043290515
0.0042820542
0.0042350323
0.0041879194
0.0041410664
0.0040942821
0.0040471462
0.0039996886
0.0039521058
0.0039045528
0.0038565989
0.0038081568
0.0037591148
0.0037098761
0.0036603752
0.0036100211
0.0035589608
0.0035071441
0.0034548304
0.0034017698
0.0033476078
0.0032922717
0.0032360895
0.0031790072
0.0031204148
0.0030603405
0.0029988152
0.0029359326
0.0028713069
0.0028045874
0.0027358065
0.0026650447
0.0025919262
0.0025159166
0.0024371209
0.0023554494
0.0022703303
0.0021812526
0.0020883574
0.001991513
0.0018913511
0.0017911804
0.0016931879
0.0015971394
0.0015025901
0.0014098758
0.0013189353
0.0012293635
0.0011412608
0.0010547526
0.0009700797
0.00088716539
0.00080599305
0.00072694326
0.00065027486
0.0005770258
0.00050690424
0.00044369478
0.00038207506
0.00034635986
0.00028978959
0.0004937774
-0.00044245077
0.0071861315
0.0072267285
0.0073088564
0.0074106499
0.0075332895
0.0076748508
0.0078331052
0.0080068014
0.0081953871
0.0083987978
0.0086174365
0.0088522511
0.0091048178
0.0093776384
0.0096742163
0.010000297
0.010362915
0.010777178
0.011255185
0.011852304
0.012565228
0.013722461
0.014978312
0.02083953
0.017277725
0.011073042
0.0097280534
0.0092281998
0.0087240384
0.0083043462
0.0079866116
0.0077416419
0.0075219749
0.0073200931
0.0071394181
0.0069835483
0.0068454319
0.0067106917
0.0065859702
0.0064750414
0.0063680212
0.006267408
0.0061732735
0.006083354
0.0059982024
0.0059165662
0.0058382393
0.0057636372
0.0056909099
0.0056209988
0.0055539541
0.0054881881
0.0054245987
0.0053632202
0.0053029758
0.0052439306
0.0051865392
0.0051305777
0.0050752167
0.0050208708
0.0049678121
0.0049155819
0.0048637744
0.0048126748
0.0047625538
0.0047129874
0.0046636767
0.0046146864
0.0045664073
0.0045186189
0.0044708888
0.0044231441
0.0043758714
0.004329077
0.0042820787
0.0042350558
0.004187942
0.004141088
0.0040943029
0.0040471662
0.0039997078
0.0039521243
0.0039045705
0.003856616
0.0038081732
0.0037591305
0.0037098912
0.0036603897
0.003610035
0.0035589742
0.003507157
0.0034548427
0.0034017816
0.0033476192
0.0032922826
0.0032360999
0.0031790172
0.0031204244
0.0030603497
0.0029988239
0.002935941
0.0028713149
0.0028045951
0.0027358138
0.0026650517
0.0025919329
0.002515923
0.0024371269
0.0023554551
0.0022703357
0.0021812577
0.0020883623
0.0019915177
0.0018913555
0.0017911846
0.0016931918
0.0015971431
0.0015025937
0.0014098793
0.0013189386
0.0012293667
0.0011412638
0.0010547555
0.00097008247
0.00088716806
0.00080599562
0.00072694575
0.00065027727
0.00057702814
0.00050690651
0.00044369699
0.00038207721
0.00034636201
0.00028979164
0.00049377989
-0.00044244922
0.0071861316
0.0072267285
0.0073088565
0.0074106499
0.0075332895
0.0076748509
0.0078331053
0.0080068015
0.0081953872
0.0083987978
0.0086174366
0.0088522512
0.0091048179
0.0093776385
0.0096742164
0.010000297
0.010362915
0.010777178
0.011255184
0.011852303
0.012565227
0.013722452
0.014978319
0.020836652
0.017280394
0.011083228
0.0097312579
0.0092297663
0.0087250312
0.0083050918
0.0079872158
0.0077421466
0.0075224039
0.0073204637
0.0071397428
0.0069838353
0.0068456874
0.0067109212
0.0065861779
0.0064752305
0.0063681941
0.006267567
0.0061734202
0.00608349
0.0059983289
0.005916684
0.0058383495
0.0057637404
0.0056910069
0.0056210901
0.0055540401
0.0054882693
0.0054246755
0.0053632928
0.0053030447
0.005243996
0.0051866013
0.0051306368
0.005075273
0.0050209244
0.0049678633
0.0049156307
0.004863821
0.0048127194
0.0047625964
0.0047130281
0.0046637157
0.0046147238
0.0045664431
0.0045186532
0.0044709217
0.0044231756
0.0043759017
0.004329106
0.0042821066
0.0042350826
0.0041879677
0.0041411127
0.0040943267
0.004047189
0.0039997297
0.0039521453
0.0039045908
0.0038566354
0.0038081918
0.0037591485
0.0037099085
0.0036604062
0.0036100509
0.0035589895
0.0035071716
0.0034548568
0.0034017951
0.0033476321
0.003292295
0.0032361118
0.0031790286
0.0031204353
0.0030603602
0.0029988339
0.0029359506
0.002871324
0.0028046038
0.0027358221
0.0026650596
0.0025919405
0.0025159302
0.0024371338
0.0023554617
0.0022703419
0.0021812636
0.0020883679
0.0019915229
0.0018913605
0.0017911893
0.0016931963
0.0015971474
0.0015025978
0.0014098831
0.0013189423
0.0012293702
0.0011412673
0.0010547588
0.00097008563
0.0008871711
0.00080599856
0.00072694858
0.00065028
0.00057703079
0.00050690908
0.00044369951
0.00038207965
0.00034636446
0.00028979397
0.00049378273
-0.00044244746
0.0071861316
0.0072267285
0.0073088565
0.00741065
0.0075332896
0.0076748509
0.0078331053
0.0080068016
0.0081953873
0.0083987979
0.0086174367
0.0088522513
0.009104818
0.0093776386
0.0096742165
0.010000297
0.010362915
0.010777178
0.011255184
0.011852302
0.012565226
0.013722441
0.014978328
0.02083302
0.017281583
0.011094914
0.0097350827
0.0092316274
0.0087261955
0.0083059589
0.0079879158
0.0077427301
0.0075228993
0.0073208914
0.0071401173
0.0069841662
0.0068459818
0.0067111854
0.0065864171
0.0064754481
0.0063683931
0.0062677499
0.006173589
0.0060836463
0.0059984741
0.0059168194
0.0058384761
0.005763859
0.0056911182
0.0056211948
0.0055541387
0.0054883624
0.0054247635
0.0053633761
0.0053031236
0.0052440709
0.0051866725
0.0051307045
0.0050753374
0.0050209858
0.0049679219
0.0049156866
0.0048638744
0.0048127704
0.0047626452
0.0047130748
0.0046637603
0.0046147666
0.0045664841
0.0045186925
0.0044709593
0.0044232118
0.0043759363
0.0043291393
0.0042821385
0.0042351132
0.0041879971
0.004141141
0.0040943538
0.004047215
0.0039997547
0.0039521694
0.0039046139
0.0038566576
0.0038082132
0.003759169
0.0037099281
0.0036604251
0.003610069
0.0035590069
0.0035071883
0.0034548729
0.0034018105
0.0033476469
0.0032923092
0.0032361254
0.0031790417
0.0031204478
0.0030603721
0.0029988454
0.0029359615
0.0028713345
0.0028046138
0.0027358317
0.0026650687
0.0025919491
0.0025159384
0.0024371417
0.0023554691
0.002270349
0.0021812703
0.0020883742
0.0019915289
0.0018913662
0.0017911947
0.0016932015
0.0015971523
0.0015026024
0.0014098876
0.0013189465
0.0012293743
0.0011412712
0.0010547626
0.00097008923
0.00088717457
0.0008060019
0.00072695181
0.00065028313
0.00057703381
0.00050691201
0.00044370237
0.00038208243
0.00034636725
0.00028979663
0.00049378597
-0.00044244546
0.0071861316
0.0072267286
0.0073088566
0.00741065
0.0075332897
0.007674851
0.0078331054
0.0080068017
0.0081953874
0.0083987981
0.0086174369
0.0088522514
0.0091048182
0.0093776387
0.0096742166
0.010000297
0.010362915
0.010777178
0.011255183
0.011852301
0.012565224
0.013722427
0.014978339
0.020828427
0.017281982
0.011108246
0.009739642
0.0092338432
0.0087275651
0.0083069699
0.0079887283
0.0077434062
0.0075234726
0.0073213859
0.0071405499
0.0069845483
0.0068463216
0.0067114903
0.0065866929
0.0064756989
0.0063686223
0.0062679605
0.0061737833
0.0060838262
0.0059986413
0.0059169752
0.0058386217
0.0057639953
0.0056912462
0.0056213152
0.0055542521
0.0054884694
0.0054248646
0.0053634718
0.0053032143
0.005244157
0.0051867543
0.0051307822
0.0050754114
0.0050210563
0.0049679891
0.0049157507
0.0048639356
0.0048128289
0.0047627011
0.0047131283
0.0046638115
0.0046148156
0.0045665311
0.0045187375
0.0044710025
0.0044232531
0.004375976
0.0043291774
0.004282175
0.0042351483
0.0041880308
0.0041411733
0.0040943849
0.0040472449
0.0039997834
0.0039521969
0.0039046403
0.003856683
0.0038082376
0.0037591924
0.0037099507
0.0036604467
0.0036100898
0.0035590268
0.0035072075
0.0034548912
0.0034018281
0.0033476638
0.0032923254
0.0032361409
0.0031790565
0.003120462
0.0030603857
0.0029988584
0.002935974
0.0028713464
0.0028046252
0.0027358425
0.0026650791
0.002591959
0.0025159478
0.0024371506
0.0023554776
0.0022703571
0.002181278
0.0020883815
0.0019915358
0.0018913727
0.0017912009
0.0016932073
0.0015971579
0.0015026077
0.0014098927
0.0013189514
0.0012293789
0.0011412756
0.0010547668
0.00097009334
0.00088717853
0.00080600571
0.00072695549
0.00065028669
0.00057703726
0.00050691536
0.00044370564
0.0003820856
0.00034637043
0.00028979966
0.00049378966
-0.00044244317
0.0071861316
0.0072267286
0.0073088566
0.0074106501
0.0075332898
0.0076748511
0.0078331055
0.0080068018
0.0081953875
0.0083987982
0.008617437
0.0088522516
0.0091048183
0.0093776389
0.0096742168
0.010000297
0.010362915
0.010777178
0.011255183
0.011852299
0.012565222
0.013722408
0.014978352
0.020822619
0.017281565
0.011123241
0.0097450634
0.0092364858
0.0087291809
0.0083081516
0.0079896734
0.0077441908
0.0075241373
0.0073219586
0.0071410506
0.0069849903
0.0068467145
0.0067118426
0.0065870116
0.0064759886
0.006368887
0.0062682036
0.0061740075
0.0060840337
0.005998834
0.0059171548
0.0058387894
0.0057641524
0.0056913936
0.0056214538
0.0055543827
0.0054885925
0.005424981
0.0053635819
0.0053033186
0.0052442559
0.0051868483
0.0051308716
0.0050754965
0.0050211374
0.0049680663
0.0049158244
0.004864006
0.0048128961
0.0047627654
0.0047131897
0.0046638703
0.0046148719
0.004566585
0.0045187891
0.004471052
0.0044233006
0.0043760216
0.0043292211
0.0042822169
0.0042351885
0.0041880694
0.0041412104
0.0040944205
0.0040472791
0.0039998162
0.0039522285
0.0039046707
0.0038567121
0.0038082655
0.0037592193
0.0037099765
0.0036604715
0.0036101136
0.0035590497
0.0035072294
0.0034549123
0.0034018483
0.0033476831
0.003292344
0.0032361587
0.0031790736
0.0031204783
0.0030604013
0.0029988734
0.0029359883
0.0028713601
0.0028046382
0.002735855
0.002665091
0.0025919703
0.0025159586
0.0024371609
0.0023554874
0.0022703663
0.0021812868
0.0020883898
0.0019915437
0.0018913801
0.0017912079
0.001693214
0.0015971642
0.0015026138
0.0014098984
0.0013189569
0.0012293842
0.0011412807
0.0010547717
0.00097009804
0.00088718305
0.00080601007
0.0007269597
0.00065029075
0.00057704121
0.00050691918
0.00044370937
0.00038208923
0.00034637407
0.00028980313
0.00049379387
-0.00044244055
0.0071861316
0.0072267287
0.0073088567
0.0074106502
0.0075332899
0.0076748512
0.0078331057
0.0080068019
0.0081953877
0.0083987984
0.0086174372
0.0088522518
0.0091048186
0.0093776391
0.0096742169
0.010000298
0.010362915
0.010777177
0.011255182
0.011852296
0.01256522
0.013722385
0.01497837
0.020815285
0.01728028
0.011139456
0.0097514847
0.0092396399
0.0087310928
0.0083095358
0.0079907747
0.007745103
0.0075249089
0.0073226229
0.0071416309
0.0069855024
0.0068471695
0.0067122504
0.0065873802
0.0064763236
0.0063691929
0.0062684845
0.0061742665
0.0060842734
0.0059990566
0.0059173621
0.005838983
0.0057643336
0.0056915636
0.0056216136
0.0055545331
0.0054887345
0.0054251151
0.0053637088
0.0053034387
0.0052443699
0.0051869565
0.0051309745
0.0050755944
0.0050212306
0.0049681552
0.0049159092
0.0048640869
0.0048129734
0.0047628393
0.0047132604
0.0046639379
0.0046149366
0.004566647
0.0045188485
0.0044711089
0.0044233552
0.0043760739
0.0043292713
0.0042822651
0.0042352347
0.0041881138
0.004141253
0.0040944614
0.0040473184
0.003999854
0.0039522647
0.0039047054
0.0038567455
0.0038082976
0.0037592501
0.0037100061
0.0036604999
0.0036101409
0.0035590758
0.0035072545
0.0034549364
0.0034018714
0.0033477053