/*--------------------------------*- C++ -*----------------------------------*\
  =========                 |
  \\      /  F ield         | OpenFOAM: The Open Source CFD Toolbox
   \\    /   O peration     | Website:  https://openfoam.org
    \\  /    A nd           | Version:  12
     \\/     M anipulation  |
\*---------------------------------------------------------------------------*/
FoamFile
{
    format      ascii;
    class       surfaceScalarField;
    location    "1100";
    object      phi;
}
// * * * * * * * * * * * * * * * * * * * * * * * * * * * * * * * * * * * * * //

dimensions      [0 3 -1 0 0 0 0];

internalField   nonuniform List<scalar> 
25880
(
2.0046232e-06
3.0945779e-11
2.0045388e-06
8.4360688e-11
2.0044215e-06
1.1736534e-10
2.0042862e-06
1.3527468e-10
2.0041337e-06
1.5248759e-10
2.003964e-06
1.6970944e-10
2.0037767e-06
1.8731503e-10
2.0035706e-06
2.0605305e-10
2.0033441e-06
2.2652815e-10
2.0030948e-06
2.4928776e-10
2.0028199e-06
2.7495668e-10
2.0025154e-06
3.0443652e-10
2.0021766e-06
3.3881704e-10
2.0017964e-06
3.8020288e-10
2.0013661e-06
4.3033843e-10
2.00087e-06
4.9606774e-10
2.0002931e-06
5.7686707e-10
1.9995871e-06
7.0599635e-10
1.9987415e-06
8.4566848e-10
1.9975329e-06
1.2086182e-09
1.9960641e-06
1.4687233e-09
1.9922783e-06
3.7858644e-09
1.9895246e-06
2.7537133e-09
1.0341264e-06
9.5539818e-07
6.8913525e-08
9.6521284e-07
5.7318528e-08
1.1594997e-08
5.3406623e-08
3.9119045e-09
5.0747358e-08
2.6592654e-09
4.8752052e-08
1.9953054e-09
4.7108155e-08
1.6438973e-09
4.5703153e-08
1.4050018e-09
4.4489995e-08
1.2131584e-09
4.3431973e-08
1.0580216e-09
4.2497239e-08
9.3473412e-10
4.1661851e-08
8.3538827e-10
4.0909149e-08
7.5270184e-10
4.0226296e-08
6.8285295e-10
3.9601528e-08
6.2476812e-10
3.9025522e-08
5.7600593e-10
3.8491792e-08
5.337297e-10
3.7994716e-08
4.9707609e-10
3.7529478e-08
4.6523885e-10
3.7092279e-08
4.3719825e-10
3.6679887e-08
4.1239179e-10
3.6289602e-08
3.9028529e-10
3.5919091e-08
3.7051133e-10
3.5566356e-08
3.5273495e-10
3.5229757e-08
3.3659904e-10
3.4907792e-08
3.2196438e-10
3.4599212e-08
3.0858073e-10
3.4302985e-08
2.9622722e-10
3.4018054e-08
2.8493048e-10
3.3743484e-08
2.7457029e-10
3.3478514e-08
2.6497016e-10
3.3222382e-08
2.5613133e-10
3.2974359e-08
2.4802358e-10
3.2733865e-08
2.4049411e-10
3.2500408e-08
2.3345636e-10
3.2273469e-08
2.2693884e-10
3.2052577e-08
2.2089258e-10
3.1837373e-08
2.1520397e-10
3.162752e-08
2.0985238e-10
3.1422643e-08
2.0487771e-10
3.1222394e-08
2.0024926e-10
3.1026508e-08
1.9588578e-10
3.0834741e-08
1.9176676e-10
3.0646816e-08
1.8792526e-10
3.0462457e-08
1.8435894e-10
3.0281458e-08
1.809989e-10
3.0103655e-08
1.7780279e-10
2.9928848e-08
1.7480697e-10
2.9756808e-08
1.7203976e-10
2.9587364e-08
1.6944472e-10
2.942039e-08
1.6697338e-10
2.9255741e-08
1.6464919e-10
2.9093246e-08
1.62495e-10
2.8932734e-08
1.6051157e-10
2.8774081e-08
1.5865338e-10
2.8617193e-08
1.5688815e-10
2.8461946e-08
1.552472e-10
2.8308192e-08
1.5375369e-10
2.8155804e-08
1.52388e-10
2.8004691e-08
1.5111315e-10
2.7854769e-08
1.4992225e-10
2.7705925e-08
1.4884318e-10
2.7558028e-08
1.4789734e-10
2.7410977e-08
1.4705108e-10
2.7264703e-08
1.4627409e-10
2.7119116e-08
1.4558651e-10
2.6974109e-08
1.4500788e-10
2.6829564e-08
1.4454505e-10
2.6685394e-08
1.4416917e-10
2.6541537e-08
1.4385725e-10
2.6397899e-08
1.4363859e-10
2.6254362e-08
1.4353665e-10
2.6110827e-08
1.4353467e-10
2.5967217e-08
1.4360987e-10
2.5823448e-08
1.4376925e-10
2.5679411e-08
1.4403732e-10
2.5534986e-08
1.4442478e-10
2.5390076e-08
1.4490963e-10
2.5244597e-08
1.4547922e-10
2.5098433e-08
1.4616372e-10
2.4951449e-08
1.4698458e-10
2.4803529e-08
1.4792029e-10
2.4654569e-08
1.4896001e-10
2.4504432e-08
1.5013701e-10
2.4352959e-08
1.5147225e-10
2.4200011e-08
1.529487e-10
2.4045443e-08
1.5456793e-10
2.3889068e-08
1.5637495e-10
2.373071e-08
1.583575e-10
2.3570122e-08
1.6058771e-10
2.3413868e-08
1.5625474e-10
2.3265451e-08
1.4841665e-10
2.3124236e-08
1.4121522e-10
2.2989656e-08
1.3457982e-10
2.2861183e-08
1.284728e-10
2.2738334e-08
1.2284968e-10
2.2620687e-08
1.1764689e-10
2.2507868e-08
1.1281865e-10
2.2399527e-08
1.0834131e-10
2.2295336e-08
1.0419064e-10
2.2195006e-08
1.0033008e-10
2.2098276e-08
9.6729718e-11
2.2004903e-08
9.3373712e-11
2.1914643e-08
9.0259756e-11
2.1827275e-08
8.7367969e-11
2.1742529e-08
8.4745856e-11
2.1660251e-08
8.2277865e-11
2.1579889e-08
8.0361733e-11
2.1501666e-08
7.8223012e-11
2.1423466e-08
7.8200069e-11
2.1348738e-08
7.472862e-11
2.1257283e-08
9.1454482e-11
5.7263735e-11
2.0344966e-06
6.2400001e-11
2.0344108e-06
1.7015972e-10
2.0342914e-06
2.3679624e-10
2.0341537e-06
2.7296659e-10
2.0339985e-06
3.0770904e-10
2.0338257e-06
3.4245857e-10
2.0336351e-06
3.7797483e-10
2.0334253e-06
4.1576856e-10
2.0331948e-06
4.570596e-10
2.0329411e-06
5.0295212e-10
2.0326614e-06
5.5470592e-10
2.0323517e-06
6.1413855e-10
2.0320071e-06
6.8344659e-10
2.0316204e-06
7.6687214e-10
2.0311828e-06
8.6793084e-10
2.0306785e-06
1.0004163e-09
2.030092e-06
1.163273e-09
2.0293745e-06
1.4235259e-09
2.0285152e-06
1.7050335e-09
2.0272873e-06
2.4364453e-09
2.0257954e-06
2.9606905e-09
2.0219514e-06
7.6298196e-09
2.0191483e-06
5.5568649e-09
1.1254018e-06
1.8491446e-06
2.0539909e-07
1.8852156e-06
1.7257138e-07
4.442271e-08
1.6096316e-07
1.5520127e-08
1.5309778e-07
1.0524638e-08
1.4719133e-07
7.9017569e-09
1.4232022e-07
6.5150132e-09
1.3815228e-07
5.5729413e-09
1.3454939e-07
4.8160475e-09
1.3140414e-07
4.2032657e-09
1.2862303e-07
3.7158467e-09
1.261356e-07
3.3228197e-09
1.2389278e-07
2.995523e-09
1.2185675e-07
2.7188847e-09
1.1999286e-07
2.4886528e-09
1.1827356e-07
2.2953062e-09
1.1667964e-07
2.127654e-09
1.1519451e-07
1.9822044e-09
1.1380392e-07
1.8558315e-09
1.1249661e-07
1.7445039e-09
1.1126302e-07
1.6459803e-09
1.1009515e-07
1.5581618e-09
1.0898607e-07
1.4795878e-09
1.0792987e-07
1.4089342e-09
1.0692168e-07
1.344793e-09
1.0595704e-07
1.2865996e-09
1.0503225e-07
1.233373e-09
1.0414424e-07
1.1842378e-09
1.0328988e-07
1.1392913e-09
1.0246638e-07
1.098068e-09
1.0167148e-07
1.0598665e-09
1.0090293e-07
1.0246866e-09
1.0015854e-07
9.9241263e-10
9.9436594e-08
9.6243995e-10
9.8735628e-08
9.3442279e-10
9.8054095e-08
9.0847128e-10
9.7390592e-08
8.8439551e-10
9.6744052e-08
8.6174412e-10
9.6113472e-08
8.4043244e-10
9.549773e-08
8.206194e-10
9.4895794e-08
8.021855e-10
9.4306872e-08
7.8480814e-10
9.3730235e-08
7.6840317e-10
9.3165058e-08
7.5310277e-10
9.2610518e-08
7.3889889e-10
9.2065998e-08
7.2551848e-10
9.153101e-08
7.1279116e-10
9.1004956e-08
7.0086113e-10
9.0487153e-08
6.8984226e-10
8.9977086e-08
6.7951158e-10
8.9474385e-08
6.6967507e-10
8.897861e-08
6.6042368e-10
8.8489254e-08
6.5185135e-10
8.8005805e-08
6.4396069e-10
8.7527887e-08
6.365712e-10
8.7055222e-08
6.2955298e-10
8.6587439e-08
6.2303028e-10
8.6124096e-08
6.1709687e-10
8.5664809e-08
6.1167495e-10
8.5209305e-08
6.0661711e-10
8.4757333e-08
6.0189426e-10
8.4308557e-08
5.9761878e-10
8.3862578e-08
5.9387626e-10
8.3419096e-08
5.9053338e-10
8.2977902e-08
5.8746843e-10
8.2538728e-08
5.8476062e-10
8.2101246e-08
5.8248971e-10
8.1665108e-08
5.8068299e-10
8.1230051e-08
5.7922574e-10
8.0795883e-08
5.7802524e-10
8.0362323e-08
5.7719851e-10
7.992902e-08
5.7684014e-10
7.9495671e-08
5.7688385e-10
7.9062042e-08
5.772382e-10
7.8627881e-08
5.7793031e-10
7.8192859e-08
5.7905942e-10
7.7756615e-08
5.8066871e-10
7.7318855e-08
5.8267038e-10
7.687932e-08
5.8501327e-10
7.6437666e-08
5.8781842e-10
7.5993478e-08
5.9117258e-10
7.5546408e-08
5.9498985e-10
7.5096142e-08
5.9922654e-10
7.4642263e-08
6.0401606e-10
7.4184291e-08
6.0944351e-10
7.3721799e-08
6.1544083e-10
7.3254353e-08
6.2201417e-10
7.2781383e-08
6.2934467e-10
7.2302357e-08
6.3738371e-10
7.1816523e-08
6.4642205e-10
7.1343738e-08
6.2903905e-10
7.0894617e-08
5.9753836e-10
7.0467239e-08
5.685934e-10
7.0059898e-08
5.4192059e-10
6.9671002e-08
5.1736887e-10
6.9299091e-08
4.9476056e-10
6.8942897e-08
4.7384035e-10
6.8601292e-08
4.5442421e-10
6.8273215e-08
4.3641768e-10
6.7957682e-08
4.1972376e-10
6.7653817e-08
4.0419558e-10
6.7360834e-08
3.8971287e-10
6.7077995e-08
3.7621212e-10
6.680457e-08
3.636845e-10
6.6539888e-08
3.5204994e-10
6.6283134e-08
3.4150053e-10
6.6033842e-08
3.3156949e-10
6.5790341e-08
3.2386275e-10
6.5553314e-08
3.1525017e-10
6.5316333e-08
3.1518101e-10
6.508995e-08
3.0111175e-10
6.481239e-08
3.6901397e-10
2.3023107e-10
2.0946886e-06
9.4844824e-11
2.0946001e-06
2.58729e-10
2.0944767e-06
3.6016895e-10
2.0943344e-06
4.1525121e-10
2.094174e-06
4.6812054e-10
2.0939955e-06
5.2098037e-10
2.0937985e-06
5.7499253e-10
2.0935818e-06
6.3245532e-10
2.0933436e-06
6.95224e-10
2.0930816e-06
7.6497743e-10
2.0927927e-06
8.4363036e-10
2.0924729e-06
9.3394459e-10
2.092117e-06
1.0392573e-09
2.0917179e-06
1.1660133e-09
2.0912663e-06
1.3195525e-09
2.0907459e-06
1.5208298e-09
2.0901409e-06
1.7682377e-09
2.0894008e-06
2.16359e-09
2.0885147e-06
2.5912131e-09
2.0872489e-06
3.702202e-09
2.0857112e-06
4.4983778e-09
2.0817509e-06
1.1590162e-08
2.0788601e-06
8.44765e-09
1.2294484e-06
2.6985563e-06
3.3769115e-07
2.7769728e-06
2.8430292e-07
9.7810935e-08
2.6567553e-07
3.4147522e-08
2.5325178e-07
2.2948384e-08
2.4393105e-07
1.7222489e-08
2.3623752e-07
1.4208537e-08
2.296441e-07
1.2166363e-08
2.2393409e-07
1.0526058e-08
2.1894051e-07
9.1968525e-09
2.1451767e-07
8.1386791e-09
2.1055574e-07
7.2847554e-09
2.069783e-07
6.5729607e-09
2.0372645e-07
5.970739e-09
2.0074593e-07
5.4691724e-09
1.9799347e-07
5.0477649e-09
1.9543899e-07
4.6821346e-09
1.9305648e-07
4.3647073e-09
1.9082351e-07
4.0888031e-09
1.8872238e-07
3.8456342e-09
1.8673803e-07
3.6303303e-09
1.8485785e-07
3.4383482e-09
1.8307092e-07
3.2665111e-09
1.8136791e-07
3.111942e-09
1.7974113e-07
2.9715738e-09
1.7818355e-07
2.844179e-09
1.766893e-07
2.7276251e-09
1.7525355e-07
2.6199938e-09
1.7387133e-07
2.5215094e-09
1.7253823e-07
2.431168e-09
1.7125067e-07
2.3474273e-09
1.7000506e-07
2.2702932e-09
1.6879795e-07
2.1995257e-09
1.6762659e-07
2.1337952e-09
1.6648867e-07
2.0723405e-09
1.6538174e-07
2.0154107e-09
1.6430353e-07
1.9625961e-09
1.6325238e-07
1.9128999e-09
1.6222668e-07
1.8661352e-09
1.6122464e-07
1.8226596e-09
1.6024461e-07
1.7822145e-09
1.5928533e-07
1.7440867e-09
1.5834564e-07
1.7080892e-09
1.5742423e-07
1.6745198e-09
1.5651976e-07
1.6433644e-09
1.5563126e-07
1.6140193e-09
1.5475794e-07
1.5861058e-09
1.5389886e-07
1.5599462e-09
1.5305291e-07
1.5357962e-09
1.5221925e-07
1.5131634e-09
1.5139731e-07
1.4916167e-09
1.5058638e-07
1.471357e-09
1.4978563e-07
1.4525976e-09
1.4899425e-07
1.4353449e-09
1.4821162e-07
1.4191992e-09
1.474373e-07
1.403871e-09
1.466707e-07
1.3896375e-09
1.4591108e-07
1.3767098e-09
1.4515784e-07
1.3649156e-09
1.4441053e-07
1.3539275e-09
1.4366875e-07
1.3436797e-09
1.4293194e-07
1.3344249e-09
1.4219946e-07
1.3263544e-09
1.4147082e-07
1.3191725e-09
1.4074568e-07
1.3126079e-09
1.4002361e-07
1.3068366e-09
1.3930406e-07
1.3020391e-09
1.3858646e-07
1.2982764e-09
1.378704e-07
1.2952936e-09
1.3715554e-07
1.2928838e-09
1.3644143e-07
1.2913086e-09
1.3572749e-07
1.2907806e-09
1.3501322e-07
1.2911528e-09
1.3429824e-07
1.2922213e-09
1.3358212e-07
1.2940466e-09
1.3286433e-07
1.2968523e-09
1.3214426e-07
1.3007356e-09
1.3142143e-07
1.3055011e-09
1.3069541e-07
1.3110348e-09
1.2996562e-07
1.3176083e-09
1.2923137e-07
1.3254172e-09
1.2849209e-07
1.3342702e-09
1.2774725e-07
1.3440702e-09
1.2699615e-07
1.3551169e-09
1.2623799e-07
1.3676029e-09
1.2547205e-07
1.3813767e-09
1.2469761e-07
1.3964534e-09
1.2391372e-07
1.4132411e-09
1.2311947e-07
1.4316319e-09
1.2231361e-07
1.4522793e-09
1.2152909e-07
1.4135599e-09
1.2078355e-07
1.3430797e-09
1.2007384e-07
1.2782998e-09
1.1939718e-07
1.2185881e-09
1.1875093e-07
1.1636106e-09
1.1813272e-07
1.1129731e-09
1.1754046e-07
1.0661057e-09
1.1697228e-07
1.022598e-09
1.1642646e-07
9.8224083e-10
1.1590136e-07
9.448188e-10
1.1539556e-07
9.1000367e-10
1.1490774e-07
8.7752674e-10
1.1443671e-07
8.4724712e-10
1.1398124e-07
8.1914688e-10
1.1354025e-07
7.9304682e-10
1.1311237e-07
7.6938189e-10
1.1269684e-07
7.4709932e-10
1.1229087e-07
7.2982615e-10
1.1189563e-07
7.1049196e-10
1.1150037e-07
7.1044093e-10
1.1112278e-07
6.7870549e-10
1.1065942e-07
8.323753e-10
5.1845388e-10
2.1860963e-06
1.2878073e-10
2.1860036e-06
3.5145626e-10
2.1858743e-06
4.8944419e-10
2.1857251e-06
5.6440621e-10
2.185557e-06
6.3629469e-10
2.1853698e-06
7.0813721e-10
2.1851633e-06
7.8152304e-10
2.1849361e-06
8.5957627e-10
2.1846866e-06
9.4481791e-10
2.184412e-06
1.0395285e-09
2.1841093e-06
1.1463079e-09
2.1837744e-06
1.2689047e-09
2.1834018e-06
1.411848e-09
2.1829839e-06
1.5838838e-09
2.1825112e-06
1.7922571e-09
2.1819666e-06
2.0654033e-09
2.1813337e-06
2.4011345e-09
2.1805597e-06
2.9376014e-09
2.1796331e-06
3.5178213e-09
2.1783101e-06
5.0252135e-09
2.1767033e-06
6.105163e-09
2.1725669e-06
1.5726552e-08
2.1695441e-06
1.1470506e-08
1.3465197e-06
3.5215807e-06
4.6401115e-07
3.6594814e-06
3.8920835e-07
1.7261373e-07
3.6413003e-07
5.9225842e-08
3.4783349e-07
3.9244926e-08
3.3567011e-07
2.9385866e-08
3.2564557e-07
2.4233077e-08
3.1705396e-07
2.0757973e-08
3.0960784e-07
1.7972181e-08
3.0308965e-07
1.5715036e-08
2.973105e-07
1.3917835e-08
2.9212817e-07
1.2467087e-08
2.8744414e-07
1.1256987e-08
2.8318251e-07
1.0232366e-08
2.79273e-07
9.3786857e-09
2.7565949e-07
8.6612786e-09
2.7230314e-07
8.0384774e-09
2.6917031e-07
7.4975404e-09
2.6623185e-07
7.0272647e-09
2.6346485e-07
6.6126342e-09
2.6084979e-07
6.2453954e-09
2.5837028e-07
5.9178489e-09
2.560122e-07
5.6245995e-09
2.5376338e-07
5.3607567e-09
2.5161387e-07
5.1210894e-09
2.4955451e-07
4.9035344e-09
2.4757768e-07
4.7044553e-09
2.4567711e-07
4.5205598e-09
2.4384635e-07
4.3522684e-09
2.4207965e-07
4.1978776e-09
2.4037234e-07
4.0547312e-09
2.3871977e-07
3.922862e-09
2.3711741e-07
3.8018834e-09
2.3556171e-07
3.6895036e-09
2.3404963e-07
3.5844136e-09
2.3257798e-07
3.4870639e-09
2.3114381e-07
3.3967619e-09
2.2974493e-07
3.311782e-09
2.2837926e-07
3.2318052e-09
2.2704446e-07
3.1574644e-09
2.2573835e-07
3.0883208e-09
2.244593e-07
3.023138e-09
2.2320579e-07
2.9615943e-09
2.219761e-07
2.904217e-09
2.2076847e-07
2.8509891e-09
2.1958163e-07
2.8008623e-09
2.1841455e-07
2.7531807e-09
2.1726599e-07
2.7085115e-09
2.1613448e-07
2.6673034e-09
2.1501894e-07
2.628703e-09
2.139186e-07
2.5919623e-09
2.1283252e-07
2.5574312e-09
2.1175963e-07
2.5254877e-09
2.1069883e-07
2.4961444e-09
2.0964933e-07
2.4687065e-09
2.0861052e-07
2.4426722e-09
2.0758164e-07
2.4185269e-09
2.065617e-07
2.396641e-09
2.055499e-07
2.3767161e-09
2.0454565e-07
2.3581825e-09
2.035484e-07
2.3409265e-09
2.0255743e-07
2.3253923e-09
2.0157187e-07
2.3119144e-09
2.0059107e-07
2.2999787e-09
1.9961456e-07
2.2891126e-09
1.9864178e-07
2.2796245e-09
1.9767198e-07
2.2718328e-09
1.9670441e-07
2.2658438e-09
1.9573849e-07
2.2612143e-09
1.9477379e-07
2.2575843e-09
1.9380969e-07
2.2554128e-09
1.928454e-07
2.2550721e-09
1.9188024e-07
2.2563075e-09
1.909137e-07
2.258763e-09
1.899452e-07
2.2625463e-09
1.88974e-07
2.2680514e-09
1.8799929e-07
2.2754485e-09
1.8702039e-07
2.2843975e-09
1.8603673e-07
2.2947018e-09
1.850475e-07
2.3068385e-09
1.8405176e-07
2.3211512e-09
1.8304872e-07
2.3373074e-09
1.8203765e-07
2.3551402e-09
1.810176e-07
2.3751766e-09
1.7998744e-07
2.3977562e-09
1.789462e-07
2.4226171e-09
1.7789287e-07
2.4497895e-09
1.7682611e-07
2.4799924e-09
1.7574471e-07
2.5130391e-09
1.7464691e-07
2.5500771e-09
1.7357761e-07
2.4828607e-09
1.7256091e-07
2.3597808e-09
1.7159259e-07
2.2466159e-09
1.7066891e-07
2.1422666e-09
1.6978636e-07
2.0461598e-09
1.6894172e-07
1.9576137e-09
1.6813219e-07
1.8756358e-09
1.6735528e-07
1.7995128e-09
1.6660863e-07
1.7288844e-09
1.6589008e-07
1.6633774e-09
1.6519766e-07
1.6024194e-09
1.6452964e-07
1.5455423e-09
1.6388439e-07
1.4925034e-09
1.6326026e-07
1.4432753e-09
1.6265576e-07
1.3975449e-09
1.6206906e-07
1.3560843e-09
1.6149912e-07
1.3170352e-09
1.6094213e-07
1.2868156e-09
1.6039971e-07
1.2529164e-09
1.5985706e-07
1.2530943e-09
1.5933855e-07
1.1972068e-09
1.5870198e-07
1.4689504e-09
9.1413714e-10
2.3100817e-06
1.6473528e-10
2.3099834e-06
4.4981096e-10
2.3098461e-06
6.2670663e-10
2.3096877e-06
7.2285828e-10
2.309509e-06
8.1497403e-10
2.3093101e-06
9.0698044e-10
2.3090907e-06
1.0009284e-09
2.3088495e-06
1.1008197e-09
2.3085844e-06
1.2098821e-09
2.3082929e-06
1.3310346e-09
2.3079716e-06
1.4676025e-09
2.3076161e-06
1.6243797e-09
2.3072208e-06
1.8071559e-09
2.3067776e-06
2.0271125e-09
2.3062764e-06
2.2935084e-09
2.3056991e-06
2.6426932e-09
2.3050283e-06
3.0718592e-09
2.3042084e-06
3.7575921e-09
2.303227e-06
4.499195e-09
2.3018264e-06
6.4257945e-09
2.300126e-06
7.8055901e-09
2.2957511e-06
2.0101461e-08
2.2925493e-06
1.4672237e-08
1.4807854e-06
4.3333446e-06
5.9061822e-07
4.5496486e-06
4.9237071e-07
2.7086124e-07
4.6063252e-07
9.0964036e-08
4.4057565e-07
5.9301796e-08
4.2572137e-07
4.424015e-08
4.1351986e-07
3.6434583e-08
4.0307666e-07
3.1201177e-08
3.9402959e-07
2.7019249e-08
3.8611039e-07
2.3634239e-08
3.7908814e-07
2.094008e-08
3.7278962e-07
1.8765605e-08
3.6709532e-07
1.6951289e-08
3.6191334e-07
1.5414345e-08
3.5715828e-07
1.4133744e-08
3.5276197e-07
1.305759e-08
3.4867745e-07
1.2123002e-08
3.448639e-07
1.1311093e-08
3.4128593e-07
1.0605233e-08
3.379158e-07
9.9827655e-09
3.3472984e-07
9.4313567e-09
3.3170819e-07
8.9394898e-09
3.2883371e-07
8.4990821e-09
3.2609167e-07
8.1027983e-09
3.2346999e-07
7.7427702e-09
3.2095757e-07
7.4159505e-09
3.1854516e-07
7.1168688e-09
3.1622518e-07
6.8405425e-09
3.1398979e-07
6.5876592e-09
3.11832e-07
6.3556635e-09
3.0974621e-07
6.1405244e-09
3.0772674e-07
5.9423263e-09
3.0576811e-07
5.7605203e-09
3.0386598e-07
5.5916275e-09
3.0201673e-07
5.4336672e-09
3.0021644e-07
5.2873569e-09
2.9846153e-07
5.1516639e-09
2.9674936e-07
5.0239594e-09
2.950774e-07
4.9037647e-09
2.934428e-07
4.792063e-09
2.9184292e-07
4.6881972e-09
2.9027578e-07
4.5902818e-09
2.8873954e-07
4.4978305e-09
2.872321e-07
4.4116635e-09
2.8575132e-07
4.331764e-09
2.8429565e-07
4.2565315e-09
2.8286386e-07
4.1849684e-09
2.8145442e-07
4.1179522e-09
2.8006555e-07
4.0561718e-09
2.7869593e-07
3.9983269e-09
2.7734461e-07
3.9432784e-09
2.7601048e-07
3.8915627e-09
2.7469221e-07
3.843765e-09
2.7338844e-07
3.7999058e-09
2.7209823e-07
3.7589244e-09
2.7082084e-07
3.7200582e-09
2.6955531e-07
3.6840541e-09
2.6830047e-07
3.6514799e-09
2.6705531e-07
3.6218813e-09
2.658191e-07
3.5943888e-09
2.645912e-07
3.5688308e-09
2.633707e-07
3.5458919e-09
2.6215653e-07
3.5260831e-09
2.6094789e-07
3.5086197e-09
2.5974422e-07
3.4927815e-09
2.585448e-07
3.479042e-09
2.5734874e-07
3.4678923e-09
2.5615509e-07
3.459494e-09
2.5496314e-07
3.4531707e-09
2.5377235e-07
3.4483758e-09
2.5258194e-07
3.4458136e-09
2.5139096e-07
3.4460549e-09
2.5019856e-07
3.4487108e-09
2.4900408e-07
3.4532387e-09
2.4780682e-07
3.4598067e-09
2.4660585e-07
3.4690213e-09
2.4540016e-07
3.4811427e-09
2.441889e-07
3.4956523e-09
2.4297135e-07
3.512254e-09
2.4174651e-07
3.5316814e-09
2.405132e-07
3.554461e-09
2.3927042e-07
3.5800871e-09
2.3801725e-07
3.608309e-09
2.3675249e-07
3.6399375e-09
2.3547475e-07
3.6754952e-09
2.3418278e-07
3.714585e-09
2.3287531e-07
3.7572604e-09
2.3155067e-07
3.8046289e-09
2.3020731e-07
3.8564056e-09
2.2884303e-07
3.9143517e-09
2.2751363e-07
3.8122598e-09
2.2624912e-07
3.6242935e-09
2.2504432e-07
3.4514162e-09
2.2389463e-07
3.2919538e-09
2.2279575e-07
3.1450465e-09
2.217437e-07
3.0096608e-09
2.2073505e-07
2.8842843e-09
2.1976673e-07
2.7678331e-09
2.1883585e-07
2.6597633e-09
2.1793972e-07
2.5595088e-09
2.1707595e-07
2.4661957e-09
2.1624238e-07
2.3791121e-09
2.1543699e-07
2.2978915e-09
2.1465776e-07
2.2224983e-09
2.1390286e-07
2.1524534e-09
2.1316998e-07
2.0889555e-09
2.1245789e-07
2.0291343e-09
2.1176177e-07
1.9829278e-09
2.1108372e-07
1.9309682e-09
2.1040513e-07
1.9316833e-09
2.0975663e-07
1.845707e-09
2.0896032e-07
2.2652629e-09
1.408925e-09
2.4684926e-06
2.0327243e-10
2.4683871e-06
5.5537245e-10
2.4682396e-06
7.7420773e-10
2.4680692e-06
8.9323497e-10
2.467877e-06
1.0071302e-09
2.4676632e-06
1.1208163e-09
2.4674273e-06
1.2368502e-09
2.4671679e-06
1.360178e-09
2.466883e-06
1.494787e-09
2.4665698e-06
1.6442813e-09
2.4662246e-06
1.8127645e-09
2.4658428e-06
2.0061493e-09
2.4654184e-06
2.2315748e-09
2.4649427e-06
2.5028287e-09
2.4644049e-06
2.8313236e-09
2.4637857e-06
3.2618771e-09
2.4630666e-06
3.7910123e-09
2.4621877e-06
4.6364297e-09
2.4611363e-06
5.550647e-09
2.4596365e-06
7.9255946e-09
2.4578163e-06
9.6257798e-09
2.4531366e-06
2.4781151e-08
2.449706e-06
1.8102837e-08
1.6375081e-06
5.1455425e-06
7.2559567e-07
5.4615609e-06
6.0090612e-07
3.9555079e-07
5.6169684e-07
1.3017332e-07
5.3756027e-07
8.3438368e-08
5.1983956e-07
6.196086e-08
5.0534195e-07
5.0932192e-08
4.9295762e-07
4.3585503e-08
4.8223898e-07
3.7737889e-08
4.7286153e-07
3.301169e-08
4.6454878e-07
2.9252826e-08
4.5709407e-07
2.622032e-08
4.5035535e-07
2.3690005e-08
4.442237e-07
2.1546002e-08
4.3859763e-07
1.9759807e-08
4.3339619e-07
1.8259034e-08
4.2856379e-07
1.6955399e-08
4.2405207e-07
1.5822817e-08
4.1981902e-07
1.4838279e-08
4.1583181e-07
1.3969979e-08
4.120624e-07
1.3200762e-08
4.084873e-07
1.2514594e-08
4.0508617e-07
1.1900211e-08
4.0184159e-07
1.1347376e-08
3.9873928e-07
1.0845084e-08
3.9576608e-07
1.0389152e-08
3.9291102e-07
9.971928e-09
3.9016516e-07
9.5864022e-09
3.8751921e-07
9.2336032e-09
3.8496492e-07
8.9099621e-09
3.8249564e-07
8.6097961e-09
3.801047e-07
8.3332671e-09
3.7778557e-07
8.0796493e-09
3.7553316e-07
7.8440403e-09
3.7334317e-07
7.6236574e-09
3.7121097e-07
7.4195554e-09
3.6913233e-07
7.2303035e-09
3.6710411e-07
7.0521867e-09
3.6512333e-07
6.884536e-09
3.6318663e-07
6.7287635e-09
3.6129088e-07
6.5839547e-09
3.5943372e-07
6.4474429e-09
3.57613e-07
6.3185449e-09
3.5582622e-07
6.198441e-09
3.5407087e-07
6.0871181e-09
3.5234509e-07
5.9823103e-09
3.5064745e-07
5.8826121e-09
3.4897612e-07
5.7892794e-09
3.47329e-07
5.7032895e-09
3.4570452e-07
5.6228058e-09
3.4410158e-07
5.5462228e-09
3.4251884e-07
5.4743005e-09
3.4095473e-07
5.4078754e-09
3.3940766e-07
5.3469771e-09
3.3787648e-07
5.2901059e-09
3.3636035e-07
5.2361889e-09
3.3485811e-07
5.1862899e-09
3.3336838e-07
5.1412121e-09
3.3188995e-07
5.1003143e-09
3.3042197e-07
5.0623685e-09
3.2896366e-07
5.0271354e-09
3.2751396e-07
4.9955897e-09
3.2607159e-07
4.9684523e-09
3.246356e-07
4.9446141e-09
3.2320532e-07
4.9230601e-09
3.217799e-07
4.9044634e-09
3.2035827e-07
4.889522e-09
3.189393e-07
4.8784621e-09
3.1752214e-07
4.8703289e-09
3.1610616e-07
4.8643554e-09
3.1469044e-07
4.8615404e-09
3.132738e-07
4.8626905e-09
3.1185526e-07
4.8672568e-09
3.1043402e-07
4.8744738e-09
3.0900924e-07
4.8845845e-09
3.0757981e-07
4.8984505e-09
3.0614452e-07
4.916437e-09
3.0470236e-07
4.9378133e-09
3.0325244e-07
4.9621679e-09
3.0179358e-07
4.9905414e-09
3.0032437e-07
5.023677e-09
2.9884359e-07
5.0608631e-09
2.9735015e-07
5.1017531e-09
2.9584259e-07
5.1474968e-09
2.9431925e-07
5.1988342e-09
2.9277863e-07
5.2552092e-09
2.9121918e-07
5.3167068e-09
2.8963891e-07
5.3848994e-09
2.8803593e-07
5.4593834e-09
2.8640763e-07
5.5426522e-09
2.8482058e-07
5.3993086e-09
2.8331064e-07
5.1342381e-09
2.8187167e-07
4.8903889e-09
2.8049822e-07
4.6654034e-09
2.7918517e-07
4.4580875e-09
2.7792784e-07
4.2669913e-09
2.7672214e-07
4.0899861e-09
2.7556443e-07
3.9255501e-09
2.7445127e-07
3.7729224e-09
2.7337947e-07
3.6313085e-09
2.7234619e-07
3.4994763e-09
2.7134887e-07
3.3764251e-09
2.7038512e-07
3.2616444e-09
2.6945253e-07
3.1550908e-09
2.6854889e-07
3.0560867e-09
2.676715e-07
2.9663473e-09
2.6681885e-07
2.8817817e-09
2.659852e-07
2.8165859e-09
2.6517307e-07
2.7430925e-09
2.6436006e-07
2.7446955e-09
2.6358302e-07
2.6227498e-09
2.6262892e-07
3.2193581e-09
2.0016104e-09
2.6636896e-06
2.450027e-10
2.6635752e-06
6.6986101e-10
2.663415e-06
9.3441363e-10
2.6632298e-06
1.0784228e-09
2.6630209e-06
1.2160307e-09
2.6627884e-06
1.3532801e-09
2.662532e-06
1.493291e-09
2.6622501e-06
1.6420361e-09
2.6619406e-06
1.8043282e-09
2.6616003e-06
1.9845148e-09
2.6612256e-06
2.1875419e-09
2.6608112e-06
2.4205331e-09
2.6603507e-06
2.6920862e-09
2.6598347e-06
3.0188063e-09
2.6592516e-06
3.414432e-09
2.6585805e-06
3.932932e-09
2.6578014e-06
4.5700992e-09
2.6568498e-06
5.5880543e-09
2.6557117e-06
6.6887414e-09
2.6540893e-06
9.5479735e-09
2.6521212e-06
1.1593872e-08
2.6470657e-06
2.983671e-08
2.6433521e-06
2.181644e-08
1.8217709e-06
5.9671237e-06
8.760404e-07
6.4072914e-06
7.2088774e-07
5.5070345e-07
6.7294267e-07
1.7811839e-07
6.4413037e-07
1.1225066e-07
6.2316933e-07
8.2921903e-08
6.0609398e-07
6.8007539e-08
5.9153924e-07
5.8140239e-08
5.7895643e-07
5.0320708e-08
5.679559e-07
4.4012215e-08
5.5820915e-07
3.8999574e-08
5.4947147e-07
3.4957999e-08
5.4157527e-07
3.1586211e-08
5.3439234e-07
2.8728931e-08
5.2780314e-07
2.6349008e-08
5.2171227e-07
2.4349901e-08
5.1605447e-07
2.2613196e-08
5.1077287e-07
2.1104415e-08
5.0581807e-07
1.9793088e-08
5.0115148e-07
1.8636561e-08
4.9674023e-07
1.7612021e-08
4.9255668e-07
1.6698142e-08
4.8857697e-07
1.5879914e-08
4.8478067e-07
1.5143684e-08
4.81151e-07
1.4474752e-08
4.7767252e-07
1.386763e-08
4.7433235e-07
1.3312099e-08
4.7112001e-07
1.2798741e-08
4.6802461e-07
1.2329004e-08
4.6503645e-07
1.1898126e-08
4.6214778e-07
1.1498463e-08
4.5935077e-07
1.1130278e-08
4.5663776e-07
1.0792656e-08
4.5400279e-07
1.0479008e-08
4.5144085e-07
1.0185601e-08
4.489465e-07
9.9139071e-09
4.4651477e-07
9.6620341e-09
4.4414198e-07
9.4249769e-09
4.4182467e-07
9.2018401e-09
4.3955888e-07
8.9945523e-09
4.3734094e-07
8.8018989e-09
4.351681e-07
8.6202844e-09
4.3303785e-07
8.4487919e-09
4.3094726e-07
8.289036e-09
4.2889336e-07
8.1410128e-09
4.2687401e-07
8.0016643e-09
4.2488752e-07
7.8691035e-09
4.2293175e-07
7.7450408e-09
4.2100425e-07
7.6307939e-09
4.1910316e-07
7.5238921e-09
4.1722721e-07
7.4221792e-09
4.1537483e-07
7.3266804e-09
4.1354417e-07
7.2385309e-09
4.1173338e-07
7.1577717e-09
4.099411e-07
7.0823818e-09
4.0816637e-07
7.0109254e-09
4.0640781e-07
6.9448427e-09
4.0466381e-07
6.8852144e-09
4.0293295e-07
6.8311782e-09
4.0121423e-07
6.7810827e-09
3.9950676e-07
6.7346099e-09
3.9780927e-07
6.6930799e-09
3.9612026e-07
6.6574584e-09
3.9443862e-07
6.6262538e-09
3.9276358e-07
6.598105e-09
3.9109412e-07
6.5739207e-09
3.89429e-07
6.5546447e-09
3.8776688e-07
6.5405764e-09
3.8610678e-07
6.530433e-09
3.8444794e-07
6.5231916e-09
3.8278928e-07
6.5201979e-09
3.8112944e-07
6.5225352e-09
3.7946723e-07
6.529465e-09
3.7780175e-07
6.5399602e-09
3.7613198e-07
6.5543547e-09
3.7445661e-07
6.5738107e-09
3.7277424e-07
6.5988142e-09
3.7108367e-07
6.628385e-09
3.6938385e-07
6.6619805e-09
3.6767339e-07
6.7010017e-09
3.6595063e-07
6.7464442e-09
3.6421413e-07
6.7973557e-09
3.6246261e-07
6.8532798e-09
3.6069434e-07
6.9157649e-09
3.5890737e-07
6.9858043e-09
3.5709992e-07
7.0626569e-09
3.5527018e-07
7.146448e-09
3.5341578e-07
7.2392968e-09
3.5153451e-07
7.3406571e-09
3.4962328e-07
7.4538806e-09
3.4776023e-07
7.262357e-09
3.4598746e-07
6.9070094e-09
3.442978e-07
6.5800534e-09
3.4268487e-07
6.2783294e-09
3.411427e-07
6.0002571e-09
3.3966579e-07
5.7438994e-09
3.3824937e-07
5.5064066e-09
3.3688917e-07
5.2857469e-09
3.3558119e-07
5.0809059e-09
3.3432168e-07
4.8908214e-09
3.3310731e-07
4.713841e-09
3.3193511e-07
4.5486285e-09
3.3080225e-07
4.3945064e-09
3.2970591e-07
4.2514241e-09
3.2864353e-07
4.1184699e-09
3.2761191e-07
3.9979723e-09
3.266093e-07
3.8843935e-09
3.2562889e-07
3.7969877e-09
3.2467376e-07
3.6982224e-09
3.2371736e-07
3.7011028e-09
3.2280321e-07
3.5368931e-09
3.21681e-07
4.3415755e-09
2.6986218e-09
2.8985817e-06
2.905942e-10
2.8984564e-06
7.9517246e-10
2.8982807e-06
1.1100592e-09
2.8980775e-06
1.2816338e-09
2.8978482e-06
1.4453151e-09
2.8975931e-06
1.6084217e-09
2.8973117e-06
1.7747074e-09
2.8970024e-06
1.9512731e-09
2.8966629e-06
2.1438364e-09
2.8962899e-06
2.3575591e-09
2.8958791e-06
2.598308e-09
2.8954251e-06
2.8745281e-09
2.8949208e-06
3.1964082e-09
2.894356e-06
3.5836254e-09
2.893718e-06
4.0524522e-09
2.8929841e-06
4.6668318e-09
2.8921324e-06
5.4217536e-09
2.8910927e-06
6.6277403e-09
2.8898499e-06
7.9315982e-09
2.8880794e-06
1.1318412e-08
2.8859328e-06
1.3740511e-08
2.8804243e-06
3.5345177e-08
2.8763684e-06
2.5872346e-08
2.0386205e-06
6.8048716e-06
1.0483477e-06
7.3975643e-06
8.5759348e-07
7.4145763e-07
7.9920779e-07
2.3650409e-07
7.6489082e-07
1.4656763e-07
7.4016139e-07
1.0765133e-07
7.2010555e-07
8.8063378e-08
7.0304936e-07
7.5196431e-08
6.8832217e-07
6.5047901e-08
6.7545722e-07
5.6877159e-08
6.6406513e-07
5.0391664e-08
6.5385682e-07
4.5166313e-08
6.446349e-07
4.0808135e-08
6.3624882e-07
3.711501e-08
6.2855812e-07
3.4039703e-08
6.2145072e-07
3.1457304e-08
6.1485012e-07
2.9213796e-08
6.0868964e-07
2.7264895e-08
6.029113e-07
2.5571423e-08
5.9746995e-07
2.4077917e-08
5.9232703e-07
2.2754933e-08
5.8745023e-07
2.1574949e-08
5.8281158e-07
2.0518562e-08
5.7838715e-07
1.9568112e-08
5.7415734e-07
1.8704559e-08
5.7010406e-07
1.7920912e-08
5.6621222e-07
1.7203944e-08
5.6246957e-07
1.6541386e-08
5.5886338e-07
1.5935195e-08
5.553823e-07
1.537921e-08
5.520173e-07
1.4863464e-08
5.4875922e-07
1.4388354e-08
5.4559912e-07
1.3952756e-08
5.4253003e-07
1.3548096e-08
5.3954612e-07
1.3169519e-08
5.3664102e-07
1.2819005e-08
5.3380892e-07
1.249413e-08
5.3104553e-07
1.2188366e-08
5.2834683e-07
1.1900546e-08
5.2570816e-07
1.1633215e-08
5.2312525e-07
1.1384812e-08
5.2059489e-07
1.1150643e-08
5.1811417e-07
1.0929513e-08
5.1567965e-07
1.0723557e-08
5.1328788e-07
1.0532786e-08
5.1093634e-07
1.0353206e-08
5.0862308e-07
1.0182363e-08
5.0634561e-07
1.0022509e-08
5.0410104e-07
9.8753616e-09
5.0188723e-07
9.7377042e-09
4.9970267e-07
9.6067343e-09
4.9754557e-07
9.4837881e-09
4.9541374e-07
9.3703544e-09
4.9330503e-07
9.2664871e-09
4.9121786e-07
9.1695515e-09
4.891511e-07
9.0776873e-09
4.8710316e-07
8.9927804e-09
4.8507214e-07
8.9162355e-09
4.8305638e-07
8.8469305e-09
4.8105475e-07
8.7827169e-09
4.7906617e-07
8.7231858e-09
4.7708919e-07
8.6700645e-09
4.7512204e-07
8.6246041e-09
4.7316343e-07
8.5848632e-09
4.7121246e-07
8.5490763e-09
4.6926795e-07
8.5184299e-09
4.6732844e-07
8.4941562e-09
4.6539238e-07
8.4766377e-09
4.6345861e-07
8.4642073e-09
4.6152625e-07
8.455546e-09
4.5959404e-07
8.452406e-09
4.5766039e-07
8.4561926e-09
4.5572391e-07
8.4659447e-09
4.5378354e-07
8.4803292e-09
4.518381e-07
8.4997891e-09
4.4988608e-07
8.5258388e-09
4.4792579e-07
8.5591019e-09
4.4595587e-07
8.5983069e-09
4.4397508e-07
8.6427619e-09
4.419818e-07
8.6942895e-09
4.3997407e-07
8.7541757e-09
4.3795023e-07
8.8211883e-09
4.3590877e-07
8.8947471e-09