/*--------------------------------*- C++ -*----------------------------------*\
  =========                 |
  \\      /  F ield         | OpenFOAM: The Open Source CFD Toolbox
   \\    /   O peration     | Website:  https://openfoam.org
    \\  /    A nd           | Version:  12
     \\/     M anipulation  |
\*---------------------------------------------------------------------------*/
FoamFile
{
    format      ascii;
    class       volVectorField;
    location    "1100";
    object      U;
}
// * * * * * * * * * * * * * * * * * * * * * * * * * * * * * * * * * * * * * //

dimensions      [0 1 -1 0 0 0 0];

internalField   nonuniform List<vector> 
13056
(
(1 3.8604796e-10 3.3186826e-24)
(0.99997096 1.1938409e-09 0)
(0.99991738 1.8845356e-09 0)
(0.99985445 2.4641171e-09 0)
(0.99978295 3.1502092e-09 0)
(0.99970284 3.9745428e-09 0)
(0.99961415 4.9703323e-09 0)
(0.99951648 6.1902299e-09 0)
(0.99940912 7.6976281e-09 0)
(0.99929107 9.5701647e-09 0)
(0.99916104 1.1906872e-08 0)
(0.99901743 1.4842044e-08 0)
(0.99885805 1.8550115e-08 0)
(0.99868019 2.3303471e-08 0)
(0.99847961 2.9412658e-08 0)
(0.99825178 3.7624111e-08 0)
(0.99798588 4.8260693e-08 0)
(0.99767722 6.4676603e-08 0)
(0.99728364 8.4094456e-08 0)
(0.99683353 1.2912906e-07 0)
(0.99608402 1.6660008e-07 0)
(0.99536271 4.4989207e-07 0)
(0.99233753 3.3779341e-07 -1.4876979e-20)
(0.99257177 0.00012013898 1.9558094e-16)
(0.038946704 0.000124103 0)
(0.029764291 1.1608291e-07 -3.5792395e-20)
(0.027412457 4.3526527e-08 0)
(0.025864031 3.5679461e-08 0)
(0.024760601 2.7630062e-08 0)
(0.023874243 2.3084979e-08 0)
(0.023121052 1.9835552e-08 0)
(0.022472918 1.713549e-08 0)
(0.021911027 1.492167e-08 0)
(0.021417618 1.3143915e-08 0)
(0.02097868 1.1699242e-08 0)
(0.020584353 1.0489307e-08 0)
(0.020227882 9.4619532e-09 0)
(0.019903203 8.604698e-09 0)
(0.01960467 7.8794592e-09 0)
(0.019328631 7.2462585e-09 0)
(0.019072252 6.6961917e-09 0)
(0.018832777 6.214776e-09 0)
(0.018608153 5.7882308e-09 0)
(0.018396644 5.4091254e-09 0)
(0.018196765 5.0690455e-09 0)
(0.018007305 4.7630933e-09 0)
(0.017827149 4.4864068e-09 0)
(0.017655421 4.2336246e-09 0)
(0.017491358 4.0031597e-09 0)
(0.017334229 3.7910506e-09 0)
(0.017183517 3.5942733e-09 0)
(0.017038709 3.4132799e-09 0)
(0.016899266 3.245914e-09 0)
(0.016764793 3.0898796e-09 0)
(0.016634926 2.9451479e-09 0)
(0.016509269 2.8109687e-09 0)
(0.016387489 2.6853189e-09 0)
(0.016269343 2.5670808e-09 0)
(0.016154582 2.4565151e-09 0)
(0.016042938 2.3527466e-09 0)
(0.015934209 2.2543997e-09 0)
(0.015828238 2.1612124e-09 0)
(0.015724847 2.073478e-09 0)
(0.015623839 1.9906638e-09 0)
(0.015525064 1.911813e-09 0)
(0.015428409 1.8367068e-09 0)
(0.015333743 1.7655461e-09 0)
(0.015240919 1.698167e-09 0)
(0.01514981 1.6337904e-09 0)
(0.015060337 1.572e-09 0)
(0.014972417 1.5130587e-09 0)
(0.014885932 1.4571246e-09 0)
(0.014800771 1.4035639e-09 0)
(0.014716874 1.3519047e-09 0)
(0.014634178 1.3023784e-09 0)
(0.0145526 1.2550284e-09 0)
(0.014472051 1.2097994e-09 0)
(0.014392451 1.1662473e-09 0)
(0.014313756 1.1241102e-09 0)
(0.014235915 1.0835874e-09 0)
(0.014158856 1.0447685e-09 0)
(0.014082505 1.0074389e-09 0)
(0.014006807 9.7128953e-10 0)
(0.013931726 9.3628241e-10 0)
(0.013857216 9.0253363e-10 0)
(0.01378321 8.701339e-10 0)
(0.013709642 8.3879661e-10 0)
(0.01363648 8.0831113e-10 0)
(0.013563685 7.7880245e-10 0)
(0.013491207 7.5031006e-10 0)
(0.013418988 7.2282241e-10 0)
(0.01334697 6.9613873e-10 0)
(0.013275125 6.701297e-10 0)
(0.013203416 6.4491205e-10 0)
(0.013131786 6.2055526e-10 0)
(0.013060177 5.9692269e-10 0)
(0.012988547 5.738851e-10 0)
(0.01291686 5.5147109e-10 0)
(0.012845068 5.297326e-10 0)
(0.012773111 5.0866297e-10 0)
(0.012700929 4.881442e-10 0)
(0.012628484 4.6811511e-10 0)
(0.01255573 4.4864728e-10 0)
(0.012482598 4.297638e-10 0)
(0.01240902 4.1135952e-10 0)
(0.012334949 3.9337953e-10 0)
(0.012260329 3.7588883e-10 0)
(0.012185077 3.5889547e-10 0)
(0.012109117 3.4231884e-10 0)
(0.012032384 3.261365e-10 0)
(0.0119548 3.1041153e-10 0)
(0.011876254 2.9507236e-10 0)
(0.011796681 2.8021016e-10 0)
(0.011717707 2.662088e-10 0)
(0.011641801 2.532711e-10 0)
(0.011569635 2.4135333e-10 0)
(0.011500914 2.3035155e-10 0)
(0.011435368 2.2021053e-10 0)
(0.011372739 2.1085663e-10 0)
(0.011312803 2.0218602e-10 0)
(0.011255366 1.9412837e-10 0)
(0.011200247 1.8664726e-10 0)
(0.011147276 1.7970498e-10 0)
(0.011096298 1.7323864e-10 0)
(0.011047179 1.6720013e-10 0)
(0.010999793 1.6156746e-10 0)
(0.010954022 1.5633803e-10 0)
(0.010909742 1.5148123e-10 0)
(0.010866857 1.4707477e-10 0)
(0.010825193 1.4293304e-10 0)
(0.01078477 1.3971794e-10 0)
(0.010745016 1.3618123e-10 0)
(0.010706733 1.3615054e-10 0)
(0.010666988 6.428515e-10 0)
(0.01063223 1.5725592e-10 2.0670481e-22)
(0.010575497 4.944275e-10 0)
(1 1.1645203e-09 0)
(0.99997092 3.6037425e-09 0)
(0.99991721 5.6902202e-09 0)
(0.9998541 7.4411857e-09 0)
(0.99978238 9.513272e-09 0)
(0.99970204 1.2002482e-08 0)
(0.99961308 1.5009106e-08 0)
(0.99951514 1.8692002e-08 0)
(0.99940748 2.3242422e-08 0)
(0.9992891 2.889457e-08 0)
(0.99915875 3.5947164e-08 0)
(0.99901478 4.4805263e-08 0)
(0.99885503 5.5994945e-08 0)
(0.99867679 7.0337694e-08 0)
(0.99847581 8.8769982e-08 0)
(0.99824755 1.1354282e-07 0)
(0.9979812 1.4562953e-07 0)
(0.99767207 1.9514464e-07 0)
(0.99727796 2.5371209e-07 0)
(0.99682731 3.8952049e-07 0)
(0.99607711 5.0250086e-07 0)
(0.99535528 1.3567376e-06 0)
(0.99232842 1.0191586e-06 5.3103407e-20)
(0.99256099 0.00035390826 -7.1749441e-20)
(0.11354947 0.00035938334 0)
(0.088253947 5.6007108e-06 0)
(0.08136162 1.9542479e-06 0)
(0.076851227 1.3312911e-06 0)
(0.073634096 9.9246809e-07 0)
(0.07104752 8.1119744e-07 0)
(0.068847152 6.8727148e-07 0)
(0.066951502 5.8795605e-07 0)
(0.065306359 5.0784217e-07 0)
(0.063860416 4.4420499e-07 0)
(0.062573074 3.9292915e-07 0)
(0.061415724 3.5032013e-07 0)
(0.060368765 3.1439226e-07 0)
(0.059414605 2.844671e-07 0)
(0.05853682 2.5928829e-07 0)
(0.057724755 2.3746849e-07 0)
(0.056970166 2.1852753e-07 0)
(0.056265028 2.0203628e-07 0)
(0.055603346 1.8748923e-07 0)
(0.054980057 1.7459105e-07 0)
(0.054390826 1.6307133e-07 0)
(0.053832116 1.5273793e-07 0)
(0.053300673 1.4341978e-07 0)
(0.052793935 1.3494412e-07 0)
(0.05230967 1.2722979e-07 0)
(0.051845743 1.2015714e-07 0)
(0.051400639 1.1362269e-07 0)
(0.050972862 1.0761972e-07 0)
(0.050560831 1.020876e-07 0)
(0.050163387 9.694735e-08 0)
(0.049779466 9.2186892e-08 0)
(0.049407911 8.7783346e-08 0)
(0.049047742 8.367217e-08 0)
(0.048698245 7.9814531e-08 0)
(0.048358695 7.6211686e-08 0)
(0.048028299 7.283919e-08 0)
(0.047706469 6.9652857e-08 0)
(0.047392745 6.664027e-08 0)
(0.047086601 6.380822e-08 0)
(0.04678746 6.1141199e-08 0)
(0.046494885 5.8609366e-08 0)
(0.046208535 5.6202313e-08 0)
(0.045928034 5.3925408e-08 0)
(0.045652945 5.1773378e-08 0)
(0.045382899 4.9722877e-08 0)
(0.045117658 4.7759137e-08 0)
(0.044856979 4.588892e-08 0)
(0.044600518 4.4116158e-08 0)
(0.044347947 4.2423027e-08 0)
(0.044099089 4.0794872e-08 0)
(0.043853756 3.9235211e-08 0)
(0.043611705 3.7746991e-08 0)
(0.043372677 3.6327556e-08 0)
(0.04313643 3.4964158e-08 0)
(0.042902838 3.3647865e-08 0)
(0.042671752 3.2383703e-08 0)
(0.042442956 3.1174416e-08 0)
(0.042216231 3.0013799e-08 0)
(0.041991419 2.8892807e-08 0)
(0.04176841 2.7808769e-08 0)
(0.041547067 2.6765449e-08 0)
(0.041327195 2.5764877e-08 0)
(0.041108597 2.4799393e-08 0)
(0.040891177 2.3862609e-08 0)
(0.040674823 2.2956733e-08 0)
(0.040459384 2.2083518e-08 0)
(0.040244689 2.1242437e-08 0)
(0.040030566 2.0427825e-08 0)
(0.039816929 1.963541e-08 0)
(0.039603674 1.8868283e-08 0)
(0.039390628 1.8128252e-08 0)
(0.039177617 1.7411819e-08 0)
(0.038964519 1.6715142e-08 0)
(0.038751227 1.6038173e-08 0)
(0.038537597 1.538265e-08 0)
(0.038323449 1.4748473e-08 0)
(0.038108607 1.413222e-08 0)
(0.037892958 1.3531773e-08 0)
(0.037676362 1.2949079e-08 0)
(0.037458614 1.238489e-08 0)
(0.037239513 1.1836211e-08 0)
(0.037018917 1.1301282e-08 0)
(0.036796657 1.0781749e-08 0)
(0.03657249 1.0277971e-08 0)
(0.036346185 9.7876269e-09 0)
(0.036117551 9.309863e-09 0)
(0.035886349 8.8463519e-09 0)
(0.035652254 8.3951866e-09 0)
(0.035415067 7.9589367e-09 0)
(0.035179637 7.5485573e-09 0)
(0.034953324 7.1702324e-09 0)
(0.034738137 6.8226181e-09 0)
(0.034533199 6.5023148e-09 0)
(0.034337709 6.2075057e-09 0)
(0.034150903 5.936047e-09 0)
(0.03397211 5.684871e-09 0)
(0.033800754 5.4517672e-09 0)
(0.033636302 5.2355982e-09 0)
(0.033478246 5.035197e-09 0)
(0.033326124 4.8487985e-09 0)
(0.033179537 4.6749575e-09 0)
(0.033038113 4.5129099e-09 0)
(0.032901499 4.3625472e-09 0)
(0.032769328 4.22291e-09 0)
(0.032641309 4.0962931e-09 0)
(0.032516931 3.9771158e-09 0)
(0.032396249 3.8845844e-09 0)
(0.03227756 3.7812957e-09 0)
(0.03216325 3.7802343e-09 0)
(0.032044586 3.6273988e-09 0)
(0.031940787 4.4235039e-09 -3.1329341e-22)
(0.031771359 2.7772075e-09 2.1967813e-23)
(1 1.9618446e-09 0)
(0.99997087 6.0732051e-09 0)
(0.999917 9.5922162e-09 0)
(0.99985366 1.254565e-08 0)
(0.99978168 1.6039591e-08 0)
(0.99970103 2.0236203e-08 0)
(0.99961174 2.5304556e-08 0)
(0.99951345 3.151225e-08 0)
(0.99940541 3.9181413e-08 0)
(0.99928664 4.870649e-08 0)
(0.99915586 6.0590532e-08 0)
(0.99901146 7.5515626e-08 0)
(0.99885125 9.4367585e-08 0)
(0.99867253 1.1852959e-07 0)
(0.99847105 1.4957826e-07 0)
(0.99824226 1.9130355e-07 0)
(0.99797534 2.4534363e-07 0)
(0.99766561 3.287268e-07 0)
(0.99727085 4.2735011e-07 0)
(0.99681952 6.5600346e-07 0)
(0.99606846 8.4621887e-07 0)
(0.995346 2.2842556e-06 0)
(0.99231718 1.7177827e-06 -2.8099629e-20)
(0.99254785 0.00057133371 7.4802178e-54)
(0.18112827 0.00058417557 -9.3874132e-54)
(0.14112457 1.6385218e-05 0)
(0.13027881 5.7090503e-06 0)
(0.12335416 3.8354185e-06 0)
(0.11842408 2.8555109e-06 0)
(0.1144587 2.333937e-06 0)
(0.11108071 1.9785468e-06 0)
(0.10816521 1.6940125e-06 0)
(0.10563036 1.4643568e-06 0)
(0.10339862 1.2818089e-06 0)
(0.10140848 1.1346221e-06 0)
(0.099616627 1.012214e-06 0)
(0.097993487 9.0891229e-07 0)
(0.096512374 8.2280692e-07 0)
(0.09514821 7.5032685e-07 0)
(0.093884787 6.8748508e-07 0)
(0.092709582 6.3289759e-07 0)
(0.091610318 5.8535253e-07 0)
(0.090577845 5.4339508e-07 0)
(0.089604425 5.0617593e-07 0)
(0.088683426 4.7292281e-07 0)
(0.087809436 4.4308283e-07 0)
(0.086977461 4.16165e-07 0)
(0.086183577 3.9167348e-07 0)
(0.085424364 3.6937372e-07 0)
(0.08469654 3.4892329e-07 0)
(0.083997783 3.3002355e-07 0)
(0.083325797 3.1265499e-07 0)
(0.082678146 2.9664516e-07 0)
(0.08205305 2.8176547e-07 0)
(0.08144887 2.6798099e-07 0)
(0.080863822 2.5522719e-07 0)
(0.080296388 2.433176e-07 0)
(0.079745476 2.3213969e-07 0)
(0.079209961 2.2169737e-07 0)
(0.078688619 2.1192099e-07 0)
(0.078180539 2.0268247e-07 0)
(0.077685015 1.939456e-07 0)
(0.077201232 1.8573053e-07 0)
(0.076728295 1.7799292e-07 0)
(0.076265524 1.7064625e-07 0)
(0.075812396 1.6366007e-07 0)
(0.075368327 1.5705039e-07 0)
(0.074932636 1.5080222e-07 0)
(0.074504748 1.4484794e-07 0)
(0.074084297 1.3914449e-07 0)
(0.073670905 1.3371167e-07 0)
(0.073264035 1.2856112e-07 0)
(0.072863175 1.2364131e-07 0)
(0.072468049 1.1890962e-07 0)
(0.072078366 1.14376e-07 0)
(0.071693746 1.1004951e-07 0)
(0.071313784 1.0592238e-07 0)
(0.070938098 1.0195769e-07 0)
(0.070566493 9.8129388e-08 0)
(0.070198736 9.4452097e-08 0)
(0.069834488 9.0933967e-08 0)
(0.069473404 8.7557021e-08 0)
(0.069115235 8.429498e-08 0)
(0.068759809 8.1139948e-08 0)
(0.06840691 7.8103043e-08 0)
(0.06805623 7.5190179e-08 0)
(0.067707456 7.2379172e-08 0)
(0.067360437 6.9651385e-08 0)
(0.067014998 6.7013174e-08 0)
(0.066670897 6.4469811e-08 0)
(0.066327861 6.2019735e-08 0)
(0.065985618 5.9646505e-08 0)
(0.065644032 5.7337649e-08 0)
(0.065302935 5.5102179e-08 0)
(0.064962052 5.2945408e-08 0)
(0.064621105 5.0857194e-08 0)
(0.064279897 4.8826337e-08 0)
(0.063938256 4.6852653e-08 0)
(0.063595953 4.4941283e-08 0)
(0.063252696 4.3091951e-08 0)
(0.062908205 4.1294688e-08 0)
(0.062562292 3.954331e-08 0)
(0.062214736 3.7843514e-08 0)
(0.061865203 3.619751e-08 0)
(0.06151337 3.4596583e-08 0)
(0.061159005 3.3035592e-08 0)
(0.060801832 3.1519342e-08 0)
(0.06044146 3.0048911e-08 0)
(0.060077513 2.8617532e-08 0)
(0.059709679 2.7222713e-08 0)
(0.05933757 2.5869347e-08 0)
(0.058960655 2.4551873e-08 0)
(0.058578611 2.3277783e-08 0)
(0.058199245 2.2079115e-08 0)
(0.057834428 2.0974004e-08 0)
(0.057487416 1.9958519e-08 0)
(0.057156814 1.9022715e-08 0)
(0.056841347 1.8161314e-08 0)
(0.056539794 1.7368069e-08 0)
(0.056251089 1.6634031e-08 0)
(0.055974311 1.5952748e-08 0)
(0.055708608 1.5320913e-08 0)
(0.055453169 1.4735127e-08 0)
(0.055207257 1.4190235e-08 0)
(0.054970233 1.3682017e-08 0)
(0.054741501 1.3208248e-08 0)
(0.054520498 1.2768624e-08 0)
(0.054306634 1.2360336e-08 0)
(0.054099442 1.1990125e-08 0)
(0.053898101 1.1641607e-08 0)
(0.053702703 1.137115e-08 0)
(0.053510493 1.1068881e-08 0)
(0.05332534 1.1066545e-08 0)
(0.053133091 1.0551223e-08 0)
(0.052964898 1.2960646e-08 0)
(0.052690308 8.0636373e-09 0)
(1 2.7901311e-09 6.8087846e-24)
(0.9999708 8.6407853e-09 0)
(0.99991674 1.365252e-08 0)
(0.99985313 1.7859311e-08 0)
(0.99978082 2.2834036e-08 0)
(0.9996998 2.8808052e-08 0)
(0.99961011 3.6022017e-08 0)
(0.99951138 4.485649e-08 0)
(0.99940288 5.5769503e-08 0)
(0.99928363 6.9321872e-08 0)
(0.99915234 8.6228744e-08 0)
(0.9990074 1.0745972e-07 0)
(0.99884663 1.3427386e-07 0)
(0.99866732 1.6863718e-07 0)
(0.99846523 2.1279031e-07 0)
(0.99823579 2.7211984e-07 0)
(0.9979682 3.489528e-07 0)
(0.99765775 4.6749022e-07 0)
(0.99726219 6.0768333e-07 0)
(0.99681005 9.3266745e-07 0)
(0.99605794 1.2030036e-06 0)
(0.99533471 3.2465325e-06 0)
(0.99230361 2.4433292e-06 0)
(0.99253217 0.0007793445 -3.8971299e-54)
(0.23917709 0.0008056089 4.169789e-54)
(0.18510341 3.2442242e-05 0)
(0.17090946 1.1163732e-05 0)
(0.16218124 7.4013454e-06 0)
(0.15600999 5.5028344e-06 0)
(0.15105825 4.4988256e-06 0)
(0.14684177 3.8173606e-06 0)
(0.14320036 3.272273e-06 0)
(0.14003145 2.8320102e-06 0)
(0.13723862 2.4817737e-06 0)
(0.13474552 2.1991406e-06 0)
(0.1324985 1.9638199e-06 0)
(0.13046114 1.7649916e-06 0)
(0.12860041 1.5991278e-06 0)
(0.12688506 1.4594243e-06 0)
(0.12529505 1.3381921e-06 0)
(0.12381491 1.2327981e-06 0)
(0.12242933 1.1409492e-06 0)
(0.12112695 1.0598395e-06 0)
(0.11989819 9.8784252e-07 0)
(0.11873479 9.2348005e-07 0)
(0.11763002 8.6569087e-07 0)
(0.11657766 8.13532e-07 0)
(0.11557284 7.6604801e-07 0)
(0.11461131 7.2279112e-07 0)
(0.11368896 6.8310184e-07 0)
(0.11280292 6.4640122e-07 0)
(0.11195032 6.1265759e-07 0)
(0.11112813 5.8154035e-07 0)
(0.11033412 5.5260456e-07 0)
(0.10956626 5.2578613e-07 0)
(0.10882232 5.0096396e-07 0)
(0.10810039 4.7777467e-07 0)
(0.10739911 4.5599948e-07 0)
(0.10671709 4.3564926e-07 0)
(0.10605279 4.1659044e-07 0)
(0.10540506 3.9857226e-07 0)
(0.10477303 3.8152471e-07 0)
(0.10415568 3.6548968e-07 0)
(0.10355189 3.5038174e-07 0)
(0.10296078 3.3603132e-07 0)
(0.10238173 3.2237913e-07 0)
(0.101814 3.0945833e-07 0)
(0.10125672 2.9724068e-07 0)
(0.10070917 2.8559343e-07 0)
(0.10017091 2.7443212e-07 0)
(0.09964144 2.6379679e-07 0)
(0.099120098 2.537112e-07 0)
(0.098606231 2.4407434e-07 0)
(0.098099494 2.3480243e-07 0)
(0.097599522 2.2591532e-07 0)
(0.097105836 2.1743181e-07 0)
(0.09661792 2.0933693e-07 0)
(0.096135288 2.0155807e-07 0)
(0.095657698 1.9404398e-07 0)
(0.095184856 1.8682396e-07 0)
(0.094716327 1.7991456e-07 0)
(0.094251672 1.7328052e-07 0)
(0.093790575 1.6687005e-07 0)
(0.093332818 1.6066765e-07 0)
(0.092878126 1.5469573e-07 0)
(0.092426104 1.4896618e-07 0)
(0.09197635 1.4343532e-07 0)
(0.09152867 1.3806635e-07 0)
(0.091082843 1.3287197e-07 0)
(0.090638554 1.2786294e-07 0)
(0.090195454 1.2303627e-07 0)
(0.08975319 1.1835952e-07 0)
(0.089311587 1.1380806e-07 0)
(0.088870428 1.0939991e-07 0)
(0.088429356 1.0514573e-07 0)
(0.08798801 1.0102555e-07 0)
(0.087546133 9.7017215e-08 0)
(0.087103503 9.3120411e-08 0)
(0.086659817 8.9345524e-08 0)
(0.086214696 8.5692065e-08 0)
(0.085767774 8.2140314e-08 0)
(0.085318804 7.8678061e-08 0)
(0.084867493 7.5316708e-08 0)
(0.084413404 7.2060723e-08 0)
(0.083956112 6.8892845e-08 0)
(0.08349531 6.5802912e-08 0)
(0.083030632 6.2800538e-08 0)
(0.082561563 5.9887938e-08 0)
(0.082087604 5.7051694e-08 0)
(0.081608342 5.42869e-08 0)
(0.081123261 5.160336e-08 0)
(0.080631658 4.8990013e-08 0)
(0.080133101 4.6461797e-08 0)
(0.079637774 4.4082542e-08 0)
(0.079161191 4.1888357e-08 0)
(0.078707636 3.9871417e-08 0)
(0.078275319 3.8012072e-08 0)
(0.077862601 3.6299969e-08 0)
(0.077467911 3.4722882e-08 0)
(0.077089874 3.3263077e-08 0)
(0.076727305 3.1907797e-08 0)
(0.076379107 3.0650565e-08 0)
(0.076044232 2.9484689e-08 0)
(0.075721727 2.8399952e-08 0)
(0.07541077 2.7387994e-08 0)
(0.075110588 2.6444448e-08 0)
(0.074820451 2.556878e-08 0)
(0.074539598 2.4755409e-08 0)
(0.074267421 2.4017936e-08 0)
(0.074002848 2.3323487e-08 0)
(0.073746011 2.2785398e-08 0)
(0.073493279 2.218275e-08 0)
(0.073249775 2.2182466e-08 0)
(0.072996814 2.1185325e-08 0)
(0.072775495 2.5995726e-08 0)
(0.072414077 1.6179032e-08 0)
(1 3.6621813e-09 0)
(0.99997072 1.1346839e-08 0)
(0.99991643 1.7935844e-08 0)
(0.99985249 2.3467459e-08 0)
(0.99977979 3.0005854e-08 0)
(0.99969833 3.7855798e-08 0)
(0.99960816 4.7333501e-08 0)
(0.9995089 5.8938427e-08 0)
(0.99939985 7.3271638e-08 0)
(0.99928001 9.1068982e-08 0)
(0.99914811 1.1326869e-07 0)
(0.99900253 1.4114272e-07 0)
(0.99884109 1.7634257e-07 0)
(0.99866108 2.2144697e-07 0)
(0.99845825 2.7939442e-07 0)
(0.99822805 3.5724993e-07 0)
(0.99795964 4.5806351e-07 0)
(0.99764833 6.1357594e-07 0)
(0.99725183 7.9748294e-07 0)
(0.99679871 1.2237373e-06 0)
(0.99604537 1.5782411e-06 0)
(0.99532122 4.2580937e-06 0)
(0.99228749 3.2069226e-06 0)
(0.9925137 0.0009828327 0)
(0.28933061 0.0010263586 0)
(0.22172307 5.3858539e-05 0)
(0.2044797 1.8136726e-05 0)
(0.19427285 1.1837245e-05 0)
(0.187127 8.7746554e-06 0)
(0.18141829 7.1680545e-06 0)
(0.17656674 6.0832867e-06 0)
(0.17237958 5.2176761e-06 0)
(0.16873629 4.5187907e-06 0)
(0.16552517 3.962785e-06 0)
(0.16265809 3.5139877e-06 0)
(0.16007331 3.1400759e-06 0)
(0.15772917 2.8239037e-06 0)
(0.15558777 2.5600517e-06 0)
(0.1536131 2.3377522e-06 0)
(0.15178221 2.1447251e-06 0)
(0.15007739 1.9768335e-06 0)
(0.14848103 1.8304751e-06 0)
(0.14698011 1.7011702e-06 0)
(0.14556363 1.5863441e-06 0)
(0.14422212 1.4836553e-06 0)
(0.14294788 1.39142e-06 0)
(0.14173374 1.3081405e-06 0)
(0.14057413 1.2322945e-06 0)
(0.13946418 1.1631783e-06 0)
(0.13839914 1.0997409e-06 0)
(0.13737575 1.0410549e-06 0)
(0.13639073 9.8708002e-07 0)
(0.13544056 9.3729113e-07 0)
(0.13452271 8.909731e-07 0)
(0.13363486 8.4802985e-07 0)
(0.13277442 8.0827367e-07 0)
(0.13193922 7.7111986e-07 0)
(0.1311277 7.362177e-07 0)
(0.13033826 7.0359064e-07 0)
(0.12956912 6.7302691e-07 0)
(0.12881897 6.4412148e-07 0)
(0.12808681 6.1676295e-07 0)
(0.12737148 5.9102282e-07 0)
(0.12667166 5.6676518e-07 0)
(0.12598637 5.4371579e-07 0)
(0.12531489 5.2177976e-07 0)
(0.12465636 5.0101367e-07 0)
(0.12400979 4.8137352e-07 0)
(0.12337434 4.6264427e-07 0)
(0.12274951 4.4468968e-07 0)
(0.12213473 4.2757664e-07 0)
(0.12152923 4.1134483e-07 0)
(0.12093226 3.9583085e-07 0)
(0.12034342 3.808992e-07 0)
(0.11976229 3.6658273e-07 0)
(0.11918832 3.5291328e-07 0)
(0.11862091 3.3986706e-07 0)
(0.1180595 3.273263e-07 0)
(0.11750381 3.1520824e-07 0)
(0.11695351 3.035613e-07 0)
(0.11640808 2.9241294e-07 0)
(0.11586701 2.8170615e-07 0)
(0.11532995 2.7135693e-07 0)
(0.11479664 2.6134035e-07 0)
(0.11426676 2.5169359e-07 0)
(0.11373984 2.4243623e-07 0)
(0.11321543 2.3349737e-07 0)
(0.11269329 2.2481732e-07 0)
(0.11217317 2.1641704e-07 0)
(0.11165471 2.0831453e-07 0)
(0.11113748 2.0050498e-07 0)
(0.11062109 1.9293571e-07 0)
(0.11010532 1.8556684e-07 0)
(0.10958992 1.7842797e-07 0)
(0.10907447 1.7153669e-07 0)
(0.10855855 1.6486055e-07 0)
(0.10804185 1.5836351e-07 0)
(0.10752412 1.5204527e-07 0)
(0.10700499 1.4592302e-07 0)
(0.10648402 1.3999599e-07 0)
(0.10596078 1.3423209e-07 0)
(0.10543496 1.2861158e-07 0)
(0.10490624 1.2315319e-07 0)
(0.10437408 1.178643e-07 0)
(0.10383799 1.127168e-07 0)
(0.1032976 1.076942e-07 0)
(0.10275247 1.0281232e-07 0)
(0.10220199 9.8074836e-08 0)
(0.10164556 9.3459893e-08 0)
(0.10108271 8.8959571e-08 0)
(0.1005128 8.4590006e-08 0)
(0.099934996 8.0333072e-08 0)
(0.09934879 7.6213233e-08 0)
(0.098766145 7.2335026e-08 0)
(0.098205322 6.8757453e-08 0)
(0.097671385 6.5467633e-08 0)
(0.097162258 6.2433659e-08 0)
(0.096676035 5.9638991e-08 0)
(0.096210889 5.7063888e-08 0)
(0.095765219 5.4679518e-08 0)
(0.095337645 5.2465198e-08 0)
(0.094926889 5.0410511e-08 0)
(0.09453173 4.8504642e-08 0)
(0.094151057 4.6730952e-08 0)
(0.09378391 4.5075862e-08 0)
(0.093429388 4.3532344e-08 0)
(0.09308664 4.209966e-08 0)
(0.092754771 4.0768703e-08 0)
(0.092433073 3.9562061e-08 0)
(0.092120282 3.8425472e-08 0)
(0.091816569 3.754654e-08 0)
(0.091517616 3.6559649e-08 0)
(0.091229546 3.6568185e-08 0)
(0.09093011 3.4939258e-08 0)
(0.090668174 4.2875256e-08 -2.8362156e-22)
(0.090240355 2.6674278e-08 1.9922015e-23)
(1 4.5916192e-09 0)
(0.99997063 1.4234541e-08 0)
(0.99991606 2.2511828e-08 0)
(0.99985174 2.9462161e-08 0)
(0.99977857 3.7673078e-08 0)
(0.99969659 4.7528303e-08 0)
(0.99960584 5.9424793e-08 0)
(0.99950598 7.3988735e-08 0)
(0.99939627 9.1973545e-08 0)
(0.99927574 1.1430147e-07 0)
(0.99914311 1.4214823e-07 0)
(0.99899677 1.7710758e-07 0)
(0.99883454 2.212486e-07 0)
(0.9986537 2.7780197e-07 0)
(0.99845 3.5044839e-07 0)
(0.99821889 4.4803846e-07 0)
(0.99794952 5.7439002e-07 0)
(0.9976372 7.692644e-07 0)
(0.99723959 9.9969663e-07 0)
(0.99678533 1.5336949e-06 0)
(0.99603052 1.9776638e-06 0)
(0.99530531 5.3342417e-06 0)
(0.99226858 4.0205003e-06 0)
(0.99249222 0.0011851894 0)
(0.33406746 0.0012501699 0)
(0.25347891 8.1473281e-05 0)
(0.2332915 2.6808628e-05 0)
(0.22174546 1.7202157e-05 0)
(0.21374977 1.2697674e-05 0)
(0.20739462 1.0355772e-05 0)
(0.20200755 8.7841787e-06 0)
(0.19736372 7.534425e-06 0)
(0.19332567 6.5265792e-06 0)
(0.18976801 5.7251879e-06 0)
(0.1865922 5.078467e-06 0)
(0.18372946 4.5395464e-06 0)
(0.18113357 4.0836726e-06 0)
(0.17876249 3.7032242e-06 0)
(0.17657608 3.3826938e-06 0)
(0.17454892 3.1042761e-06 0)
(0.17266142 2.8620651e-06 0)
(0.170894 2.6509086e-06 0)
(0.16923222 2.4643143e-06 0)
(0.16766392 2.2985819e-06 -3.8002819e-33)
(0.16617857 2.1503435e-06 0)
(0.16476765 2.0171748e-06 0)
(0.16342322 1.8969162e-06 0)
(0.16213912 1.7873687e-06 0)
(0.16090993 1.6875295e-06 0)
(0.1597304 1.5958801e-06 0)
(0.15859692 1.5110734e-06 0)
(0.15750585 1.4330641e-06 0)
(0.1564533 1.3610945e-06 0)
(0.15543647 1.294124e-06 0)
(0.15445279 1.2320217e-06 0)
(0.15349941 1.174523e-06 0)
(0.15257391 1.120777e-06 0)
(0.15167457 1.0702749e-06 0)
(0.15079963 1.0230588e-06 0)
(0.14994711 9.7882446e-07 0)
(0.14911555 9.3698054e-07 0)
(0.14830387 8.9736646e-07 0)
(0.14751075 8.6009123e-07 0)
(0.14673476 8.2495894e-07 0)
(0.14597482 7.9156893e-07 0)
(0.14523009 7.5978382e-07 0)
(0.14449966 7.2968997e-07 0)
(0.14378243 7.0122511e-07 0)
(0.14307745 6.7407469e-07 0)
(0.14238417 6.480404e-07 0)
(0.14170199 6.2322265e-07 0)
(0.14103002 5.9968057e-07 0)
(0.14036744 5.7717559e-07 0)
(0.13971381 5.5551017e-07 0)
(0.13906867 5.3473313e-07 0)
(0.13843141 5.1489254e-07 0)
(0.13780135 4.9595405e-07 0)
(0.13717788 4.7774549e-07 0)
(0.1365607 4.6014642e-07 0)
(0.13594942 4.4322882e-07 0)
(0.13534348 4.2703334e-07 0)
(0.13474232 4.1147681e-07 0)
(0.13414553 3.9643652e-07 0)
(0.13355283 3.8187637e-07 0)
(0.13296386 3.6785169e-07 0)
(0.13237813 3.5439126e-07 0)
(0.13179509 3.413914e-07 0)
(0.13121451 3.2876502e-07 0)
(0.13063609 3.1654319e-07 0)
(0.13005943 3.0475278e-07 0)
(0.12948407 2.9338673e-07 0)
(0.12890955 2.8236802e-07 0)
(0.12833564 2.7163861e-07 0)
(0.12776206 2.6124216e-07 0)
(0.12718834 2.5120457e-07 0)
(0.12661401 2.4147837e-07 0)
(0.12603872 2.3201088e-07 0)
(0.12546218 2.2280194e-07 0)
(0.124884 2.1387699e-07 0)
(0.12430367 2.0523487e-07 0)
(0.12372071 1.9682862e-07 0)
(0.12313478 1.8862957e-07 0)
(0.1225455 1.8066534e-07 0)
(0.12195229 1.7294672e-07 0)
(0.12135458 1.6543257e-07 0)
(0.12075196 1.5809892e-07 0)
(0.12014394 1.5096904e-07 0)
(0.11952983 1.4404836e-07 0)
(0.11890896 1.3730486e-07 0)
(0.11828078 1.3072709e-07 0)
(0.11764458 1.2433883e-07 0)
(0.11699944 1.1811335e-07 0)
(0.11634476 1.1208657e-07 0)
(0.1156939 1.0641215e-07 0)
(0.11506728 1.011766e-07 0)
(0.11447055 9.6360767e-08 0)
(0.11390142 9.1918046e-08 0)
(0.11335778 8.7824685e-08 0)
(0.1128376 8.4051962e-08 0)
(0.1123391 8.055779e-08 0)
(0.11186074 7.7312049e-08 0)
(0.11140112 7.4299652e-08 0)
(0.11095886 7.1504871e-08 0)
(0.11053274 6.8903368e-08 0)
(0.1101217 6.6475342e-08 0)
(0.10972472 6.4210644e-08 0)
(0.10934087 6.2108349e-08 0)
(0.10896914 6.0155102e-08 0)
(0.10860875 5.8384511e-08 0)
(0.10825828 5.6716243e-08 0)
(0.10791793 5.5428749e-08 0)
(0.10758285 5.3979385e-08 0)
(0.10725996 5.4004667e-08 0)
(0.10692413 5.1603724e-08 0)
(0.10663047 6.3338567e-08 0)
(0.1061508 3.9387563e-08 -9.5544112e-24)
(1 5.5930978e-09 0)
(0.99997053 1.7350599e-08 0)
(0.99991564 2.7456242e-08 0)
(0.99985086 3.5943877e-08 0)
(0.99977715 4.5964615e-08 0)
(0.99969455 5.7988152e-08 0)
(0.99960313 7.2498743e-08 0)
(0.99950254 9.0259104e-08 0)
(0.99939207 1.1218672e-07 0)
(0.99927073 1.3940448e-07 0)
(0.99913725 1.7334368e-07 0)
(0.99899002 2.1594424e-07 0)
(0.99882686 2.6972433e-07 0)
(0.99864505 3.3861572e-07 0)
(0.99844033 4.270969e-07 0)
(0.99820816 5.4593836e-07 0)
(0.99793766 6.9978189e-07 0)
(0.99762416 9.3701169e-07 0)
(0.99722526 1.2174946e-06 0)
(0.99676967 1.8673492e-06 0)
(0.99601317 2.4074455e-06 0)
(0.99528672 6.4912809e-06 0)
(0.99224658 4.8968481e-06 0)
(0.99246743 0.0013889132 0)
(0.3752276 0.0014814282 0)
(0.28214628 0.00011556361 0)
(0.25902035 3.7460337e-05 0)
(0.24618839 2.3626669e-05 0)
(0.23740302 1.7353186e-05 0)
(0.23045753 1.4122611e-05 0)
(0.22458654 1.1968883e-05 0)
(0.21953261 1.02631e-05 0)
(0.2151416 8.889702e-06 0)
(0.21127519 7.7985101e-06 0)
(0.20782513 6.9183411e-06 0)
(0.20471606 6.1849166e-06 0)
(0.20189761 5.5644086e-06 0)
(0.1993239 5.0466344e-06 0)
(0.19695106 4.6104776e-06 0)
(0.1947514 4.2315578e-06 0)
(0.19270363 3.9018998e-06 0)
(0.19078635 3.6145321e-06 0)
(0.18898387 3.3605684e-06 0)
(0.18728294 3.1349843e-06 3.4247295e-33)
(0.18567212 2.9332041e-06 0)
(0.18414212 2.7519292e-06 0)
(0.18268432 2.5882197e-06 0)
(0.18129199 2.4390765e-06 0)
(0.17995928 2.3031501e-06 0)
(0.17868044 2.1783696e-06 0)
(0.17745156 2.0628889e-06 0)
(0.17626868 1.9566605e-06 0)
(0.17512758 1.8586522e-06 0)
(0.17402521 1.7674358e-06 0)
(0.17295879 1.682842e-06 0)
(0.17192523 1.6045188e-06 0)
(0.17092187 1.5312987e-06 0)
(0.16994689 1.4624859e-06 0)
(0.16899835 1.3981478e-06 0)
(0.16807411 1.3378721e-06 0)
(0.16717258 1.2808458e-06 0)
(0.16629258 1.2268501e-06 0)
(0.1654327 1.1760402e-06 0)
(0.16459137 1.1281498e-06 0)
(0.16376741 1.0826277e-06 0)
(0.16295994 1.0392862e-06 0)
(0.16216796 9.9824849e-07 0)
(0.16139025 9.5943139e-07 0)
(0.16062581 9.2240168e-07 0)
(0.15987403 8.8688773e-07 0)
(0.15913426 8.5303076e-07 0)
(0.15840554 8.2091313e-07 0)
(0.15768698 7.9020708e-07 0)
(0.15697809 7.6064174e-07 0)
(0.15627839 7.3228507e-07 0)
(0.1555872 7.0520478e-07 0)
(0.1549038 6.793541e-07 0)
(0.15422751 6.5449622e-07 0)
(0.15355801 6.3046641e-07 0)
(0.15289488 6.0736501e-07 0)
(0.15223752 5.8524824e-07 0)
(0.1515853 5.64002e-07 0)
(0.1509378 5.4345773e-07 0)
(0.1502947 5.2356634e-07 0)
(0.14965562 5.0440489e-07 0)
(0.14902001 4.8601297e-07 0)
(0.14838729 4.6824808e-07 0)
(0.14775719 4.5099085e-07 0)
(0.14712941 4.3428447e-07 0)
(0.1465035 4.1816638e-07 0)
(0.14587896 4.0262675e-07 0)
(0.14525529 3.8755979e-07 0)
(0.14463224 3.7288621e-07 0)
(0.1440095 3.5866639e-07 0)
(0.14338657 3.4493595e-07 0)
(0.14276292 3.3162968e-07 0)
(0.14213819 3.1867524e-07 0)
(0.14151206 3.060728e-07 0)
(0.14088408 2.9385761e-07 0)
(0.14025372 2.8202788e-07 0)
(0.13962045 2.7051915e-07 0)
(0.13898391 2.5929233e-07 0)
(0.13834366 2.4838557e-07 0)
(0.13769908 2.3781355e-07 0)
(0.13704955 2.2751982e-07 0)
(0.13639461 2.1747166e-07 0)
(0.13573374 2.0770115e-07 0)
(0.13506617 1.9821565e-07 0)
(0.13439119 1.8897125e-07 0)
(0.13370818 1.799524e-07 0)
(0.13301638 1.7119186e-07 0)
(0.13231475 1.6265267e-07 0)
(0.13160267 1.5438418e-07 0)
(0.13089466 1.465982e-07 0)
(0.13021292 1.3941364e-07 0)
(0.12956362 1.3280365e-07 0)
(0.12894427 1.2670436e-07 0)
(0.12835259 1.2108362e-07 0)
(0.12778637 1.159022e-07 0)
(0.12724369 1.1110243e-07 0)
(0.12672289 1.0664317e-07 0)
(0.12622242 1.0250384e-07 0)
(0.12574082 9.8662957e-08 0)
(0.12527674 9.5087109e-08 0)
(0.12482904 9.1749228e-08 0)
(0.12439662 8.8635541e-08 0)
(0.12397846 8.5744953e-08 0)
(0.12357347 8.3059074e-08 0)
(0.12318079 8.062467e-08 0)
(0.12279889 7.8330352e-08 0)
(0.12242801 7.6563043e-08 0)
(0.12206278 7.4568618e-08 0)
(0.12171087 7.4619123e-08 0)
(0.12134467 7.1306327e-08 -2.6854226e-23)
(0.12102458 8.7529588e-08 0)
(0.12050176 5.441333e-08 0)
(1 6.6825654e-09 0)
(0.99997041 2.074619e-08 0)
(0.99991516 3.2852593e-08 0)
(0.99984985 4.3023675e-08 0)
(0.9997755 5.5023126e-08 0)
(0.99969219 6.9415285e-08 0)
(0.99959999 8.6779757e-08 0)
(0.99949855 1.0802777e-07 0)
(0.99938718 1.3425517e-07 0)
(0.9992649 1.6680289e-07 0)
(0.99913043 2.0737982e-07 0)
(0.99898216 2.5830177e-07 0)
(0.99881792 3.225744e-07 0)
(0.99863498 4.0489043e-07 0)
(0.99842909 5.1059381e-07 0)
(0.99819569 6.5253848e-07 0)
(0.99792389 8.3625842e-07 0)
(0.99760902 1.119494e-06 0)
(0.99720862 1.4543258e-06 0)
(0.99675149 2.2299185e-06 0)
(0.99599304 2.8742633e-06 0)
(0.99526516 7.7468079e-06 0)
(0.9922212 5.849869e-06 0)
(0.99243903 0.0015959258 -1.0239633e-53)
(0.41404051 0.0017227818 6.7978111e-54)
(0.30887092 0.0001581663 -6.8252714e-20)
(0.28274558 5.0454248e-05 0)
(0.26863334 3.128489e-05 0)
(0.25908532 2.285107e-05 0)
(0.25157855 1.8551637e-05 0)
(0.24525171 1.5705072e-05 0)
(0.23981353 1.3460465e-05 0)
(0.23509301 1.1656599e-05 0)
(0.23093919 1.0224764e-05 0)
(0.22723445 9.0705506e-06 0)
(0.2238971 8.1089637e-06 0)
(0.22087274 7.295392e-06 0)
(0.2181119 6.6166682e-06 0)
(0.21556716 6.045076e-06 0)
(0.21320867 5.5484584e-06 0)
(0.2110135 5.1164226e-06 0)
(0.20895859 4.7398699e-06 0)
(0.20702704 4.4070851e-06 0)
(0.20520457 4.1114908e-06 0)
(0.20347889 3.8470962e-06 0)