/*--------------------------------*- C++ -*----------------------------------*\
  =========                 |
  \\      /  F ield         | OpenFOAM: The Open Source CFD Toolbox
   \\    /   O peration     | Website:  https://openfoam.org
    \\  /    A nd           | Version:  12
     \\/     M anipulation  |
\*---------------------------------------------------------------------------*/
FoamFile
{
    format      ascii;
    class       volVectorField;
    location    "1100";
    object      wallShearStress;
}
// * * * * * * * * * * * * * * * * * * * * * * * * * * * * * * * * * * * * * //

dimensions      [0 2 -2 0 0 0 0];

internalField   uniform (0 0 0);

boundaryField
{
    bottom
    {
        type            calculated;
        value           nonuniform List<vector> 
112
(
(-0.0077713371 -3.5606436e-05 0)
(-0.0059390801 -2.2146451e-07 -1.4391875e-17)
(-0.0054697974 -7.5392577e-08 9.9984209e-18)
(-0.0051608265 -5.2504236e-08 -3.3557705e-18)
(-0.0049406497 -3.9333731e-08 0)
(-0.0047637873 -3.2254355e-08 0)
(-0.004613497 -2.7388368e-08 0)
(-0.0044841696 -2.3469459e-08 0)
(-0.004372051 -2.0300591e-08 0)
(-0.0042735972 -1.7779575e-08 -2.2189156e-18)
(-0.0041860125 -1.5745487e-08 0)
(-0.0041073294 -1.4052763e-08 -1.7478959e-18)
(-0.0040362 -1.2623683e-08 1.567836e-18)
(-0.0039714143 -1.1432918e-08 -1.4178856e-18)
(-0.0039118457 -1.0430133e-08 0)
(-0.0038567656 -9.5599947e-09 1.1825825e-18)
(-0.0038056084 -8.8043964e-09 0)
(-0.0037578241 -8.1460024e-09 -5.0265473e-19)
(-0.0037130032 -7.564747e-09 0)
(-0.0036707993 -7.0491032e-09 -8.6810702e-19)
(-0.0036309159 -6.5882254e-09 8.1055014e-19)
(-0.0035931116 -6.1745815e-09 0)
(-0.0035571637 -5.8013723e-09 0)
(-0.0035228976 -5.4616399e-09 0)
(-0.0034901609 -5.1523059e-09 -6.3160103e-19)
(-0.0034588078 -4.8685074e-09 0)
(-0.0034287352 -4.6061085e-09 0)
(-0.0033998406 -4.3649845e-09 0)
(-0.0033720165 -4.1426318e-09 0)
(-0.0033451842 -3.9358916e-09 -4.8061761e-19)
(-0.0033192709 -3.7443773e-09 4.5690195e-19)
(-0.0032941976 -3.567153e-09 0)
(-0.003269898 -3.4015889e-09 0)
(-0.0032463235 -3.2461563e-09 0)
(-0.0032234244 -3.1009403e-09 3.7736526e-19)
(-0.0032011473 -2.9649455e-09 0)
(-0.0031794518 -2.8363996e-09 0)
(-0.0031583067 -2.7147954e-09 -3.2975353e-19)
(-0.0031376764 -2.6004378e-09 0)
(-0.0031175215 -2.492716e-09 0)
(-0.0030978122 -2.3903801e-09 0)
(-0.003078526 -2.2930495e-09 2.7787213e-19)
(-0.0030596366 -2.2009636e-09 -1.3328053e-19)
(-0.0030411148 -2.1138969e-09 2.5587234e-19)
(-0.0030229352 -2.0308956e-09 0)
(-0.003005082 -1.9513547e-09 0)
(-0.0029875387 -1.8755868e-09 -3.3998959e-19)
(-0.0029702818 -1.8037618e-09 0)
(-0.002953289 -1.7351241e-09 2.0946149e-19)
(-0.0029365485 -1.669075e-09 0)
(-0.0029200476 -1.605788e-09 0)
(-0.0029037698 -1.5453938e-09 -9.3135879e-20)
(-0.0028876973 -1.4877659e-09 -8.9617356e-20)
(-0.0028718141 -1.43238e-09 0)
(-0.0028561116 -1.3788986e-09 -1.6595479e-19)
(-0.0028405794 -1.3275141e-09 0)
(-0.0028252033 -1.2783393e-09 0)
(-0.0028099685 -1.2311359e-09 0)
(-0.0027948639 -1.1855226e-09 0)
(-0.0027798825 -1.141389e-09 0)
(-0.002765015 -1.0989056e-09 0)
(-0.0027502481 -1.0581555e-09 0)
(-0.0027355686 -1.0188101e-09 0)
(-0.0027209701 -9.8062262e-10 0)
(-0.0027064448 -9.4368633e-10 -1.1302884e-19)
(-0.0026919828 -9.0806535e-10 0)
(-0.0026775724 -8.7374635e-10 -5.22762e-20)
(-0.0026632022 -8.4048995e-10 0)
(-0.0026488665 -8.0813069e-10 -4.8304961e-20)
(-0.0026345579 -7.7679689e-10 9.2819581e-20)
(-0.0026202651 -7.4655606e-10 8.9163615e-20)
(-0.0026059765 -7.1726787e-10 -4.2812549e-20)
(-0.0025916837 -6.8877654e-10 0)
(-0.0025773795 -6.6108308e-10 0)
(-0.0025630543 -6.3425534e-10 7.5607093e-20)
(-0.0025486963 -6.0829381e-10 -7.2477331e-20)
(-0.0025342933 -5.8305802e-10 0)
(-0.0025198379 -5.5845732e-10 0)
(-0.0025053208 -5.345752e-10 -6.3600901e-20)
(-0.0024907283 -5.1144482e-10 0)
(-0.0024760468 -4.8894166e-10 0)
(-0.0024612669 -4.6698969e-10 0)
(-0.0024463775 -4.4566482e-10 0)
(-0.002431362 -4.2497994e-10 0)
(-0.0024162052 -4.0483692e-10 0)
(-0.0024008941 -3.8520193e-10 0)
(-0.0023854133 -3.6614607e-10 0)
(-0.0023697405 -3.4759181e-10 4.1164411e-20)
(-0.0023538627 -3.2964227e-10 -3.9017542e-20)
(-0.0023381045 -3.1275181e-10 0)
(-0.0023229585 -2.971736e-10 0)
(-0.0023085588 -2.8285258e-10 0)
(-0.0022948464 -2.6965207e-10 0)
(-0.0022817676 -2.5749995e-10 0)
(-0.0022692708 -2.4630527e-10 0)
(-0.0022573114 -2.3594106e-10 0)
(-0.0022458506 -2.2632188e-10 0)
(-0.0022348524 -2.1740081e-10 -2.5628441e-20)
(-0.0022242827 -2.0912746e-10 0)
(-0.0022141108 -2.0142922e-10 0)
(-0.0022043097 -1.942483e-10 0)
(-0.0021948545 -1.8755401e-10 0)
(-0.0021857215 -1.8134257e-10 0)
(-0.002176886 -1.7557167e-10 0)
(-0.0021683289 -1.703396e-10 0)
(-0.0021600154 -1.6541695e-10 0)
(-0.0021519496 -1.6159747e-10 0)
(-0.0021440172 -1.5733549e-10 0)
(-0.0021363783 -1.5731336e-10 0)
(-0.0021284478 -2.866497e-10 0)
(-0.0021215123 -1.8382148e-10 -2.1701736e-20)
(-0.002110192 -2.1958473e-10 0)
)
;
    }
    back
    {
        type            empty;
    }
    front
    {
        type            empty;
    }
    inlet
    {
        type            calculated;
        value           uniform (0 0 0);
    }
    outlet
    {
        type            calculated;
        value           uniform (0 0 0);
    }
    top
    {
        type            calculated;
        value           uniform (0 0 0);
    }
    slipsurface
    {
        type            calculated;
        value           uniform (0 0 0);
    }
}


// ************************************************************************* //
