/*--------------------------------*- C++ -*----------------------------------*\
  =========                 |
  \\      /  F ield         | OpenFOAM: The Open Source CFD Toolbox
   \\    /   O peration     | Website:  https://openfoam.org
    \\  /    A nd           | Version:  12
     \\/     M anipulation  |
\*---------------------------------------------------------------------------*/
FoamFile
{
    format      ascii;
    class       volScalarField;
    location    "1100";
    object      yPlus;
}
// * * * * * * * * * * * * * * * * * * * * * * * * * * * * * * * * * * * * * //

dimensions      [];

internalField   uniform 0;

boundaryField
{
    inlet
    {
        type            calculated;
        value           uniform 0;
    }
    top
    {
        type            calculated;
        value           uniform 0;
    }
    outlet
    {
        type            calculated;
        value           uniform 0;
    }
    slipsurface
    {
        type            calculated;
        value           uniform 0;
    }
    bottom
    {
        type            calculated;
        value           nonuniform List<scalar> 
100
(
116.34616
115.19733
113.92543
112.57539
111.18812
109.79173
108.39656
107.00705
105.62739
104.26118
102.91132
101.5802
100.27041
98.9849
97.727156
96.501819
95.315693
94.178692
93.099251
92.08476
91.141798
90.27593
89.49121
88.790465
88.173746
87.636774
87.171352
86.76639
86.408525
86.083984
85.780878
85.490558
85.207616
84.929139
84.653799
84.380618
84.108326
83.835532
83.561149
83.284886
83.007413
82.72989
82.453452
82.178815
81.906315
81.636182
81.368667
81.103996
80.842351
80.583899
80.328727
80.076809
79.828105
79.582638
79.340415
79.10137
78.865419
78.632528
78.402633
78.175656
77.951534
77.730203
77.51158
77.295598
77.082204
76.871334
76.662926
76.456926
76.253268
76.051896
75.85275
75.655771
75.460902
75.268088
75.077274
74.88841
74.701442
74.516323
74.333002
74.151434
73.971572
73.793372
73.616789
73.441783
73.26831
73.096328
72.925796
72.756669
72.588907
72.422449
72.257269
72.093229
71.930421
71.768297
71.607708
71.445928
71.287935
71.119234
70.979908
70.717176
)
;
    }
    frontandback
    {
        type            empty;
    }
}


// ************************************************************************* //
