/*--------------------------------*- C++ -*----------------------------------*\
  =========                 |
  \\      /  F ield         | OpenFOAM: The Open Source CFD Toolbox
   \\    /   O peration     | Website:  https://openfoam.org
    \\  /    A nd           | Version:  12
     \\/     M anipulation  |
\*---------------------------------------------------------------------------*/
FoamFile
{
    format      ascii;
    class       volScalarField;
    location    "1500";
    object      k;
}
// * * * * * * * * * * * * * * * * * * * * * * * * * * * * * * * * * * * * * //

dimensions      [0 2 -2 0 0 0 0];

internalField   nonuniform List<scalar> 
7480
(
0.00065103535
0.0016645896
0.0030112661
0.0044350662
0.0057285229
0.0067733676
0.0075319436
0.0080217466
0.0082890998
0.0083881794
0.008368622
0.0082703819
0.0081231308
0.0079477065
0.0077581653
0.0075637814
0.0073708133
0.007183791
0.0070059331
0.0068397586
0.0066874195
0.0065508417
0.0064316728
0.0063311455
0.0062499258
0.00618765
0.0061420663
0.006109766
0.0060860608
0.0060658919
0.0060451178
0.0060213373
0.0059939323
0.005963656
0.0059317014
0.005899015
0.0058659963
0.0058325951
0.005798603
0.0057639336
0.005728745
0.0056933635
0.005658128
0.0056232577
0.0055888296
0.0055548465
0.0055213082
0.005488231
0.0054556335
0.005423525
0.0053919022
0.0053607518
0.00533006
0.0052998191
0.0052700222
0.0052406562
0.005211706
0.0051831618
0.0051550199
0.0051272657
0.0050998856
0.0050728678
0.0050462012
0.0050198768
0.0049938877
0.0049682261
0.0049428845
0.0049178558
0.004893132
0.0048687058
0.00484457
0.0048207175
0.0047971414
0.0047738349
0.0047507918
0.0047280058
0.0047054709
0.0046831812
0.0046611309
0.0046393144
0.0046177264
0.0045963615
0.0045752147
0.0045542808
0.004533555
0.0045130323
0.0044927078
0.0044725763
0.0044526331
0.0044328716
0.0044132884
0.0043938696
0.0043746221
0.0043554959
0.0043365609
0.0043175851
0.004298974
0.0042794124
0.0042630405
0.0042325735
0.00015531369
0.00017499792
0.00021686341
0.00028796795
0.00039325914
0.00052354568
0.00066459722
0.00080408763
0.00093356234
0.0010487877
0.0011495737
0.001238893
0.0013216311
0.0014042736
0.0014951733
0.0016045723
0.0017493103
0.0019376144
0.0021482337
0.0023805489
0.0026377537
0.0029218184
0.0032311964
0.003562039
0.0039055023
0.0042466478
0.0045670235
0.0048479446
0.0050739345
0.0052387904
0.0053469562
0.0054103546
0.0054437818
0.0054603972
0.0054689503
0.005473184
0.0054734456
0.0054690035
0.0054596943
0.0054464987
0.0054311014
0.005415039
0.0053992032
0.0053837238
0.005368353
0.0053528748
0.0053372533
0.0053215448
0.0053057708
0.0052898845
0.0052738227
0.0052575572
0.005241092
0.0052244321
0.0052075691
0.0051904957
0.0051732176
0.0051557497
0.0051380847
0.0051202689
0.005102303
0.0050841917
0.0050659491
0.0050475927
0.0050291388
0.0050106019
0.004991995
0.0049733294
0.0049546156
0.0049358639
0.004917084
0.0048982852
0.0048794765
0.0048606663
0.0048418625
0.0048230724
0.0048043028
0.0047855599
0.0047668498
0.0047481778
0.004729549
0.004710968
0.004692439
0.0046739659
0.0046555522
0.004637201
0.0046189152
0.0046006974
0.0045825495
0.0045644735
0.0045464702
0.0045285407
0.0045106831
0.0044928979
0.0044751741
0.0044575169
0.0044399082
0.0044220479
0.0044061117
0.0043779327
0.00014827967
0.00014947393
0.00015103758
0.00015286262
0.0001549633
0.00015729776
0.00015977323
0.00016229485
0.00016478343
0.00016717782
0.0001694557
0.00017165833
0.0001739013
0.00017639097
0.00017948149
0.0001836593
0.00018998994
0.00019911134
0.00021574412
0.00024265596
0.00028215354
0.00033696514
0.00041094535
0.0005085417
0.00063713542
0.00080691338
0.0010453526
0.0013340343
0.0016627202
0.0020193656
0.0023877635
0.0027488798
0.0030827462
0.0033728736
0.0036099349
0.0037937474
0.0039315799
0.0040349169
0.0041155031
0.0041824427
0.004240904
0.0042927456
0.0043381304
0.0043770815
0.0044102257
0.0044386759
0.004463536
0.0044855286
0.0045049761
0.0045220186
0.0045368109
0.0045495618
0.0045604712
0.0045696841
0.004577304
0.0045834263
0.0045881499
0.0045915689
0.0045937591
0.0045947719
0.0045946943
0.0045936058
0.0045915756
0.0045886663
0.0045849365
0.0045804404
0.0045752278
0.0045693447
0.0045628343
0.0045557369
0.0045480908
0.004539932
0.0045312947
0.0045222113
0.004512712
0.0045028255
0.0044925787
0.0044819968
0.0044711038
0.0044599222
0.0044484731
0.0044367764
0.0044248509
0.0044127141
0.0044003824
0.0043878716
0.0043751961
0.0043623697
0.0043494052
0.0043363151
0.0043231096
0.0043098016
0.0042963943
0.004282911
0.0042693258
0.0042557166
0.0042419477
0.0042281195
0.004215356
0.0041931118
0.00014770717
0.00014796449
0.00014823171
0.00014847824
0.00014869384
0.00014886909
0.00014899103
0.00014904535
0.00014901614
0.0001488901
0.00014865582
0.00014830345
0.00014782516
0.00014722496
0.00014650933
0.00014568767
0.00014478694
0.00014382711
0.00014287622
0.0001421127
0.00014144436
0.00014158892
0.00014230993
0.00014419298
0.00014783525
0.00015410348
0.00016535293
0.00018372135
0.00021652934
0.00027061406
0.00035219796
0.00046820074
0.00062671798
0.00084943229
0.0011177527
0.0014152016
0.0017260476
0.0020330146
0.0023190103
0.0025711738
0.0027837058
0.0029580989
0.0031010411
0.0032210942
0.0033256825
0.003419406
0.0035042283
0.0035807171
0.0036492894
0.003710759
0.0037661887
0.003816509
0.0038623337
0.0039040459
0.0039419647
0.003976416
0.0040077075
0.0040360975
0.004061799
0.0040849935
0.0041058578
0.0041245585
0.0041412463
0.0041560581
0.0041691195
0.004180546
0.0041904429
0.0041989074
0.0042060293
0.0042118923
0.0042165741
0.0042201477
0.0042226811
0.0042242384
0.0042248795
0.0042246605
0.0042236342
0.0042218501
0.0042193548
0.004216192
0.004212403
0.0042080265
0.004203099
0.0041976546
0.0041917256
0.0041853425
0.0041785338
0.0041713268
0.0041637466
0.004155818
0.0041475622
0.0041390039
0.0041301555
0.004121054
0.0041116765
0.0041021332
0.0040922473
0.0040823277
0.0040728226
0.0040562252
0.00014757613
0.00014768348
0.00014778157
0.00014785906
0.00014791367
0.00014794394
0.0001479472
0.00014792056
0.00014786063
0.00014776359
0.000147626
0.00014744507
0.00014721688
0.00014693314
0.00014659039
0.00014618683
0.00014572238
0.00014519791
0.00014461841
0.00014399687
0.00014334064
0.00014268364
0.00014204251
0.00014144302
0.00014090469
0.0001404783
0.00014015157
0.00014025205
0.0001407468
0.00014215475
0.00014498781
0.00015004359
0.00015855594
0.00017333683
0.00019878943
0.0002434517
0.00031411051
0.00041744176
0.00056303225
0.00076085421
0.00099398052
0.001248295
0.0015089714
0.0017609413
0.0019922356
0.0021965092
0.0023732365
0.0025262079
0.0026609017
0.0027820148
0.0028923509
0.0029931392
0.0030850016
0.0031686621
0.0032450553
0.0033150821
0.0033794282
0.0034385888
0.0034929819
0.0035429987
0.0035889986
0.0036312961
0.0036701666
0.0037058591
0.0037386007
0.0037685974
0.003796035
0.0038210834
0.0038438984
0.0038646232
0.0038833899
0.003900321
0.0039155301
0.003929123
0.0039411981
0.0039518472
0.0039611564
0.0039692058
0.0039760707
0.0039818217
0.0039865249
0.0039902423
0.0039930324
0.0039949498
0.0039960461
0.0039963696
0.0039959661
0.0039948786
0.0039931476
0.0039908119
0.0039879064
0.0039844685
0.003980523
0.0039761188
0.0039712435
0.0039660251
0.0039602741
0.0039544403
0.0039484038
0.0039376478
0.00014752207
0.00014758445
0.00014763542
0.00014766927
0.00014768754
0.00014769132
0.00014768021
0.00014765314
0.00014760888
0.00014754601
0.00014746297
0.00014735714
0.00014722791
0.00014707313
0.00014689035
0.00014667742
0.00014643251
0.00014615412
0.00014584122
0.00014549376
0.00014511245
0.00014469894
0.00014425685
0.00014378824
0.00014330201
0.00014281319
0.00014232587
0.00014186632
0.00014144001
0.00014110755
0.00014080101
0.00014081415
0.00014098145
0.00014152744
0.00014266266
0.0001449024
0.00014892155
0.00015566212
0.0001669574
0.00018570154
0.00021902718
0.00027402115
0.00035730354
0.0004774053
0.00064166225
0.00083701195
0.0010524018
0.0012752061
0.0014931212
0.0016967258
0.0018812797
0.0020465496
0.0021951674
0.0023303873
0.0024545787
0.0025689804
0.002674276
0.0027711499
0.002860415
0.0029428516
0.0030190867
0.0030896197
0.0031548931
0.0032153198
0.0032712733
0.0033230835
0.003371045
0.0034154263
0.0034564722
0.0034944053
0.0035294296
0.0035617325
0.0035914869
0.0036188525
0.0036439772
0.0036669983
0.0036880437
0.0037072324
0.0037246754
0.0037404767
0.0037547332
0.0037675359
0.0037789698
0.0037891148
0.0037980458
0.0038058331
0.003812543
0.0038182379
0.0038229763
0.0038268141
0.0038298022
0.0038319929
0.003833426
0.003834163
0.0038342061
0.0038336966
0.0038324438
0.0038310155
0.0038287394
0.0038242173
0.0001474923
0.00014753421
0.00014756504
0.00014758177
0.00014758705
0.00014758264
0.0001475686
0.00014754442
0.00014750954
0.0001474633
0.00014740496
0.00014733342
0.0001472478
0.00014714713
0.00014703025
0.00014689588
0.00014674277
0.00014656969
0.0001463755
0.00014615926
0.00014592027
0.00014565809
0.00014537285
0.00014506468
0.00014473465
0.00014438578
0.00014402046
0.00014364347
0.00014325749
0.00014287294
0.00014248585
0.00014213676
0.00014182393
0.00014157748
0.00014135041
0.00014135389
0.00014147489
0.00014186873
0.00014268129
0.00014409597
0.00014659012
0.00015091096
0.0001580708
0.00016996088
0.00018943151
0.0002235628
0.00027880607
0.00036122112
0.00048213716
0.00063495487
0.00081208678
0.0010038698
0.0011995552
0.0013896312
0.0015679541
0.0017322872
0.0018833126
0.0020227982
0.0021522161
0.0022724021
0.0023839019
0.0024873097
0.0025832975
0.0026724932
0.0027554237
0.0028325443
0.0029042756
0.0029710069
0.0030330896
0.0030908409
0.0031445516
0.0031944883
0.0032408959
0.0032839997
0.0033240079
0.0033611129
0.0033954936
0.0034273158
0.003456734
0.0034838922
0.0035089248
0.0035319572
0.0035531067
0.0035724831
0.0035901895
0.0036063223
0.0036209723
0.0036342247
0.0036461595
0.0036568528
0.0036663745
0.0036747944
0.0036821696
0.0036885762
0.0036940343
0.0036986971
0.0037023782
0.0037057602
0.003707593
0.0037098194
0.0001474742
0.00014750342
0.00014752292
0.00014753083
0.00014752975
0.00014752151
0.0001475064
0.00014748418
0.00014745459
0.00014741728
0.0001473718
0.00014731757
0.00014725398
0.0001471804
0.00014709612
0.00014700036
0.00014689229
0.00014677104
0.00014663576
0.00014648559
0.0001463198
0.00014613768
0.00014593874
0.00014572259
0.00014548902
0.00014523841
0.00014497137
0.00014468915
0.00014439283
0.00014408529
0.00014376678
0.00014344465
0.00014312334
0.00014281116
0.00014250006
0.00014222728
0.00014199155
0.00014181353
0.00014168635
0.00014170882
0.00014184028
0.00014221804
0.00014295307
0.00014423603
0.00014628656
0.00014974627
0.00015553564
0.00016495641
0.00018048241
0.00020679325
0.00025007623
0.00031617781
0.00041465049
0.00054251039
0.00069452097
0.00086305566
0.0010389339
0.0012135826
0.0013809918
0.0015384701
0.0016857982
0.0018237129
0.0019528736
0.0020736857
0.0021865276
0.0022918783
0.0023902568
0.0024821398
0.002567952
0.0026480895
0.0027229261
0.0027928075
0.0028580515
0.0029189525
0.0029757836
0.0030287979
0.0030782306
0.0031243002
0.0031672104
0.0032071506
0.003244298
0.0032788176
0.0033108638
0.0033405812
0.0033681052
0.0033935625
0.0034170724
0.0034387465
0.0034586899
0.0034770018
0.0034937744
0.0035090976
0.0035230487
0.0035357204
0.0035471532
0.0035575139
0.003566622
0.0035752811
0.0035816187
0.0035911989
0.00014746213
0.00014748254
0.0001474947
0.00014749719
0.00014749228
0.00014748167
0.00014746582
0.0001474447
0.00014741817
0.00014738601
0.00014734795
0.00014730361
0.00014725256
0.00014719434
0.00014712849
0.00014705446
0.00014697167
0.00014687951
0.00014677734
0.00014666451
0.00014654037
0.00014640431
0.00014625577
0.00014609423
0.00014591927
0.00014573061
0.00014552817
0.00014531214
0.00014508275
0.00014484085
0.00014458681
0.00014432243
0.00014404971
0.00014377225
0.00014348932
0.00014320839
0.00014293402
0.00014267216
0.00014242339
0.00014221029
0.0001420328
0.0001419101
0.0001418658
0.000141929
0.00014213504
0.00014256935
0.00014336466
0.00014468777
0.00014679323
0.00015020353
0.00015580126
0.00016482687
0.00017955267
0.00020411625
0.00024405747
0.00030529862
0.00039511539
0.00051095371
0.00064898053
0.00080265036
0.00096383252
0.0011250666
0.0012812993
0.0014302332
0.0015713559
0.0017047552
0.0018305511
0.0019488884
0.0020600333
0.0021643463
0.002262202
0.0023539579
0.0024399605
0.0025205465
0.0025960362
0.0026667311
0.0027329157
0.0027948573
0.0028528069
0.0029069997
0.0029576565
0.0030049839
0.003049176
0.0030904146
0.0031288705
0.0031647038
0.003198065
0.0032290957
0.0032579287
0.0032846894
0.0033094948
0.0033324577
0.0033536784
0.0033732684
0.0033912908
0.0034079285
0.0034230069
0.0034374617
0.0034487427
0.0034663578
0.00014745472
0.00014746822
0.00014747508
0.00014747389
0.00014746638
0.00014745405
0.00014743748
0.00014741679
0.00014739196
0.00014736287
0.00014732931
0.00014729101
0.00014724767
0.00014719894
0.00014714446
0.00014708383
0.00014701662
0.00014694238
0.00014686062
0.00014677082
0.00014667248
0.00014656509
0.00014644813
0.00014632114
0.00014618365
0.00014603527
0.00014587568
0.0001457047
0.00014552221
0.00014532832
0.00014512313
0.00014490708
0.00014468088
0.00014444599
0.00014420288
0.00014395361
0.00014370055
0.00014344674
0.00014319329
0.00014294644
0.00014270927
0.00014248687
0.00014228847
0.00014212347
0.00014200268
0.00014193219
0.00014196713
0.0001421099
0.00014242792
0.00014300553
0.00014397428
0.00014552575
0.00014794765
0.00015180076
0.00015800739
0.00016797149
0.00018398198
0.00021057279
0.00025264192
0.00031691788
0.00040596432
0.00051833634
0.0006501944
0.00079510461
0.00094575241
0.0010960448
0.0012422719
0.0013827711
0.0015169261
0.0016444628
0.0017652635
0.0018793827
0.0019870117
0.0020884024
0.002183826
0.0022735661
0.0023579107
0.0024371438
0.0025115409
0.0025813671
0.0026468757
0.002708308
0.0027658928
0.0028198468
0.0028703747
0.0029176701
0.0029619153
0.0030032826
0.0030419341
0.0030780233
0.0031116938
0.0031430834
0.0031723171
0.0031995276
0.0032248023
0.0032483428
0.0032699798
0.0032907943
0.0033074965
0.0033338953
0.00014745211
0.00014745968
0.00014746219
0.00014745817
0.00014744871
0.00014743502
0.0001474177
0.00014739699
0.00014737297
0.00014734561
0.00014731478
0.00014728028
0.00014724187
0.00014719926
0.00014715218
0.00014710032
0.00014704333
0.00014698085
0.00014691249
0.00014683786
0.00014675654
0.0001466681
0.00014657213
0.0001464682
0.0001463559
0.00014623483
0.00014610463
0.00014596499
0.00014581566
0.00014565648
0.00014548734
0.00014530823
0.00014511931
0.00014492106
0.00014471386
0.00014449841
0.00014427578
0.00014404747
0.00014381447
0.00014357905
0.00014334332
0.00014310955
0.00014288127
0.00014266262
0.00014245845
0.00014227142
0.00014211737
0.00014200392
0.00014193406
0.00014195906
0.00014207272
0.00014234335
0.00014283086
0.00014362984
0.00014490129
0.00014688996
0.00014992848
0.00015475628
0.00016242711
0.00017469905
0.00019456054
0.00022642848
0.00027579128
0.00034717906
0.00044088812
0.00055518806
0.00068534253
0.00082481723
0.00096738815
0.0011086727
0.0012462405
0.0013788801
0.0015059316
0.0016270254
0.0017420259
0.0018509707
0.0019539927
0.0020512765
0.0021430396
0.0022295187
0.0023109579
0.0023876022
0.0024596931
0.0025274664
0.0025911495
0.0026509611
0.0027071102
0.0027597962
0.0028092085
0.0028555272
0.0028989226
0.0029395577
0.0029775826
0.0030131524
0.0030463799
0.0030774874
0.0031063096
0.0031340869
0.003156723
0.0031927144
0.00014745431
0.00014745671
0.0001474554
0.00014744891
0.00014743781
0.00014742296
0.00014740488
0.00014738387
0.0001473601
0.00014733362
0.00014730435
0.00014727218
0.0001472369
0.0001471983
0.00014715615
0.00014711019
0.00014706013
0.00014700568
0.00014694652
0.00014688232
0.00014681274
0.00014673743
0.00014665603
0.00014656817
0.0001464735
0.00014637166
0.0001462623
0.00014614509
0.00014601974
0.000145886
0.00014574363
0.00014559247
0.00014543243
0.00014526356
0.00014508598
0.00014489992
0.00014470579
0.00014450429
0.00014429603
0.00014408203
0.00014386347
0.00014364162
0.00014341816
0.00014319511
0.00014297507
0.00014275957
0.00014255382
0.000142363
0.00014218865
0.00014204702
0.00014194234
0.00014188199
0.00014190825
0.00014201903
0.00014227308
0.00014273021
0.00014345952
0.00014460586
0.00014637831
0.00014908873
0.00015327553
0.00015984941
0.00017025075
0.00018681729
0.00021337589
0.00025474602
0.00031538955
0.00039683557
0.00049867946
0.00061737198
0.00074718451
0.0008821971
0.0010178882
0.0011514561
0.0012813032
0.0014064791
0.0015264155
0.0016408273
0.0017496278
0.0018528504
0.001950604
0.002043047
0.002130369
0.0022127766
0.0022904852
0.0023637128
0.0024326763
0.0024975882
0.0025586552
0.0026160769
0.002670045
0.0027207442
0.0027683478
0.002813032
0.0028549339
0.0028942975
0.002930959
0.0029663319
0.0029954427
0.0030418864
0.00014746101
0.00014745903
0.00014745432
0.00014744557
0.00014743296
0.00014741705
0.00014739823
0.00014737679
0.00014735293
0.00014732677
0.0001472983
0.00014726745
0.0001472341
0.00014719807
0.00014715918
0.0001471172
0.0001470719
0.00014702304
0.00014697033
0.00014691349
0.00014685225
0.00014678629
0.00014671532
0.00014663903
0.0001465571
0.00014646921
0.00014637505
0.00014627431
0.0001461667
0.00014605193
0.00014592975
0.0001457999
0.0001456622
0.00014551652
0.00014536277
0.00014520096
0.0001450312
0.00014485371
0.00014466883
0.000144477
0.00014427884
0.00014407507
0.00014386658
0.00014365444
0.00014344008
0.0001432246
0.00014301008
0.00014279938
0.00014259381
0.00014239899
0.00014221922
0.00014205734
0.00014192814
0.00014183517
0.00014179037
0.00014182293
0.0001419483
0.00014221335
0.00014267021
0.00014339752
0.00014451815
0.00014622883
0.00014882766
0.00015277579
0.00015890812
0.0001685275
0.00018370818
0.00020781252
0.00024535409
0.0003001098
0.00037438446
0.00046836937
0.00057914126
0.00070155968
0.00083014235
0.00096053571
0.0010898635
0.0012163477
0.0013388701
0.0014567395
0.0015695726
0.0016771958
0.0017795708
0.0018767488
0.0019688418
0.0020560006
0.0021384002
0.0022162301
0.0022896871
0.0023589703
0.0024242777
0.0024858047
0.0025437397
0.0025982742
0.0026495653
0.0026978762
0.0027430405
0.002786657
0.0028227988
0.0028805921
0.00014747174
0.00014746614
0.0001474585
0.00014744768
0.00014743367
0.00014741676
0.00014739722
0.0001473753
0.00014735119
0.00014732504
0.00014729688
0.00014726671
0.00014723446
0.0001472
0.00014716319
0.00014712385
0.00014708179
0.00014703679
0.00014698862
0.00014693703
0.00014688179
0.00014682262
0.00014675927
0.00014669146
0.00014661892
0.00014654138
0.00014645855
0.00014637015
0.00014627591
0.00014617554
0.00014606879
0.00014595539
0.00014583509
0.0001457077
0.00014557302
0.00014543095
0.0001452814
0.0001451244
0.00014496002
0.00014478844
0.00014460994
0.00014442487
0.00014423371
0.00014403704
0.00014383564
0.00014363027
0.00014342192
0.00014321214
0.00014300197
0.00014279373
0.00014259012
0.00014239279
0.00014220748
0.00014203784
0.000141889
0.00014177248
0.00014168918
0.00014167383
0.00014172082
0.00014187057
0.00014216479
0.00014265566
0.00014342522
0.00014458927
0.00014634213
0.00014898571
0.00015297856
0.00015911742
0.0001686806
0.00018367355
0.00020723459
0.00024348947
0.00029584644
0.00036687902
0.00045677396
0.00056275681
0.00068004154
0.00080359741
0.00092939548
0.0010546762
0.0011776423
0.0012971236
0.0014123821
0.0015229872
0.001628717
0.0017294893
0.0018253182
0.0019162828
0.0020025056
0.0020841375
0.0021613474
0.0022343148
0.0023032232
0.0023682644
0.0024296043
0.002487518
0.002541827
0.0025943256
0.0026380505
0.0027081052
0.00014748601
0.00014747748
0.00014746737
0.00014745474
0.00014743943
0.00014742159
0.00014740139
0.000147379
0.00014735459
0.00014732829
0.00014730019
0.00014727031
0.00014723862
0.00014720505
0.00014716951
0.00014713186
0.00014709194
0.00014704957
0.00014700456
0.00014695669
0.00014690575
0.00014685152
0.00014679376
0.00014673224
0.00014666671
0.00014659694
0.00014652267
0.00014644364
0.00014635962
0.00014627033
0.00014617552
0.00014607493
0.00014596831
0.00014585542
0.00014573604
0.00014560997
0.00014547705
0.00014533718
0.00014519029
0.00014503639
0.00014487554
0.00014470788
0.00014453363
0.00014435307
0.00014416663
0.00014397475
0.00014377798
0.00014357715
0.00014337301
0.00014316667
0.00014295969
0.00014275323
0.00014254984
0.00014235198
0.00014216216
0.00014198579
0.00014182433
0.00014169175
0.00014159029
0.00014152294
0.00014153129
0.0001416126
0.00014180384
0.00014214545
0.00014269467
0.00014354239
0.00014481231
0.00014670609
0.00014953727
0.00015380441
0.00016032761
0.00017039086
0.00018609975
0.00021060837
0.00024747242
0.00030013608
0.00037092694
0.00045963378
0.00056328559
0.00067730638
0.00079710774
0.00091906255
0.0010406369
0.001160125
0.0012763946
0.001388723
0.0014966756
0.0016000157
0.0016986432
0.0017925527
0.0018818044
0.0019665033
0.0020467836
0.0021228048
0.0021947164
0.0022627874
0.0023268106
0.0023887794
0.002440604
0.0025238094
0.00014750339
0.00014749251
0.00014748037
0.00014746618
0.00014744973
0.00014743106
0.00014741026
0.00014738744
0.00014736273
0.00014733626
0.00014730811
0.00014727831
0.00014724689
0.0001472138
0.000147179
0.00014714237
0.00014710382
0.00014706318
0.00014702032
0.00014697504
0.00014692716
0.00014687649
0.00014682282
0.00014676595
0.00014670567
0.00014664175
0.00014657398
0.00014650213
0.00014642598
0.00014634527
0.00014625978
0.00014616926
0.00014607346
0.00014597213
0.00014586503
0.00014575195
0.00014563267
0.00014550702
0.00014537486
0.00014523608
0.00014509063
0.0001449385
0.00014477973
0.00014461443
0.00014444279
0.00014426504
0.00014408148
0.00014389255
0.00014369871
0.00014350057
0.00014329902
0.00014309484
0.00014288933
0.000142684
0.00014248032
0.00014228107
0.00014208758
0.00014190559
0.00014173871
0.00014158829
0.00014146971
0.00014138728
0.00014135294
0.00014138633
0.00014150528
0.00014175161
0.0001421637
0.00014280641
0.00014377664
0.00014521716
0.00014735342
0.0001505203
0.00015527831
0.0001625537
0.0001737127
0.00019104822
0.00021759353
0.00025682748
0.0003120434
0.00038493737
0.00047458906
0.00057767731
0.00068979226
0.00080680481
0.00092552779
0.0010437101
0.001159808
0.001272789
0.0013819885
0.001487001
0.0015876013
0.0016836915
0.0017752625
0.001862372
0.0019451005
0.0020236728
0.0020978207
0.0021697287
0.0022300838
0.0023272448
0.00014752352
0.00014751077
0.00014749696
0.00014748147
0.00014746404
0.00014744465
0.00014742333
0.00014740015
0.0001473752
0.00014734857
0.00014732035
0.00014729058
0.00014725928
0.00014722645
0.00014719206
0.00014715606
0.00014711835
0.00014707884
0.00014703739
0.00014699387
0.00014694813
0.00014689999
0.00014684928
0.00014679583
0.00014673944
0.00014667993
0.00014661709
0.00014655074
0.00014648065
0.00014640662
0.00014632843
0.00014624584
0.00014615862
0.00014606653
0.00014596934
0.0001458668
0.0001457587
0.00014564483
0.00014552499
0.00014539902
0.0001452668
0.00014512821
0.0001449832
0.00014483175
0.00014467389
0.00014450972
0.00014433936
0.00014416302
0.00014398095
0.0001437935
0.00014360114
0.0001434044
0.00014320397
0.00014300076
0.00014279571
0.00014259033
0.00014238567
0.00014218435
0.00014198908
0.00014180095
0.00014162627
0.00014146927
0.00014133636
0.00014123596
0.00014116842
0.00014117442
0.00014124843
0.00014142467
0.00014174054
0.00014224663
0.00014301864
0.00014416454
0.00014584986
0.00014834162
0.00015202631
0.00015756689
0.00016595471
0.00017886132
0.00019869274
0.00022857146
0.00027196572
0.000331649
0.00040839177
0.00050040167
0.0006040136
0.00071504927
0.00082987756
0.00094576115
0.0010607565
0.0011735221
0.0012831599
0.0013890896
0.001490957
0.0015885711
0.0016818357
0.0017708523
0.0018552292
0.0019373123
0.0020064571
0.0021181948
0.00014754608
0.00014753184
0.00014751668
0.00014750011
0.00014748188
0.00014746189
0.00014744014
0.00014741667
0.00014739154
0.00014736481
0.00014733655
0.0001473068
0.00014727559
0.00014724293
0.00014720881
0.00014717319
0.00014713603
0.00014709724
0.00014705673
0.0001470144
0.00014697012
0.00014692375
0.00014687516
0.00014682418
0.00014677066
0.00014671443
0.00014665532
0.00014659314
0.00014652773
0.00014645887
0.00014638638
0.00014631005
0.00014622964
0.00014614495
0.00014605573
0.00014596176
0.00014586281
0.00014575865
0.00014564908
0.0001455339
0.00014541293
0.00014528601
0.00014515302
0.00014501385
0.00014486845
0.00014471679
0.00014455889
0.0001443948
0.00014422464
0.00014404857
0.00014386683
0.00014367973
0.00014348765
0.00014329114
0.00014309077
0.0001428874
0.00014268181
0.00014247532
0.00014226967
0.00014206584
0.00014186673
0.0001416752
0.00014149474
0.00014133034
0.00014118333
0.00014106912
0.00014099152
0.00014096307
0.00014100212
0.00014113047
0.00014137906
0.00014179033
0.00014242419
0.00014337243
0.00014476065
0.00014679733
0.00014977923
0.0001542057
0.00016084028
0.00017093079
0.00018637916
0.00020984173
0.0002445999
0.00029386461
0.00035954606
0.0004412535
0.00053633556
0.00064094109
0.00075125386
0.00086416757
0.00097738368
0.0010892712
0.0011987078
0.0013049461
0.0014074891
0.0015061538
0.0016003015
0.0016923655
0.0017702434
0.0018968307
0.00014757079
0.00014755537
0.00014753914
0.00014752169
0.00014750278
0.00014748231
0.00014746023
0.00014743655
0.0001474113
0.00014738454
0.00014735629
0.00014732661
0.00014729551
0.00014726301
0.0001472291
0.00014719378
0.00014715699
0.00014711871
0.00014707884
0.00014703733
0.00014699406
0.00014694894
0.00014690184
0.00014685264
0.00014680121
0.00014674741
0.00014669108
0.00014663207
0.00014657022
0.00014650536
0.00014643731
0.00014636588
0.00014629087
0.00014621207
0.00014612926
0.00014604223
0.00014595074
0.00014585458
0.00014575353
0.00014564738
0.00014553593
0.00014541898
0.00014529637
0.00014516794
0.00014503358
0.00014489318
0.00014474668
0.00014459404
0.00014443526
0.00014427039
0.00014409952
0.00014392279
0.00014374041
0.00014355267
0.00014335991
0.00014316264
0.00014296136
0.00014275681
0.00014255004
0.00014234187
0.00014213376
0.00014192751
0.0001417252
0.00014152988
0.00014134278
0.00014117069
0.0001410181
0.00014089095
0.00014079764
0.0001407491
0.00014076155
0.00014085406
0.00014105268
0.00014139549
0.00014193223
0.00014273991
0.00014392288
0.0001456454
0.00014815111
0.00015183336
0.00015730579
0.00016554893
0.00017808527
0.00019715455
0.00022572288
0.00026705983
0.00032372875
0.00039643035
0.00048354237
0.00058176555
0.0006873305
0.00079690494
0.0009079062
0.0010184533
0.0011272036
0.0012333636
0.0013358014
0.0014368778
0.0015228651
0.0016639476
0.00014759741
0.00014758106
0.00014756398
0.00014754582
0.00014752638
0.00014750552
0.0001474832
0.00014745938
0.00014743408
0.00014740734
0.00014737917
0.0001473496
0.00014731866
0.00014728635
0.00014725267
0.00014721761
0.00014718116
0.00014714327
0.0001471039
0.00014706298
0.00014702045
0.00014697622
0.00014693021
0.0001468823
0.0001468324
0.00014678038
0.00014672612
0.0001466695
0.00014661036
0.00014654856
0.00014648395
0.00014641635
0.00014634558
0.00014627146
0.00014619378
0.00014611234
0.00014602692
0.00014593732
0.00014584331
0.00014574468
0.00014564121
0.00014553272
0.000145419
0.00014529987
0.00014517516
0.00014504474
0.00014490847
0.00014476625
0.00014461802
0.00014446373
0.00014430337
0.00014413697
0.00014396461
0.00014378642
0.00014360258
0.00014341336
0.00014321908
0.00014302014
0.00014281719
0.00014261079
0.00014240179
0.00014219129
0.00014198056
0.00014177151
0.00014156523
0.00014136495
0.00014117389
0.00014099562
0.00014083473
0.00014069779
0.00014059219
0.00014052803
0.00014051964
0.00014058469
0.00014074627
0.00014103804
0.00014150403
0.00014220875
0.00014324343
0.00014474607
0.00014692415
0.00015010053
0.00015478431
0.00016177791
0.00017234277
0.00018838427
0.00021254582
0.00024797617
0.00029755196
0.00036273399
0.00044279331
0.000535058
0.00063596696
0.0007421013
0.00085065734
0.00095967133
0.0010670586
0.0011747855
0.0012672465
0.0014213644
0.00014762573
0.00014760866
0.0001475909
0.00014757219
0.00014755233
0.00014753118
0.00014750868
0.00014748479
0.00014745951
0.00014743284
0.0001474048
0.00014737541
0.00014734467
0.0001473126
0.00014727918
0.00014724442
0.00014720829
0.00014717077
0.00014713183
0.00014709141
0.00014704947
0.00014700594
0.00014696074
0.00014691381
0.00014686505
0.00014681438
0.00014676167
0.00014670684
0.00014664976
0.00014659031
0.00014652835
0.00014646373
0.00014639629
0.00014632586
0.00014625226
0.00014617531
0.0001460948
0.00014601053
0.0001459223
0.00014582989
0.00014573311
0.00014563173
0.00014552556
0.0001454144
0.00014529805
0.00014517636
0.00014504914
0.00014491627
0.00014477761
0.00014463306
0.00014448254
0.000144326
0.00014416343
0.00014399485
0.00014382032
0.00014363997
0.00014345395
0.00014326249
0.00014306595
0.0001428647
0.00014265924
0.00014245024
0.0001422385
0.00014202519
0.00014181121
0.00014159825
0.0001413884
0.00014118397
0.00014098773
0.00014080348
0.0001406356
0.00014049033
0.00014037443
0.00014029748
0.00014027274
0.00014031641
0.00014044983
0.00014070265
0.00014111498
0.00014174403
0.00014267161
0.00014401854
0.00014596632
0.00014879208
0.00015292963
0.00015906381
0.00016827494
0.00018221705
0.00020325199
0.00023434621
0.0002784833
0.00033761002
0.00041169816
0.00049867778
0.00059525391
0.00069816242
0.00080384302
0.0009133617
0.001008856
0.0011725994
0.00014765555
0.00014763793
0.00014761966
0.00014760052
0.00014758033
0.00014755898
0.00014753637
0.00014751247
0.00014748725
0.00014746071
0.00014743285
0.00014740368
0.00014737319
0.0001473414
0.00014730829
0.00014727386
0.00014723809
0.00014720096
0.00014716244
0.0001471225
0.00014708108
0.00014703814
0.00014699363
0.00014694748
0.00014689963
0.00014684999
0.0001467985
0.00014674505
0.00014668956
0.00014663191
0.000146572
0.0001465097
0.00014644486
0.00014637734
0.00014630698
0.00014623361
0.00014615705
0.00014607711
0.0001459936
0.00014590632
0.00014581507
0.00014571964
0.00014561984
0.00014551545
0.00014540629
0.00014529215
0.00014517286
0.00014504824
0.00014491813
0.00014478239
0.00014464089
0.00014449353
0.00014434022
0.00014418091
0.00014401557
0.00014384422
0.00014366692
0.00014348377
0.00014329492
0.00014310061
0.00014290112
0.00014269685
0.00014248828
0.00014227614
0.00014206109
0.0001418441
0.00014162649
0.00014140978