/*--------------------------------*- C++ -*----------------------------------*\
  =========                 |
  \\      /  F ield         | OpenFOAM: The Open Source CFD Toolbox
   \\    /   O peration     | Website:  https://openfoam.org
    \\  /    A nd           | Version:  12
     \\/     M anipulation  |
\*---------------------------------------------------------------------------*/
FoamFile
{
    format      ascii;
    class       volScalarField;
    location    "1500";
    object      p;
}
// * * * * * * * * * * * * * * * * * * * * * * * * * * * * * * * * * * * * * //

dimensions      [0 2 -2 0 0 0 0];

internalField   nonuniform List<scalar> 
7480
(
0.0087639014
0.0080249802
0.0069035763
0.0063276408
0.0060159073
0.0057321673
0.005464589
0.0052362636
0.0050375824
0.0048583188
0.0046918566
0.0045360337
0.0043911823
0.0042520763
0.0041189747
0.00399032
0.0038659554
0.0037485648
0.0036392028
0.003537334
0.0034436796
0.0033590471
0.0032842117
0.0032199705
0.0031667029
0.0031233444
0.0030897764
0.0030643395
0.0030426962
0.003021733
0.0029989124
0.0029731364
0.0029443254
0.0029143501
0.0028840837
0.0028525128
0.0028196354
0.0027852699
0.0027495856
0.002713589
0.0026774652
0.0026407507
0.0026036659
0.0025664847
0.0025297306
0.00249323
0.002456491
0.0024195266
0.0023828831
0.0023465879
0.0023100687
0.0022733457
0.0022367889
0.0022003965
0.0021637404
0.0021268782
0.0020900454
0.0020531621
0.0020159299
0.0019785374
0.0019410249
0.0019031748
0.0018650268
0.0018266539
0.0017879249
0.0017488175
0.0017093988
0.0016695554
0.0016292868
0.001588619
0.0015474555
0.0015058191
0.0014636809
0.0014210187
0.0013778271
0.0013340565
0.0012897117
0.0012447693
0.0011992163
0.0011530421
0.0011062371
0.0010587955
0.0010107157
0.00096200134
0.00091266494
0.0008627261
0.00081222536
0.00076120517
0.00070977769
0.00065799137
0.00060620549
0.0005542578
0.0005036189
0.00045238979
0.00040782235
0.00035703456
0.00033856954
0.00025720553
0.00055870753
-0.00046403098
0.008284255
0.0076209177
0.0067889042
0.0063270982
0.0060666126
0.0058149094
0.0055651528
0.0053423471
0.0051453433
0.0049626419
0.0047908135
0.0046287161
0.0044777014
0.0043327993
0.0041944881
0.0040617251
0.0039340745
0.0038125433
0.0036984526
0.0035924616
0.0034949552
0.0034064324
0.0033276036
0.0032591329
0.003201055
0.003152119
0.0031125706
0.0030814984
0.0030550776
0.0030305132
0.0030055223
0.0029789125
0.0029502125
0.0029208915
0.0028913753
0.0028602822
0.0028275478
0.0027930906
0.0027572202
0.0027210364
0.0026847341
0.0026478405
0.0026105713
0.0025731868
0.0025362134
0.0024994836
0.0024625139
0.0024253221
0.0023884547
0.0023519364
0.002315195
0.0022782558
0.0022414909
0.0022048971
0.0021680452
0.0021309947
0.0020939817
0.0020569253
0.0020195266
0.0019819758
0.0019443115
0.0019063158
0.0018680291
0.0018295238
0.0017906681
0.0017514397
0.0017119057
0.0016719519
0.001631578
0.0015908099
0.0015495505
0.0015078228
0.0014655973
0.0014228519
0.001379581
0.0013357346
0.0012913176
0.0012463063
0.0012006875
0.0011544505
0.0011075857
0.0010600869
0.0010119525
0.00096318613
0.00091380003
0.00086381373
0.00081326772
0.00076220432
0.00071073562
0.00065890998
0.00060708672
0.00055510331
0.00050443095
0.00045316944
0.00040857359
0.00035775706
0.00033925341
0.00025799353
0.00055954802
-0.00046337306
0.0080006772
0.007529163
0.0068526152
0.0063760026
0.0060731028
0.0057944614
0.005527267
0.0052921562
0.0050876624
0.00490142
0.0047293191
0.0045698022
0.0044213728
0.0042814404
0.0041486226
0.0040220513
0.0039011793
0.0037862934
0.0036788691
0.0035800188
0.0034899449
0.0034089613
0.0033375538
0.0032761313
0.0032246293
0.00318195
0.0031464803
0.0031164931
0.0030895
0.0030627582
0.0030343647
0.0030035531
0.002970102
0.0029360763
0.0029026452
0.0028687566
0.0028342833
0.002798991
0.0027629451
0.0027269799
0.0026909652
0.0026542
0.0026168713
0.0025793051
0.0025421105
0.002505154
0.0024679675
0.0024305752
0.00239352
0.0023568161
0.0023198905
0.0022827768
0.002245847
0.0022090938
0.0021720842
0.0021348812
0.0020977218
0.0020605232
0.0020229853
0.0019853013
0.0019475084
0.0019093879
0.0018709814
0.001832361
0.0017933939
0.0017540585
0.0017144215
0.0016743684
0.0016338992
0.0015930394
0.0015516917
0.0015098793
0.0014675725
0.001424749
0.0013814031
0.0013374846
0.0012929986
0.0012479209
0.0012022385
0.0011559405
0.0011090171
0.0010614622
0.001013274
0.00096445592
0.00091502029
0.00086498651
0.00081439497
0.00076328792
0.00071177743
0.00065991172
0.00060805023
0.00055603006
0.00050532319
0.00045402772
0.00040940263
0.00035855281
0.0003400313
0.00025885461
0.0005604354
-0.00046272426
0.0077545392
0.0073643907
0.0067712619
0.0063188153
0.0060245752
0.0057654322
0.0055179915
0.005298954
0.0051062606
0.0049289048
0.0047628654
0.00460765
0.0044599957
0.0043208576
0.0041874685
0.0040594812
0.003936554
0.0038189942
0.0037083461
0.0036057282
0.0035113977
0.0034257878
0.0033495424
0.0032833572
0.0032276537
0.003182043
0.0031443924
0.003113167
0.0030869773
0.0030627703
0.0030381625
0.0030118575
0.0029834456
0.0029530591
0.0029209392
0.0028871383
0.002851556
0.0028141586
0.0027753753
0.0027367021
0.0026985434
0.0026603822
0.0026223038
0.0025844897
0.0025473633
0.0025105405
0.0024733862
0.002435909
0.002398711
0.0023618364
0.002324728
0.0022874417
0.0022503481
0.0022134322
0.0021762594
0.002138901
0.0021015943
0.002064253
0.0020265743
0.0019887556
0.0019508329
0.0019125861
0.0018740582
0.001835321
0.0017962405
0.0017567957
0.0017170535
0.0016768983
0.0016363309
0.0015953765
0.0015539374
0.0015120372
0.0014696457
0.0014267408
0.0013833165
0.0013393227
0.0012947643
0.001249617
0.0012038678
0.0011575055
0.0011105204
0.0010629063
0.0010146611
0.00096578854
0.00091630053
0.0008662165
0.00081557675
0.00076442348
0.00071286867
0.00066096045
0.00060905832
0.00055699905
0.00050625523
0.00045492351
0.00041026609
0.00035937996
0.00034084195
0.00025961085
0.00056131131
-0.00046214167
0.0075293899
0.0071930433
0.0066892214
0.0062867569
0.0060070087
0.0057578005
0.0055156236
0.0052979388
0.005103583
0.0049240421
0.0047558152
0.004598466
0.0044496543
0.0043099287
0.0041765842
0.0040492294
0.0039275302
0.0038116974
0.0037030012
0.0036023914
0.0035101624
0.003426739
0.0033526375
0.0032883606
0.0032341312
0.0031893291
0.0031517296
0.0031198373
0.0030921915
0.0030658166
0.0030386895
0.0030101234
0.0029804984
0.0029494577
0.0029174512
0.0028853389
0.0028525441
0.0028186755
0.0027836088
0.0027474108
0.002710183
0.0026720454
0.0026330766
0.0025936974
0.0025548932
0.0025166955
0.0024786294
0.0024406455
0.0024032894
0.0023664356
0.0023293363
0.0022919999
0.0022548158
0.0022177824
0.0021804758
0.0021429869
0.0021055528
0.0020680821
0.0020302721
0.0019923282
0.0019542839
0.0019159169
0.0018772729
0.0018384232
0.0017992324
0.0017596807
0.0017198351
0.0016795788
0.0016389136
0.0015978645
0.0015563332
0.0015143439
0.0014718661
0.0014288778
0.0013853729
0.0013413011
0.0012966674
0.0012514475
0.0012056282
0.0011591984
0.0011121482
0.0010644714
0.0010161659
0.00096723516
0.00091769124
0.00086755341
0.00081686194
0.00076565893
0.00071405632
0.00066210216
0.00061015594
0.00055805423
0.00050726987
0.00045589864
0.0004112045
0.00036027857
0.00034171666
0.00026039406
0.00056221704
-0.00046145459
0.007329248
0.0070418658
0.0066134975
0.0062507218
0.005979364
0.0057357196
0.0055006836
0.005287938
0.00509691
0.0049204802
0.0047552325
0.004600544
0.0044543441
0.0043165275
0.004184936
0.0040590862
0.0039387211
0.0038240339
0.0037161167
0.0036158641
0.0035236702
0.0034400338
0.0033654292
0.0033002799
0.0032447613
0.0031983387
0.0031591481
0.0031257409
0.003096701
0.0030693471
0.0030417644
0.0030132143
0.0029836222
0.0029523684
0.0029198842
0.0028868551
0.0028527536
0.0028176718
0.0027819062
0.0027453239
0.0027084695
0.0026718823
0.0026353108
0.0025986193
0.0025616798
0.0025243085
0.0024864346
0.002447926
0.0024096204
0.0023718306
0.002333998
0.0022961682
0.0022587581
0.0022216719
0.0021843413
0.0021468098
0.0021093125
0.0020717602
0.0020338562
0.0019958205
0.0019576814
0.0019192152
0.0018804729
0.0018415267
0.0018022396
0.001762593
0.0017226547
0.0016823066
0.0016415517
0.001600415
0.0015587976
0.0015167245
0.0014741647
0.0014310964
0.0013875139
0.0013433663
0.001298659
0.0012533676
0.0012074789
0.0011609819
0.0011138666
0.0010661267
0.0010177602
0.00096877042
0.00091916947
0.00086897656
0.0008182319
0.00076697756
0.00071532544
0.00066332352
0.00061133124
0.00055918507
0.00050835782
0.00045694494
0.00041221061
0.00036124219
0.0003426503
0.0002612367
0.0005631308
-0.00046061214
0.0071491914
0.0069053735
0.0065395513
0.0062102968
0.0059484698
0.005712058
0.0054853912
0.0052783297
0.005090945
0.0049172879
0.004754338
0.0046013591
0.0044565684
0.0043196524
0.0041889464
0.0040639117
0.0039443645
0.0038304944
0.0037232568
0.0036235128
0.0035316912
0.003448258
0.0033736572
0.0033082861
0.0032522542
0.003205115
0.0031652203
0.0031310379
0.00310114
0.0030730746
0.0030449612
0.0030159362
0.0029858415
0.0029542207
0.0029214967
0.0028882774
0.0028541639
0.0028192271
0.0027835277
0.0027468472
0.00270971
0.0026725582
0.0026353268
0.0025981272
0.0025607733
0.0025235791
0.0024868089
0.0024501868
0.0024135299
0.0023766513
0.0023393706
0.0023015319
0.0022636898
0.0022260629
0.0021882414
0.002150346
0.0021126625
0.0020750445
0.0020371041
0.0019990323
0.001960845
0.0019223182
0.0018835125
0.0018445003
0.0018051417
0.0017654214
0.0017254092
0.0016849855
0.0016441553
0.0016029439
0.0015612516
0.0015191047
0.0014764718
0.0014333316
0.0013896782
0.0013454609
0.0013006853
0.0012553269
0.0012093727
0.0011628116
0.0011156339
0.001067833
0.0010194072
0.00097035981
0.00092070281
0.00087045547
0.000819658
0.00076835244
0.00071665067
0.00066460064
0.0006125617
0.00056037036
0.00050949901
0.00045804347
0.00041326637
0.00036225364
0.0003436273
0.00026211878
0.00056401609
-0.00045960304
0.0069846951
0.0067776768
0.0064652679
0.0061674485
0.0059171631
0.0056887739
0.005470063
0.0052683672
0.0050843683
0.004913292
0.0047524555
0.0046011137
0.0044577557
0.0043219477
0.0041923324
0.0040683436
0.0039498331
0.0038369823
0.003730624
0.003631565
0.003540244
0.0034571056
0.0033825802
0.0033170335
0.0032605483
0.0032126906
0.0031719413
0.0031368
0.0031058623
0.0030768908
0.0030480746
0.0030184984
0.0029879881
0.0029561408
0.0029232783
0.0028899309
0.0028557498
0.0028207364
0.00278493
0.0027482007
0.0027110387
0.0026738573
0.0026366306
0.0025993779
0.0025619139
0.0025245419
0.0024874375
0.0024505281
0.0024134257
0.0023762656
0.0023394897
0.0023028623
0.002266202
0.0022293297
0.0021920507
0.0021543014
0.0021164504
0.0020785314
0.0020402839
0.0020019849
0.0019636813
0.0019251006
0.0018862646
0.0018472226
0.0018078265
0.0017680642
0.0017280072
0.0016875331
0.0016466493
0.0016053822
0.0015636317
0.0015214259
0.001478733
0.0014355325
0.0013918188
0.001347541
0.0013027054
0.0012572872
0.001211274
0.0011646546
0.0011174192
0.0010695618
0.0010210804
0.00097197844
0.00092226804
0.00087196849
0.00082112001
0.00076976468
0.00071801435
0.00066591702
0.00061383187
0.00056159561
0.00051067983
0.00045918141
0.00041435959
0.00036330141
0.00034463656
0.00026302499
0.00056484346
-0.00045840681
0.0068334582
0.0066569709
0.0063900978
0.0061219147
0.0058845884
0.0056648528
0.0054540178
0.0052577733
0.0050772978
0.0049089108
0.0047502788
0.0046006846
0.004458848
0.004324258
0.0041957867
0.0040728844
0.0039554271
0.0038435913
0.003738106
0.003639721
0.0035488824
0.0034660229
0.0033915567
0.0033258171
0.003268862
0.0032202643
0.0031786374
0.0031425412
0.0031106077
0.0030807538
0.0030512377
0.0030211415
0.0029902439
0.0029581477
0.0029250975
0.0028915654
0.0028572403
0.0028221027
0.0027862126
0.002749475
0.0027123204
0.0026751401
0.0026379122
0.0026006381
0.0025631801
0.0025257942
0.0024886387
0.00245162
0.0024143934
0.0023771543
0.0023402373
0.0023034545
0.0022664408
0.00222928
0.002192321
0.0021553925
0.0021183401
0.0020809829
0.002043159
0.0020050058
0.0019666429
0.0019278866
0.0018888649
0.001849697
0.0018102358
0.0017704422
0.0017303638
0.0016898657
0.0016489556
0.0016076588
0.0015658736
0.0015236296
0.0014808951
0.0014376504
0.0013938908
0.0013495652
0.001304681
0.0012592134
0.0012131502
0.0011664806
0.0011191949
0.0010712873
0.001022756
0.00097360447
0.00092384502
0.00087349702
0.00082260078
0.00077119845
0.00071940187
0.00066725916
0.00061512927
0.00056284927
0.00051188958
0.00046034886
0.00041548096
0.00036437678
0.00034566961
0.00026394642
0.00056558593
-0.00045699466
0.006693941
0.006542561
0.0063140933
0.0060733368
0.0058498932
0.0056395345
0.0054368315
0.0052463606
0.0050697102
0.0049042114
0.0047479123
0.0046001611
0.0044598909
0.004326566
0.0041992522
0.0040774407
0.0039610277
0.0038501873
0.0037455612
0.0036478446
0.0035574863
0.0034749075
0.003400503
0.0033345765
0.0032771634
0.0032278482
0.0031853675
0.0031483417
0.0031154367
0.0030847087
0.0030544927
0.0030238699
0.002992566
0.0029601976
0.0029269428
0.0028932133
0.0028587414
0.0028234951
0.0027875352
0.0027507807
0.0027136142
0.0026764056
0.0026391399
0.0026018266
0.0025643563
0.0025269544
0.0024897757
0.0024527306
0.0024155155
0.0023782873
0.0023413213
0.0023044206
0.0022672876
0.0022300718
0.0021930464
0.0021559968
0.0021186582
0.0020811446
0.0020436737
0.0020060795
0.0019682156
0.0019299071
0.0018911822
0.001852123
0.0018126119
0.0017727056
0.0017325262
0.0016919665
0.0016510273
0.0016097143
0.0015679141
0.0015256545
0.0014829008
0.0014396331
0.0013958464
0.0013514901
0.0013065723
0.0012610686
0.0012149675
0.0011682585
0.0011209322
0.0010729831
0.0010244095
0.00097521538
0.00092541301
0.00087502199
0.00082408276
0.00077263759
0.00072079839
0.0006686134
0.00061644133
0.00056411979
0.00051311757
0.00046153597
0.00041662125
0.0003654712
0.00034671821
0.0002648748
0.00056621593
-0.00045533398
0.0065646386
0.0064339223
0.006237645
0.0060219111
0.0058128222
0.0056124366
0.0054181508
0.005233811
0.0050613391
0.0048989828
0.0047451919
0.0045994151
0.0044607918
0.0043288072
0.0042026948
0.0040820014
0.0039666432
0.0038567947
0.0037530257
0.0036559801
0.0035661052
0.0034838099
0.0034094699
0.0033433624
0.0032855039
0.0032354924
0.0031921739
0.003154231
0.0031203662
0.0030887663
0.0030578443
0.0030266817
0.0029949582
0.0029623032
0.0029288349
0.002894906
0.0028602858
0.0028249294
0.0027888925
0.0027521085
0.0027149206
0.0026776763
0.0026403735
0.0026030257
0.0025655386
0.0025281156
0.0024909032
0.0024538216
0.0024165872
0.0023793338
0.0023423279
0.002305394
0.0022682721
0.0022310675
0.0021939904
0.0021568354
0.0021194075
0.0020818626
0.002044367
0.0020065985
0.0019684999
0.0019302633
0.0018918716
0.0018531987
0.001814063
0.0017744849
0.0017344967
0.0016939719
0.0016529825
0.0016116031
0.0015697553
0.0015274729
0.001484708
0.0014414325
0.0013976375
0.0013532697
0.0013083368
0.001262814
0.0012166902
0.0011699554
0.0011226008
0.0010746211
0.0010260153
0.00097678739
0.0009269501
0.00087652322
0.00082554736
0.00077406503
0.00072218817
0.00066996528
0.00061775476
0.00056539493
0.00051435253
0.00046273233
0.00041777077
0.00036657561
0.00034777378
0.00026580095
0.00056670525
-0.00045338849
0.0064442415
0.0063306145
0.0061612482
0.0059681075
0.0057734334
0.005583391
0.0053977264
0.0052198393
0.005051906
0.0048929798
0.0047419157
0.0045982887
0.0044614374
0.0043309025
0.004206066
0.0040865405
0.0039722657
0.0038634194
0.0037605136
0.0036641456
0.0035747582
0.0034927487
0.0034184748
0.0033521901
0.0032938962
0.0032432053
0.0031990615
0.0031602118
0.0031253997
0.0030929322
0.0030612992
0.0030295861
0.0029974336
0.0029644791
0.002930787
0.0028966538
0.0028618788
0.0028264065
0.0027902867
0.0027534672
0.0027162549
0.0026789745
0.0026416347
0.0026042505
0.0025667419
0.0025292924
0.0024920388
0.0024549108
0.0024176499
0.0023803738
0.0023433314
0.0023063658
0.0022692302
0.0022319994
0.0021948767
0.0021576928
0.0021202759
0.0020827333
0.0020451695
0.0020073123
0.0019691748
0.0019309358
0.0018924488
0.0018535819
0.0018144131
0.0017750152
0.0017352936
0.0016950773
0.0016543949
0.0016132274
0.0015714566
0.0015291628
0.0014863595
0.0014430544
0.0013992454
0.0013548722
0.0013099372
0.0012644111
0.0012182813
0.0011715368
0.0011241687
0.001076172
0.0010275461
0.00097829545
0.00092843315
0.00087797933
0.00082697489
0.00077546259
0.0007235545
0.00067129942
0.0006190554
0.00056666166
0.00051558246
0.00046392691
0.00041891919
0.00036768039
0.0003488272
0.00026671479
0.00056701277
-0.00045111787
0.0063316543
0.0062322381
0.0060853523
0.0059124465
0.0057319253
0.005552389
0.0053754543
0.0052042761
0.0050412112
0.0048860024
0.0047378988
0.0045966198
0.0044616932
0.0043327398
0.004209276
0.0040909872
0.003977841
0.003870022
0.0037679963
0.0036723202
0.0035834304
0.0035017135
0.0034275108
0.0033610551
0.0033023371
0.0032509841
0.0032060292
0.0031662854
0.0031305398
0.0030972109
0.0030648634
0.0030325911
0.0030000005
0.0029667333
0.0029328062
0.0028984625
0.0028635259
0.0028279323
0.0027917257
0.0027548655
0.0027176254
0.0026803072
0.0026429285
0.0026055059
0.002567973
0.0025304948
0.0024931987
0.0024560229
0.0024187332
0.002381432
0.0023443473
0.0023073379
0.0022701715
0.0022329137
0.0021957578
0.0021585497
0.0021211219
0.002083554
0.0020459458
0.0020080741
0.0019699491
0.0019316842
0.0018931288
0.0018542134
0.0018150506
0.0017755834
0.0017357035
0.0016954476
0.0016548567
0.0016138663
0.0015723637
0.0015303445
0.0014877356
0.0014445162
0.0014007167
0.0013563252
0.0013113755
0.0012658442
0.001219715
0.0011729722
0.0011256045
0.0010776054
0.0010289734
0.00097971307
0.00092983767
0.00087936771
0.00082834444
0.00077681096
0.00072487954
0.00067259935
0.00062032806
0.000567906
0.00051679444
0.00046510777
0.00042005541
0.00036877517
0.00034986867
0.00026760612
0.00056709834
-0.00044848047
0.0062259497
0.0061384125
0.0060103166
0.0058554197
0.0056885575
0.0055195224
0.00535134
0.0051870527
0.0050291366
0.0048779093
0.0047329941
0.0045942649
0.0044614277
0.0043341993
0.00421222
0.0040952519
0.0039832943
0.0038765416
0.0037754248
0.0036804647
0.0035920909
0.0035106806
0.00343656
0.0033699445
0.0033108172
0.003258822
0.0032130733
0.0031724504
0.0031357867
0.0031016041
0.0030685404
0.0030357011
0.0030026636
0.0029690712
0.0029348981
0.0029003376
0.0028652329
0.0028295132
0.0027932154
0.0027563089
0.0027190367
0.0026816783
0.0026442587
0.0026067963
0.0025692368
0.0025317284
0.002494389
0.0024571652
0.0024198447
0.0023825157
0.0023453865
0.0023083299
0.0022711303
0.0022338446
0.0021966504
0.0021594052
0.0021219486
0.0020843524
0.0020467153
0.0020088303
0.0019706941
0.0019324006
0.0018938188
0.0018549005
0.0018157307
0.0017762207
0.0017362997
0.0016960506
0.0016553846
0.0016142609
0.00157273
0.0015307657
0.0014883009
0.001445317
0.0014017563
0.0013575289
0.0013126538
0.0012671384
0.0012210051
0.0011742592
0.0011268935
0.0010788991
0.0010302718
0.00098101423
0.00093113848
0.00088066463
0.00082963391
0.00077808966
0.0007261443
0.0006738475
0.00062155648
0.00056911288
0.00051797455
0.00046626203
0.00042116742
0.00036984867
0.0003508876
0.00026846282
0.00056692355
-0.00044542711
0.0061263367
0.0060487772
0.0059364124
0.0057974659
0.0056436074
0.005484933
0.0053254507
0.0051681669
0.0050156264
0.0048686133
0.0047270978
0.0045911127
0.0044605307
0.0043351743
0.0042147992
0.0040992451
0.0039885465
0.0038829104
0.0037827416
0.0036885308
0.0036006997
0.0035196172
0.0034455964
0.0033788382
0.0033193211
0.0032667072
0.0032201853
0.0031787011
0.0031411367
0.0031061101
0.0030723303
0.0030389179
0.0030054255
0.0029714962
0.0029370667
0.0029022833
0.0028670042
0.0028311534
0.00279476
0.0027578014
0.0027204927
0.0026830915
0.0026456292
0.0026081256
0.002570537
0.0025329967
0.0024956133
0.0024583407
0.0024209874
0.0023836286
0.0023464539
0.0023093497
0.0022721159
0.0022348001
0.0021975642
0.0021602779
0.0021227898
0.0020851639
0.002047492
0.0020095795
0.001971417
0.0019330955
0.0018944966
0.0018555686
0.0018163827
0.0017768554
0.001736924
0.0016966623
0.0016559723
0.0016148298
0.0015732836
0.0015312348
0.0014886815
0.0014456657
0.0014021456
0.0013580701
0.0013134059
0.0012680855
0.0012220809
0.0011753949
0.0011280475
0.0010800576
0.0010314348
0.00098218398
0.00093231574
0.00088184826
0.00083082132
0.00077927752
0.00072732887
0.00067502529
0.00062272337
0.00057026626
0.00051910786
0.0004673758
0.00042224221
0.0003708886
0.00035187252
0.00026927109
0.00056644875
-0.00044190206
0.0060321385
0.0059629962
0.0058638358
0.0057389648
0.0055973485
0.0054487839
0.0052978858
0.0051476561
0.0050006667
0.0048580678
0.0047201428
0.0045870838
0.0044589179
0.0043355782
0.0042169287
0.0041028862
0.0039935233
0.0038890617
0.0037898877
0.0036964663
0.0036092118
0.0035284853
0.0034545884
0.0033877103
0.003327828
0.003274623
0.0032273525
0.0031850283
0.0031465828
0.0031107243
0.0030762308
0.0030422408
0.0030082865
0.0029740101
0.0029393143
0.0029043019
0.0028688425
0.0028328555
0.0027963622
0.0027593458
0.0027219963
0.0026845498
0.0026470427
0.0026094963
0.0025718764
0.0025343023
0.0024968739
0.0024595519
0.002422164
0.0023847736
0.0023475528
0.0023104001
0.0022731305
0.0022357826
0.0021985038
0.0021611754
0.0021236549
0.0020859973
0.0020482868
0.0020103425
0.0019721514
0.0019337989
0.001895174
0.0018562232
0.0018170122
0.0017774668
0.0017375249
0.0016972489
0.0016565543
0.0016154063
0.0015738407
0.0015317753
0.001489224
0.0014461619
0.0014025505
0.0013584136
0.0013137324
0.0012684809
0.001222626
0.0011761216
0.0011289291
0.0010810366
0.0010324595
0.00098322657
0.00093336777
0.00088290925
0.00083189171
0.00078035656
0.00072841427
0.00067611393
0.0006238108
0.00057134923
0.00052017856
0.00046843427
0.00042326591
0.00037188173
0.00035281109
0.00027001682
0.00056563085
-0.00043784921
0.0059427745
0.0058807603
0.0057927199
0.0056802388
0.0055500408
0.0054112464
0.0052687612
0.005125581
0.0049842697
0.004846253
0.0047120886
0.0045821232
0.0044565267
0.0043353433
0.0042185391
0.004106107
0.0039981594
0.0038949347
0.003796807
0.0037042206
0.0036175817
0.0035372449
0.0034635018
0.0033965322
0.0033363142
0.0032825496
0.0032345591
0.0031914194
0.0031521154
0.0031154395
0.003080237
0.0030456668
0.0030112453
0.0029766124
0.0029416413
0.0029063943
0.0028707491
0.0028346211
0.0027980235
0.0027609439
0.0027235492
0.0026860548
0.0026485011
0.0026109104
0.0025732568
0.0025356472
0.002498173
0.0024608009
0.0024233765
0.0023859529
0.0023486852
0.0023114833
0.0022741762
0.0022367946
0.0021994721
0.0021621007
0.0021245463
0.0020868552
0.0020491047
0.0020111273
0.0019729066
0.0019345208
0.0018958657
0.0018568882
0.0018176492
0.0017780792
0.0017381168
0.001697819
0.0016571084
0.0016159482
0.0015743708
0.0015323048
0.0014897537
0.0014466784
0.0014030548
0.0013588939
0.0013141547
0.0012688412
0.0012229441
0.0011764516
0.0011293458
0.0010815973
0.0010331734
0.0009840592
0.00093427031
0.00088384539
0.00083284445
0.00078132103
0.00072938937
0.00067709877
0.00062480245
0.00057234515
0.00052117045
0.00046942196
0.00042422387
0.00037281395
0.00035369016
0.00027068442
0.00056441256
-0.00043320804
0.0058577445
0.0058017875
0.005723148
0.0056215565
0.0055019263
0.0053724934
0.0052382016
0.0051020168
0.004966465
0.0048331668
0.004702912
0.0045761932
0.0044533105
0.0043344167
0.0042195747
0.0041088507
0.0040023989
0.003900476
0.0038034493
0.0037117464
0.0036257662
0.003545857
0.0034723022
0.0034052741
0.0033447541
0.0032904653
0.0032417872
0.0031978602
0.0031577226
0.0031202465
0.0030843422
0.0030491912
0.0030142984
0.0029793012
0.0029440467
0.0029085599
0.0028727238
0.0028364504
0.0027997444
0.0027625965
0.0027251525
0.0026876077
0.0026500056
0.002612369
0.0025746796
0.0025370327
0.0024995119
0.0024620891
0.0024246265
0.002387168
0.0023498528
0.0023126009
0.0022752547
0.002237838
0.002200471
0.0021630556
0.0021254656
0.0020877398
0.0020499483
0.0020119367
0.001973685
0.0019352643
0.0018965776
0.0018575723
0.0018183035
0.0017787059
0.0017387192
0.0016983959
0.0016576626
0.0016164828
0.0015748873
0.001532808
0.0014902436
0.0014471609
0.0014035379
0.0013593746
0.0013146291
0.001269299
0.0012233665
0.0011768241
0.0011296703
0.001081903
0.0010335183
0.00098450566
0.0009348508
0.00088454954
0.00083363452
0.00078215893
0.00073025159
0.00067797568
0.00062568992
0.00057324201
0.00052206952
0.00047032401
0.00042510138
0.00037367056
0.00035449609
0.00027125678
0.00056273864
-0.00042791471
0.0057766156
0.0057258224
0.0056551643
0.0055631383
0.0054532263
0.0053326955
0.0052063361
0.0050770484
0.0049472942
0.0048188193
0.0046926019
0.0045692674
0.0044492335
0.0043327561
0.0042199892
0.0041110697
0.0040061939
0.0039056391
0.00380977
0.0037190014
0.0036337254
0.0035542848
0.0034809562
0.0034139064
0.0033531219
0.0032983475
0.0032490176
0.0032043348
0.0031633914
0.0031251347
0.003088538
0.0030528078
0.0030174413
0.0029820733
0.0029465281
0.002910797
0.0028747654
0.0028383424
0.0028015243
0.0027643034
0.002726806
0.0026892086
0.0026515563
0.0026138726
0.0025761453
0.0025384595
0.0025008913
0.0024634173
0.002425915
0.0023884199
0.0023510565
0.002313754
0.0022763674
0.0022389141
0.0022015017
0.0021640414
0.0021264145
0.0020886527
0.0020508196
0.0020127724
0.0019744883
0.0019360316
0.0018973121
0.0018582778
0.0018189779
0.0017793513
0.0017393388
0.0016989882
0.0016582301
0.0016170278
0.0015754097
0.0015333101
0.0014907266
0.001447629
0.0014039945
0.0013598219
0.0013150727
0.0012697408
0.0012238056
0.0011772549
0.0011300794
0.0010822751
0.0010338468
0.00098480328
0.00093515768
0.00088492146
0.00083411464
0.00078275567
0.00073094083
0.0006787226
0.00062646692
0.00057403572
0.00052286897
0.00047113029
0.00042588618
0.00037443769
0.00035521544
0.00027171576
0.00056055467
-0.00042190475
0.0056990113
0.0056526343
0.0055887831
0.0055051615
0.005404141
0.0052920183
0.0051732959
0.0050507678
0.0049268086
0.0048032304
0.0046811563
0.0045613281
0.0044442676
0.0043303263
0.0042197432
0.0041127226
0.0040095029
0.0039103831
0.0038157293
0.0037259471
0.0036414226
0.0035624942
0.0034894325
0.003422401
0.0033613923
0.0033061737
0.0032562307
0.0032108264
0.0031691074
0.0031300923
0.0030928152
0.0030565094
0.0030206682
0.0029849244
0.0029490824
0.0029131029
0.0028768719
0.0028402955
0.0028033618
0.0027660635
0.0027285091
0.0026908569
0.0026531528
0.0026154208
0.0025776539
0.0025399277
0.0025023115
0.0024647859
0.0024272424
0.0023897093
0.0023522971
0.0023149434
0.0022775152
0.0022400238
0.0022025654
0.0021650592
0.0021273943
0.0020895953
0.0020517196
0.0020136356
0.001975318
0.0019368244
0.001898071
0.0018590064
0.0018196744
0.0017800175
0.0017399781
0.001699599
0.0016588146
0.0016175884
0.0015759458
0.0015338238
0.0014912189
0.0014481018
0.0014044494
0.0013602604
0.0013154984
0.0012701567
0.0012242156
0.001177662
0.0011304847
0.0010826763
0.0010342352
0.00098516547
0.00093548354
0.00088521402
0.00083439965
0.00078307859
0.00073134644
0.00067923113
0.00062706582
0.00057469626
0.00052355849
0.00047183568
0.00042657235
0.00037510584
0.00035583758
0.00027204372
0.00055780846
-0.00041511697
0.0056246023
0.0055820155
0.0055239965
0.0054477662
0.005354848
0.0052506201
0.0051392116
0.0050232717
0.0049050675
0.0047864283
0.0046685807
0.0045523641
0.0044383903
0.0043270973
0.0042188022
0.0041137723
0.004012288
0.0039146706
0.0038212908
0.0037325483
0.0036488243
0.0035704532
0.0034977014
0.0034307305
0.0033695406
0.0033139217
0.0032634071
0.0032173182
0.0031748561
0.0031351068
0.0030971635
0.0030602879
0.0030239728
0.0029878494
0.0029517057
0.0029154743
0.0028790405
0.0028423073
0.0028052549
0.0027678751
0.0027302603
0.0026925513
0.0026547943
0.0026170129
0.0025792048
0.002541437
0.0025037722
0.0024661948
0.0024286089
0.0023910364
0.0023535749
0.0023161694
0.0022786984
0.0022411678
0.0022036626
0.0021661098
0.0021284055
0.0020905683
0.0020526493
0.0020145275
0.0019761751
0.0019376438
0.0018988555
0.0018597595
0.0018203943
0.0017807061
0.0017406387
0.00170023
0.0016594183
0.0016181669
0.0015764985
0.001534353
0.0014917253
0.0014485867
0.0014049142
0.0013607059
0.0013159264
0.0012705688
0.0012246142
0.0011780498
0.0011308652
0.0010830529
0.0010346097
0.00098553735
0.00093584745
0.00088555964
0.00083471624
0.00078336352
0.00073161492
0.00067951843
0.00062741291
0.00057512928
0.00052406974
0.00047240522
0.00042714635
0.00037566791
0.00035635722
0.00027222688
0.00055445805
-0.00040750067
0.0055530998
0.0055137788
0.0054607806
0.0053910606
0.0053055033
0.0052086505
0.005104212
0.0049946601
0.0048821365
0.0047684484
0.0046548876
0.0045423705
0.0044315845
0.0043230432
0.0042171348
0.0041141849
0.004014514
0.0039184667
0.0038264205
0.0037387719
0.0036558985
0.0035781318
0.0035057349
0.003438869
0.003377543
0.0033215695
0.0032705271
0.003223793
0.0031806224
0.0031401656
0.0031015726
0.0030641348
0.0030273481
0.0029908431
0.0029543935
0.0029179076
0.0028812679
0.002844375
0.002807201
0.0027697361
0.0027320577
0.0026942903
0.0026564792
0.0026186476
0.0025807969
0.0025429865
0.0025052728
0.0024676435
0.002430014
0.0023924009
0.0023548898
0.0023174322
0.0022799172
0.0022423462
0.0022047937
0.0021671936
0.0021294488
0.0020915724
0.0020536093
0.0020154486
0.0019770606
0.0019384906
0.0018996665
0.001860538
0.0018211388
0.0017814183
0.0017413218
0.0017008826
0.0016600426
0.001618765
0.0015770698
0.0015348997
0.0014922478
0.0014490866
0.0014053928
0.0013611637
0.0013163649
0.0012709889
0.0012250172
0.0011784373
0.0011312391
0.0010834155
0.0010349638
0.0009858863
0.00093619362
0.00088590345
0.00083505439
0.00078368819
0.00073191593
0.00067979013
0.00062766262
0.00057538361
0.00052436023
0.00047276136
0.00042754428
0.00037608642
0.00035675951
0.00027224853
0.00055048969
-0.00039902906
0.0054842497
0.0054477553
0.0053991003
0.0053351258
0.0052562419
0.0051662484
0.0050684225
0.0049650345
0.0048580868
0.0047493332
0.0046400963
0.0045313483
0.0044238375
0.0043181422
0.0042147128
0.0041139285
0.0040161478
0.003921738
0.0038310855
0.0037445859
0.0036626146
0.0035855006
0.0035135054
0.0034467911
0.0033853761
0.0033290959
0.0032775714
0.0032302336
0.0031863911
0.0031452554
0.0031060313
0.0030680413
0.003030787
0.0029938996
0.0029571412
0.0029203985
0.0028835507
0.0028464955
0.0028091974
0.0027716441
0.0027338992
0.0026960719
0.0026582056
0.0026203233