/*--------------------------------*- C++ -*----------------------------------*\
  =========                 |
  \\      /  F ield         | OpenFOAM: The Open Source CFD Toolbox
   \\    /   O peration     | Website:  https://openfoam.org
    \\  /    A nd           | Version:  12
     \\/     M anipulation  |
\*---------------------------------------------------------------------------*/
FoamFile
{
    format      ascii;
    class       volScalarField;
    location    "1500";
    object      p;
}
// * * * * * * * * * * * * * * * * * * * * * * * * * * * * * * * * * * * * * //

dimensions      [0 2 -2 0 0 0 0];

internalField   nonuniform List<scalar> 
13056
(
0.0074273637
0.0074682203
0.0075508841
0.0076532234
0.0077765162
0.0079188131
0.008077843
0.0082523357
0.0084417294
0.0086459508
0.008865395
0.0091010039
0.0093543477
0.0096279258
0.009925229
0.010252015
0.010615258
0.011030172
0.011508491
0.012106336
0.012817668
0.013976748
0.015221624
0.021138374
0.017455505
0.011280471
0.0099826499
0.0094860326
0.0089831323
0.0085652217
0.0082481465
0.0080041723
0.007785478
0.0075847194
0.0074053545
0.0072507586
0.0071140439
0.0069811652
0.0068581128
0.0067486445
0.0066432964
0.0065443151
0.0064517373
0.0063633185
0.0062796108
0.0061993293
0.0061222889
0.006048884
0.0059772654
0.0059083757
0.0058422549
0.005777311
0.005714471
0.0056537547
0.0055940598
0.0055355035
0.0054785185
0.0054228717
0.0053677405
0.0053135636
0.0052605941
0.0052083517
0.0051564521
0.0051052057
0.0050548614
0.0050049681
0.0049552599
0.0049058202
0.0048570202
0.0048086106
0.0047601919
0.0047117004
0.0046636093
0.0046158981
0.0045679211
0.0045198286
0.0044716078
0.0044235748
0.0043754781
0.0043269807
0.0042780481
0.0042289926
0.0041798842
0.0041301947
0.0040799651
0.0040290826
0.0039779151
0.0039263413
0.0038738467
0.0038205048
0.0037663917
0.0037116747
0.0036559936
0.0035991291
0.0035409963
0.0034819196
0.0034217478
0.0033599286
0.003296432
0.0032314833
0.0031650158
0.0030964524
0.0030256456
0.0029527369
0.0028776453
0.002799795
0.0027188444
0.0026350341
0.0025480922
0.0024571515
0.0023621779
0.0022630475
0.0021595366
0.0020524805
0.0019454547
0.0018405694
0.0017374301
0.0016360201
0.0015365279
0.0014387218
0.0013423372
0.0012474646
0.0011544697
0.001063309
0.0009737438
0.00088612727
0.00080073017
0.00071804801
0.00063889512
0.00056281512
0.00049438203
0.00042743475
0.00038887172
0.00032791329
0.0005471572
-0.00048592916
0.0074273637
0.0074682203
0.0075508841
0.0076532234
0.0077765162
0.0079188131
0.008077843
0.0082523357
0.0084417294
0.0086459508
0.008865395
0.009101004
0.0093543477
0.0096279258
0.009925229
0.010252015
0.010615258
0.011030172
0.011508491
0.012106336
0.012817668
0.013976748
0.015221625
0.021135962
0.017458245
0.011281098
0.0099828701
0.0094861786
0.0089832401
0.0085653092
0.0082482203
0.0080042351
0.007785532
0.0075847664
0.0074053959
0.0072507954
0.0071140768
0.0069811949
0.0068581397
0.0067486691
0.006643319
0.0065443359
0.0064517565
0.0063633363
0.0062796274
0.0061993448
0.0061223035
0.0060488977
0.0059772783
0.0059083878
0.0058422664
0.0057773218
0.0057144812
0.0056537645
0.005594069
0.0055355123
0.0054785269
0.0054228796
0.0053677481
0.0053135709
0.005260601
0.0052083583
0.0051564584
0.0051052118
0.0050548672
0.0050049736
0.0049552652
0.0049058253
0.0048570251
0.0048086153
0.0047601965
0.0047117048
0.0046636135
0.0046159022
0.0045679249
0.0045198323
0.0044716114
0.0044235782
0.0043754815
0.0043269839
0.0042780512
0.0042289956
0.0041798871
0.0041301975
0.0040799678
0.0040290851
0.0039779176
0.0039263437
0.003873849
0.003820507
0.0037663938
0.0037116767
0.0036559955
0.0035991309
0.0035409981
0.0034819214
0.0034217495
0.0033599302
0.0032964335
0.0032314847
0.0031650172
0.0030964537
0.0030256469
0.0029527381
0.0028776465
0.0027997961
0.0027188455
0.0026350351
0.0025480932
0.0024571524
0.0023621788
0.0022630484
0.0021595374
0.0020524812
0.0019454555
0.0018405701
0.0017374308
0.0016360208
0.0015365285
0.0014387224
0.0013423377
0.0012474652
0.0011544702
0.0010633095
0.00097374427
0.00088612772
0.00080073061
0.00071804844
0.00063889554
0.00056281552
0.00049438242
0.00042743514
0.0003888721
0.0003279137
0.00054715766
-0.00048592885
0.0074273637
0.0074682203
0.0075508841
0.0076532234
0.0077765162
0.0079188131
0.008077843
0.0082523358
0.0084417294
0.0086459508
0.008865395
0.009101004
0.0093543477
0.0096279259
0.009925229
0.010252015
0.010615258
0.011030172
0.011508491
0.012106336
0.012817668
0.013976748
0.015221625
0.021133988
0.01746265
0.01128223
0.0099832144
0.0094863934
0.0089833962
0.0085654348
0.0082483255
0.0080043243
0.0077856085
0.0075848328
0.0074054543
0.0072508472
0.0071141229
0.0069812364
0.0068581774
0.0067487034
0.0066433505
0.0065443649
0.0064517833
0.0063633612
0.0062796505
0.0061993664
0.0061223237
0.0060489166
0.0059772961
0.0059084046
0.0058422822
0.0057773368
0.0057144954
0.0056537779
0.0055940818
0.0055355244
0.0054785384
0.0054228906
0.0053677586
0.0053135809
0.0052606105
0.0052083674
0.0051564671
0.0051052201
0.0050548752
0.0050049813
0.0049552726
0.0049058323
0.0048570319
0.0048086218
0.0047602027
0.0047117107
0.0046636193
0.0046159077
0.0045679302
0.0045198374
0.0044716163
0.0044235829
0.004375486
0.0043269883
0.0042780553
0.0042289997
0.004179891
0.0041302012
0.0040799714
0.0040290886
0.0039779209
0.0039263469
0.0038738521
0.00382051
0.0037663966
0.0037116795
0.0036559982
0.0035991335
0.0035410005
0.0034819237
0.0034217517
0.0033599324
0.0032964356
0.0032314867
0.0031650191
0.0030964555
0.0030256487
0.0029527398
0.0028776481
0.0027997976
0.0027188469
0.0026350365
0.0025480945
0.0024571537
0.00236218
0.0022630495
0.0021595385
0.0020524822
0.0019454564
0.001840571
0.0017374317
0.0016360216
0.0015365292
0.0014387231
0.0013423384
0.0012474658
0.0011544709
0.0010633101
0.0009737449
0.00088612832
0.00080073119
0.000718049
0.00063889608
0.00056281605
0.00049438294
0.00042743564
0.00038887261
0.0003279142
0.00054715825
-0.00048592847
0.0074273637
0.0074682203
0.0075508841
0.0076532234
0.0077765162
0.0079188132
0.0080778431
0.0082523358
0.0084417294
0.0086459508
0.008865395
0.009101004
0.0093543477
0.0096279259
0.0099252291
0.010252015
0.010615258
0.011030172
0.011508491
0.012106336
0.012817668
0.013976747
0.015221626
0.021132572
0.017468729
0.011284096
0.0099837163
0.0094866852
0.0089836038
0.0085655998
0.0082484627
0.0080044402
0.0077857074
0.0075849185
0.0074055294
0.0072509136
0.0071141821
0.0069812896
0.0068582256
0.0067487473
0.0066433905
0.0065444017
0.0064518173
0.0063633927
0.0062796798
0.0061993937
0.0061223492
0.0060489406
0.0059773186
0.0059084258
0.0058423022
0.0057773556
0.0057145132
0.0056537947
0.0055940978
0.0055355396
0.0054785528
0.0054229043
0.0053677717
0.0053135933
0.0052606224
0.0052083788
0.005156478
0.0051052305
0.0050548852
0.0050049908
0.0049552817
0.0049058411
0.0048570403
0.0048086298
0.0047602104
0.0047117181
0.0046636264
0.0046159145
0.0045679368
0.0045198437
0.0044716224
0.0044235888
0.0043754916
0.0043269936
0.0042780605
0.0042290046
0.0041798957
0.0041302058
0.0040799758
0.0040290928
0.003977925
0.0039263508
0.0038738559
0.0038205136
0.0037664001
0.0037116828
0.0036560014
0.0035991365
0.0035410035
0.0034819266
0.0034217544
0.003359935
0.0032964381
0.0032314891
0.0031650214
0.0030964577
0.0030256508
0.0029527418
0.00287765
0.0027997995
0.0027188487
0.0026350381
0.0025480961
0.0024571552
0.0023621814
0.0022630508
0.0021595398
0.0020524834
0.0019454576
0.0018405721
0.0017374327
0.0016360226
0.0015365302
0.0014387241
0.0013423393
0.0012474667
0.0011544717
0.0010633109
0.00097374564
0.00088612904
0.00080073189
0.00071804967
0.00063889673
0.00056281668
0.00049438355
0.00042743624
0.00038887321
0.00032791478
0.00054715896
-0.00048592803
0.0074273637
0.0074682203
0.0075508841
0.0076532234
0.0077765162
0.0079188132
0.0080778431
0.0082523358
0.0084417295
0.0086459508
0.008865395
0.009101004
0.0093543478
0.0096279259
0.0099252291
0.010252015
0.010615258
0.011030172
0.011508491
0.012106336
0.012817668
0.013976747
0.015221627
0.021131438
0.017476369
0.011286827
0.0099844192
0.0094870774
0.008983879
0.008565817
0.0082486428
0.0080045919
0.0077858369
0.0075850307
0.0074056277
0.0072510006
0.0071142595
0.0069813591
0.0068582885
0.0067488045
0.0066434429
0.0065444498
0.0064518618
0.0063634339
0.0062797181
0.0061994294
0.0061223826
0.0060489718
0.0059773479
0.0059084534
0.0058423282
0.0057773801
0.0057145364
0.0056538167
0.0055941186
0.0055355593
0.0054785716
0.0054229222
0.0053677887
0.0053136096
0.0052606379
0.0052083936
0.0051564921
0.0051052441
0.0050548981
0.0050050032
0.0049552935
0.0049058524
0.0048570512
0.0048086402
0.0047602204
0.0047117278
0.0046636356
0.0046159234
0.0045679453
0.0045198519
0.0044716302
0.0044235963
0.0043754989
0.0043270006
0.0042780672
0.0042290111
0.0041799019
0.0041302118
0.0040799815
0.0040290983
0.0039779303
0.0039263559
0.0038738607
0.0038205183
0.0037664046
0.0037116872
0.0036560055
0.0035991406
0.0035410073
0.0034819302
0.003421758
0.0033599384
0.0032964413
0.0032314922
0.0031650244
0.0030964606
0.0030256535
0.0029527444
0.0028776525
0.0027998018
0.0027188509
0.0026350403
0.0025480981
0.0024571571
0.0023621833
0.0022630526
0.0021595414
0.002052485
0.0019454591
0.0018405735
0.001737434
0.0016360239
0.0015365314
0.0014387252
0.0013423404
0.0012474678
0.0011544727
0.0010633119
0.0009737466
0.00088612996
0.00080073278
0.00071805054
0.00063889757
0.00056281749
0.00049438435
0.00042743701
0.00038887398
0.00032791552
0.00054715986
-0.00048592747
0.0074273637
0.0074682203
0.0075508841
0.0076532234
0.0077765163
0.0079188132
0.0080778431
0.0082523358
0.0084417295
0.0086459509
0.0088653951
0.0091010041
0.0093543478
0.009627926
0.0099252292
0.010252015
0.010615258
0.011030172
0.011508491
0.012106336
0.012817668
0.013976746
0.015221628
0.021130414
0.017484608
0.011290325
0.0099853214
0.0094875677
0.008984219
0.0085660842
0.0082488641
0.0080047784
0.0077859962
0.0075851686
0.0074057488
0.0072511077
0.0071143549
0.0069814448
0.0068583662
0.0067488752
0.0066435076
0.0065445094
0.0064519167
0.0063634848
0.0062797655
0.0061994736
0.0061224239
0.0060490106
0.0059773843
0.0059084877
0.0058423605
0.0057774107
0.0057145653
0.0056538441
0.0055941445
0.005535584
0.0054785951
0.0054229445
0.00536781
0.0053136299
0.0052606573
0.005208412
0.0051565098
0.0051052609
0.0050549142
0.0050050186
0.0049553083
0.0049058666
0.0048570648
0.0048086533
0.004760233
0.0047117398
0.0046636472
0.0046159345
0.004567956
0.0045198621
0.0044716401
0.0044236058
0.004375508
0.0043270094
0.0042780756
0.0042290192
0.0041799097
0.0041302193
0.0040799887
0.0040291053
0.0039779369
0.0039263623
0.0038738669
0.0038205242
0.0037664103
0.0037116926
0.0036560108
0.0035991456
0.0035410122
0.0034819349
0.0034217624
0.0033599426
0.0032964454
0.0032314961
0.0031650281
0.0030964642
0.0030256569
0.0029527477
0.0028776556
0.0027998048
0.0027188538
0.002635043
0.0025481007
0.0024571596
0.0023621856
0.0022630548
0.0021595435
0.002052487
0.0019454609
0.0018405753
0.0017374357
0.0016360255
0.001536533
0.0014387267
0.0013423419
0.0012474691
0.001154474
0.0010633131
0.00097374781
0.00088613113
0.00080073391
0.00071805163
0.00063889863
0.00056281852
0.00049438535
0.00042743799
0.00038887496
0.00032791646
0.00054716101
-0.00048592676
0.0074273637
0.0074682203
0.0075508841
0.0076532235
0.0077765163
0.0079188132
0.0080778431
0.0082523359
0.0084417295
0.0086459509
0.0088653951
0.0091010041
0.0093543479
0.0096279261
0.0099252293
0.010252015
0.010615258
0.011030172
0.011508491
0.012106336
0.012817668
0.013976744
0.01522163
0.021129405
0.017492631
0.011294236
0.0099864238
0.009488153
0.0089846202
0.0085663979
0.0082491233
0.0080049968
0.0077861827
0.0075853303
0.0074058907
0.0072512333
0.0071144669
0.0069815455
0.0068584574
0.0067489583
0.0066435837
0.0065445794
0.0064519814
0.0063635448
0.0062798213
0.0061995257
0.0061224727
0.0060490562
0.0059774273
0.0059085281
0.0058423986
0.0057774467
0.0057145994
0.0056538764
0.0055941752
0.0055356131
0.0054786228
0.0054229709
0.0053678351
0.0053136538
0.0052606802
0.0052084339
0.0051565307
0.0051052809
0.0050549334
0.005005037
0.0049553259
0.0049058835
0.0048570809
0.0048086688
0.0047602478
0.0047117541
0.0046636609
0.0046159477
0.0045679686
0.0045198743
0.0044716518
0.004423617
0.0043755188
0.0043270198
0.0042780857
0.0042290288
0.004179919
0.0041302282
0.0040799973
0.0040291135
0.0039779449
0.00392637
0.0038738742
0.0038205313
0.0037664171
0.0037116991
0.0036560171
0.0035991516
0.0035410179
0.0034819404
0.0034217677
0.0033599477
0.0032964503
0.0032315008
0.0031650326
0.0030964685
0.003025661
0.0029527516
0.0028776594
0.0027998084
0.0027188572
0.0026350463
0.0025481038
0.0024571625
0.0023621884
0.0022630575
0.002159546
0.0020524894
0.0019454632
0.0018405775
0.0017374378
0.0016360274
0.0015365348
0.0014387285
0.0013423436
0.0012474708
0.0011544756
0.0010633147
0.00097374927
0.00088613254
0.00080073527
0.00071805295
0.00063889991
0.00056281976
0.00049438656
0.00042743917
0.00038887615
0.00032791759
0.0005471624
-0.00048592591
0.0074273637
0.0074682204
0.0075508841
0.0076532235
0.0077765163
0.0079188133
0.0080778432
0.0082523359
0.0084417296
0.008645951
0.0088653952
0.0091010042
0.009354348
0.0096279262
0.0099252294
0.010252015
0.010615258
0.011030172
0.011508491
0.012106336
0.012817668
0.013976742
0.015221633
0.021128338
0.017500286
0.011298469
0.009987747
0.0094888416
0.0089850862
0.0085667602
0.0082494219
0.0080052481
0.0077863972
0.0075855162
0.0074060538
0.0072513777
0.0071145957
0.0069816613
0.0068585624
0.0067490539
0.0066436712
0.00654466
0.0064520559
0.0063636139
0.0062798855
0.0061995856
0.0061225288
0.0060491089
0.0059774768
0.0059085747
0.0058424426
0.0057774882
0.0057146387
0.0056539136
0.0055942105
0.0055356467
0.0054786547
0.0054230013
0.0053678641
0.0053136815
0.0052607066
0.0052084592
0.0051565548
0.005105304
0.0050549555
0.0050050582
0.0049553462
0.0049059029
0.0048570996
0.0048086867
0.004760265
0.0047117706
0.0046636768
0.0046159629
0.0045679833
0.0045198884
0.0044716654
0.0044236301
0.0043755313
0.0043270318
0.0042780973
0.00422904
0.0041799297
0.0041302385
0.0040800072
0.0040291231
0.0039779541
0.0039263788
0.0038738828
0.0038205395
0.003766425
0.0037117067
0.0036560243
0.0035991586
0.0035410246
0.0034819469
0.0034217739
0.0033599537
0.003296456
0.0032315063
0.0031650378
0.0030964735
0.0030256658
0.0029527562
0.0028776638
0.0027998126
0.0027188612
0.00263505
0.0025481074
0.002457166
0.0023621916
0.0022630605
0.002159549
0.0020524921
0.0019454658
0.00184058
0.0017374402
0.0016360297
0.001536537
0.0014387306
0.0013423456
0.0012474727
0.0011544774
0.0010633164
0.00097375098
0.00088613419
0.00080073686
0.00071805449
0.0006389014
0.00056282121
0.00049438798
0.00042744056
0.00038887754
0.00032791892
0.00054716403
-0.0004859249
0.0074273637
0.0074682204
0.0075508842
0.0076532235
0.0077765164
0.0079188133
0.0080778432
0.008252336
0.0084417296
0.0086459511
0.0088653953
0.0091010043
0.0093543481
0.0096279263
0.0099252295
0.010252015
0.010615258
0.011030173
0.011508491
0.012106336
0.012817668
0.01397674
0.015221636
0.021127143
0.017507633
0.011303659
0.0099893266
0.0094896495
0.008985626
0.0085671773
0.0082497646
0.0080055362
0.0077866429
0.007585729
0.0074062406
0.0072515431
0.007114743
0.0069817938
0.0068586824
0.0067491633
0.0066437714
0.0065447521
0.006452141
0.0063636928
0.006279959
0.0061996542
0.0061225929
0.0060491691
0.0059775334
0.005908628
0.0058424929
0.0057775357
0.0057146837
0.0056539562
0.005594251
0.0055356851
0.0054786913
0.0054230361
0.0053678973
0.0053137132
0.0052607368
0.0052084881
0.0051565825
0.0051053305
0.0050549808
0.0050050824
0.0049553695
0.0049059252
0.004857121
0.0048087073
0.0047602847
0.0047117895
0.004663695
0.0046159804
0.0045680001
0.0045199046
0.0044716809
0.004423645
0.0043755457
0.0043270457
0.0042781106
0.0042290528
0.004179942
0.0041302503
0.0040800186
0.004029134
0.0039779646
0.003926389
0.0038738925
0.0038205489
0.003766434
0.0037117154
0.0036560327
0.0035991666
0.0035410323
0.0034819543
0.003421781
0.0033599605
0.0032964625
0.0032315125
0.0031650438
0.0030964792
0.0030256713
0.0029527614
0.0028776688
0.0027998173
0.0027188657
0.0026350544
0.0025481116
0.0024571699
0.0023621954
0.0022630641
0.0021595523
0.0020524953
0.0019454689
0.0018405829
0.0017374429
0.0016360323
0.0015365395
0.001438733
0.0013423479
0.0012474749
0.0011544795
0.0010633185
0.00097375294
0.00088613609
0.0008007387
0.00071805626
0.00063890312
0.00056282289
0.00049438962
0.00042744215
0.00038887914
0.00032792046
0.0005471659
-0.00048592375
0.0074273637
0.0074682204
0.0075508842
0.0076532235
0.0077765164
0.0079188134
0.0080778433
0.008252336
0.0084417297
0.0086459511
0.0088653954
0.0091010044
0.0093543482
0.0096279264
0.0099252297
0.010252015
0.010615258
0.011030173
0.011508492
0.012106336
0.012817668
0.013976737
0.01522164
0.021125745
0.017514696
0.011310138
0.0099912092
0.0094905986
0.0089862521
0.0085676578
0.0082501583
0.0080058666
0.0077869245
0.0075859727
0.0074064543
0.0072517322
0.0071149115
0.0069819452
0.0068588197
0.0067492883
0.0066438858
0.0065448574
0.0064522383
0.0063637831
0.0062800429
0.0061997325
0.0061226663
0.0060492378
0.005977598
0.0059086889
0.0058425503
0.00577759
0.005714735
0.0056540049
0.0055942971
0.005535729
0.0054787331
0.0054230759
0.0053679352
0.0053137494
0.0052607714
0.0052085211
0.005156614
0.0051053607
0.0050550097
0.0050051101
0.004955396
0.0049059507
0.0048571454
0.0048087307
0.0047603072
0.0047118112
0.0046637157
0.0046160004
0.0045680193
0.004519923
0.0044716986
0.0044236621
0.0043755621
0.0043270614
0.0042781257
0.0042290674
0.0041799561
0.0041302639
0.0040800317
0.0040291466
0.0039779767
0.0039264006
0.0038739037
0.0038205596
0.0037664443
0.0037117253
0.0036560422
0.0035991757
0.0035410411
0.0034819627
0.0034217891
0.0033599682
0.00329647
0.0032315197
0.0031650507
0.0030964858
0.0030256776
0.0029527674
0.0028776745
0.0027998228
0.002718871
0.0026350594
0.0025481163
0.0024571744
0.0023621997
0.0022630682
0.0021595562
0.002052499
0.0019454723
0.0018405861
0.0017374461
0.0016360353
0.0015365424
0.0014387357
0.0013423505
0.0012474774
0.001154482
0.0010633208
0.00097375519
0.00088613826
0.00080074079
0.00071805829
0.00063890509
0.0005628248
0.00049439149
0.00042744397
0.00038888097
0.00032792221
0.00054716804
-0.00048592242
0.0074273637
0.0074682204
0.0075508842
0.0076532236
0.0077765165
0.0079188134
0.0080778433
0.0082523361
0.0084417298
0.0086459513
0.0088653955
0.0091010046
0.0093543484
0.0096279266
0.0099252299
0.010252015
0.010615259
0.011030173
0.011508492
0.012106336
0.012817668
0.013976733
0.015221645
0.021124042
0.017521176
0.011317767
0.0099934534
0.0094917164
0.0089869798
0.0085682125
0.0082506111
0.0080062461
0.0077872476
0.0075862522
0.0074066994
0.007251949
0.0071151046
0.0069821187
0.0068589769
0.0067494315
0.0066440168
0.006544978
0.0064523497
0.0063638863
0.006280139
0.0061998221
0.0061227501
0.0060493165
0.0059776719
0.0059087585
0.005842616
0.005777652
0.0057147937
0.0056540605
0.0055943499
0.0055357792
0.0054787808
0.0054231214
0.0053679785
0.0053137907
0.0052608109
0.0052085588
0.0051566501
0.0051053952
0.0050550428
0.0050051417
0.0049554263
0.0049059798
0.0048571733
0.0048087575
0.004760333
0.0047118358
0.0046637395
0.0046160231
0.0045680412
0.0045199441
0.0044717189
0.0044236816
0.0043755808
0.0043270795
0.0042781431
0.0042290841
0.0041799722
0.0041302793
0.0040800465
0.0040291609
0.0039779904
0.0039264138
0.0038739164
0.0038205718
0.0037664561
0.0037117366
0.0036560531
0.0035991862
0.0035410512
0.0034819723
0.0034217984
0.0033599771
0.0032964785
0.0032315278
0.0031650585
0.0030964932
0.0030256847
0.0029527743
0.002877681
0.0027998291
0.0027188769
0.002635065
0.0025481217
0.0024571795
0.0023622046
0.0022630728
0.0021595606
0.0020525032
0.0019454763
0.0018405899
0.0017374496
0.0016360388
0.0015365456
0.0014387388
0.0013423535
0.0012474803
0.0011544847
0.0010633235
0.00097375776
0.00088614074
0.00080074319
0.00071806061
0.00063890735
0.00056282698
0.00049439363
0.00042744605
0.00038888306
0.00032792422
0.00054717049
-0.00048592091
0.0074273637
0.0074682205
0.0075508843
0.0076532237
0.0077765165
0.0079188135
0.0080778434
0.0082523362
0.0084417299
0.0086459514
0.0088653956
0.0091010047
0.0093543486
0.0096279268
0.0099252301
0.010252016
0.010615259
0.011030173
0.011508492
0.012106336
0.012817668
0.013976728
0.015221651
0.021121906
0.017526074
0.011326595
0.0099961315
0.0094930366
0.008987828
0.0085688544
0.0082511333
0.0080066829
0.0077876191
0.0075865733
0.0074069808
0.0072521978
0.0071153262
0.0069823178
0.0068591571
0.0067495956
0.006644167
0.0065451161
0.0064524772
0.0063640045
0.006280249
0.0061999248
0.0061228461
0.0060494065
0.0059777566
0.0059088382
0.0058426911
0.0057777231
0.0057148609
0.0056541242
0.0055944103
0.0055358366
0.0054788354
0.0054231733
0.0053680281
0.005313838
0.005260856
0.0052086019
0.0051566913
0.0051054347
0.0050550806
0.0050051779
0.004955461
0.004906013
0.0048572053
0.0048087881
0.0047603623
0.0047118641
0.0046637666
0.0046160492
0.0045680662
0.0045199682
0.004471742
0.0044237038
0.0043756023
0.0043271001
0.0042781629
0.0042291032
0.0041799905
0.004130297
0.0040800635
0.0040291772
0.0039780062
0.0039264289
0.0038739309
0.0038205858
0.0037664695
0.0037117495
0.0036560655
0.0035991981
0.0035410626
0.0034819834
0.0034218089
0.0033599872
0.0032964882
0.0032315372
0.0031650674
0.0030965018
0.0030256929
0.0029527821
0.0028776885
0.0027998362
0.0027188837
0.0026350715
0.0025481279
0.0024571854
0.0023622101
0.0022630781
0.0021595656
0.0020525079
0.0019454808
0.0018405942
0.0017374537
0.0016360427
0.0015365494
0.0014387424
0.0013423569
0.0012474836
0.0011544879
0.0010633265
0.0009737607
0.00088614357
0.00080074593
0.00071806327
0.00063890992
0.00056282948
0.00049439607
0.00042744843
0.00038888545
0.00032792652
0.00054717329
-0.00048591919
0.0074273637
0.0074682205
0.0075508844
0.0076532237
0.0077765166
0.0079188136
0.0080778435
0.0082523363
0.0084417301
0.0086459515
0.0088653958
0.0091010049
0.0093543488
0.0096279271
0.0099252304
0.010252016
0.010615259
0.011030173
0.011508492
0.012106336
0.012817668
0.013976721
0.015221659
0.021119194
0.017528753
0.011336769
0.0099993304
0.0094946008
0.0089888196
0.008569599
0.0082517367
0.0080071868
0.0077880473
0.0075869431
0.0074073046
0.0072524841
0.007115581
0.0069825465
0.0068593643
0.0067497841
0.0066443395
0.0065452747
0.0064526237
0.0063641403
0.0062803752
0.0062000425
0.0061229563
0.0060495098
0.0059778536
0.0059089296
0.0058427773
0.0057778045
0.005714938
0.0056541972
0.0055944796
0.0055359024
0.005478898
0.0054232329
0.0053680849
0.0053138922
0.0052609077
0.0052086513
0.0051567386
0.0051054799
0.0050551239
0.0050052194
0.0049555007
0.0049060511
0.0048572418
0.0048088232
0.004760396
0.0047118964
0.0046637977
0.0046160791
0.0045680949
0.0045199957
0.0044717686
0.0044237293
0.0043756268
0.0043271237
0.0042781856
0.004229125
0.0041800115
0.0041303172
0.0040800829
0.0040291959
0.0039780242
0.0039264462
0.0038739476
0.0038206018
0.0037664849
0.0037117643
0.0036560797
0.0035992118
0.0035410757
0.0034819959
0.003421821
0.0033599988
0.0032964993
0.0032315478
0.0031650776
0.0030965116
0.0030257023
0.002952791
0.0028776971
0.0027998444
0.0027188915
0.002635079
0.0025481349
0.0024571921
0.0023622165
0.0022630841
0.0021595713
0.0020525133
0.001945486
0.0018405991
0.0017374584
0.0016360471
0.0015365536
0.0014387465
0.0013423608
0.0012474873
0.0011544915
0.00106333
0.00097376405
0.00088614681
0.00080074906
0.00071806629
0.00063891286
0.00056283234
0.00049439886
0.00042745115
0.00038888819
0.00032792914
0.00054717648
-0.00048591721
0.0074273637
0.0074682206
0.0075508844
0.0076532238
0.0077765167
0.0079188137
0.0080778437
0.0082523365
0.0084417302
0.0086459517
0.008865396
0.0091010052
0.0093543491
0.0096279274
0.0099252307
0.010252016
0.010615259
0.011030174
0.011508492
0.012106336
0.012817668
0.013976711
0.015221669
0.021115737
0.017529947
0.011348441
0.010003149
0.0094964591
0.0089899824
0.008570465
0.0082524357
0.0080077694
0.0077885418
0.0075873699
0.0074076781
0.0072528141
0.0071158745
0.0069828101
0.0068596028
0.0067500011
0.0066445379
0.0065454572
0.0064527921
0.0063642964
0.0062805204
0.0062001779
0.0061230829
0.0060496285
0.0059779652
0.0059090346
0.0058428763
0.005777898
0.0057150265
0.005654281
0.0055945591
0.0055359779
0.0054789698
0.0054233013
0.00536815
0.0053139544
0.0052609671
0.005208708
0.0051567928
0.0051055317
0.0050551735
0.0050052669
0.0049555463
0.0049060948
0.0048572837
0.0048088634
0.0047604346
0.0047119335
0.0046638333
0.0046161133
0.0045681278
0.0045200273
0.004471799
0.0044237586
0.0043756549
0.0043271507
0.0042782116
0.00422915
0.0041800356
0.0041303403
0.0040801052
0.0040292174
0.0039780448
0.0039264661
0.0038739666
0.0038206202
0.0037665026
0.0037117813
0.003656096
0.0035992274
0.0035410908
0.0034820104
0.0034218349
0.0033600121
0.0032965121
0.00323156
0.0031650893
0.0030965228
0.003025713
0.0029528013
0.0028777068
0.0027998537
0.0027189004
0.0026350874
0.002548143
0.0024571998
0.0023622238
0.0022630911
0.0021595779
0.0020525196
0.0019454919
0.0018406047
0.0017374638
0.0016360522
0.0015365585
0.0014387512
0.0013423653
0.0012474916
0.0011544957
0.001063334
0.00097376789
0.00088615051
0.00080075264
0.00071806976
0.00063891622
0.0005628356
0.00049440206
0.00042745427
0.00038889132
0.00032793215
0.00054718014
-0.00048591495
0.0074273637
0.0074682206
0.0075508845
0.0076532239
0.0077765168
0.0079188138
0.0080778438
0.0082523367
0.0084417304
0.008645952
0.0088653963
0.0091010055
0.0093543494
0.0096279277
0.0099252311
0.010252017
0.01061526
0.011030174
0.011508492
0.012106335
0.012817668
0.0139767
0.015221681
0.021111325
0.017530354
0.011361761
0.010007702
0.0094986718
0.0089913504
0.0085714748
0.008253247
0.0080084444
0.007789114
0.0075878632
0.0074081096
0.0072531952
0.0071162135
0.0069831141
0.006859878
0.0067502514
0.0066447668
0.0065456675
0.0064529863
0.0063644762
0.0062806875
0.0062003338
0.0061232287
0.0060497651
0.0059780935
0.0059091555
0.0058429902
0.0057780056
0.0057151283
0.0056543774
0.0055946505
0.0055360648
0.0054790525
0.00542338
0.005368225
0.0053140258
0.0052610353
0.0052087732
0.0051568551
0.0051055914
0.0050552306
0.0050053216
0.0049555986
0.004906145
0.0048573319
0.0048089096
0.0047604789
0.0047119761
0.0046638742
0.0046161526
0.0045681655
0.0045200636
0.0044718338
0.0044237921
0.0043756871
0.0043271817
0.0042782415
0.0042291787
0.0041800632
0.0041303669
0.0040801308
0.004029242
0.0039780684
0.0039264888
0.0038739885
0.0038206412
0.0037665228
0.0037118007
0.0036561147
0.0035992454
0.003541108
0.0034820269
0.0034218507
0.0033600273
0.0032965267
0.003231574
0.0031651027
0.0030965356
0.0030257252
0.002952813
0.002877718
0.0027998644
0.0027189106
0.0026350972
0.0025481523
0.0024572086
0.0023622322
0.002263099
0.0021595854
0.0020525267
0.0019454986
0.0018406112
0.0017374699
0.0016360581
0.0015365641
0.0014387565
0.0013423704
0.0012474966
0.0011545004
0.0010633385
0.00097377228
0.00088615475
0.00080075674
0.00071807373
0.00063892007
0.00056283934
0.00049440572
0.00042745783
0.00038889491
0.00032793559
0.00054718432
-0.00048591236
0.0074273638
0.0074682207
0.0075508846
0.007653224
0.007776517
0.007918814
0.008077844
0.0082523369
0.0084417307
0.0086459523
0.0088653966
0.0091010058
0.0093543498
0.0096279282
0.0099252316
0.010252017
0.01061526
0.011030174
0.011508493
0.012106334
0.012817667
0.013976684
0.015221696
0.021105705
0.017529948
0.011376747
0.010013116
0.0095013108
0.0089929643
0.008572655
0.0082541908
0.0080092276
0.0077897772
0.0075884345
0.007408609
0.007253636
0.0071166054
0.0069834656
0.0068601959
0.0067505405
0.006645031
0.0065459103
0.0064532103
0.0063646837
0.0062808804
0.0062005136
0.0061233968
0.0060499227
0.0059782415
0.0059092948
0.0058431215
0.0057781296
0.0057152455
0.0056544885
0.0055947559
0.0055361649
0.0054791476
0.0054234705
0.0053683112
0.0053141081
0.0052611139
0.0052088482
0.0051569268
0.00510566
0.0050552962
0.0050053844
0.0049556589
0.0049062028
0.0048573872
0.0048089627
0.0047605299
0.004712025
0.0046639212
0.0046161977
0.0045682089
0.0045201053
0.004471874
0.0044238307
0.0043757242
0.0043272174
0.0042782758
0.0042292117
0.004180095
0.0041303974
0.0040801601
0.0040292702
0.0039780956
0.0039265149
0.0038740136
0.0038206653
0.003766546
0.003711823
0.0036561361
0.003599266
0.0035411278
0.0034820459
0.003421869
0.0033600448
0.0032965434
0.0032315901
0.0031651181
0.0030965503
0.0030257393
0.0029528265
0.0028777309
0.0027998767
0.0027189223
0.0026351083
0.0025481629
0.0024572187
0.0023622418
0.0022631081
0.002159594
0.0020525349
0.0019455064
0.0018406185
0.0017374769
0.0016360648
0.0015365705
0.0014387627
0.0013423763
0.0012475022
0.0011545058
0.0010633438
0.00097377732
0.00088615961
0.00080076144
0.00071807828
0.00063892448
0.00056284363
0.00049440991
0.00042746192
0.00038889902
0.00032793954
0.00054718912
-0.00048590939
0.0074273638
0.0074682207
0.0075508847
0.0076532242
0.0077765171
0.0079188142
0.0080778443
0.0082523371
0.008441731
0.0086459526
0.008865397
0.0091010063
0.0093543503
0.0096279287
0.0099252321
0.010252018
0.010615261
0.011030175
0.011508493
0.012106333
0.012817667
0.013976664
0.015221715
0.021098561
0.017528674
0.011392961
0.010019529
0.0095044607
0.0089948741
0.0085740375
0.0082552904
0.0080101382
0.0077905473
0.0075890973
0.0074091878
0.0072541467
0.0071170593
0.0069838725
0.0068605637
0.0067508749
0.0066453365
0.006546191
0.0064534692
0.0063649235
0.0062811032
0.0062007213
0.006123591
0.0060501046
0.0059784123
0.0059094555
0.005843273
0.0057782726
0.0057153809
0.0056546166
0.0055948773
0.0055362803
0.0054792573
0.0054235749
0.0053684107
0.005314203
0.0052612044
0.0052089346
0.0051570094
0.005105739
0.0050553719
0.0050054568
0.0049557282
0.0049062693
0.004857451
0.0048090239
0.0047605886
0.0047120814
0.0046639754
0.0046162497
0.0045682589
0.0045201534
0.0044719201
0.0044238751
0.0043757669
0.0043272584
0.0042783152
0.0042292497
0.0041801315
0.0041304326
0.0040801939
0.0040293027
0.0039781269
0.003926545
0.0038740425
0.0038206931
0.0037665727
0.0037118487
0.0036561608
0.0035992896
0.0035411505
0.0034820678