/*--------------------------------*- C++ -*----------------------------------*\
  =========                 |
  \\      /  F ield         | OpenFOAM: The Open Source CFD Toolbox
   \\    /   O peration     | Website:  https://openfoam.org
    \\  /    A nd           | Version:  12
     \\/     M anipulation  |
\*---------------------------------------------------------------------------*/
FoamFile
{
    format      ascii;
    class       surfaceScalarField;
    location    "1500";
    object      phi;
}
// * * * * * * * * * * * * * * * * * * * * * * * * * * * * * * * * * * * * * //

dimensions      [0 3 -1 0 0 0 0];

internalField   nonuniform List<scalar> 
14782
(
0.00078669067
7.0644842e-06
-0.00079375515
0.00077718136
9.5093064e-06
0.00076674652
1.0434838e-05
0.0007560526
1.0693923e-05
0.00074521741
1.0835184e-05
0.00073433979
1.0877621e-05
0.00072349585
1.0843943e-05
0.00071273404
1.076181e-05
0.00070208038
1.0653666e-05
0.00069155932
1.0521057e-05
0.00068119052
1.0368794e-05
0.00067099183
1.0198697e-05
0.00066098699
1.0004842e-05
0.00065119714
9.7898473e-06
0.00064165435
9.5427919e-06
0.00063240111
9.2532379e-06
0.00062349913
8.9019763e-06
0.00061501802
8.4811099e-06
0.00060701706
8.0009606e-06
0.00059954703
7.4700336e-06
0.00059265241
6.8946143e-06
0.00058636787
6.2845403e-06
0.00058071751
5.6503594e-06
0.00057571041
5.0071079e-06
0.00057132962
4.3807895e-06
0.00056752578
3.8038358e-06
0.00056422508
3.3007039e-06
0.000561335
2.8900791e-06
0.00055875145
2.5835494e-06
0.00055637707
2.3743804e-06
0.0005541335
2.2435667e-06
0.00055196747
2.1660304e-06
0.00054984665
2.1208192e-06
0.00054775525
2.0913998e-06
0.00054568516
2.0700919e-06
0.00054362725
2.0579063e-06
0.00054157182
2.0554299e-06
0.00053950952
2.0623015e-06
0.00053743478
2.0747453e-06
0.00053534926
2.0855186e-06
0.00053326
2.089261e-06
0.00053117532
2.0846745e-06
0.00052910236
2.0729594e-06
0.00052704493
2.0574377e-06
0.00052500535
2.0395732e-06
0.00052298549
2.0198583e-06
0.00052098699
1.9984996e-06
0.0005190112
1.9757908e-06
0.00051705956
1.9516389e-06
0.0005151332
1.9263643e-06
0.0005132321
1.9010992e-06
0.00051135593
1.8761728e-06
0.00050950469
1.851242e-06
0.0005076786
1.8260821e-06
0.00050587725
1.8013496e-06
0.00050410003
1.7772295e-06
0.00050234654
1.7534869e-06
0.00050061648
1.7300579e-06
0.00049890911
1.7073742e-06
0.00049722395
1.6851561e-06
0.0004955606
1.6633546e-06
0.00049391836
1.6422319e-06
0.00049229668
1.6216879e-06
0.00049069514
1.6015341e-06
0.00048911325
1.5818888e-06
0.00048755049
1.5627643e-06
0.00048600648
1.5440115e-06
0.0004844807
1.5257754e-06
0.00048297268
1.5080249e-06
0.000481482
1.4906723e-06
0.00048000818
1.4738271e-06
0.00047855077
1.4574043e-06
0.00047710935
1.4414248e-06
0.00047568347
1.4258745e-06
0.00047427277
1.410708e-06
0.0004728768
1.3959638e-06
0.00047149521
1.3815965e-06
0.00047012759
1.3676127e-06
0.0004687736
1.3539965e-06
0.00046743286
1.3407373e-06
0.00046610503
1.3278257e-06
0.00046478978
1.3152528e-06
0.00046348677
1.3030113e-06
0.00046219567
1.2910961e-06
0.00046091617
1.2795031e-06
0.00045964794
1.2682339e-06
0.00045839065
1.2572874e-06
0.00045714396
1.2466854e-06
0.00045590754
1.2364208e-06
0.00045468095
1.2265957e-06
0.00045346383
1.2171177e-06
0.00045225536
1.2084684e-06
0.00045105542
1.1999441e-06
0.00044986135
1.1940707e-06
0.00044867517
1.1861747e-06
0.00044748456
1.1906117e-06
0.00044630513
1.1794262e-06
0.00044505008
1.2550537e-06
0.00044399717
1.0529077e-06
1.6000847e-06
0.00082510935
6.7858981e-06
-0.00082483076
0.000825346
9.2726534e-06
0.00082526359
1.0517245e-05
0.00082484742
1.1110098e-05
0.00082404251
1.1640087e-05
0.00082280872
1.2111411e-05
0.00082113726
1.2515406e-05
0.00081901989
1.2879179e-05
0.00081645273
1.322083e-05
0.00081343392
1.3539862e-05
0.00080996553
1.3837185e-05
0.0008060477
1.4116531e-05
0.00080168618
1.436636e-05
0.00079688065
1.4595377e-05
0.00079163372
1.4789726e-05
0.00078594303
1.4943929e-05
0.00077981256
1.5032442e-05
0.00077328027
1.5013399e-05
0.00076640288
1.4878353e-05
0.00075923578
1.4637133e-05
0.00075184527
1.4285125e-05
0.00074431266
1.3817144e-05
0.00073672984
1.3233183e-05
0.00072919677
1.2540177e-05
0.00072182415
1.1753409e-05
0.00071473511
1.0892873e-05
0.00070805114
9.9846818e-06
0.00070185662
9.0845953e-06
0.0006961812
8.2589743e-06
0.0006910049
7.5506725e-06
0.00068627128
6.9771941e-06
0.00068190295
6.5343544e-06
0.0006778177
6.2060748e-06
0.00067394763
5.9614706e-06
0.00067024581
5.7719103e-06
0.00066668264
5.6210737e-06
0.00066324222
5.4958538e-06
0.00065991456
5.3899533e-06
0.00065669018
5.2991325e-06
0.00065355881
5.2168834e-06
0.00065050897
5.1391066e-06
0.00064752858
5.0650638e-06
0.00064460765
4.9938837e-06
0.00064173947
4.9256228e-06
0.00063892136
4.8576762e-06
0.00063615287
4.7883564e-06
0.0006334334
4.7179701e-06
0.0006307613
4.6478882e-06
0.00062813478
4.578152e-06
0.0006255526
4.5085486e-06
0.0006230136
4.4401008e-06
0.0006205168
4.3729716e-06
0.00061806143
4.3066076e-06
0.00061564681
4.2407117e-06
0.00061327177
4.1763862e-06
0.00061093514
4.1138588e-06
0.000608636
4.0526254e-06
0.00060637358
3.9924809e-06
0.00060414667
3.9342807e-06
0.0006019542
3.8776303e-06
0.0005997953
3.8222519e-06
0.00059766901
3.7685183e-06
0.0005955744
3.7162995e-06
0.00059351065
3.6652837e-06
0.00059147688
3.6156587e-06
0.0005894722
3.5674436e-06
0.00058749585
3.520364e-06
0.00058554699
3.4746382e-06
0.00058362481
3.4302063e-06
0.00058172858
3.3869012e-06
0.00057985752
3.344888e-06
0.0005780109
3.3040195e-06
0.00057618801
3.2643144e-06
0.00057438815
3.2257357e-06
0.00057261067
3.1881924e-06
0.0005708549
3.1517349e-06
0.00056912021
3.1162792e-06
0.000567406
3.0818215e-06
0.00056571168
3.0483242e-06
0.00056403665
3.0157583e-06
0.00056238038
2.9840969e-06
0.00056074232
2.9533145e-06
0.00055912194
2.92339e-06
0.00055751873
2.8943061e-06
0.00055593219
2.8660494e-06
0.00055436181
2.8386157e-06
0.00055280709
2.8120041e-06
0.00055126753
2.7862417e-06
0.00054974261
2.7613461e-06
0.00054823176
2.7374427e-06
0.00054673433
2.7145457e-06
0.00054524964
2.6931641e-06
0.00054377655
2.6730275e-06
0.00054231405
2.6565741e-06
0.00054085939
2.6408324e-06
0.0005394098
2.6402002e-06
0.0005379542
2.6350283e-06
0.00053650199
2.7072648e-06
0.00053493248
2.622421e-06
3.1036093e-06
0.00085288911
6.4925769e-06
-0.00085259578
0.00085332815
8.8336064e-06
0.00085370395
1.0141442e-05
0.00085399671
1.0817341e-05
0.0008542456
1.1391202e-05
0.00085444237
1.1914633e-05
0.00085459523
1.2362545e-05
0.00085470743
1.2766986e-05
0.00085477839
1.3149869e-05
0.00085480248
1.351577e-05
0.00085477409
1.3865575e-05
0.00085468464
1.4205978e-05
0.00085452388
1.4527127e-05
0.0008542778
1.4841452e-05
0.00085392818
1.5139348e-05
0.00085345203
1.5420075e-05
0.00085280732
1.5677156e-05
0.00085191844
1.5902273e-05
0.000850704
1.6092797e-05
0.00084909202
1.6249109e-05
0.00084700698
1.6370165e-05
0.00084436843
1.6455696e-05
0.00084109568
1.6505931e-05
0.00083711356
1.6522296e-05
0.00083236147
1.6505509e-05
0.00082679616
1.6458179e-05
0.00082045098
1.6329864e-05
0.00081345189
1.6083683e-05
0.0008059781
1.5732761e-05
0.00079825869
1.5270082e-05
0.00079053778
1.4698106e-05
0.00078304005
1.403209e-05
0.00077594754
1.3298586e-05
0.00076937673
1.2532276e-05
0.00076335343
1.1795208e-05
0.00075782836
1.1146147e-05
0.00075271689
1.0607327e-05
0.0007479272
1.0179639e-05
0.00074338207
9.844265e-06
0.00073903035
9.5686003e-06
0.00073484308
9.3263786e-06
0.00073080408
9.104059e-06
0.0007269024
8.8955694e-06
0.00072312712
8.7009047e-06
0.00071946699
8.5178035e-06
0.00071591057
8.3447759e-06
0.00071244699
8.1815518e-06
0.00070906708
8.0277914e-06
0.00070576461
7.880631e-06
0.00070253569
7.7374645e-06
0.00069937702
7.5987665e-06
0.00069628515
7.4648426e-06
0.00069325672
7.3350363e-06
0.0006902889
7.2085369e-06
0.00068737907
7.0862185e-06
0.00068452495
6.9679703e-06
0.00068172462
6.8529596e-06
0.00067897628
6.7408191e-06
0.00067627792
6.63264e-06
0.00067362775
6.5278013e-06
0.00067102423
6.4257705e-06
0.00066846577
6.3269784e-06
0.00066595085
6.2312278e-06
0.00066347809
6.1380415e-06
0.00066104613
6.0476172e-06
0.00065865363
5.9599474e-06
0.00065629937
5.8746164e-06
0.00065398214
5.7918702e-06
0.00065170075
5.7115975e-06
0.00064945411
5.6335374e-06
0.00064724112
5.5578782e-06
0.00064506074
5.4844033e-06
0.00064291194
5.4131106e-06
0.00064079375
5.343927e-06
0.00063870524
5.2767078e-06
0.00063664547
5.2114977e-06
0.00063461358
5.1481681e-06
0.00063260871
5.0866922e-06
0.00063063004
5.0270021e-06
0.00062867675
4.9690414e-06
0.00062674809
4.9127575e-06
0.00062484331
4.8581003e-06
0.00062296167
4.805027e-06
0.00062110247
4.7535012e-06
0.00061926503
4.7034937e-06
0.00061744866
4.6549877e-06
0.00061565268
4.6079791e-06
0.00061387643
4.5624912e-06
0.00061211921
4.5185741e-06
0.0006103803
4.4763487e-06
0.00060865885
4.4359996e-06
0.00060695409
4.3979173e-06
0.00060526448
4.3626374e-06
0.00060358938
4.3316784e-06
0.00060192437
4.3058399e-06
0.00060026966
4.2949082e-06
0.00059860457
4.3001224e-06
0.00059697367
4.3381668e-06
0.00059509764
4.4984441e-06
4.6726938e-06
0.00088143235
6.2646466e-06
-0.00088120442
0.00088184703
8.4189297e-06
0.00088223628
9.7521925e-06
0.00088254101
1.0512614e-05
0.00088280067
1.1131534e-05
0.00088302375
1.1691562e-05
0.00088321637
1.2169916e-05
0.00088338658
1.2596778e-05
0.00088354037
1.2996083e-05
0.00088367965
1.3376483e-05
0.00088380593
1.37393e-05
0.00088392213
1.4089773e-05
0.00088402665
1.4422617e-05
0.00088412148
1.4746615e-05
0.0008842053
1.5055531e-05
0.00088427728
1.5348094e-05
0.00088433517
1.5619268e-05
0.00088437488
1.5862564e-05
0.00088439111
1.6076562e-05
0.00088437747
1.6262749e-05
0.00088432522
1.6422417e-05
0.00088422249
1.6558427e-05
0.00088405355
1.6674873e-05
0.0008837971
1.6778741e-05
0.00088342173
1.6880884e-05
0.00088288263
1.699728e-05
0.00088207748
1.7135011e-05
0.00088086168
1.7299489e-05
0.00087909584
1.74986e-05
0.00087663872
1.77272e-05
0.00087336485
1.7971972e-05
0.00086918733
1.8209614e-05
0.00086407233
1.8413579e-05
0.00085810057
1.8504039e-05
0.00085147738
1.8418398e-05
0.00084446102
1.8162511e-05
0.00083732599
1.7742353e-05
0.00083032261
1.718302e-05
0.00082364325
1.6523625e-05
0.00081739227
1.5819581e-05
0.00081157806
1.5140592e-05
0.00080614681
1.4535307e-05
0.00080102195
1.4020432e-05
0.00079613421
1.3588636e-05
0.00079143773
1.3214287e-05
0.00078690769
1.2874815e-05
0.00078253098
1.2558259e-05
0.00077829774
1.2261038e-05
0.00077419789
1.1980483e-05
0.00077022062
1.1714726e-05
0.00076635487
1.146452e-05
0.00076259082
1.1228892e-05
0.00075892097
1.1004888e-05
0.00075533987
1.0789634e-05
0.00075184278
1.0583313e-05
0.00074842517
1.0385575e-05
0.00074508291
1.0195226e-05
0.00074181234
1.0011386e-05
0.00073861009
9.8348902e-06
0.00073547327
9.6646147e-06
0.00073239929
9.4997603e-06
0.0007293855
9.3407632e-06
0.0007264295
9.1872317e-06
0.00072352913
9.0384043e-06
0.00072068234
8.8944075e-06
0.00071788714
8.7551495e-06
0.00071514174
8.6200222e-06
0.00071244436
8.4892419e-06
0.00070979336
8.3626034e-06
0.00070718718
8.2397192e-06
0.00070462429
8.1207633e-06
0.00070210327
8.0054252e-06
0.00069962272
7.8936565e-06
0.00069718132
7.7853271e-06
0.00069477781
7.6802214e-06
0.00069241095
7.5783595e-06
0.00069007956
7.4795543e-06
0.00068778251
7.3837412e-06
0.00068551871
7.2908095e-06
0.00068328708
7.2006636e-06
0.00068108663
7.1132141e-06
0.00067891635
7.0283763e-06
0.0006767753
6.9460765e-06
0.00067466255
6.8662497e-06
0.0006725772
6.7888429e-06
0.00067051837
6.7138187e-06
0.00066848519
6.6411635e-06
0.00066647679
6.570889e-06
0.00066449229
6.5030768e-06
0.00066253081
6.4378291e-06
0.00066059128
6.3755253e-06
0.00065867282
6.3163734e-06
0.00065677358
6.2618788e-06
0.00065489299
6.2122767e-06
0.00065302575
6.1730767e-06
0.0006511734
6.1472519e-06
0.00064930999
6.1635343e-06
0.00064750068
6.1474759e-06
0.00064536394
6.6351829e-06
6.3494642e-06
0.00091094532
6.0848854e-06
-0.00091076556
0.00091130744
8.056809e-06
0.00091167471
9.3849215e-06
0.00091197591
1.0211413e-05
0.0009122343
1.0873152e-05
0.00091246404
1.1461818e-05
0.00091266714
1.1966813e-05
0.00091284966
1.2414265e-05
0.0009130161
1.2829638e-05
0.00091316957
1.3223014e-05
0.00091331184
1.3597034e-05
0.00091344494
1.3956666e-05
0.00091356845
1.4299107e-05
0.00091368483
1.4630238e-05
0.00091379404
1.4946317e-05
0.00091389687
1.5245268e-05
0.0009139932
1.5522935e-05
0.00091408179
1.5773976e-05
0.00091416144
1.5996913e-05
0.00091423126
1.6192934e-05
0.00091429011
1.636356e-05
0.00091433637
1.6512173e-05
0.00091436793
1.6643313e-05
0.00091438268
1.6763989e-05
0.00091437866
1.6884902e-05
0.00091435468
1.7021262e-05
0.00091430699
1.7182696e-05
0.00091422881
1.7377672e-05
0.00091411059
1.7616815e-05
0.00091393676
1.7901029e-05
0.00091368378
1.8224961e-05
0.0009133133
1.8580092e-05
0.00091276514
1.8961739e-05
0.00091191195
1.9357225e-05
0.0009105757
1.9754652e-05
0.00090858889
2.0149319e-05
0.00090580344
2.0527802e-05
0.00090211449
2.0871975e-05
0.0008974966
2.1141512e-05
0.0008920575
2.1258678e-05
0.00088601841
2.1179681e-05
0.00087964326
2.0910462e-05
0.00087319529
2.0468402e-05
0.0008668926
1.9891325e-05
0.00086086744
1.9239443e-05
0.00085515707
1.8585184e-05
0.00084973615
1.797918e-05
0.00084455442
1.744277e-05
0.0008395673
1.6967606e-05
0.00083474701
1.6535011e-05
0.00083007896
1.6132575e-05
0.00082555442
1.5753427e-05
0.00082116544
1.5393872e-05
0.0008169031
1.5051971e-05
0.00081275777
1.4728645e-05
0.00080872065
1.4422702e-05
0.00080478472
1.4131155e-05
0.00080094448
1.3851625e-05
0.00079719489
1.3584478e-05
0.00079353137
1.3328132e-05
0.00078994973
1.3081407e-05
0.00078644601
1.2844478e-05
0.00078301672
1.2616527e-05
0.00077965872
1.2396402e-05
0.00077636903
1.2184094e-05
0.00077314484
1.1979336e-05
0.00076998363
1.1781233e-05
0.00076688298
1.1589899e-05
0.0007638406
1.1404981e-05
0.0007608544
1.1225916e-05
0.00075792235
1.1052815e-05
0.00075504254
1.0885235e-05
0.00075221315
1.0723051e-05
0.00074943243
1.0566046e-05
0.00074669874
1.0413909e-05
0.00074401049
1.0266611e-05
0.00074136615
1.0123888e-05
0.00073876428
9.9856182e-06
0.00073620345
9.851633e-06
0.00073368234
9.7217825e-06
0.00073119962
9.5959272e-06
0.00072875406
9.4739354e-06
0.00072634445
9.355691e-06
0.00072396961
9.2410899e-06
0.00072162841
9.1300454e-06
0.00071931973
9.0224901e-06
0.00071704251
8.9183928e-06
0.00071479565
8.8177454e-06
0.00071257807
8.7206568e-06
0.0007103887
8.6271996e-06
0.00070822627
8.5379571e-06
0.00070608972
8.4529217e-06
0.00070397695
8.3746484e-06
0.00070188732
8.3019041e-06
0.00069981498
8.2454203e-06
0.00069776216
8.2000655e-06
0.00069569923
8.2264654e-06
0.00069370668
8.1400308e-06
0.00069132158
9.0202837e-06
8.1539127e-06
0.00094145269
5.9413311e-06
-0.00094130913
0.00094176715
7.7423497e-06
0.00094210939
9.0426829e-06
0.00094240617
9.9146337e-06
0.0009426652
1.0614115e-05
0.00094289827
1.1228756e-05
0.00094310692
1.1758158e-05
0.00094329519
1.2225996e-05
0.00094346715
1.2657677e-05
0.00094362595
1.3064214e-05
0.00094377361
1.344937e-05
0.0009439123
1.3817979e-05
0.00094404237
1.416904e-05
0.0009441657
1.4506907e-05
0.00094428268
1.4829332e-05
0.00094439388
1.5134074e-05
0.00094449924
1.5417573e-05
0.00094459798
1.5675234e-05
0.00094468935
1.5905549e-05
0.00094477258
1.6109703e-05
0.00094484679
1.6289349e-05
0.00094491146
1.6447497e-05
0.00094496614
1.6588635e-05
0.00094501027
1.671986e-05
0.00094504383
1.6851342e-05
0.00094506772
1.6997374e-05
0.00094508227
1.7168143e-05
0.00094508791
1.7372036e-05
0.00094508563
1.7619094e-05
0.0009450753
1.7911364e-05
0.00094505552
1.8244739e-05
0.00094502338
1.8612232e-05
0.0009449751
1.9010019e-05
0.00094490248
1.9429845e-05
0.00094479079
1.986634e-05
0.00094461961
2.0320503e-05
0.0009443589
2.0788509e-05
0.00094396333
2.1267544e-05
0.00094335088
2.1753957e-05
0.0009423743
2.2235259e-05
0.00094085397
2.2700018e-05
0.00093862563
2.3138795e-05
0.00093555918
2.353485e-05
0.00093160024
2.3850271e-05
0.00092682682
2.4012859e-05
0.00092143094
2.3981065e-05
0.00091565258
2.3757539e-05
0.00090973816
2.3357198e-05
0.00090388583
2.2819936e-05
0.000898208
2.2212835e-05
0.00089273776
2.1602815e-05
0.0008874617
2.1029489e-05
0.00088235357
2.0501998e-05
0.00087739348
2.0012066e-05
0.0008725708
1.9551326e-05
0.00086788006
1.9113444e-05
0.00086331634
1.8694871e-05
0.00085887338
1.8294588e-05
0.00085454382
1.7914035e-05
0.00085032103
1.7550922e-05
0.00084619956
1.7202878e-05
0.00084217461
1.6869429e-05
0.00083824173
1.6549403e-05
0.00083439678
1.6241355e-05
0.00083063581
1.5945062e-05
0.00082695521
1.5659933e-05
0.00082335175
1.53847e-05
0.0008198223
1.5119342e-05
0.00081636398
1.4863307e-05
0.00081297409
1.4615802e-05
0.00080965008
1.437683e-05
0.00080638953
1.4145781e-05
0.00080319016
1.3922419e-05
0.0008000498
1.3706409e-05
0.00079696639
1.3497318e-05
0.00079393795
1.3295048e-05
0.00079096261
1.3099235e-05
0.00078803854
1.2909681e-05
0.00078516403
1.2726142e-05
0.00078233742
1.25484e-05
0.00077955709
1.237625e-05
0.00077682153
1.2209502e-05
0.00077412923
1.2047984e-05
0.00077147878
1.1891543e-05
0.00076886878
1.1740047e-05
0.00076629788
1.1593391e-05
0.00076376476
1.1451515e-05
0.00076126812
1.1314384e-05
0.00075880665
1.1182128e-05
0.00075637907
1.1054781e-05
0.00075398389
1.0933133e-05
0.00075161987
1.0816941e-05
0.00074928467
1.0709851e-05
0.00074697751
1.0609059e-05
0.0007446921
1.0530833e-05
0.00074243111
1.046106e-05
0.00074016187
1.0495701e-05
0.00073797795
1.0323953e-05
0.00073534409
1.1654137e-05
1.0100722e-05
0.00097298845
5.8237111e-06
-0.00097287083
0.00097326262
7.4681818e-06
0.00097357801
8.7272899e-06
0.00097386599
9.6266614e-06
0.00097412382
1.0356285e-05
0.00097435877
1.09938e-05
0.0009745716
1.1545337e-05
0.00097476476
1.203283e-05
0.00097494183
1.2480611e-05
0.0009751057
1.2900344e-05
0.00097525839
1.3296673e-05
0.00097540189
1.3674483e-05
0.00097553689
1.4034036e-05
0.00097566496
1.4378841e-05
0.0009757867
1.4707596e-05
0.00097590257
1.5018197e-05
0.00097601258
1.5307568e-05
0.00097611606
1.5571751e-05
0.00097621235
1.5809264e-05
0.0009763009
1.6021149e-05
0.00097638113
1.6209115e-05
0.00097645255
1.6376077e-05
0.00097651473
1.6526455e-05
0.00097656744
1.6667156e-05
0.00097661074
1.6808037e-05
0.00097664572
1.6962397e-05
0.00097667355
1.7140309e-05
0.00097669544
1.7350145e-05
0.00097671326
1.7601272e-05
0.00097672831
1.7896315e-05
0.00097674112
1.8231932e-05
0.00097675153
1.8601824e-05
0.0009767593
1.9002248e-05
0.00097676311
1.9426036e-05
0.00097676085
1.9868596e-05
0.00097675018
2.0331177e-05
0.00097672741
2.0811273e-05
0.00097668783
2.1307123e-05
0.00097662458
2.1817209e-05
0.00097652405
2.2335789e-05
0.00097636435
2.2859717e-05
0.00097611425
2.3388899e-05
0.00097572727
2.392183e-05
0.00097512098
2.4456561e-05
0.0009741522
2.4981638e-05
0.0009726479
2.5485362e-05
0.00097045053
2.595491e-05
0.00096743533
2.6372406e-05
0.00096358257
2.6672691e-05
0.00095900194
2.6793469e-05
0.00095388026
2.6724494e-05
0.00094844543
2.6464317e-05
0.00094290887
2.6038555e-05
0.00093741589
2.5505045e-05
0.0009320362
2.4931016e-05
0.00092678694
2.4362707e-05
0.00092166302
2.3818785e-05
0.00091665737
2.3300242e-05
0.000911767
2.2804405e-05
0.00090699145
2.2326475e-05
0.00090232927
2.1865055e-05
0.00089777686
2.1421839e-05
0.0008933297
2.0996561e-05
0.0008889836
2.0587455e-05
0.00088473475
2.0193911e-05
0.00088057953
1.9815153e-05
0.00087651446
1.9449772e-05
0.00087253609
1.9097713e-05
0.00086864118
1.8758222e-05
0.00086482671
1.8430269e-05
0.00086108976
1.8113777e-05
0.00085742757
1.7807975e-05
0.00085383748
1.7512506e-05
0.00085031698
1.7226913e-05
0.00084686366
1.6950633e-05
0.00084347522
1.6683487e-05
0.00084014945
1.6425004e-05
0.00083688423
1.6174901e-05
0.00083367753
1.5932848e-05
0.00083052738
1.569855e-05
0.0008274319
1.5471729e-05
0.00082438928
1.5252125e-05
0.00082139776
1.5039506e-05
0.00081845564
1.4833658e-05
0.00081556129
1.4634398e-05
0.00081271311
1.4441572e-05
0.00080990953
1.425509e-05
0.00080714904
1.4074879e-05
0.00080443008
1.3901086e-05
0.00080175116
1.3733701e-05
0.00079911058
1.3573716e-05
0.00079650687
1.3420647e-05
0.00079393748
1.3279247e-05
0.00079140145
1.3145088e-05
0.0007888921
1.3040182e-05
0.00078641239
1.2940771e-05
0.00078392694
1.2981144e-05
0.00078154136
1.2709539e-05
0.00077865192
1.4543574e-05
1.2202929e-05
0.0010055871
5.7252869e-06
-0.0010054887
0.0010058266
7.2286775e-06
0.0010061147
8.4392235e-06
0.0010063902
9.3512118e-06
0.0010066441
1.010239e-05
0.0010068792
1.0758667e-05
0.0010070948
1.1329702e-05
0.0010072921
1.1835562e-05
0.0010074738
1.2298915e-05
0.0010076425
1.2731672e-05
0.0010078
1.3139163e-05
0.0010079481
1.3526363e-05
0.0010080877
1.3894448e-05
0.0010082201
1.424643e-05
0.001008346
1.458166e-05
0.0010084659
1.4898304e-05
0.0010085798
1.519371e-05
0.001008687
1.5464484e-05
0.0010087871
1.5709225e-05
0.0010088794
1.5928833e-05
0.0010089635
1.6125015e-05
0.0010090389
1.6300628e-05
0.0010091054
1.6460035e-05
0.0010091626
1.660993e-05
0.0010092109
1.6759757e-05
0.0010092513
1.6921977e-05
0.0010092851
1.710653e-05
0.0010093136
1.732165e-05
0.0010093387
1.7576167e-05
0.001009362
1.7873e-05
0.0010093845
1.8209388e-05
0.0010094066
1.8579754e-05
0.0010094284
1.8980436e-05
0.0010094495
1.9404976e-05
0.001009469
1.9849027e-05
0.0010094867
2.0313515e-05
0.0010095016
2.0796382e-05
0.0010095128
2.1295945e-05
0.0010095191
2.1810868e-05
0.0010095183
2.2336573e-05
0.0010095071
2.2870986e-05
0.0010094809
2.3415076e-05
0.0010094337
2.3968968e-05
0.001009357
2.4533328e-05
0.0010092338
2.5104807e-05
0.0010090376
2.568157e-05
0.0010087293
2.6263173e-05
0.0010082519
2.6849839e-05
0.0010074931
2.7431484e-05
0.001006293
2.7993547e-05
0.0010044935
2.8523982e-05
0.0010019525
2.900539e-05
0.00099861138
2.9379645e-05
0.00099453084
2.9585586e-05
0.00098985812
2.960374e-05
0.0009847963
2.9424523e-05
0.00097954583
2.9069258e-05
0.00097425387
2.8592199e-05
0.00096900235
2.8055929e-05
0.00096382445
2.7504377e-05
0.00095873028
2.695922e-05
0.00095372443
2.642769e-05
0.00094881187
2.5909125e-05
0.00094399666
2.540266e-05
0.00093928008
2.4910492e-05
0.00093466114
2.4434093e-05
0.00093013808
2.3972837e-05
0.00092570884
2.3526948e-05
0.00092137124
2.3095826e-05
0.00091712289
2.267861e-05
0.00091296126
2.2275416e-05
0.00090888378
2.1885452e-05
0.00090488793
2.1508357e-05
0.0009009712
2.1143643e-05
0.00089713114
2.0790687e-05
0.00089336535
2.044928e-05
0.00088967148
2.0118872e-05
0.00088604725
1.9799128e-05
0.00088249045
1.9489653e-05
0.00087899891
1.9190085e-05
0.00087557056
1.8900085e-05
0.00087220335
1.8619333e-05
0.00086889532
1.8347536e-05
0.00086564455
1.8084425e-05
0.00086244918
1.7829766e-05
0.0008593074
1.7583356e-05
0.00085621742
1.7345071e-05
0.00085317749
1.7114803e-05
0.00085018587
1.689271e-05
0.00084724083
1.6678737e-05
0.00084434047
1.647408e-05
0.00084148311
1.6278008e-05
0.00083866596
1.6096394e-05
0.00083588789
1.5923158e-05
0.00083314187
1.5786204e-05
0.00083043105
1.5651592e-05
0.0008277175
1.5694695e-05
0.00082511838
1.5308656e-05
0.00082196276
1.7699197e-05
1.4473212e-05
0.0010392822
5.6414836e-06
-0.0010391984
0.0010394917
7.0191732e-06
0.0010397536
8.1773793e-06
0.0010400144
9.0904121e-06
0.0010402617
9.855025e-06
0.0010404949
1.0525492e-05
0.0010407117
1.1112964e-05
0.0010409119
1.163537e-05
0.0010410974
1.2113359e-05
0.0010412704
1.2558705e-05
0.0010414324
1.2977182e-05
0.0010415849
1.3373816e-05
0.0010417289
1.3750448e-05
0.0010418656
1.4109784e-05
0.0010419956
1.4451652e-05
0.0010421193
1.4774533e-05
0.0010422369
1.5076158e-05
0.0010423477
1.535364e-05
0.0010424513
1.560569e-05
0.001042547
1.5833095e-05
0.0010426345
1.6037534e-05
0.0010427133
1.622181e-05
0.0010427831
1.6390214e-05
0.0010428438
1.6549227e-05
0.0010428957
1.670787e-05
0.0010429398
1.6877838e-05
0.0010429775
1.7068893e-05
0.00104301
1.7289113e-05
0.0010430394
1.7546836e-05
0.0010430671
1.784521e-05
0.0010430945
1.8182034e-05
0.0010431219
1.8552354e-05
0.0010431497
1.8952632e-05
0.0010431776
1.9377043e-05
0.0010432053
1.9821408e-05
0.0010432325
2.0286261e-05
0.0010432591
2.076982e-05
0.0010432846
2.1270395e-05
0.0010433088
2.1786653e-05
0.0010433309
2.2314532e-05
0.0010433497
2.2852152e-05
0.0010433642
2.3400565e-05
0.001043373
2.3960175e-05
0.0010433745
2.4531828e-05
0.0010433658
2.5113508e-05
0.0010433425
2.5704851e-05
0.0010432985
2.6307231e-05
0.0010432258
2.6922556e-05
0.0010431098
2.7547475e-05
0.001042925
2.8178342e-05
0.0010426337
2.8815261e-05
0.0010421816
2.9457456e-05
0.0010414663
3.0094972e-05
0.0010403399
3.0711989e-05
0.0010386486
3.1295069e-05
0.0010362539
3.1819138e-05
0.0010330966
3.2226565e-05
0.0010292245
3.2464314e-05
0.0010247704
3.2510099e-05
0.001019921
3.2353746e-05
0.0010148582
3.2022022e-05
0.001009715
3.1570864e-05
0.0010045685
3.105563e-05
0.00099945591
3.0515259e-05
0.00099439589
2.9970506e-05
0.00098940155
2.9428434e-05
0.00098448325
2.8891136e-05
0.00097964759
2.8362615e-05
0.00097489781
2.7845604e-05
0.00097023526
2.7341164e-05
0.00096566019
2.6850481e-05
0.00096117223
2.6373417e-05
0.00095677037
2.5910216e-05
0.00095245321
2.5460801e-05
0.00094821912
2.5024779e-05
0.00094406626
2.4602137e-05
0.0009399927
2.4192428e-05
0.00093599643
2.3795399e-05
0.0009320754
2.3410691e-05
0.00092822752
2.303796e-05
0.00092445074
2.2676868e-05
0.00092074299
2.2327081e-05
0.00091710224
2.1988286e-05
0.00091352648
2.1660188e-05
0.00091001372
2.1342524e-05
0.00090656201
2.1035064e-05
0.00090316942
2.0737661e-05
0.00089983404
2.0450182e-05
0.00089655394
2.0172808e-05
0.00089332724
1.9905446e-05
0.00089015182
1.9649498e-05
0.00088702583
1.9403997e-05
0.00088394628
1.9175939e-05
0.00088091185
1.8957594e-05
0.00087791519
1.8782862e-05
0.00087495961
1.8607172e-05
0.00087200469
1.8649618e-05
0.00086917901
1.8134336e-05
0.00086574419
2.1134017e-05
1.69244e-05
0.0010741064
5.568646e-06
-0.0010740336
0.0010742907
6.8348841e-06
0.0010745287
7.9394171e-06
0.0010747743
8.8448254e-06
0.0010750133
9.6159594e-06
0.0010752426
1.0296186e-05
0.0010754587
1.0896842e-05
0.0010756605
1.1433605e-05
0.0010758489
1.1924927e-05
0.0010760255
1.2382133e-05
0.0010761915
1.281121e-05
0.0010763482
1.3217149e-05
0.0010764963
1.3602255e-05
0.0010766371
1.3969032e-05
0.0010767711
1.4317665e-05
0.0010768987
1.4646945e-05
0.0010770199
1.4954959e-05
0.0010771342
1.5239267e-05
0.0010772412
1.5498718e-05
0.0010773403
1.573401e-05
0.001077431
1.5946785e-05
0.0010775131
1.6139789e-05
0.0010775861
1.6317225e-05
0.0010776499
1.6485361e-05
0.001077705
1.66528e-05
0.0010777523
1.6830536e-05
0.0010777931
1.7028096e-05
0.0010778288
1.72534e-05
0.0010778613
1.7514348e-05
0.0010778922
1.7814262e-05
0.0010779228
1.8151472e-05
0.0010779536
1.8521599e-05
0.0010779849
1.8921272e-05
0.0010780167
1.9345217e-05
0.0010780487
1.9789444e-05
0.0010780808
2.0254142e-05
0.001078113
2.0737697e-05
0.0010781449
2.1238411e-05
0.0010781767
2.1754938e-05
0.0010782076
2.2283587e-05
0.0010782372
2.2822536e-05
0.0010782651
2.3372723e-05
0.0010782906
2.3934633e-05
0.0010783134
2.4509064e-05
0.0010783324
2.5094426e-05
0.0010783466
2.5690654e-05
0.0010783544
2.6299445e-05
0.0010783541
2.6922871e-05
0.0010783429
2.7558722e-05
0.001078316
2.8205214e-05
0.0010782667
2.886454e-05
0.0010781861
2.9538066e-05
0.0010780583
3.0222759e-05
0.0010778559
3.0914414e-05
0.0010775386
3.1612333e-05
0.0010770442
3.2313518e-05
0.0010762651
3.300575e-05
0.0010750574
3.3671982e-05
0.0010732704
3.4297141e-05
0.0010707858
3.4838316e-05
0.0010675685
3.5239259e-05
0.001063678
3.5461445e-05
0.001059255
3.5478582e-05
0.0010544765
3.5293737e-05
0.0010495003
3.4946791e-05
0.0010444364
3.449231e-05
0.0010393488
3.3978696e-05
0.0010342731
3.3438357e-05
0.0010292324
3.2886237e-05
0.0010242442
3.2329371e-05
0.0010193205
3.1774239e-05
0.0010144688
3.1225108e-05
0.0010096938
3.0685214e-05
0.0010049983
3.0156276e-05
0.0010003839
2.9639156e-05
0.00099585121
2.9134857e-05
0.0009914
2.8643639e-05
0.00098702963
2.8165764e-05
0.00098273908
2.7701242e-05
0.00097852704
2.7250004e-05
0.000974392
2.6811912e-05
0.0009703323
2.6386772e-05
0.00096634622
2.5974373e-05
0.00096243192
2.557449e-05
0.00095858753
2.5186908e-05
0.00095481117
2.4811428e-05
0.0009511009
2.4447932e-05
0.00094745478
2.4096301e-05
0.00094387082
2.3756769e-05
0.00094034703
2.3429233e-05
0.00093688121
2.311532e-05
0.00093347135
2.2813853e-05
0.00093011434
2.2532957e-05
0.00092680865
2.2263279e-05
0.00092354672
2.2044795e-05
0.00092033196
2.1821927e-05
0.00091712154
2.1860045e-05
0.00091405544
2.1200429e-05
0.00091032685
2.4862609e-05
1.9569649e-05
0.0011100942
5.5038876e-06
-0.0011100295
0.0011102577
6.6714482e-06
0.0011104746
7.7225307e-06
0.0011107055
8.6139213e-06
0.0011109355
9.3859493e-06
0.0011111597
1.0071999e-05
0.0011113738
1.0682719e-05
0.0011115759
1.1231531e-05
0.0011117661
1.1734656e-05
0.0011119455
1.2202764e-05
0.0011121149
1.264185e-05
0.0011122752
1.3056789e-05
0.0011124273
1.3450182e-05
0.0011125719
1.3824382e-05
0.0011127098
1.4179837e-05
0.0011128411
1.4515627e-05
0.0011129659
1.483016e-05
0.0011130838
1.5121394e-05
0.0011131942
1.5388324e-05
0.0011132966
1.5631585e-05
0.0011133906
1.5852778e-05
0.0011134758
1.6054586e-05
0.0011135519
1.6241113e-05
0.0011136189
1.6418409e-05
0.001113677
1.6594671e-05
0.0011137273
1.6780244e-05
0.001113771
1.6984379e-05
0.0011138096
1.7214828e-05
0.0011138448
1.7479106e-05
0.0011138784
1.7780665e-05
0.0011139116
1.8118324e-05
0.0011139449
1.8488257e-05
0.0011139789
1.888729e-05
0.0011140134
1.9310641e-05
0.0011140484
1.9754524e-05
0.0011140837
2.0218839e-05
0.0011141193
2.0702086e-05
0.0011141551
2.120257e-05
0.0011141911
2.1718931e-05
0.0011142269
2.2247794e-05
0.0011142621
2.2787374e-05
0.0011142964
2.3338458e-05
0.0011143295
2.3901528e-05
0.0011143612
2.4477308e-05
0.0011143912
2.5064458e-05
0.0011144189
2.5662983e-05
0.0011144437
2.6274584e-05
0.0011144653
2.6901282e-05
0.0011144827
2.754134e-05
0.0011144944
2.8193459e-05
0.0011144988
2.8860147e-05
0.0011144937
2.9543179e-05
0.0011144757
3.0240779e-05
0.0011144392
3.095093e-05
0.0011143762
3.1675324e-05
0.0011142753
3.2414365e-05
0.0011141166
3.3164545e-05
0.0011138669
3.3921629e-05
0.0011134794
3.4684651e-05
0.001112873
3.5444727e-05
0.0011119261
3.6186173e-05
0.0011104946
3.6892917e-05
0.0011084409
3.7532257e-05
0.0011056827
3.8051984e-05