/*--------------------------------*- C++ -*----------------------------------*\
  =========                 |
  \\      /  F ield         | OpenFOAM: The Open Source CFD Toolbox
   \\    /   O peration     | Website:  https://openfoam.org
    \\  /    A nd           | Version:  12
     \\/     M anipulation  |
\*---------------------------------------------------------------------------*/
FoamFile
{
    format      ascii;
    class       volVectorField;
    location    "1500";
    object      U;
}
// * * * * * * * * * * * * * * * * * * * * * * * * * * * * * * * * * * * * * //

dimensions      [0 1 -1 0 0 0 0];

internalField   nonuniform List<vector> 
7480
(
(0.98708409 0.00066967602 8.6057856e-17)
(0.97583185 0.0015321479 0)
(0.96338928 0.0021529145 0)
(0.95020286 0.0025518532 0)
(0.93667403 0.0028190538 0)
(0.92307725 0.0029836822 0)
(0.90951312 0.0030633871 0)
(0.8960255 0.0030652225 0)
(0.8826551 0.0030256647 0)
(0.86943637 0.0029381799 0)
(0.85639707 0.0028173308 0)
(0.84355948 0.0026728323 0)
(0.83094817 0.0025109269 0)
(0.81859054 0.0023359067 0)
(0.80651921 0.0021509507 0)
(0.79477756 0.001957619 0)
(0.78342932 0.0017562029 0)
(0.77256761 0.0015510266 0)
(0.76227094 0.0013478851 0)
(0.75260746 0.0011492478 0)
(0.74363731 0.00095574682 0)
(0.73541081 0.00077024236 0)
(0.72796384 0.00059672895 0)
(0.72132071 0.0004396115 0)
(0.71547959 0.00030287878 0)
(0.71039798 0.00019268734 0)
(0.7059967 0.00011390473 0)
(0.70216965 6.6930965e-05 0)
(0.69878963 4.7704839e-05 0)
(0.69572595 4.9399897e-05 0)
(0.69286595 6.3386034e-05 0)
(0.69012774 8.1217225e-05 0)
(0.68746015 9.6886677e-05 0)
(0.6848356 0.00010719836 0)
(0.68224156 0.00011179499 0)
(0.67966885 0.00011273917 0)
(0.67710554 0.00011262637 0)
(0.6745386 0.00011320204 0)
(0.67195781 0.00011491538 0)
(0.66936044 0.00011697844 0)
(0.66675277 0.00011845953 0)
(0.66414569 0.00011883751 0)
(0.66154988 0.00011798192 0)
(0.65897207 0.00011615284 0)
(0.65641542 0.000113682 0)
(0.65388207 0.00011083523 0)
(0.65137434 0.00010776113 0)
(0.64889433 0.00010453137 0)
(0.64644371 0.00010117862 0)
(0.64402402 9.7757999e-05 0)
(0.64163604 9.4365406e-05 0)
(0.63927951 9.1053467e-05 0)
(0.636954 8.782214e-05 0)
(0.6346597 8.4658692e-05 0)
(0.63239666 8.1590341e-05 0)
(0.6301642 7.8632228e-05 0)
(0.62796153 7.5775909e-05 0)
(0.62578828 7.3016193e-05 0)
(0.62364382 7.0366757e-05 0)
(0.62152741 6.7812988e-05 0)
(0.61943842 6.5349116e-05 0)
(0.61737623 6.2983759e-05 0)
(0.61534004 6.0712168e-05 0)
(0.61332919 5.8523024e-05 0)
(0.61134318 5.6415805e-05 0)
(0.60938137 5.438875e-05 0)
(0.60744317 5.2434376e-05 0)
(0.60552806 5.0554363e-05 0)
(0.60363539 4.8746183e-05 0)
(0.60176462 4.7004655e-05 0)
(0.59991518 4.5330429e-05 0)
(0.59808649 4.3719258e-05 0)
(0.59627802 4.2169209e-05 0)
(0.5944892 4.0677855e-05 0)
(0.59271955 3.9241891e-05 0)
(0.59096855 3.7860284e-05 0)
(0.58923571 3.6530178e-05 0)
(0.58752056 3.5249808e-05 0)
(0.58582261 3.4017106e-05 0)
(0.58414143 3.2830152e-05 0)
(0.58247658 3.168713e-05 0)
(0.58082762 3.0586316e-05 0)
(0.57919414 2.952609e-05 0)
(0.57757572 2.8504938e-05 0)
(0.57597197 2.7521425e-05 0)
(0.57438248 2.6574277e-05 0)
(0.57280686 2.5662214e-05 0)
(0.57124467 2.4784409e-05 0)
(0.56969553 2.3939564e-05 0)
(0.56815886 2.3128264e-05 0)
(0.56663444 2.2347878e-05 0)
(0.56512092 2.1605035e-05 0)
(0.56361922 2.0887704e-05 0)
(0.56212415 2.0233377e-05 0)
(0.56064357 1.9570124e-05 0)
(0.55915267 1.9133314e-05 0)
(0.55769506 1.792589e-05 -1.0079621e-20)
(0.55614162 3.13801e-05 8.2188216e-20)
(0.55486208 1.7853028e-05 -2.547425e-19)
(0.5524431 3.3173209e-05 -4.2033053e-18)
(0.99612768 0.0023885009 0)
(0.99647287 0.0034403444 0)
(0.996739 0.0037459917 0)
(0.99649888 0.0036342482 0)
(0.99573176 0.0034633228 0)
(0.99448397 0.0032766782 0)
(0.99273384 0.0030902103 0)
(0.99044791 0.0029220267 0)
(0.98761502 0.0027732219 0)
(0.98423657 0.0026469287 0)
(0.98031495 0.0025417722 0)
(0.97585064 0.0024524166 0)
(0.9708465 0.0023784747 0)
(0.96530669 0.0023138289 0)
(0.95923259 0.0022551624 0)
(0.95262599 0.0021994413 0)
(0.94547975 0.0021389859 0)
(0.93781167 0.0020614149 0)
(0.9296964 0.0019670625 0)
(0.92119563 0.0018628072 0)
(0.91238162 0.0017499973 0)
(0.90334256 0.0016285533 0)
(0.8941871 0.0014983965 0)
(0.88502866 0.0013597435 0)
(0.87599552 0.0012143904 0)
(0.86722573 0.0010630617 0)
(0.85888085 0.00091343832 0)
(0.85109189 0.00077574045 0)
(0.84392886 0.00065504124 0)
(0.83739383 0.00055645653 0)
(0.83143536 0.00048284177 0)
(0.82596833 0.00043342281 0)
(0.82089023 0.00040495952 0)
(0.8161064 0.00039159248 0)
(0.81154717 0.00038587323 0)
(0.80716805 0.00038157184 0)
(0.80294373 0.00037528978 0)
(0.79886074 0.00036593556 0)
(0.79490853 0.00035384403 0)
(0.79107527 0.00033985329 0)
(0.78734743 0.00032510261 0)
(0.78371043 0.00031074573 0)
(0.78015033 0.0002973586 0)
(0.77665674 0.00028501 0)
(0.7732242 0.00027337495 0)
(0.76985142 0.00026219585 0)
(0.76653847 0.00025138406 0)
(0.76328409 0.00024093483 0)
(0.7600858 0.0002308156 0)
(0.75694149 0.0002210291 0)
(0.75384993 0.00021164034 0)
(0.75080998 0.00020264305 0)
(0.74782051 0.0001939936 0)
(0.74488062 0.00018566645 0)
(0.74198929 0.00017770661 0)
(0.73914509 0.0001701142 0)
(0.73634662 0.00016285305 0)
(0.73359292 0.00015589994 0)
(0.73088295 0.00014928104 0)
(0.72821516 0.00014296579 0)
(0.72558835 0.00013692864 0)
(0.72300152 0.00013117391 0)
(0.72045351 0.00012568478 0)
(0.71794322 0.00012043783 0)
(0.71546966 0.00011542987 0)
(0.71303177 0.00011065147 0)
(0.71062851 0.00010608317 0)
(0.70825896 0.00010172348 0)
(0.7059221 9.7561582e-05 0)
(0.703617 9.3583581e-05 0)
(0.70134276 8.9786801e-05 0)
(0.69909846 8.6159009e-05 0)
(0.69688324 8.2693441e-05 0)
(0.69469623 7.9382158e-05 0)
(0.69253663 7.6216065e-05 0)
(0.69040363 7.3190352e-05 0)
(0.68829647 7.0296851e-05 0)
(0.6862144 6.7529863e-05 0)
(0.68415668 6.4883128e-05 0)
(0.6821226 6.2350891e-05 0)
(0.6801115 5.9927714e-05 0)
(0.67812271 5.7608464e-05 0)
(0.67615557 5.5388322e-05 0)
(0.67420948 5.3262776e-05 0)
(0.6722838 5.1227589e-05 0)
(0.67037794 4.9278889e-05 0)
(0.6684913 4.7412975e-05 0)
(0.66662325 4.5626885e-05 0)
(0.66477323 4.39173e-05 0)
(0.66294047 4.2283395e-05 0)
(0.66112455 4.0720942e-05 0)
(0.65932391 3.9236946e-05 0)
(0.65753934 3.7817666e-05 0)
(0.65576524 3.6508274e-05 0)
(0.65400963 3.5230027e-05 0)
(0.65224626 3.4239274e-05 0)
(0.65052072 3.317545e-05 1.0206846e-20)
(0.6486953 3.4515935e-05 0)
(0.64716762 2.9586696e-05 0)
(0.64435363 3.8398414e-05 0)
(0.9964032 0.0021318464 0)
(0.99685411 0.0027546805 0)
(0.99741768 0.0029543382 0)
(0.99784282 0.0030252875 0)
(0.99813891 0.0031181352 0)
(0.99838212 0.0032236782 0)
(0.99858779 0.0033213645 0)
(0.99874593 0.0034053386 0)
(0.99885271 0.00347576 0)
(0.99890819 0.0035305351 0)
(0.99890728 0.0035671143 0)
(0.9988408 0.0035906251 0)
(0.99869739 0.0035893221 0)
(0.99846325 0.0035774582 0)
(0.99812044 0.0035492287 0)
(0.99764398 0.0035059566 0)
(0.99700486 0.0034469689 0)
(0.99613328 0.0033721583 0)
(0.99492243 0.0032819191 0)
(0.99328884 0.0031759659 0)
(0.99114725 0.0030545887 0)
(0.98840665 0.0029191084 0)
(0.98497003 0.0027715765 0)
(0.98074594 0.0026153408 0)
(0.9756503 0.0024549957 0)
(0.96962558 0.0022971334 0)
(0.96262855 0.0021323373 0)
(0.95478321 0.0019580212 0)
(0.94626029 0.0017880945 0)
(0.93730892 0.0016252439 0)
(0.92821622 0.0014694018 0)
(0.91926584 0.0013202302 0)
(0.91069788 0.0011766064 0)
(0.90269839 0.0010448182 0)
(0.89535136 0.00093311053 0)
(0.88863013 0.00084352501 0)
(0.88244651 0.00077600852 0)
(0.87669015 0.00072821456 0)
(0.87125691 0.00069554636 0)
(0.86607144 0.00067149276 0)
(0.86108945 0.00064995258 0)
(0.85628758 0.00062723085 0)
(0.85165214 0.00060245509 0)
(0.84717097 0.00057633989 0)
(0.84283101 0.00054979253 0)
(0.83861865 0.00052377292 0)
(0.83452067 0.00049902801 0)
(0.83052513 0.0004758409 0)
(0.82662282 0.00045397773 0)
(0.82280814 0.00043318354 0)
(0.81907744 0.00041342744 0)
(0.81542696 0.00039464481 0)
(0.81185246 0.00037674146 0)
(0.8083502 0.00035965394 0)
(0.8049171 0.00034340989 0)
(0.80155041 0.00032796884 0)
(0.7982476 0.00031325591 0)
(0.79500654 0.00029922552 0)
(0.79182509 0.0002859012 0)
(0.78870092 0.00027322409 0)
(0.78563209 0.00026114625 0)
(0.78261683 0.00024966079 0)
(0.77965332 0.000238732 0)
(0.77673982 0.00022831564 0)
(0.77387479 0.00021839789 0)
(0.77105663 0.00020895647 0)
(0.76828383 0.00019995466 0)
(0.765555 0.00019138261 0)
(0.76286871 0.00018321727 0)
(0.76022365 0.00017543154 0)
(0.75761854 0.00016801517 0)
(0.75505212 0.00016094448 0)
(0.75252319 0.00015420407 0)
(0.75003057 0.00014777704 0)
(0.74757316 0.00014164515 0)
(0.74514988 0.00013579673 0)
(0.74275966 0.00013021553 0)
(0.7404015 0.0001248891 0)
(0.73807442 0.00011980441 0)
(0.73577746 0.00011494941 0)
(0.73350971 0.00011031272 0)
(0.73127029 0.00010588361 0)
(0.72905833 0.00010165201 0)
(0.72687299 9.7608477e-05 0)
(0.72471347 9.3744183e-05 0)
(0.72257896 9.0050957e-05 0)
(0.72046868 8.6521182e-05 0)
(0.71838182 8.3148209e-05 0)
(0.71631764 7.9925785e-05 0)
(0.71427519 7.6849868e-05 0)
(0.7122539 7.3915689e-05 0)
(0.71025202 7.1126092e-05 0)
(0.70827019 6.8475766e-05 0)
(0.70630261 6.5997217e-05 0)
(0.70435712 6.365584e-05 0)
(0.70240723 6.1669995e-05 0)
(0.70049855 5.9859915e-05 7.1159512e-21)
(0.69849041 5.8682929e-05 0)
(0.69679622 5.7495194e-05 0)
(0.69371444 6.1244897e-05 -2.6903059e-20)
(0.99651858 0.0020306893 0)
(0.99692445 0.0026515632 0)
(0.99744521 0.0029807683 0)
(0.9978621 0.0031323247 0)
(0.99816676 0.0032257776 0)
(0.9984261 0.0032821704 0)
(0.99866066 0.0032946211 0)
(0.99886647 0.0032835169 0)
(0.99904782 0.0032579316 0)
(0.99921202 0.0032237519 0)
(0.99936158 0.0031841402 0)
(0.99949824 0.0031404456 0)
(0.99962294 0.0030978234 0)
(0.99973555 0.003055077 0)
(0.99983649 0.0030126704 0)
(0.99992492 0.0029707201 0)
(0.99999886 0.0029285784 0)
(1.0000552 0.002885443 0)
(1.0000885 0.0028412449 0)
(1.0000918 0.0027966689 0)
(1.000057 0.0027524126 0)
(0.99997278 0.0027087722 0)
(0.99982368 0.0026660652 0)
(0.9995895 0.0026245856 0)
(0.99924224 0.0025838854 0)
(0.99873871 0.0025428901 0)
(0.99801949 0.0025005786 0)
(0.9969118 0.0024552214 0)
(0.99526206 0.0024024595 0)
(0.99290715 0.0023391203 0)
(0.98969152 0.0022643704 0)
(0.98548757 0.002179046 0)
(0.98022728 0.0020884623 0)
(0.97390314 0.0019830177 0)
(0.96670815 0.0018593272 0)
(0.95891482 0.0017298175 0)
(0.95083526 0.0015983561 0)
(0.94277812 0.001467413 0)
(0.93500003 0.0013399977 0)
(0.92767902 0.0012238811 0)
(0.92087053 0.001124623 0)
(0.91453633 0.0010428717 0)
(0.90859286 0.00097753551 0)
(0.9029502 0.00092568509 0)
(0.89754229 0.00088241466 0)
(0.89233145 0.00084307328 0)
(0.88729949 0.00080485947 0)
(0.88243529 0.00076718863 0)
(0.87772788 0.00073019874 0)
(0.87316519 0.00069435689 0)
(0.86873458 0.00066034535 0)
(0.86442398 0.00062840933 0)
(0.86022338 0.00059834871 0)
(0.8561257 0.00056991193 0)
(0.85212558 0.00054303795 0)
(0.84821788 0.00051761803 0)
(0.84439755 0.00049351911 0)
(0.84066014 0.00047064866 0)
(0.83700179 0.00044900044 0)
(0.83341896 0.00042846409 0)
(0.82990856 0.00040895225 0)
(0.82646769 0.00039043955 0)
(0.82309345 0.00037286418 0)
(0.81978325 0.00035615241 0)
(0.81653477 0.00034027173 0)
(0.8133457 0.00032518112 0)
(0.8102139 0.00031082145 0)
(0.80713739 0.00029716893 0)
(0.80411421 0.00028418404 0)
(0.80114254 0.00027182282 0)
(0.79822068 0.0002600636 0)
(0.79534694 0.00024886845 0)
(0.79251972 0.0002382104 0)
(0.7897375 0.00022806104 0)
(0.7869988 0.00021839073 0)
(0.78430223 0.00020917861 0)
(0.78164642 0.00020039852 0)
(0.77903005 0.00019202929 0)
(0.77645188 0.00018404945 0)
(0.77391068 0.00017643907 0)
(0.77140528 0.00016917932 0)
(0.76893455 0.0001622525 0)
(0.76649739 0.00015564202 0)
(0.76409274 0.00014933231 0)
(0.76171958 0.00014330882 0)
(0.75937688 0.00013755803 0)
(0.75706368 0.00013206751 0)
(0.75477896 0.00012682593 0)
(0.75252181 0.00012182353 0)
(0.7502911 0.00011705185 0)
(0.74808606 0.00011250608 0)
(0.74590483 0.00010818182 0)
(0.74374779 0.00010408792 0)
(0.7416091 0.00010023023 0)
(0.73949622 9.6651426e-05 0)
(0.73738291 9.3456086e-05 0)
(0.73531408 9.0858066e-05 5.7046558e-21)
(0.73314809 8.8253271e-05 0)
(0.73131068 9.0856288e-05 0)
(0.72799762 8.7589294e-05 2.1753883e-20)
(0.99664595 0.0019691062 0)
(0.99698509 0.0025483585 0)
(0.99744039 0.0028746031 0)
(0.9978232 0.0030206068 0)
(0.99811859 0.0031074754 0)
(0.9983765 0.0031671312 0)
(0.99861303 0.0032024389 0)
(0.99882453 0.0032208225 0)
(0.99901384 0.00323025 0)
(0.99918747 0.0032335421 0)
(0.99934883 0.0032309465 0)
(0.99949914 0.0032239356 0)
(0.99963927 0.0032112313 0)
(0.99977015 0.0031935623 0)
(0.99989325 0.003170575 0)
(1.0000091 0.0031419457 0)
(1.000118 0.0031070476 0)
(1.0002195 0.0030651263 0)
(1.0003119 0.0030163166 0)
(1.0003938 0.0029612534 0)
(1.0004645 0.0029007168 0)
(1.0005224 0.0028360569 0)
(1.0005655 0.0027684117 0)
(1.0005913 0.0026990684 0)
(1.0005977 0.0026302383 0)
(1.0005827 0.0025646471 0)
(1.0005447 0.0025046259 0)
(1.0004778 0.0024519383 0)
(1.0003734 0.002408431 0)
(1.000218 0.0023747974 0)
(0.99999147 0.0023499798 0)
(0.99966247 0.002331456 0)
(0.99917853 0.0023137257 0)
(0.99845897 0.0022928389 0)
(0.99730458 0.0022651699 0)
(0.99552548 0.0022255782 0)
(0.99294412 0.0021721206 0)
(0.98941491 0.0021064406 0)
(0.98485493 0.0020296393 0)
(0.97929319 0.0019349196 0)
(0.97293911 0.0018246439 0)
(0.96606843 0.0017082817 0)
(0.95898332 0.0015895691 0)
(0.95195737 0.0014722915 0)
(0.94519369 0.001363622 0)
(0.93877627 0.0012678748 0)
(0.93270123 0.0011855876 0)
(0.92691647 0.0011162023 0)
(0.92136434 0.0010571561 0)
(0.91600486 0.0010045994 0)
(0.91081724 0.00095561756 0)
(0.90579086 0.00090895661 0)
(0.90091738 0.00086414833 0)
(0.89618753 0.0008212355 0)
(0.89159088 0.0007806294 0)
(0.88711702 0.00074244254 0)
(0.88275714 0.00070647223 0)
(0.87850463 0.00067250243 0)
(0.87435397 0.00064046183 0)
(0.87029989 0.0006101733 0)
(0.86633754 0.00058150074 0)
(0.86246249 0.00055438173 0)
(0.85867068 0.00052870625 0)
(0.85495848 0.00050435632 0)
(0.85132261 0.0004812707 0)
(0.84775987 0.00045937995 0)
(0.84426735 0.00043859321 0)
(0.84084236 0.00041886473 0)
(0.83748233 0.00040013219 0)
(0.83418487 0.00038232916 0)
(0.83094773 0.00036541731 0)
(0.82776876 0.00034934012 0)
(0.82464592 0.00033405503 0)
(0.82157725 0.00031951858 0)
(0.81856092 0.00030568657 0)
(0.81559515 0.00029252597 0)
(0.81267824 0.00027999807 0)
(0.80980856 0.00026807052 0)
(0.80698455 0.00025671118 0)
(0.80420469 0.00024589014 0)
(0.80146755 0.00023557926 0)
(0.79877173 0.0002257521 0)
(0.79611588 0.00021638389 0)
(0.79349871 0.00020745141 0)
(0.79091895 0.000198933 0)
(0.78837538 0.00019080849 0)
(0.7858668 0.00018305939 0)
(0.78339201 0.00017566858 0)
(0.7809499 0.0001686218 0)
(0.77853914 0.00016190506 0)
(0.77615881 0.00015551307 0)
(0.77380685 0.00014943237 0)
(0.77148346 0.00014368777 0)
(0.76918274 0.00013825224 0)
(0.76691173 0.00013325903 0)
(0.7646446 0.00012866373 0)
(0.76242539 0.00012520561 4.9293433e-21)
(0.76011191 0.00012066534 3.9725947e-20)
(0.75814183 0.00012814344 0)
(0.75461426 0.00011547345 0)
(0.99677457 0.0019184131 0)
(0.99705298 0.002444789 0)
(0.9974478 0.0027665859 0)
(0.99780099 0.0029312649 0)
(0.99808831 0.0030362726 0)
(0.99834268 0.0031113752 0)
(0.99857637 0.0031574728 0)
(0.99878661 0.0031824511 0)
(0.99897598 0.0031943765 0)
(0.99914992 0.0031965061 0)
(0.99931159 0.0031905618 0)
(0.9994628 0.0031781414 0)
(0.99960478 0.0031592715 0)
(0.99973857 0.0031357752 0)
(0.99986551 0.0031075917 0)
(0.99998618 0.0030747035 0)
(1.0001008 0.0030368449 0)
(1.000209 0.0029935868 0)
(1.0003099 0.0029452396 0)
(1.0004025 0.0028926429 0)
(1.000486 0.0028365391 0)
(1.0005596 0.002777724 0)
(1.0006228 0.0027172769 0)
(1.0006753 0.0026567066 0)
(1.0007163 0.0025976343 0)
(1.0007465 0.0025424813 0)
(1.0007666 0.0024925595 0)
(1.0007771 0.0024482251 0)
(1.0007787 0.0024102887 0)
(1.000772 0.0023781894 0)
(1.0007564 0.0023504559 0)
(1.0007297 0.0023253425 0)
(1.0006882 0.0023024652 0)
(1.0006269 0.0022817406 0)
(1.0005339 0.0022628703 0)
(1.0003899 0.0022463353 0)
(1.00017 0.0022322486 0)
(0.99983601 0.0022193298 0)
(0.99932978 0.0022042341 0)
(0.99853437 0.002184301 0)
(0.9972542 0.0021560026 0)
(0.99530463 0.0021154601 0)
(0.99252229 0.0020624874 0)
(0.98879607 0.0019968481 0)
(0.98412353 0.0019133863 0)
(0.97867491 0.0018154281 0)
(0.97268773 0.001711243 0)
(0.96643291 0.001603853 0)
(0.96016176 0.0014993018 0)
(0.95404104 0.0014031912 0)
(0.94814015 0.0013165891 0)
(0.94245914 0.001240284 0)
(0.93696925 0.0011733368 0)
(0.93164346 0.0011131968 0)
(0.92646663 0.0010575839 0)
(0.92143186 0.00100521 0)
(0.91653448 0.00095540979 0)
(0.91176861 0.00090806228 0)
(0.90712672 0.00086336589 0)
(0.90260105 0.0008212395 0)
(0.89818519 0.00078148822 0)
(0.89387393 0.00074398503 0)
(0.88966245 0.00070856175 0)
(0.88554615 0.00067505315 0)
(0.88152077 0.00064336062 0)
(0.87758229 0.00061337287 0)
(0.8737271 0.00058495583 0)
(0.86995187 0.00055803374 0)
(0.86625342 0.00053251415 0)
(0.86262879 0.00050830087 0)
(0.85907521 0.00048533253 0)
(0.85559006 0.00046352871 0)
(0.85217086 0.00044282659 0)
(0.84881524 0.00042316345 0)
(0.84552097 0.00040447676 0)
(0.84228593 0.00038671795 0)
(0.83910806 0.00036983272 0)
(0.83598542 0.00035377476 0)
(0.83291614 0.00033849869 0)
(0.82989842 0.00032396233 0)
(0.82693054 0.00031012604 0)
(0.82401084 0.00029695268 0)
(0.82113772 0.00028440747 0)
(0.81830964 0.00027245783 0)
(0.81552512 0.00026107343 0)
(0.81278269 0.00025022593 0)
(0.81008095 0.00023988947 0)
(0.8074185 0.00023003986 0)
(0.80479402 0.0002206572 0)
(0.80220601 0.00021172081 0)
(0.79965333 0.00020322412 0)
(0.7971338 0.00019514329 0)
(0.79464738 0.00018751932 0)
(0.79218813 0.00018028906 0)
(0.78976269 0.00017368265 0)
(0.78734561 0.00016748743 0)
(0.78498017 0.00016303856 0)
(0.78252344 0.00015604997 0)
(0.78042563 0.0001694161 5.58054e-20)
(0.77669104 0.00014535636 0)
(0.9969036 0.0018766857 0)
(0.99713345 0.0023526294 0)
(0.99747343 0.0026670927 0)
(0.99779647 0.0028467445 0)
(0.99807251 0.0029648785 0)
(0.99832084 0.0030487808 0)
(0.99855014 0.0031019561 0)
(0.99875811 0.003132849 0)
(0.99894665 0.0031495374 0)
(0.99912032 0.0031559524 0)
(0.99928194 0.0031538571 0)
(0.99943328 0.00314507 0)
(0.99957564 0.0031300903 0)
(0.99971008 0.0031103014 0)
(0.9998378 0.0030856864 0)
(0.99995941 0.0030561932 0)
(1.0000751 0.0030215787 0)
(1.0001846 0.0029814835 0)
(1.0002871 0.0029361314 0)
(1.0003819 0.0028862066 0)
(1.0004685 0.0028324291 0)
(1.0005462 0.0027756867 0)
(1.0006147 0.0027170565 0)
(1.0006736 0.002657894 0)
(1.0007227 0.0025999305 0)
(1.0007624 0.0025451166 0)
(1.0007942 0.0024945692 0)
(1.0008193 0.0024492415 0)
(1.0008392 0.0024100439 0)
(1.0008557 0.0023768946 0)
(1.0008698 0.0023489029 0)
(1.0008817 0.0023248067 0)
(1.0008911 0.0023040307 0)
(1.0008974 0.002285404 0)
(1.0008988 0.0022679878 0)
(1.0008929 0.0022517487 0)
(1.0008767 0.0022361461 0)
(1.000846 0.0022205942 0)
(1.0007953 0.0022051364 0)
(1.0007158 0.0021897018 0)
(1.0005886 0.0021740936 0)
(1.0003875 0.0021585496 0)
(1.0000743 0.0021426814 0)
(0.99959195 0.0021248252 0)
(0.99882736 0.0021033117 0)
(0.99759953 0.0020749805 0)
(0.99573495 0.0020361435 0)
(0.99308428 0.0019873324 0)
(0.98954204 0.0019225294 0)
(0.9851759 0.0018405756 0)
(0.98014432 0.0017502251 0)
(0.9746726 0.0016545983 0)
(0.96900319 0.0015589655 0)
(0.9633259 0.0014682878 0)
(0.95774714 0.001384056 0)
(0.95230267 0.0013075918 0)
(0.94699131 0.0012386648 0)
(0.94180353 0.0011757515 0)
(0.93673431 0.0011172934 0)
(0.93178294 0.001062204 0)
(0.92694902 0.0010099362 0)
(0.92222987 0.00096045003 0)
(0.91762089 0.00091370303 0)
(0.91311741 0.00086954223 0)
(0.90871543 0.00082782957 0)
(0.90441121 0.00078840994 0)
(0.90020109 0.00075111018 0)
(0.89608153 0.00071582411 0)
(0.89204906 0.00068242375 0)
(0.8881005 0.0006507771 0)
(0.88423283 0.00062079508 0)
(0.88044312 0.00059236888 0)
(0.8767286 0.00056541077 0)
(0.87308662 0.00053983437 0)
(0.86951468 0.00051555509 0)
(0.86601036 0.00049250541 0)
(0.86257134 0.0004706123 0)
(0.85919542 0.00044981265 0)
(0.85588046 0.00043004532 0)
(0.85262442 0.00041125343 0)
(0.84942534 0.00039338371 0)
(0.84628133 0.00037638624 0)
(0.84319054 0.00036021435 0)
(0.84015122 0.00034482437 0)
(0.83716167 0.0003301756 0)
(0.83422022 0.00031623006 0)
(0.83132526 0.00030295306 0)
(0.82847519 0.00029031202 0)
(0.82566851 0.00027828018 0)
(0.82290352 0.00026682901 0)
(0.82017892 0.00025594969 0)
(0.81749235 0.00024560683 0)
(0.81484358 0.00023585732 0)
(0.81222662 0.00022659967 0)
(0.80964774 0.0002181647 0)
(0.80708177 0.00021015751 0)
(0.80457145 0.00020456154 0)
(0.80197272 0.00019475344 0)
(0.79974923 0.00021483321 5.2259137e-20)
(0.79581043 0.00017762115 0)
(0.99703378 0.0018422854 0)
(0.99722499 0.0022730385 0)
(0.99751625 0.0025763415 0)
(0.99780828 0.0027646266 0)
(0.99806969 0.0028924413 0)
(0.99830959 0.0029840663 0)
(0.99853313 0.0030446563 0)
(0.99873786 0.0030822377 0)
(0.99892483 0.003104538 0)
(0.99909768 0.0031156367 0)
(0.99925888 0.0031175781 0)
(0.99941001 0.0031122065 0)
(0.99955234 0.0031002585 0)
(0.99968686 0.0030829428 0)
(0.99981471 0.0030604691 0)
(0.99993646 0.0030328693 0)
(1.0000523 0.0030000142 0)
(1.0001621 0.0029616678 0)
(1.000265 0.0029180606 0)
(1.0003604 0.0028698539 0)
(1.0004479 0.0028177943 0)
(1.0005271 0.0027627721 0)
(1.0005975 0.002705837 0)
(1.0006587 0.00264831 0)
(1.0007109 0.002591814 0)
(1.0007545 0.0025382489 0)
(1.0007909 0.0024888939 0)
(1.0008214 0.0024446528 0)
(1.0008475 0.0024064063 0)
(1.0008711 0.0023739921 0)
(1.0008936 0.0023465159 0)
(1.0009156 0.0023228885 0)
(1.0009374 0.0023023106 0)
(1.0009587 0.0022836184 0)
(1.0009791 0.0022661386 0)
(1.0009977 0.0022499065 0)
(1.001014 0.0022345026 0)
(1.0010272 0.0022197156 0)
(1.0010361 0.0022054703 0)
(1.0010395 0.0021912032 0)
(1.0010345 0.0021766265 0)
(1.0010171 0.0021618477 0)
(1.0009823 0.0021467845 0)
(1.0009233 0.0021315723 0)
(1.0008294 0.0021160367 0)
(1.0006782 0.0020998362 0)
(1.000439 0.002083049 0)
(1.0000649 0.0020647712 0)
(0.99948898 0.0020445885 0)
(0.99855454 0.0020205708 0)
(0.99710133 0.0019885345 0)
(0.99497561 0.0019476239 0)
(0.99204977 0.0018923543 0)
(0.98833768 0.0018213012 0)
(0.98394695 0.0017412664 0)
(0.97906318 0.0016555019 0)
(0.9739043 0.0015688122 0)
(0.96864906 0.0014849117 0)
(0.96340942 0.0014055487 0)
(0.9582353 0.0013320864 0)
(0.9531419 0.0012644664 0)
(0.94813379 0.0012018086 0)
(0.94321567 0.001143053 0)
(0.93839268 0.0010874434 0)
(0.93366762 0.0010347183 0)
(0.92904023 0.00098478921 0)
(0.92450883 0.00093752695 0)
(0.9200715 0.00089281766 0)
(0.91572617 0.00085050623 0)
(0.91147055 0.00081043596 0)
(0.90730218 0.00077249681 0)
(0.90321849 0.00073655266 0)
(0.89921697 0.00070249044 0)
(0.89529513 0.00067019914 0)
(0.8914505 0.00063957037 0)
(0.88768067 0.0006105155 0)
(0.88398328 0.00058294047 0)
(0.88035606 0.00055676327 0)
(0.87679675 0.00053190485 0)
(0.87330321 0.00050829173 0)
(0.86987331 0.00048585506 0)
(0.86650503 0.00046453041 0)
(0.86319638 0.00044425751 0)
(0.85994542 0.00042497995 0)
(0.85675031 0.00040664517 0)
(0.8536092 0.00038920408 0)
(0.85052032 0.0003726118 0)
(0.84748191 0.00035682604 0)
(0.84449229 0.000341812 0)
(0.84154963 0.00032753213 0)
(0.83865242 0.00031397433 0)
(0.8357982 0.0003010906 0)
(0.83298652 0.00028895311 0)
(0.83021136 0.0002774204 0)
(0.82747864 0.00026692643 0)
(0.82476345 0.0002568825 0)
(0.82210813 0.00024996913 0)
(0.81936713 0.00023698788 -1.6186572e-20)
(0.81701837 0.00026454259 0)
(0.81287562 0.00021248192 -7.8560536e-21)
(0.99716395 0.0018135461 0)
(0.99732384 0.0022038922 0)
(0.99757299 0.0024938343 0)
(0.99783478 0.0026862612 0)
(0.99807931 0.0028212227 0)
(0.99830856 0.0029195309 0)
(0.99852469 0.0029869477 0)
(0.99872488 0.0030308662 0)
(0.99890927 0.0030585629 0)
(0.99908058 0.0030741909 0)
(0.99924082 0.0030800026 0)
(0.99939136 0.0030779027 0)
(0.99953334 0.0030688443 0)
(0.99966768 0.0030539843 0)
(0.99979539 0.0030337005 0)
(0.99991703 0.0030081014 0)
(1.0000328 0.0029771519 0)
(1.0001425 0.0029407225 0)
(1.0002454 0.002899058 0)
(1.0003411 0.0028527947 0)
(1.000429 0.0028026732 0)
(1.0005089 0.0027495651 0)
(1.0005802 0.0026945042 0)
(1.0006428 0.0026387808 0)
(1.0006966 0.0025839525 0)
(1.0007424 0.0025318249 0)
(1.0007812 0.0024836708 0)
(1.0008145 0.0024403565 0)
(1.0008437 0.002402679 0)
(1.0008707 0.002370579 0)
(1.0008969 0.0023432805 0)
(1.0009231 0.0023197234 0)
(1.0009495 0.0022991299 0)
(1.0009763 0.0022805221 0)
(1.0010031 0.0022632343 0)
(1.0010294 0.0022472129 0)
(1.0010553 0.0022321439 0)
(1.0010804 0.0022177671 0)
(1.0011044 0.0022038568 0)
(1.0011267 0.0021898966 0)
(1.0011466 0.0021756843 0)
(1.0011629 0.0021613186 0)
(1.0011744 0.0021468032 0)
(1.0011797 0.0021322597 0)
(1.0011771 0.0021174813 0)
(1.0011629 0.0021024441 0)
(1.0011322 0.0020872981 0)
(1.001078 0.0020722487 0)
(1.000992 0.0020571098 0)
(1.0008546 0.0020412183 0)
(1.0006363 0.0020243841 0)
(1.0002938 0.0020060721 0)
(0.99976582 0.0019862106 0)
(0.99891603 0.0019632424 0)
(0.99759717 0.0019336527 0)
(0.99566083 0.0018952342 0)
(0.99299053 0.0018433194 0)
(0.98959055 0.0017781389 0)
(0.98554972 0.0017046057 0)
(0.98103532 0.0016263008 0)
(0.97623902 0.0015471819 0)
(0.97131725 0.0014695619 0)
(0.96636827 0.0013955079 0)
(0.96144088 0.0013260931 0)
(0.95655723 0.0012613281 0)
(0.95173098 0.0012005101 0)
(0.94697358 0.0011429423 0)
(0.94229334 0.0010882981 0)
(0.93769461 0.0010364272 0)
(0.93317924 0.00098721784 0)
(0.92874788 0.00094057512 0)
(0.92440044 0.00089635326 0)
(0.92013621 0.00085443067 0)
(0.91595399 0.00081468412 0)
(0.91185231 0.00077698809 0)
(0.90782947 0.00074123671 0)
(0.90388366 0.00070731722 0)
(0.90001298 0.0006751297 0)
(0.89621546 0.00064457724 0)
(0.89248913 0.0006155693 0)
(0.88883199 0.00058802082 0)
(0.88524206 0.00056185195 0)
(0.88171737 0.00053698787 0)
(0.87825599 0.00051335843 0)
(0.874856 0.00049089811 0)
(0.8715155 0.00046954564 0)
(0.86823264 0.00044924486 0)
(0.86500557 0.00042994274 0)
(0.86183248 0.00041159534 0)
(0.85871145 0.00039415514 0)
(0.85564085 0.00037760574 0)
(0.85261809 0.00036188568 0)
(0.84964259 0.00034708158 0)
(0.84670828 0.00033301094 0)
(0.84382079 0.00032021231 0)
(0.84095544 0.00030789341 0)
(0.83815429 0.00029947865 1.9964949e-21)
(0.83527 0.0002829556 0)
(0.83279553 0.00031873275 4.9349683e-20)
(0.82844775 0.00025013031 0)
(0.99729053 0.0017887885 0)
(0.99742563 0.0021433097 0)
(0.99763938 0.002418973 0)
(0.99787324 0.0026124129 0)
(0.99810007 0.0027522727 0)
(0.99831717 0.0028559174 0)
(0.99852443 0.0029292065 0)
(0.99871875 0.0029788699 0)
(0.99889947 0.0030116486 0)
(0.99906839 0.0030316653 0)
(0.99922704 0.0030412995 0)
(0.99937652 0.0030425 0)
(0.99951779 0.0030363848 0)
(0.99965167 0.0030240856 0)
(0.99977901 0.0030060962 0)
(0.99990035 0.0029826039 0)
(1.0000158 0.0029536586 0)
(1.0001253 0.0029192256 0)
(1.0002281 0.0028795691 0)
(1.0003239 0.0028353017 0)
(1.000412 0.0027871536 0)
(1.0004923 0.0027359825 0)
(1.0005642 0.0026828085 0)
(1.0006277 0.0026288886 0)
(1.0006828 0.0025757187 0)
(1.00073 0.0025250026 0)
(1.0007705 0.002477994 0)
(1.0008057 0.0024355553 0)
(1.0008369 0.002398444 0)
(1.0008659 0.0023666614 0)
(1.0008942 0.0023395198 0)
(1.0009226 0.0023160412 0)
(1.0009514 0.0022954883 0)
(1.0009807 0.0022769535 0)
(1.0010104 0.0022597852 0)
(1.0010402 0.0022438875 0)
(1.00107 0.0022289526 0)
(1.0010998 0.002214699 0)
(1.0011295 0.0022009023 0)
(1.0011587 0.0021871204 0)
(1.0011869 0.0021731613 0)
(1.0012137 0.0021591125 0)
(1.0012386 0.0021450151 0)
(1.0012611 0.002130928 0)
(1.0012808 0.002116666 0)
(1.0012965 0.0021022242 0)
(1.0013071 0.0020877287 0)
(1.0013109 0.0020733362 0)
(1.0013063 0.0020587693 0)
(1.0012898 0.0020438684 0)
(1.0012562 0.0020289252 0)
(1.001198 0.0020141225 0)
(1.0011059 0.0019992568 0)
(1.0009598 0.0019836603 0)
(1.0007288 0.0019669587 0)
(1.0003687 0.0019487559 0)
(0.99980758 0.0019288295 0)
(0.99891662 0.0019054112 0)
(0.99755784 0.0018758605 0)
(0.99558865 0.0018360297 0)
(0.99293335 0.001783433 0)
(0.98960365 0.0017208896 0)
(0.98569943 0.0016515441 0)
(0.98138358 0.0015787913 0)
(0.97682153 0.0015052065 0)
(0.97214028 0.0014330859 0)
(0.96741678 0.0013641367 0)
(0.96269211 0.0012990668 0)
(0.95799095 0.001237614 0)
(0.95333177 0.0011792858 0)
(0.94872814 0.0011237989 0)
(0.94418881 0.0010709956 0)
(0.93971909 0.0010207971 0)
(0.93532224 0.00097310715 0)
(0.93100023 0.00092780911 0)
(0.92675399 0.0008848015 0)
(0.92258364 0.00084396899 0)
(0.91848877 0.0008052047 0)
(0.91446854 0.00076840109 0)
(0.91052187 0.00073345544 0)
(0.90664743 0.00070026952 0)
(0.90284373 0.00066874991 0)
(0.8991092 0.0006388083 0)
(0.89544217 0.00061036129 0)
(0.89184092 0.0005833306 0)
(0.88830371 0.00055764264 0)
(0.88482876 0.00053322967 0)
(0.88141425 0.00051002746 0)
(0.87805842 0.00048798237 0)
(0.8747593 0.00046703632 0)
(0.87151524 0.00044716791 0)
(0.86832362 0.00042830166 0)
(0.86518373 0.00041053781 0)
(0.86208954 0.00039365227 0)
(0.85904643 0.00037828901 0)
(0.85602993 0.00036344387 0)
(0.85308199 0.0003533302 0)
(0.85005321 0.00033288223 0)
(0.84745224 0.00037763438 0)
(0.84289774 0.00029077024 0)
(0.9974113 0.001766973 0)
(0.99752687 0.0020898077 0)
(0.99771132 0.0023509118 0)
(0.99792028 0.0025430467 0)
(0.99812981 0.0026859012 0)
(0.99833419 0.0027936089 0)
(0.99853172 0.0028718296 0)
(0.99871912 0.0029266139 0)
(0.99889517 0.0029641122 0)
(0.99906085 0.0029883297 0)
(0.99921723 0.0030017021 0)
(0.99936511 0.0030061916 0)
(0.99950524 0.0030030311 0)
(0.99963832 0.0029933375 0)
(0.99976505 0.0029776928 0)
(0.99988587 0.0029563623 0)
(1.0000009 0.0029294741 0)
(1.00011 0.0028970781 0)
(1.0002126 0.0028594618 0)
(1.0003083 0.0028172195 0)
(1.0003966 0.0027710707 0)
(1.0004771 0.0027218606 0)
(1.0005496 0.0026705931 0)
(1.0006138 0.0026184903 0)
(1.0006699 0.0025669883 0)
(1.0007183 0.0025176973 0)
(1.0007602 0.0024718515 0)
(1.0007968 0.0024303116 0)
(1.0008295 0.0023938014 0)
(1.00086 0.0023623661 0)
(1.0008897 0.0023354029 0)
(1.0009195 0.0023120209 0)
(1.0009497 0.0022915134 0)
(1.0009805 0.0022730339 0)
(1.0010118 0.0022559511 0)
(1.0010433 0.0022401323 0)