/*--------------------------------*- C++ -*----------------------------------*\
  =========                 |
  \\      /  F ield         | OpenFOAM: The Open Source CFD Toolbox
   \\    /   O peration     | Website:  https://openfoam.org
    \\  /    A nd           | Version:  12
     \\/     M anipulation  |
\*---------------------------------------------------------------------------*/
FoamFile
{
    format      ascii;
    class       volVectorField;
    location    "1500";
    object      wallShearStress;
}
// * * * * * * * * * * * * * * * * * * * * * * * * * * * * * * * * * * * * * //

dimensions      [0 2 -2 0 0 0 0];

internalField   uniform (0 0 0);

boundaryField
{
    bottom
    {
        type            calculated;
        value           nonuniform List<vector> 
112
(
(-0.0077610371 -3.5569048e-05 0)
(-0.005934764 -2.2070156e-07 -1.4342415e-17)
(-0.0054672095 -7.5148564e-08 9.9667572e-18)
(-0.0051589735 -5.2392e-08 -3.3486336e-18)
(-0.0049391867 -3.9277173e-08 0)
(-0.0047625023 -3.2235035e-08 0)
(-0.0046122377 -2.739183e-08 0)
(-0.0044828676 -2.3479006e-08 0)
(-0.0043707169 -2.0305284e-08 0)
(-0.0042722719 -1.7775217e-08 -2.2180056e-18)
(-0.0041847492 -1.5730723e-08 0)
(-0.0041061836 -1.4027982e-08 -1.7444919e-18)
(-0.0040352214 -1.2589502e-08 1.5633137e-18)
(-0.0039706535 -1.1389454e-08 -1.4122699e-18)
(-0.0039113529 -1.037874e-08 0)
(-0.0038565788 -9.5027844e-09 1.1753694e-18)
(-0.0038057568 -8.7426758e-09 0)
(-0.0037583329 -8.0808481e-09 -4.9860878e-19)
(-0.0037138912 -7.4972538e-09 0)
(-0.0036720803 -6.9800813e-09 -8.5962849e-19)
(-0.0036326006 -6.5183846e-09 8.0201038e-19)
(-0.0035952065 -6.1045488e-09 0)
(-0.0035596729 -5.7316672e-09 0)
(-0.003525822 -5.3927708e-09 0)
(-0.0034934988 -5.0846336e-09 -6.2345609e-19)
(-0.0034625559 -4.802259e-09 0)
(-0.0034328891 -4.5415746e-09 0)
(-0.0034043936 -4.3024349e-09 0)
(-0.0033769607 -4.0822064e-09 0)
(-0.0033505106 -3.8777364e-09 -4.7373464e-19)
(-0.0033249694 -3.6885819e-09 4.5032143e-19)
(-0.003300258 -3.5136621e-09 0)
(-0.0032763101 -3.3503256e-09 0)
(-0.0032530776 -3.1971152e-09 0)
(-0.0032305102 -3.0541689e-09 3.7192499e-19)
(-0.0032085535 -2.9204163e-09 0)
(-0.0031871679 -2.7940911e-09 0)
(-0.0031663213 -2.6747959e-09 -3.2515457e-19)
(-0.0031459767 -2.5627549e-09 0)
(-0.0031260952 -2.4572143e-09 0)
(-0.0031066479 -2.356968e-09 0)
(-0.0030876119 -2.2617207e-09 2.743351e-19)
(-0.0030689606 -2.1716957e-09 -1.3163768e-19)
(-0.0030506644 -2.0865641e-09 2.5282173e-19)
(-0.0030326995 -2.0053872e-09 0)
(-0.0030150497 -1.9276734e-09 0)
(-0.0029976978 -1.8537381e-09 -3.3640547e-19)
(-0.0029806196 -1.7836913e-09 0)
(-0.0029637934 -1.7167175e-09 2.0748629e-19)
(-0.0029472081 -1.6522684e-09 0)
(-0.0029308505 -1.5905857e-09 0)
(-0.0029147032 -1.5317835e-09 -9.243358e-20)
(-0.0028987482 -1.47561e-09 -8.9001107e-20)
(-0.0028829714 -1.4215402e-09 0)
(-0.0028673641 -1.3693593e-09 -1.6503148e-19)
(-0.0028519151 -1.3192967e-09 0)
(-0.002836609 -1.2714502e-09 0)
(-0.0028214307 -1.2254362e-09 0)
(-0.0028063714 -1.180891e-09 0)
(-0.0027914233 -1.137883e-09 0)
(-0.002776575 -1.0965446e-09 0)
(-0.0027618131 -1.0568566e-09 0)
(-0.0027471248 -1.0184698e-09 0)
(-0.0027325045 -9.8115984e-10 0)
(-0.0027179445 -9.4509097e-10 -1.133776e-19)
(-0.0027034332 -9.1035221e-10 0)
(-0.0026889582 -8.7680327e-10 -5.2545043e-20)
(-0.0026745103 -8.4420338e-10 0)
(-0.0026600834 -8.1250135e-10 -4.8647395e-20)
(-0.0026456689 -7.8184093e-10 9.3580467e-20)
(-0.0026312538 -7.522687e-10 8.9998663e-20)
(-0.0026168257 -7.2355367e-10 -4.3261686e-20)
(-0.0026023784 -6.955349e-10 0)
(-0.0025879044 -6.6834081e-10 0)
(-0.0025733907 -6.420503e-10 7.6670033e-20)
(-0.0025588242 -6.1649795e-10 -7.3584081e-20)
(-0.0025441969 -5.9154118e-10 0)
(-0.0025295006 -5.6725575e-10 0)
(-0.0025147222 -5.4371761e-10 -6.4803733e-20)
(-0.0024998469 -5.2083319e-10 0)
(-0.0024848641 -4.9848806e-10 0)
(-0.0024697632 -4.7672434e-10 0)
(-0.0024545285 -4.5560607e-10 0)
(-0.0024391429 -4.350361e-10 0)
(-0.0024235936 -4.1492881e-10 0)
(-0.0024078663 -3.9534953e-10 0)
(-0.0023919407 -3.7633533e-10 0)
(-0.0023757952 -3.5775205e-10 4.2443555e-20)
(-0.0023594168 -3.397207e-10 -4.0282298e-20)
(-0.0023431412 -3.2270457e-10 0)
(-0.00232748 -3.0692964e-10 0)
(-0.0023125788 -2.9236842e-10 0)
(-0.002298378 -2.7896789e-10 0)
(-0.0022848203 -2.6664127e-10 0)
(-0.0022718548 -2.552435e-10 0)
(-0.0022594389 -2.4466079e-10 0)
(-0.0022475331 -2.3486004e-10 0)
(-0.0022360983 -2.2580009e-10 -2.6662957e-20)
(-0.0022250992 -2.173696e-10 0)
(-0.0022145078 -2.0948921e-10 0)
(-0.002204297 -2.0215169e-10 0)
(-0.0021944393 -1.9533582e-10 0)
(-0.0021849098 -1.8903613e-10 0)
(-0.0021756818 -1.8317831e-10 0)
(-0.0021667378 -1.778567e-10 0)
(-0.0021580416 -1.7287376e-10 0)
(-0.0021495958 -1.6909964e-10 0)
(-0.0021412768 -1.6495304e-10 0)
(-0.0021332474 -1.6527633e-10 0)
(-0.0021248954 -3.0277839e-10 0)
(-0.0021175327 -1.94025e-10 -2.2949617e-20)
(-0.0021055949 -2.314545e-10 0)
)
;
    }
    back
    {
        type            empty;
    }
    front
    {
        type            empty;
    }
    inlet
    {
        type            calculated;
        value           uniform (0 0 0);
    }
    outlet
    {
        type            calculated;
        value           uniform (0 0 0);
    }
    top
    {
        type            calculated;
        value           uniform (0 0 0);
    }
    slipsurface
    {
        type            calculated;
        value           uniform (0 0 0);
    }
}


// ************************************************************************* //
