/*--------------------------------*- C++ -*----------------------------------*\
  =========                 |
  \\      /  F ield         | OpenFOAM: The Open Source CFD Toolbox
   \\    /   O peration     | Website:  https://openfoam.org
    \\  /    A nd           | Version:  12
     \\/     M anipulation  |
\*---------------------------------------------------------------------------*/
FoamFile
{
    format      ascii;
    class       volScalarField;
    location    "1500";
    object      yPlus;
}
// * * * * * * * * * * * * * * * * * * * * * * * * * * * * * * * * * * * * * //

dimensions      [];

internalField   uniform 0;

boundaryField
{
    inlet
    {
        type            calculated;
        value           uniform 0;
    }
    top
    {
        type            calculated;
        value           uniform 0;
    }
    outlet
    {
        type            calculated;
        value           uniform 0;
    }
    slipsurface
    {
        type            calculated;
        value           uniform 0;
    }
    bottom
    {
        type            calculated;
        value           nonuniform List<scalar> 
100
(
116.35052
115.20183
113.92998
112.58016
111.19318
109.79704
108.40203
107.01264
105.6331
104.26697
102.91718
101.5861
100.27634
98.990841
97.733092
96.507736
95.32157
94.184511
93.105002
92.090437
91.147399
90.281453
89.496657
88.795837
88.179047
87.642012
87.176538
86.771537
86.413643
86.089082
85.785956
85.495612
85.212633
84.934103
84.658696
84.38544
84.113071
83.840202
83.565746
83.28941
83.011859
82.734253
82.457728
82.183003
81.910415
81.640197
81.372599
81.107847
80.846124
80.587597
80.332353
80.080368
79.831601
79.586074
79.343796
79.104699
78.8687
78.635765
78.405828
78.178813
77.954657
77.733294
77.514642
77.298633
77.085216
76.874323
76.665896
76.459879
76.256206
76.05482
75.855662
75.658673
75.463795
75.270972
75.080151
74.89128
74.704306
74.519181
74.335855
74.154281
73.974412
73.796206
73.619616
73.444601
73.271119
73.099126
72.928582
72.759441
72.591662
72.425184
72.259983
72.095914
71.93308
71.770916
71.610276
71.448471
71.29023
71.121537
70.982548
70.71969
)
;
    }
    frontandback
    {
        type            empty;
    }
}


// ************************************************************************* //
