#      distance             U_x             U_y             U_z wallShearStr... wallShearStr... wallShearStr...               p           omega               k             nut
    0.034013023      0.99914091   5.1262992e-06               0               0               0               0    0.0048066119       69.038271   1.1919965e-05   1.7265719e-07
    0.056204344      0.99878163   9.2032096e-06               0               0               0               0    0.0051672346        62.95072   1.0786202e-05   1.7134351e-07
    0.072112662      0.99829907   1.3751543e-05               0               0               0               0    0.0056052723       59.102469   1.0073286e-05   1.7043762e-07
    0.083516877       0.9977985   3.4000924e-05               0               0               0               0    0.0061720826       56.573723   9.6065745e-06   1.6980628e-07
     0.09169223      0.99666201   6.9327683e-05               0               0               0               0     0.006947706       54.867438    9.292497e-06   1.6936268e-07
    0.097552904       0.9956295   0.00082014879               0  -1.3873525e-06  -1.4713255e-09               0    0.0083087692       53.719752   9.0777968e-06   1.6945674e-07
     0.10156632      0.98100655   0.00075913142               0  -4.1316093e-06  -5.6461273e-09               0    0.0087111536        99.64936   9.1320125e-06   8.2134467e-08
     0.10474707      0.96808642    0.0014022514               0  -5.4261709e-06  -1.0263732e-08               0    0.0076662211       99.668428   9.5179518e-06     4.47993e-08
     0.10802554      0.95487508    0.0017605471               0  -5.2983172e-06  -1.3450647e-08               0    0.0065433257       99.668428   1.0337198e-05   3.2891793e-08
     0.11140473       0.9407932    0.0020787981               0  -5.1662725e-06   -1.603141e-08               0    0.0060215924       99.820912   1.3442118e-05   3.0181926e-08
     0.11488774      0.92684506    0.0024812387               0  -5.0353837e-06  -1.8475037e-08               0    0.0056864841       467.19565    0.0017675869   3.1760001e-06
     0.11847776      0.91339181    0.0027308155               0  -4.9097311e-06  -2.0042023e-08               0    0.0054287931       658.54512    0.0035110819   5.3245072e-06
     0.12217807      0.90045665    0.0027598722               0  -4.7901755e-06    -2.03297e-08               0    0.0052219758       782.35993     0.004955276   6.3250926e-06
     0.12599207      0.88802722      0.00269478               0  -4.6763695e-06  -1.9798067e-08               0    0.0050340195       862.95773    0.0060287794   6.9764278e-06
     0.12992323      0.87601087    0.0025858999               0  -4.5674894e-06  -1.8879507e-08               0    0.0048728969       913.96787     0.006762553   7.3886464e-06
     0.13397518      0.86431279    0.0024350757               0  -4.4623372e-06  -1.7715717e-08               0    0.0047394519       944.61558    0.0072236792   7.6363019e-06
     0.13815161       0.8527324    0.0022599067               0  -4.3595466e-06  -1.6438492e-08               0    0.0046241996       961.55639    0.0074850982   7.4786908e-06
     0.14245635      0.84118141    0.0020955614               0  -4.2581864e-06   -1.519808e-08               0    0.0045067549       969.17254    0.0076041393   7.2090023e-06
     0.14689334      0.82962751    0.0019424676               0  -4.1579268e-06  -1.4047999e-08               0    0.0043836737       970.41924    0.0076237138   6.8882209e-06
     0.15146665      0.81807539    0.0017986852               0  -4.0587687e-06  -1.2975971e-08               0    0.0042587396       967.32045    0.0075751017   6.5482581e-06
     0.15618046      0.80654849    0.0016628398               0  -3.9609101e-06  -1.1967056e-08               0    0.0041342247       961.28978    0.0074809425   6.2095281e-06
     0.16103908      0.79508893    0.0015326806               0  -3.8647217e-06  -1.0996391e-08               0    0.0040112892        953.3194    0.0073574019   5.8849281e-06
     0.16604698      0.78376959    0.0014011943               0  -3.7708848e-06   -1.004015e-08               0    0.0038920724        944.1186    0.0072160686   5.5828428e-06
     0.17120873      0.77274059    0.0012708224               0  -3.6798861e-06  -9.1177654e-09               0    0.0037845581       934.25632    0.0070660967   5.3127519e-06
     0.17652907      0.76188275    0.0011542593               0  -3.5918404e-06  -8.2603151e-09               0    0.0036851501       924.36362    0.0069172447    5.069387e-06
     0.18201286      0.75137013    0.0010438808               0  -3.5072691e-06  -7.4567553e-09               0     0.003580523       914.50561    0.0067704907   4.8579702e-06
     0.18766512      0.74126759   0.00093792972               0  -3.4268092e-06  -6.6899114e-09               0    0.0034740615       904.81327    0.0066277369   4.6740704e-06
     0.19349103      0.73163009   0.00083660055               0  -3.3508185e-06  -5.9598202e-09               0    0.0033764655       895.32606    0.0064894777   4.5150276e-06
     0.19949593      0.72251364   0.00074044096               0  -3.2796101e-06  -5.2696588e-09               0    0.0032905268       886.19753    0.0063578217   4.3801676e-06
     0.20568532      0.71396636   0.00065032718               0   -3.213448e-06  -4.6216724e-09               0    0.0032155893       877.57343    0.0062346804     4.26898e-06
     0.21206485      0.70603098    0.0005655468               0  -3.1525484e-06  -4.0152402e-09               0    0.0031537904       869.55961    0.0061213324   4.1806397e-06
     0.21864039      0.69874727   0.00048625518               0  -3.0970502e-06  -3.4527332e-09               0    0.0031003775       862.22848    0.0060185512   4.1145217e-06
     0.22541793      0.69212705    0.0004141102               0  -3.0469337e-06  -2.9398873e-09               0    0.0030475877       855.61777    0.0059266164   4.0695433e-06
     0.23240371      0.68615604   0.00034893337               0  -3.0020129e-06  -2.4789019e-09               0     0.002999953       849.72927    0.0058453213   4.0442181e-06
      0.2396041      0.68080762    0.0002906573               0  -2.9620012e-06  -2.0704036e-09               0    0.0029609056        844.5362     0.005774093   4.0368426e-06
      0.2470257      0.67604567   0.00024022657               0  -2.9265478e-06  -1.7162117e-09               0    0.0029287501       839.99115    0.0057121114   4.0455396e-06
     0.25467531      0.67182344   0.00019750427               0  -2.8952533e-06  -1.4146443e-09               0    0.0029019429       836.03203    0.0056583927   4.0682654e-06
     0.26255994      0.66809093   0.00016131722               0  -2.8677201e-06  -1.1592574e-09               0    0.0028813748       832.59127    0.0056119137   4.1029219e-06
      0.2706868       0.6648088   0.00013057142               0   -2.843589e-06  -9.4395909e-10               0     0.002865713       829.60969    0.0055717926   4.1474591e-06
     0.27906334      0.66193402   0.00010518756               0  -2.8224918e-06  -7.6508972e-10               0    0.0028471334       827.03762    0.0055372979   4.2020745e-06
     0.28769723      0.65940994   8.4327571e-05               0  -2.8040026e-06  -6.1967625e-10               0    0.0028246026       824.81341    0.0055075547   4.2654202e-06
     0.29659637      0.65717432   6.8005875e-05               0  -2.7876585e-06  -5.0630553e-10               0    0.0028025968       822.86355    0.0054815464   4.3354588e-06
     0.30576892      0.65516506   5.6529712e-05               0  -2.7730029e-06  -4.2365195e-10               0    0.0027822154       821.10963    0.0054582045   4.4098574e-06
     0.31522326      0.65332512   4.9036375e-05               0  -2.7596411e-06  -3.6571631e-10               0    0.0027635883       819.48579    0.0054366384   4.4863056e-06
     0.32496807      0.65161834   4.3555062e-05               0  -2.7472838e-06   -3.247387e-10               0    0.0027482952       817.94394    0.0054162006   4.5634153e-06
     0.33501226      0.65001795   4.0127091e-05               0  -2.7357006e-06  -2.9815274e-10               0    0.0027287854       816.44989    0.0053964334    4.640176e-06
     0.34536503      0.64848866   3.9192043e-05               0  -2.7246471e-06  -2.8585989e-10               0    0.0027003004        814.9729    0.0053769274   4.7154744e-06
     0.35603587      0.64699401   3.9947334e-05               0  -2.7138777e-06  -2.8514221e-10               0    0.0026696245       813.48492     0.005357312   4.7882015e-06
     0.36703454      0.64550646   4.1905686e-05               0  -2.7031922e-06  -2.9225423e-10               0    0.0026410576       811.96419    0.0053373021   4.8574829e-06
     0.37837111      0.64400657   4.4543788e-05               0  -2.6924547e-06  -3.0378227e-10               0    0.0026144976       810.39438    0.0053166855   4.9226063e-06
     0.39005597      0.64248484    4.728802e-05               0   -2.681585e-06  -3.1729642e-10               0    0.0025883177        808.7672    0.0052953579   4.9830082e-06
     0.40209982      0.64093452   5.0276797e-05               0  -2.6705252e-06  -3.3305323e-10               0    0.0025573961       807.07936    0.0052732803   5.0383642e-06
     0.41451368      0.63934545   5.4030808e-05               0  -2.6591893e-06  -3.5257767e-10               0    0.0025210986       805.32749    0.0052504139   5.0881614e-06
     0.42730893      0.63769582   5.8410598e-05               0  -2.6474554e-06  -3.7512953e-10               0    0.0024843933       803.50075    0.0052266233   5.1339862e-06
     0.44049728      0.63596949   6.2682228e-05               0  -2.6352287e-06  -3.9746367e-10               0     0.002449697       801.58855    0.0052017776   5.1754642e-06
      0.4540908      0.63416575   6.6316235e-05               0  -2.6224935e-06  -4.1697761e-10               0    0.0024163907       799.59152    0.0051758929   5.2118606e-06
     0.46810195      0.63229154   6.9423076e-05               0  -2.6092827e-06  -4.3332088e-10               0     0.002378673       797.51899     0.005149098   5.2427371e-06
     0.48254356      0.63035035   7.2111449e-05               0  -2.5956293e-06  -4.4666136e-10               0    0.0023356217       795.37999    0.0051215163   5.2680011e-06
     0.49742885      0.62834514   7.4160131e-05               0  -2.5815745e-06  -4.5593529e-10               0    0.0022929468       793.18188      0.00509325   5.2879728e-06
     0.51277145      0.62628815   7.5169718e-05               0  -2.5672052e-06  -4.5965267e-10               0    0.0022549774        790.9371    0.0050644639   5.3034062e-06
     0.52858541      0.62420006   7.5139045e-05               0  -2.5526446e-06   -4.579566e-10               0    0.0022183071       788.66498    0.0050354104   5.3151204e-06
     0.54488522      0.62209635   7.4541641e-05               0  -2.5379926e-06  -4.5265492e-10               0    0.0021773324       786.38147    0.0050062954   5.3239475e-06
     0.56168579      0.61998173   7.3618593e-05               0  -2.5232956e-06  -4.4526861e-10               0    0.0021342471       784.09189    0.0049771878   5.3308281e-06
     0.57900252      0.61785736   7.2413797e-05               0  -2.5085778e-06  -4.3619332e-10               0     0.002093494       781.79709     0.004948099   5.3362771e-06
     0.59685126      0.61573004   7.0865304e-05               0   -2.493879e-06  -4.2559771e-10               0    0.0020552864        779.5017    0.0049190881    5.340574e-06
     0.61524836      0.61360768   6.9181609e-05               0  -2.4792395e-06  -4.1429772e-10               0    0.0020149049       777.21307    0.0048902474   5.3438005e-06
     0.63421066      0.61149092   6.7575526e-05               0  -2.4646765e-06  -4.0286291e-10               0    0.0019712191       774.93462    0.0048616191   5.3458911e-06
     0.65375553      0.60938067   6.5802843e-05               0  -2.4502076e-06   -3.907583e-10               0    0.0019294772       772.66843    0.0048332282   5.3469194e-06
     0.67390086      0.60728498   6.3759628e-05               0  -2.4358745e-06  -3.7761304e-10               0    0.0018900028       770.42043    0.0048051473   5.3471414e-06
     0.69466511      0.60521145   6.1634735e-05               0  -2.4217156e-06  -3.6409443e-10               0    0.0018488932       768.19675    0.0047774504   5.3467528e-06
     0.71606728      0.60315973   5.9616711e-05               0  -2.4077423e-06  -3.5072109e-10               0    0.0018056727       765.99794    0.0047501421   5.3458032e-06
     0.73812698      0.60113025   5.7495227e-05               0  -2.3939622e-06    -3.37261e-10               0    0.0017648877        763.8237    0.0047232156   5.3444015e-06
     0.76086441      0.59912759   5.5328588e-05               0  -2.3803866e-06  -3.2399953e-10               0    0.0017247735       761.67454    0.0046966747   5.3428522e-06
     0.78430038      0.59714953   5.3411682e-05               0  -2.3670028e-06  -3.1172712e-10               0    0.0016814372       759.54744    0.0046704799   5.3411773e-06
     0.80845637      0.59518925   5.1664406e-05               0  -2.3537822e-06  -3.0036946e-10               0    0.0016378957       757.43704    0.0046445629   5.3392271e-06
     0.83335448      0.59324613   4.9906885e-05               0  -2.3407155e-06  -2.8936458e-10               0    0.0015960883       755.34279    0.0046189154   5.3369511e-06
     0.85901753       0.5913234   4.8188018e-05               0   -2.327808e-06   -2.787523e-10               0    0.0015529954       753.26809     0.004593577   5.3343157e-06
       0.885469      0.58941878   4.6629462e-05               0  -2.3150564e-06  -2.6858096e-10               0    0.0015074152       751.21271    0.0045685431   5.3312192e-06
     0.91273313       0.5875323   4.4978688e-05               0   -2.302467e-06  -2.5837724e-10               0     0.001464254       749.17692     0.004543815   5.3277427e-06
     0.94083488      0.58567037   4.3274645e-05               0  -2.2900571e-06  -2.4826183e-10               0     0.001421087       747.16568    0.0045194508   5.3240079e-06
     0.96979998      0.58383113   4.1778912e-05               0  -2.2778223e-06   -2.387551e-10               0    0.0013741891       745.17715    0.0044954258   5.3199957e-06
     0.99965496      0.58200985   4.0307281e-05               0  -2.2657464e-06  -2.2968269e-10               0    0.0013290169         743.206     0.004471674   5.3157576e-06
      1.0304272      0.58020868   3.8836416e-05               0  -2.2538238e-06  -2.2098279e-10               0    0.0012845159       741.25265    0.0044481985   5.3113724e-06
      1.0621447      0.57842518   3.7559103e-05               0  -2.2420436e-06   -2.128745e-10               0    0.0012362582       739.31601    0.0044249848   5.3067127e-06
      1.0948368        0.576656   3.6284337e-05               0  -2.2303972e-06   -2.050183e-10               0    0.0011890277       737.39431    0.0044020101   5.3017285e-06
      1.1285332      0.57490552   3.4954137e-05               0  -2.2188935e-06  -1.9723372e-10               0    0.0011426265       735.49125    0.0043793172   5.2965225e-06
      1.1632648      0.57317425   3.3746486e-05               0  -2.2075375e-06  -1.8975157e-10               0    0.0010930173       733.60825    0.0043569211   5.2910595e-06
      1.1990635      0.57146018   3.2537014e-05               0  -2.1963262e-06  -1.8249085e-10               0    0.0010444984       731.74318     0.004334795   5.2853782e-06
       1.235962      0.56976563    3.133187e-05               0  -2.1852588e-06  -1.7549869e-10               0   0.00099625583       729.89637    0.0043129411   5.2795857e-06
      1.2739941      0.56808776    3.027855e-05               0  -2.1743236e-06  -1.6898145e-10               0   0.00094466764       728.06535    0.0042913286   5.2736071e-06
      1.3131947       0.5664234   2.9234463e-05               0  -2.1635088e-06  -1.6274481e-10               0   0.00089400439       726.24786    0.0042699297   5.2674089e-06
      1.3535996       0.5647748   2.8195187e-05               0  -2.1528164e-06  -1.5664729e-10               0   0.00084324746       724.44599    0.0042487676   5.2610399e-06
      1.3952458      0.56314225   2.7212043e-05               0  -2.1422509e-06  -1.5074336e-10               0   0.00079061616       722.66081    0.0042278536   5.2544874e-06
      1.4381715      0.56152608   2.6229534e-05               0  -2.1318116e-06  -1.4505451e-10               0   0.00073835411       720.89243    0.0042071875   5.2477858e-06
       1.482416      0.55992531   2.5320955e-05               0  -2.1214923e-06  -1.3963802e-10               0   0.00068478111       719.13921    0.0041867487   5.2409476e-06
      1.5280198      0.55833817   2.4439772e-05               0   -2.111286e-06  -1.3446347e-10               0   0.00063134227       717.39924    0.0041665137   5.2339751e-06
      1.5750246       0.5567652   2.3584976e-05               0  -2.1011891e-06  -1.2950301e-10               0   0.00057740975       715.67311    0.0041464881   5.2268742e-06
      1.6234735      0.55520507   2.2787145e-05               0  -2.0911985e-06  -1.2475617e-10               0   0.00052203823       713.96033    0.0041266652   5.2196159e-06
      1.6734109      0.55365847    2.198759e-05               0  -2.0813109e-06  -1.2019146e-10               0   0.00046796177       712.26169    0.0041070531   5.2122227e-06
      1.7248825      0.55212347   2.1250313e-05               0  -2.0715245e-06  -1.1588821e-10               0   0.00041311213       710.57495    0.0040876242   5.2047221e-06
      1.7779355      0.55060255   2.0561677e-05               0  -2.0618107e-06  -1.1187045e-10               0    0.0003609961       708.90187    0.0040683985   5.1970323e-06
      1.8326183      0.54907482   1.9923224e-05               0  -2.0522144e-06  -1.0791476e-10               0   0.00030646483       707.22381    0.0040491609   5.1893083e-06
      1.8889812      0.54760822   1.9135775e-05               0  -2.0426135e-06   -1.430407e-10               0   0.00027377598       705.60044    0.0040305944   5.1814603e-06
      1.9470756      0.54601056   5.0035991e-05               0  -2.0330364e-06  -2.7280906e-10               0   0.00016274205       703.86249    0.0040107619   5.1729063e-06
      2.0069548      0.54461697   9.3873125e-05               0  -2.0227916e-06  -4.1430751e-10               0   0.00035942744       702.32811    0.0039932948   5.1610507e-06
