#      distance             U_x             U_y             U_z wallShearStr... wallShearStr... wallShearStr...               p           omega               k             nut
    0.001215373      0.62966135   9.8950141e-05               0               0               0               0   0.00015951972       356.91804    0.0041861383   1.5160217e-05
   0.0020572852      0.68699717   0.00011967281               0               0               0               0   0.00016361879       180.47873    0.0041284409   2.5066805e-05
   0.0029273097      0.72303677   0.00014426945               0               0               0               0   0.00016885284       119.73049    0.0039713838   3.4680936e-05
   0.0038263852      0.75019309   0.00017332589               0               0               0               0   0.00017478762       89.971088    0.0038430856    4.378335e-05
   0.0047554818      0.77243408   0.00020667135               0               0               0               0   0.00018112553       72.469021    0.0037249026   5.2171765e-05
   0.0057156019      0.79159526   0.00024417901               0               0               0               0   0.00018765114        61.05418    0.0036077015   5.9648298e-05
   0.0067077814      0.80869403   0.00028581619               0               0               0               0   0.00019418833       53.114186    0.0034871705   6.6051138e-05
   0.0077330908      0.82435866   0.00033162727               0               0               0               0   0.00020057515       47.357319    0.0033608482   7.1240011e-05
   0.0087926364      0.83901782   0.00038182434               0               0               0               0    0.0002066555       43.071613      0.00322687   7.5007255e-05
   0.0098875613      0.85301569   0.00043686032               0               0               0               0   0.00021226734       39.820553    0.0030828077   7.6909995e-05
    0.011019047      0.86665969   0.00049744495               0               0               0               0   0.00021721533       37.303096    0.0029250888    7.670269e-05
    0.012188314      0.88019938   0.00056466028               0               0               0               0   0.00022129083       35.292499     0.002749136   7.4569263e-05
    0.013396624      0.89381724   0.00063997472               0               0               0               0   0.00022434264       33.604276    0.0025496289   7.0737711e-05
    0.014645281      0.90763981   0.00072492812               0               0               0               0   0.00022631476       32.077936    0.0023212332   6.5468043e-05
    0.015935632      0.92171191   0.00082050626               0               0               0               0     0.000227231        30.57427    0.0020602638   5.9220383e-05
    0.017269069      0.93591544   0.00092623441               0               0               0               0   0.00022715542       28.986996    0.0017678876   5.2722851e-05
    0.018647031      0.94987362    0.0010390694               0               0               0               0   0.00022616518       27.283046    0.0014550297   4.6777265e-05
    0.020071004      0.96302634    0.0011539861               0               0               0               0   0.00022439842       25.487642    0.0011401712   4.1375103e-05
    0.021542526      0.97504214    0.0012670897               0               0               0               0   0.00022208713       23.532906   0.00083496285   3.4512143e-05
    0.023063183      0.98587898    0.0013758554               0               0               0               0   0.00021943524       21.087267   0.00054508953   2.5313545e-05
    0.024634616      0.99494415     0.001470444               0               0               0               0   0.00021652008       17.525242    0.0002926902   1.5827968e-05
    0.026258521       1.0008398    0.0015309522               0               0               0               0   0.00021343509        12.69096   0.00011664353   8.1281099e-06
     0.02793665       1.0032415    0.0015528141               0               0               0               0   0.00021041968       8.3025789   3.1262268e-05   3.1493893e-06
    0.029670814       1.0037269     0.001554639               0               0               0               0   0.00020760791       6.2088009   5.6811919e-06   8.3622345e-07
    0.031462883       1.0037614    0.0015516453               0               0               0               0   0.00020489507       5.7843572   1.2889112e-06   2.2143258e-07
    0.033314791       1.0037592    0.0015480089               0               0               0               0    0.0002021407       5.7421296   8.3850185e-07   1.4601573e-07
    0.035228536       1.0037575    0.0015425863               0               0               0               0   0.00019923759       5.7389411   8.0335998e-07   1.3997955e-07
    0.037206184       1.0037563    0.0015394065               0               0               0               0    0.0001961895       5.7387185   8.0084976e-07   1.3954729e-07
    0.039249867       1.0037546    0.0015416417               0               0               0               0   0.00019313874       5.7387001     8.00679e-07   1.3951795e-07
     0.04136179        1.003752    0.0015431704               0               0               0               0   0.00019014794       5.7386944   8.0066712e-07   1.3951602e-07
    0.043544233       1.0037491    0.0015421732               0               0               0               0   0.00018716315       5.7386887    8.006654e-07   1.3951586e-07
     0.04579955       1.0037462     0.001540262               0               0               0               0   0.00018413207       5.7386821   8.0066419e-07   1.3951581e-07
    0.048130175       1.0037435    0.0015379754               0               0               0               0   0.00018101982       5.7386746   8.0066289e-07   1.3951577e-07
    0.050538621       1.0037454    0.0015368311               0               0               0               0   0.00017783154        5.738667   8.0066169e-07   1.3951574e-07
    0.053027488       1.0037561    0.0015419251               0               0               0               0   0.00017466879       5.7386585   8.0066045e-07   1.3951573e-07
    0.055599461       1.0037688    0.0015539387               0               0               0               0   0.00017172055       5.7386471   8.0065855e-07   1.3951568e-07
    0.058257315       1.0037772    0.0015643166               0               0               0               0   0.00016907127       5.7386336   8.0065617e-07   1.3951559e-07
    0.061003917       1.0037826    0.0015706452               0               0               0               0   0.00016665463       5.7386192   8.0065379e-07   1.3951552e-07
    0.063842231        1.003787    0.0015751821               0               0               0               0   0.00016441774       5.7386037   8.0065126e-07   1.3951546e-07
     0.06677532       1.0037905     0.001577588               0               0               0               0   0.00016233826       5.7385865   8.0064852e-07    1.395154e-07
    0.069806347       1.0037937    0.0015777454               0               0               0               0   0.00016041198       5.7385678   8.0064556e-07   1.3951534e-07
    0.072938584       1.0037966    0.0015751769               0               0               0               0   0.00015864179       5.7385471    8.006423e-07   1.3951528e-07
    0.076175409        1.003797    0.0015702195               0               0               0               0   0.00015698308       5.7385244   8.0063875e-07   1.3951521e-07
    0.079520315       1.0037942    0.0015630276               0               0               0               0   0.00015536772       5.7384998   8.0063491e-07   1.3951514e-07
    0.082976911       1.0037895    0.0015552227               0               0               0               0   0.00015376471        5.738473   8.0063072e-07   1.3951506e-07
    0.086548926       1.0037839    0.0015477832               0               0               0               0   0.00015218008       5.7384438   8.0062617e-07   1.3951498e-07
    0.090240215       1.0037778    0.0015407112               0               0               0               0   0.00015061684       5.7384126   8.0062128e-07   1.3951489e-07
     0.09405476       1.0037722    0.0015338392               0               0               0               0   0.00014906821       5.7383858   8.0061698e-07   1.3951479e-07
