/*--------------------------------*- C++ -*----------------------------------*\
  =========                 |
  \\      /  F ield         | OpenFOAM: The Open Source CFD Toolbox
   \\    /   O peration     | Website:  https://openfoam.org
    \\  /    A nd           | Version:  12
     \\/     M anipulation  |
\*---------------------------------------------------------------------------*/
FoamFile
{
    format      ascii;
    class       volScalarField;
    location    "200";
    object      epsilon;
}
// * * * * * * * * * * * * * * * * * * * * * * * * * * * * * * * * * * * * * //

dimensions      [0 2 -3 0 0 0 0];

internalField   nonuniform List<scalar> 
13056
(
0.0069700382
0.006935354
0.0069280648
0.0069275874
0.0069278742
0.0069282041
0.0069285857
0.0069290411
0.0069295743
0.0069301851
0.0069308738
0.0069316414
0.0069324885
0.0069334154
0.0069344207
0.0069355012
0.0069366531
0.0069378715
0.0069391686
0.0069405526
0.0069421732
0.0069454572
0.0069291101
0.0075737326
50.456071
53.681862
43.950738
39.182602
35.756988
33.198261
31.268911
29.760267
28.543027
27.538434
26.694746
25.975969
25.356194
24.816297
24.341847
23.921741
23.547279
23.211532
22.908904
22.634823
22.385505
22.157794
21.949031
21.756957
21.579642
21.415422
21.262858
21.120696
20.987837
20.863317
20.746284
20.635986
20.531751
20.432982
20.339147
20.249767
20.164414
20.082703
20.004286
19.928851
19.856113
19.785816
19.717728
19.651638
19.587353
19.524699
19.463516
19.403657
19.344988
19.287387
19.23074
19.174944
19.119901
19.065523
19.011726
18.958433
18.905572
18.853078
18.800882
18.74893
18.697164
18.645532
18.593985
18.542474
18.490955
18.439385
18.387723
18.33593
18.28397
18.231806
18.179406
18.126735
18.073762
18.020457
17.966791
17.912736
17.858265
17.803351
17.747971
17.6921
17.635717
17.578797
17.52132
17.463266
17.404614
17.345351
17.285454
17.224948
17.16375
17.102867
17.045445
16.993077
16.945615
16.902624
16.863643
16.828243
16.796037
16.766679
16.73986
16.715312
16.692795
16.672099
16.65304
16.635455
16.6192
16.604147
16.590189
16.577202
16.565183
16.553623
16.544123
16.529047
0.0069634616
0.0069286408
0.0069212668
0.0069207699
0.0069210519
0.0069213798
0.0069217601
0.0069222148
0.0069227477
0.0069233587
0.0069240478
0.0069248159
0.006925664
0.006926592
0.0069275987
0.006928681
0.0069298352
0.0069310565
0.0069323576
0.0069337476
0.0069353783
0.0069387
0.0069220885
0.0075621969
28.908351
28.873482
23.358647
20.742907
18.882938
17.49773
16.455564
15.642487
14.987815
14.448474
13.996204
13.6114
13.279982
12.991573
12.738358
12.514332
12.314795
12.136008
11.974956
11.829176
11.696635
11.575637
11.464752
11.362771
11.268659
11.181524
11.100596
11.025204
10.954761
10.888752
10.826724
10.768272
10.713041
10.660712
10.611001
10.563654
10.518442
10.475161
10.433626
10.393671
10.355144
10.31791
10.281846
10.246839
10.212787
10.179598
10.147187
10.115476
10.084395
10.053877
10.023863
9.9942989
9.9651325
9.9363168
9.9078078
9.8795649
9.8515497
9.8237279
9.7960632
9.7685266
9.7410883
9.7137209
9.6863977
9.6590937
9.6317853
9.60445
9.5770664
9.5496143
9.5220742
9.4944275
9.4666564
9.4387436
9.4106729
9.3824282
9.3539946
9.3253573
9.2965025
9.2674169
9.2380876
9.2085025
9.1786498
9.1485179
9.1180959
9.0873734
9.0563405
9.0249896
8.99331
8.9613159
8.9289591
8.8967942
8.8664954
8.8388964
8.8139077
8.7912919
8.7708001
8.752202
8.7352906
8.719882
8.7058127
8.6929392
8.6811352
8.6702896
8.6603048
8.6510949
8.6425843
8.6347051
8.6274005
8.6206058
8.6143197
8.6082741
8.6033071
8.595428
0.0069354891
0.0068999562
0.0068922818
0.0068917175
0.006891982
0.0068923015
0.0068926767
0.0068931286
0.0068936605
0.0068942717
0.0068949622
0.0068957326
0.0068965838
0.0068975157
0.0068985272
0.0068996154
0.0069007769
0.0069020073
0.0069033209
0.006904728
0.0069063853
0.0069098052
0.0068925107
0.0075325267
27.087953
24.312896
19.265547
16.999805
15.418272
14.243565
13.361233
12.67459
12.12318
11.66998
11.290715
10.968592
10.691589
10.450867
10.239779
10.053229
9.8872337
9.7386318
9.6048768
9.483892
9.3739643
9.2736673
9.1818015
9.0973508
9.0194476
8.9473465
8.8804027
8.8180557
8.7598157
8.7052531
8.6539891
8.6056887
8.5600547
8.5168225
8.4757559
8.4366438
8.3992971
8.3635457
8.3292364
8.2962313
8.2644058
8.2336471
8.2038529
8.1749308
8.1467963
8.119373
8.0925906
8.0663851
8.040698
8.0154755
7.9906683
7.9662309
7.9421213
7.9183006
7.8947328
7.8713842
7.8482235
7.8252227
7.8023517
7.7795871
7.7569044
7.7342813
7.7116958
7.6891279
7.666558
7.6439682
7.6213409
7.5986598
7.5759092
7.5530739
7.5301397
7.5070927
7.4839197
7.460608
7.4371455
7.4135205
7.3897219
7.3657391
7.3415621
7.317181
7.2925867
7.2677701
7.2427224
7.2174357
7.1919022
7.1661162
7.1400692
7.1137738
7.0871871
7.0607975
7.035989
7.0134262
6.9930201
6.9745672
6.9578578
6.9427002
6.9289232
6.9163749
6.9049207
6.894443
6.8848379
6.8760146
6.8678932
6.8604033
6.8534831
6.8470774
6.8411395
6.8356167
6.8305079
6.8255946
6.8215586
6.8151574
0.0068856839
0.0068488302
0.0068406226
0.0068399379
0.00684017
0.0068404739
0.0068408394
0.0068412859
0.0068418155
0.0068424268
0.0068431193
0.0068438933
0.0068447496
0.0068456881
0.0068467077
0.0068478057
0.0068489794
0.0068502252
0.0068515593
0.0068529947
0.0068546939
0.0068582737
0.0068398953
0.0074845932
28.113723
23.377912
18.299728
16.113558
14.612163
13.495068
12.653856
11.998682
11.472529
11.040141
10.678332
10.371058
10.106842
9.8772443
9.6759183
9.4979965
9.3396772
9.197943
9.0703636
8.9549575
8.8500906
8.7544023
8.6667487
8.5861608
8.5118115
8.4429903
8.3790824
8.3195538
8.2639376
8.2118244
8.1628533
8.1167051
8.0730965
8.0317754
7.9925169
7.9551199
7.9194039
7.885207
7.8523834
7.8208014
7.7903424
7.7608988
7.7323734
7.7046778
7.6777318
7.6514624
7.6258027
7.6006919
7.5760741
7.5518982
7.5281172
7.5046879
7.4815704
7.4587277
7.4361256
7.4137321
7.3915175
7.3694553
7.347517
7.3256803
7.3039223
7.2822216
7.2605577
7.2389113
7.2172645
7.1955999
7.1739013
7.152153
7.1303405
7.1084494
7.0864663
7.0643782
7.0421727
7.0198379
6.9973623
6.9747351
6.9519459
6.9289846
6.9058418
6.8825084
6.8589758
6.8352353
6.8112789
6.7870991
6.7626885
6.7380418
6.7131511
6.6880287
6.6626312
6.6374561
6.6138241
6.5923463
6.5729257
6.5553635
6.5394578
6.525026
6.5119053
6.4999515
6.4890371
6.4790502
6.4698926
6.461478
6.4537306
6.4465838
6.4399788
6.4338632
6.4281927
6.4229172
6.4180358
6.4133396
6.4094814
6.4033591
0.0068133866
0.0067745399
0.0067655385
0.0067646712
0.0067648523
0.006765131
0.006765481
0.0067659183
0.0067664436
0.0067670542
0.0067677489
0.0067685276
0.0067693907
0.0067703381
0.0067713688
0.0067724805
0.0067736711
0.006774938
0.0067763006
0.0067777751
0.0067795312
0.0067833343
0.0067634815
0.0074170573
28.779097
23.010907
17.915669
15.787242
14.349649
13.277398
12.466664
11.833782
11.324851
10.906187
10.555535
10.257484
10.000996
9.7779513
9.5822358
9.4091578
9.2550511
9.117004
8.9926707
8.8801373
8.777825
8.6844184
8.5988112
8.520066
8.447382
8.380071
8.3175378
8.2592643
8.2047982
8.153742
8.1057456
8.060499
8.017727
7.9771846
7.9386531
7.9019368
7.8668602
7.8332656
7.8010108
7.7699677
7.7400206
7.7110645
7.6830048
7.655755
7.629237
7.6033795
7.5781172
7.5533908
7.5291457
7.5053319
7.4819037
7.4588189
7.4360385
7.4135266
7.3912496
7.3691765
7.3472783
7.3255293
7.3039014
7.2823733
7.2609225
7.2395282
7.2181706
7.1968309
7.1754914
7.1541355
7.1327474
7.1113118
7.0898144
7.0682415
7.0465799
7.0248169
7.0029405
6.9809389
6.9588011
6.9365164
6.9140745
6.8914657
6.8686806
6.8457103
6.8225463
6.79918
6.7756034
6.751809
6.7277895
6.7035394
6.6790508
6.6543357
6.6293503
6.6046079
6.5813991
6.5603021
6.5412139
6.5239383
6.5082789
6.4940585
6.4811193
6.4693216
6.4585416
6.4486706
6.439613
6.4312847
6.423612
6.4165296
6.4099802
6.4039125
6.3982831
6.3930429
6.3881916
6.3835213
6.3796831
6.3735862
0.0067177976
0.0066761913
0.0066660944
0.0066649687
0.0066650746
0.0066653155
0.0066656417
0.0066660645
0.0066665823
0.0066671905
0.0066678868
0.0066686705
0.0066695415
0.0066704996
0.0066715441
0.0066726728
0.0066738847
0.0066751785
0.0066765771
0.0066781015
0.0066799279
0.0066840205
0.0066623148
0.0073281145
28.626316
22.620934
17.561196
15.493415
14.122841
13.099466
12.32269
11.714861
11.225344
10.82217
10.484125
10.196493
9.9487356
9.7330872
9.5436981
9.3760753
9.2267063
9.0928001
8.9721069
8.8627904
8.7633348
8.6724764
8.5891523
8.5124607
8.4416313
8.3760017
8.3149982
8.2581219
8.2049364
8.1550582
8.1081493
8.0639102
8.0220748
7.9824063
7.9446927
7.9087448
7.8743922
7.8414822
7.8098767
7.7794515
7.7500939
7.7217023
7.6941844
7.6674562
7.6414417
7.6160715
7.5912821
7.5670157
7.5432191
7.5198439
7.4968454
7.4741825
7.4518173
7.4297148
7.4078425
7.3861702
7.3646697
7.3433159
7.3220815
7.300946
7.2798874
7.2588856
7.2379211
7.216976
7.1960329
7.1750757
7.154089
7.1330579
7.1119687
7.0908077
7.0695622
7.0482199
7.0267688
7.0051976
6.9834953
6.9616514
6.9396557
6.9174987
6.895171
6.8726638
6.8499686
6.8270767
6.80398
6.780671
6.7571421
6.7333878
6.7093999
6.6851896
6.6607141
6.6364926
6.6137738
6.5931029
6.5743756
6.5574026
6.541996
6.5279866
6.5152234
6.5035725
6.4929147
6.4831454
6.4741722
6.4659137
6.4582983
6.4512626
6.444751
6.4387133
6.4331073
6.4278847
6.4230461
6.4183842
6.4145509
6.4084531
0.0065980814
0.0065528214
0.0065412723
0.0065397931
0.0065397913
0.0065399768
0.0065402677
0.0065406684
0.0065411736
0.0065417763
0.0065424725
0.0065432605
0.0065441398
0.0065451099
0.00654617
0.0065473187
0.0065485557
0.0065498815
0.0065513232
0.0065529077
0.0065548161
0.0065592669
0.0065353544
0.0072157073
27.763659
22.125525
17.138993
15.131062
13.827908
12.855619
12.115179
11.53449
11.066171
10.680018
10.355904
10.079849
9.841835
9.6344765
9.4522056
9.290743
9.1467424
9.0175439
8.9010026
8.7953669
8.6991903
8.6112665
8.5305801
8.4562692
8.3875974
8.3239308
8.2647203
8.2094881
8.1578157
8.1093356
8.0637232
8.020691
7.9799833
7.9413721
7.9046537
7.8696456
7.8361838
7.8041208
7.7733235
7.7436718
7.715057
7.6873807
7.6605536
7.6344945
7.6091299
7.5843923
7.5602205
7.5365582
7.5133543
7.4905614
7.4681365
7.4460397
7.4242344
7.4026866
7.3813647
7.3602397
7.3392842
7.318474
7.2977827
7.2771903
7.2566757
7.2362194
7.2158025
7.1954077
7.1750183
7.1546186
7.1341935
7.113729
7.0932113
7.0726274
7.0519649
7.0312116
7.0103561
6.9893871
6.9682938
6.9470659
6.9256934
6.9041668
6.8824768
6.8606145
6.8385714
6.8163389
6.7939087
6.7712729
6.7484241
6.7253561
6.7020608
6.6785479
6.6547774
6.631262
6.6091925
6.5890791
6.5708211
6.5542407
6.5391622
6.5254271
6.5128934
6.5014346
6.4909376
6.4813029
6.4724422
6.4642775
6.45674
6.4497688
6.44331
6.4373152
6.4317437
6.426548
6.4217301
6.4170835
6.4132603
6.407168
0.0064534884
0.0064035181
0.0063900881
0.0063881344
0.006387981
0.0063880868
0.0063883264
0.006388694
0.006389179
0.006389771
0.0063904638
0.0063912542
0.0063921409
0.006393123
0.0063941998
0.0063953703
0.0063966355
0.0063979977
0.0063994888
0.0064011428
0.0064031426
0.0064080222
0.0063816017
0.0070776135
26.358513
21.530521
16.643938
14.691641
13.453439
12.532184
11.828722
11.275896
10.829455
10.460951
10.15134
9.8873808
9.6595799
9.4609368
9.2861694
9.1312169
8.992903
8.8687024
8.7565785
8.6548673
8.5621944
8.4774128
8.3995569
8.3278065
8.2614606
8.1999154
8.1426475
8.0892012
8.0391772
7.9922245
7.9480331
7.9063277
7.8668639
7.8294232
7.7938103
7.7598502
7.7273853
7.696274
7.6663883
7.6376126
7.6098423
7.5829824
7.556947
7.5316577
7.5070435
7.4830394
7.4595861
7.4366294
7.4141198
7.3920117
7.3702633
7.3488363
7.3276952
7.3068072
7.286142
7.2656713
7.2453689
7.2252114
7.2051731
7.1852351
7.1653769
7.1455795
7.1258251
7.1060967
7.0863782
7.0666544
7.046911
7.0271341
7.0073105
6.9874277
6.9674734
6.947436
6.927304
6.9070666
6.8867132
6.8662336
6.8456179
6.8248566
6.8039406
6.782861
6.7616091
6.7401763
6.7185541
6.6967345
6.6747097
6.6524732
6.6300169
6.6073485
6.5844325
6.5617637
6.5404627
6.5210047
6.5032965
6.4871754
6.4724809
6.4590669
6.4468021
6.4355687
6.4252609
6.4157849
6.4070572
6.3990039
6.3915593
6.3846652
6.3782702
6.3723276
6.3667983
6.3616362
6.3568446
6.352218
6.3484085
6.342326
0.0062834886
0.0062275533
0.006211724
0.0062091402
0.0062087756
0.0062087685
0.0062089346
0.0062092535
0.0062097071
0.0062102806
0.0062109643
0.0062117532
0.0062126447
0.0062136375
0.0062147307
0.0062159237
0.0062172189
0.0062186205
0.0062201661
0.0062218976
0.0062239945
0.0062293742
0.0062001625
0.0069116149
24.557764
20.850491
16.08625
14.183752
13.006615
12.135148
11.468354
10.943341
10.518822
10.168055
9.8730634
9.6213278
9.4038723
9.2140755
9.0469389
8.8986186
8.7661076
8.6470152
8.5394128
8.4417246
8.3526485
8.2710975
8.196156
8.1270463
8.063103
8.0037527
7.9484983
7.8969066
7.8485977
7.8032376
7.7605308
7.7202151
7.6820571
7.6458481
7.6114016
7.5785499
7.5471425
7.5170433
7.4881298
7.4602908
7.433426
7.4074441
7.3822622
7.3578051
7.3340042
7.3107971
7.2881265
7.2659402
7.2441904
7.2228332
7.2018283
7.1811386
7.1607302
7.1405712
7.1206325
7.1008869
7.0813091
7.0618766
7.0425645
7.023355
7.0042279
6.9851652
6.9661497
6.947165
6.9281957
6.909227
6.8902452
6.8712368
6.8521891
6.8330899
6.8139274
6.7946902
6.7753672
6.7559477
6.7364214
6.7167781
6.6970082
6.6771023
6.6570511
6.6368459
6.616478
6.5959384
6.5752188
6.5543108
6.5332063
6.5118986
6.4903792
6.4686539
6.4466926
6.4249636
6.4045094
6.3857708
6.3686651
6.3530473
6.3387733
6.3257113
6.3137416
6.3027559
6.2926561
6.2833549
6.274774
6.2668437
6.259502
6.2526937
6.2463696
6.2404853
6.2350035
6.2298796
6.2251178
6.2205146
6.216721
6.2106512
0.006087913
0.0060245273
0.0060056695
0.0060022558
0.0060015998
0.0060014342
0.006001496
0.0060017443
0.0060021508
0.006002694
0.0060033599
0.0060041408
0.0060050323
0.0060060323
0.0060071397
0.0060083541
0.0060096793
0.0060111219
0.0060127248
0.0060145399
0.0060167346
0.0060226844
0.0059903875
0.0067156252
22.47698
20.095735
15.476516
13.617556
12.49702
11.673586
11.042741
10.545158
10.142324
9.8091479
9.5286895
9.2891333
9.0820067
8.9010586
8.7415683
8.5999047
8.4732271
8.3592772
8.2562335
8.1626069
8.0771672
7.998887
7.9269003
7.8604716
7.798971
7.7418557
7.6886548
7.6389573
7.5924032
7.5486752
7.5074926
7.468606
7.4317932
7.3968557
7.3636154
7.3319125
7.3016028
7.2725566
7.2446564
7.2177958
7.1918784
7.1668168
7.1425314
7.1189499
7.0960063
7.0736405
7.0517975
7.0304269
7.0094828
6.9889229
6.9687083
6.9488034
6.9291753
6.9097936
6.8906301
6.8716588
6.852855
6.8341975
6.8156622
6.7972318
6.7788872
6.7606109
6.7423864
6.7241979
6.7060306
6.6878705
6.669704
6.6515183
6.6333012
6.6150407
6.5967255
6.5783445
6.559887
6.5413424
6.5227007
6.5039518
6.4850863
6.4660948
6.4469683
6.4276978
6.4082747
6.38869
6.3689352
6.3490016
6.328881
6.3085662
6.2880488
6.2673322
6.2463924
6.225665
6.2061101
6.1881352
6.1716701
6.1565886
6.1427641
6.1300794
6.1184269
6.1077083
6.0978338
6.0887226
6.0803019
6.0725066
6.0652785
6.0585654
6.0523209
6.0465026
6.0410751
6.0359953
6.031269
6.0266942
6.0229208
6.0168696
0.0058670931
0.0057945165
0.0057718697
0.0057673692
0.0057663145
0.0057659287
0.0057658444
0.0057659921
0.0057663293
0.0057668255
0.0057674607
0.0057682235
0.0057691072
0.0057701082
0.005771225
0.0057724573
0.0057738103
0.0057752928
0.0057769531
0.005778855
0.005781142
0.0057877264
0.0057520694
0.0064878052
20.210457
19.271834
14.823647
13.002413
11.933844
11.156499
10.560751
10.090111
9.7086403
9.3928354
9.1267641
8.8992929
8.7024372
8.5303064
8.3784501
8.243445
8.1226129
8.0138255
7.9153656
7.8258301
7.744059
7.6690837
7.6000876
7.5363764
7.4773557
7.422513
7.3714031
7.3236376
7.2788759
7.2368174
7.1971963
7.1597761
7.1243458
7.0907167
7.0587195
7.028202
6.999027
6.9710704
6.9442202
6.9183747
6.8934417
6.8693374
6.8459854
6.8233165
6.8012673
6.7797801
6.758802
6.7382847
6.7181838
6.6984587
6.6790721
6.6599897
6.6411798
6.6226133
6.6042629
6.5861037
6.568112
6.5502675
6.5325467
6.5149336
6.4974093
6.4799573
6.4625617
6.4452074
6.4278801
6.4105663
6.3932531
6.3759282
6.3585796
6.341196
6.3237664
6.3062799
6.2887262
6.2710951
6.2533767
6.2355613
6.2176395
6.1996019
6.1814398
6.1631443
6.1447066
6.1261179
6.1073694
6.0884524
6.0693584
6.0500799
6.0306084
6.0109453
5.9910727
5.9713896
5.9527723
5.9355964
5.9198049
5.9052905
5.8919439
5.8796628
5.8683519
5.857923
5.8482944
5.8393923
5.8311495
5.8235055
5.816406
5.8098021
5.80365
5.7979096
5.7925476
5.7875223
5.782841
5.778304
5.7745582
5.7685377
0.0056219913
0.0055382207
0.0055108724
0.0055049572
0.0055033619
0.0055026732
0.0055023866
0.005502393
0.0055026306
0.0055030564
0.0055036427
0.0055043727
0.0055052367
0.0055062289
0.0055073468
0.0055085904
0.0055099657
0.0055114838
0.0055131981
0.0055151856
0.0055175515
0.0055248254
0.0054855912
0.0062267707
17.840809
18.381293
14.134602
12.347196
11.325959
10.592694
10.031168
9.5869826
9.226553
8.9279031
8.6760769
8.4606023
8.2739675
8.1106315
7.9664075
7.8380742
7.7231124
7.61952
7.5256827
7.4402808
7.3622239
7.2906008
7.2246436
7.1636988
7.1072071
7.0546857
7.0057152
6.9599295
6.917007
6.8766643
6.8386501
6.8027407
6.7687364
6.7364586
6.7057466
6.6764558
6.648456
6.621629
6.5958682
6.5710765
6.547166
6.5240566
6.5016754
6.4799559
6.4588375
6.4382649
6.4181873
6.3985584
6.3793356
6.3604799
6.3419554
6.3237293
6.305771
6.2880526
6.270548
6.2532332
6.2360856
6.2190855
6.2022105
6.1854453
6.1687718
6.1521741
6.135637
6.1191461
6.1026877
6.0862489
6.0698173
6.0533809
6.0369286
6.0204492
6.0039322
5.9873673
5.9707443
5.9540534
5.9372849
5.9204295
5.9034778
5.886421
5.8692501
5.8519565
5.8345315
5.8169663
5.7992521
5.7813801
5.7633416
5.745129
5.7267338
5.7081553
5.6893817
5.6707736
5.6531244
5.6367791
5.6216933
5.607778
5.5949409
5.5830939
5.5721538
5.5620422
5.5526858
5.5440176
5.535976
5.5285054
5.5215553
5.51508
5.5090387
5.5033937
5.4981134
5.4931582
5.4885364
5.4840513
5.4803449
5.4743744
0.0053543092
0.0052571
0.0052239687
0.0052162243
0.0052139028
0.0052128023
0.0052122388
0.0052120497
0.0052121467
0.0052124703
0.0052129824
0.0052136591
0.0052144861
0.005215455
0.0052165618
0.0052178057
0.0052191936
0.005220739
0.0052224989
0.0052245657
0.0052269879
0.0052349899
0.0051920682
0.0059318332
15.442503
17.423221
13.417396
11.660853
10.682385
9.9911399
9.4629645
9.0447688
8.7050863
8.4233999
8.1857002
7.982156
7.8057137
7.6511715
7.5145988
7.3929714
7.2839244
7.1855795
7.0964223
7.0152154
6.940936
6.8727298
6.8098763
6.7517627
6.697864
6.6477267
6.6009573
6.5572114
6.5161869
6.4776169
6.4412648
6.4069199
6.3743938
6.3435176
6.3141397
6.2861233
6.2593447
6.2336921
6.2090641
6.1853687
6.1625219
6.1404477
6.1190763
6.0983445
6.0781942
6.0585726
6.0394312
6.0207255
6.0024148
5.9844618
5.966832
5.9494939
5.9324183
5.9155784
5.8989492
5.8825077
5.8662323
5.8501041
5.8341018
5.8182105
5.8024132
5.7866946
5.7710401
5.755436
5.7398693
5.7243276
5.708799
5.6932723
5.6777366
5.6621814
5.6465965
5.630972
5.6152983
5.5995657
5.5837652
5.5678875
5.5519236
5.5358648
5.5197025
5.5034282
5.4870335
5.4705095
5.4538476
5.437039
5.420075
5.4029478
5.385649
5.3681762
5.350523
5.3330119
5.3163559
5.3008704
5.2865228
5.2732409
5.260948
5.2495697
5.2390341
5.2292726
5.2202201
5.2118159
5.2040044
5.1967346
5.1899599
5.1836381
5.1777312
5.1722038
5.1670266
5.1621616
5.1576184
5.1532041
5.1495528
5.1436579
0.0050665604
0.0049534897
0.0049133174
0.0049032252
0.0048999386
0.0048982849
0.0048973473
0.0048968914
0.0048967937
0.0048969729
0.0048973767
0.004897972
0.0048987384
0.0048996637
0.0049007412
0.0049019694
0.0049033553
0.004904914
0.0049067054
0.0049088386
0.0049112841
0.0049200288
0.0048734733
0.0056032655
13.080687
16.398234
12.67917
10.952698
10.01257
9.3611959
8.8654771
8.4728201
8.1536103
7.8887148
7.6650403
7.473377
7.3071148
7.161381
7.032494
6.9176212
6.8145485
6.7215179
6.6371126
6.5601755
6.4897503
6.4250382
6.3653656
6.3101595
6.2589286
6.2112489
6.1667519
6.1251152
6.0860557
6.0493233
6.014696
5.9819759
5.9509859
5.9215674
5.8935774
5.8668869
5.8413794
5.8169492
5.7935004
5.7709456
5.7492056
5.728208
5.7078865
5.688181
5.6690363
5.6504019
5.6322316
5.614483
5.5971172
5.5800984
5.5633939
5.5469735
5.5308092
5.5148755
5.4991484
5.483606
5.4682276
5.4529952
5.4378884
5.4228932
5.4079932
5.3931738
5.3784213
5.3637225
5.3490651
5.3344373
5.3198279
5.305226
5.2906214
5.276004
5.2613643
5.2466927
5.2319801
5.2172173
5.2023955
5.1875059
5.1725398
5.1574889
5.1423449
5.1270994
5.1117444
5.0962711
5.0806712
5.0649359
5.0490567
5.0330257
5.0168348
5.00048
4.9839601
4.9675601
4.9519171
4.937318
4.9237402
4.9111264
4.8994141
4.8885415
4.8784473
4.8690721
4.8603584
4.8522524
4.8447037
4.837666
4.8310968
4.8249572
4.819212
4.8138285
4.8087793
4.8040283
4.7995864
4.7952652
4.7916876
4.7858994
0.0047620913
0.0046306799
0.004582037
0.0045689596
0.004564406
0.0045620186
0.0045605823
0.004559768
0.0045594055
0.004559385
0.0045596356
0.0045601124
0.0045607866
0.0045616405
0.0045626643
0.0045638544
0.0045652172
0.0045667691
0.0045685704
0.0045707492
0.0045731745
0.0045826431
0.004532733
0.0052425729
10.818173
15.304474
11.926714
10.232401
9.326401
8.7126096
8.2483846
7.8807954
7.5817791
7.3334997
7.1237477
6.9439151
6.787821
6.6509109
6.5297453
6.4216782
6.3246416
6.2369949
6.1574165
6.0848275
6.0183366
5.9571996
5.9007886
5.8485696
5.8000851
5.7549396
5.7127894
5.6733342
5.6363095
5.6014818
5.5686439
5.5376105
5.5082163
5.4803123
5.4537647
5.4284524
5.4042659
5.3811058
5.3588818
5.3375115
5.31692
5.297039
5.2778059
5.2591635
5.2410595
5.2234461
5.2062793
5.1895189
5.1731277
5.1570718
5.1413199
5.1258433
5.1106154
5.0956116
5.0808094
5.0661877
5.0517269
5.0374098
5.0232171
5.0091354
4.9951491
4.9812443
4.9674081
4.953628
4.9398923
4.9261899
4.91251
4.8988425
4.8851777
4.8715062
4.8578186
4.8441062
4.8303602
4.816572
4.8027332
4.7888353
4.7748703
4.76083
4.7467065
4.732492
4.7181785
4.7037578
4.6892217
4.6745617
4.6597695
4.6448373
4.6297574
4.6145245
4.5991416
4.583859
4.5692427
4.5555522
4.5427728
4.53086
4.5197639
4.5094337
4.4998182
4.4908663
4.482528
4.4747555
4.4675039
4.4607316
4.4543998
4.4484731
4.4429192
4.4377077
4.4328135
4.4282025
4.4238865
4.4196828
4.4161995
4.4105521
0.0044450355
0.0042929422
0.004234252
0.0042174246
0.0042112297
0.0042078831
0.0042057921
0.0042045038
0.0042037874
0.0042034967
0.0042035368
0.0042038468
0.0042043875
0.004205134
0.0042060716
0.0042071936
0.0042085049
0.0042100221
0.0042118038
0.0042139983
0.0042163496
0.0042264795
0.0041737784
0.0048527307
8.709192
14.14248
11.166229
9.5097184
8.6340058
8.0553259
7.6215071
7.2784549
6.9993164
6.7674496
6.5714923
6.4034181
6.2574602
6.129372
6.0159481
5.9147235
5.8237725
5.7415682
5.6668818
5.5987104
5.5362261
5.4787378
5.4256626
5.3765048
5.3308394
5.2882995
5.248566
5.2113597
5.1764351
5.1435752
5.112587
5.0832984
5.0555552
5.0292186
5.0041639
4.9802778
4.957458
4.9356115
4.9146535
4.894507
4.8751014
4.8563725
4.8382613
4.820714
4.8036812
4.7871176
4.7709817
4.7552353
4.7398434
4.7247737
4.7099964
4.6954844
4.6812124
4.6671572
4.6532971
4.6396123
4.6260842
4.6126963
4.5994306
4.5862741
4.5732122
4.5602318
4.5473205
4.5344667
4.5216593
4.5088877
4.496142
4.4834125
4.4706901
4.457966
4.4452314
4.4324781
4.4196978
4.4068825
4.3940241
4.3811149
4.3681471
4.355113
4.3420053
4.3288164
4.3155389
4.3021649
4.2886866
4.2750958
4.2613847
4.2475455
4.2335711
4.2194551
4.2052041
4.1910366
4.1774531
4.1646869
4.152729
4.1415457
4.1310976
4.1213437
4.1122418
4.1037484
4.0958204
4.0884159
4.0814952
4.075021
4.0689583
4.0632751
4.0579419
4.0529308
4.0482189
4.0437742
4.0396092
4.0355481
4.0321799
4.0267084
0.004120189
0.0039454851
0.0038750745
0.0038536081
0.0038453193
0.0038407389
0.0038378019
0.0038358971
0.0038347168
0.0038340679
0.0038338254
0.0038339081
0.0038342632
0.0038348562
0.0038356659
0.0038366813
0.0038379043
0.0038393507
0.0038410741
0.0038432444
0.0038454595
0.0038561343
0.0038015345
0.0044383346
6.7937755
12.91888
10.402772
8.7940647
7.9454171
7.3991762
6.9945007
6.6753531
6.4157088
6.1999959
6.0176569
5.8612252
5.7253325
5.6060289
5.5003349
5.4059604
5.3211176
5.2443898
5.1746378
5.1109327
5.0525081
4.9987246
4.949043
4.9030048
4.8602173
4.8203413
4.7830816
4.74818
4.7154097
4.6845697
4.6554816
4.6279859
4.6019396
4.5772143
4.553694
4.5312736
4.5098578
4.4893601
4.4697014
4.4508099
4.4326197
4.4150706
4.3981074
4.3816796
4.3657407
4.3502483
4.3351633
4.3204496
4.3060742
4.2920067
4.2782189
4.2646852
4.2513817
4.2382863
4.2253787
4.2126401
4.2000528
4.1876013
4.1752686
4.1630424
4.150909
4.1388559
4.1268715
4.1149449
4.1030657
4.091224
4.0794103
4.0676158
4.0558319
4.0440502
4.0322627
4.0204617
4.0086394
3.9967884
3.9849012
3.9729705
3.960989
3.9489497
3.9368455
3.9246696
3.9124148
3.9000738
3.8876393
3.8751036
3.8624591
3.8496986
3.8368152
3.8238023
3.8106688
3.7976047
3.7850515
3.7732168
3.7620961
3.7516638
3.7418893
3.7327402
3.7241818
3.7161778
3.7086913
3.7016859
3.6951267
3.6889806
3.6832164
3.6778052
3.6727202
3.6679364
3.6634326
3.6591792
3.6551891
3.6512944
3.6480616
3.6427999
0.0037928022
0.0035943141
0.0035105074
0.0034834069
0.0034724935
0.0034663537
0.0034623432
0.0034596516
0.0034578746
0.0034567609
0.003456148
0.0034559293
0.0034560346
0.0034564174
0.0034570477
0.0034579086
0.0034589973
0.0034603277
0.0034619447
0.0034640406
0.0034660518
0.003477092
0.0034218325
0.0040056116
5.1031363
11.643339
9.6394375
8.0940093
7.2701664
6.7535192
6.3765108
6.0804986
5.8398693
5.639974
5.4710086
5.326042
5.2000883
5.0894815
4.9914593
4.9039004
4.8251494
4.753896
4.6890877
4.6298669
4.5755265
4.5254772
4.4792223
4.4363393
4.3964668
4.3592924
4.3245446
4.2919857
4.2614068
4.2326231
4.20547
4.1798008
4.1554837
4.1324001
4.110443
4.0895154
4.0695291
4.0504039
4.0320667
4.0144507
3.9974947
3.9811428
3.9653434
3.9500495
3.9352177
3.9208084
3.9067847
3.8931131
3.8797625
3.8667043
3.8539122
3.8413618
3.8290307
3.8168982
3.8049452
3.7931538
3.7815075
3.7699916
3.7585903
3.7472917
3.7360831
3.7249528
3.71389
3.7028842
3.6919259
3.6810058
3.6701151
3.6592454
3.6483888
3.6375377
3.6266844
3.6158219
3.6049429
3.5940406
3.5831081
3.5721387
3.5611255
3.5500621
3.538942
3.5277587
3.5165058
3.5051765
3.4937638
3.4822607
3.4706602
3.4589554
3.44714
3.4352071
3.4231673
3.4111858
3.3996504
3.3887453
3.378468
3.3687994
3.3597161
3.3511924
3.3432006
3.3357105
3.3286908
3.3221103
3.3159384
3.3101459
3.3047054
3.2995909
3.2947784
3.2902452
3.2859724
3.2819325
3.2781389
3.274432
3.2713526
3.2663315
0.0034682971
0.0032459847
0.0031472534
0.0031134557
0.0030993177
0.0030912465
0.0030859011
0.0030822254
0.0030796968
0.0030779933
0.0030769063
0.0030762983
0.0030760774
0.0030761821
0.0030765713
0.0030772203
0.0030781196
0.0030792796
0.0030807334
0.0030826945
0.0030844333
0.0030955909
0.0030412333
0.0035621888
3.6594802
10.328413
8.8772093
7.4167728
6.61687
6.1268899
5.7758435
5.502035
5.2798259
5.0953185
4.9393998
4.805647
4.6894389
4.5873802
4.4969159
4.4160861
4.3433628
4.2775378
4.2176416
4.1628849
4.112618
4.0662995
4.0234734
3.9837524
3.946805
3.9123449
3.8801233
3.8499225
3.8215511
3.7948398
3.769638
3.745811
3.723238
3.7018104
3.6814298
3.6620071
3.6434613
3.6257186
3.6087116
3.5923786
3.5766632
3.5615136
3.5468822
3.5327252
3.5190025
3.505677
3.4927147
3.4800841
3.4677563
3.4557046
3.4439042
3.4323326
3.4209685
3.4097927
3.3987872
3.3879353
3.3772213
3.3666317
3.3561515
3.3457697
3.3354742
3.3252542
3.3150996
3.3050006
3.2949482
3.2849339
3.2749495
3.2649873
3.2550398
3.2451
3.2351609
3.225216
3.2152586
3.2052825
3.1952812
3.1852487
3.1751788
3.1650653
3.1549026
3.1446845
3.1344052
3.1240586
3.1136382
3.1031376
3.0925503
3.0818699
3.0710909
3.0602062
3.0492275
3.0382982
3.0277585
3.0177707
3.0083331
2.9994312
2.991047
2.9831607
2.9757502
2.9687907
2.9622559
2.9561191
2.9503539
2.9449349
2.9398378
2.9350396
2.930519
2.9262557
2.9222326
2.9184246
2.9148451
2.9113441
2.9084335
2.9036791
0.0031519322
0.0029072477
0.0027924154
0.0027508556
0.0027328464
0.0027224372
0.0027154697
0.0027105914
0.0027071381
0.0027047037
0.0027030249
0.0027019272
0.0027012927
0.0027010412
0.0027011184
0.0027014891
0.0027021356
0.0027030628
0.0027042888
0.0027060458
0.0027074475
0.0027184084
0.0026667559
0.0031164972
2.4768605
8.9883773
8.1155404
6.7676645
5.9928459
5.5266969
5.1996946
4.9469826
4.7424728
4.5728217
4.4295341
4.3066638
4.1999349
4.1062088
4.0231273
3.948884
3.8820721
3.8215809
3.7665199
3.7161653
3.6699219
3.627294
3.5878649
3.5512806
3.5172383
3.4854769
3.4557693
3.4279171
3.4017458
3.377101
3.3538454
3.3318563
3.3110235
3.291248
3.2724399
3.254518
3.2374081
3.2210427
3.2053601
3.1903037
3.1758219
3.1618668
3.1483948
3.1353655
3.1227419
3.1104897
3.0985773
3.0869757
3.0756581
3.0645994
3.0537769
3.0431693
3.0327572
3.0225223
3.0124479
3.0025184
2.9927193
2.9830377
2.9734599
2.9639754
2.9545731
2.9452428
2.9359751
2.9267609
2.9175919
2.9084602
2.8993581
2.8902786
2.8812147
2.87216
2.8631082
2.8540531
2.8449887
2.8359094
2.8268092
2.8176826
2.808524
2.7993279
2.7900889
2.7808018
2.771461
2.7620612
2.7525964
2.7430609
2.7334487
2.7237541
2.7139719
2.7040956
2.6941372
2.6842211
2.6746457
2.6655529
2.656941
2.6487985
2.6411116
2.6338652
2.6270416
2.6206208
2.6145809
2.6088992
2.6035531
2.5985206
2.5937804
2.5893123
2.5850976
2.581118
2.5773585
2.5737962
2.5704444
2.5671629
2.5644329
2.5599657
0.0028484576
0.0025845947
0.0024530934
0.0024028033
0.0023802704
0.0023671049
0.0023582179
0.0023519083
0.0023473468
0.0023440307
0.0023416331
0.0023399364
0.0023387926
0.0023380995
0.0023377864
0.002337806
0.0023381299
0.0023387558
0.0023396842
0.0023411615
0.0023421713
0.0023525673
0.0023055103
0.0026765788
1.5655522
7.6365154
7.3535837
6.1498529
5.4037911
4.9589919
4.6539575
4.4210646
4.2334057
4.077978
3.9468177
3.8344183
3.7368292
3.6511535
3.5752182
3.5073616
3.446292
3.3909906
3.3406422
3.2945849
3.2522749
3.2132603
3.1771611
3.1436553
3.1124674
3.0833601
3.0561272
3.0305884
3.0065854
2.9839782
2.9626424
2.9424664
2.9233506
2.9052049
2.887948
2.8715059
2.8558113
2.8408027
2.8264242
2.812624
2.7993551
2.7865738
2.7742401
2.7623171
2.7507708
2.7395697
2.7286849
2.7180894
2.7077586
2.6976695
2.6878009
2.6781331
2.6686481
2.659329
2.6501602
2.6411273
2.6322168
2.6234165
2.6147141
2.6060994
2.5975624
2.5890933
2.5806836
2.5723249
2.5640093
2.5557297
2.5474789