/*--------------------------------*- C++ -*----------------------------------*\
  =========                 |
  \\      /  F ield         | OpenFOAM: The Open Source CFD Toolbox
   \\    /   O peration     | Website:  https://openfoam.org
    \\  /    A nd           | Version:  12
     \\/     M anipulation  |
\*---------------------------------------------------------------------------*/
FoamFile
{
    format      ascii;
    class       volScalarField;
    location    "200";
    object      epsilon;
}
// * * * * * * * * * * * * * * * * * * * * * * * * * * * * * * * * * * * * * //

dimensions      [0 2 -3 0 0 0 0];

internalField   nonuniform List<scalar> 
7480
(
0.016056349
0.06676575
0.16354823
0.29339174
0.43164246
0.55575492
0.65228817
0.71737213
0.75382229
0.76755844
0.76497896
0.75160134
0.73164002
0.70807245
0.68288979
0.65737805
0.63237575
0.60845622
0.58599917
0.56527717
0.54650435
0.52985867
0.51547975
0.50345731
0.4938169
0.48646893
0.48111143
0.47732102
0.47453548
0.47215962
0.46971272
0.46692106
0.4637195
0.4602003
0.45650308
0.45273557
0.44894095
0.4451114
0.44122291
0.43726728
0.43326471
0.42925373
0.42527281
0.42134574
0.41747999
0.41367514
0.40993087
0.40624882
0.40263066
0.39907684
0.39558642
0.39215752
0.38878829
0.38547749
0.38222396
0.37902589
0.37588124
0.3727886
0.36974731
0.36675553
0.36381142
0.3609135
0.35806033
0.3552506
0.35248326
0.34975726
0.34707146
0.34442485
0.34181642
0.3392451
0.33670992
0.33420991
0.33174409
0.32931153
0.32691127
0.32454241
0.32220406
0.31989533
0.31761541
0.31536351
0.31313886
0.31094074
0.30876846
0.30662135
0.30449875
0.30239997
0.30032424
0.29827065
0.29623815
0.29422546
0.29223125
0.29025354
0.28829131
0.28633975
0.28440315
0.28245879
0.28054902
0.27853038
0.27681033
0.27362685
0.00023281309
0.00098624651
0.0032503597
0.0077025088
0.01428686
0.022604766
0.031754673
0.040593596
0.048314905
0.054560848
0.059300968
0.062821095
0.065624223
0.068238192
0.071203621
0.075087038
0.080792881
0.088448404
0.096848628
0.10601295
0.11613755
0.12732876
0.13948609
0.15226264
0.16523655
0.17773375
0.18888956
0.19787273
0.20407903
0.2073336
0.20793903
0.2065463
0.20393377
0.20079852
0.1976157
0.19460262
0.19178601
0.18910679
0.18650366
0.18395558
0.18148056
0.17910933
0.1768598
0.17473199
0.17270998
0.1707748
0.16891249
0.16711442
0.16537398
0.16368481
0.16204132
0.16043916
0.15887496
0.15734575
0.15584887
0.15438213
0.15294389
0.15153288
0.15014767
0.14878778
0.1474522
0.14613992
0.14485019
0.14358235
0.14233583
0.14111009
0.13990457
0.13871875
0.13755214
0.13640423
0.13527455
0.13416265
0.13306807
0.13199035
0.13092907
0.12988379
0.12885409
0.12783956
0.1268398
0.12585442
0.12488306
0.12392533
0.12298089
0.12204937
0.12113044
0.12022371
0.1193288
0.11844526
0.11757259
0.11671025
0.11585763
0.11501404
0.11417883
0.11335084
0.11252997
0.11171288
0.11090449
0.11007737
0.10934728
0.10805403
4.1698757e-05
6.8487516e-05
0.00012811324
0.00022465509
0.00035844459
0.00053065419
0.00074122554
0.00098663242
0.0012597434
0.0015505289
0.0018475076
0.002140354
0.0024224809
0.0026928109
0.0029576319
0.003230683
0.003542133
0.0039310068
0.004439715
0.005120972
0.0060424929
0.0072887106
0.0089894964
0.011407778
0.014738675
0.01926121
0.025760106
0.03354308
0.042342863
0.051835963
0.06148678
0.070696758
0.07889158
0.085590363
0.090531084
0.093740821
0.095481217
0.096149793
0.096158677
0.095840302
0.095397663
0.094914335
0.094403244
0.093849924
0.093248799
0.092610632
0.09195365
0.091292261
0.090632314
0.089973559
0.089314377
0.088654347
0.087994097
0.087334259
0.086675097
0.086016745
0.085359415
0.08470344
0.084049098
0.083396725
0.082746843
0.082099934
0.08145641
0.080816649
0.080181016
0.079549851
0.078923449
0.078302068
0.077685944
0.077075278
0.076470245
0.075870993
0.075277643
0.074690293
0.074109018
0.073533873
0.072964895
0.072402111
0.071845538
0.07129518
0.070751028
0.070213059
0.069681236
0.069155515
0.068635832
0.0681221
0.067614193
0.067111941
0.066615134
0.066123529
0.065636848
0.065154796
0.064677009
0.064203174
0.063732732
0.063265532
0.062801199
0.062331509
0.061915971
0.061176599
3.43148e-05
3.6548852e-05
4.1829955e-05
5.0703675e-05
6.3082721e-05
7.8657618e-05
9.7108682e-05
0.00011812351
0.00014136034
0.00016643055
0.00019289892
0.00022030499
0.00024821719
0.00027628414
0.00030429671
0.00033220879
0.0003603148
0.00038920652
0.00042003487
0.00045466826
0.00049545588
0.00054631658
0.00061250134
0.0007027294
0.00083061819
0.0010150409
0.0013019019
0.0017410857
0.0024032542
0.0033712893
0.004818194
0.0069084612
0.0097958214
0.013920775
0.01887601
0.024397306
0.030122659
0.03569091
0.040749835
0.045013768
0.048343734
0.050765097
0.052431945
0.053557778
0.054343027
0.054925546
0.055374152
0.055711513
0.055944325
0.056082513
0.056142547
0.056141688
0.056092591
0.056002654
0.055876534
0.055718354
0.055532222
0.055321858
0.055090321
0.054840086
0.054573389
0.054292297
0.053998682
0.053694208
0.053380361
0.053058481
0.052729768
0.052395304
0.052056067
0.051712931
0.051366686
0.051018044
0.050667643
0.050316056
0.049963801
0.049611336
0.049259077
0.048907402
0.048556651
0.048207133
0.047859122
0.047512857
0.047168548
0.046826376
0.046486493
0.046149013
0.045814
0.045481471
0.045151399
0.044823725
0.044498356
0.044175204
0.043854095
0.043535012
0.043217479
0.042902083
0.042587702
0.04227088
0.041992275
0.041491651
3.3675198e-05
3.3954023e-05
3.4655641e-05
3.6006989e-05
3.8122525e-05
4.1015473e-05
4.4641325e-05
4.8932108e-05
5.3812368e-05
5.9205954e-05
6.5038307e-05
7.1236418e-05
7.7730048e-05
8.445366e-05
9.13495e-05
9.8369263e-05
0.00010548147
0.00011267463
0.0001199655
0.00012742199
0.00013513886
0.00014331489
0.00015221221
0.00016222508
0.00017396806
0.00018821529
0.00020647837
0.00023076578
0.0002641726
0.00031102273
0.00037888005
0.00048022843
0.00063320203
0.00087921392
0.0012719114
0.0018710117
0.0028148684
0.0042013002
0.0061683586
0.0088674251
0.012090014
0.015626738
0.019241619
0.022697789
0.025787284
0.028386556
0.030470654
0.032099848
0.033379378
0.034412016
0.035268742
0.035986132
0.03658084
0.037065191
0.037453892
0.037762488
0.038003882
0.038187315
0.038319678
0.038406879
0.03845432
0.038466786
0.038448358
0.03840254
0.038332428
0.038240788
0.038130069
0.038002441
0.037859841
0.037704
0.03753647
0.037358649
0.037171789
0.03697702
0.036775361
0.036567729
0.036354956
0.036137798
0.035916945
0.035693024
0.035466602
0.035238192
0.035008252
0.034777196
0.034545387
0.034313137
0.034080698
0.033848264
0.033615971
0.033383922
0.03315218
0.032920813
0.032689807
0.032459313
0.032229041
0.031999742
0.031770519
0.031539227
0.031337826
0.03097096
3.3406721e-05
3.3512098e-05
3.3668239e-05
3.3930336e-05
3.4360557e-05
3.5008817e-05
3.5904456e-05
3.7057149e-05
3.8461912e-05
4.0104457e-05
4.1965371e-05
4.4022919e-05
4.6254682e-05
4.8638553e-05
5.1153388e-05
5.3779405e-05
5.6498854e-05
5.9296603e-05
6.2160791e-05
6.5085247e-05
6.80689e-05
7.112059e-05
7.4259841e-05
7.751932e-05
8.0953623e-05
8.4636694e-05
8.8690217e-05
9.3288148e-05
9.8684102e-05
0.00010521912
0.00011338935
0.00012395501
0.00013791116
0.00015706336
0.00018417309
0.00022307333
0.00028107094
0.00036910529
0.00050579015
0.00072701668
0.0010767543
0.0016397095
0.0025004279
0.0037539994
0.0054943139
0.0076152184
0.0099791741
0.01243416
0.014820027
0.017001424
0.01889882
0.020496709
0.021829825
0.022952876
0.023913318
0.024740634
0.025450973
0.026056269
0.026569101
0.027002122
0.027366062
0.027669272
0.027918569
0.028120009
0.028279038
0.028400414
0.028488242
0.028546125
0.028577278
0.028584553
0.028570489
0.02853735
0.028487164
0.028421754
0.028342757
0.028251646
0.028149753
0.028038287
0.027918346
0.027790928
0.027656942
0.027517209
0.027372474
0.02722341
0.027070621
0.026914639
0.026755922
0.026594853
0.026431747
0.02626687
0.026100446
0.025932689
0.025763745
0.025593893
0.025423053
0.025252011
0.025080257
0.024906147
0.024756048
0.02447825
3.3103196e-05
3.3196579e-05
3.3296006e-05
3.3407845e-05
3.3547129e-05
3.373299e-05
3.3985075e-05
3.4320273e-05
3.4751709e-05
3.5287684e-05
3.5931793e-05
3.6683666e-05
3.7539884e-05
3.8494965e-05
3.9541536e-05
4.0671519e-05
4.1876892e-05
4.3149785e-05
4.4482687e-05
4.5868872e-05
4.7302637e-05
4.8779835e-05
5.0298465e-05
5.1859045e-05
5.3465971e-05
5.5127982e-05
5.6860614e-05
5.8688245e-05
6.0647601e-05
6.2790134e-05
6.5187302e-05
6.793645e-05
7.1160611e-05
7.5047545e-05
7.9872142e-05
8.6005201e-05
9.4003534e-05
0.00010470388
0.00011929575
0.00013981955
0.00016935477
0.00021355944
0.00028133132
0.00038752485
0.00056011887
0.00083360827
0.0012820512
0.0019625951
0.0029836782
0.0043109005
0.005885903
0.0076139572
0.0093838518
0.011087293
0.012645049
0.014020574
0.015217095
0.016258974
0.017171932
0.017973623
0.018675134
0.019285868
0.019815723
0.020274295
0.020669767
0.021008911
0.02129764
0.021541301
0.021744658
0.021911893
0.022046707
0.022152414
0.022231974
0.022288038
0.022322982
0.022338943
0.022337848
0.022321439
0.022291297
0.022248857
0.022195423
0.022132178
0.022060197
0.021980452
0.021893825
0.021801102
0.021702972
0.021600036
0.021492806
0.021381733
0.021267209
0.021149608
0.021029238
0.020906509
0.020781548
0.020655169
0.020527228
0.020396463
0.020284726
0.020073858
3.2755581e-05
3.2847199e-05
3.2941816e-05
3.3037266e-05
3.3135305e-05
3.3239899e-05
3.335675e-05
3.3493256e-05
3.3657003e-05
3.3855346e-05
3.4094842e-05
3.4380813e-05
3.4717117e-05
3.5106039e-05
3.554894e-05
3.6045859e-05
3.6595458e-05
3.7195521e-05
3.7843245e-05
3.8535472e-05
3.9268889e-05
4.0040215e-05
4.0846421e-05
4.1684921e-05
4.2553858e-05
4.3452388e-05
4.4381048e-05
4.5342233e-05
4.6340806e-05
4.7384986e-05
4.8485899e-05
4.9665005e-05
5.0953854e-05
5.238873e-05
5.4018881e-05
5.5911625e-05
5.8155591e-05
6.0878292e-05
6.4236065e-05
6.8467377e-05
7.390548e-05
8.1076655e-05
9.0768893e-05
0.00010415874
0.0001232393
0.00015101799
0.00019355212
0.000259389
0.00036664567
0.00053927891
0.0008217867
0.0012658012
0.0019439961
0.002861457
0.0039867105
0.0052580813
0.0065964492
0.0079204928
0.0091657749
0.010297929
0.011311252
0.012215551
0.013022813
0.013741783
0.014379172
0.014941895
0.015437293
0.015872216
0.016252612
0.016583749
0.016870452
0.017117098
0.017327603
0.017505482
0.017653907
0.01777574
0.017873562
0.017949709
0.018006301
0.018045261
0.01806834
0.018077127
0.018073071
0.018057486
0.018031564
0.017996379
0.017952885
0.017901927
0.017844241
0.017780482
0.017711232
0.017637038
0.01755838
0.017475811
0.017389662
0.0173008
0.017209387
0.017114612
0.017034227
0.016878228
3.2371246e-05
3.2461293e-05
3.2554415e-05
3.2647688e-05
3.2740789e-05
3.2834213e-05
3.2928935e-05
3.3026576e-05
3.312941e-05
3.3240277e-05
3.3362417e-05
3.3499273e-05
3.3654265e-05
3.3830579e-05
3.4031046e-05
3.4258029e-05
3.4513304e-05
3.479802e-05
3.5112715e-05
3.5457379e-05
3.5831525e-05
3.6234283e-05
3.6664501e-05
3.7120859e-05
3.7601987e-05
3.8106604e-05
3.8633657e-05
3.9182478e-05
3.9752966e-05
4.0345878e-05
4.0962789e-05
4.160705e-05
4.22848e-05
4.3004679e-05
4.3778179e-05
4.4621064e-05
4.5552694e-05
4.6603976e-05
4.7819242e-05
4.9249437e-05
5.0960406e-05
5.3044837e-05
5.5633051e-05
5.8893326e-05
6.3084499e-05
6.8563891e-05
7.5954361e-05
8.6117225e-05
0.00010059982
0.0001217347
0.00015388445
0.00020383516
0.00028492255
0.00041601991
0.00063137841
0.00097401838
0.001498116
0.0022072208
0.0030795974
0.0040712019
0.0051217628
0.0061696315
0.007167039
0.0080890771
0.0089300713
0.0096932746
0.010383151
0.011003545
0.011558708
0.012053676
0.012493608
0.01288327
0.013227043
0.013529034
0.013793041
0.014022535
0.014220683
0.014390384
0.014534282
0.014654794
0.014754126
0.014834296
0.014897144
0.014944351
0.014977446
0.014997814
0.015006702
0.015005219
0.014994353
0.014974983
0.0149479
0.014913838
0.014873464
0.014827485
0.014776436
0.014721269
0.014662391
0.01459954
0.014546569
0.014438468
3.1957199e-05
3.2045658e-05
3.2137329e-05
3.2229312e-05
3.2321028e-05
3.2412451e-05
3.2503659e-05
3.259486e-05
3.2686456e-05
3.2779093e-05
3.2873677e-05
3.2971382e-05
3.3073618e-05
3.3181984e-05
3.3298194e-05
3.3424008e-05
3.3561139e-05
3.3711184e-05
3.3875547e-05
3.4055398e-05
3.4251636e-05
3.4464878e-05
3.4695465e-05
3.4943485e-05
3.5208809e-05
3.5491147e-05
3.5790097e-05
3.6105221e-05
3.6436111e-05
3.6782495e-05
3.714429e-05
3.752174e-05
3.7915706e-05
3.8327881e-05
3.8760923e-05
3.9218824e-05
3.9706861e-05
4.023263e-05
4.0807477e-05
4.144607e-05
4.2166842e-05
4.2993298e-05
4.3956474e-05
4.5106473e-05
4.6501718e-05
4.8216327e-05
5.0362781e-05
5.3090069e-05
5.662002e-05
6.1274336e-05
6.7583731e-05
7.6326337e-05
8.8858787e-05
0.0001072792
0.00013547221
0.00017974362
0.00025212994
0.00036924783
0.00056281802
0.00087165512
0.0013261414
0.0019278988
0.002655841
0.0034715908
0.0043263998
0.0051737178
0.0059815461
0.0067349441
0.0074299887
0.0080667746
0.0086463801
0.0091708363
0.00964323
0.010067135
0.010446115
0.01078363
0.011083031
0.011347499
0.01158001
0.011783335
0.011960051
0.012112543
0.01224301
0.012353478
0.012445807
0.012521694
0.012582682
0.012630161
0.012665377
0.012689452
0.012703396
0.012708148
0.012704568
0.012693531
0.012675771
0.012652352
0.012623885
0.012590731
0.012562973
0.012498615
3.1519603e-05
3.1606546e-05
3.1696771e-05
3.178746e-05
3.1877986e-05
3.1968236e-05
3.2058166e-05
3.214775e-05
3.2237003e-05
3.2325993e-05
3.241486e-05
3.2503839e-05
3.2593276e-05
3.2683643e-05
3.2775539e-05
3.2869681e-05
3.2966886e-05
3.3068042e-05
3.3174079e-05
3.328593e-05
3.34045e-05
3.3530626e-05
3.3665053e-05
3.380841e-05
3.39612e-05
3.4123802e-05
3.4296469e-05
3.4479345e-05
3.4672485e-05
3.4875885e-05
3.5089509e-05
3.5313326e-05
3.5547382e-05
3.579189e-05
3.6047325e-05
3.6314556e-05
3.6594926e-05
3.6890416e-05
3.7204027e-05
3.7540026e-05
3.7904147e-05
3.8303872e-05
3.8748635e-05
3.9252159e-05
3.9832326e-05
4.0511196e-05
4.1317308e-05
4.229039e-05
4.3490337e-05
4.4989713e-05
4.6894119e-05
4.935191e-05
5.2577113e-05
5.6887405e-05
6.2805713e-05
7.1131231e-05
8.3251105e-05
0.00010136322
0.00012950803
0.0001748256
0.00024886617
0.00037054718
0.000569827
0.00087857553
0.001309075
0.0018547617
0.0024931093
0.0031879584
0.0038991851
0.0045949272
0.0052567089
0.005876443
0.0064510261
0.0069793648
0.0074618248
0.0079000201
0.0082962472
0.0086530505
0.0089730792
0.0092590088
0.0095134594
0.009738949
0.0099378712
0.01011248
0.010264882
0.010397034
0.010510737
0.01060764
0.01068924
0.010756892
0.010811833
0.010855201
0.010888057
0.010911445
0.010926298
0.010933806
0.010934749
0.010930166
0.01092647
0.010903365
3.1064033e-05
3.1149556e-05
3.1238388e-05
3.1327792e-05
3.1417123e-05
3.1506237e-05
3.159507e-05
3.1683567e-05
3.1771683e-05
3.1859383e-05
3.1946641e-05
3.2033448e-05
3.2119823e-05
3.2205824e-05
3.2291556e-05
3.2377184e-05
3.246293e-05
3.2549082e-05
3.2635991e-05
3.2724063e-05
3.2813749e-05
3.2905536e-05
3.2999923e-05
3.3097415e-05
3.3198495e-05
3.3303621e-05
3.3413208e-05
3.352762e-05
3.3647163e-05
3.3772086e-05
3.3902582e-05
3.4038791e-05
3.4180815e-05
3.4328745e-05
3.4482691e-05
3.4642837e-05
3.4809485e-05
3.4983119e-05
3.5164497e-05
3.5354778e-05
3.5555649e-05
3.5769469e-05
3.5999349e-05
3.6249566e-05
3.6525941e-05
3.6836036e-05
3.7189449e-05
3.7598605e-05
3.8081109e-05
3.8659305e-05
3.9362838e-05
4.0228693e-05
4.1319658e-05
4.2711775e-05
4.4514754e-05
4.6887082e-05
5.0062037e-05
5.4394336e-05
6.0460837e-05
6.9225915e-05
8.2258197e-05
0.00010228395
0.00013418004
0.00018655192
0.00027210537
0.00041456275
0.00064082859
0.00096646292
0.0013923739
0.0019053197
0.0024782063
0.0030777004
0.0036751696
0.004252209
0.0047991702
0.0053112041
0.0057858752
0.006222487
0.0066216567
0.0069847651
0.0073135971
0.0076101756
0.0078766379
0.0081151395
0.0083277974
0.0085166542
0.0086836498
0.0088306019
0.0089591949
0.0090709803
0.0091673865
0.0092497406
0.0093192837
0.0093772243
0.0094246792
0.0094629718
0.0094930171
0.0095165561
0.0095364253
0.0095531193
3.0595567e-05
3.0679768e-05
3.0767276e-05
3.0855433e-05
3.0943587e-05
3.1031576e-05
3.1119328e-05
3.1206784e-05
3.129389e-05
3.1380597e-05
3.1466853e-05
3.1552605e-05
3.1637801e-05
3.1722395e-05
3.1806351e-05
3.1889645e-05
3.1972274e-05
3.2054256e-05
3.2135638e-05
3.22165e-05
3.2296955e-05
3.2377153e-05
3.2457276e-05
3.2537534e-05
3.2618165e-05
3.2699423e-05
3.2781574e-05
3.2864887e-05
3.2949622e-05
3.3036027e-05
3.3124326e-05
3.3214716e-05
3.3307361e-05
3.3402396e-05
3.3499931e-05
3.3600065e-05
3.3702903e-05
3.3808575e-05
3.3917271e-05
3.4029278e-05
3.4145039e-05
3.426522e-05
3.4390772e-05
3.4523031e-05
3.4663864e-05
3.4815823e-05
3.4982291e-05
3.5167641e-05
3.5377792e-05
3.5620502e-05
3.5906001e-05
3.6246855e-05
3.6661496e-05
3.7173902e-05
3.7816017e-05
3.8628819e-05
3.9679262e-05
4.105476e-05
4.2879598e-05
4.5344484e-05
4.8726498e-05
5.3472671e-05
6.0317883e-05
7.0513764e-05
8.6111471e-05
0.00011092136
0.00015176588
0.00021853507
0.00033064677
0.00051015129
0.00077248805
0.0011215047
0.0015484738
0.0020317931
0.002543662
0.0030595234
0.0035628107
0.0040439584
0.0044975298
0.0049205164
0.0053116993
0.0056711226
0.0059995966
0.0062983992
0.0065690976
0.0068134124
0.0070331207
0.0072299908
0.0074057356
0.0075619853
0.0077002789
0.0078220693
0.0079287349
0.0080216152
0.0081019801
0.0081712719
0.0082305078
0.008282126
0.0083254588
0.0083811587
3.0118797e-05
3.0201771e-05
3.0288034e-05
3.0374996e-05
3.0462011e-05
3.0548903e-05
3.0635597e-05
3.0722033e-05
3.0808156e-05
3.0893913e-05
3.0979251e-05
3.1064111e-05
3.114843e-05
3.1232145e-05
3.131519e-05
3.1397497e-05
3.1479001e-05
3.1559639e-05
3.1639353e-05
3.1718094e-05
3.1795825e-05
3.1872525e-05
3.194819e-05
3.2022836e-05
3.2096498e-05
3.2169235e-05
3.2241124e-05
3.231226e-05
3.2382749e-05
3.2452708e-05
3.2522256e-05
3.2591509e-05
3.2660573e-05
3.2729545e-05
3.2798504e-05
3.2867519e-05
3.2936646e-05
3.3005932e-05
3.3075427e-05
3.3145189e-05
3.321531e-05
3.3285936e-05
3.3357298e-05
3.3429753e-05
3.3503831e-05
3.3580303e-05
3.3660262e-05
3.3745194e-05
3.3837127e-05
3.393878e-05
3.4053816e-05
3.4186903e-05
3.4344364e-05
3.4534603e-05
3.4768821e-05
3.5061089e-05
3.5431647e-05
3.590783e-05
3.6526014e-05
3.7335929e-05
3.8417554e-05
3.9877315e-05
4.1874273e-05
4.4651345e-05
4.8580583e-05
5.4283864e-05
6.2841189e-05
7.5981919e-05
9.6999025e-05
0.00013168335
0.00018874746
0.00028499635
0.00043857018
0.00066342553
0.00096384369
0.0013325027
0.0017506603
0.0021947322
0.0026441955
0.0030849777
0.003508438
0.0039093273
0.0042846512
0.004633073
0.0049543776
0.005249063
0.0055180883
0.0057626945
0.0059842726
0.0061842751
0.0063641631
0.0065253763
0.006669327
0.0067974079
0.0069109788
0.0070115581
0.0071002161
0.0071800576
0.0072469518
0.0073412629
2.9637824e-05
2.9719663e-05
2.980476e-05
2.9890591e-05
2.9976516e-05
3.0062355e-05
3.0148029e-05
3.0233478e-05
3.0318647e-05
3.0403484e-05
3.0487935e-05
3.0571942e-05
3.0655442e-05
3.0738372e-05
3.082066e-05
3.0902236e-05
3.0983021e-05
3.1062935e-05
3.1141894e-05
3.1219816e-05
3.1296616e-05
3.1372213e-05
3.1446531e-05
3.15195e-05
3.1591059e-05
3.1661157e-05
3.1729755e-05
3.1796825e-05
3.1862353e-05
3.1926332e-05
3.1988762e-05
3.2049649e-05
3.2108999e-05
3.2166817e-05
3.2223107e-05
3.2277867e-05
3.2331091e-05
3.2382766e-05
3.2432871e-05
3.2481383e-05
3.2528276e-05
3.2573532e-05
3.261715e-05
3.2659158e-05
3.2699636e-05
3.2738734e-05
3.2776713e-05
3.2813977e-05
3.2851125e-05
3.2889016e-05
3.2928861e-05
3.2972302e-05
3.3021562e-05
3.3079641e-05
3.3150598e-05
3.3239689e-05
3.3354004e-05
3.3503136e-05
3.3699918e-05
3.3961029e-05
3.4310789e-05
3.4782311e-05
3.542031e-05
3.6292473e-05
3.7498235e-05
3.9180549e-05
4.1565119e-05
4.4987877e-05
5.0024015e-05
5.7668992e-05
6.9528942e-05
8.8717951e-05
0.00012048253
0.00017335313
0.00026253898
0.00040312993
0.0006069727
0.00087720561
0.0012060668
0.0015761328
0.0019672207
0.0023625581
0.002750654
0.0031241523
0.0034784408
0.00381088
0.0041202489
0.0044062727
0.0046692976
0.0049100713
0.00512959
0.0053289952
0.0055095203
0.0056724533
0.0058191203
0.0059510251
0.0060692104
0.0061773818
0.0062679545
0.0064006527
2.9156256e-05
2.9237048e-05
2.9321062e-05
2.940583e-05
2.9490724e-05
2.9575561e-05
2.9660262e-05
2.9744768e-05
2.9829023e-05
2.9912978e-05
2.9996577e-05
3.0079764e-05
3.016248e-05
3.024466e-05
3.0326238e-05
3.040714e-05
3.0487291e-05
3.056661e-05
3.0645011e-05
3.0722405e-05
3.0798698e-05
3.0873796e-05
3.0947603e-05
3.1020023e-05
3.109096e-05
3.1160324e-05
3.1228025e-05
3.1293979e-05
3.1358107e-05
3.1420333e-05
3.1480584e-05
3.1538786e-05
3.159487e-05
3.1648764e-05
3.1700395e-05
3.1749689e-05
3.1796571e-05
3.1840964e-05
3.1882784e-05
3.1921946e-05
3.1958356e-05
3.1991921e-05
3.2022545e-05
3.2050136e-05
3.207461e-05
3.2095899e-05
3.2113965e-05
3.2128813e-05
3.2140514e-05
3.2149224e-05
3.2155229e-05
3.2158976e-05
3.2161137e-05
3.2162672e-05
3.2164944e-05
3.2169817e-05
3.2179824e-05
3.2198411e-05
3.2230266e-05
3.2281565e-05
3.2360776e-05
3.247956e-05
3.2653398e-05
3.2903977e-05
3.3262223e-05
3.3770657e-05
3.4491004e-05
3.5519293e-05
3.6993105e-05
3.9132206e-05
4.2262873e-05
4.6959029e-05
5.4195941e-05
6.5603684e-05
8.4361635e-05
0.00011551682
0.00016825868
0.00025599378
0.00039228265
0.00058593473
0.00083790398
0.0011387616
0.001472036
0.001820682
0.0021713242
0.0025148156
0.0028451534
0.003158567
0.0034529203
0.0037272134
0.0039812126
0.0042152015
0.0044298218
0.004625951
0.0048046486
0.0049672315
0.0051145741
0.0052508672
0.0053650421
0.0055358222
2.8677213e-05
2.8757043e-05
2.8840055e-05
2.8923833e-05
2.900776e-05
2.9091654e-05
2.9175436e-05
2.9259048e-05
2.9342438e-05
2.9425554e-05
2.9508343e-05
2.9590751e-05
2.9672719e-05
2.9754186e-05
2.9835087e-05
2.9915351e-05
2.9994905e-05
3.0073671e-05
3.0151565e-05
3.02285e-05
3.0304384e-05
3.0379123e-05
3.0452617e-05
3.0524768e-05
3.0595473e-05
3.066463e-05
3.0732135e-05
3.0797886e-05
3.0861779e-05
3.092371e-05
3.0983573e-05
3.104126e-05
3.1096657e-05
3.114965e-05
3.1200121e-05
3.1247947e-05
3.1293004e-05
3.1335164e-05
3.1374295e-05
3.1410262e-05
3.1442924e-05
3.1472135e-05
3.1497745e-05
3.1519601e-05
3.1537549e-05
3.1551432e-05
3.1561096e-05
3.1566399e-05
3.1567211e-05
3.1563429e-05
3.1554987e-05
3.1541875e-05
3.152416e-05
3.1502016e-05
3.1475763e-05
3.1445915e-05
3.1413247e-05
3.1378877e-05
3.13444e-05
3.1312018e-05
3.128475e-05
3.126679e-05
3.1263817e-05
3.128357e-05
3.1336869e-05
3.1438532e-05
3.1608961e-05
3.18781e-05
3.2287875e-05
3.2898974e-05
3.3807188e-05
3.515293e-05
3.7159843e-05
4.0166964e-05
4.4787541e-05
5.202933e-05
6.3722941e-05
8.3210919e-05
0.00011579331
0.00017169459
0.00026287106
0.00040072305
0.00059131255
0.00083219211
0.0011120778
0.0014157249
0.001729195
0.0020421155
0.0023473771
0.0026402763
0.0029178918
0.0031785844
0.0034216214
0.0036468937
0.0038547653
0.0040460476
0.0042211985
0.0043846973
0.0045219067
0.004730044
2.8203348e-05
2.8282296e-05
2.8364387e-05
2.8447248e-05
2.8530275e-05
2.8613288e-05
2.869621e-05
2.8778984e-05
2.8861559e-05
2.8943885e-05
2.9025912e-05
2.9107584e-05
2.9188847e-05
2.926964e-05
2.9349901e-05
2.9429562e-05
2.9508552e-05
2.9586796e-05
2.9664214e-05
2.9740722e-05
2.9816231e-05
2.9890649e-05
2.9963882e-05
3.0035831e-05
3.0106395e-05
3.0175472e-05
3.0242958e-05
3.0308745e-05
3.0372726e-05
3.0434789e-05
3.0494818e-05
3.0552691e-05
3.0608283e-05
3.066146e-05
3.0712083e-05
3.076001e-05
3.0805091e-05
3.084717e-05
3.0886089e-05
3.092168e-05
3.0953773e-05
3.0982189e-05
3.1006747e-05
3.1027257e-05
3.1043525e-05
3.1055353e-05
3.1062538e-05
3.1064872e-05
3.106215e-05
3.1054167e-05
3.1040725e-05
3.1021642e-05
3.0996754e-05
3.0965933e-05
3.0929098e-05
3.0886237e-05
3.0837432e-05
3.0782894e-05
3.072301e-05
3.0658408e-05
3.0590028e-05
3.0519248e-05
3.0448032e-05
3.0379118e-05
3.0316352e-05
3.0265084e-05
3.0232649e-05
3.0229452e-05
3.0270058e-05
3.0374702e-05
3.0573475e-05
3.0909262e-05
3.1445397e-05
3.2280896e-05
3.3567517e-05
3.5541053e-05
3.8585231e-05
4.3382875e-05
5.1048991e-05
6.3776966e-05
8.5191355e-05
0.00012194363
0.00018398153
0.00028262987
0.00042647681
0.00061806183
0.00085123022
0.0011136783
0.001392048
0.001675385
0.001955801
0.0022278813
0.0024880938
0.0027342884
0.0029653503
0.0031810091
0.0033808659
0.0035693517
0.0037280948
0.0039719536
2.773687e-05
2.7815012e-05
2.789626e-05
2.7978277e-05
2.8060471e-05
2.8142667e-05
2.8224789e-05
2.8306782e-05
2.8388598e-05
2.8470187e-05
2.8551499e-05
2.8632484e-05
2.8713086e-05
2.8793247e-05
2.8872908e-05
2.8952003e-05
2.9030464e-05
2.9108218e-05
2.9185189e-05
2.9261296e-05
2.9336454e-05
2.9410575e-05
2.9483567e-05
2.9555335e-05
2.9625783e-05
2.9694809e-05
2.9762313e-05
2.9828188e-05
2.9892329e-05
2.9954623e-05
3.0014954e-05
3.00732e-05
3.0129232e-05
3.0182913e-05
3.0234101e-05
3.0282645e-05
3.0328389e-05
3.0371168e-05
3.0410811e-05
3.044714e-05
3.0479969e-05
3.0509107e-05
3.0534352e-05
3.0555499e-05
3.0572334e-05
3.0584638e-05
3.0592182e-05
3.0594734e-05
3.0592054e-05
3.0583899e-05
3.0570018e-05
3.0550165e-05
3.0524089e-05
3.049155e-05
3.0452316e-05
3.0406176e-05
3.0352946e-05
3.0292487e-05
3.0224722e-05
3.0149659e-05
3.0067424e-05
2.9978306e-05
2.9882818e-05
2.9781772e-05
2.9676391e-05
2.9568474e-05
2.9460577e-05
2.9356347e-05
2.9260963e-05
2.9181636e-05
2.9128766e-05
2.9117109e-05
2.9167686e-05
2.9311786e-05
2.9595155e-05
3.0086749e-05
3.0894663e-05
3.2190284e-05
3.4233985e-05
3.7489319e-05
4.2737467e-05
5.141265e-05
6.6088989e-05
9.1168769e-05
0.00013454473
0.00020619214
0.00031560541
0.00046827876
0.00066226612
0.00088849872
0.0011349617
0.0013907156
0.0016474499
0.0018992733
0.0021422358
0.002373969
0.0025924421
0.0028014593
0.0029786198
0.0032548967
2.7279581e-05
2.735699e-05
2.7437468e-05
2.7518711e-05
2.760014e-05
2.7681583e-05
2.7762965e-05
2.7844236e-05
2.7925347e-05
2.8006251e-05
2.80869e-05
2.8167245e-05
2.8247231e-05
2.8326805e-05
2.8405906e-05
2.8484473e-05
2.8562441e-05
2.8639738e-05
2.8716292e-05
2.8792026e-05
2.8866857e-05
2.89407e-05
2.9013468e-05
2.908507e-05
2.9155411e-05
2.9224395e-05
2.9291923e-05
2.9357892e-05
2.94222e-05
2.9484736e-05
2.9545386e-05
2.9604031e-05
2.9660545e-05
2.9714793e-05
2.9766633e-05
2.9815918e-05
2.9862491e-05
2.9906188e-05
2.9946837e-05
2.9984257e-05
3.0018262e-05
3.0048654e-05
3.0075229e-05
3.0097777e-05
3.0116076e-05
3.0129899e-05
3.013901e-05
3.0143166e-05
3.0142114e-05
3.0135596e-05
3.0123344e-05
3.0105087e-05
3.0080546e-05
3.0049437e-05
3.0011477e-05
2.9966382e-05
2.9913872e-05
2.9853679e-05
2.9785551e-05
2.9709264e-05
2.9624631e-05
2.9531526e-05
2.9429902e-05
2.9319821e-05
2.9201504e-05
2.9075382e-05
2.894218e-05
2.8803026e-05
2.865962e-05
2.8514428e-05
2.8371043e-05
2.8234638e-05
2.8112578e-05
2.8015619e-05
2.7959257e-05
2.7966143e-05
2.8070213e-05
2.8322304e-05
2.8800721e-05
2.9630468e-05
3.1007202e-05
3.3255998e-05
3.6945476e-05
4.3058778e-05
5.3463653e-05
7.1329347e-05
0.00010260374
0.00015576308
0.00024020793
0.00036293261
0.00052504451
0.00072042713
0.00093874937
0.0011695289
0.001404357
0.0016372539
0.0018632806
0.0020846411
0.0022744061
0.0025769401
2.6832915e-05
2.6909657e-05
2.6989434e-05
2.7069972e-05
2.71507e-05
2.7231451e-05
2.7312154e-05
2.7392758e-05
2.7473219e-05
2.7553491e-05
2.7633527e-05
2.7713279e-05
2.7792696e-05
2.7871725e-05
2.7950308e-05
2.8028386e-05
2.8105895e-05
2.8182769e-05
2.8258936e-05
2.8334323e-05
2.840885e-05
2.8482436e-05
2.8554997e-05
2.8626444e-05
2.8696687e-05
2.8765633e-05
2.8833185e-05
2.8899245e-05
2.8963712e-05
2.9026479e-05
2.9087436e-05
2.9146466e-05
2.9203446e-05
2.9258247e-05
2.931073e-05
2.9360752e-05
2.9408159e-05
2.9452792e-05
2.9494482e-05
2.9533052e-05
2.9568319e-05
2.9600088e-05
2.9628158e-05
2.9652318e-05
2.9672351e-05
2.9688028e-05
2.9699115e-05
2.9705366e-05
2.9706529e-05
2.9702341e-05
2.9692533e-05
2.9676826e-05
2.9654934e-05
2.9626562e-05
2.9591409e-05
2.954917e-05
2.9499535e-05
2.9442189e-05
2.9376823e-05
2.9303129e-05
2.922081e-05
2.9129584e-05
2.9029198e-05
2.8919436e-05
2.8800134e-05
2.867121e-05
2.8532689e-05
2.8384745e-05
2.8227766e-05
2.8062428e-05
2.7889821e-05
2.7711616e-05
2.7530289e-05
2.7349508e-05
2.7174627e-05
2.7013439e-05
2.6877474e-05
2.6783627e-05
2.675724e-05
2.6836829e-05
2.7080785e-05
2.7583848e-05
2.8496124e-05
3.0056605e-05
3.2689612e-05
3.7119533e-05
4.472673e-05
5.7937864e-05
8.1209579e-05
0.00012169544
0.00018815459
0.00028818713
0.00042492958
0.00059467542
0.00078877265
0.00099763893
0.0012121468
0.001431573
0.0016237138
0.0019415963
2.6397978e-05
2.6474115e-05
2.6553255e-05
2.6633151e-05
2.6713239e-05
2.6793358e-05
2.6873438e-05
2.6953431e-05
2.7033294e-05
2.7112984e-05
2.7192455e-05
2.7271662e-05
2.7350553e-05
2.7429079e-05
2.7507183e-05
2.7584809e-05
2.7661895e-05
2.7738378e-05
2.7814187e-05
2.7889253e-05
2.7963499e-05
2.8036848e-05
2.8109217e-05
2.8180521e-05
2.8250674e-05
2.8319585e-05
2.8387161e-05
2.8453306e-05
2.8517922e-05
2.8580906e-05
2.864215e-05
2.8701541e-05
2.8758959e-05
2.881428e-05
2.886737e-05
2.8918088e-05
2.8966288e-05
2.9011813e-05
2.9054502e-05
2.9094182e-05
2.9130674e-05
2.916379e-05
2.9193334e-05
2.9219101e-05
2.9240878e-05
2.9258442e-05
2.9271562e-05
2.9279999e-05
2.9283503e-05
2.9281816e-05
2.9274672e-05
2.9261794e-05
2.9242898e-05
2.9217691e-05
2.9185871e-05
2.9147128e-05
2.9101146e-05
2.9047603e-05
2.898617e-05
2.8916515e-05
2.8838307e-05
2.8751215e-05
2.8654912e-05
2.8549084e-05
2.8433433e-05
2.8307687e-05
2.8171615e-05
2.8025037e-05
2.7867854e-05
2.7700075e-05
2.7521858e-05
2.7333581e-05
2.7135917e-05
2.6929972e-05
2.6717461e-05
2.6500971e-05
2.6284387e-05
2.6073451e-05
2.5876727e-05
2.5707043e-05
2.5583537e-05
2.5535878e-05
2.5609262e-05
2.5876494e-05
2.6454319e-05
2.752788e-05
2.9422609e-05
3.2703798e-05
3.8414467e-05
4.8472394e-05
6.6343152e-05
9.8062245e-05
0.00015158521
0.00023460159
0.00035145454
0.0005004826
0.00067348137
0.00086748413
0.0010448236
0.0013594554
2.5975592e-05
2.605118e-05
2.6129744e-05
2.6209055e-05
2.6288561e-05
2.6368103e-05
2.6447613e-05
2.6527046e-05
2.6606362e-05
2.6685518e-05
2.676447e-05
2.6843174e-05
2.6921583e-05
2.6999645e-05
2.7077309e-05
2.7154518e-05
2.7231214e-05
2.7307335e-05
2.7382815e-05
2.7457584e-05
2.7531571e-05
2.76047e-05
2.7676892e-05
2.7748065e-05
2.7818135e-05
2.7887014e-05
2.7954612e-05
2.8020837e-05
2.8085591e-05
2.8148776e-05
2.8210287e-05
2.8270013e-05
2.832784e-05