/*--------------------------------*- C++ -*----------------------------------*\
  =========                 |
  \\      /  F ield         | OpenFOAM: The Open Source CFD Toolbox
   \\    /   O peration     | Website:  https://openfoam.org
    \\  /    A nd           | Version:  12
     \\/     M anipulation  |
\*---------------------------------------------------------------------------*/
FoamFile
{
    format      ascii;
    class       volScalarField;
    location    "200";
    object      k;
}
// * * * * * * * * * * * * * * * * * * * * * * * * * * * * * * * * * * * * * //

dimensions      [0 2 -2 0 0 0 0];

internalField   nonuniform List<scalar> 
7480
(
0.00063640746
0.0016455681
0.0029902054
0.0044146589
0.0057105524
0.0067584763
0.0075200062
0.0080122398
0.0082813853
0.0083816772
0.0083628837
0.0082650972
0.008118102
0.0079428185
0.0077533594
0.0075590342
0.0073661347
0.0071791949
0.0070014423
0.0068353979
0.0066832119
0.0065468062
0.0064278217
0.0063274851
0.0062464501
0.0061843302
0.0061388406
0.006106555
0.0060827746
0.0060624553
0.0060414932
0.0060175329
0.0059899953
0.0059596519
0.0059276899
0.0058950312
0.0058620457
0.0058286622
0.0057946671
0.0057599823
0.0057247793
0.0056893934
0.0056541636
0.0056193023
0.0055848795
0.0055508952
0.0055173501
0.0054842627
0.005451652
0.0054195259
0.00538788
0.0053567013
0.0053259765
0.0052956981
0.0052658588
0.0052364456
0.005207443
0.0051788412
0.0051506371
0.0051228166
0.0050953656
0.0050682728
0.0050415276
0.00501512
0.0049890429
0.0049632886
0.0049378486
0.0049127158
0.0048878825
0.0048633407
0.0048390833
0.0048151028
0.0047913918
0.0047679433
0.0047447496
0.004721804
0.0046990994
0.0046766289
0.0046543859
0.0046323642
0.0046105579
0.0045889612
0.0045675687
0.004546375
0.004525375
0.0045045631
0.0044839331
0.0044634775
0.004443187
0.0044230503
0.0044030552
0.0043831833
0.0043634253
0.0043437337
0.0043241528
0.0043044535
0.004285066
0.0042645332
0.0042469988
0.0042144928
0.00014447359
0.00016357197
0.00020496747
0.00027575523
0.00038104057
0.0005117697
0.00065362572
0.00079418411
0.00092485608
0.0010412971
0.0011432395
0.0012336287
0.0013173526
0.001400927
0.0014927752
0.0016031683
0.0017493656
0.0019383952
0.0021494754
0.0023822388
0.0026399123
0.0029244101
0.0032341654
0.0035652419
0.0039086752
0.0042494085
0.004568954
0.0048486762
0.0050732492
0.0052367384
0.0053438104
0.0054065281
0.0054397089
0.0054564096
0.0054651997
0.0054696476
0.0054700009
0.0054655226
0.0054561102
0.0054428204
0.0054273802
0.0054113239
0.0053955075
0.0053800277
0.005364627
0.0053490995
0.0053334232
0.0053176595
0.0053018259
0.0052858714
0.0052697332
0.0052533868
0.0052368393
0.0052200952
0.0052031446
0.0051859796
0.0051686066
0.0051510423
0.0051332777
0.0051153609
0.0050972934
0.0050790803
0.005060734
0.0050422708
0.0050237059
0.0050050528
0.0049863244
0.0049675321
0.0049486865
0.0049297978
0.0049108756
0.0048919284
0.0048729643
0.0048539905
0.0048350137
0.0048160401
0.0047970751
0.0047781243
0.0047591932
0.0047402869
0.0047214104
0.0047025685
0.0046837653
0.0046650051
0.0046462913
0.0046276261
0.0046090096
0.0045904394
0.0045719105
0.004553416
0.0045349468
0.0045164932
0.0044980419
0.0044795831
0.0044610937
0.0044425802
0.0044239922
0.0044050784
0.0043879883
0.0043576228
0.00013793052
0.0001387807
0.00014011761
0.00014176082
0.00014368263
0.0001458411
0.0001481579
0.00015055515
0.00015296642
0.00015533964
0.0001576576
0.0001599635
0.00016237271
0.00016508975
0.00016846797
0.00017298778
0.0001797338
0.00018929117
0.00020656345
0.00023420888
0.00027451161
0.00033021004
0.00040515745
0.00050387008
0.00063375871
0.00080564772
0.0010454522
0.00133561
0.0016656596
0.0020235031
0.0023928473
0.0027544994
0.0030883567
0.0033778759
0.0036138411
0.0037963069
0.0039328142
0.0040350773
0.0041149502
0.0041815026
0.004239769
0.0042914597
0.0043366516
0.0043753587
0.0044082453
0.0044364629
0.0044611264
0.0044829447
0.0045022205
0.0045190856
0.0045336986
0.0045462745
0.0045570156
0.0045660642
0.0045735207
0.0045794805
0.0045840434
0.0045873043
0.00458934
0.0045902011
0.0045899753
0.0045887421
0.004586569
0.0045835167
0.0045796426
0.0045749998
0.0045696376
0.0045636021
0.0045569364
0.0045496808
0.004541873
0.0045335483
0.0045247398
0.0045154782
0.0045057924
0.0044957095
0.004485255
0.0044744533
0.004463328
0.0044519019
0.0044401967
0.0044282328
0.0044160299
0.0044036065
0.0043909798
0.0043781648
0.0043651731
0.0043520125
0.0043386873
0.0043251988
0.0043115458
0.0042977285
0.0042837396
0.0042695916
0.0042552489
0.0042407984
0.0042260616
0.0042112297
0.0041974483
0.004173235
0.00013764336
0.00013761342
0.00013764396
0.00013770781
0.00013777637
0.00013782452
0.00013783032
0.00013777645
0.00013764617
0.00013742574
0.00013710466
0.00013667235
0.00013612273
0.00013545928
0.00013468813
0.00013381871
0.00013287607
0.00013187916
0.00013088879
0.00013009266
0.00012933089
0.00012943653
0.00013007137
0.00013186316
0.00013541068
0.00014161212
0.00015284733
0.00017125073
0.0002044614
0.00025926332
0.00034188194
0.00045923429
0.00061984179
0.00084451794
0.0011149827
0.0014147197
0.0017277738
0.0020365432
0.002323638
0.0025760277
0.0027880114
0.0029613823
0.0031032013
0.0032223134
0.0033262439
0.0034195267
0.0035039949
0.0035801224
0.0036483062
0.0037093893
0.0037644655
0.0038144716
0.0038600077
0.0039014418
0.0039390885
0.0039732772
0.0040043183
0.0040324691
0.0040579411
0.0040809159
0.0041015704
0.0041200698
0.0041365623
0.004151183
0.004164056
0.0041752955
0.0041850063
0.0041932853
0.004200222
0.0042058996
0.0042103951
0.0042137805
0.0042161225
0.0042174835
0.0042179216
0.0042174911
0.0042162432
0.0042142264
0.0042114871
0.0042080697
0.0042040162
0.0041993668
0.0041941594
0.0041884301
0.0041822127
0.0041755377
0.004168431
0.0041609133
0.0041530003
0.0041447041
0.0041360338
0.004127
0.0041176051
0.0041078762
0.0040977833
0.004087455
0.0040766681
0.0040658559
0.0040554606
0.0040373067
0.00013769008
0.00013755691
0.00013742996
0.00013731078
0.00013719446
0.00013707309
0.00013693766
0.00013678121
0.00013659744
0.00013638077
0.00013612667
0.00013582995
0.00013548691
0.00013508996
0.00013463558
0.00013412182
0.00013354831
0.00013291558
0.00013222834
0.00013149733
0.00013072886
0.00012995749
0.00012919504
0.00012845822
0.0001277729
0.0001271689
0.00012672488
0.00012654485
0.00012684561
0.00012793451
0.00013043302
0.00013510864
0.00014324234
0.00015763184
0.00018294751
0.00022781873
0.00029913203
0.0004036126
0.00055113229
0.00075135325
0.00098736496
0.0012448041
0.0015083886
0.0017625751
0.0019950687
0.0021995359
0.002375752
0.0025279262
0.0026618677
0.0027824046
0.0028923001
0.0029926882
0.0030841336
0.0031673639
0.0032433433
0.0033129904
0.0033769856
0.0034358126
0.0034898862
0.0035396005
0.0035853156
0.0036273425
0.0036659532
0.0037013946
0.003733893
0.003763653
0.0037908594
0.0038156815
0.0038382743
0.0038587802
0.0038773303
0.0038940458
0.0039090387
0.003922413
0.0039342652
0.0039446851
0.0039537567
0.0039615593
0.0039681677
0.0039736534
0.0039780838
0.0039815228
0.0039840312
0.0039856664
0.0039864823
0.0039865286
0.0039858485
0.003984479
0.0039824505
0.0039797886
0.0039765149
0.0039726529
0.0039682175
0.0039632504
0.0039577343
0.0039518253
0.0039452894
0.0039387341
0.0039319713
0.0039202197
0.00013777825
0.00013763073
0.00013747542
0.00013731491
0.00013715191
0.00013698652
0.00013681657
0.00013663879
0.00013644969
0.00013624582
0.00013602413
0.0001357823
0.00013551785
0.00013522792
0.00013490975
0.00013456086
0.00013417912
0.00013376268
0.00013331022
0.00013282088
0.00013229495
0.00013173281
0.00013113718
0.00013050763
0.00012985366
0.00012918699
0.0001285195
0.00012786385
0.0001272368
0.00012666632
0.00012618589
0.00012583769
0.0001257093
0.00012591977
0.00012665138
0.00012843335
0.00013191364
0.00013803866
0.00014867763
0.00016672626
0.00019965034
0.00025470936
0.00033867246
0.00046021133
0.00062694203
0.00082562993
0.0010447589
0.0012710824
0.0014916818
0.0016968274
0.0018818758
0.002046968
0.0021951502
0.0023299393
0.0024537683
0.0025678281
0.0026727554
0.002769237
0.0028581158
0.0029401902
0.0030160835
0.0030862859
0.0031512383
0.0032113554
0.0032670112
0.0033185339
0.0033662172
0.0034103287
0.0034511124
0.0034887899
0.0035235639
0.0035556204
0.0035851307
0.0036122527
0.0036371322
0.0036599042
0.0036806947
0.0036996213
0.0037167948
0.0037323197
0.0037462948
0.0037588135
0.0037699639
0.0037798296
0.0037884891
0.0037960149
0.003802472
0.0038079172
0.0038123991
0.0038159603
0.0038186382
0.0038204713
0.0038214902
0.0038217521
0.0038212578
0.0038201858
0.0038183055
0.0038163813
0.0038135789
0.0038087611
0.00013789207
0.00013774195
0.0001375824
0.0001374144
0.00013724006
0.0001370608
0.00013687685
0.00013668767
0.00013649215
0.00013628881
0.00013607595
0.00013585185
0.00013561482
0.00013536312
0.00013509501
0.00013480877
0.00013450269
0.00013417518
0.00013382472
0.00013344991
0.00013304962
0.00013262276
0.00013216881
0.00013168701
0.00013117763
0.00013064214
0.00013008289
0.00012950275
0.00012890487
0.00012829302
0.00012767378
0.00012706607
0.00012648372
0.00012594362
0.00012545562
0.00012507748
0.00012476702
0.00012483186
0.00012517408
0.00012606666
0.00012795916
0.00013157197
0.0001379031
0.00014885773
0.00016729946
0.00020065235
0.00025566813
0.00033855825
0.00046116919
0.00061705133
0.00079813992
0.00099408466
0.0011933294
0.0013858651
0.0015654977
0.001730287
0.00188133
0.002020697
0.0021499695
0.00226997
0.002381222
0.0024843354
0.0025800139
0.0026689016
0.0027515253
0.0028283401
0.0028997696
0.0029662056
0.0030279997
0.0030854686
0.0031389023
0.003188567
0.0032347061
0.0032775438
0.0033172862
0.0033541239
0.0033882335
0.0034197795
0.003448916
0.0034757878
0.0035005311
0.0035232742
0.0035441386
0.0035632386
0.0035806821
0.0035965692
0.0036109908
0.0036240276
0.0036357506
0.0036462229
0.003655501
0.0036636416
0.0036706937
0.0036767321
0.0036817793
0.0036860352
0.0036892788
0.0036924344
0.0036939715
0.0036967171
0.00013802686
0.00013787633
0.00013771673
0.00013754862
0.00013737332
0.00013719177
0.00013700437
0.00013681123
0.00013661221
0.00013640695
0.00013619482
0.00013597501
0.00013574656
0.00013550841
0.00013525942
0.00013499842
0.00013472416
0.00013443541
0.00013413094
0.00013380951
0.00013346998
0.0001331112
0.00013273216
0.00013233191
0.00013190963
0.00013146476
0.00013099714
0.00013050694
0.00012999467
0.00012946106
0.00012890714
0.00012833619
0.00012775227
0.00012716072
0.00012656396
0.00012597466
0.00012539792
0.00012486962
0.00012439311
0.00012398947
0.00012369664
0.00012359508
0.00012379548
0.00012447795
0.00012584472
0.00012849634
0.00013332509
0.00014162248
0.00015584554
0.00018087051
0.00022328833
0.00028929659
0.00038859994
0.00051934081
0.00067548134
0.00084854727
0.0010284795
0.0012061194
0.0013753588
0.0015337712
0.0016815264
0.0018196427
0.0019488848
0.002069669
0.0021823867
0.0022875521
0.0023857143
0.0024773619
0.0025629235
0.0026428004
0.0027173715
0.002786985
0.0028519595
0.0029125901
0.0029691495
0.0030218898
0.0030710448
0.003116832
0.0031594548
0.0031991037
0.0032359578
0.0032701859
0.0033019472
0.0033313922
0.0033586622
0.0033838895
0.003407195
0.0034286879
0.0034484656
0.0034666153
0.0034832165
0.0034983468
0.0035120769
0.003524501
0.0035356664
0.0035457954
0.0035546789
0.0035634115
0.0035697059
0.0035807003
0.00013817681
0.00013802673
0.00013786827
0.00013770184
0.00013752829
0.00013734824
0.00013716191
0.00013696938
0.00013677067
0.00013656568
0.00013635423
0.000136136
0.00013591056
0.00013567737
0.00013543579
0.00013518511
0.00013492453
0.00013465318
0.00013437017
0.00013407456
0.00013376538
0.00013344166
0.00013310245
0.0001327468
0.00013237379
0.00013198256
0.00013157235
0.00013114254
0.00013069264
0.00013022236
0.00012973149
0.00012922027
0.00012868941
0.00012814033
0.00012757417
0.00012699368
0.00012640117
0.00012580322
0.00012520553
0.00012461275
0.00012404097
0.00012350539
0.00012301792
0.00012261079
0.00012230786
0.00012218154
0.00012234937
0.00012296914
0.00012426939
0.00012672879
0.00013119254
0.00013888826
0.00015203177
0.00017491753
0.0002136132
0.00027430414
0.00036535845
0.00048429649
0.00062667406
0.00078501868
0.00095033124
0.0011146514
0.0012728715
0.0014229777
0.0015648062
0.0016986569
0.0018247201
0.0019431686
0.0020543095
0.0021585442
0.0022562713
0.0023478601
0.0024336671
0.0025140375
0.0025892964
0.002659748
0.0027256783
0.0027873557
0.0028450321
0.0028989445
0.0029493169
0.0029963605
0.0030402754
0.0030812506
0.0031194647
0.0031550851
0.0031882665
0.0032191503
0.0032478637
0.0032745222
0.003299231
0.0033220922
0.0033432005
0.0033626719
0.0033805805
0.0033971729
0.0034122518
0.0034270948
0.0034385967
0.0034585598
0.00013833941
0.00013819017
0.00013803321
0.00013786888
0.00013769776
0.00013752024
0.00013733645
0.00013714638
0.00013695
0.00013674722
0.00013653793
0.00013632196
0.00013609908
0.00013586901
0.00013563139
0.00013538583
0.00013513183
0.00013486887
0.00013459633
0.00013431357
0.00013401988
0.00013371452
0.00013339671
0.00013306567
0.00013272057
0.0001323606
0.00013198494
0.00013159282
0.00013118349
0.00013075627
0.00013031055
0.00012984583
0.00012936175
0.00012885826
0.0001283354
0.00012779363
0.00012723353
0.00012665647
0.00012606455
0.00012545971
0.00012484579
0.00012422808
0.00012361144
0.00012300302
0.00012241901
0.00012187019
0.00012137509
0.00012096595
0.00012067713
0.00012058569
0.00012081125
0.00012152538
0.00012298108
0.00012568144
0.00013051629
0.00013884666
0.00015297327
0.00017764455
0.00021834652
0.00028205053
0.00037299544
0.00048907426
0.0006256555
0.00077535094
0.00093006632
0.0010833317
0.0012315264
0.0013733121
0.001508346
0.0016364819
0.0017576581
0.0018719826
0.0019796982
0.0020810907
0.002176451
0.0022660772
0.0023502694
0.0024293192
0.0025035075
0.0025731048
0.0026383703
0.0026995523
0.0027568878
0.0028106029
0.0028609124
0.0029080193
0.0029521137
0.0029933705
0.0030319498
0.0030679974
0.0031016474
0.0031330282
0.0031622609
0.0031894852
0.0032148037
0.003238488
0.0032603528
0.0032818692
0.0032990569
0.00332873
0.00013851214
0.00013836411
0.00013820887
0.00013804681
0.00013787829
0.00013770358
0.00013752273
0.00013733569
0.00013714238
0.00013694271
0.00013673653
0.0001365237
0.00013630402
0.00013607729
0.00013584325
0.00013560165
0.00013535216
0.00013509442
0.00013482805
0.00013455259
0.00013426755
0.00013397242
0.0001336666
0.00013334949
0.00013302044
0.00013267877
0.00013232378
0.00013195474
0.00013157092
0.0001311716
0.00013075606
0.00013032362
0.00012987362
0.0001294055
0.0001289188
0.00012841317
0.00012788839
0.00012734444
0.00012678165
0.00012620054
0.00012560203
0.00012498769
0.00012435952
0.00012371978
0.00012307301
0.00012242415
0.00012177872
0.00012114662
0.00012054592
0.00011998524
0.00011949132
0.00011909826
0.00011885846
0.0001188573
0.00011923273
0.00012019772
0.00012204852
0.0001254495
0.00013142853
0.0001416801
0.00015922772
0.00018909834
0.0002370676
0.00030939248
0.0004060377
0.00052474289
0.00065989729
0.00080404233
0.0009503264
0.0010942601
0.0012336642
0.0013676095
0.0014955965
0.0016173362
0.0017327608
0.0018419682
0.0019451324
0.0020424642
0.0021342017
0.0022205979
0.0023019106
0.002378398
0.0024503151
0.0025179112
0.0025814276
0.0026410964
0.0026971383
0.0027497603
0.0027991538
0.0028454953
0.0028889483
0.0029296688
0.0029678051
0.0030035213
0.0030369488
0.003068385
0.0030976552
0.0031264324
0.0031498088
0.0031899474
0.00013869247
0.00013854598
0.00013839268
0.000138233
0.00013806718
0.00013789538
0.0001377176
0.00013753376
0.00013734377
0.00013714751
0.00013694483
0.00013673558
0.00013651957
0.00013629658
0.00013606642
0.00013582883
0.00013558357
0.00013533036
0.00013506889
0.00013479883
0.00013451983
0.00013423148
0.00013393336
0.00013362501
0.00013330593
0.00013297558
0.0001326334
0.00013227879
0.00013191112
0.00013152974
0.00013113399
0.00013072318
0.00013029663
0.00012985367
0.00012939366
0.000128916
0.00012842013
0.00012790556
0.00012737195
0.00012681904
0.00012624677
0.0001256553
0.00012504508
0.00012441674
0.00012377151
0.00012311116
0.00012243788
0.00012175463
0.00012106714
0.00012038057
0.00011970146
0.00011904602
0.00011842767
0.0001178643
0.00011738794
0.00011704468
0.00011690296
0.00011707724
0.00011774589
0.00011918275
0.00012184715
0.00012661324
0.00013486781
0.00014888193
0.00017305265
0.00021249005
0.00027342731
0.00035724052
0.0004631803
0.00058693529
0.00072178722
0.00086102772
0.00099989269
0.0011357621
0.0012673005
0.0013937232
0.0015145586
0.0016296019
0.001738833
0.0018423321
0.0019402432
0.002032755
0.0021200832
0.0022024575
0.0022801154
0.0023532954
0.0024222326
0.0024871539
0.0025482745
0.0026057963
0.0026599085
0.0027107925
0.0027586223
0.0028035848
0.0028458395
0.0028857081
0.0029230241
0.0029596674
0.0029897542
0.0030411232
0.0001388781
0.0001387334
0.00013858222
0.00013842502
0.00013826196
0.00013809311
0.00013791845
0.00013773788
0.00013755128
0.00013735854
0.00013715951
0.00013695401
0.00013674185
0.00013652285
0.00013629677
0.0001360634
0.00013582249
0.0001355738
0.00013531704
0.00013505194
0.0001347782
0.00013449548
0.00013420344
0.00013390171
0.00013358989
0.00013326755
0.00013293424
0.00013258946
0.00013223271
0.00013186342
0.00013148102
0.00013108492
0.0001306745
0.0001302491
0.00012980811
0.00012935085
0.0001288767
0.00012838503
0.00012787525
0.00012734681
0.00012679925
0.00012623216
0.0001256453
0.00012503852
0.00012441188
0.00012376571
0.00012310061
0.00012241746
0.00012171793
0.00012100424
0.00012027883
0.0001195465
0.00011881319
0.00011808562
0.00011737442
0.00011669934
0.00011607386
0.00011552857
0.00011510185
0.00011486681
0.00011491918
0.00011541919
0.00011662711
0.00011892071
0.00012309477
0.00013039185
0.00014280058
0.00016422457
0.00019946082
0.00025416487
0.00033050942
0.00042847682
0.00054441883
0.0006721431
0.00080529899
0.00093923881
0.0010712279
0.0011997175
0.0013237447
0.0014427244
0.001556365
0.0016645679
0.0017673519
0.0018648152
0.0019571102
0.0020444229
0.0021269594
0.0022049346
0.0022785642
0.0023480584
0.0024136205
0.002475448
0.002533734
0.0025886834
0.0026404787
0.0026894619
0.002735471
0.0027805935
0.0028179227
0.0028812903
0.000139067
0.00013892426
0.00013877532
0.00013862066
0.0001384604
0.00013829453
0.00013812301
0.00013794572
0.00013776255
0.00013757336
0.00013737799
0.00013717629
0.00013696806
0.0001367531
0.00013653121
0.00013630215
0.00013606569
0.00013582159
0.00013556958
0.0001353094
0.00013504077
0.00013476339
0.00013447694
0.00013418111
0.00013387554
0.00013355987
0.0001332337
0.00013289662
0.0001325482
0.00013218796
0.00013181542
0.00013143006
0.00013103133
0.00013061867
0.00013019149
0.0001297492
0.00012929116
0.00012881675
0.00012832534
0.00012781631
0.00012728905
0.00012674296
0.00012617751
0.00012559222
0.00012498668
0.00012436057
0.00012371375
0.0001230462
0.00012235816
0.00012165019
0.0001209231
0.00012017829
0.00011941792
0.00011864478
0.00011786251
0.00011707778
0.00011629762
0.00011553074
0.00011479845
0.00011411446
0.00011350818
0.00011301735
0.00011271576
0.00011269241
0.00011310522
0.00011421085
0.00011637375
0.00012035551
0.00012735562
0.00013933542
0.0001599123
0.00019386298
0.00024608099
0.00031914065
0.00041313454
0.00052449532
0.00064729603
0.00077562885
0.00090520136
0.0010333837
0.0011585738
0.0012797468
0.001396283
0.0015078544
0.0016143217
0.0017156699
0.0018119698
0.0019033474
0.0019899623
0.0020719921
0.0021496236
0.0022230484
0.0022924614
0.0023580725
0.0024200768
0.0024788278
0.0025341598
0.0025883643
0.002633463
0.0027095911
0.0001392574
0.00013911675
0.00013897011
0.00013881803
0.00013866056
0.00013849767
0.00013832927
0.00013815526
0.00013797549
0.00013778984
0.00013759814
0.00013740023
0.00013719592
0.00013698501
0.0001367673
0.00013654256
0.00013631057
0.00013607108
0.00013582384
0.00013556858
0.00013530504
0.00013503293
0.00013475195
0.00013446179
0.00013416214
0.00013385265
0.00013353296
0.00013320272
0.00013286151
0.00013250893
0.00013214455
0.0001317679
0.0001313785
0.00013097586
0.00013055946
0.00013012874
0.00012968314
0.00012922208
0.00012874495
0.00012825115
0.00012774005
0.00012721102
0.00012666346
0.00012609674
0.00012551029
0.00012490355
0.00012427604
0.00012362733
0.00012295708
0.00012226512
0.00012155141
0.00012081611
0.00012005972
0.00011928311
0.00011848752
0.0001176751
0.00011684884
0.00011601215
0.00011517199
0.00011433568
0.0001135126
0.00011272277
0.00011198271
0.00011132187
0.00011078018
0.00011043309
0.00011037401
0.00011076591
0.00011187445
0.00011409117
0.00011818771
0.00012540865
0.00013786027
0.00015907317
0.00019398724
0.00024665452
0.00031974711
0.00041289896
0.00052221803
0.00064189581
0.0007665509
0.00089238224
0.001016993
0.0011388481
0.0012569573
0.0013707251
0.0014798264
0.0015841136
0.001683558
0.0017782097
0.0018681696
0.0019535726
0.0020345781
0.002111372
0.00218414
0.0022532287
0.0023184543
0.002382302
0.0024356694
0.0025252921
0.00013944778
0.00013930928
0.00013916499
0.00013901548
0.00013886078
0.00013870083
0.00013853553
0.00013836475
0.00013818835
0.00013800619
0.00013781811
0.00013762395
0.00013742352
0.00013721662
0.00013700306
0.0001367826
0.00013655504
0.00013632012
0.0001360776
0.00013582723
0.00013556873
0.00013530183
0.00013502625
0.00013474168
0.0001344478
0.00013414431
0.00013383085
0.00013350708
0.00013317263
0.00013282712
0.00013247013
0.00013210125
0.00013172005
0.00013132606
0.00013091881
0.0001304978
0.00013006253
0.00012961244
0.00012914698
0.00012866559
0.00012816768
0.00012765263
0.00012711983
0.00012656867
0.0001259985
0.00012540872
0.0001247987
0.00012416787
0.00012351566
0.00012284158
0.00012214518
0.00012142612
0.0001206842
0.00011991936
0.00011913176
0.00011832187
0.00011749062
0.00011663923
0.00011576995
0.0001148859
0.00011399085
0.00011309165
0.00011219632
0.00011131517
0.0001104682
0.00010967494
0.00010896678
0.00010838715
0.00010801746
0.00010796213
0.00010839817
0.00010961251
0.00011206063
0.00011657038
0.00012451939
0.00013830719
0.00016165244
0.00019925468
0.00025488351
0.00033069857
0.00042538485
0.00053445309
0.00065228623
0.00077414404
0.00089677512
0.0010180717
0.0011366503
0.001251627
0.0013624695
0.0014688787
0.0015707128
0.001667937
0.0017605929
0.0018487821
0.0019326351
0.0020124565
0.0020880158
0.0021619718
0.0022240393
0.0023278235
0.00013963683
0.00013950051
0.00013935858
0.00013921162
0.00013905965
0.0001389026
0.00013874033
0.00013857272
0.00013839963
0.0001382209
0.00013803637
0.00013784589
0.00013764927
0.00013744631
0.00013723681
0.00013702057
0.00013679735
0.00013656693
0.00013632906
0.00013608349
0.00013582996
0.0001355682
0.00013529792
0.00013501883
0.00013473063
0.00013443301
0.00013412563
0.00013380815
0.00013348023
0.00013314148
0.00013279153
0.00013242998
0.00013205642
0.00013167041
0.00013127151
0.00013085926
0.00013043316
0.00012999274
0.00012953746
0.0001290668
0.00012858019
0.00012807708
0.00012755688
0.00012701898
0.00012646277
0.00012588762
0.00012529291
0.000124678
0.00012404226
0.00012338507
0.00012270585
0.00012200403
0.0001212791
0.00012053062
0.00011975824
0.00011896174
0.0001181411
0.00011729648
0.00011642839
0.00011553781
0.00011462612
0.00011369564
0.00011274969
0.0001117925
0.0001108312
0.00010987474
0.00010893464
0.00010803274
0.00010719048
0.00010644407
0.00010584242
0.00010547692
0.00010547046
0.00010602487
0.00010746428
0.00011034744
0.00011563883
0.00012492344
0.0001410387
0.0001680601
0.00021024244
0.00027114087
0.0003517403
0.00044946288
0.00055928604
0.00067600158
0.00079560577
0.00091539761
0.001033583
0.0011489775
0.0012608275
0.0013686728
0.0014722563
0.0015714653
0.0016662803
0.0017568934
0.0018429735
0.0019273129
0.0019983747
0.0021168471
0.00013982347
0.00013968934
0.00013954975
0.0001394053
0.00013925601
0.00013910178
0.00013894247
0.00013877796
0.00013860808
0.0001384327
0.00013825164
0.00013806475
0.00013787185
0.00013767273
0.00013746721
0.00013725508
0.00013703612
0.00013681009
0.00013657676
0.00013633589
0.00013608721
0.00013583046
0.00013556537
0.00013529165
0.00013500899
0.0001347171
0.00013441565
0.00013410431
0.00013378273
0.00013345056
0.00013310743
0.00013275295
0.00013238671
0.00013200831
0.00013161732
0.0001312133
0.00013079578
0.0001303643
0.00012991837
0.00012945747
0.00012898109
0.00012848869
0.00012797971
0.00012745357
0.0001269097
0.00012634749
0.00012576631
0.00012516554
0.00012454456
0.0001239027
0.00012323934
0.00012255384
0.00012184558
0.00012111395
0.00012035841
0.00011957843
0.00011877358
0.00011794353
0.00011708808
0.00011620722
0.00011530119
0.00011437056
0.00011341639
0.00011244025
0.00011144466
0.00011043329
0.00010941089
0.00010838544
0.00010736688
0.00010636831
0.00010541532
0.00010453097
0.00010375874
0.00010315728
0.00010283039
0.00010292906
0.00010369953
0.0001055272
0.000109124
0.00011565662
0.00012717251
0.00014698947
0.00017926544
0.00022813668
0.00029625153
0.00038295466
0.00048435871
0.00059528679
0.00071119935
0.00082884058
0.00094600743
0.0010612169
0.0011734975
0.0012822353
0.0013870569
0.0014878967
0.0015842143
0.0016788594
0.0017589514
0.0018923717
0.0001400068
0.00013987486
0.00013973757
0.00013959557
0.00013944888
0.0001392974
0.00013914097
0.00013897946
0.00013881271
0.00013864057
0.00013846288
0.00013827948
0.00013809019
0.00013789481
0.00013769316
0.00013748502
0.00013727019
0.00013704843
0.00013681952
0.00013658321
0.00013633925
0.00013608739
0.00013582734
0.00013555883
0.00013528157
0.00013499525
0.00013469957
0.0001343942
0.0001340788
0.00013375301
0.00013341649
0.00013306885
0.0001327097
0.00013233865
0.00013195527
0.00013155915
0.00013114983
0.00013072685
0.00013028976
0.00012983806
0.00012937125
0.00012888881
0.00012839021
0.00012787491
0.00012734233
0.00012679191
0.00012622304
0.00012563512
0.00012502753
0.00012439963
0.00012375078
0.00012308033
0.00012238764
0.00012167205
0.00012093293
0.00012016966
0.00011938163
0.0001185683
0.00011772916
0.0001168638
0.00011597192
0.00011505335
0.00011410814
0.00011313662
0.00011213945
0.00011111787
0.00011007366
0.00010900971
0.00010793017
0.00010684042
0.00010574991
0.00010466978
0.00010361537
0.00010261651
0.00010170099
0.0001009209
0.00010034991
0.00010011112
0.00010039746
0.00010151219
0.00010397813
0.00010870411
0.0001172037
0.00013214123
0.00015728549
0.00019687881
0.00025455578
0.00033127989
0.00042450769
0.000529485
0.00064139277
0.00075650983
0.00087225239
0.00098685943
0.0010991496
0.0012084857
0.0013138909
0.0014181183
0.001506807
0.0016549438
0.00014018613
0.00014005632
0.00013992129
0.00013978168
0.00013963752
0.00013948869
0.00013933504
0.00013917643
0.00013901271
0.00013884371
0.00013866928
0.00013848925
0.00013830345
0.00013811169
0.00013791377
0.0001377095
0.00013749867
0.00013728105
0.00013705641
0.00013682453
0.00013658514
0.000136338
0.00013608284
0.00013581938
0.00013554735
0.00013526643
0.00013497634
0.00013467675
0.00013436732
0.00013404773
0.00013371761
0.00013337659
0.00013302431
0.00013266035
0.00013228433
0.00013189582
0.00013149439
0.0001310796
0.00013065099
0.00013020808
0.00012975039
0.00012927742
0.00012878866
0.00012828357
0.00012776161
0.00012722222
0.00012666483
0.00012608886
0.00012549368
0.0001248787
0.00012424328
0.00012358679
0.00012290857
0.00012220799
0.00012148437
0.00012073706
0.00011996541
0.0001191688
0.00011834659
0.00011749821
0.00011662312
0.00011572085
0.00011479102
0.00011383337
0.00011284779
0.00011183444
0.00011079372
0.00010972651
0.00010863424
0.000107519
0.00010638422
0.00010523474
0.00010407679
0.0001029215
0.0001017822
0.00010067723
9.9642044e-05
9.8711588e-05
9.7948014e-05
9.7450331e-05
9.7375187e-05
9.7972635e-05
9.9641775e-05
0.00010311494
0.00010957131
0.00012117973
0.00014121318
0.00017381068
0.00022309479
0.00029124779
0.00037701754
0.00047629
0.00058419296
0.00069666069
0.00081076972
0.00092463401
0.0010363485
0.0011482439
0.0012442391
0.0014059687
0.00014036089
0.00014023317
0.00014010034
0.00013996305
0.00013982133
0.00013967506
0.00013952409
0.00013936828
0.00013920746
0.00013904149
0.0001388702
0.00013869342
0.00013851099
0.00013832271
0.0001381284
0.00013792787
0.00013772089
0.00013750726
0.00013728675
0.00013705913
0.00013682415
0.00013658157
0.00013633113
0.00013607255
0.00013580556
0.00013552986
0.00013524517
0.00013495115
0.0001346475
0.00013433388
0.00013400994
0.00013367533
0.00013332966
0.00013297257
0.00013260364
0.00013222248
0.00013182866
0.00013142175
0.0001310013
0.00013056684
0.00013011792
0.00012965403
0.00012917467
0.00012867934
0.0001281675
0.0001276386
0.0001270921
0.00012652741
0.00012594396
0.00012534114
0.00012471835
0.00012407496
0.00012341033
0.00012272382
0.00012201479
0.00012128257
0.0001205265
0.00011974593
0.0001189402
0.00011810866
0.0001172507
0.00011636571
0.00011545314
0.00011451248
0.0001135433
0.00011254527
0.00011151821
0.00011046211
0.00010937723
0.00010826416
0.00010712397
0.00010595845
0.00010477009
0.00010356298
0.00010234295
0.00010111748
9.9899817e-05
9.8705882e-05
9.7562262e-05
9.6503903e-05
9.5582662e-05
9.4875598e-05
9.4516853e-05
9.4719438e-05
9.5807421e-05
9.8375231e-05
0.00010340609
0.00011268227
0.00012904956
0.00015643507
0.00019915651
0.00026024521
0.000339554
0.00043367454
0.00053782083
0.00064783068
0.00075991225
0.00087529988
0.00097571384
0.0011482789
0.00014053066
0.00014040498
0.00014027428
0.00014013923
0.00013999986
0.00013985606
0.00013970767
0.00013955454
0.00013939652
0.00013923345
0.00013906518
0.00013889153
0.00013871233
0.00013852741
0.00013833657
0.00013813962
0.00013793635
0.00013772656
0.00013751002
0.0001372865
0.00013705577
0.00013681758
0.00013657168
0.00013631779
0.00013605566
0.00013578499
0.00013550549
0.00013521685
0.00013491876
0.00013461089
0.00013429291
0.00013396445
0.00013362516
0.00013327467
0.00013291258
0.00013253849
0.000132152
0.00013175268
0.00013134008
0.00013091376
0.00013047326
0.00013001809
0.00012954778
0.0001290618
0.00012855966
0.00012804081
0.00012750471
0.00012695081
0.00012637853
0.00012578729
0.00012517649
0.00012454553
0.00012389378
0.00012322061
0.00012252539
0.00012180746
0.00012106617
0.00012030087
0.00011951089
0.00011869558
0.00011785427
0.00011698634
0.00011609114
0.00011516809
0.00011421662
0.0001132362
0.00011222639
0.00011118681