/*--------------------------------*- C++ -*----------------------------------*\
  =========                 |
  \\      /  F ield         | OpenFOAM: The Open Source CFD Toolbox
   \\    /   O peration     | Website:  https://openfoam.org
    \\  /    A nd           | Version:  12
     \\/     M anipulation  |
\*---------------------------------------------------------------------------*/
FoamFile
{
    format      ascii;
    class       volScalarField;
    location    "200";
    object      k;
}
// * * * * * * * * * * * * * * * * * * * * * * * * * * * * * * * * * * * * * //

dimensions      [0 2 -2 0 0 0 0];

internalField   nonuniform List<scalar> 
13056
(
0.0001282221
0.00012492632
0.00012452337
0.00012446497
0.00012444146
0.00012442754
0.00012442019
0.00012441761
0.00012441851
0.00012442205
0.0001244277
0.00012443514
0.00012444414
0.00012445456
0.00012446627
0.00012447916
0.00012449315
0.00012450815
0.00012452428
0.00012454188
0.00012456186
0.00012460019
0.00012452385
0.00012772221
0.00012736723
0.00013565694
0.00011106606
9.9014007e-05
9.0357295e-05
8.3889903e-05
7.90118e-05
7.5196443e-05
7.2117319e-05
6.957549e-05
6.7440243e-05
6.5620653e-05
6.405128e-05
6.2683808e-05
6.1481784e-05
6.041716e-05
5.9467957e-05
5.8616673e-05
5.7849175e-05
5.7153908e-05
5.6521316e-05
5.5943425e-05
5.5413513e-05
5.4925875e-05
5.447563e-05
5.4058575e-05
5.3671067e-05
5.3309936e-05
5.2972404e-05
5.2656031e-05
5.2358662e-05
5.207839e-05
5.1813517e-05
5.1562531e-05
5.1324082e-05
5.1096958e-05
5.0880074e-05
5.0672453e-05
5.0473214e-05
5.0281562e-05
5.0096779e-05
4.9918214e-05
4.9745276e-05
4.9577431e-05
4.941419e-05
4.925511e-05
4.9099783e-05
4.894784e-05
4.879894e-05
4.865277e-05
4.8509043e-05
4.8367495e-05
4.8227882e-05
4.8089977e-05
4.7953568e-05
4.781846e-05
4.768447e-05
4.7551432e-05
4.7419171e-05
4.728755e-05
4.7156423e-05
4.7025659e-05
4.6895129e-05
4.6764712e-05
4.6634295e-05
4.6503769e-05
4.637303e-05
4.6241979e-05
4.6110522e-05
4.5978568e-05
4.584603e-05
4.5712825e-05
4.5578871e-05
4.544409e-05
4.5308408e-05
4.5171753e-05
4.5034055e-05
4.4895247e-05
4.4755267e-05
4.4614052e-05
4.4471544e-05
4.4327682e-05
4.4182413e-05
4.4035681e-05
4.3887436e-05
4.3737638e-05
4.3586232e-05
4.3433274e-05
4.3278565e-05
4.3124598e-05
4.2979225e-05
4.2846465e-05
4.2725981e-05
4.2616714e-05
4.2517534e-05
4.2427377e-05
4.2345281e-05
4.2270385e-05
4.2201918e-05
4.2139204e-05
4.2081642e-05
4.2028704e-05
4.1979924e-05
4.1934892e-05
4.1893246e-05
4.185466e-05
4.181886e-05
4.1785536e-05
4.1754685e-05
4.1724994e-05
4.1700587e-05
4.1661822e-05
0.00012818395
0.0001248559
0.00012444599
0.00012438576
0.00012436139
0.00012434695
0.00012433926
0.00012433645
0.00012433719
0.00012434061
0.00012434619
0.00012435358
0.00012436255
0.00012437295
0.00012438466
0.00012439757
0.00012441158
0.00012442662
0.00012444281
0.0001244605
0.00012448061
0.0001245193
0.00012444204
0.00012763191
0.001398705
0.0014883502
0.0012216749
0.0010905116
0.0009961209
0.00092547377
0.00087210595
0.00083031546
0.00079655608
0.00076866387
0.0007452154
0.0007252196
0.00070796262
0.00069291701
0.00067968456
0.00066795868
0.00065749904
0.0006481142
0.00063964948
0.00063197835
0.00062499618
0.00061861556
0.00061276283
0.00060737542
0.00060239977
0.00059778976
0.00059350541
0.00058951188
0.00058577865
0.00058227891
0.00057898895
0.00057588779
0.00057295674
0.00057017916
0.00056754017
0.00056502643
0.00056262597
0.00056032801
0.00055812284
0.0005560017
0.00055395665
0.0005519805
0.00055006674
0.00054820945
0.00054640324
0.00054464321
0.00054292488
0.00054124413
0.0005395972
0.00053798065
0.00053639131
0.00053482624
0.00053328275
0.00053175832
0.00053025064
0.00052875753
0.00052727696
0.00052580712
0.00052434605
0.00052289225
0.00052144409
0.00052000014
0.00051855896
0.00051711921
0.00051567964
0.00051423903
0.00051279624
0.00051135017
0.00050989977
0.00050844403
0.00050698199
0.00050551269
0.00050403526
0.0005025488
0.00050105249
0.00049954552
0.0004980271
0.00049649649
0.00049495297
0.00049339584
0.00049182443
0.00049023808
0.00048863613
0.000487018
0.00048538307
0.0004837309
0.00048206084
0.00048037347
0.00047866675
0.00047696754
0.00047536144
0.00047389266
0.00047255791
0.00047134599
0.00047024476
0.00046924276
0.00046832956
0.00046749578
0.00046673304
0.0004660339
0.0004653918
0.00046480093
0.00046425617
0.00046375299
0.0004632874
0.00046285582
0.00046245522
0.00046208214
0.00046173659
0.00046140388
0.0004611303
0.00046069541
0.00012800694
0.00012457327
0.00012414186
0.00012407597
0.00012404895
0.00012403291
0.00012402416
0.00012402063
0.00012402087
0.00012402395
0.00012402929
0.00012403653
0.00012404541
0.00012405578
0.00012406749
0.00012408044
0.00012409454
0.00012410971
0.00012412607
0.00012414402
0.00012416451
0.00012420422
0.00012412472
0.00012731678
0.0030620672
0.003244681
0.0026869245
0.0024099853
0.0022094415
0.0020584796
0.0019439105
0.0018538727
0.0017809269
0.0017205123
0.0016696172
0.0016261375
0.0015885535
0.0015557392
0.0015268426
0.0015012064
0.0014783147
0.0014577554
0.0014391956
0.0014223622
0.0014070292
0.0013930075
0.0013801378
0.0013682842
0.0013573307
0.001347177
0.0013377361
0.0013289323
0.0013206991
0.001312978
0.0013057173
0.0012988711
0.0012923986
0.0012862635
0.0012804331
0.0012748782
0.0012695726
0.0012644927
0.0012596172
0.0012549267
0.0012504039
0.0012460329
0.0012417995
0.0012376906
0.0012336944
0.0012298001
0.0012259977
0.0012222783
0.0012186336
0.0012150559
0.0012115382
0.0012080742
0.0012046578
0.0012012835
0.0011979462
0.0011946411
0.0011913637
0.00118811
0.0011848757
0.0011816574
0.0011784515
0.001175255
0.0011720645
0.0011688772
0.0011656903
0.001162501
0.0011593068
0.0011561053
0.0011528941
0.001149671
0.0011464339
0.0011431806
0.0011399092
0.0011366176
0.001133304
0.0011299666
0.0011266036
0.0011232134
0.0011197942
0.0011163447
0.0011128631
0.001109348
0.001105798
0.0011022116
0.0010985874
0.0010949245
0.0010912214
0.0010874791
0.0010836935
0.0010799232
0.0010763568
0.0010730919
0.0010701219
0.0010674226
0.0010649678
0.0010627325
0.0010606938
0.0010588313
0.0010571264
0.0010555628
0.001054126
0.0010528033
0.0010515831
0.0010504557
0.001049412
0.0010484441
0.0010475454
0.0010467081
0.0010459323
0.0010451851
0.0010445705
0.0010435928
0.00012768977
0.00012407308
0.00012360459
0.00012352882
0.00012349717
0.00012347833
0.00012346773
0.00012346293
0.0001234623
0.00012346477
0.0001234697
0.00012347666
0.00012348538
0.00012349567
0.00012350739
0.00012352041
0.00012353464
0.00012355001
0.00012356667
0.00012358504
0.00012360614
0.00012364753
0.00012356486
0.00012677237
0.0046326508
0.0049237473
0.0041302936
0.0037317356
0.0034411735
0.0032208498
0.0030525868
0.0029196875
0.002811572
0.0027217151
0.0026457863
0.0025807467
0.0025243925
0.0024750852
0.002431581
0.0023929178
0.0023583382
0.0023272364
0.0022991211
0.0022735893
0.0022503062
0.0022289916
0.0022094086
0.0021913552
0.0021746583
0.0021591682
0.002144755
0.0021313052
0.002118719
0.0021069087
0.0020957965
0.0020853134
0.002075398
0.0020659952
0.0020570558
0.0020485358
0.0020403953
0.0020325985
0.0020251132
0.0020179102
0.0020109628
0.0020042472
0.0019977414
0.0019914258
0.0019852822
0.0019792942
0.0019734467
0.0019677258
0.001962119
0.0019566146
0.0019512019
0.0019458711
0.001940613
0.0019354192
0.0019302818
0.0019251935
0.0019201474
0.0019151374
0.0019101568
0.0019052005
0.001900263
0.0018953394
0.0018904248
0.0018855148
0.0018806049
0.001875691
0.0018707691
0.0018658356
0.0018608868
0.0018559192
0.0018509294
0.0018459142
0.0018408704
0.001835795
0.0018306851
0.0018255377
0.0018203501
0.0018151197
0.0018098438
0.00180452
0.0017991459
0.0017937189
0.0017882368
0.0017826972
0.0017770981
0.0017714375
0.0017657133
0.0017599268
0.0017540719
0.0017482382
0.0017427141
0.0017376503
0.0017330377
0.0017288403
0.0017250186
0.0017215349
0.0017183547
0.0017154466
0.0017127825
0.0017103374
0.001708089
0.0017060176
0.0017041058
0.0017023381
0.0017007008
0.0016991816
0.0016977702
0.0016964546
0.001695235
0.0016940597
0.0016930927
0.0016915531
0.00012723077
0.0001233471
0.00012282429
0.00012273373
0.00012269514
0.0001226721
0.00012265873
0.00012265203
0.00012265008
0.00012265163
0.00012265591
0.00012266245
0.0001226709
0.00012268106
0.00012269276
0.00012270586
0.00012272026
0.00012273591
0.00012275297
0.00012277192
0.00012279386
0.0001228376
0.00012275118
0.00012598836
0.0058952101
0.0063282441
0.005366491
0.0048794594
0.0045235133
0.0042522885
0.0040441521
0.0038791124
0.00374441
0.0036321386
0.003537032
0.0034553821
0.0033844926
0.0033223533
0.0032674347
0.0032185513
0.0031747677
0.003135335
0.0030996445
0.0030671959
0.0030375735
0.0030104281
0.0029854646
0.0029624308
0.0029411103
0.0029213157
0.0029028842
0.0028856733
0.0028695578
0.002854427
0.0028401833
0.0028267394
0.0028140178
0.002801949
0.0027904707
0.0027795269
0.0027690674
0.0027590466
0.0027494236
0.0027401611
0.0027312254
0.0027225861
0.0027142152
0.0027060874
0.0026981799
0.0026904715
0.0026829429
0.0026755765
0.0026683562
0.0026612671
0.0026542954
0.0026474286
0.0026406549
0.0026339636
0.0026273446
0.0026207884
0.0026142862
0.0026078302
0.0026014118
0.0025950244
0.0025886611
0.0025823155
0.0025759813
0.0025696526
0.0025633238
0.0025569897
0.0025506452
0.0025442853
0.0025379054
0.0025315009
0.0025250675
0.0025186009
0.002512097
0.0025055518
0.0024989615
0.0024923223
0.0024856305
0.0024788826
0.0024720752
0.002465205
0.0024582686
0.002451263
0.0024441848
0.0024370309
0.0024297986
0.0024224852
0.0024150876
0.0024076074
0.0024000372
0.0023924911
0.0023853374
0.0023787698
0.0023727779
0.0023673174
0.0023623389
0.0023577951
0.0023536424
0.0023498411
0.0023463553
0.0023431531
0.002340206
0.0023374888
0.002334979
0.0023326567
0.0023305043
0.0023285058
0.0023266479
0.002324915
0.0023233077
0.0023217578
0.0023204819
0.0023184486
0.00012662861
0.00012238502
0.00012178825
0.000121677
0.00012162871
0.0001215998
0.00012158253
0.00012157315
0.00012156932
0.00012156955
0.00012157292
0.00012157882
0.00012158687
0.00012159681
0.00012160843
0.0001216216
0.0001216362
0.00012165218
0.00012166973
0.00012168942
0.00012171239
0.00012175916
0.00012166822
0.00012495045
0.0068422499
0.0074758806
0.0063910629
0.0058377832
0.0054337376
0.0051251079
0.0048875096
0.004698601
0.0045440692
0.0044150155
0.0043054977
0.004211323
0.0041294371
0.0040575596
0.0039939525
0.0039372668
0.0038864375
0.0038406102
0.0037990905
0.0037613067
0.0037267831
0.0036951203
0.0036659796
0.0036390721
0.003614149
0.0035909952
0.003569423
0.0035492684
0.0035303871
0.0035126514
0.0034959484
0.0034801774
0.0034652485
0.0034510811
0.0034376032
0.0034247498
0.0034124624
0.0034006882
0.0033893793
0.0033784925
0.0033679886
0.0033578318
0.0033479897
0.0033384328
0.0033291343
0.0033200694
0.0033112157
0.0033025526
0.003294061
0.0032857237
0.0032775245
0.0032694487
0.0032614827
0.0032536136
0.0032458297
0.0032381201
0.0032304742
0.003222883
0.0032153364
0.0032078267
0.0032003457
0.0031928859
0.0031854399
0.0031780009
0.0031705623
0.0031631177
0.0031556614
0.0031481873
0.0031406901
0.0031331643
0.0031256049
0.0031180066
0.0031103647
0.0031026744
0.003094931
0.0030871301
0.0030792673
0.0030713383
0.0030633389
0.0030552653
0.0030471133
0.0030388791
0.0030305586
0.0030221482
0.0030136442
0.0030050433
0.0029963419
0.0029875413
0.0029786337
0.0029697505
0.0029613188
0.0029535639
0.0029464758
0.0029400052
0.0029340962
0.0029286954
0.0029237527
0.0029192227
0.002915064
0.0029112396
0.0029077164
0.0029044649
0.002901459
0.0028986752
0.002896093
0.0028936936
0.0028914613
0.0028893776
0.0028874437
0.0028855774
0.0028840404
0.0028815876
0.00012588332
0.00012117547
0.00012048186
0.00012034273
0.00012028134
0.00012024447
0.00012022191
0.00012020888
0.00012020249
0.00012020089
0.00012020295
0.00012020795
0.0001202154
0.00012022498
0.00012023645
0.00012024963
0.00012026442
0.00012028076
0.00012029888
0.00012031944
0.00012034365
0.00012039413
0.00012029762
0.00012364072
0.0075169998
0.0084246837
0.0072464377
0.006640315
0.0061987196
0.005861156
0.0056007295
0.0053932721
0.0052232891
0.0050811252
0.0049603207
0.0048563115
0.0047657691
0.0046862059
0.004615724
0.0045528491
0.0044964166
0.0044454918
0.0043993142
0.0043572575
0.0043188003
0.0042835043
0.004250998
0.0042209637
0.0041931279
0.0041672539
0.0041431352
0.004120591
0.0040994621
0.0040796077
0.004060903
0.0040432365
0.0040265089
0.004010631
0.0039955229
0.0039811124
0.0039673347
0.0039541309
0.003941448
0.0039292378
0.0039174566
0.0039060646
0.0038950256
0.0038843068
0.003873878
0.0038637117
0.003853783
0.0038440685
0.0038345473
0.0038251998
0.0038160082
0.0038069558
0.0037980275
0.0037892089
0.0037804869
0.0037718492
0.0037632842
0.0037547816
0.0037463301
0.0037379213
0.0037295459
0.0037211955
0.0037128618
0.0037045372
0.0036962144
0.0036878862
0.0036795459
0.0036711872
0.0036628037
0.0036543893
0.0036459384
0.0036374451
0.0036289039
0.0036203095
0.0036116565
0.0036029398
0.0035941545
0.0035852955
0.0035763583
0.0035673381
0.0035582303
0.0035490304
0.0035397337
0.0035303358
0.0035208325
0.0035112198
0.0035014935
0.0034916544
0.003481695
0.0034717584
0.0034623124
0.003453606
0.0034456308
0.0034383353
0.0034316605
0.003425549
0.0034199473
0.0034148058
0.0034100794
0.0034057275
0.0034017136
0.0033980053
0.0033945734
0.003391392
0.0033884382
0.003385691
0.0033831329
0.003380743
0.0033785231
0.0033763791
0.0033746123
0.0033717885
0.00012499737
0.00011970727
0.00011888974
0.00011871385
0.00011863512
0.0001185877
0.0001185581
0.0001185402
0.00011853034
0.00011852626
0.00011852653
0.00011853025
0.00011853683
0.00011854584
0.00011855701
0.00011857012
0.00011858505
0.00011860175
0.00011862049
0.00011864203
0.00011866763
0.00011872249
0.00011861909
0.00012203857
0.0079616032
0.009221398
0.0079715495
0.0073209557
0.0068482606
0.0064870971
0.0062080653
0.0059854563
0.0058028202
0.0056498937
0.0055198005
0.0054076766
0.0053099727
0.0052240341
0.005147834
0.0050797973
0.005018679
0.00496348
0.0049133868
0.0048677294
0.0048259498
0.0047875784
0.0047522172
0.0047195256
0.0046892103
0.0046610171
0.0046347243
0.0046101374
0.0045870853
0.0045654164
0.0045449962
0.0045257046
0.0045074345
0.0044900894
0.0044735829
0.0044578371
0.0044427816
0.0044283529
0.0044144932
0.0044011503
0.0043882767
0.0043758293
0.0043637686
0.0043520588
0.0043406672
0.0043295639
0.0043187214
0.0043081147
0.0042977207
0.0042875181
0.0042774874
0.0042676106
0.0042578711
0.0042482532
0.0042387427
0.0042293262
0.0042199909
0.0042107258
0.0042015184
0.0041923597
0.0041832395
0.0041741486
0.0041650781
0.0041560196
0.0041469651
0.0041379068
0.0041288376
0.0041197502
0.0041106378
0.0041014939
0.004092312
0.0040830859
0.0040738094
0.0040644766
0.0040550817
0.0040456189
0.0040360827
0.0040264676
0.0040167684
0.0040069798
0.0039970966
0.0039871136
0.0039770257
0.0039668277
0.0039565147
0.0039460823
0.0039355254
0.0039248445
0.0039140329
0.00390324
0.0038929612
0.0038834633
0.0038747407
0.0038667422
0.0038594082
0.0038526797
0.0038465012
0.0038408208
0.003835591
0.0038307686
0.003826315
0.0038221951
0.0038183778
0.0038148352
0.0038115424
0.0038084768
0.0038056193
0.0038029472
0.0038004628
0.0037980611
0.0037960806
0.0037929097
0.00012397699
0.00011797087
0.00011699716
0.00011677347
0.00011667206
0.00011661081
0.00011657194
0.00011654759
0.00011653312
0.0001165257
0.00011652354
0.0001165255
0.00011653081
0.00011653898
0.00011654963
0.00011656252
0.00011657748
0.00011659449
0.00011661385
0.00011663644
0.00011666352
0.00011672341
0.00011661149
0.00012012165
0.0082077234
0.0098971868
0.0085943571
0.0079048886
0.0074051325
0.0070238471
0.0067290019
0.0064934899
0.0063000493
0.0061379069
0.0059998378
0.0058807262
0.0057768374
0.0056853767
0.0056042091
0.0055316748
0.0054664618
0.0054075169
0.0053539826
0.0053051524
0.0052604377
0.0052193432
0.0051814485
0.005146394
0.0051138698
0.0050836072
0.0050553716
0.0050289572
0.0050041827
0.0049808875
0.0049589287
0.0049381791
0.0049185244
0.0048998625
0.0048821012
0.0048651575
0.0048489563
0.0048334298
0.0048185164
0.0048041602
0.0047903103
0.0047769206
0.0047639488
0.0047513565
0.0047391087
0.0047271732
0.0047155205
0.0047041238
0.0046929582
0.0046820008
0.0046712308
0.0046606288
0.0046501769
0.0046398584
0.0046296579
0.0046195609
0.004609554
0.0045996252
0.0045897612
0.0045799523
0.0045701874
0.0045604568
0.0045507509
0.0045410609
0.0045313779
0.0045216938
0.0045120007
0.0045022909
0.0044925572
0.0044827923
0.0044729895
0.0044631418
0.0044532428
0.0044432859
0.0044332647
0.0044231731
0.0044130049
0.0044027542
0.0043924152
0.004381982
0.004371449
0.0043608102
0.0043500601
0.0043391927
0.0043282026
0.0043170847
0.0043058334
0.004294448
0.004282924
0.0042714125
0.004260426
0.0042502449
0.0042408676
0.0042322455
0.00422432
0.0042170326
0.0042103271
0.0042041507
0.0041984544
0.0041931936
0.0041883278
0.0041838203
0.0041796384
0.0041757526
0.0041721364
0.0041687659
0.0041656208
0.0041626765
0.0041599363
0.0041572846
0.0041550962
0.0041515861
0.00012283352
0.00011596002
0.00011479158
0.00011450628
0.00011437544
0.00011429621
0.00011424526
0.00011421244
0.00011419189
0.00011418002
0.00011417457
0.00011417409
0.00011417764
0.00011418454
0.00011419436
0.00011420677
0.0001142216
0.0001142388
0.0001142587
0.00011428236
0.00011431096
0.00011437645
0.00011425406
0.00011786681
0.0082780835
0.010470973
0.0091335777
0.0084093838
0.0078851485
0.0074861016
0.0071773801
0.0069305302
0.0067275674
0.0065572781
0.0064121368
0.0062868104
0.006177404
0.0060810017
0.0059953751
0.0059187911
0.0058498797
0.0057875413
0.0057308807
0.00567916
0.0056317645
0.0055881765
0.0055479569
0.0055107296
0.0054761704
0.0054439981
0.0054139671
0.0053858617
0.0053594917
0.0053346888
0.0053113028
0.0052892001
0.0052682605
0.0052483764
0.0052294506
0.0052113956
0.0051941322
0.0051775887
0.0051616998
0.0051464064
0.0051316546
0.0051173955
0.0051035841
0.0050901798
0.0050771452
0.0050644462
0.0050520514
0.0050399321
0.005028062
0.0050164169
0.0050049742
0.0049937136
0.0049826158
0.0049716633
0.0049608395
0.0049501292
0.004939518
0.0049289931
0.0049185405
0.0049081498
0.0048978093
0.0048875088
0.0048772379
0.0048669873
0.0048567477
0.0048465104
0.0048362669
0.0048260092
0.0048157296
0.0048054203
0.004795074
0.0047846835
0.0047742417
0.0047637416
0.0047531764
0.0047425394
0.0047318239
0.0047210237
0.0047101321
0.0046991431
0.0046880503
0.0046768473
0.0046655278
0.0046540853
0.0046425137
0.0046308072
0.0046189597
0.0046069695
0.0045948343
0.0045827035
0.004571099
0.0045603111
0.0045503432
0.0045411509
0.0045326785
0.0045248691
0.0045176673
0.0045110203
0.0045048786
0.0044991965
0.0044939326
0.004489049
0.0044845117
0.00448029
0.0044763562
0.0044726852
0.0044692556
0.0044660412
0.0044630466
0.0044601454
0.0044577491
0.0044538979
0.00012158475
0.00011367372
0.0001122645
0.00011190027
0.00011173149
0.000111629
0.00011156237
0.0001115185
0.00011148996
0.00011147219
0.00011146234
0.00011145855
0.00011145962
0.00011146471
0.00011147325
0.00011148483
0.00011149924
0.00011151641
0.00011153671
0.00011156137
0.00011159141
0.00011166296
0.00011152785
0.00011525119
0.0081897741
0.010952647
0.0096012408
0.0088459516
0.0082989232
0.0078837858
0.00756261
0.0073055801
0.0070940422
0.0069163925
0.006764842
0.0066338658
0.0065194278
0.0064185053
0.0063287874
0.0062484762
0.0061761507
0.0061106703
0.0060511067
0.0059966946
0.0059467963
0.0059008751
0.005858475
0.0058192056
0.0057827304
0.0057487571
0.0057170303
0.0056873257
0.0056594456
0.0056332142
0.0056084754
0.0055850895
0.0055629311
0.0055418876
0.0055218575
0.0055027491
0.0054844792
0.0054669727
0.0054501609
0.0054339818
0.0054183786
0.0054032997
0.0053886977
0.0053745298
0.0053607564
0.0053473415
0.005334252
0.0053214576
0.0053089303
0.0052966444
0.0052845764
0.0052727044
0.0052610082
0.0052494693
0.0052380701
0.0052267945
0.0052156274
0.0052045553
0.0051935633
0.0051826404
0.0051717745
0.0051609545
0.0051501699
0.0051394104
0.0051286666
0.0051179291
0.0051071891
0.0050964381
0.0050856678
0.0050748703
0.0050640376
0.0050531622
0.0050422364
0.0050312531
0.0050202047
0.0050090842
0.0049978845
0.0049865987
0.0049752199
0.0049637413
0.0049521562
0.0049404575
0.0049286384
0.0049166918
0.0049046108
0.0048923891
0.00488002
0.0048675004
0.0048548311
0.0048421567
0.004830002
0.004818665
0.0048081544
0.0047984312
0.0047894438
0.0047811381
0.0047734606
0.0047663593
0.0047597848
0.0047536912
0.0047480365
0.0047427821
0.0047378929
0.0047333373
0.0047290868
0.004725115
0.0047213999
0.0047179138
0.0047146623
0.0047115087
0.0047089018
0.0047047033
0.00012025609
0.00011111839
0.0001094135
0.00010894863
0.00010873116
0.00010859872
0.00010851182
0.00010845362
0.00010841463
0.00010838909
0.00010837337
0.00010836512
0.00010836278
0.00010836529
0.00010837192
0.00010838216
0.00010839573
0.00010841253
0.00010843297
0.00010845844
0.0001084897
0.00010856761
0.00010841732
0.00011225333
0.0079576015
0.011345139
0.010004691
0.0092221698
0.0086534947
0.0082235079
0.0078909922
0.0076247045
0.0074053466
0.0072209624
0.0070635293
0.0069273519
0.0068082677
0.0067031588
0.0066096403
0.0065258567
0.0064503409
0.0063819161
0.0063196245
0.0062626765
0.0062104142
0.0061622837
0.0061178145
0.0060766036
0.0060383032
0.0060026115
0.0059692644
0.0059380301
0.0059087037
0.0058811033
0.005855067
0.0058304498
0.0058071218
0.0057849657
0.0057638759
0.0057437569
0.0057245221
0.0057060929
0.0056883977
0.0056713714
0.0056549547
0.0056390934
0.005623738
0.0056088432
0.0055943677
0.0055802734
0.0055665256
0.0055530924
0.0055399443
0.0055270542
0.0055143974
0.0055019507
0.0054896931
0.0054776048
0.0054656674
0.0054538641
0.0054421788
0.0054305974
0.0054191042
0.0054076879
0.0053963355
0.0053850355
0.0053737769
0.0053625489
0.0053513416
0.0053401452
0.0053289505
0.0053177485
0.0053065307
0.0052952885
0.0052840139
0.0052726986
0.0052613349
0.0052499149
0.0052384308
0.0052268752
0.0052152405
0.0052035193
0.0051917044
0.0051797884
0.0051677641
0.0051556239
0.0051433604
0.0051309659
0.0051184329
0.0051057544
0.0050929232
0.0050799348
0.0050667932
0.0050536364
0.0050409872
0.0050291484
0.0050181347
0.005007913
0.0049984368
0.0049896558
0.0049815191
0.0049739762
0.0049669786
0.0049604807
0.0049544401
0.0049488179
0.0049435785
0.0049386895
0.0049341215
0.0049298475
0.0049258446
0.0049220839
0.0049185723
0.0049151624
0.0049123412
0.0049077881
0.00011888156
0.00010831026
0.00010624459
0.0001056519
0.00010537218
0.00010520134
0.00010508836
0.0001050116
0.00010495902
0.00010492328
0.00010489979
0.00010488554
0.00010487856
0.00010487747
0.00010488135
0.00010488955
0.00010490167
0.00010491761
0.00010493775
0.00010496368
0.00010499575
0.00010508006
0.00010491208
0.0001088543
0.0075946089
0.011646674
0.010348363
0.0095430097
0.0089535498
0.0085096904
0.0081667722
0.0078920226
0.0076655003
0.0074749256
0.0073120679
0.0071710798
0.0070476857
0.0069386823
0.0068416183
0.0067545859
0.0066760771
0.0066048821
0.006540017
0.0064806705
0.0064261667
0.0063759367
0.0063294969
0.0062864331
0.0062463878
0.0062090505
0.0061741496
0.0061414463
0.0061107296
0.006081812
0.0060545266
0.0060287236
0.0060042686
0.0059810404
0.0059589297
0.0059378373
0.0059176735
0.0058983565
0.0058798118
0.0058619718
0.0058447745
0.0058281633
0.0058120865
0.0057964969
0.0057813509
0.005766609
0.0057522346
0.0057381941
0.0057244568
0.0057109942
0.0056977802
0.0056847908
0.0056720035
0.0056593978
0.0056469544
0.0056346555
0.0056224844
0.0056104263
0.0055984648
0.0055865879
0.0055747822
0.0055630356
0.0055513365
0.005539674
0.0055280375
0.0055164168
0.0055048024
0.0054931849
0.0054815554
0.0054699049
0.0054582251
0.0054465075
0.0054347438
0.0054229258
0.0054110454
0.0053990947
0.0053870658
0.0053749508
0.0053627421
0.005350432
0.0053380127
0.0053254761
0.0053128143
0.0053000191
0.0052870822
0.0052739961
0.0052607531
0.0052473473
0.0052337861
0.0052201993
0.0052071041
0.0051948063
0.0051833257
0.0051726358
0.0051626957
0.0051534598
0.0051448802
0.0051369086
0.0051294979
0.0051226031
0.0051161821
0.0051101959
0.0051046086
0.0050993872
0.0050945019
0.0050899248
0.0050856327
0.0050815951
0.0050778208
0.0050741515
0.0050711131
0.005066199
0.00011750413
0.00010527796
0.00010277482
0.00010202035
0.00010166134
0.00010144144
0.00010129498
0.00010119431
0.00010112409
0.00010107505
0.00010104132
0.00010101909
0.00010100584
0.00010099981
0.00010099979
0.00010100497
0.00010101482
0.00010102917
0.00010104837
0.00010107422
0.00010110647
0.00010119687
0.00010100885
0.00010503879
0.007114006
0.011851698
0.010634558
0.009811752
0.0092023019
0.0087453926
0.0083929171
0.0081104473
0.007877378
0.0076811261
0.0075132776
0.00736785
0.0072404669
0.0071278487
0.0070274848
0.0069374203
0.0068561103
0.0067823158
0.0067150289
0.0066534196
0.006596796
0.0065445757
0.0064962637
0.0064514359
0.0064097264
0.0063708169
0.0063344292
0.0063003185
0.0062682682
0.0062380861
0.0062096004
0.0061826573
0.0061571184
0.006132859
0.0061097663
0.0060877379
0.0060666811
0.0060465111
0.0060271509
0.0060085303
0.0059905849
0.0059732559
0.0059564895
0.0059402363
0.0059244511
0.0059090925
0.0058941222
0.0058795053
0.0058652095
0.005851205
0.0058374645
0.0058239628
0.0058106764
0.0057975839
0.005784665
0.0057719011
0.0057592748
0.0057467707
0.0057343713
0.0057220647
0.0057098364
0.0056976741
0.0056855656
0.0056734996
0.0056614651
0.0056494516
0.0056374492
0.0056254481
0.0056134389
0.0056014128
0.0055893606
0.0055772738
0.0055651437
0.0055529619
0.0055407198
0.0055284093
0.005516022
0.0055035497
0.0054909845
0.0054783182
0.0054655426
0.0054526493
0.0054396298
0.0054264753
0.0054131772
0.0053997271
0.005386117
0.0053723395
0.0053584056
0.0053444362
0.0053309401
0.0053182241
0.0053063127
0.0052951857
0.0052848082
0.0052751394
0.0052661352
0.0052577501
0.0052499386
0.0052426568
0.0052358633
0.0052295193
0.0052235886
0.0052180381
0.0052128376
0.0052079588
0.0052033779
0.0051990633
0.0051950255
0.0051910955
0.0051878385
0.0051825598
0.0001161753
0.00010206585
9.9034329e-05
9.8076576e-05
9.7616981e-05
9.7334576e-05
9.7145323e-05
9.7013921e-05
9.6920927e-05
9.6854572e-05
9.6807426e-05
9.6774648e-05
9.6752994e-05
9.6740236e-05
9.6734822e-05
9.6735677e-05
9.6742126e-05
9.6753883e-05
9.6771232e-05
9.6796181e-05
9.6827681e-05
9.6923425e-05
9.6713545e-05
0.00010079957
0.0065298412
0.011951877
0.010863967
0.010030591
0.0094021014
0.0089328939
0.0085716687
0.0082822139
0.0080432174
0.0078418061
0.007669405
0.0075199149
0.0073888701
0.007272924
0.0071695131
0.0070766412
0.0069927302
0.0069165149
0.0068469669
0.0067832391
0.0067246256
0.0066705324
0.0066204546
0.0065739595
0.0065306738
0.0064902726
0.0064524719
0.0064170216
0.0063837005
0.0063523119
0.0063226802
0.0062946477
0.0062680728
0.0062428274
0.0062187956
0.0061958723
0.0061739618
0.006152977
0.0061328383
0.0061134731
0.0060948148
0.0060768026
0.0060593804
0.0060424973
0.006026106
0.0060101635
0.00599463
0.005979469
0.0059646468
0.0059501324
0.0059358973
0.005921915
0.0059081611
0.0058946132
0.0058812501
0.0058680525
0.0058550021
0.0058420828
0.0058292767
0.005816571
0.005803951
0.0057914036
0.0057789164
0.0057664775
0.0057540756
0.0057416999
0.00572934
0.0057169859
0.0057046281
0.0056922571
0.0056798638
0.0056674391
0.0056549743
0.0056424605
0.0056298891
0.0056172515
0.005604539
0.0055917432
0.0055788557
0.0055658682
0.005552772
0.0055395585
0.0055262185
0.005512743
0.0054991227
0.0054853488
0.0054714128
0.0054573061
0.0054430431
0.0054287355
0.0054148823
0.0054017891
0.0053894841
0.0053779533
0.0053671675
0.0053570911
0.0053476841
0.005338904
0.0053307075
0.0053230522
0.0053158974
0.0053092048
0.0053029386
0.0052970655
0.005291555
0.0052863786
0.0052815122
0.0052769231
0.0052726235
0.0052684341
0.0052649591
0.0052593157
0.0001149536
9.8736918e-05
9.506888e-05
9.3858275e-05
9.3271583e-05
9.2909855e-05
9.2666066e-05
9.2495318e-05
9.2372997e-05
9.2284222e-05
9.2219581e-05
9.2172925e-05
9.2140118e-05
9.211831e-05
9.2105507e-05
9.2100319e-05
9.2101843e-05
9.2109652e-05
9.2123898e-05
9.2146789e-05
9.217626e-05
9.2276004e-05
9.2043409e-05
9.614002e-05
0.005858044
0.011936402
0.011035964
0.010200995
0.0095548423
0.0090740913
0.0087049236
0.0084092436
0.0081649698
0.0079589439
0.0077824527
0.0076292983
0.0074949392
0.0073759706
0.0072697837
0.007174346
0.0070880504
0.0070096091
0.0069379755
0.0068722878
0.0068118283
0.0067559929
0.0067042683
0.0066562147
0.0066114521
0.0065696505
0.0065305207
0.0064938083
0.0064592881
0.0064267597
0.0063960441
0.0063669806
0.0063394244
0.0063132447
0.0062883231
0.0062645517
0.0062418326
0.0062200762
0.0061992007
0.0061791314
0.0061597998
0.0061411428
0.0061231028
0.0061056269
0.0060886662
0.006072176
0.006056115
0.0060404453
0.0060251318
0.0060101423
0.0059954469
0.0059810182
0.0059668309
0.0059528613
0.0059390876
0.0059254895
0.0059120481
0.0058987465
0.0058855662
0.0058724939
0.0058595142
0.0058466137
0.0058337795
0.0058209993
0.0058082615
0.0057955548
0.0057828687
0.0057701928
0.0057575172
0.0057448324
0.0057321289
0.0057193975
0.0057066292
0.0056938149
0.0056809456
0.0056680127
0.0056550071
0.0056419203
0.0056287436
0.0056154683
0.0056020857
0.0055885866
0.0055749616
0.0055612013
0.0055472961
0.0055332365
0.005519014
0.0055046185
0.0054900678
0.0054754647
0.0054612974
0.0054478686
0.0054352093
0.0054233105
0.0054121489
0.0054016938
0.0053919096
0.005382757
0.0053741952
0.0053661836
0.0053586826
0.0053516546
0.0053450642
0.0053388783
0.0053330665
0.0053275998
0.0053224542
0.005317596
0.0053130393
0.0053085945
0.0053049046
0.0052989003
0.00011390164
9.5374728e-05
9.0942994e-05
8.9421054e-05
8.8674528e-05
8.8212517e-05
8.789949e-05
8.7678544e-05
8.7518612e-05
8.7400919e-05
8.731357e-05
8.7248769e-05
8.7201255e-05
8.7167387e-05
8.7144606e-05
8.7131112e-05
8.7125703e-05
8.7127752e-05
8.7137211e-05
8.7156458e-05
8.7182206e-05
8.7283888e-05
8.702919e-05
9.1075486e-05
0.00511758
0.011793682
0.011148175
0.010323863
0.0096622081
0.0091707557
0.0087944792
0.0084933794
0.0082445266
0.0080344737
0.0078543908
0.0076980021
0.0075607042
0.0074390442
0.0073303756
0.0072326354
0.0071441922
0.0070637389
0.0069902135
0.006922742
0.0068605968
0.0068031656
0.0067499281
0.0067004384
0.0066543117
0.0066112133
0.0065708502