/*--------------------------------*- C++ -*----------------------------------*\
  =========                 |
  \\      /  F ield         | OpenFOAM: The Open Source CFD Toolbox
   \\    /   O peration     | Website:  https://openfoam.org
    \\  /    A nd           | Version:  12
     \\/     M anipulation  |
\*---------------------------------------------------------------------------*/
FoamFile
{
    format      ascii;
    class       volScalarField;
    location    "200";
    object      p;
}
// * * * * * * * * * * * * * * * * * * * * * * * * * * * * * * * * * * * * * //

dimensions      [0 2 -2 0 0 0 0];

internalField   nonuniform List<scalar> 
13056
(
0.00154672
0.001562754
0.0015958244
0.0016379334
0.001689407
0.0017500925
0.0018196564
0.0018980694
0.0019856245
0.0020828811
0.0021906674
0.0023101464
0.0024429096
0.0025911895
0.0027580234
0.002948037
0.0031673077
0.003427425
0.0037406281
0.0041479057
0.0046649785
0.0055284784
0.0065804891
0.011728242
0.0078151092
0.0010927986
-3.5477266e-05
-8.2068178e-05
-4.3647408e-05
-1.3223698e-05
-4.8430803e-06
9.2356389e-06
2.7474528e-05
4.3302038e-05
5.6557527e-05
6.9623157e-05
8.2855037e-05
9.6075655e-05
0.00010917128
0.00012198991
0.00013465734
0.0001466633
0.00015813673
0.00016929053
0.00017980505
0.0001897074
0.00019930863
0.00020857107
0.00021728108
0.00022551071
0.00023349542
0.00024123036
0.0002485449
0.00025542446
0.000262003
0.0002683979
0.00027453613
0.00028031442
0.00028574168
0.00029088489
0.00029583697
0.00030059684
0.00030506899
0.00030922067
0.00031307968
0.00031669469
0.00032012182
0.00032335059
0.00032631047
0.00032897266
0.00033135257
0.00033347815
0.00033538858
0.00033709558
0.00033855891
0.00033974338
0.00034064451
0.0003412767
0.00034166092
0.00034181829
0.00034173397
0.00034137587
0.00034073599
0.0003398227
0.00033864859
0.00033722649
0.00033555128
0.00033359908
0.00033135868
0.00032883343
0.0003260339
0.00032296929
0.00031963252
0.00031600884
0.00031209269
0.00030788258
0.00030337572
0.00029856736
0.0002934522
0.00028802412
0.00028227567
0.00027619819
0.00026978188
0.0002630152
0.00025588371
0.00024836873
0.00024044577
0.00023208325
0.00022323671
0.00021384742
0.00020379848
0.00019295341
0.0001805274
0.00016737214
0.00015574284
0.00014570101
0.00013633771
0.00012729504
0.00011850749
0.00010994909
0.00010159284
9.3423381e-05
8.5437287e-05
7.7636922e-05
7.0028098e-05
6.262075e-05
5.5431435e-05
4.8483261e-05
4.1818356e-05
3.547614e-05
2.9613136e-05
2.4160149e-05
2.0250707e-05
1.5424934e-05
3.0714918e-05
-2.6429144e-05
0.00154672
0.001562754
0.0015958244
0.0016379334
0.001689407
0.0017500925
0.0018196564
0.0018980694
0.0019856245
0.0020828811
0.0021906674
0.0023101465
0.0024429096
0.0025911895
0.0027580234
0.0029480371
0.0031673078
0.003427425
0.0037406282
0.0041479058
0.0046649787
0.0055284789
0.00658049
0.011724296
0.0078174421
0.0010935192
-3.5251808e-05
-8.194269e-05
-4.3563752e-05
-1.3159078e-05
-4.792606e-06
9.2760312e-06
2.7507594e-05
4.3329601e-05
5.6580841e-05
6.9643114e-05
8.2872291e-05
9.60907e-05
0.0001091845
0.00012200159
0.00013466773
0.00014667258
0.00015814505
0.00016929803
0.00017981183
0.00018971354
0.00019931422
0.00020857617
0.00021728575
0.000225515
0.00023349936
0.000241234
0.00024854826
0.00025542757
0.0002620059
0.00026840059
0.00027453865
0.00028031677
0.00028574388
0.00029088695
0.00029583892
0.00030059867
0.00030507072
0.00030922231
0.00031308123
0.00031669616
0.00032012322
0.00032335192
0.00032631174
0.00032897388
0.00033135373
0.00033347926
0.00033538965
0.0003370966
0.0003385599
0.00033974433
0.00034064543
0.00034127758
0.00034166176
0.00034181911
0.00034173476
0.00034137664
0.00034073673
0.00033982341
0.00033864928
0.00033722716
0.00033555193
0.0003335997
0.00033135929
0.00032883402
0.00032603446
0.00032296984
0.00031963304
0.00031600935
0.00031209319
0.00030788306
0.00030337618
0.0002985678
0.00029345263
0.00028802453
0.00028227607
0.00027619858
0.00026978224
0.00026301555
0.00025588405
0.00024836906
0.00024044608
0.00023208354
0.00022323699
0.00021384769
0.00020379874
0.00019295365
0.00018052763
0.00016737235
0.00015574304
0.00014570119
0.00013633788
0.00012729519
0.00011850763
0.00010994921
0.00010159295
9.3423486e-05
8.5437383e-05
7.7637011e-05
7.0028179e-05
6.2620825e-05
5.5431504e-05
4.8483325e-05
4.1818415e-05
3.5476196e-05
2.9613187e-05
2.4160197e-05
2.0250753e-05
1.5424979e-05
3.0714966e-05
-2.6429111e-05
0.00154672
0.001562754
0.0015958244
0.0016379334
0.001689407
0.0017500925
0.0018196564
0.0018980694
0.0019856245
0.0020828811
0.0021906674
0.0023101465
0.0024429096
0.0025911895
0.0027580234
0.0029480371
0.0031673078
0.0034274251
0.0037406282
0.0041479059
0.0046649789
0.0055284793
0.0065804906
0.01172097
0.0078212325
0.0010946617
-3.4946801e-05
-8.1789228e-05
-4.3455911e-05
-1.3075864e-05
-4.7277158e-06
9.3278282e-06
2.7549885e-05
4.336477e-05
5.6610527e-05
6.9668477e-05
8.2894183e-05
9.610976e-05
0.00010920122
0.00012201635
0.00013468083
0.00014668427
0.00015815553
0.00016930746
0.00017982035
0.00018972127
0.00019932125
0.00020858258
0.00021729161
0.00022552037
0.00023350431
0.00024123855
0.00024855247
0.00025543147
0.00026200952
0.00026840396
0.00027454179
0.00028031971
0.00028574663
0.00029088954
0.00029584135
0.00030060096
0.00030507288
0.00030922436
0.00031308317
0.000316698
0.00032012498
0.00032335359
0.00032631333
0.0003289754
0.00033135519
0.00033348066
0.00033539099
0.00033709789
0.00033856113
0.00033974552
0.00034064657
0.00034127869
0.00034166283
0.00034182014
0.00034173575
0.00034137759
0.00034073766
0.00033982431
0.00033865015
0.000337228
0.00033555274
0.00033360048
0.00033136005
0.00032883475
0.00032603517
0.00032297053
0.00031963371
0.00031600999
0.00031209381
0.00030788366
0.00030337675
0.00029856836
0.00029345317
0.00028802505
0.00028227656
0.00027619905
0.0002697827
0.00026301599
0.00025588447
0.00024836946
0.00024044646
0.00023208391
0.00022323734
0.00021384802
0.00020379905
0.00019295395
0.00018052792
0.00016737262
0.00015574328
0.00014570142
0.00013633808
0.00012729537
0.00011850779
0.00010994937
0.00010159309
9.3423615e-05
8.5437501e-05
7.7637119e-05
7.0028279e-05
6.2620917e-05
5.5431589e-05
4.8483404e-05
4.1818488e-05
3.5476263e-05
2.9613251e-05
2.4160256e-05
2.0250808e-05
1.5425031e-05
3.0715024e-05
-2.6429074e-05
0.00154672
0.001562754
0.0015958244
0.0016379334
0.001689407
0.0017500925
0.0018196564
0.0018980694
0.0019856245
0.0020828811
0.0021906674
0.0023101465
0.0024429096
0.0025911896
0.0027580235
0.0029480371
0.0031673078
0.0034274251
0.0037406283
0.004147906
0.004664979
0.0055284794
0.0065804912
0.011718378
0.0078267552
0.0010963616
-3.4573816e-05
-8.1620307e-05
-4.3335435e-05
-1.2982925e-05
-4.6553309e-06
9.3854098e-06
2.7596719e-05
4.3403583e-05
5.664319e-05
6.9696312e-05
8.2918151e-05
9.6130585e-05
0.00010921945
0.00012203243
0.00013469508
0.00014669697
0.00015816691
0.00016931769
0.00017982958
0.00018972963
0.00019932884
0.0002085895
0.00021729794
0.00022552618
0.00023350964
0.00024124347
0.00024855701
0.00025543568
0.00026201343
0.0002684076
0.00027454518
0.00028032288
0.0002857496
0.00029089233
0.00029584397
0.00030060343
0.00030507522
0.00030922657
0.00031308527
0.0003167
0.00032012687
0.0003233554
0.00032631506
0.00032897705
0.00033135677
0.00033348217
0.00033539244
0.00033709928
0.00033856247
0.0003397468
0.00034064781
0.00034127988
0.00034166398
0.00034182125
0.00034173683
0.00034137863
0.00034073866
0.00033982528
0.00033865109
0.0003372289
0.00033555361
0.00033360133
0.00033136087
0.00032883554
0.00032603594
0.00032297127
0.00031963442
0.00031601068
0.00031209447
0.0003078843
0.00030337738
0.00029856896
0.00029345374
0.00028802561
0.0002822771
0.00027619957
0.0002697832
0.00026301646
0.00025588493
0.0002483699
0.00024044688
0.00023208431
0.00022323772
0.00021384838
0.00020379939
0.00019295427
0.00018052822
0.0001673729
0.00015574354
0.00014570165
0.00013633829
0.00012729557
0.00011850797
0.00010994953
0.00010159324
9.3423751e-05
8.5437625e-05
7.7637234e-05
7.0028385e-05
6.2621014e-05
5.5431679e-05
4.8483487e-05
4.1818566e-05
3.5476335e-05
2.9613318e-05
2.4160318e-05
2.0250867e-05
1.5425084e-05
3.0715086e-05
-2.6429036e-05
0.00154672
0.001562754
0.0015958244
0.0016379334
0.001689407
0.0017500925
0.0018196564
0.0018980694
0.0019856245
0.0020828811
0.0021906674
0.0023101465
0.0024429096
0.0025911896
0.0027580235
0.0029480372
0.0031673079
0.0034274252
0.0037406284
0.0041479061
0.0046649791
0.0055284794
0.0065804921
0.011716126
0.0078337806
0.001098738
-3.410278e-05
-8.1423266e-05
-4.319722e-05
-1.2876222e-05
-4.5722513e-06
9.451294e-06
2.76501e-05
4.3447662e-05
5.6680166e-05
6.9727731e-05
8.2945136e-05
9.6153975e-05
0.00010923989
0.0001220504
0.00013471099
0.00014671113
0.00015817956
0.00016932905
0.00017983983
0.0001897389
0.00019933726
0.00020859717
0.00021730495
0.0002255326
0.00023351554
0.00024124891
0.00024856204
0.00025544034
0.00026201774
0.00026841162
0.00027454893
0.00028032639
0.00028575289
0.00029089541
0.00029584688
0.00030060617
0.00030507781
0.00030922902
0.0003130876
0.00031670221
0.00032012898
0.0003233574
0.00032631697
0.00032897888
0.00033135852
0.00033348385
0.00033539405
0.00033710083
0.00033856396
0.00033974824
0.0003406492
0.00034128122
0.00034166527
0.00034182249
0.00034173803
0.00034137979
0.00034073978
0.00033982636
0.00033865213
0.00033722991
0.00033555459
0.00033360228
0.00033136178
0.00032883643
0.00032603679
0.00032297209
0.00031963522
0.00031601145
0.00031209522
0.00030788502
0.00030337807
0.00029856963
0.00029345439
0.00028802623
0.0002822777
0.00027620014
0.00026978375
0.00026301699
0.00025588543
0.00024837038
0.00024044734
0.00023208475
0.00022323813
0.00021384878
0.00020379977
0.00019295463
0.00018052856
0.00016737321
0.00015574383
0.00014570191
0.00013633853
0.00012729578
0.00011850817
0.0001099497
0.0001015934
9.3423897e-05
8.5437759e-05
7.7637357e-05
7.0028498e-05
6.2621119e-05
5.5431776e-05
4.8483577e-05
4.1818649e-05
3.5476412e-05
2.9613389e-05
2.4160385e-05
2.025093e-05
1.542514e-05
3.0715152e-05
-2.6428996e-05
0.00154672
0.001562754
0.0015958244
0.0016379334
0.001689407
0.0017500925
0.0018196564
0.0018980694
0.0019856245
0.0020828811
0.0021906674
0.0023101465
0.0024429096
0.0025911896
0.0027580235
0.0029480372
0.0031673079
0.0034274252
0.0037406284
0.0041479061
0.0046649792
0.0055284792
0.0065804932
0.011714007
0.0078411226
0.0011016086
-3.3534873e-05
-8.1198878e-05
-4.3043681e-05
-1.2757411e-05
-4.4796001e-06
9.5246596e-06
2.7709394e-05
4.3496499e-05
5.6721038e-05
6.9762387e-05
8.2974841e-05
9.6179675e-05
0.0001092623
0.00012207009
0.00013472839
0.00014672659
0.00015819337
0.00016934144
0.00017985099
0.00018974899
0.00019934642
0.00020860551
0.00021731256
0.00022553957
0.00023352195
0.00024125481
0.00024856749
0.00025544538
0.00026202243
0.00026841598
0.000274553
0.00028033019
0.00028575646
0.00029089877
0.00029585004
0.00030060916
0.00030508063
0.00030923169
0.00031309013
0.00031670462
0.00032013127
0.00032335959
0.00032631906
0.00032898088
0.00033136044
0.00033348569
0.00033539582
0.00033710253
0.0003385656
0.00033974981
0.00034065071
0.00034128268
0.00034166668
0.00034182386
0.00034173934
0.00034138107
0.00034074101
0.00033982755
0.00033865329
0.00033723103
0.00033555567
0.00033360332
0.00033136279
0.00032883741
0.00032603774
0.00032297301
0.0003196361
0.0003160123
0.00031209604
0.00030788582
0.00030337883
0.00029857036
0.0002934551
0.00028802691
0.00028227835
0.00027620077
0.00026978435
0.00026301757
0.00025588599
0.00024837091
0.00024044784
0.00023208523
0.00022323859
0.00021384921
0.00020380018
0.00019295501
0.00018052892
0.00016737355
0.00015574413
0.00014570219
0.00013633877
0.000127296
0.00011850837
0.00010994989
0.00010159357
9.3424051e-05
8.5437901e-05
7.7637487e-05
7.0028617e-05
6.2621229e-05
5.5431878e-05
4.848367e-05
4.1818736e-05
3.5476493e-05
2.9613465e-05
2.4160455e-05
2.0250996e-05
1.5425199e-05
3.0715221e-05
-2.6428953e-05
0.00154672
0.001562754
0.0015958244
0.0016379334
0.001689407
0.0017500925
0.0018196564
0.0018980694
0.0019856245
0.0020828811
0.0021906674
0.0023101465
0.0024429096
0.0025911896
0.0027580235
0.0029480372
0.0031673079
0.0034274252
0.0037406284
0.0041479062
0.0046649792
0.0055284788
0.0065804947
0.01171191
0.0078480766
0.0011046833
-3.28768e-05
-8.0951748e-05
-4.2879384e-05
-1.2630056e-05
-4.3800664e-06
9.6034003e-06
2.7772899e-05
4.3548691e-05
5.6764631e-05
6.9799282e-05
8.3006411e-05
9.6206945e-05
0.00010928605
0.00012209093
0.00013474678
0.00014674292
0.00015820794
0.0001693545
0.00017986274
0.00018975961
0.00019935605
0.00020861427
0.00021732056
0.0002255469
0.00023352868
0.00024126101
0.00024857322
0.00025545069
0.00026202736
0.00026842057
0.00027455729
0.0002803342
0.00028576022
0.0002909023
0.00029585337
0.0003006123
0.0003050836
0.00030923451
0.00031309281
0.00031670716
0.0003201337
0.00032336191
0.00032632128
0.000328983
0.00033136247
0.00033348764
0.0003353977
0.00033710434
0.00033856733
0.00033975149
0.00034065233
0.00034128424
0.00034166819
0.00034182531
0.00034174075
0.00034138242
0.00034074233
0.00033982882
0.00033865452
0.00033723222
0.00033555682
0.00033360444
0.00033136387
0.00032883845
0.00032603875
0.00032297398
0.00031963705
0.00031601321
0.00031209692
0.00030788666
0.00030337965
0.00029857115
0.00029345586
0.00028802764
0.00028227905
0.00027620144
0.00026978499
0.00026301818
0.00025588657
0.00024837147
0.00024044838
0.00023208574
0.00022323908
0.00021384967
0.00020380062
0.00019295543
0.00018052931
0.0001673739
0.00015574445
0.00014570247
0.00013633903
0.00012729624
0.00011850858
0.00010995008
0.00010159374
9.3424209e-05
8.5438046e-05
7.7637619e-05
7.0028739e-05
6.2621341e-05
5.5431981e-05
4.8483766e-05
4.1818824e-05
3.5476576e-05
2.9613541e-05
2.4160526e-05
2.0251064e-05
1.542526e-05
3.0715291e-05
-2.642891e-05
0.00154672
0.001562754
0.0015958244
0.0016379334
0.001689407
0.0017500925
0.0018196564
0.0018980694
0.0019856245
0.0020828811
0.0021906675
0.0023101465
0.0024429096
0.0025911896
0.0027580235
0.0029480372
0.003167308
0.0034274253
0.0037406285
0.0041479062
0.0046649792
0.0055284784
0.0065804966
0.011709745
0.0078546023
0.0011081143
-3.2122097e-05
-8.0681743e-05
-4.2705836e-05
-1.2495522e-05
-4.274692e-06
9.6866751e-06
2.7839908e-05
4.3603634e-05
5.6810425e-05
6.9837965e-05
8.3039453e-05
9.623544e-05
0.00010931083
0.00012211263
0.00013476592
0.00014675989
0.00015822307
0.00016936804
0.00017987492
0.00018977061
0.00019936602
0.00020862334
0.00021732884
0.00022555448
0.00023353564
0.00024126743
0.00024857914
0.00025545618
0.00026203246
0.00026842532
0.00027456172
0.00028033835
0.00028576411
0.00029090596
0.00029585682
0.00030061556
0.00030508669
0.00030923744
0.00031309559
0.00031670981
0.00032013623
0.00032336433
0.00032632359
0.00032898522
0.0003313646
0.00033348968
0.00033539966
0.00033710622
0.00033856915
0.00033975324
0.00034065402
0.00034128587
0.00034166976
0.00034182684
0.00034174223
0.00034138385
0.00034074371
0.00033983016
0.00033865581
0.00033723347
0.00033555803
0.00033360561
0.000331365
0.00032883954
0.0003260398
0.000322975
0.00031963804
0.00031601417
0.00031209784
0.00030788755
0.00030338051
0.00029857197
0.00029345665
0.0002880284
0.00028227978
0.00027620214
0.00026978567
0.00026301883
0.00025588719
0.00024837206
0.00024044894
0.00023208627
0.00022323958
0.00021385015
0.00020380107
0.00019295585
0.00018052971
0.00016737427
0.00015574477
0.00014570276
0.00013633929
0.00012729647
0.00011850879
0.00010995027
0.00010159392
9.3424369e-05
8.5438191e-05
7.7637753e-05
7.0028862e-05
6.2621454e-05
5.5432085e-05
4.8483862e-05
4.1818914e-05
3.5476658e-05
2.9613618e-05
2.4160597e-05
2.0251131e-05
1.542532e-05
3.0715362e-05
-2.6428867e-05
0.00154672
0.0015627541
0.0015958244
0.0016379334
0.001689407
0.0017500925
0.0018196564
0.0018980694
0.0019856245
0.0020828811
0.0021906675
0.0023101465
0.0024429097
0.0025911896
0.0027580236
0.0029480373
0.003167308
0.0034274253
0.0037406285
0.0041479062
0.0046649792
0.0055284778
0.006580499
0.011707427
0.0078607628
0.0011123745
-3.1252783e-05
-8.0384233e-05
-4.2521979e-05
-1.2353213e-05
-4.1629758e-06
9.7748752e-06
2.7910716e-05
4.3661552e-05
5.6858591e-05
6.987857e-05
8.3074073e-05
9.6265246e-05
0.00010933671
0.00012213528
0.00013478586
0.00014677755
0.00015823879
0.00016938212
0.00017988757
0.00018978202
0.00019937636
0.00020863275
0.00021733742
0.00022556234
0.00023354286
0.00024127407
0.00024858528
0.00025546187
0.00026203774
0.00026843024
0.00027456632
0.00028034266
0.00028576815
0.00029090976
0.0002958604
0.00030061895
0.0003050899
0.00030924048
0.00031309849
0.00031671257
0.00032013886
0.00032336684
0.000326326
0.00032898752
0.00033136681
0.00033349181
0.0003354017
0.0003371082
0.00033857105
0.00033975508
0.00034065579
0.00034128758
0.00034167142
0.00034182843
0.00034174377
0.00034138535
0.00034074515
0.00033983156
0.00033865716
0.00033723478
0.0003355593
0.00033360684
0.00033136619
0.00032884069
0.00032604092
0.00032297608
0.00031963907
0.00031601517
0.00031209881
0.00030788848
0.0003033814
0.00029857284
0.00029345748
0.0002880292
0.00028228055
0.00027620288
0.00026978637
0.0002630195
0.00025588783
0.00024837267
0.00024044952
0.00023208683
0.00022324011
0.00021385065
0.00020380154
0.0001929563
0.00018053012
0.00016737464
0.00015574511
0.00014570306
0.00013633956
0.00012729671
0.000118509
0.00010995047
0.00010159409
9.3424529e-05
8.5438338e-05
7.7637887e-05
7.0028985e-05
6.2621567e-05
5.543219e-05
4.8483959e-05
4.1819003e-05
3.5476741e-05
2.9613695e-05
2.4160669e-05
2.0251199e-05
1.542538e-05
3.0715432e-05
-2.6428823e-05
0.00154672
0.0015627541
0.0015958244
0.0016379335
0.001689407
0.0017500925
0.0018196564
0.0018980694
0.0019856245
0.0020828811
0.0021906675
0.0023101465
0.0024429097
0.0025911897
0.0027580236
0.0029480373
0.0031673081
0.0034274254
0.0037406286
0.0041479062
0.0046649791
0.0055284771
0.0065805022
0.011704861
0.0078665217
0.0011175505
-3.0243028e-05
-8.0051304e-05
-4.2325387e-05
-1.2201586e-05
-4.0436466e-06
9.8690232e-06
2.7986136e-05
4.3723098e-05
5.6909666e-05
6.9921546e-05
8.3110651e-05
9.6296688e-05
0.00010936398
0.0001221591
0.00013480681
0.00014679609
0.00015825529
0.00016939686
0.00017990081
0.00018979397
0.00019938718
0.00020864258
0.00021734639
0.00022557054
0.00023355039
0.00024128101
0.0002485917
0.00025546781
0.00026204326
0.00026843539
0.00027457112
0.00028034716
0.00028577238
0.00029091374
0.00029586416
0.0003006225
0.00030509326
0.00030924368
0.00031310152
0.00031671547
0.00032014162
0.00032336948
0.00032632853
0.00032898995
0.00033136914
0.00033349405
0.00033540386
0.00033711027
0.00033857306
0.00033975701
0.00034065766
0.00034128939
0.00034167316
0.00034183012
0.0003417454
0.00034138692
0.00034074668
0.00033983304
0.0003386586
0.00033723617
0.00033556064
0.00033360813
0.00033136745
0.00032884191
0.00032604209
0.00032297721
0.00031964017
0.00031601623
0.00031209983
0.00030788946
0.00030338235
0.00029857375
0.00029345836
0.00028803004
0.00028228136
0.00027620365
0.00026978711
0.00026302021
0.00025588851
0.00024837331
0.00024045014
0.00023208741
0.00022324066
0.00021385117
0.00020380203
0.00019295676
0.00018053055
0.00016737503
0.00015574545
0.00014570336
0.00013633983
0.00012729695
0.00011850922
0.00010995066
0.00010159427
9.3424692e-05
8.5438487e-05
7.7638023e-05
7.002911e-05
6.2621682e-05
5.5432296e-05
4.8484057e-05
4.1819093e-05
3.5476825e-05
2.9613773e-05
2.4160741e-05
2.0251267e-05
1.5425442e-05
3.0715504e-05
-2.6428779e-05
0.00154672
0.0015627541
0.0015958244
0.0016379335
0.001689407
0.0017500925
0.0018196564
0.0018980694
0.0019856245
0.0020828811
0.0021906675
0.0023101466
0.0024429097
0.0025911897
0.0027580236
0.0029480374
0.0031673081
0.0034274255
0.0037406286
0.0041479061
0.004664979
0.005528476
0.0065805062
0.011701932
0.0078712544
0.0011235525
-2.9058796e-05
-7.9672e-05
-4.2112666e-05
-1.2038564e-05
-3.9149941e-06
9.9705066e-06
2.8067282e-05
4.3789176e-05
5.6964396e-05
6.9967517e-05
8.3149717e-05
9.6330221e-05
0.00010939301
0.00012218444
0.00013482908
0.00014681578
0.00015827279
0.0001694125
0.00017991485
0.00018980662
0.00019939863
0.00020865299
0.00021735588
0.00022557923
0.00023355837
0.00024128835
0.00024859848
0.0002554741
0.00026204911
0.00026844083
0.00027457621
0.00028035192
0.00028577685
0.00029091795
0.00029586813
0.00030062626
0.00030509682
0.00030924706
0.00031310474
0.00031671854
0.00032014455
0.00032337229
0.00032633122
0.00032899253
0.00033137162
0.00033349643
0.00033540615
0.00033711248
0.00033857519
0.00033975907
0.00034065964
0.00034129131
0.00034167502
0.00034183192
0.00034174714
0.00034138861
0.00034074831
0.00033983461
0.00033866012
0.00033723764
0.00033556207
0.00033360952
0.00033136878
0.0003288432
0.00032604334
0.00032297842
0.00031964133
0.00031601735
0.00031210091
0.00030789051
0.00030338336
0.00029857472
0.00029345929
0.00028803093
0.00028228221
0.00027620447
0.0002697879
0.00026302096
0.00025588922
0.000248374
0.00024045078
0.00023208802
0.00022324124
0.00021385173
0.00020380255
0.00019295725
0.00018053101
0.00016737543
0.00015574581
0.00014570368
0.00013634011
0.0001272972
0.00011850945
0.00010995087
0.00010159446
9.342486e-05
8.543864e-05
7.7638164e-05
7.0029239e-05
6.2621801e-05
5.5432405e-05
4.8484158e-05
4.1819187e-05
3.5476911e-05
2.9613853e-05
2.4160816e-05
2.0251338e-05
1.5425505e-05
3.0715577e-05
-2.6428734e-05
0.00154672
0.0015627541
0.0015958244
0.0016379335
0.001689407
0.0017500925
0.0018196564
0.0018980694
0.0019856246
0.0020828811
0.0021906675
0.0023101466
0.0024429097
0.0025911897
0.0027580237
0.0029480374
0.0031673082
0.0034274255
0.0037406286
0.004147906
0.0046649788
0.0055284746
0.0065805113
0.011698512
0.0078740747
0.0011304682
-2.7656329e-05
-7.9231668e-05
-4.1879358e-05
-1.1861573e-05
-3.7749171e-06
1.0081037e-05
2.8155532e-05
4.3860904e-05
5.7023702e-05
7.0017258e-05
8.3191929e-05
9.636641e-05
0.00010942432
0.00012221173
0.00013485304
0.00014683694
0.00015829159
0.00016942929
0.00017992991
0.0001898202
0.00019941092
0.00020866415
0.00021736605
0.00022558854
0.00023356691
0.00024129623
0.00024860575
0.00025548083
0.00026205537
0.00026844667
0.00027458167
0.00028035703
0.00028578165
0.00029092248
0.0002958724
0.00030063029
0.00030510065
0.0003092507
0.00031310821
0.00031672184
0.00032014771
0.00032337531
0.00032633411
0.0003289953
0.00033137428
0.000333499
0.00033540862
0.00033711486
0.00033857748
0.00033976128
0.00034066178
0.00034129337
0.00034167702
0.00034183385
0.00034174901
0.00034139042
0.00034075006
0.00033983631
0.00033866176
0.00033723923
0.00033556361
0.000333611
0.00033137022
0.00032884459
0.00032604468
0.00032297972
0.00031964259
0.00031601856
0.00031210208
0.00030789163
0.00030338444
0.00029857575
0.00029346028
0.00028803189
0.00028228313
0.00027620535
0.00026978874
0.00026302176
0.00025588999
0.00024837473
0.00024045148
0.00023208868
0.00022324187
0.00021385231
0.00020380311
0.00019295778
0.00018053149
0.00016737586
0.00015574618
0.00014570401
0.0001363404
0.00012729746
0.00011850968
0.00010995108
0.00010159465
9.3425036e-05
8.54388e-05
7.763831e-05
7.0029373e-05
6.2621924e-05
5.5432519e-05
4.8484263e-05
4.1819284e-05
3.5477002e-05
2.9613937e-05
2.4160894e-05
2.0251412e-05
1.5425571e-05
3.0715654e-05
-2.6428687e-05
0.00154672
0.0015627541
0.0015958244
0.0016379335
0.0016894071
0.0017500926
0.0018196564
0.0018980694
0.0019856246
0.0020828812
0.0021906675
0.0023101466
0.0024429098
0.0025911898
0.0027580237
0.0029480375
0.0031673082
0.0034274256
0.0037406286
0.0041479059
0.0046649785
0.0055284727
0.0065805178
0.011694455
0.0078751532
0.0011384283
-2.5983726e-05
-7.8710824e-05
-4.1619615e-05
-1.1667467e-05
-3.6208877e-06
1.0202678e-05
2.8252549e-05
4.3939634e-05
5.7088701e-05
7.0071701e-05
8.3238079e-05
9.6405935e-05
0.00010945848
0.00012224149
0.00013487915
0.00014685999
0.00015831206
0.00016944756
0.0001799463
0.00018983496
0.00019942427
0.00020867627
0.00021737711
0.00022559865
0.0002335762
0.00024130478
0.00024861365
0.00025548815
0.00026206217
0.00026845301
0.00027458759
0.00028036259
0.00028578687
0.00029092739
0.00029587704
0.00030063468
0.00030510481
0.00030925465
0.00031311197
0.00031672543
0.00032015114
0.00032337859
0.00032633725
0.00032899832
0.00033137718
0.00033350178
0.00033541131
0.00033711745
0.00033857998
0.00033976369
0.00034066411
0.00034129562
0.00034167919
0.00034183595
0.00034175104
0.00034139239
0.00034075197
0.00033983815
0.00033866355
0.00033724096
0.00033556528
0.00033361262
0.00033137178
0.0003288461
0.00032604614
0.00032298113
0.00031964395
0.00031601987
0.00031210334
0.00030789285
0.00030338561
0.00029857688
0.00029346137
0.00028803293
0.00028228413
0.0002762063
0.00026978965
0.00026302263
0.00025589082
0.00024837551
0.00024045222
0.00023208939
0.00022324254
0.00021385295
0.0002038037
0.00019295834
0.00018053201
0.00016737632
0.00015574658
0.00014570436
0.00013634071
0.00012729774
0.00011850994
0.00010995131
0.00010159486
9.3425223e-05
8.5438971e-05
7.7638466e-05
7.0029516e-05
6.2622056e-05
5.543264e-05
4.8484375e-05
4.1819388e-05
3.5477098e-05
2.9614027e-05
2.4160977e-05
2.025149e-05
1.5425641e-05
3.0715736e-05
-2.6428636e-05
0.00154672
0.0015627541
0.0015958244
0.0016379335
0.0016894071
0.0017500926
0.0018196564
0.0018980695
0.0019856246
0.0020828812
0.0021906676
0.0023101467
0.0024429098
0.0025911898
0.0027580238
0.0029480376
0.0031673083
0.0034274256
0.0037406286
0.0041479055
0.0046649779
0.0055284699
0.006580526
0.011689591
0.0078752513
0.0011475567
-2.3979749e-05
-7.808374e-05
-4.1325695e-05
-1.1452388e-05
-3.4498803e-06
1.0337897e-05
2.8360324e-05
4.4026981e-05
5.7160722e-05
7.0131961e-05
8.3289111e-05
9.6449605e-05
0.00010949619
0.00012227432
0.00013490794
0.0001468854
0.00015833461
0.00016946768
0.00017996434
0.00018985121
0.00019943897
0.00020868962
0.00021738928
0.00022560978
0.00023358641
0.00024131419
0.00024862235
0.00025549621
0.00026206966
0.00026845999
0.00027459411
0.0002803687
0.00028579261
0.0002909328
0.00029588214
0.00030063951
0.00030510939
0.000309259
0.00031311611
0.00031672937
0.00032015491
0.00032338219
0.00032634071
0.00032900164
0.00033138037
0.00033350485
0.00033541426
0.00033712029
0.00033858272
0.00033976634
0.00034066667
0.00034129809
0.00034168158
0.00034183826
0.00034175328
0.00034139455
0.00034075406
0.00033984018
0.00033866551
0.00033724285
0.00033556711
0.00033361439
0.0003313735
0.00032884776
0.00032604774
0.00032298267
0.00031964544
0.00031602131
0.00031210473
0.00030789418
0.00030338689
0.00029857811
0.00029346255
0.00028803406
0.00028228521
0.00027620734
0.00026979064
0.00026302358
0.00025589172
0.00024837637
0.00024045304
0.00023209016
0.00022324327
0.00021385364
0.00020380436
0.00019295895
0.00018053257
0.00016737682
0.00015574702
0.00014570474
0.00013634105
0.00012729804
0.00011851021
0.00010995155
0.00010159508
9.3425424e-05
8.5439155e-05
7.7638635e-05
7.0029671e-05
6.2622198e-05
5.5432771e-05
4.8484496e-05
4.18195e-05
3.5477202e-05
2.9614124e-05
2.4161067e-05
2.0251576e-05
1.5425718e-05
3.0715825e-05
-2.6428581e-05
0.00154672
0.0015627541
0.0015958244
0.0016379335
0.0016894071
0.0017500926
0.0018196564
0.0018980695
0.0019856246
0.0020828812
0.0021906676
0.0023101467
0.0024429099
0.0025911899
0.0027580239
0.0029480376
0.0031673084
0.0034274256
0.0037406285
0.004147905
0.004664977
0.0055284661
0.0065805364
0.011683714
0.0078746149
0.0011579785
-2.1572363e-05
-7.7316907e-05
-4.0987214e-05
-1.1211535e-05
-3.2582606e-06
1.0489652e-05
2.8481246e-05
4.412488e-05
5.7241356e-05
7.0199365e-05
8.3346149e-05
9.6498383e-05
0.00010953829
0.00012231096
0.00013494006
0.00014691373
0.00015835975
0.00016949011
0.00017998445
0.00018986931
0.00019945534
0.00020870449
0.00021740283
0.00022562217
0.00023359779
0.00024132466
0.00024863202
0.00025550518
0.00026207799
0.00026846776
0.00027460138
0.0002803755
0.000285799
0.00029093881
0.00029588782
0.00030064489
0.00030511448
0.00030926384
0.00031312071
0.00031673376
0.0003201591
0.00032338621
0.00032634455
0.00032900532
0.00033138391
0.00033350825
0.00033541753
0.00033712345
0.00033858576
0.00033976927
0.0003406695
0.00034130083
0.00034168423
0.00034184082
0.00034175576
0.00034139694
0.00034075638
0.00033984242
0.00033866768
0.00033724495
0.00033556914
0.00033361636
0.0003313754
0.00032884959
0.00032604951
0.00032298438
0.00031964708
0.0003160229
0.00031210626
0.00030789566
0.00030338831
0.00029857948
0.00029346386
0.00028803532
0.00028228641
0.00027620849
0.00026979174
0.00026302462
0.00025589272
0.00024837732
0.00024045394
0.00023209102
0.00022324408
0.0002138544
0.00020380507
0.00019295962
0.00018053319
0.00016737737
0.00015574749
0.00014570515
0.00013634142
0.00012729837
0.0001185105
0.00010995182
0.00010159532
9.3425645e-05
8.5439356e-05
7.763882e-05
7.0029841e-05
6.2622354e-05
5.5432915e-05
4.8484629e-05
4.1819624e-05
3.5477317e-05
2.9614231e-05
2.4161166e-05
2.025167e-05
1.5425802e-05
3.0715923e-05
-2.6428519e-05
0.00154672
0.0015627541
0.0015958244
0.0016379335
0.0016894071
0.0017500926
0.0018196564
0.0018980695
0.0019856246
0.0020828812
0.0021906676
0.0023101467
0.0024429099
0.0025911899
0.0027580239
0.0029480377
0.0031673084
0.0034274255
0.0037406282
0.0041479042
0.0046649756
0.0055284606
0.0065805494
0.011676577
0.0078732077
0.001169762
-1.8680779e-05
-7.6367112e-05
-4.0590104e-05
-1.0938808e-05
-3.041624e-06
1.06615e-05
2.8618183e-05
4.4235653e-05
5.7332509e-05
7.0275501e-05
8.3410536e-05
9.6553415e-05
0.00010958577
0.00012235226
0.00013497625
0.00014694565
0.00015838807
0.00016951537
0.00018000709
0.0001898897
0.00019947378
0.00020872123
0.00021741808
0.00022563613
0.0002336106
0.00024133646
0.00024864292
0.00025551527
0.00026208737
0.0002684765
0.00027460954
0.00028038316
0.00028580619
0.00029094558
0.00029589421
0.00030065092
0.00030512021
0.00030926928
0.00031312589
0.00031673869
0.00032016381
0.00032339071
0.00032634886
0.00032900946
0.00033138788
0.00033351207
0.0003354212
0.00033712699
0.00033858917
0.00033977256
0.00034067268
0.0003413039
0.00034168719
0.00034184369
0.00034175852
0.00034139962
0.00034075897
0.00033984492
0.0003386701
0.0003372473
0.00033557141
0.00033361855
0.00033137751
0.00032885164
0.00032605149
0.00032298628
0.00031964892
0.00031602467
0.00031210796
0.0003078973
0.00030338989