/*--------------------------------*- C++ -*----------------------------------*\
  =========                 |
  \\      /  F ield         | OpenFOAM: The Open Source CFD Toolbox
   \\    /   O peration     | Website:  https://openfoam.org
    \\  /    A nd           | Version:  12
     \\/     M anipulation  |
\*---------------------------------------------------------------------------*/
FoamFile
{
    format      ascii;
    class       surfaceScalarField;
    location    "200";
    object      phi;
}
// * * * * * * * * * * * * * * * * * * * * * * * * * * * * * * * * * * * * * //

dimensions      [0 3 -1 0 0 0 0];

internalField   nonuniform List<scalar> 
14782
(
0.0007865411
7.0808995e-06
-0.000793622
0.0007770272
9.5139029e-06
0.00076658005
1.0447155e-05
0.00075587325
1.0706795e-05
0.00074502508
1.084817e-05
0.00073413557
1.088951e-05
0.0007232835
1.0852072e-05
0.00071251393
1.0769567e-05
0.00070185388
1.0660054e-05
0.00069132753
1.0526349e-05
0.00068095475
1.0372779e-05
0.00067075294
1.020181e-05
0.00066074615
1.000679e-05
0.0006509553
9.7908497e-06
0.00064141254
9.5427627e-06
0.00063216057
9.2519724e-06
0.00062326129
8.8992812e-06
0.0006147839
8.4773827e-06
0.00060678717
7.9967302e-06
0.00059932163
7.4655406e-06
0.00059243156
6.8900697e-06
0.00058615152
6.2800376e-06
0.00058050557
5.6459559e-06
0.00057550256
5.0030056e-06
0.00057112516
4.3774019e-06
0.00056732371
3.8014555e-06
0.00056402415
3.2995596e-06
0.00056113376
2.8903852e-06
0.00055854855
2.5852109e-06
0.00055617151
2.3770435e-06
0.0005539249
2.2466078e-06
0.00055175606
2.1688345e-06
0.00054963321
2.1228531e-06
0.00054754073
2.0924762e-06
0.0005454703
2.0704386e-06
0.00054341235
2.0579467e-06
0.00054135674
2.0556139e-06
0.00053929388
2.0628555e-06
0.0005372183
2.0755794e-06
0.00053513195
2.0863525e-06
0.00053304209
2.0898558e-06
0.00053095714
2.084948e-06
0.0005288841
2.0730407e-06
0.00052682655
2.0575538e-06
0.00052478668
2.0398688e-06
0.00052276633
2.0203519e-06
0.00052076719
1.9991372e-06
0.00051879063
1.9765662e-06
0.00051683802
1.9526069e-06
0.00051491044
1.9275763e-06
0.00051300786
1.9025854e-06
0.00051112995
1.8779038e-06
0.0005092767
1.8532492e-06
0.00050744832
1.828385e-06
0.00050564442
1.8038965e-06
0.00050386433
1.7800888e-06
0.00050210767
1.7566672e-06
0.00050037415
1.7335195e-06
0.00049866305
1.7110998e-06
0.00049697385
1.689195e-06
0.00049530614
1.6677097e-06
0.00049365935
1.6467914e-06
0.0004920328
1.6265479e-06
0.00049042608
1.6067196e-06
0.00048883877
1.5873105e-06
0.00048727025
1.5685273e-06
0.0004857201
1.5501482e-06
0.0004841879
1.5322006e-06
0.00048267306
1.5148349e-06
0.00048117519
1.497869e-06
0.00047969382
1.4813765e-06
0.00047822842
1.4653944e-06
0.00047677862
1.4498052e-06
0.00047534388
1.4347337e-06
0.00047392378
1.4201012e-06
0.0004725179
1.4058813e-06
0.00047112574
1.3921588e-06
0.00046974691
1.3788365e-06
0.00046838095
1.365951e-06
0.00046702749
1.3534673e-06
0.00046568612
1.3413669e-06
0.00046435647
1.3296481e-06
0.00046303819
1.318279e-06
0.00046173092
1.3072695e-06
0.00046043433
1.2965955e-06
0.00045914804
1.2862908e-06
0.00045787165
1.2763899e-06
0.00045660468
1.266968e-06
0.00045534655
1.2581286e-06
0.00045409656
1.2499962e-06
0.00045285385
1.2427091e-06
0.00045161738
1.2364678e-06
0.00045038594
1.2314417e-06
0.00044915771
1.228226e-06
0.0004479313
1.2264078e-06
0.00044669953
1.2317775e-06
0.00044546364
1.2358887e-06
0.00044417479
1.2888469e-06
0.00044294843
1.2263601e-06
1.533485e-06
0.00082493995
6.8223718e-06
-0.00082468142
0.00082517183
9.2820271e-06
0.00082508881
1.0530175e-05
0.00082466962
1.1125979e-05
0.00082386118
1.1656617e-05
0.00082262331
1.2127379e-05
0.00082094981
1.2525573e-05
0.00081882923
1.2890142e-05
0.00081625821
1.3231074e-05
0.00081323465
1.3549914e-05
0.00080976065
1.3846777e-05
0.00080583589
1.4126564e-05
0.00080146643
1.4376255e-05
0.00079665167
1.4605611e-05
0.00079139431
1.4800119e-05
0.0007856918
1.4954484e-05
0.00077954898
1.5042105e-05
0.00077300487
1.5021489e-05
0.00076611627
1.4885336e-05
0.00075893889
1.4642916e-05
0.00075153947
1.4289493e-05
0.00074399971
1.3819791e-05
0.00073641187
1.32338e-05
0.00072887631
1.2538568e-05
0.00072150417
1.174954e-05
0.0007144186
1.088702e-05
0.00070774041
9.9777485e-06
0.00070155296
9.0778398e-06
0.0006958846
8.2535744e-06
0.00069071451
7.5471265e-06
0.00068598589
6.9752335e-06
0.00068162119
6.5335296e-06
0.00067753834
6.2057105e-06
0.0006736697
5.9611097e-06
0.00066996866
5.7714779e-06
0.00066640599
5.6206194e-06
0.00066296611
5.4954943e-06
0.00065963928
5.3896852e-06
0.00065641607
5.2987934e-06
0.00065328611
5.2163069e-06
0.00065023765
5.1383205e-06
0.00064725838
5.0642178e-06
0.00064433822
4.9931925e-06
0.00064147052
4.9252592e-06
0.00063865273
4.8576558e-06
0.00063588447
4.788616e-06
0.00063316513
4.7184749e-06
0.00063049295
4.6487423e-06
0.00062786605
4.5795144e-06
0.00062528313
4.5104929e-06
0.00062274309
4.4426308e-06
0.00062024498
4.3760137e-06
0.00061778799
4.3102369e-06
0.00061537138
4.244996e-06
0.00061299402
4.1812485e-06
0.0006106547
4.1194095e-06
0.00060835249
4.0588822e-06
0.00060608663
3.9993752e-06
0.00060385596
3.941777e-06
0.00060165933
3.8858206e-06
0.00059949589
3.8311491e-06
0.00059736475
3.777928e-06
0.00059526492
3.7263834e-06
0.00059319554
3.6760958e-06
0.00059115581
3.6270447e-06
0.00058914476
3.5795776e-06
0.00058716159
3.5333127e-06
0.00058520553
3.4882593e-06
0.00058327571
3.4446618e-06
0.00058137137
3.4022087e-06
0.00057949175
3.3609981e-06
0.00057763606
3.3210845e-06
0.0005758036
3.2822617e-06
0.00057399361
3.2447243e-06
0.00057220537
3.2083365e-06
0.00057043822
3.1730384e-06
0.00056869141
3.138964e-06
0.0005669643
3.1059504e-06
0.00056525621
3.0740413e-06
0.0005635665
3.0431701e-06
0.00056189458
3.0132938e-06
0.00056023983
2.9843962e-06
0.00055860169
2.9564146e-06
0.00055697961
2.9293521e-06
0.00055537305
2.9031605e-06
0.00055378145
2.8778904e-06
0.00055220423
2.8536075e-06
0.00055064074
2.8304539e-06
0.00054909022
2.8086476e-06
0.00054755179
2.7884266e-06
0.00054602434
2.7701619e-06
0.00054450673
2.7540827e-06
0.00054299701
2.7411551e-06
0.00054149424
2.7309982e-06
0.00053999321
2.7274421e-06
0.00053849496
2.7300193e-06
0.00053697694
2.7539145e-06
0.00053546769
2.7980973e-06
0.00053374387
2.9501795e-06
3.0467417e-06
0.00085272921
6.5317413e-06
-0.00085243858
0.00085315301
8.8582204e-06
0.00085352226
1.0160928e-05
0.00085381228
1.0835956e-05
0.00085406021
1.1408684e-05
0.00085425521
1.1932388e-05
0.00085440962
1.237116e-05
0.00085452302
1.2776745e-05
0.00085459595
1.3158143e-05
0.00085462252
1.3523341e-05
0.00085459726
1.3872035e-05
0.00085451118
1.4212641e-05
0.00085435408
1.4533356e-05
0.00085411174
1.4847959e-05
0.00085376562
1.5146233e-05
0.00085329256
1.5427547e-05
0.00085264935
1.5685317e-05
0.00085175943
1.5911401e-05
0.00085054148
1.6103289e-05
0.00084892304
1.6261355e-05
0.00084682797
1.6384565e-05
0.00084417534
1.6472417e-05
0.00084088409
1.6525049e-05
0.00083687906
1.6543601e-05
0.00083209952
1.6529084e-05
0.0008265048
1.6481736e-05
0.00082013145
1.6351098e-05
0.00081310691
1.6102383e-05
0.00080561271
1.5747776e-05
0.00079787943
1.5280408e-05
0.00079015171
1.4702953e-05
0.00078265402
1.4031219e-05
0.00077556729
1.329244e-05
0.00076900586
1.2522538e-05
0.00076299316
1.1784175e-05
0.00075747825
1.1135536e-05
0.00075237557
1.0598172e-05
0.00074759294
1.0172317e-05
0.00074305319
9.8385398e-06
0.00073870552
9.563981e-06
0.00073452134
9.3224921e-06
0.00073048493
9.1006318e-06
0.00072658564
8.8924884e-06
0.00072281268
8.6982164e-06
0.00071915474
8.515595e-06
0.00071560018
8.3431731e-06
0.00071213798
8.1806735e-06
0.00070875894
8.0277804e-06
0.00070545689
7.8815709e-06
0.00070222806
7.739319e-06
0.00069906919
7.6015002e-06
0.0006959768
7.4684022e-06
0.00069294745
7.3395899e-06
0.00068997825
7.2141976e-06
0.00068706664
7.0928572e-06
0.00068421034
6.9757154e-06
0.00068140737
6.8618431e-06
0.00067865599
6.7507581e-06
0.00067595419
6.6435811e-06
0.00067330014
6.5398685e-06
0.0006706923
6.4389877e-06
0.00066812914
6.3410868e-06
0.00066560907
6.2464531e-06
0.0006631307
6.154467e-06
0.00066069272
6.0650296e-06
0.00065829372
5.9785764e-06
0.00065593247
5.8945597e-06
0.00065360779
5.812936e-06
0.00065131845
5.7340043e-06
0.00064906334
5.6573228e-06
0.00064684135
5.5829849e-06
0.00064465139
5.5110416e-06
0.00064249246
5.4411954e-06
0.0006403635
5.3736822e-06
0.00063826353
5.3083061e-06
0.00063619161
5.2449639e-06
0.00063414675
5.1838199e-06
0.00063212805
5.1246497e-06
0.0006301346
5.0674908e-06
0.00062816553
5.0122426e-06
0.00062621999
4.9588318e-06
0.00062429717
4.9072199e-06
0.00062239627
4.8573093e-06
0.00062051654
4.8090866e-06
0.00061865722
4.7624745e-06
0.00061681759
4.7175279e-06
0.00061499686
4.6743346e-06
0.00061319422
4.6330926e-06
0.00061140874
4.5941315e-06
0.00060963937
4.5577967e-06
0.0006078848
4.524728e-06
0.00060614375
4.4951339e-06
0.00060441389
4.4710138e-06
0.00060269439
4.4505012e-06
0.00060097856
4.44327e-06
0.00059927
4.4385837e-06
0.00059753711
4.4868054e-06
0.00059583827
4.4969297e-06
0.00059380641
4.9820401e-06
4.6547919e-06
0.00088129775
6.3255584e-06
-0.00088109157
0.00088169586
8.4601084e-06
0.00088207859
9.7782049e-06
0.00088238545
1.0529094e-05
0.00088264926
1.1144878e-05
0.00088287443
1.1707215e-05
0.0008830692
1.2176386e-05
0.00088324183
1.2604115e-05
0.00088339775
1.3002221e-05
0.00088353886
1.3382236e-05
0.00088366727
1.3743621e-05
0.00088378584
1.4094078e-05
0.00088389287
1.4426327e-05
0.00088399049
1.475033e-05
0.0008840772
1.5059529e-05
0.00088415223
1.5352515e-05
0.00088421361
1.5623942e-05
0.00088425741
1.5867593e-05
0.00088427858
1.6082119e-05
0.0008842709
1.6269034e-05
0.00088422572
1.6429745e-05
0.00088413119
1.6566949e-05
0.00088397153
1.6684715e-05
0.00088372506
1.6790066e-05
0.00088335995
1.6894196e-05
0.00088282882
1.701287e-05
0.00088202676
1.715315e-05
0.00088080828
1.7320868e-05
0.0008790322
1.7523854e-05
0.00087655586
1.7756749e-05
0.00087325319
1.8005626e-05
0.00086903719
1.8247217e-05
0.00086387693
1.8452699e-05
0.00085785805
1.8541417e-05
0.00085119017
1.8452059e-05
0.00084413567
1.8190029e-05
0.00083697211
1.7761733e-05
0.00082995115
1.7193281e-05
0.00082326458
1.652511e-05
0.00081701432
1.5814243e-05
0.00081120537
1.5131438e-05
0.00080578094
1.4525066e-05
0.00080066233
1.4011091e-05
0.0007957793
1.3581246e-05
0.00079108595
1.3208951e-05
0.00078655799
1.2871128e-05
0.00078218294
1.2555728e-05
0.00077795126
1.2259461e-05
0.00077385289
1.1979941e-05
0.00076987683
1.1715375e-05
0.00076601181
1.1466523e-05
0.00076224796
1.1232248e-05
0.0007585778
1.1009751e-05
0.00075499594
1.0796059e-05
0.0007514977
1.05911e-05
0.0007480785
1.0394914e-05
0.00074473415
1.0206194e-05
0.00074146102
1.0023881e-05
0.00073825578
9.8488206e-06
0.00073511552
9.6801301e-06
0.0007320376
9.5169103e-06
0.00072901944
9.3592439e-06
0.00072605856
9.2073363e-06
0.00072315279
9.0602422e-06
0.00072030011
8.9177079e-06
0.00071749849
8.7801941e-06
0.00071474611
8.6469355e-06
0.00071204127
8.5177839e-06
0.00070938222
8.3930467e-06
0.00070676742
8.2721237e-06
0.00070419534
8.1550683e-06
0.00070166448
8.0418978e-06
0.00069917347
7.9322038e-06
0.00069672092
7.8262362e-06
0.0006943055
7.7237228e-06
0.00069192597
7.624501e-06
0.00068958104
7.5287471e-06
0.00068726952
7.4361679e-06
0.00068499023
7.3467829e-06
0.00068274202
7.2604506e-06
0.00068052379
7.1770605e-06
0.00067833447
7.0965437e-06
0.00067617302
7.0187616e-06
0.00067403843
6.9436752e-06
0.00067192973
6.8711713e-06
0.00066984596
6.8012981e-06
0.00066778614
6.7341536e-06
0.00066574925
6.6699794e-06
0.00066373418
6.6092078e-06
0.00066173969
6.5522841e-06
0.00065976429
6.5001332e-06
0.00065780649
6.4529269e-06
0.00065586369
6.4138182e-06
0.00065393494
6.3792452e-06
0.00065201272
6.3654914e-06
0.00065010167
6.3496343e-06
0.00064816495
6.4235289e-06
0.00064627949
6.3823875e-06
0.00064397999
7.2815393e-06
6.3884887e-06
0.00091087036
6.1579956e-06
-0.0009107028
0.00091121315
8.1173234e-06
0.00091156424
9.4271159e-06
0.00091186057
1.0232758e-05
0.00091212043
1.0885024e-05
0.00091235345
1.147419e-05
0.00091255757
1.1972265e-05
0.00091274259
1.2419099e-05
0.00091291137
1.2833436e-05
0.00091306704
1.3226565e-05
0.00091321135
1.3599311e-05
0.00091334637
1.3959063e-05
0.00091347163
1.4301068e-05
0.00091358977
1.4632193e-05
0.0009137009
1.4948394e-05
0.00091380586
1.5247558e-05
0.00091390435
1.5525452e-05
0.00091399514
1.5776802e-05
0.0009140772
1.600006e-05
0.00091414976
1.6196473e-05
0.00091421165
1.6367855e-05
0.00091426127
1.6517322e-05
0.00091429678
1.6649207e-05
0.00091431627
1.6770574e-05
0.00091431796
1.6892507e-05
0.00091430065
1.7030178e-05
0.00091426082
1.7192984e-05
0.00091419206
1.738963e-05
0.00091408505
1.763086e-05
0.00091392444
1.7917364e-05
0.00091368643
1.8243629e-05
0.0009133322
1.8601449e-05
0.00091279884
1.8986061e-05
0.00091195512
1.9385138e-05
0.00091061976
1.9787417e-05
0.00090862166
2.0188132e-05
0.00090581006
2.0573334e-05
0.00090207893
2.0924412e-05
0.00089740535
2.1198687e-05
0.00089190326
2.1316334e-05
0.00088580123
2.1233461e-05
0.00087937049
2.0955809e-05
0.0008728795
2.0502084e-05
0.00086654836
1.9912382e-05
0.00086050799
1.9249319e-05
0.00085479176
1.8587361e-05
0.00084936987
1.7977623e-05
0.0008441885
1.7440825e-05
0.00083920123
1.6967214e-05
0.00083438
1.6536606e-05
0.0008297107
1.6135824e-05
0.0008251851
1.5757846e-05
0.00082079524
1.5399608e-05
0.00081653196
1.5059346e-05
0.00081238537
1.4737682e-05
0.00080834655
1.443374e-05
0.00080440848
1.414426e-05
0.00080056575
1.3866616e-05
0.00079681333
1.360124e-05
0.00079314655
1.3346903e-05
0.00078956115
1.310231e-05
0.00078605323
1.2867171e-05
0.00078261919
1.2641369e-05
0.00077925591
1.2423531e-05
0.00077596042
1.221319e-05
0.00077272988
1.2010735e-05
0.00076956173
1.1815085e-05
0.0007664536
1.162592e-05
0.00076340314
1.1443501e-05
0.00076040824
1.1267022e-05
0.00075746687
1.1096446e-05
0.00075457704
1.093172e-05
0.00075173696
1.0772291e-05
0.0007489448
1.0618392e-05
0.00074619887
1.0469648e-05
0.00074349756
1.0325816e-05
0.00074083924
1.0187063e-05
0.0007382224
1.0053011e-05
0.00073564553
9.9236487e-06
0.0007331072
9.7987837e-06
0.000730606
9.6782592e-06
0.00072814058
9.5619668e-06
0.00072570962
9.4497188e-06
0.00072331186
9.3414421e-06
0.00072094605
9.2369791e-06
0.00071861099
9.1363605e-06
0.00071630546
9.0396824e-06
0.00071402822
8.9472155e-06
0.00071177795
8.859483e-06
0.00070955321
8.777021e-06
0.0007073523
8.7010459e-06
0.00070517353
8.6316885e-06
0.00070301403
8.5733268e-06
0.00070087266
8.5206071e-06
0.00069874127
8.4968835e-06
0.00069662503
8.4658759e-06
0.00069448313
8.5654304e-06
0.00069240722
8.4582919e-06
0.00068985008
9.8386878e-06
8.2637333e-06
0.00094141985
6.0177761e-06
-0.00094127963
0.00094172027
7.816897e-06
0.00094204433
9.1030571e-06
0.00094233007
9.9470216e-06
0.0009425858
1.0629291e-05
0.00094281883
1.1241162e-05
0.00094302637
1.176472e-05
0.00094321541
1.2230061e-05
0.00094338864
1.2660212e-05
0.00094354906
1.306614e-05
0.00094369823
1.3450141e-05
0.00094383866
1.3818635e-05
0.00094397041
1.4169317e-05
0.0009440955
1.4507098e-05
0.00094421428
1.4829615e-05
0.00094432732
1.5134521e-05
0.00094443454
1.541823e-05
0.00094453518
1.5676166e-05
0.00094462842
1.5906817e-05
0.00094471351
1.6111387e-05
0.00094478975
1.6291612e-05
0.00094485672
1.645036e-05
0.00094491387
1.6592053e-05
0.00094496072
1.6723719e-05
0.00094499734
1.6855888e-05
0.00094502462
1.7002897e-05
0.00094504303
1.7174575e-05
0.00094505318
1.7379482e-05
0.00094505617
1.7627869e-05
0.00094505199
1.7921551e-05
0.00094503939
1.825622e-05
0.00094501569
1.8625156e-05
0.00094497717
1.9024579e-05
0.00094491593
1.9446376e-05
0.00094481787
1.9885482e-05
0.00094466302
2.0342984e-05
0.00094442147
2.0814875e-05
0.0009440475
2.1298388e-05
0.00094345616
2.1790024e-05
0.00094249483
2.2277663e-05
0.00094097791
2.2750383e-05
0.00093873528
2.3198438e-05
0.00093563287
2.3604495e-05
0.00093161638
2.3928871e-05
0.00092676972
2.4095975e-05
0.00092129515
2.406194e-05
0.0009154435
2.3829266e-05
0.0009094695
2.3414827e-05
0.00090357508
2.2861638e-05
0.00089787125
2.2240432e-05
0.00089238623
2.1620842e-05
0.0008871012
2.1042883e-05
0.000881986
2.0514799e-05
0.00087701926
2.0026085e-05
0.00087219044
1.956651e-05
0.00086749431
1.912987e-05
0.0008629259
1.8712662e-05
0.00085847864
1.831388e-05
0.00085414484
1.7935045e-05
0.0008499176
1.7574137e-05
0.0008457914
1.722851e-05
0.00084176147
1.6897104e-05
0.00083782325
1.6579591e-05
0.0008339725
1.6274276e-05
0.00083020532
1.5980372e-05
0.00082651802
1.5698037e-05
0.00082290731
1.5425789e-05
0.00081937013
1.5163107e-05
0.00081590347
1.4910158e-05
0.00081250463
1.466586e-05
0.00080917103
1.4430046e-05
0.0008059002
1.4202552e-05
0.00080268984
1.3982648e-05
0.00079953772
1.3770515e-05
0.00079644172
1.3565651e-05
0.00079339983
1.3367704e-05
0.00079041008
1.3176812e-05
0.0007874706
1.2992496e-05
0.00078457955
1.2814699e-05
0.00078173516
1.2643166e-05
0.00077893574
1.2477685e-05
0.0007761796
1.23181e-05
0.00077346516
1.2164164e-05
0.00077079084
1.2015763e-05
0.00076815513
1.1872688e-05
0.00076555655
1.173494e-05
0.00076299363
1.1602603e-05
0.00076046488
1.1475961e-05
0.00075796875
1.1355614e-05
0.00075550359
1.124218e-05
0.00075306747
1.1137167e-05
0.0007506585
1.1040664e-05
0.0007482735
1.0958322e-05
0.00074591116
1.0882952e-05
0.00074356274
1.0845303e-05
0.00074123373
1.0794887e-05
0.00073887984
1.0919315e-05
0.00073660591
1.0732221e-05
0.00073378952
1.265508e-05
1.0293067e-05
0.0009729716
5.9017652e-06
-0.00097285559
0.00097324023
7.5482667e-06
0.00097354341
8.7998748e-06
0.00097381992
9.6705124e-06
0.00097407147
1.0377745e-05
0.0009743036
1.1009029e-05
0.00097451356
1.1554758e-05
0.00097470572
1.2037901e-05
0.0009748829
1.248303e-05
0.00097504757
1.2901475e-05
0.00097520122
1.3296493e-05
0.00097534606
1.3673797e-05
0.00097548248
1.4032895e-05
0.00097561211
1.4377469e-05
0.00097573549
1.4706234e-05
0.00097585307
1.5016938e-05
0.00097596482
1.5306479e-05
0.00097607007
1.5570914e-05
0.00097616814
1.5808753e-05
0.00097625848
1.6021049e-05
0.00097634054
1.620955e-05
0.00097641384
1.6377054e-05
0.00097647797
1.6527927e-05
0.00097653264
1.6669044e-05
0.00097657803
1.6810497e-05
0.00097661531
1.6965619e-05
0.00097664563
1.7144257e-05
0.00097667026
1.7354853e-05
0.00097669113
1.7607001e-05
0.00097670958
1.7903097e-05
0.00097672625
1.8239551e-05
0.00097674107
1.8610338e-05
0.00097675385
1.9011802e-05
0.00097676333
1.9436892e-05
0.00097676764
1.9881167e-05
0.00097676473
2.0345899e-05
0.00097675117
2.0828439e-05
0.00097672253
2.1327027e-05
0.00097667233
2.184022e-05
0.00097658761
2.236238e-05
0.00097644729
2.2890701e-05
0.00097622057
2.3425165e-05
0.00097586077
2.396429e-05
0.00097528314
2.4506505e-05
0.00097433824
2.5040877e-05
0.00097284413
2.5556051e-05
0.00097063481
2.6038581e-05
0.0009675792
2.6470441e-05
0.00096365812
2.6782711e-05
0.00095899084
2.6907717e-05
0.00095377785
2.6833832e-05
0.00094826028
2.6560449e-05
0.0009426585
2.6116588e-05
0.00093711993
2.5564647e-05
0.00093171033
2.4976118e-05
0.00092644054
2.4399659e-05
0.00092130056
2.3852637e-05
0.00091628108
2.3333366e-05
0.00091137859
2.2837533e-05
0.00090659245
2.2360279e-05
0.00090192085
2.1900105e-05
0.00089735978
2.1458176e-05
0.00089290426
2.1035112e-05
0.00088854987
2.0628664e-05
0.00088429278
2.0237466e-05
0.0008801292
1.9861615e-05
0.00087605552
1.9499473e-05
0.00087206823
1.9150391e-05
0.00086816398
1.8814407e-05
0.00086433969
1.8490152e-05
0.00086059238
1.8177354e-05
0.0008569192
1.7875736e-05
0.00085331747
1.7584376e-05
0.00084978459
1.7303395e-05
0.00084631809
1.7032148e-05
0.00084291563
1.6770167e-05
0.00083957489
1.6517547e-05
0.00083629369
1.62737e-05
0.00083306988
1.6038513e-05
0.00082990137
1.5811667e-05
0.00082678617
1.5592888e-05
0.0008237223
1.5381967e-05
0.00082070787
1.5178594e-05
0.00081774103
1.4982609e-05
0.00081481997
1.4793746e-05
0.00081194294
1.4611972e-05
0.0008091082
1.4437346e-05
0.000806314
1.4270154e-05
0.00080355856
1.411106e-05
0.00080083999
1.3960749e-05
0.00079815614
1.3821021e-05
0.00079550487
1.3691926e-05
0.00079288278
1.3580421e-05
0.00079028827
1.3477461e-05
0.00078771212
1.3421453e-05
0.00078516
1.3347001e-05
0.00078258437
1.3494947e-05
0.00078010256
1.3214026e-05
0.00077701958
1.5738063e-05
1.2488058e-05
0.0010055858
5.8036663e-06
-0.0010054877
0.001005823
7.3110862e-06
0.0010061035
8.519368e-06
0.0010063687
9.4052855e-06
0.0010066148
1.0131695e-05
0.0010068451
1.0778674e-05
0.0010070565
1.1343409e-05
0.001007251
1.1843375e-05
0.0010074314
1.2302675e-05
0.0010075996
1.2733219e-05
0.0010077572
1.3138946e-05
0.0010079059
1.3525085e-05
0.0010080463
1.3892436e-05
0.0010081799
1.4243917e-05
0.0010083072
1.4578959e-05
0.0010084285
1.4895558e-05
0.001008544
1.5191019e-05
0.0010086529
1.5461973e-05
0.0010087547
1.5706994e-05
0.0010088488
1.5926985e-05
0.0010089346
1.6123679e-05
0.0010090119
1.6299831e-05
0.00100908
1.6459744e-05
0.001009139
1.6610091e-05
0.001009189
1.6760486e-05
0.0010092312
1.6923412e-05
0.0010092668
1.7108645e-05
0.0010092972
1.7324453e-05
0.0010093244
1.7579824e-05
0.00100935
1.7877504e-05
0.001009375
1.8214533e-05
0.0010093998
1.8585527e-05
0.0010094247
1.8986926e-05
0.0010094492
1.9412411e-05
0.0010094726
1.9857727e-05
0.0010094947
2.0323793e-05
0.0010095147
2.080844e-05
0.0010095318
2.1309973e-05
0.0010095449
2.1827117e-05
0.001009552
2.2355295e-05
0.0010095501
2.2892611e-05
0.0010095352
2.3440064e-05
0.0010095017
2.3997767e-05
0.0010094416
2.4566627e-05
0.001009339
2.5143473e-05
0.0010091682
2.5726786e-05
0.0010088906
2.631622e-05
0.0010084488
2.69122e-05
0.0010077262
2.7505293e-05
0.0010065525
2.8081449e-05
0.0010047579
2.8628419e-05
0.0010021905
2.9127866e-05
0.00099878754
2.9519558e-05
0.00099461644
2.973575e-05
0.00098984058
2.9751977e-05
0.00098468011
2.9560128e-05
0.00097934821
2.918454e-05
0.00097399613
2.8685443e-05
0.00096870199
2.8131669e-05
0.00096349247
2.7569804e-05
0.00095837272
2.7019854e-05
0.00095334506
2.6485837e-05
0.00094841358
2.596659e-05
0.00094358186
2.5460384e-05
0.0009388506
2.4968728e-05
0.00093421809
2.449412e-05
0.0009296821
2.4035461e-05
0.00092524039
2.3592108e-05
0.00092089049
2.3164308e-05
0.00091662983
2.2750808e-05
0.00091245571
2.2351475e-05
0.00090836541
2.1966036e-05
0.00090435633
2.1593457e-05
0.00090042582
2.1233899e-05
0.00089657134
2.0886629e-05
0.00089279041
2.0551099e-05
0.00088908056
2.0227396e-05
0.00088543942
1.991484e-05
0.00088186465
1.961329e-05
0.00087835394
1.9322372e-05
0.00087490506
1.9041766e-05
0.00087151581
1.8771216e-05
0.00086818405
1.8510361e-05
0.00086490766
1.8258997e-05
0.0008616846
1.8016807e-05
0.00085851284
1.7783728e-05
0.0008553904
1.7559788e-05
0.00085231529
1.7345267e-05
0.00084928546
1.7140883e-05
0.00084629883
1.6947381e-05
0.00084335301
1.6766846e-05
0.00084044564
1.6599292e-05
0.00083757305
1.6453012e-05
0.00083473341
1.63171e-05
0.00083191702
1.6237844e-05
0.0008291297
1.6134324e-05
0.00082632071
1.6303935e-05
0.00082361966
1.5915076e-05
0.00082025946
1.9098256e-05
1.4860107e-05
0.0010392909
5.7186842e-06
-0.0010392059
0.0010395008
7.1011915e-06
0.0010397595
8.2607292e-06
0.0010400127
9.1520128e-06
0.0010402524
9.8920535e-06
0.0010404798
1.0551206e-05
0.0010406914
1.1131874e-05
0.0010408874
1.1647322e-05
0.0010410702
1.2119909e-05
0.0010412414
1.2561989e-05
0.0010414023
1.2978048e-05
0.0010415545
1.337294e-05
0.0010416985
1.3748365e-05
0.0010418357
1.4106794e-05
0.0010419665
1.4448145e-05
0.0010420913
1.4770722e-05
0.0010422101
1.5072194e-05
0.0010423224
1.53497e-05
0.0010424275
1.5601919e-05
0.0010425248
1.5829627e-05
0.001042614
1.6034528e-05
0.0010426945
1.6219332e-05
0.001042766
1.6388266e-05
0.0010428283
1.6547792e-05
0.0010428817
1.6707053e-05
0.0010429274
1.6877749e-05
0.0010429665
1.7069516e-05
0.0010430005
1.7290441e-05
0.0010430314
1.7548958e-05
0.0010430608
1.7848088e-05
0.0010430899
1.8185459e-05
0.0010431191
1.8556262e-05
0.001043149
1.8957055e-05
0.0010431793
1.938216e-05
0.0010432095
1.9827484e-05
0.0010432397
2.0293552e-05
0.0010432697
2.0778484e-05
0.0010432991
2.1280568e-05
0.0010433277
2.1798537e-05
0.0010433547
2.2328318e-05
0.0010433791
2.2868143e-05
0.0010434001
2.3419048e-05
0.0010434165
2.3981426e-05
0.0010434268
2.4556339e-05
0.0010434285
2.5141774e-05
0.0010434178
2.5737491e-05
0.0010433891
2.6344917e-05
0.0010433352
2.6966073e-05
0.0010432426
2.7597854e-05
0.0010430871
2.8237003e-05
0.0010428315
2.8884015e-05
0.0010424213
2.9538034e-05
0.0010417507
3.0190215e-05
0.001040661
3.082544e-05
0.0010389838
3.1429186e-05
0.0010365663
3.1977553e-05
0.0010333436
3.2407249e-05
0.001029373
3.2656101e-05
0.001024805
3.2699632e-05
0.0010198465
3.2528348e-05
0.0010146929
3.2173412e-05
0.0010094806
3.1698143e-05
0.0010042823
3.1164919e-05
0.00099912903
3.0613621e-05
0.00099403528
3.0062476e-05
0.00098901196
2.9517436e-05
0.00098406848
2.8978946e-05
0.00097921064
2.8449953e-05
0.00097444073
2.7934212e-05
0.0009697594
2.7432135e-05
0.00096516649
2.6944387e-05
0.00096066123
2.6471295e-05
0.00095624238
2.6012306e-05
0.00095190826
2.5568027e-05
0.000947657
2.5137886e-05
0.00094348664
2.4721456e-05
0.00093939506
2.4318983e-05
0.00093538008
2.3929817e-05
0.00093143949
2.3553883e-05
0.00092757103
2.319083e-05
0.00092377245
2.2840349e-05
0.00092004147
2.2502189e-05
0.00091637586
2.217597e-05
0.00091277337
2.1861486e-05
0.00090923179
2.1558391e-05
0.00090574891
2.1266612e-05
0.00090232253
2.098616e-05
0.00089895049
2.0717315e-05
0.00089563053
2.0460844e-05
0.00089236036
2.0217551e-05
0.0008891374
1.9989805e-05
0.00088595909
1.9777595e-05
0.00088282154
1.959057e-05
0.00087972267
1.9415969e-05
0.00087665235
1.9308161e-05
0.00087361653
1.9170144e-05
0.00087056135
1.9359113e-05
0.00086762862
1.884781e-05
0.00086397859
2.2748281e-05
1.7420729e-05
0.0010741197
5.6435034e-06
-0.0010740445
0.0010743064
6.9145316e-06
0.0010745448
8.0223437e-06
0.0010747862
8.9106043e-06
0.0010750191
9.65915e-06
0.001075243
1.0327247e-05
0.001075454
1.0920902e-05
0.0010756511
1.1450251e-05
0.0010758358
1.1935191e-05
0.0010760096
1.2388186e-05
0.0010761735
1.2814166e-05
0.0010763288
1.321767e-05
0.0010764761
1.3600996e-05
0.0010766165
1.3966377e-05
0.0010767506
1.4314063e-05
0.0010768787
1.4642688e-05
0.0010770006
1.4950252e-05
0.001077116
1.5234341e-05
0.0010772241
1.5493769e-05
0.0010773245
1.5729213e-05
0.0010774167
1.594234e-05
0.0010775002
1.6135815e-05
0.0010775747
1.6313776e-05
0.00107764
1.6482467e-05
0.0010776965
1.665058e-05
0.0010777452
1.6829088e-05
0.0010777873
1.7027426e-05
0.0010778242
1.7253499e-05
0.0010778579
1.7515242e-05
0.0010778901
1.7815891e-05
0.001077922
1.8153618e-05
0.0010779541
1.852416e-05
0.0010779869
1.8924224e-05
0.0010780204
1.9348695e-05
0.0010780542
1.9793663e-05
0.0010780884
2.0259298e-05
0.001078123
2.0743925e-05
0.0010781578
2.1245812e-05
0.0010781926
2.1763669e-05
0.0010782271
2.2293815e-05
0.0010782608
2.2834503e-05
0.0010782932
2.3386657e-05
0.0010783238
2.3950739e-05
0.0010783524
2.4527736e-05
0.0010783782
2.5116047e-05
0.0010784
2.5715642e-05
0.0010784167
2.6328218e-05
0.0010784269
2.6955935e-05
0.001078428
2.7596713e-05
0.0010784161
2.8248904e-05
0.0010783852
2.8914915e-05
0.0010783272
2.9596042e-05
0.0010782276
3.0289762e-05
0.0010780607
3.0992419e-05
0.0010777865
3.1703361e-05
0.0010773434
3.2420628e-05
0.0010766179
3.3132735e-05
0.0010754515
3.3822546e-05
0.0010736768
3.4474289e-05
0.0010711599
3.504525e-05
0.0010678626
3.5470708e-05
0.0010638587
3.5702123e-05
0.0010593107
3.5712829e-05
0.0010544167
3.5507672e-05
0.0010493453
3.5133824e-05
0.0010442074
3.4655352e-05
0.0010390617
3.4124693e-05
0.0010339382
3.3573435e-05
0.0010288569
3.3015526e-05
0.0010238334
3.2455591e-05
0.0010188787
3.1899125e-05
0.0010139991
3.1350897e-05
0.0010091984
3.0813018e-05
0.0010044787
3.0287703e-05
0.00099984113
2.9775452e-05
0.00099528585
2.9276734e-05
0.00099081233
2.8792506e-05
0.00098641961
2.8322533e-05
0.00098210639
2.786711e-05
0.00097787107
2.7426148e-05
0.00097371189
2.6999533e-05
0.00096962692
2.6587158e-05
0.00096561414
2.6188746e-05
0.00096167145
2.5804179e-05
0.00095779667
2.5433166e-05
0.0009539876
2.5075681e-05
0.00095024199
2.4731767e-05
0.00094655758
2.4401731e-05
0.00094293201
2.4086412e-05
0.00093936287
2.3786687e-05
0.00093584746
2.3505221e-05
0.00093238306
2.3241991e-05
0.0009289656
2.3008029e-05
0.00092559283
2.2788739e-05
0.00092225424
2.2646752e-05
0.00091895591
2.246847e-05
0.00091564094
2.2674087e-05
0.00091246337
2.2025382e-05
0.00090850965
2.6701997e-05
2.0181648e-05
0.001110109
5.5758812e-06
-0.0011100414
0.0011102758
6.7477212e-06
0.0011104955
7.8026797e-06
0.0011107251
8.6809458e-06
0.0011109511
9.4332077e-06
0.0011111711
1.010721e-05
0.001111381
1.0711035e-05
0.0011115787
1.1252541e-05
0.001111765
1.1748826e-05
0.0011119412
1.2212061e-05
0.0011121078
1.2647509e-05
0.0011122661
1.3059434e-05
0.0011124166
1.3450495e-05
0.0011125601
1.382281e-05
0.0011126973
1.4176861e-05
0.0011128284
1.45116e-05
0.0011129533
1.4825333e-05
0.0011130716
1.5116046e-05
0.0011131827
1.5382699e-05
0.001113286
1.5625895e-05
0.0011133811
1.5847267e-05
0.0011134675
1.6049428e-05
0.0011135448
1.6236421e-05
0.001113613
1.6414266e-05
0.0011136724
1.6591226e-05
0.0011137239
1.6777599e-05
0.0011137687
1.6982573e-05
0.0011138084
1.7213865e-05
0.0011138446
1.7478966e-05
0.0011138793
1.7781272e-05
0.0011139134
1.8119462e-05
0.0011139478
1.8489794e-05
0.0011139829
1.8889147e-05
0.0011140186
1.9312916e-05
0.0011140549
1.9757388e-05
0.0011140918
2.0222427e-05
0.0011141292
2.0706514e-05
0.0011141671
2.1207911e-05
0.0011142055
2.17253e-05
0.0011142439
2.225534e-05
0.0011142822
2.2796297e-05
0.0011143199
2.3348944e-05
0.0011143569
2.3913748e-05
0.001114393
2.4491593e-05
0.0011144279
2.5081141e-05
0.0011144611
2.5682397e-05
0.0011144923
2.6297031e-05
0.0011145211
2.6927167e-05
0.0011145467
2.7571162e-05
0.0011145678
2.8227729e-05
0.0011145832
2.8899507e-05
0.0011145911
2.9588217e-05
0.0011145885
3.0292347e-05
0.0011145708
3.1010118e-05
0.0011145309
3.1743257e-05
0.0011144587
3.2492771e-05
0.0011143361
3.3255365e-05
0.0011141315
3.4027194e-05
0.001113798
3.4807779e-05
0.0011132534
3.5589871e-05
0.0011123657
3.6358382e-05
0.0011109723
3.7095461e-05
0.0011089141
3.7771044e-05
0.0011060971
3.8324677e-05
0.0011025333