/*--------------------------------*- C++ -*----------------------------------*\
  =========                 |
  \\      /  F ield         | OpenFOAM: The Open Source CFD Toolbox
   \\    /   O peration     | Website:  https://openfoam.org
    \\  /    A nd           | Version:  12
     \\/     M anipulation  |
\*---------------------------------------------------------------------------*/
FoamFile
{
    format      ascii;
    class       surfaceScalarField;
    location    "200";
    object      phi;
}
// * * * * * * * * * * * * * * * * * * * * * * * * * * * * * * * * * * * * * //

dimensions      [0 3 -1 0 0 0 0];

internalField   nonuniform List<scalar> 
25880
(
2.0046523e-06
1.8220365e-12
2.0046486e-06
3.6781861e-12
2.0046447e-06
3.9588355e-12
2.0046403e-06
4.3575245e-12
2.0046352e-06
5.1156247e-12
2.0046292e-06
6.0559956e-12
2.004622e-06
7.2010254e-12
2.0046133e-06
8.6229242e-12
2.0046029e-06
1.0395637e-11
2.0045903e-06
1.2608867e-11
2.0045749e-06
1.5386255e-11
2.004556e-06
1.8911217e-11
2.0045326e-06
2.3439549e-11
2.0045032e-06
2.9410109e-11
2.0044658e-06
3.7369673e-11
2.0044171e-06
4.8726817e-11
2.0043527e-06
6.4406547e-11
2.0042613e-06
9.137347e-11
2.0041343e-06
1.2701265e-10
2.0039112e-06
2.2307263e-10
2.0035912e-06
3.2001861e-10
2.0026815e-06
9.0971138e-10
2.0026417e-06
3.975842e-11
1.0388035e-06
9.6383823e-07
6.277075e-08
9.7603275e-07
4.8579946e-08
1.4190804e-08
4.4299593e-08
4.2803533e-09
4.2104913e-08
2.1946805e-09
4.0463053e-08
1.6418594e-09
3.9176776e-08
1.286277e-09
3.8158581e-08
1.0181952e-09
3.733327e-08
8.2531142e-10
3.6649191e-08
6.8407814e-10
3.6071904e-08
5.7728727e-10
3.5577591e-08
4.9431365e-10
3.5149243e-08
4.2834787e-10
3.4774319e-08
3.7492407e-10
3.4443316e-08
3.3100316e-10
3.4148899e-08
2.944161e-10
3.3885318e-08
2.6358172e-10
3.3647988e-08
2.3733016e-10
3.3433198e-08
2.1478949e-10
3.3237908e-08
1.9528987e-10
3.30596e-08
1.7830781e-10
3.2896165e-08
1.634355e-10
3.2745818e-08
1.5034714e-10
3.2607041e-08
1.387763e-10
3.2478535e-08
1.285069e-10
3.2359171e-08
1.1936374e-10
3.2247971e-08
1.1120028e-10
3.2144079e-08
1.0389155e-10
3.2046746e-08
9.7332942e-11
3.1955309e-08
9.1437109e-11
3.186918e-08
8.6129158e-11
3.1787836e-08
8.1343501e-11
3.1710813e-08
7.7022829e-11
3.1637695e-08
7.3118217e-11
3.1568108e-08
6.9587262e-11
3.1501716e-08
6.6392393e-11
3.1438215e-08
6.3500118e-11
3.1377335e-08
6.0880394e-11
3.1318828e-08
5.850681e-11
3.1262472e-08
5.6356439e-11
3.1208063e-08
5.4408697e-11
3.1155418e-08
5.2644976e-11
3.110437e-08
5.1048435e-11
3.1054766e-08
4.9603724e-11
3.1006469e-08
4.8297268e-11
3.0959352e-08
4.7117228e-11
3.0913299e-08
4.6052937e-11
3.0868204e-08
4.5094704e-11
3.082397e-08
4.4233758e-11
3.0780508e-08
4.3462016e-11
3.0737736e-08
4.2772194e-11
3.0695578e-08
4.2157938e-11
3.0653964e-08
4.1613609e-11
3.061283e-08
4.1134146e-11
3.0572115e-08
4.0714994e-11
3.0531764e-08
4.0351712e-11
3.0491722e-08
4.004132e-11
3.0451944e-08
3.9778525e-11
3.0412381e-08
3.9562946e-11
3.037299e-08
3.9391191e-11
3.0333732e-08
3.9257961e-11
3.0294568e-08
3.9163865e-11
3.0255462e-08
3.9106051e-11
3.0216379e-08
3.9083041e-11
3.0177286e-08
3.9093038e-11
3.0138151e-08
3.9134556e-11
3.0098945e-08
3.92062e-11
3.0059638e-08
3.930667e-11
3.0020203e-08
3.9434793e-11
2.9980614e-08
3.9589572e-11
2.9940844e-08
3.9770152e-11
2.9900868e-08
3.9975745e-11
2.9860662e-08
4.0205608e-11
2.9820203e-08
4.0459042e-11
2.9779468e-08
4.0735383e-11
2.9738434e-08
4.1033992e-11
2.969708e-08
4.1354234e-11
2.9655384e-08
4.1695464e-11
2.9613327e-08
4.2057048e-11
2.9570889e-08
4.2438455e-11
2.9528049e-08
4.2839235e-11
2.948479e-08
4.3259221e-11
2.9441092e-08
4.3698181e-11
2.9396936e-08
4.4155547e-11
2.9352306e-08
4.4630744e-11
2.9307184e-08
4.5122068e-11
2.9261554e-08
4.5629962e-11
2.9215414e-08
4.6140061e-11
2.9168736e-08
4.6677872e-11
2.9121462e-08
4.7273611e-11
2.9075982e-08
4.5479951e-11
2.9034048e-08
4.1933956e-11
2.8995781e-08
3.8266878e-11
2.8960943e-08
3.4838337e-11
2.8929213e-08
3.1729848e-11
2.8900282e-08
2.8931637e-11
2.8873864e-08
2.6417594e-11
2.8849703e-08
2.4160615e-11
2.8827568e-08
2.2135175e-11
2.8807251e-08
2.0316765e-11
2.8788569e-08
1.8682338e-11
2.8771358e-08
1.7211317e-11
2.8755473e-08
1.5885146e-11
2.8740785e-08
1.4687447e-11
2.8727182e-08
1.3603634e-11
2.871456e-08
1.2621565e-11
2.8702832e-08
1.1728316e-11
2.8691908e-08
1.0923599e-11
2.8681745e-08
1.0163409e-11
2.867213e-08
9.6143692e-12
2.8663519e-08
8.6117817e-12
2.8653463e-08
1.0055887e-11
6.2131847e-12
2.0345261e-06
3.7431402e-12
2.0345223e-06
7.5658122e-12
2.0345181e-06
8.1526901e-12
2.0345134e-06
8.9737355e-12
2.034508e-06
1.0531111e-11
2.0345016e-06
1.246181e-11
2.034494e-06
1.4811362e-11
2.0344849e-06
1.7727483e-11
2.0344739e-06
2.1361251e-11
2.0344607e-06
2.5895785e-11
2.0344445e-06
3.1583415e-11
2.0344246e-06
3.879843e-11
2.0343999e-06
4.8062593e-11
2.0343691e-06
6.0271228e-11
2.0343299e-06
7.6538487e-11
2.0342789e-06
9.9737149e-11
2.0342116e-06
1.3174578e-10
2.0341162e-06
1.8676137e-10
2.0339838e-06
2.5940431e-10
2.0337518e-06
4.5505164e-10
2.0334191e-06
6.5269268e-10
2.0324738e-06
1.8550222e-09
2.0324231e-06
9.0482201e-11
1.1262328e-06
1.8700286e-06
1.8767362e-07
1.9145919e-06
1.4721023e-07
5.4654186e-08
1.3443208e-07
1.7058513e-08
1.2787283e-07
8.7539258e-09
1.2295753e-07
6.5571605e-09
1.1909995e-07
5.1438559e-09
1.1604241e-07
4.0757384e-09
1.1356164e-07
3.3060809e-09
1.1150372e-07
2.7419919e-09
1.0976589e-07
2.31512e-09
1.0827698e-07
1.9832273e-09
1.0698609e-07
1.7192313e-09
1.0585568e-07
1.5053336e-09
1.0485728e-07
1.3294116e-09
1.0396888e-07
1.1828113e-09
1.0317324e-07
1.059218e-09
1.0245661e-07
9.5396254e-10
1.0180784e-07
8.6355749e-10
1.0121781e-07
7.8532575e-10
1.0067894e-07
7.17178e-10
1.0018489e-07
6.574814e-10
9.9730308e-08
6.0493093e-10
9.9310621e-08
5.5846327e-10
9.8921914e-08
5.1721451e-10
9.8560796e-08
4.8048108e-10
9.8224321e-08
4.4767579e-10
9.7909912e-08
4.1829993e-10
9.761531e-08
3.9193523e-10
9.7338517e-08
3.682303e-10
9.7077761e-08
3.4688476e-10
9.6831469e-08
3.2763594e-10
9.6598237e-08
3.1025505e-10
9.6376809e-08
2.9454614e-10
9.6166058e-08
2.8033823e-10
9.596497e-08
2.6748052e-10
9.5772631e-08
2.5583879e-10
9.5588219e-08
2.4529289e-10
9.5410988e-08
2.3573716e-10
9.5240265e-08
2.2707914e-10
9.5075438e-08
2.1923585e-10
9.4915951e-08
2.1213267e-10
9.4761297e-08
2.0570197e-10
9.4611018e-08
1.9988232e-10
9.4464696e-08
1.9461935e-10
9.4321948e-08
1.8986521e-10
9.4182425e-08
1.8557683e-10
9.4045804e-08
1.8171524e-10
9.3911793e-08
1.7824524e-10
9.378012e-08
1.7513438e-10
9.3650539e-08
1.7235346e-10
9.352282e-08
1.698769e-10
9.3396752e-08
1.6768186e-10
9.3272138e-08
1.6574791e-10
9.3148796e-08
1.6405677e-10
9.3026557e-08
1.6259065e-10
9.2905261e-08
1.6133731e-10
9.2784764e-08
1.6027588e-10
9.2664922e-08
1.5940483e-10
9.2545603e-08
1.5870993e-10
9.2426691e-08
1.581702e-10
9.2308067e-08
1.5778816e-10
9.2189621e-08
1.5755227e-10
9.2071247e-08
1.5745665e-10
9.1952846e-08
1.5749404e-10
9.1834322e-08
1.5765844e-10
9.1715584e-08
1.5794426e-10
9.1596544e-08
1.5834628e-10
9.1477119e-08
1.5885984e-10
9.1357228e-08
1.5948096e-10
9.1236792e-08
1.6020619e-10
9.1115735e-08
1.6103238e-10
9.0993984e-08
1.6195657e-10
9.0871467e-08
1.62976e-10
9.0748115e-08
1.6408802e-10
9.0623859e-08
1.6529009e-10
9.0498633e-08
1.6657969e-10
9.0372374e-08
1.6795426e-10
9.024502e-08
1.6941127e-10
9.011651e-08
1.7094862e-10
8.9986785e-08
1.7256455e-10
8.9855785e-08
1.7425844e-10
8.9723454e-08
1.760294e-10
8.9589735e-08
1.7787523e-10
8.9454572e-08
1.7979364e-10
8.9317916e-08
1.8177784e-10
8.9179716e-08
1.8382956e-10
8.9039965e-08
1.8589157e-10
8.8898578e-08
1.8806438e-10
8.8755378e-08
1.9047393e-10
8.861758e-08
1.8327836e-10
8.849047e-08
1.6904347e-10
8.8374416e-08
1.5432094e-10
8.8268706e-08
1.4054783e-10
8.8172384e-08
1.2805211e-10
8.8084519e-08
1.1679665e-10
8.8004258e-08
1.0667853e-10
8.7930828e-08
9.7590491e-11
8.7863532e-08
8.94312e-11
8.7801746e-08
8.2103079e-11
8.7744914e-08
7.5514139e-11
8.7692543e-08
6.9582115e-11
8.7644196e-08
6.4232727e-11
8.7599483e-08
5.9400336e-11
8.755806e-08
5.5026433e-11
8.7519619e-08
5.1062286e-11
8.7483892e-08
4.7455909e-11
8.7450609e-08
4.4206451e-11
8.7419637e-08
4.1135723e-11
8.7390332e-08
3.8919103e-11
8.7364085e-08
3.4858255e-11
8.7333397e-08
4.0744472e-11
2.5127648e-11
2.094719e-06
5.8109029e-12
2.0947148e-06
1.1764709e-11
2.0947103e-06
1.2696728e-11
2.0947053e-06
1.3975349e-11
2.0946994e-06
1.6393615e-11
2.0946925e-06
1.9389705e-11
2.0946843e-06
2.303332e-11
2.0946744e-06
2.7552665e-11
2.0946626e-06
3.318086e-11
2.0946483e-06
4.0200171e-11
2.0946309e-06
4.8999381e-11
2.0946095e-06
6.0155171e-11
2.0945831e-06
7.4470977e-11
2.0945501e-06
9.3325866e-11
2.0945082e-06
1.1843326e-10
2.0944537e-06
1.5421703e-10
2.0943819e-06
2.0355303e-10
2.0942804e-06
2.8829438e-10
2.0941397e-06
4.0005372e-10
2.0938939e-06
7.0085652e-10
2.0935417e-06
1.0048544e-09
2.092541e-06
2.8558112e-09
2.0924795e-06
1.5196105e-10
1.2277549e-06
2.7347531e-06
3.1159297e-07
2.8307539e-06
2.4647622e-07
1.1977093e-07
2.259257e-07
3.7609029e-08
2.1541067e-07
1.9268962e-08
2.0750525e-07
1.4462577e-08
2.0127363e-07
1.1375475e-08
1.9631782e-07
9.0315487e-09
1.9228709e-07
7.3368114e-09
1.8893695e-07
6.0921284e-09
1.8610328e-07
5.1487947e-09
1.8367205e-07
4.4144505e-09
1.8156156e-07
3.8297223e-09
1.7971138e-07
3.3555158e-09
1.7807562e-07
2.9651774e-09
1.7661877e-07
2.6396576e-09
1.7531295e-07
2.365038e-09
1.7413589e-07
2.1310212e-09
1.7306955e-07
1.929902e-09
1.720991e-07
1.7557696e-09
1.7121227e-07
1.6040085e-09
1.7039875e-07
1.4710032e-09
1.6964981e-07
1.353866e-09
1.6895803e-07
1.2502461e-09
1.6831702e-07
1.1582287e-09
1.6772125e-07
1.0762522e-09
1.6716591e-07
1.0030153e-09
1.6664679e-07
9.3741379e-10
1.6616021e-07
8.7851915e-10
1.6570289e-07
8.2554978e-10
1.6527194e-07
7.778382e-10
1.6486477e-07
7.3480194e-10
1.6447909e-07
6.9593335e-10
1.6411284e-07
6.6079588e-10
1.6376417e-07
6.2900857e-10
1.6343142e-07
6.0023588e-10
1.6311308e-07
5.741793e-10
1.628078e-07
5.5057189e-10
1.6251436e-07
5.2917813e-10
1.6223164e-07
5.0979131e-10
1.6195865e-07
4.9222634e-10
1.6169447e-07
4.7631683e-10
1.6143826e-07
4.6191211e-10
1.6118927e-07
4.4887531e-10
1.609468e-07
4.3708493e-10
1.6071023e-07
4.2643375e-10
1.6047898e-07
4.1682539e-10
1.6025253e-07
4.0817286e-10
1.6003037e-07
4.0039749e-10
1.5981208e-07
3.9342685e-10
1.5959724e-07
3.871957e-10
1.5938547e-07
3.8164661e-10
1.5917642e-07
3.767283e-10
1.5896978e-07
3.723951e-10
1.5876523e-07
3.686061e-10
1.585625e-07
3.6532165e-10
1.5836132e-07
3.6251401e-10
1.5816146e-07
3.6013684e-10
1.5796268e-07
3.5818698e-10
1.5776475e-07
3.5663161e-10
1.575675e-07
3.554242e-10
1.5737072e-07
3.5457074e-10
1.5717422e-07
3.5404521e-10
1.5697785e-07
3.5383446e-10
1.5678142e-07
3.5392227e-10
1.5658478e-07
3.5429522e-10
1.5638778e-07
3.5494085e-10
1.5619028e-07
3.5584758e-10
1.5599214e-07
3.5700505e-10
1.5579322e-07
3.5840439e-10
1.5559338e-07
3.6003793e-10
1.5539252e-07
3.618987e-10
1.5519049e-07
3.639802e-10
1.5498719e-07
3.6627633e-10
1.547825e-07
3.6878127e-10
1.545763e-07
3.7148943e-10
1.5436848e-07
3.7439529e-10
1.5415895e-07
3.7749318e-10
1.5394758e-07
3.8077758e-10
1.5373428e-07
3.8424386e-10
1.5351896e-07
3.8788822e-10
1.5330151e-07
3.9170945e-10
1.5308183e-07
3.9570576e-10
1.5285984e-07
3.9987234e-10
1.5263543e-07
4.0420425e-10
1.5240852e-07
4.086864e-10
1.5217902e-07
4.1332261e-10
1.5194693e-07
4.179855e-10
1.517121e-07
4.2289705e-10
1.5147424e-07
4.2833133e-10
1.5124532e-07
4.1219873e-10
1.5103406e-07
3.8030145e-10
1.5084106e-07
3.4732725e-10
1.5066514e-07
3.1646725e-10
1.5050474e-07
2.8845172e-10
1.5035833e-07
2.6319993e-10
1.5022453e-07
2.4048519e-10
1.5010205e-07
2.2007102e-10
1.4998974e-07
2.0173344e-10
1.4988659e-07
1.852561e-10
1.4979167e-07
1.7043456e-10
1.4970417e-07
1.5708562e-10
1.4962336e-07
1.4504362e-10
1.4954859e-07
1.34162e-10
1.4947931e-07
1.2430993e-10
1.4941499e-07
1.1537845e-10
1.493552e-07
1.0725095e-10
1.4929948e-07
9.9926394e-11
1.4924761e-07
9.3002082e-11
1.4919853e-07
8.8006735e-11
1.4915455e-07
7.8828926e-11
1.491031e-07
9.2201973e-11
5.6812803e-11
2.186128e-06
8.0813405e-12
2.1861233e-06
1.6395137e-11
2.1861183e-06
1.772767e-11
2.1861128e-06
1.951305e-11
2.1861063e-06
2.2877841e-11
2.1860986e-06
2.704378e-11
2.1860895e-06
3.2106093e-11
2.1860787e-06
3.8380388e-11
2.1860657e-06
4.618868e-11
2.18605e-06
5.5920397e-11
2.1860309e-06
6.8111631e-11
2.1860075e-06
8.3557547e-11
2.1859786e-06
1.0336521e-10
2.1859425e-06
1.2943556e-10
2.1858968e-06
1.64126e-10
2.1858375e-06
2.1353289e-10
2.1857594e-06
2.815915e-10
2.1856493e-06
3.9840357e-10
2.1854971e-06
5.5224103e-10
2.185232e-06
9.66003e-10
2.1848526e-06
1.3842787e-09
2.1837743e-06
3.9340152e-09
2.183698e-06
2.283541e-10
1.3439792e-06
3.5744719e-06
4.3357338e-07
3.7411596e-06
3.4427307e-07
2.0907124e-07
3.1696106e-07
6.4921035e-08
3.0315606e-07
3.307397e-08
2.9276382e-07
2.4854813e-08
2.8453159e-07
1.9607701e-08
2.7795972e-07
1.5603425e-08
2.7260062e-07
1.2695912e-08
2.681374e-07
1.0555351e-08
2.643557e-07
8.9304914e-09
2.6110611e-07
7.6640385e-09
2.5828132e-07
6.6545088e-09
2.5580186e-07
5.8349779e-09
2.5360725e-07
5.1597907e-09
2.5165063e-07
4.5962757e-09
2.4989514e-07
4.1205282e-09
2.4831132e-07
3.7148465e-09
2.4687525e-07
3.3659687e-09
2.455673e-07
3.0637227e-09
2.4437114e-07
2.8001616e-09
2.432731e-07
2.5690484e-09
2.4226156e-07
2.3654044e-09
2.4132663e-07
2.1851767e-09
2.404598e-07
2.0250588e-09
2.396537e-07
1.8823507e-09
2.3890191e-07
1.7548042e-09
2.3819881e-07
1.6405132e-09
2.3753946e-07
1.5378708e-09
2.3691949e-07
1.4455229e-09
2.3633501e-07
1.3623136e-09
2.3578258e-07
1.2872355e-09
2.352591e-07
1.21941e-09
2.3476182e-07
1.1580794e-09
2.3428824e-07
1.1025823e-09
2.3383614e-07
1.0523366e-09
2.334035e-07
1.0068246e-09
2.3298849e-07
9.6558339e-10
2.3258946e-07
9.2820368e-10
2.3220493e-07
8.9432539e-10
2.3183353e-07
8.6362657e-10
2.3147403e-07
8.3581785e-10
2.311253e-07
8.1063721e-10
2.3078633e-07
7.8784667e-10
2.3045618e-07
7.6723441e-10
2.30134e-07
7.486131e-10
2.2981901e-07
7.3181459e-10
2.295105e-07
7.1668723e-10
2.292078e-07
7.0309378e-10
2.2891032e-07
6.9090804e-10
2.286175e-07
6.8001612e-10
2.2832883e-07
6.7031743e-10
2.2804383e-07
6.6172227e-10
2.2776208e-07
6.5415082e-10
2.2748315e-07
6.4753162e-10
2.2720668e-07
6.4179556e-10
2.269323e-07
6.3689371e-10
2.2665969e-07
6.3274554e-10
2.2638853e-07
6.2934617e-10
2.2611853e-07
6.266366e-10
2.2584941e-07
6.245359e-10
2.2558093e-07
6.2305559e-10
2.2531283e-07
6.2214961e-10
2.2504486e-07
6.2179503e-10
2.2477682e-07
6.2196361e-10
2.2450849e-07
6.2263195e-10
2.2423965e-07
6.2377837e-10
2.2397011e-07
6.2538278e-10
2.2369969e-07
6.2742724e-10
2.234282e-07
6.2989634e-10
2.2315546e-07
6.3277681e-10
2.228813e-07
6.3605665e-10
2.2260556e-07
6.3972473e-10
2.2232806e-07
6.4377058e-10
2.2204866e-07
6.4818428e-10
2.2176719e-07
6.5295628e-10
2.2148351e-07
6.5807714e-10
2.2119747e-07
6.6353719e-10
2.2090892e-07
6.6932696e-10
2.2061772e-07
6.7543861e-10
2.2032375e-07
6.8186581e-10
2.2002685e-07
6.8860679e-10
2.197269e-07
6.9565882e-10
2.1942375e-07
7.0301391e-10
2.191173e-07
7.1066368e-10
2.188074e-07
7.1858204e-10
2.1849395e-07
7.2677556e-10
2.1817691e-07
7.3502243e-10
2.178561e-07
7.4370883e-10
2.1753118e-07
7.5325333e-10
2.1721849e-07
7.2488283e-10
2.1692984e-07
6.6894936e-10
2.1666596e-07
6.11211e-10
2.1642525e-07
5.5717436e-10
2.1620561e-07
5.0809399e-10
2.1600498e-07
4.6382623e-10
2.1582149e-07
4.2397836e-10
2.1565342e-07
3.8814291e-10
2.1549922e-07
3.5593328e-10
2.153575e-07
3.2697521e-10
2.1522702e-07
3.0091413e-10
2.1510668e-07
2.7743164e-10
2.1499548e-07
2.5623941e-10
2.1489256e-07
2.3708197e-10
2.1479714e-07
2.1973101e-10
2.1470852e-07
2.0399628e-10
2.146261e-07
1.8967345e-10
2.1454926e-07
1.7676274e-10
2.1447771e-07
1.6455202e-10
2.1440997e-07
1.5575011e-10
2.1434927e-07
1.395281e-10
2.1427818e-07
1.6328923e-10
1.0057579e-10
2.3101151e-06
1.0621649e-11
2.3101099e-06
2.1602705e-11
2.3101042e-06
2.3412361e-11
2.310098e-06
2.5770785e-11
2.3100907e-06
3.0196672e-11
2.310082e-06
3.5672249e-11
2.3100718e-06
4.2319931e-11
2.3100597e-06
5.0551907e-11
2.3100451e-06
6.0788224e-11
2.3100274e-06
7.3536128e-11
2.3100061e-06
8.9493449e-11
2.3099799e-06
1.096952e-10
2.3099477e-06
1.3558126e-10
2.3099075e-06
1.6962506e-10
2.3098568e-06
2.1488736e-10
2.309791e-06
2.792983e-10
2.3097046e-06
3.6793477e-10
2.3095831e-06
5.1993397e-10
2.3094156e-06
7.19785e-10
2.3091247e-06
1.2568627e-09
2.3087091e-06
1.7999119e-09
2.3075283e-06
5.1148255e-09
2.3074315e-06
3.2510839e-10
1.4785706e-06
4.4033328e-06
5.5836369e-07
4.6613666e-06
4.4357758e-07
3.2385735e-07
4.0976736e-07
9.8731255e-08
3.9299825e-07
4.9843083e-08
3.8040374e-07
3.7449318e-08
3.7039037e-07
2.9621074e-08
3.6237309e-07
2.3620704e-08
3.5582385e-07
1.9245144e-08
3.5036263e-07
1.6016579e-08
3.4573033e-07
1.3562792e-08
3.4174586e-07
1.16485e-08
3.3827908e-07
1.0121293e-08
3.3523351e-07
8.8805531e-09
3.3253566e-07
7.8576401e-09
3.3012855e-07
7.0033847e-09
3.2796731e-07
6.281767e-09
3.2601606e-07
5.6660942e-09
3.2424568e-07
5.136351e-09
3.2263221e-07
4.6771881e-09
3.2115576e-07
4.2766091e-09
3.1979963e-07
3.9251873e-09
3.1854963e-07
3.6153997e-09
3.1739368e-07
3.3411234e-09
3.1632139e-07
3.0973568e-09
3.1532372e-07
2.8800118e-09
3.1439284e-07
2.6856871e-09
3.1352186e-07
2.5114996e-09
3.1270471e-07
2.3550153e-09
3.1193605e-07
2.2141808e-09
3.1121112e-07
2.0872441e-09
3.1052568e-07
1.9726796e-09
3.0987593e-07
1.8691561e-09
3.0925849e-07
1.7755231e-09
3.0867029e-07
1.6907762e-09
3.081086e-07
1.6140316e-09
3.0757092e-07
1.5445035e-09
3.0705501e-07
1.4814896e-09
3.0655885e-07
1.4243676e-09
3.0608059e-07
1.3725891e-09
3.0561855e-07
1.3256642e-09
3.0517121e-07
1.2831526e-09
3.047372e-07
1.2446556e-09
3.0431523e-07
1.2098112e-09
3.0390417e-07
1.1782963e-09
3.0350296e-07
1.1498248e-09
3.0311063e-07
1.1241401e-09
3.0272631e-07
1.1010108e-09
3.0234918e-07
1.0802275e-09
3.0197849e-07
1.0615976e-09
3.0161355e-07
1.0449472e-09
3.0125375e-07
1.0301223e-09
3.0089849e-07
1.0169857e-09
3.0054722e-07
1.0054151e-09
3.0019945e-07
9.9530131e-10
2.9985471e-07
9.865389e-10
2.9951255e-07
9.7905246e-10
2.9917258e-07
9.7271927e-10
2.9883439e-07
9.6753307e-10
2.9849763e-07
9.634011e-10
2.9816196e-07
9.6019993e-10
2.9782707e-07
9.579491e-10
2.9749264e-07
9.5657707e-10
2.9715839e-07
9.5604885e-10
2.9682403e-07
9.5632138e-10
2.964893e-07
9.5735903e-10
2.9615395e-07
9.591288e-10
2.9581773e-07
9.6160016e-10
2.9548042e-07
9.6474589e-10
2.9514177e-07
9.6854263e-10
2.9480158e-07
9.7297025e-10
2.9445962e-07
9.7801075e-10
2.941157e-07
9.8364741e-10
2.937696e-07
9.898646e-10
2.9342114e-07
9.9664752e-10
2.9307012e-07
1.0039819e-09
2.9271634e-07
1.0118538e-09
2.9235963e-07
1.0202487e-09
2.919998e-07
1.0291524e-09
2.9163669e-07
1.0385533e-09
2.9127011e-07
1.0484424e-09
2.908999e-07
1.0588175e-09
2.9052588e-07
1.069675e-09
2.9014789e-07
1.0810036e-09
2.8976577e-07
1.0927907e-09
2.8937935e-07
1.104997e-09
2.889885e-07
1.1176324e-09
2.8859316e-07
1.1303588e-09
2.881931e-07
1.1437683e-09
2.8778801e-07
1.1583382e-09
2.8739834e-07
1.1145534e-09
2.870386e-07
1.0286984e-09
2.8670952e-07
9.4029021e-10
2.864091e-07
8.5758667e-10
2.8613475e-07
7.8244625e-10
2.8588394e-07
7.1463288e-10
2.8565438e-07
6.5354748e-10
2.8544394e-07
5.985754e-10
2.8525074e-07
5.4913342e-10
2.8507306e-07
5.04656e-10
2.8490937e-07
4.6460624e-10
2.847583e-07
4.2850097e-10
2.8461864e-07
3.9590201e-10
2.844893e-07
3.6642055e-10
2.8436932e-07
3.3970858e-10
2.8425784e-07
3.1547612e-10
2.8415411e-07
2.9341037e-10
2.8405735e-07
2.7351531e-10
2.8396722e-07
2.5468923e-10
2.8388183e-07
2.4113275e-10
2.838053e-07
2.1606099e-10
2.837156e-07
2.5298749e-10
1.5579984e-10
2.4685283e-06
1.3513843e-11
2.4685223e-06
2.756702e-11
2.4685158e-06
2.9958431e-11
2.4685086e-06
3.2977571e-11
2.4685001e-06
3.8614672e-11
2.4684902e-06
4.558296e-11
2.4684785e-06
5.4034022e-11
2.4684646e-06
6.4488483e-11
2.4684479e-06
7.7476278e-11
2.4684278e-06
9.3636253e-11
2.4684034e-06
1.138466e-10
2.4683737e-06
1.3940977e-10
2.4683372e-06
1.7213606e-10
2.4682917e-06
2.1513677e-10
2.4682343e-06
2.7225234e-10
2.4681601e-06
3.5345472e-10
2.468063e-06
4.6506724e-10
2.4679267e-06
6.5627668e-10
2.4677392e-06
9.0721285e-10
2.4674152e-06
1.5809271e-09
2.4669529e-06
2.2622272e-09
2.46564e-06
6.4276439e-09
2.4655157e-06
4.4945113e-10
1.6364244e-06
5.2324241e-06
6.930107e-07
5.6047803e-06
5.4999777e-07
4.6687028e-07
5.0918877e-07
1.3954025e-07
4.8938115e-07
6.96507e-08
4.7457962e-07
5.2250848e-08
4.6278129e-07
4.1419402e-08
4.5331397e-07
3.3088028e-08
4.4557183e-07
2.6987284e-08
4.3911171e-07
2.2476696e-08
4.3362913e-07
1.9045376e-08
4.2891076e-07
1.6366869e-08
4.2480326e-07
1.4228789e-08
4.2119299e-07
1.2490831e-08
4.1799332e-07
1.105731e-08
4.1513706e-07
9.8596433e-09
4.1257129e-07
8.8475341e-09
4.102537e-07
7.9836887e-09
4.0814992e-07
7.2401272e-09
4.0623171e-07
6.5953974e-09
4.0447559e-07
6.0327323e-09
4.0286184e-07
5.5389386e-09
4.0137374e-07
5.1034989e-09
3.9999701e-07
4.7178497e-09
3.9871938e-07
4.3749911e-09
3.9753019e-07
4.0691978e-09
3.9642017e-07
3.7957086e-09
3.9538118e-07
3.5504897e-09
3.9440606e-07
3.3301318e-09
3.9348849e-07
3.1317566e-09
3.9262282e-07
2.9529086e-09
3.9180405e-07
2.7914518e-09
3.9102768e-07
2.6455215e-09
3.902897e-07
2.5135035e-09
3.8958649e-07
2.3939886e-09
3.8891479e-07
2.285737e-09
3.8827164e-07
2.1876465e-09
3.876544e-07
2.0987322e-09
3.8706065e-07
2.0181201e-09
3.864882e-07
1.9450392e-09
3.8593506e-07
1.8788007e-09
3.8539943e-07
1.8187857e-09
3.8487965e-07
1.764434e-09
3.8437422e-07
1.7152363e-09
3.8388178e-07
1.670738e-09
3.8340107e-07
1.6305356e-09
3.8293095e-07
1.5942672e-09
3.8247035e-07
1.5616067e-09
3.8201832e-07
1.5322588e-09
3.8157396e-07
1.5059523e-09
3.8113647e-07
1.4824416e-09
3.8070508e-07
1.4615091e-09
3.8027911e-07
1.4429605e-09
3.798579e-07
1.4266234e-09
3.7944086e-07
1.4123433e-09
3.7902742e-07
1.3999714e-09
3.7861708e-07
1.3894006e-09
3.7820934e-07
1.3804577e-09
3.7780373e-07
1.3731359e-09
3.7739984e-07
1.3673006e-09
3.7699726e-07
1.3627775e-09
3.7659561e-07
1.3595972e-09
3.7619453e-07
1.3576569e-09
3.7579367e-07
1.3569073e-09
3.7539271e-07
1.3572876e-09
3.7499132e-07
1.3587479e-09
3.745892e-07
1.3612415e-09
3.7418608e-07
1.3647258e-09
3.7378166e-07
1.3691625e-09
3.7337569e-07
1.3745188e-09
3.7296789e-07
1.3807666e-09
3.7255802e-07
1.387881e-09
3.7214583e-07
1.3958387e-09
3.7173107e-07
1.4046183e-09
3.7131352e-07
1.4141992e-09
3.7089294e-07
1.4245622e-09
3.7046911e-07
1.4356877e-09
3.700418e-07
1.4475558e-09
3.6961081e-07
1.4601473e-09
3.6917591e-07
1.4734461e-09
3.6873692e-07
1.4874402e-09
3.6829361e-07
1.5021274e-09
3.6784578e-07
1.5175039e-09
3.6739323e-07
1.5335543e-09
3.6693575e-07
1.550262e-09
3.6647318e-07
1.5675721e-09
3.6600531e-07
1.5854983e-09
3.6553211e-07
1.6035647e-09
3.6505326e-07
1.6226132e-09
3.6456859e-07
1.6430143e-09
3.6410263e-07
1.5805145e-09
3.6367244e-07
1.4588789e-09
3.632787e-07
1.3340346e-09
3.6291895e-07
1.2173384e-09
3.625901e-07
1.1112955e-09
3.6228919e-07
1.0155377e-09
3.6201352e-07
9.2921752e-10
3.6176062e-07
8.5147941e-10
3.6152824e-07
7.815126e-10
3.6131437e-07
7.1853014e-10
3.6111719e-07
6.6178345e-10
3.6093509e-07
6.1059728e-10
3.6076664e-07
5.6435835e-10
3.6061054e-07
5.2252166e-10
3.6046565e-07
4.845986e-10
3.6033094e-07
4.50182e-10
3.6020552e-07
4.1883055e-10
3.6008848e-07
3.9055584e-10
3.5997938e-07
3.6378489e-10
3.5987599e-07
3.4453092e-10
3.5978326e-07
3.0878345e-10
3.596745e-07
3.6174879e-10
2.2277544e-10
2.663728e-06
1.685927e-11
2.6637211e-06
3.4512575e-11
2.6637134e-06
3.7627889e-11
2.663705e-06
4.1422596e-11
2.6636951e-06
4.8465306e-11
2.6636835e-06
5.7163171e-11
2.6636699e-06
6.7699199e-11
2.6636536e-06
8.0717557e-11
2.6636343e-06
9.6873183e-11
2.6636109e-06
1.1695406e-10
2.6635827e-06
1.4204235e-10
2.6635484e-06
1.7374296e-10
2.6635063e-06
2.1428423e-10
2.6634539e-06
2.6749815e-10
2.663388e-06
3.3810126e-10
2.6633031e-06
4.3837084e-10
2.6631922e-06
5.7600692e-10
2.6630369e-06
8.1152953e-10
2.6628242e-06
1.1199655e-09
2.662458e-06
1.9471222e-09
2.6619366e-06
2.7836459e-09
2.660457e-06
7.9071984e-09
2.6602954e-06
6.1108128e-10
1.8225162e-06
6.0702034e-06
8.4428637e-07
6.5830101e-06
6.6909442e-07
6.4206224e-07
6.2025304e-07
1.8838163e-07
5.9706646e-07
9.2837284e-08
5.7986277e-07
6.9454531e-08
5.6612414e-07
5.5158039e-08
5.550793e-07
4.4132869e-08
5.4604015e-07
3.6026436e-08
5.3849517e-07
3.0021673e-08
5.3209005e-07
2.5450498e-08
5.2657602e-07
2.1880895e-08
5.217743e-07
1.9030513e-08
5.175524e-07
1.6712725e-08
5.1380937e-07
1.4800342e-08
5.1046685e-07
1.3202163e-08
5.0746314e-07
1.185124e-08
5.0474892e-07
1.0697911e-08
5.0228415e-07
9.7049033e-09
5.0003589e-07
8.8436487e-09
4.9797681e-07
8.091816e-09
4.9608392e-07
7.4318322e-09
4.9433774e-07
6.8496796e-09
4.9272163e-07
6.3339562e-09
4.9122129e-07
5.8753345e-09
4.898243e-07
5.4661817e-09
4.8851986e-07
5.1001535e-09
4.8729847e-07
4.7718767e-09
4.861518e-07
4.4768067e-09
4.8507245e-07
4.2111047e-09
4.8405386e-07
3.9714962e-09
4.8309018e-07
3.7551354e-09
4.8217616e-07
3.5595371e-09
4.8130712e-07
3.3825475e-09
4.8047882e-07
3.2222859e-09
4.7968746e-07
3.0770981e-09
4.7892959e-07
2.9455139e-09
4.782021e-07
2.8262194e-09
4.7750218e-07
2.7180477e-09
4.7682725e-07
2.6199678e-09
4.7617499e-07
2.5310591e-09
4.7554328e-07
2.4504945e-09
4.7493019e-07
2.3775251e-09
4.7433396e-07
2.3114702e-09
4.7375297e-07
2.2517208e-09
4.7318577e-07
2.1977362e-09
4.7263101e-07
2.1490314e-09
4.7208745e-07
2.1051692e-09
4.7155395e-07
2.0657536e-09
4.7102948e-07
2.0304209e-09
4.7051308e-07
1.9988419e-09
4.7000387e-07
1.9707236e-09
4.6950102e-07
1.9458052e-09
4.6900379e-07
1.9238547e-09
4.6851147e-07
1.9046643e-09
4.6802341e-07
1.8880344e-09
4.6753899e-07
1.8738201e-09
4.6705766e-07
1.8617893e-09
4.6657886e-07
1.851935e-09
4.6610209e-07
1.8440718e-09
4.656269e-07
1.8379655e-09
4.6515283e-07
1.8336614e-09
4.6467947e-07
1.831019e-09
4.6420641e-07
1.8299716e-09
4.6373326e-07
1.8304383e-09
4.6325965e-07
1.8323519e-09
4.6278524e-07
1.8356504e-09
4.6230969e-07
1.8402764e-09
4.6183268e-07
1.846179e-09
4.6135388e-07
1.8533145e-09
4.60873e-07
1.8616455e-09
4.6038974e-07
1.871139e-09
4.5990382e-07
1.8817645e-09
4.5941494e-07
1.8934939e-09
4.5892284e-07
1.9063005e-09
4.5842724e-07
1.9201588e-09
4.5792789e-07
1.9350436e-09
4.5742452e-07
1.950929e-09
4.5691687e-07
1.9677895e-09
4.5640471e-07
1.9856047e-09
4.558878e-07
2.0043592e-09
4.5536587e-07
2.0240514e-09
4.548387e-07
2.0446776e-09
4.5430603e-07
2.066219e-09
4.5376764e-07
2.0886541e-09
4.532233e-07
2.1119103e-09
4.526728e-07
2.1360056e-09
4.5211606e-07
2.1603048e-09
4.5155272e-07
2.1859446e-09
4.5098279e-07
2.2129524e-09
4.504352e-07
2.1281023e-09
4.4992964e-07
1.9644407e-09
4.4946656e-07
1.7971104e-09
4.4904304e-07
1.6408586e-09
4.4865548e-07
1.4988526e-09
4.4830048e-07
1.3705407e-09
4.4797491e-07
1.2547827e-09
4.4767595e-07
1.1504487e-09
4.4740099e-07
1.0564711e-09
4.471477e-07
9.7181273e-10
4.46914e-07
8.9548475e-10
4.4669801e-07
8.2659297e-10
4.4649804e-07
7.6432389e-10
4.4631261e-07
7.079534e-10
4.4614038e-07
6.5683103e-10
4.4598014e-07
6.1041477e-10
4.4583086e-07
5.6811387e-10
4.4569146e-07
5.2995315e-10
4.4556145e-07
4.9379827e-10
4.4543815e-07
4.6783177e-10
4.4532752e-07
4.1941081e-10
4.4519764e-07
4.9162971e-10
3.0278365e-10
2.8986233e-06
2.0784186e-11
2.8986151e-06
4.2722518e-11
2.898606e-06
4.6754568e-11
2.898596e-06
5.1474625e-11
2.8985842e-06
6.0173044e-11
2.8985705e-06
7.0904861e-11
2.8985543e-06
8.3886956e-11
2.8985351e-06
9.990608e-11
2.8985122e-06
1.1976128e-10
2.8984848e-06
1.4441171e-10
2.8984517e-06
1.7517319e-10
2.8984114e-06
2.1399691e-10
2.8983621e-06
2.6358896e-10
2.898301e-06
3.2860581e-10
2.8982243e-06
4.1476028e-10
2.8981257e-06
5.3696508e-10
2.8979973e-06
7.044561e-10
2.8978181e-06
9.9069263e-10
2.8975734e-06
1.3646458e-09
2.8971544e-06
2.3661856e-09
2.896559e-06
3.3790351e-09
2.8948713e-06
9.5948426e-09
2.8946594e-06
8.2304354e-10
2.0419215e-06
6.9229413e-06
1.0186154e-06
7.6063161e-06
8.0611862e-07
8.5455901e-07
7.4775594e-07
2.4674431e-07
7.2065485e-07
1.1993838e-07
7.0072333e-07
8.938605e-08
6.8478487e-07
7.1096499e-08
6.7194934e-07
5.6968396e-08
6.6143772e-07
4.6538053e-08
6.5266164e-07
3.8797758e-08
6.4521005e-07
3.2902088e-08
6.3879372e-07
2.829722e-08
6.3320483e-07
2.4619405e-08
6.2828946e-07
2.1628093e-08
6.2393031e-07
1.9159492e-08
6.2003635e-07
1.709613e-08
6.1653589e-07
1.5351701e-08
6.1337164e-07
1.3862153e-08
6.1049714e-07
1.2579407e-08
6.0787416e-07
1.1466625e-08
6.0547097e-07
1.0495012e-08
6.032609e-07
9.6419048e-09
6.0122135e-07
8.8892262e-09
5.9933303e-07
8.2222794e-09
5.9757932e-07
7.6290361e-09
5.9594586e-07
7.0996507e-09
5.9442007e-07
6.6259429e-09
5.9299096e-07
6.2009873e-09
5.9164884e-07
5.8189236e-09
5.9038514e-07
5.4747992e-09
5.8919225e-07
5.1643914e-09
5.8806335e-07
4.8840319e-09
5.8699237e-07
4.6305172e-09
5.8597385e-07
4.4010686e-09
5.8500288e-07
4.1932594e-09
5.8407502e-07
4.0049553e-09
5.8318627e-07
3.8342601e-09
5.8233301e-07
3.6794788e-09
5.8151196e-07
3.5391048e-09
5.8072012e-07
3.4118058e-09
5.7995479e-07
3.2963924e-09
5.7921349e-07
3.1917956e-09
5.7849396e-07
3.0970475e-09
5.7779417e-07
3.0112682e-09
5.7711222e-07
2.9336694e-09
5.764464e-07
2.8635504e-09
5.7579515e-07
2.8002824e-09
5.7515702e-07
2.7432989e-09
5.7453069e-07
2.6920865e-09
5.7391494e-07
2.6461734e-09
5.7330865e-07
2.6051324e-09
5.7271079e-07
2.5685828e-09
5.7212041e-07
2.5361853e-09
5.7153662e-07
2.5076381e-09
5.7095862e-07
2.4826712e-09
5.7038563e-07
2.4610249e-09
5.6981694e-07
2.4425104e-09
5.692519e-07
2.4268257e-09
5.6868987e-07
2.4139651e-09
5.6813026e-07
2.4036821e-09
5.6757255e-07
2.3956715e-09
5.6701622e-07
2.3899979e-09
5.6646076e-07
2.3864755e-09
5.6590571e-07
2.385017e-09
5.6535063e-07
2.385518e-09
5.6479509e-07
2.3878916e-09
5.6423869e-07
2.3920572e-09
5.6368102e-07
2.3979408e-09
5.6312173e-07
2.4054766e-09
5.6256043e-07
2.4146083e-09
5.6199679e-07
2.4252879e-09
5.6143046e-07
2.4374731e-09
5.6086109e-07
2.4511251e-09
5.6028838e-07
2.4662085e-09
5.5971199e-07
2.4826895e-09
5.5913161e-07
2.5005363e-09
5.5854694e-07
2.519717e-09
5.5795767e-07
2.5401989e-09
5.5736351e-07
2.56195e-09
5.5676417e-07
2.5849446e-09
5.5615936e-07
2.6091644e-09
5.5554881e-07
2.634609e-09
5.5493221e-07
2.6612757e-09
5.5430929e-07
2.6891422e-09
5.5367976e-07