/*--------------------------------*- C++ -*----------------------------------*\
  =========                 |
  \\      /  F ield         | OpenFOAM: The Open Source CFD Toolbox
   \\    /   O peration     | Website:  https://openfoam.org
    \\  /    A nd           | Version:  12
     \\/     M anipulation  |
\*---------------------------------------------------------------------------*/
FoamFile
{
    format      ascii;
    class       volVectorField;
    location    "200";
    object      U;
}
// * * * * * * * * * * * * * * * * * * * * * * * * * * * * * * * * * * * * * //

dimensions      [0 1 -1 0 0 0 0];

internalField   nonuniform List<vector> 
13056
(
(1 2.2409474e-11 2.3293599e-24)
(0.99999829 5.1299314e-11 0)
(0.99999634 6.2607701e-11 0)
(0.99999434 7.8185069e-11 0)
(0.99999202 1.0412622e-10 0)
(0.99998927 1.3978052e-10 0)
(0.99998601 1.8837211e-10 0)
(0.99998212 2.5546244e-10 0)
(0.99997745 3.4847338e-10 0)
(0.9999718 4.7766067e-10 0)
(0.99996494 6.5771005e-10 0)
(0.99995654 9.1039557e-10 0)
(0.99994617 1.2676316e-09 0)
(0.99993328 1.7812207e-09 0)
(0.99991699 2.5247534e-09 0)
(0.99989619 3.654597e-09 0)
(0.99986864 5.3306031e-09 0)
(0.99983223 8.2852537e-09 0)
(0.99977805 1.2508025e-08 0)
(0.99970589 2.3619341e-08 0)
(0.99955729 3.5979627e-08 0)
(0.99938623 1.071129e-07 0)
(0.99865679 5.098852e-09 -1.3645095e-20)
(0.99933418 0.00012039367 2.2321132e-16)
(0.036849244 0.00012507242 0)
(0.025724198 2.2429122e-07 -5.3160989e-20)
(0.022730659 7.4244681e-08 3.093562e-20)
(0.02146065 2.0801367e-07 -8.0669011e-18)
(0.020542508 3.0660166e-08 0)
(0.019823353 2.3903489e-08 0)
(0.01925983 1.8876817e-08 0)
(0.018807996 1.5268122e-08 0)
(0.018436774 1.2621173e-08 0)
(0.018125758 1.0615407e-08 0)
(0.017861024 9.0533908e-09 0)
(0.017632752 7.808523e-09 0)
(0.0174338 6.7985044e-09 0)
(0.017258805 5.9670191e-09 0)
(0.017103655 5.2736467e-09 0)
(0.016965148 4.6887493e-09 0)
(0.01684075 4.190253e-09 0)
(0.016728425 3.7620863e-09 0)
(0.016626509 3.3914498e-09 0)
(0.016533632 3.0683563e-09 0)
(0.016448653 2.7854006e-09 0)
(0.01637061 2.5363494e-09 0)
(0.016298686 2.3159834e-09 0)
(0.016232183 2.1202962e-09 0)
(0.016170501 1.9460815e-09 0)
(0.016113118 1.7904887e-09 0)
(0.016059579 1.6510078e-09 0)
(0.016009486 1.5256915e-09 0)
(0.015962488 1.4129382e-09 0)
(0.015918275 1.3113187e-09 0)
(0.015876572 1.2194895e-09 0)
(0.015837132 1.1363154e-09 0)
(0.015799738 1.0609066e-09 0)
(0.015764193 9.9246309e-10 0)
(0.015730321 9.3024859e-10 0)
(0.015697962 8.7359605e-10 0)
(0.015666975 8.2188548e-10 0)
(0.015637229 7.7461761e-10 0)
(0.015608609 7.3138666e-10 0)
(0.015581008 6.9177991e-10 0)
(0.01555433 6.5542852e-10 0)
(0.015528488 6.2200201e-10 0)
(0.015503402 5.9118362e-10 0)
(0.015479001 5.627211e-10 0)
(0.015455218 5.3640756e-10 0)
(0.015431994 5.1202891e-10 0)
(0.015409273 4.8939388e-10 0)
(0.015387004 4.683322e-10 0)
(0.015365141 4.4868111e-10 0)
(0.015343642 4.3030286e-10 0)
(0.015322467 4.1308613e-10 0)
(0.01530158 3.9692331e-10 0)
(0.015280947 3.8171691e-10 0)
(0.015260538 3.6737622e-10 0)
(0.015240324 3.5381473e-10 0)
(0.015220277 3.4098038e-10 0)
(0.015200371 3.2877134e-10 0)
(0.015180586 3.17164e-10 0)
(0.015160895 3.0611645e-10 0)
(0.015141281 2.9553829e-10 0)
(0.015121722 2.8541947e-10 0)
(0.015102201 2.7570866e-10 0)
(0.0150827 2.6637565e-10 0)
(0.015063202 2.5739146e-10 0)
(0.01504369 2.4872676e-10 0)
(0.01502415 2.4035512e-10 0)
(0.015004566 2.3225167e-10 0)
(0.014984925 2.2439423e-10 0)
(0.014965213 2.167642e-10 0)
(0.014945416 2.0934511e-10 0)
(0.014925523 2.0212111e-10 0)
(0.014905521 1.9507761e-10 0)
(0.014885398 1.8820142e-10 0)
(0.014865142 1.8148047e-10 0)
(0.014844743 1.7490357e-10 0)
(0.014824188 1.6846035e-10 0)
(0.014803468 1.6214121e-10 0)
(0.014782572 1.5593744e-10 0)
(0.014761489 1.498416e-10 0)
(0.014740212 1.4384761e-10 0)
(0.014718728 1.3795109e-10 0)
(0.01469703 1.3214812e-10 0)
(0.014675107 1.2643428e-10 0)
(0.014652951 1.2080527e-10 0)
(0.014630552 1.152553e-10 0)
(0.014607904 1.0978192e-10 0)
(0.014584996 1.0436502e-10 0)
(0.014561837 9.9003954e-11 0)
(0.014538389 9.3991942e-11 0)
(0.014515165 8.8938183e-11 0)
(0.014493312 8.3143506e-11 0)
(0.014473329 7.6988858e-11 0)
(0.014455134 7.1044416e-11 0)
(0.014438571 6.5491603e-11 0)
(0.014423478 6.0361578e-11 0)
(0.014409707 5.5649461e-11 0)
(0.014397122 5.1338954e-11 0)
(0.014385602 4.740813e-11 0)
(0.014375038 4.382994e-11 0)
(0.014365332 4.0574856e-11 0)
(0.014356399 3.7613977e-11 0)
(0.014348161 3.4919435e-11 0)
(0.014340551 3.2465384e-11 0)
(0.014333508 3.0227785e-11 0)
(0.014326979 2.8186354e-11 0)
(0.014320915 2.6317687e-11 0)
(0.014315278 2.462613e-11 0)
(0.014310017 2.3015725e-11 0)
(0.014305138 2.1863614e-11 0)
(0.014300424 7.977349e-11 0)
(0.01429655 2.2963424e-11 1.1868175e-23)
(0.014290376 5.7810337e-11 0)
(1 6.8986049e-11 0)
(0.99999822 1.581923e-10 0)
(0.99999619 1.9328476e-10 0)
(0.9999941 2.4137097e-10 0)
(0.99999168 3.2133461e-10 0)
(0.99998881 4.3117605e-10 0)
(0.99998541 5.8079005e-10 0)
(0.99998137 7.8724635e-10 0)
(0.99997651 1.0733097e-09 0)
(0.99997064 1.4704176e-09 0)
(0.99996352 2.0235626e-09 0)
(0.99995481 2.7994209e-09 0)
(0.99994408 3.895661e-09 0)
(0.99993073 5.4707578e-09 0)
(0.9999139 7.7496289e-09 0)
(0.99989243 1.1210221e-08 0)
(0.99986403 1.6339914e-08 0)
(0.99982654 2.5375873e-08 0)
(0.99977083 3.82768e-08 0)
(0.99969677 7.2190611e-08 0)
(0.99954459 1.0993689e-07 0)
(0.99936943 3.2732758e-07 0)
(0.99862219 1.5256747e-08 4.8732112e-20)
(0.9993105 0.00035736336 -3.0526205e-20)
(0.1076151 0.00036368377 0)
(0.076739319 7.0147958e-06 0)
(0.067936247 2.182091e-06 4.4849188e-20)
(0.064198374 1.1214184e-06 0)
(0.061492442 8.2865309e-07 0)
(0.059368755 6.4313552e-07 -1.4202494e-22)
(0.057702163 5.0430992e-07 0)
(0.056364475 4.0492156e-07 0)
(0.055264491 3.3240268e-07 0)
(0.054342236 2.7774161e-07 0)
(0.053556737 2.3540694e-07 0)
(0.052879061 2.0186491e-07 0)
(0.052288142 1.7479723e-07 0)
(0.05176815 1.526257e-07 0)
(0.051306942 1.342262e-07 0)
(0.050895057 1.1878043e-07 0)
(0.050525002 1.0568402e-07 0)
(0.050190753 9.4485944e-08 0)
(0.049887391 8.4839976e-08 0)
(0.04961086 7.6476096e-08 0)
(0.049357779 6.9183513e-08 0)
(0.049125299 6.2793686e-08 0)
(0.048911 5.7169302e-08 0)
(0.048712815 5.2198956e-08 0)
(0.048528961 4.7791894e-08 0)
(0.048357891 4.3872295e-08 0)
(0.048198255 4.0375847e-08 0)
(0.048048871 3.7248697e-08 0)
(0.0479087 3.4445606e-08 0)
(0.047776818 3.192786e-08 0)
(0.047652408 2.9661696e-08 0)
(0.047534741 2.7617817e-08 0)
(0.047423165 2.5771142e-08 0)
(0.047317098 2.4099854e-08 0)
(0.047216016 2.2584751e-08 0)
(0.047119445 2.1208831e-08 0)
(0.047026961 1.9956982e-08 0)
(0.046938179 1.8815965e-08 0)
(0.046852753 1.7774231e-08 0)
(0.046770367 1.6821461e-08 0)
(0.046690734 1.5948434e-08 0)
(0.046613595 1.5146885e-08 0)
(0.046538712 1.4409376e-08 0)
(0.046465872 1.3729359e-08 0)
(0.046394877 1.310108e-08 0)
(0.046325549 1.2519375e-08 0)
(0.046257722 1.1979609e-08 0)
(0.046191246 1.1477625e-08 0)
(0.046125983 1.1009646e-08 0)
(0.046061805 1.0572302e-08 0)
(0.045998596 1.0162629e-08 0)
(0.045936248 9.7779771e-09 0)
(0.04587466 9.4159771e-09 0)
(0.045813741 9.0744999e-09 0)
(0.045753402 8.7515551e-09 0)
(0.045693565 8.4455804e-09 4.7407171e-25)
(0.045634152 8.1546077e-09 0)
(0.045575099 7.8777887e-09 0)
(0.04551633 7.6137114e-09 0)
(0.04545779 7.360683e-09 0)
(0.045399418 7.1182269e-09 0)
(0.04534116 6.8852461e-09 0)
(0.045282962 6.6609579e-09 0)
(0.045224773 6.4445684e-09 0)
(0.045166547 6.2353814e-09 0)
(0.045108236 6.0327592e-09 0)
(0.045049797 5.836119e-09 0)
(0.044991188 5.6449358e-09 0)
(0.044932368 5.4587447e-09 0)
(0.044873299 5.277131e-09 0)
(0.044813942 5.0997177e-09 0)
(0.04475426 4.926161e-09 0)
(0.044694218 4.7561485e-09 0)
(0.044633781 4.5893976e-09 0)
(0.044572915 4.4256525e-09 0)
(0.044511587 4.2646824e-09 0)
(0.044449766 4.1062788e-09 0)
(0.044387419 3.9502587e-09 0)
(0.044324516 3.7964711e-09 0)
(0.044261029 3.6447939e-09 0)
(0.044196929 3.4951478e-09 0)
(0.044132185 3.347463e-09 0)
(0.044066771 3.2016614e-09 0)
(0.044000657 3.0576858e-09 0)
(0.043933818 2.9154272e-09 0)
(0.043866231 2.7749429e-09 0)
(0.043797868 2.6354622e-09 0)
(0.04372875 2.4984996e-09 0)
(0.043658769 2.3658276e-09 0)
(0.043589449 2.2193648e-09 0)
(0.043524198 2.0473895e-09 0)
(0.043464497 1.8692518e-09 0)
(0.043410113 1.7024871e-09 0)
(0.043360581 1.5511383e-09 0)
(0.043315426 1.4147883e-09 0)
(0.043274207 1.2922067e-09 0)
(0.043236527 1.1821005e-09 0)
(0.043202024 1.0832454e-09 0)
(0.043170373 9.9446046e-10 0)
(0.043141286 9.1463195e-10 0)
(0.043114506 8.4276337e-10 0)
(0.043089804 7.7795471e-10 0)
(0.043066979 7.1941066e-10 0)
(0.04304585 6.6642223e-10 0)
(0.043026259 6.1839882e-10 0)
(0.043008061 5.7471068e-10 0)
(0.042991137 5.3534706e-10 0)
(0.042975343 4.9815095e-10 0)
(0.042960691 4.7129626e-10 0)
(0.042946535 4.2400055e-10 0)
(0.042934896 4.9322314e-10 -1.8537868e-23)
(0.042916342 3.0581648e-10 1.8489953e-24)
(1 1.1859505e-10 0)
(0.99999814 2.7226127e-10 0)
(0.99999601 3.3311263e-10 0)
(0.99999381 4.1598376e-10 0)
(0.99999125 5.5357087e-10 0)
(0.99998824 7.4246018e-10 0)
(0.99998467 9.9959458e-10 0)
(0.99998043 1.354212e-09 0)
(0.99997534 1.8452812e-09 0)
(0.99996921 2.5265837e-09 0)
(0.99996176 3.4750444e-09 0)
(0.99995267 4.8046044e-09 0)
(0.99994148 6.6820624e-09 0)
(0.99992759 9.3779603e-09 0)
(0.99991009 1.3275899e-08 0)
(0.99988779 1.9191093e-08 0)
(0.99985835 2.7952723e-08 0)
(0.99981955 4.3373752e-08 0)
(0.99976199 6.5367961e-08 0)
(0.99968564 1.2312989e-07 0)
(0.99952915 1.8746324e-07 0)
(0.99934908 5.5809468e-07 0)
(0.99858065 2.9005073e-08 -2.5789502e-20)
(0.99928137 0.00057837551 2.9889862e-54)
(0.17277572 0.00059422771 -5.0325001e-54)
(0.12452386 2.0152734e-05 0)
(0.11074994 6.2970498e-06 -2.1048958e-20)
(0.10493476 3.2024924e-06 0)
(0.10071673 2.3845693e-06 0)
(0.097390287 1.8546837e-06 1.3660437e-22)
(0.094769738 1.45655e-06 0)
(0.092660697 1.1706669e-06 0)
(0.090922823 9.6173186e-07 0)
(0.089463223 8.0407699e-07 0)
(0.088218202 6.8187314e-07 0)
(0.087142673 5.8498595e-07 0)
(0.086203744 5.0675448e-07 0)
(0.08537665 4.4264093e-07 0)
(0.084642362 3.8941081e-07 0)
(0.083986035 3.4470739e-07 0)
(0.083395895 3.0678959e-07 0)
(0.082862465 2.7435593e-07 0)
(0.082378001 2.4640827e-07 0)
(0.081936107 2.2216819e-07 0)
(0.081531451 2.0102644e-07 0)
(0.081159532 1.8249633e-07 0)
(0.080816525 1.6618193e-07 0)
(0.080499159 1.5176127e-07 0)
(0.080204611 1.3897155e-07 0)
(0.079930431 1.2759366e-07 0)
(0.079674477 1.1744206e-07 0)
(0.079434874 1.0836095e-07 0)
(0.079209971 1.0021915e-07 0)
(0.078998303 9.2904559e-08 0)
(0.078798567 8.6319654e-08 0)
(0.078609604 8.0379766e-08 0)
(0.078430378 7.5012142e-08 0)
(0.07825996 7.0153463e-08 0)
(0.078097514 6.5748092e-08 0)
(0.077942287 6.1746825e-08 0)
(0.077793599 5.8105936e-08 0)
(0.077650839 5.478704e-08 0)
(0.077513451 5.1756548e-08 0)
(0.077380931 4.8984498e-08 0)
(0.077252822 4.6444153e-08 0)
(0.077128708 4.4111558e-08 0)
(0.077008209 4.1965163e-08 0)
(0.076890982 3.9985939e-08 0)
(0.076776713 3.8157134e-08 0)
(0.076665115 3.646373e-08 0)
(0.076555923 3.4892274e-08 0)
(0.076448896 3.343069e-08 0)
(0.076343813 3.2068028e-08 0)
(0.076240469 3.0794497e-08 0)
(0.076138678 2.9601459e-08 0)
(0.076038266 2.8481199e-08 0)
(0.075939073 2.7426825e-08 0)
(0.07584095 2.6432155e-08 0)
(0.075743757 2.5491417e-08 0)
(0.075647368 2.4600041e-08 0)
(0.075551658 2.3752342e-08 2.2333162e-25)
(0.075456523 2.2945861e-08 0)
(0.075361841 2.217642e-08 0)
(0.075267525 2.143914e-08 0)
(0.075173478 2.0732652e-08 0)
(0.075079611 2.0053755e-08 0)
(0.074985837 1.9400175e-08 0)
(0.074892078 1.8769601e-08 0)
(0.074798254 1.8160007e-08 0)
(0.074704292 1.7569544e-08 0)
(0.074610122 1.6996519e-08 0)
(0.074515676 1.6439409e-08 0)
(0.074420888 1.5896861e-08 0)
(0.074325696 1.5367669e-08 0)
(0.074230037 1.4850737e-08 0)
(0.074133854 1.4345067e-08 0)
(0.074037086 1.3849752e-08 0)
(0.07393968 1.3363969e-08 0)
(0.073841578 1.2886975e-08 0)
(0.073742729 1.2418097e-08 0)
(0.07364308 1.1956729e-08 0)
(0.07354258 1.1502336e-08 0)
(0.073441181 1.1054478e-08 0)
(0.073338833 1.0612799e-08 0)
(0.073235491 1.0177066e-08 0)
(0.073131105 9.7470753e-09 0)
(0.07302563 9.3225989e-09 0)
(0.072919021 8.9034663e-09 0)
(0.072811233 8.4893583e-09 0)
(0.072702229 8.0804339e-09 0)
(0.072591962 7.6744663e-09 0)
(0.072480466 7.2757945e-09 0)
(0.072367567 6.8893831e-09 0)
(0.072255734 6.463257e-09 0)
(0.072150432 5.963905e-09 0)
(0.072054029 5.4470004e-09 0)
(0.071966153 4.9629555e-09 0)
(0.071886064 4.5234193e-09 0)
(0.071813006 4.1272097e-09 0)
(0.071746281 3.7708075e-09 0)
(0.07168525 3.4505129e-09 0)
(0.071629339 3.1628146e-09 0)
(0.071578026 2.9043169e-09 0)
(0.07153085 2.6718098e-09 0)
(0.071487398 2.4624167e-09 0)
(0.071447304 2.2735357e-09 0)
(0.071410241 2.1028654e-09 0)
(0.071375923 1.9483518e-09 0)
(0.071344091 1.8082835e-09 0)
(0.071314515 1.6808304e-09 0)
(0.071287 1.5659739e-09 0)
(0.071261314 1.4574027e-09 0)
(0.071237479 1.3790628e-09 0)
(0.071214445 1.233057e-09 0)
(0.071195503 1.4444563e-09 0)
(0.071165289 8.888722e-10 0)
(1 1.7258597e-10 4.855485e-24)
(0.99999805 3.9693559e-10 0)
(0.99999578 4.8649295e-10 0)
(0.99999345 6.075218e-10 0)
(0.99999074 8.080729e-10 0)
(0.99998755 1.0832284e-09 0)
(0.99998377 1.45754e-09 0)
(0.99997929 1.9733974e-09 0)
(0.99997392 2.6872623e-09 0)
(0.99996745 3.676999e-09 0)
(0.99995961 5.0539016e-09 0)
(0.99995006 6.9827216e-09 0)
(0.99993832 9.7044592e-09 0)
(0.99992377 1.3609843e-08 0)
(0.99990546 1.9252237e-08 0)
(0.99988218 2.7807845e-08 0)
(0.99985148 4.0469159e-08 0)
(0.99981111 6.2733218e-08 0)
(0.99975135 9.4446714e-08 0)
(0.99967227 1.776475e-07 0)
(0.99951067 2.7034401e-07 0)
(0.99932483 8.048014e-07 0)
(0.99853147 4.5823727e-08 0)
(0.9992462 0.00079044293 -1.5599338e-54)
(0.23013659 0.00082280515 2.2858508e-54)
(0.16625613 3.957748e-05 0)
(0.14863202 1.2284194e-05 0)
(0.14131121 6.2287417e-06 0)
(0.1360104 4.6391022e-06 0)
(0.13180806 3.6199325e-06 0)
(0.1284826 2.8498249e-06 0)
(0.12579838 2.2944189e-06 0)
(0.12358174 1.8874526e-06 0)
(0.12171664 1.5798245e-06 0)
(0.12012318 1.3410317e-06 0)
(0.11874466 1.1514757e-06 0)
(0.11753966 9.9825004e-07 0)
(0.11647693 8.7255341e-07 0)
(0.11553242 7.6810322e-07 0)
(0.11468735 6.8031512e-07 0)
(0.11392679 6.0579908e-07 0)
(0.11323871 5.4201682e-07 0)
(0.11261328 4.8702216e-07 0)
(0.11204238 4.3929625e-07 0)
(0.1115192 3.9764766e-07 0)
(0.11103803 3.611251e-07 0)
(0.11059397 3.2895497e-07 0)
(0.11018286 3.0050671e-07 0)
(0.10980109 2.7526495e-07 0)
(0.10944553 2.528005e-07 0)
(0.10911343 2.327501e-07 0)
(0.1088024 2.1480797e-07 0)
(0.10851031 1.9871623e-07 0)
(0.1082353 1.8425462e-07 0)
(0.10797568 1.7123185e-07 0)
(0.10772997 1.5948168e-07 0)
(0.10749684 1.4886079e-07 0)
(0.10727508 1.3924446e-07 0)
(0.10706363 1.3052317e-07 0)
(0.10686152 1.2260009e-07 0)
(0.10666787 1.1538922e-07 0)
(0.10648188 1.0881487e-07 0)
(0.10630284 1.0281065e-07 0)
(0.10613011 9.7317441e-08 0)
(0.10596309 9.2282501e-08 0)
(0.10580124 8.7658577e-08 0)
(0.10564407 8.3403179e-08 0)
(0.10549114 7.9478687e-08 0)
(0.10534203 7.585191e-08 0)
(0.10519639 7.2493152e-08 0)
(0.10505387 6.9375828e-08 0)
(0.10491414 6.6476062e-08 0)
(0.10477694 6.3772224e-08 0)
(0.10464198 6.1244945e-08 0)
(0.10450904 5.8877088e-08 0)
(0.10437788 5.6653367e-08 0)
(0.10424829 5.456014e-08 0)
(0.10412009 5.2585169e-08 0)
(0.10399309 5.0717057e-08 0)
(0.10386713 4.8946691e-08 4.6346565e-25)
(0.10374205 4.7262892e-08 0)
(0.10361771 4.5660812e-08 0)
(0.10349395 4.413203e-08 0)
(0.10337066 4.2666955e-08 0)
(0.10324771 4.1262922e-08 0)
(0.10312499 3.9913565e-08 0)
(0.10300239 3.8614378e-08 0)
(0.1028798 3.7360782e-08 0)
(0.10275712 3.6148769e-08 0)
(0.10263426 3.4974675e-08 0)
(0.10251112 3.3835155e-08 0)
(0.10238761 3.2727197e-08 0)
(0.10226365 3.1648122e-08 0)
(0.10213917 3.0595539e-08 0)
(0.10201406 2.956728e-08 0)
(0.10188827 2.8561372e-08 0)
(0.10176171 2.757602e-08 0)
(0.10163432 2.6609597e-08 0)
(0.10150601 2.566063e-08 0)
(0.10137672 2.4727787e-08 0)
(0.10124637 2.3809865e-08 0)
(0.10111491 2.2905804e-08 0)
(0.10098227 2.2014729e-08 0)
(0.10084839 2.1135936e-08 0)
(0.10071319 2.0268964e-08 0)
(0.10057662 1.9413409e-08 0)
(0.10043862 1.8568817e-08 0)
(0.10029913 1.7734848e-08 0)
(0.10015808 1.6910864e-08 0)
(0.10001543 1.6097172e-08 0)
(0.09987111 1.5289353e-08 0)
(0.099725168 1.4496031e-08 0)
(0.099577375 1.3725834e-08 0)
(0.099431013 1.2876102e-08 0)
(0.099293189 1.1882598e-08 0)
(0.099166941 1.0855583e-08 0)
(0.099051773 9.8940305e-09 0)
(0.098946728 9.0206818e-09 0)
(0.098850831 8.2331111e-09 0)
(0.098763183 7.5243508e-09 0)
(0.098682961 6.8871221e-09 0)
(0.098609421 6.3145122e-09 0)
(0.09854189 5.7998289e-09 0)
(0.098479768 5.3367368e-09 0)
(0.09842252 4.9195506e-09 0)
(0.098369669 4.5431238e-09 0)
(0.098320791 4.2028998e-09 0)
(0.098275511 3.894808e-09 0)
(0.098233495 3.6154564e-09 0)
(0.098194439 3.3612089e-09 0)
(0.09815809 3.1320523e-09 0)
(0.098124144 2.9153659e-09 0)
(0.098092632 2.7591055e-09 0)
(0.098062167 2.4707909e-09 0)
(0.098037107 2.8916864e-09 0)
(0.097997108 1.7808782e-09 0)
(1 2.3243119e-10 0)
(0.99999793 5.3579701e-10 0)
(0.99999551 6.5806784e-10 0)
(0.99999301 8.2179034e-10 0)
(0.99999012 1.092467e-09 0)
(0.99998671 1.4635715e-09 0)
(0.99998269 1.9680109e-09 0)
(0.99997791 2.6626425e-09 0)
(0.9999722 3.6231455e-09 0)
(0.99996534 4.9537967e-09 0)
(0.99995703 6.8035215e-09 0)
(0.99994693 9.3926273e-09 0)
(0.99993453 1.3043105e-08 0)
(0.99991918 1.8276741e-08 0)
(0.99989991 2.5831499e-08 0)
(0.99987546 3.7276338e-08 0)
(0.99984328 5.4195922e-08 0)
(0.99980104 8.3916433e-08 0)
(0.99973869 1.2618844e-07 0)
(0.99965639 2.3696041e-07 0)
(0.99948881 3.603902e-07 0)
(0.99929623 1.072831e-06 0)
(0.9984739 6.6823302e-08 0)
(0.99920427 0.00099820967 0)
(0.28072058 0.0010505651 0)
(0.20236319 6.4972314e-05 0)
(0.18158096 1.9820234e-05 0)
(0.1731418 9.9786171e-06 -5.3147166e-22)
(0.1670724 7.4348048e-06 0)
(0.16224284 5.8193156e-06 0)
(0.15840724 4.5922605e-06 0)
(0.15530486 3.7032865e-06 0)
(0.15273943 3.0502519e-06 0)
(0.15057846 2.5558357e-06 0)
(0.14873032 2.1715736e-06 0)
(0.14712996 1.8662046e-06 0)
(0.1457298 1.6191118e-06 0)
(0.14449395 1.4162285e-06 0)
(0.14339473 1.247501e-06 0)
(0.1424105 1.1055825e-06 0)
(0.14152408 9.8503554e-07 0)
(0.14072159 8.8178383e-07 0)
(0.1399917 7.9270202e-07 0)
(0.13932502 7.1534963e-07 0)
(0.13871372 6.4780916e-07 0)
(0.13815117 5.8854987e-07 0)
(0.13763174 5.3632698e-07 0)
(0.13715059 4.9012433e-07 0)
(0.13670356 4.4911047e-07 0)
(0.13628701 4.125933e-07 0)
(0.13589778 3.7998726e-07 0)
(0.13553307 3.5079855e-07 0)
(0.13519044 3.2461019e-07 0)
(0.1348677 3.0106615e-07 0)
(0.13456292 2.7985744e-07 0)
(0.13427436 2.6071537e-07 0)
(0.13400047 2.4340778e-07 0)
(0.13373987 2.2773257e-07 0)
(0.1334913 2.1351229e-07 0)
(0.13325363 2.0059013e-07 0)
(0.13302585 1.8882677e-07 0)
(0.13280702 1.780994e-07 0)
(0.13259632 1.6830009e-07 0)
(0.13239299 1.5933284e-07 0)
(0.13219634 1.5111199e-07 0)
(0.13200573 1.4356079e-07 0)
(0.1318206 1.3661021e-07 0)
(0.13164042 1.3019905e-07 0)
(0.13146473 1.242732e-07 0)
(0.13129308 1.1878432e-07 0)
(0.13112507 1.1368913e-07 0)
(0.13096034 1.0894874e-07 0)
(0.13079856 1.0452795e-07 0)
(0.13063941 1.0039521e-07 0)
(0.13048261 9.6522521e-08 0)
(0.13032789 9.288496e-08 0)
(0.13017502 8.9460272e-08 0)
(0.13002376 8.622851e-08 0)
(0.12987391 8.3171113e-08 0)
(0.12972527 8.0273151e-08 -4.543518e-25)
(0.12957765 7.7516468e-08 0)
(0.1294309 7.4893236e-08 0)
(0.12928483 7.2389495e-08 0)
(0.1291393 6.9989668e-08 0)
(0.12899418 6.7689536e-08 0)
(0.12884932 6.5478641e-08 0)
(0.12870459 6.334964e-08 0)
(0.12855988 6.1295072e-08 0)
(0.12841506 5.9308403e-08 0)
(0.12827003 5.7383668e-08 0)
(0.12812467 5.5515418e-08 0)
(0.12797887 5.3698752e-08 0)
(0.12783255 5.1929303e-08 0)
(0.12768561 5.0203176e-08 0)
(0.12753794 4.8516842e-08 0)
(0.12738947 4.6867093e-08 0)
(0.12724009 4.5251006e-08 0)
(0.12708973 4.3665932e-08 0)
(0.1269383 4.2109473e-08 0)
(0.12678571 4.0579458e-08 0)
(0.12663189 3.9073924e-08 0)
(0.12647676 3.7591137e-08 0)
(0.12632023 3.6129671e-08 0)
(0.12616224 3.4688375e-08 0)
(0.12600271 3.3266499e-08 0)
(0.12584156 3.1863385e-08 0)
(0.12567872 3.047829e-08 0)
(0.12551411 2.911065e-08 0)
(0.12534768 2.7759415e-08 0)
(0.12517935 2.6425065e-08 0)
(0.12500905 2.5100379e-08 0)
(0.12483683 2.3799477e-08 0)
(0.12466242 2.2533543e-08 0)
(0.12448979 2.1136135e-08 0)
(0.12432727 1.9507813e-08 0)
(0.12417833 1.7828126e-08 0)
(0.12404237 1.6256083e-08 0)
(0.12391825 1.482785e-08 0)
(0.12380485 1.353921e-08 0)
(0.12370111 1.2378806e-08 0)
(0.12360609 1.1334889e-08 0)
(0.12351893 1.0396299e-08 0)
(0.12343883 9.552216e-09 0)
(0.1233651 8.7923776e-09 0)
(0.12329711 8.107558e-09 0)
(0.12323431 7.4893947e-09 0)
(0.1231762 6.9304743e-09 0)
(0.12312234 6.4241656e-09 0)
(0.12307233 5.9649423e-09 0)
(0.12302582 5.5468585e-09 0)
(0.12298252 5.1699521e-09 0)
(0.12294206 4.8133959e-09 0)
(0.12290448 4.5564954e-09 0)
(0.12286813 4.0823187e-09 0)
(0.12283823 4.7786498e-09 -1.7718134e-23)
(0.12279045 2.9430882e-09 1.7676893e-24)
(1 2.9997913e-10 0)
(0.9999978 6.9340122e-10 0)
(0.99999519 8.5378584e-10 0)
(0.9999925 1.0662315e-09 0)
(0.99998938 1.4165127e-09 0)
(0.99998571 1.8963769e-09 0)
(0.99998139 2.5480631e-09 0)
(0.99997627 3.4446228e-09 0)
(0.99997016 4.683219e-09 0)
(0.99996282 6.3975967e-09 0)
(0.99995396 8.7785873e-09 0)
(0.99994319 1.2108268e-08 0)
(0.99993001 1.6798504e-08 0)
(0.99991373 2.3516346e-08 0)
(0.99989333 3.3203736e-08 0)
(0.99986748 4.786385e-08 0)
(0.99983356 6.95111e-08 0)
(0.99978914 1.0748997e-07 0)
(0.99972374 1.6141653e-07 0)
(0.9996377 3.025383e-07 0)
(0.99946318 4.5979803e-07 0)
(0.99926281 1.3686163e-06 0)
(0.9984071 9.3612212e-08 0)
(0.99915473 0.001204856 0)
(0.32652531 0.0012819647 0)
(0.23457291 9.6690226e-05 0)
(0.21093642 2.89626e-05 0)
(0.20156743 1.4431198e-05 0)
(0.19489907 1.0743442e-05 0)
(0.1895805 8.4301094e-06 0)
(0.18534442 6.6657907e-06 0)
(0.1819134 5.3821305e-06 0)
(0.17907421 4.4371181e-06 0)
(0.1766813 3.7208265e-06 0)
(0.1746337 3.1636634e-06 0)
(0.17285967 2.7205575e-06 0)
(0.17130678 2.3617576e-06 0)
(0.16993543 2.0669653e-06 0)
(0.16871509 1.8216605e-06 0)
(0.16762187 1.6152209e-06 0)
(0.1666368 1.4397788e-06 0)
(0.16574459 1.2894324e-06 0)
(0.1649327 1.1596569e-06 0)
(0.16419079 1.0469179e-06 -1.4795143e-34)
(0.16351019 9.4843557e-07 0)
(0.16288359 8.6199081e-07 0)
(0.16230477 7.8577955e-07 0)
(0.16176838 7.1832741e-07 0)
(0.16126982 6.5842706e-07 0)
(0.16080507 6.0507395e-07 0)
(0.16037063 5.5741836e-07 0)
(0.15996342 5.1474283e-07 0)
(0.15958072 4.7644101e-07 0)
(0.15922012 4.4199521e-07 0)
(0.15887946 4.1095646e-07 0)
(0.15855684 3.8293408e-07 0)
(0.15825053 3.5759008e-07 0)
(0.157959 3.3463003e-07 0)
(0.15768086 3.1379552e-07 0)
(0.15741485 2.9485814e-07 0)
(0.15715984 2.7761503e-07 0)
(0.1569148 2.6188706e-07 0)
(0.15667882 2.4751666e-07 0)
(0.15645104 2.3436367e-07 0)
(0.1562307 2.2230307e-07 0)
(0.15601709 2.1122279e-07 0)
(0.15580959 2.0102207e-07 0)
(0.15560761 1.9161141e-07 0)
(0.15541062 1.8291161e-07 0)
(0.15521814 1.7485191e-07 0)
(0.15502973 1.67369e-07 0)
(0.15484497 1.6040597e-07 0)
(0.15466349 1.5391133e-07 0)
(0.15448494 1.4783884e-07 0)
(0.15430902 1.4214751e-07 0)
(0.15413542 1.3680075e-07 0)
(0.15396387 1.3176596e-07 0)
(0.15379413 1.2701393e-07 0)
(0.15362596 1.2251747e-07 0)
(0.15345914 1.1825464e-07 -4.5426128e-25)
(0.15329346 1.1419892e-07 0)
(0.15312875 1.1033896e-07 0)
(0.1529648 1.0665401e-07 0)
(0.15280147 1.031213e-07 0)
(0.15263858 9.9734866e-08 0)
(0.152476 9.6479277e-08 0)
(0.15231357 9.3343774e-08 0)
(0.15215116 9.0317447e-08 0)
(0.15198864 8.7390745e-08 0)
(0.15182589 8.4554938e-08 0)
(0.15166278 8.1802068e-08 0)
(0.1514992 7.9124969e-08 0)
(0.15133504 7.6517259e-08 0)
(0.15117019 7.3973244e-08 0)
(0.15100454 7.1487773e-08 0)
(0.15083801 6.9056163e-08 0)
(0.15067048 6.667415e-08 0)
(0.15050186 6.4337867e-08 0)
(0.15033206 6.2043811e-08 0)
(0.15016098 5.9788809e-08 0)
(0.14998853 5.7569986e-08 0)
(0.14981463 5.5384805e-08 0)
(0.14963918 5.3231175e-08 0)
(0.14946211 5.1107413e-08 0)
(0.14928333 4.9012425e-08 0)
(0.14910275 4.6945249e-08 0)
(0.14892029 4.49048e-08 0)
(0.14873588 4.2890236e-08 0)
(0.14854942 4.0900002e-08 0)
(0.14836085 3.8934767e-08 0)
(0.14817009 3.6983942e-08 0)
(0.14797718 3.5068327e-08 0)
(0.14778181 3.3198581e-08 0)
(0.1475886 3.1133082e-08 0)
(0.14740677 2.873698e-08 0)
(0.14724006 2.6272563e-08 0)
(0.14708776 2.3967656e-08 0)
(0.14694859 2.1873212e-08 0)
(0.14682132 1.9982437e-08 0)
(0.1467048 1.827866e-08 0)
(0.14659798 1.6744873e-08 0)
(0.1464999 1.5364941e-08 0)
(0.1464097 1.4123202e-08 0)
(0.14632662 1.3004775e-08 0)
(0.14624995 1.199625e-08 0)
(0.14617908 1.1085457e-08 0)
(0.14611347 1.0261593e-08 0)
(0.14605261 9.5149781e-09 0)
(0.14599608 8.8375466e-09 0)
(0.14594347 8.2205807e-09 0)
(0.14589446 7.6642433e-09 0)
(0.14584865 7.1376637e-09 0)
(0.14580607 6.7586801e-09 0)
(0.14576487 6.0566463e-09 0)
(0.14573096 7.0933898e-09 0)
(0.14567673 4.3683116e-09 -8.8230354e-25)
(1 3.7750644e-10 0)
(0.99999764 8.7543549e-10 0)
(0.99999481 1.08114e-09 0)
(0.99999189 1.3502248e-09 0)
(0.9999885 1.7924881e-09 0)
(0.99998453 2.3978253e-09 0)
(0.99997985 3.2190639e-09 0)
(0.99997432 4.3476771e-09 0)
(0.99996773 5.905235e-09 0)
(0.99995983 8.0588878e-09 0)
(0.99995031 1.1046871e-08 0)
(0.99993877 1.5221012e-08 0)
(0.99992466 2.1094439e-08 0)
(0.99990728 2.9497671e-08 0)
(0.99988555 4.1601389e-08 0)
(0.99985809 5.9895983e-08 0)
(0.99982212 8.6873313e-08 0)
(0.99977516 1.3413755e-07 0)
(0.99970623 2.0111918e-07 0)
(0.99961584 3.7613063e-07 0)
(0.99943333 5.7115729e-07 0)
(0.99922404 1.6997643e-06 0)
(0.99833018 1.2826184e-07 0)
(0.99909661 0.0014127454 0)
(0.36915689 0.0015213511 0)
(0.26432571 0.00013564531 0)
(0.23793869 3.9932863e-05 0)
(0.22772 1.9655035e-05 1.1130789e-21)
(0.22054172 1.4601597e-05 0)
(0.21480863 1.1480837e-05 0)
(0.21023102 9.093403e-06 0)
(0.20651944 7.3492884e-06 0)
(0.20344684 6.0628242e-06 0)
(0.2008565 5.0869203e-06 0)
(0.19863929 4.3274323e-06 0)
(0.19671769 3.7231304e-06 0)
(0.19503507 3.2335723e-06 0)
(0.19354865 2.831178e-06 0)
(0.19222543 2.4962077e-06 0)
(0.19103962 2.2142066e-06 0)
(0.18997071 1.9744635e-06 0)
(0.18900217 1.76894e-06 0)
(0.18812049 1.5914742e-06 0)
(0.18731448 1.4372527e-06 1.3926771e-34)
(0.18657479 1.3024871e-06 0)
(0.18589353 1.1841536e-06 0)
(0.18526397 1.0797944e-06 0)
(0.18468034 9.8739949e-07 0)
(0.18413767 9.0532208e-07 0)
(0.18363163 8.3219235e-07 0)
(0.18315843 7.6685202e-07 0)
(0.18271473 7.0832219e-07 0)
(0.18229761 6.5577508e-07 0)
(0.18190445 6.0850402e-07 0)
(0.18153294 5.6589645e-07 0)
(0.18118099 5.2741918e-07 0)
(0.18084676 4.9261039e-07 0)
(0.18052857 4.6106767e-07 0)
(0.18022492 4.3243784e-07 0)
(0.17993446 4.0640879e-07 0)
(0.17965595 3.8270322e-07 0)
(0.17938829 3.6107612e-07 0)
(0.17913047 3.4131166e-07 0)
(0.17888157 3.2321792e-07 0)
(0.17864077 3.0662372e-07 0)
(0.17840729 2.9137556e-07 0)
(0.17818046 2.7733541e-07 0)
(0.17795964 2.6438054e-07 0)
(0.17774425 2.5240222e-07 0)
(0.17753377 2.4130334e-07 0)
(0.17732772 2.3099701e-07 0)
(0.17712565 2.214051e-07 0)
(0.17692715 2.1245691e-07 0)
(0.17673185 2.0408898e-07 0)
(0.17653941 1.962449e-07 0)
(0.1763495 1.8887441e-07 0)
(0.17616184 1.8193267e-07 0)
(0.17597614 1.7537953e-07 0)
(0.17579216 1.6917767e-07 0)
(0.17560966 1.6329686e-07 0)
(0.17542841 1.577007e-07 0)
(0.17524822 1.5237385e-07 0)
(0.17506887 1.4728736e-07 0)
(0.1748902 1.4240999e-07 0)
(0.17471203 1.3773391e-07 0)
(0.1745342 1.3323773e-07 0)
(0.17435655 1.2890668e-07 0)
(0.17417894 1.247258e-07 0)
(0.17400123 1.2068202e-07 0)
(0.17382327 1.1676338e-07 0)
(0.17364495 1.1295895e-07 0)
(0.17346613 1.0925895e-07 0)
(0.1732867 1.0565462e-07 0)
(0.17310654 1.0213818e-07 0)
(0.17292554 9.8702578e-08 0)
(0.17274359 9.5341418e-08 0)
(0.17256058 9.2048875e-08 0)
(0.1723764 8.8819662e-08 0)
(0.17219096 8.5648992e-08 0)
(0.17200415 8.2532521e-08 0)
(0.17181588 7.9466311e-08 0)
(0.17162605 7.6446883e-08 0)
(0.17143456 7.3471367e-08 0)
(0.17124133 7.0537462e-08 0)
(0.17104625 6.7643673e-08 0)
(0.17084924 6.4788689e-08 0)
(0.17065021 6.1971024e-08 0)
(0.17044907 5.9189501e-08 0)
(0.17024572 5.6441968e-08 0)
(0.17004009 5.3729279e-08 0)
(0.16983209 5.1036903e-08 0)
(0.16962177 4.8393566e-08 0)
(0.16940879 4.5804469e-08 0)
(0.16919832 4.294191e-08 0)
(0.16900034 3.9638939e-08 0)
(0.16881873 3.6254122e-08 0)
(0.16865265 3.3091385e-08 0)
(0.16850074 3.0217099e-08 0)
(0.16836166 2.7620834e-08 0)
(0.1682342 2.5279602e-08 0)
(0.16811722 2.3170373e-08 0)
(0.16800972 2.1271338e-08 0)
(0.16791078 1.9561318e-08 0)
(0.16781955 1.8020147e-08 0)
(0.16773531 1.662961e-08 0)
(0.16765738 1.5373154e-08 0)
(0.16758517 1.4236057e-08 0)
(0.16751815 1.3205109e-08 0)
(0.16745585 1.2269301e-08 0)
(0.16739784 1.1416674e-08 0)
(0.16734376 1.0647623e-08 0)
(0.16729318 9.9192647e-09 0)
(0.16724615 9.395742e-09 0)
(0.1672006 8.4219104e-09 -2.2955932e-24)
(0.16716309 9.8689696e-09 0)
(0.16710306 6.0777121e-09 0)
(1 4.6783651e-10 0)
(0.99999745 1.0890385e-09 0)
(0.99999437 1.3496287e-09 0)
(0.99999116 1.6856679e-09 0)
(0.99998746 2.23594e-09 0)
(0.99998312 2.9883653e-09 0)
(0.99997803 4.0079566e-09 0)
(0.99997201 5.4074506e-09 0)
(0.99996485 7.3365528e-09 0)
(0.9999563 1.000083e-08 0)
(0.99994601 1.3692903e-08 0)
(0.99993356 1.8844469e-08 0)
(0.99991837 2.6084328e-08 0)
(0.99989971 3.642947e-08 0)
(0.99987642 5.1310505e-08 0)
(0.99984707 7.3771813e-08 0)
(0.99980874 1.0684224e-07 0)
(0.99975883 1.6468917e-07 0)
(0.99968583 2.4648944e-07 0)
(0.99959044 4.5983134e-07 0)
(0.9993988 6.9755335e-07 0)
(0.99917934 2.0752941e-06 0)
(0.99824225 1.7352302e-07 0)
(0.99902882 0.0016236853 -4.1552334e-54)
(0.40972779 0.0017709359 3.9154166e-54)
(0.29261846 0.00018368461 -1.1913107e-19)
(0.26346786 5.3044958e-05 0)
(0.25242288 2.5761277e-05 1.2133026e-21)
(0.24478223 1.9075293e-05 0)
(0.23867645 1.502396e-05 0)
(0.23378986 1.1917797e-05 0)
(0.22982395 9.6395136e-06 0)
(0.22653987 7.9559999e-06 0)
(0.22377078 6.6780919e-06 0)
(0.2214001 5.6832661e-06 0)
(0.21934499 4.8914769e-06 0)
(0.21754498 4.2498295e-06 0)
(0.2159544 3.722276e-06 0)
(0.21453802 3.2830083e-06 0)
(0.2132683 2.9131119e-06 0)
(0.21212334 2.5985652e-06 0)