/*--------------------------------*- C++ -*----------------------------------*\
  =========                 |
  \\      /  F ield         | OpenFOAM: The Open Source CFD Toolbox
   \\    /   O peration     | Website:  https://openfoam.org
    \\  /    A nd           | Version:  12
     \\/     M anipulation  |
\*---------------------------------------------------------------------------*/
FoamFile
{
    format      ascii;
    class       volVectorField;
    location    "200";
    object      wallShearStress;
}
// * * * * * * * * * * * * * * * * * * * * * * * * * * * * * * * * * * * * * //

dimensions      [0 2 -2 0 0 0 0];

internalField   uniform (0 0 0);

boundaryField
{
    bottom
    {
        type            calculated;
        value           nonuniform List<vector> 
112
(
(-0.0073528081 -3.5724902e-05 0)
(-0.0051329244 -2.9293848e-07 -1.7371558e-17)
(-0.0045355987 -8.9566962e-08 1.073391e-17)
(-0.0042821837 -9.0831332e-08 2.5420221e-19)
(-0.0040989797 -3.4475552e-08 0)
(-0.0039554812 -2.6792066e-08 0)
(-0.0038430372 -2.1045834e-08 0)
(-0.0037528794 -1.6926642e-08 0)
(-0.0036788067 -1.3916651e-08 0)
(-0.0036167474 -1.1645128e-08 -1.3477511e-18)
(-0.0035639231 -9.883774e-09 0)
(-0.0035183743 -8.4865004e-09 -9.7801615e-19)
(-0.0034786759 -7.357578e-09 8.462638e-19)
(-0.0034437579 -6.431836e-09 -7.3841239e-19)
(-0.0034127997 -5.6627898e-09 0)
(-0.0033851624 -5.0165133e-09 5.7392383e-19)
(-0.0033603404 -4.4679107e-09 0)
(-0.0033379274 -3.998356e-09 -2.2800142e-19)
(-0.0033175914 -3.5934639e-09 0)
(-0.0032990589 -3.2419711e-09 -3.6869848e-19)
(-0.0032821025 -2.9351853e-09 3.3338092e-19)
(-0.00326653 -2.6661056e-09 0)
(-0.0032521785 -2.4289979e-09 0)
(-0.0032389087 -2.2192312e-09 0)
(-0.0032266008 -2.0330524e-09 -2.2993653e-19)
(-0.0032151508 -1.8673094e-09 0)
(-0.0032044678 -1.7192975e-09 0)
(-0.0031944724 -1.5867885e-09 0)
(-0.0031850945 -1.4679086e-09 0)
(-0.0031762724 -1.3610319e-09 -1.5342591e-19)
(-0.0031679511 -1.264758e-09 1.4251552e-19)
(-0.0031600814 -1.1778434e-09 0)
(-0.0031526199 -1.0992393e-09 0)
(-0.0031455273 -1.0280559e-09 0)
(-0.0031387686 -9.634924e-10 1.0848456e-19)
(-0.0031323118 -9.0481463e-10 0)
(-0.0031261287 -8.5138773e-10 0)
(-0.0031201933 -8.0266216e-10 -9.038798e-20)
(-0.0031144826 -7.5815094e-10 0)
(-0.0031089751 -7.1743318e-10 0)
(-0.0031036519 -6.8010359e-10 0)
(-0.0030984955 -6.4581981e-10 7.2788384e-20)
(-0.0030934899 -6.1425555e-10 -3.4626547e-20)
(-0.003088621 -5.8514025e-10 6.5994163e-20)
(-0.0030838754 -5.5823503e-10 0)
(-0.0030792413 -5.3331604e-10 0)
(-0.0030747077 -5.1020002e-10 -8.641517e-20)
(-0.0030702642 -4.8869878e-10 0)
(-0.0030659017 -4.6864187e-10 5.2963531e-20)
(-0.0030616118 -4.4989603e-10 0)
(-0.0030573867 -4.3234018e-10 0)
(-0.0030532189 -4.1585855e-10 -2.3532125e-20)
(-0.0030491019 -4.0034326e-10 -2.2665148e-20)
(-0.0030450295 -3.8569961e-10 0)
(-0.0030409961 -3.7185901e-10 -4.2147632e-20)
(-0.003036996 -3.5875716e-10 0)
(-0.003033024 -3.4628672e-10 0)
(-0.0030290761 -3.3442281e-10 0)
(-0.0030251471 -3.2311341e-10 0)
(-0.0030212333 -3.1228122e-10 0)
(-0.0030173306 -3.0190547e-10 0)
(-0.0030134354 -2.9193085e-10 0)
(-0.0030095443 -2.8233328e-10 0)
(-0.0030056537 -2.7308379e-10 0)
(-0.0030017603 -2.6414459e-10 -3.0085291e-20)
(-0.0029978614 -2.5549016e-10 0)
(-0.0029939537 -2.4709733e-10 -1.4083974e-20)
(-0.0029900345 -2.3893931e-10 0)
(-0.0029861013 -2.3100557e-10 -1.3177161e-20)
(-0.002982151 -2.2326911e-10 2.5480936e-20)
(-0.0029781817 -2.1571287e-10 2.462736e-20)
(-0.0029741905 -2.083296e-10 -1.1895976e-20)
(-0.0029701752 -2.0110434e-10 0)
(-0.0029661334 -1.9402009e-10 0)
(-0.0029620631 -1.8707142e-10 2.1380487e-20)
(-0.0029579616 -1.8024729e-10 -2.0604184e-20)
(-0.0029538272 -1.7353369e-10 0)
(-0.0029496577 -1.6693098e-10 0)
(-0.0029454508 -1.6042214e-10 -1.8344137e-20)
(-0.0029412053 -1.540084e-10 0)
(-0.0029369184 -1.4768711e-10 0)
(-0.0029325889 -1.4144973e-10 0)
(-0.0029282144 -1.3529713e-10 0)
(-0.0029237935 -1.292249e-10 0)
(-0.0029193241 -1.2322779e-10 0)
(-0.0029148049 -1.1730765e-10 0)
(-0.002910234 -1.1143449e-10 0)
(-0.0029056129 -1.0565687e-10 1.2066005e-20)
(-0.0029009341 -1.0010074e-10 -1.1421238e-20)
(-0.0028963001 -9.4078352e-11 0)
(-0.0028919396 -8.7045058e-11 0)
(-0.0028879523 -7.9730811e-11 0)
(-0.0028843217 -7.2841838e-11 0)
(-0.0028810168 -6.6550558e-11 0)
(-0.0028780052 -6.0852847e-11 0)
(-0.0028752573 -5.5707056e-11 0)
(-0.0028727462 -5.1066948e-11 0)
(-0.0028704475 -4.688479e-11 -5.1571706e-21)
(-0.0028683396 -4.311769e-11 0)
(-0.0028664029 -3.9720547e-11 0)
(-0.0028646204 -3.6654636e-11 0)
(-0.0028629766 -3.3884607e-11 0)
(-0.0028614582 -3.1377203e-11 0)
(-0.0028600528 -2.91043e-11 0)
(-0.00285875 -2.7041881e-11 0)
(-0.0028575401 -2.5160439e-11 0)
(-0.0028564153 -2.3464236e-11 0)
(-0.0028553655 -2.1859458e-11 0)
(-0.002854392 -2.0704057e-11 0)
(-0.0028534513 -3.4551224e-11 0)
(-0.0028526783 -2.1702769e-11 -2.3277519e-21)
(-0.0028514464 -2.4961705e-11 0)
)
;
    }
    back
    {
        type            empty;
    }
    front
    {
        type            empty;
    }
    inlet
    {
        type            calculated;
        value           uniform (0 0 0);
    }
    outlet
    {
        type            calculated;
        value           uniform (0 0 0);
    }
    top
    {
        type            calculated;
        value           uniform (0 0 0);
    }
    slipsurface
    {
        type            calculated;
        value           uniform (0 0 0);
    }
}


// ************************************************************************* //
