/*--------------------------------*- C++ -*----------------------------------*\
  =========                 |
  \\      /  F ield         | OpenFOAM: The Open Source CFD Toolbox
   \\    /   O peration     | Website:  https://openfoam.org
    \\  /    A nd           | Version:  12
     \\/     M anipulation  |
\*---------------------------------------------------------------------------*/
FoamFile
{
    format      ascii;
    class       volScalarField;
    location    "200";
    object      yPlus;
}
// * * * * * * * * * * * * * * * * * * * * * * * * * * * * * * * * * * * * * //

dimensions      [];

internalField   uniform 0;

boundaryField
{
    inlet
    {
        type            calculated;
        value           uniform 0;
    }
    top
    {
        type            calculated;
        value           uniform 0;
    }
    outlet
    {
        type            calculated;
        value           uniform 0;
    }
    slipsurface
    {
        type            calculated;
        value           uniform 0;
    }
    bottom
    {
        type            calculated;
        value           nonuniform List<scalar> 
100
(
116.33296
115.18204
113.90939
112.55828
111.16947
109.77151
108.37512
106.98474
105.60429
104.23735
102.88691
101.55532
100.24519
98.959451
97.701589
96.476252
95.290306
94.15364
93.074619
92.060589
91.118112
90.252727
89.468489
88.768211
88.151901
87.615236
87.149981
86.74502
86.386973
86.062094
85.758557
85.467794
85.184472
84.905726
84.630227
84.35695
84.084566
83.811638
83.53707
83.260601
82.982937
82.705262
82.428709
82.153965
81.881341
81.611056
81.343368
81.07851
80.816661
80.557978
80.302541
80.050328
79.8013
79.555474
79.312859
79.073389
78.836975
78.603582
78.373151
78.145605
77.920873
77.698899
77.479604
77.26291
77.048767
76.837112
76.627874
76.420999
76.216425
76.014084
75.813922
75.615874
75.419881
75.225885
75.033821
74.843636
74.655269
74.468662
74.283758
74.100504
73.918848
73.738739
73.560131
73.382975
73.207228
73.032843
72.85977
72.687952
72.517319
72.347782
72.17925
72.01156
71.844665
71.678077
71.512371
71.344954
71.180858
71.004321
70.855436
70.577174
)
;
    }
    frontandback
    {
        type            empty;
    }
}


// ************************************************************************* //
