#      distance             U_x             U_y             U_z wallShearStr... wallShearStr... wallShearStr...               p           omega               k             nut
    0.034013023      0.99914235   5.1213554e-06               0               0               0               0    0.0048054761       69.038298    1.191997e-05    1.726572e-07
    0.056204344      0.99878336    9.198332e-06               0               0               0               0    0.0051657051       62.950752   1.0786207e-05   1.7134351e-07
    0.072112662        0.998301   1.3745634e-05               0               0               0               0    0.0056033477       59.102503   1.0073292e-05   1.7043761e-07
    0.083516877      0.99780061   3.4010713e-05               0               0               0               0    0.0061697825       56.573759   9.6065803e-06   1.6980628e-07
     0.09169223      0.99666373   6.9374539e-05               0               0               0               0     0.006945072       54.867475   9.2925031e-06   1.6936268e-07
    0.097552904      0.99562991   0.00081829534               0  -1.3873628e-06  -1.4698699e-09               0    0.0083058235       53.719817   9.0778143e-06   1.6945687e-07
     0.10156632      0.98101074    0.0007583621               0  -4.1316362e-06  -5.6420598e-09               0    0.0087078557        99.64936   9.1319414e-06   8.2147493e-08
     0.10474707      0.96808898    0.0014016283               0     -5.4262e-06  -1.0258958e-08               0    0.0076627586       99.668428   9.5178873e-06   4.4800084e-08
     0.10802554      0.95487772    0.0017600012               0  -5.2983422e-06  -1.3446563e-08               0     0.006539715       99.668428   1.0337133e-05   3.2892113e-08
     0.11140473       0.9407958    0.0020782943               0  -5.1662972e-06  -1.6027636e-08               0    0.0060178858       99.820912   1.3442051e-05   3.0182084e-08
     0.11488774      0.92684766    0.0024807172               0  -5.0354081e-06  -1.8471452e-08               0    0.0056827282       467.19642    0.0017675938   3.1760325e-06
     0.11847776      0.91339438    0.0027303655               0   -4.909755e-06  -2.0038834e-08               0    0.0054250279       658.54623    0.0035110959   5.3245195e-06
     0.12217807      0.90045918    0.0027594948               0  -4.7901989e-06  -2.0327029e-08               0    0.0052182331       782.36128    0.0049552962   6.3251075e-06
     0.12599207      0.88802972    0.0026944579               0  -4.6763923e-06  -1.9795829e-08               0    0.0050303216       862.95928    0.0060288046   6.9764445e-06
     0.12992323      0.87601333    0.0025856253               0  -4.5675116e-06  -1.8877621e-08               0    0.0048692558       913.96956    0.0067625819   7.3886643e-06
     0.13397518      0.86431522    0.0024348416               0  -4.4623589e-06  -1.7714129e-08               0    0.0047358722       944.61738    0.0072237106   7.6363206e-06
     0.13815161      0.85273481    0.0022597066               0  -4.3595679e-06  -1.6437148e-08               0    0.0046206804       961.55827    0.0074851313   7.4787268e-06
     0.14245635      0.84118379    0.0020953886               0  -4.2582071e-06  -1.5196938e-08               0    0.0045032873       969.17448    0.0076041733   7.2090349e-06
     0.14689334      0.82962987     0.001942319               0   -4.157947e-06  -1.4047028e-08               0    0.0043802455       970.42122    0.0076237485   6.8882507e-06
     0.15146665      0.81807774    0.0017985575               0  -4.0587886e-06  -1.2975149e-08               0    0.0042553384       967.32246    0.0075751367   6.5482855e-06
     0.15618046      0.80655083    0.0016627315               0  -3.9609298e-06  -1.1966367e-08               0    0.0041308348       961.29183    0.0074809776   6.2095534e-06
     0.16103908      0.79509125    0.0015325904               0  -3.8647411e-06  -1.0995816e-08               0    0.0040078989       953.32147    0.0073574369   5.8849518e-06
     0.16604698      0.78377192     0.001401115               0   -3.770904e-06  -1.0039667e-08               0    0.0038886715       944.12069    0.0072161035   5.5828651e-06
     0.17120873      0.77274292    0.0012707579               0  -3.6799051e-06   -9.117373e-09               0    0.0037811391       934.25842    0.0070661314   5.3127729e-06
     0.17652907      0.76188505     0.001154209               0  -3.5918591e-06   -8.260013e-09               0    0.0036817087       924.36574     0.006917279   5.0694067e-06
     0.18201286      0.75137242    0.0010438428               0  -3.5072875e-06  -7.4565324e-09               0    0.0035770578       914.50774    0.0067705246   4.8579884e-06
     0.18766512      0.74126987   0.00093790258               0  -3.4268273e-06   -6.689756e-09               0    0.0034705737       904.81539    0.0066277704   4.6740873e-06
     0.19349103      0.73163235   0.00083658246               0  -3.3508362e-06  -5.9597209e-09               0    0.0033729589       895.32818    0.0064895108   4.5150432e-06
     0.19949593      0.72251587   0.00074043011               0  -3.2796274e-06  -5.2696035e-09               0    0.0032870072       886.19964    0.0063578542   4.3801821e-06
     0.20568532      0.71396858   0.00065032202               0  -3.2134651e-06  -4.6216505e-09               0    0.0032120643       877.57553    0.0062347123   4.2689932e-06
     0.21206485      0.70603318   0.00056554587               0  -3.1525652e-06  -4.0152429e-09               0    0.0031502686       869.56169    0.0061213636    4.180652e-06
     0.21864039      0.69874944    0.0004862573               0  -3.0970666e-06  -3.4527532e-09               0    0.0030968674       862.23055    0.0060185819   4.1145331e-06
     0.22541793      0.69212921    0.0004141143               0  -3.0469499e-06  -2.9399181e-09               0    0.0030440979       855.61982    0.0059266465    4.069554e-06
     0.23240371      0.68615817   0.00034893857               0  -3.0020289e-06  -2.4789382e-09               0    0.0029964908       849.73131    0.0058453508   4.0442282e-06
      0.2396041      0.68080973   0.00029066294               0  -2.9620169e-06  -2.0704412e-09               0    0.0029574769       844.53823    0.0057741221   4.0368524e-06
      0.2470257      0.67604776   0.00024023207               0  -2.9265633e-06  -1.7162478e-09               0    0.0029253598       839.99317    0.0057121401   4.0455492e-06
     0.25467531      0.67182552   0.00019750926               0  -2.8952686e-06   -1.414677e-09               0    0.0028985944       836.03402    0.0056584209   4.0682749e-06
     0.26255994      0.66809298   0.00016132141               0  -2.8677352e-06  -1.1592853e-09               0    0.0028780701       832.59325    0.0056119415   4.1029313e-06
      0.2706868      0.66481083   0.00013057477               0  -2.8436039e-06   -9.439815e-10               0    0.0028624524       829.61164      0.00557182   4.1474684e-06
     0.27906334      0.66193603   0.00010519001               0  -2.8225065e-06  -7.6510654e-10               0    0.0028439163       827.03954    0.0055373249   4.2020838e-06
     0.28769723      0.65941193   8.4329242e-05               0   -2.804017e-06  -6.1968855e-10               0    0.0028214271       824.81528    0.0055075813   4.2654293e-06
     0.29659637      0.65717629   6.8006976e-05               0  -2.7876727e-06  -5.0631475e-10               0    0.0027994598       822.86537    0.0054815724    4.335468e-06
     0.30576892      0.65516699    5.653045e-05               0  -2.7730169e-06  -4.2365889e-10               0    0.0027791137        821.1114      0.00545823   4.4098664e-06
     0.31522326      0.65332701   4.9036893e-05               0  -2.7596548e-06  -3.6572186e-10               0    0.0027605185        819.4875    0.0054366633   4.4863147e-06
     0.32496807      0.65162021   4.3555594e-05               0  -2.7472972e-06  -3.2474442e-10               0    0.0027452536       817.94559    0.0054162249   4.5634243e-06
     0.33501226      0.65001978   4.0127938e-05               0  -2.7357137e-06  -2.9815997e-10               0    0.0027257686       816.45148    0.0053964569    4.640185e-06
     0.34536503      0.64849043    3.919323e-05               0  -2.7246599e-06  -2.8586909e-10               0    0.0026973054       814.97442    0.0053769503   4.7154835e-06
     0.35603587      0.64699575   3.9948953e-05               0  -2.7138901e-06  -2.8515378e-10               0    0.0026666488       813.48637    0.0053573341   4.7882107e-06
     0.36703454      0.64550815   4.1907843e-05               0  -2.7032042e-06  -2.9226865e-10               0    0.0026380989       811.96558    0.0053373234   4.8574924e-06
     0.37837111       0.6440082   4.4546485e-05               0  -2.6924663e-06  -3.0379971e-10               0    0.0026115543       810.39569     0.005316706    4.922616e-06
     0.39005597      0.64248643   4.7291281e-05               0  -2.6815963e-06  -3.1731716e-10               0     0.002585389       808.76845    0.0052953775   4.9830181e-06
     0.40209982      0.64093605   5.0280681e-05               0  -2.6705359e-06  -3.3307753e-10               0    0.0025544817       807.08054    0.0052732991   5.0383744e-06
     0.41451368       0.6393469   5.4035321e-05               0  -2.6591997e-06  -3.5260554e-10               0    0.0025181993       805.32859    0.0052504317   5.0881717e-06
     0.42730893      0.63769721   5.8415796e-05               0  -2.6474652e-06  -3.7516106e-10               0    0.0024815099       803.50177    0.0052266401   5.1339972e-06
     0.44049728       0.6359708   6.2688117e-05               0   -2.635238e-06  -3.9749896e-10               0    0.0024468306       801.58949    0.0052017933   5.1754758e-06
      0.4540908      0.63416698   6.6322726e-05               0  -2.6225022e-06  -4.1701635e-10               0    0.0024135431       799.59238    0.0051759074   5.2118723e-06
     0.46810195      0.63229266   6.9430154e-05               0  -2.6092907e-06  -4.3336254e-10               0    0.0023758462       797.51977    0.0051491112    5.242749e-06
     0.48254356       0.6303514   7.2118963e-05               0  -2.5956366e-06  -4.4670539e-10               0    0.0023328184       795.38068    0.0051215283   5.2680129e-06
     0.49742885      0.62834609   7.4168017e-05               0  -2.5815811e-06  -4.5598137e-10               0    0.0022901698       793.18249    0.0050932607   5.2879844e-06
     0.51277145        0.626289   7.5177996e-05               0  -2.5672111e-06  -4.5970057e-10               0    0.0022522296       790.93763    0.0050644733   5.3034176e-06
     0.52858541      0.62420081   7.5147642e-05               0  -2.5526499e-06  -4.5800606e-10               0    0.0022155916       788.66544    0.0050354186   5.3151315e-06
     0.54488522      0.62209701   7.4550553e-05               0  -2.5379973e-06  -4.5270583e-10               0    0.0021746524       786.38186    0.0050063023   5.3239583e-06
     0.56168579      0.61998228   7.3627752e-05               0  -2.5232994e-06  -4.4532068e-10               0    0.0021316058        784.0922    0.0049771934   5.3308386e-06
     0.57900252       0.6178578   7.2423151e-05               0  -2.5085809e-06  -4.3624618e-10               0    0.0020908949       781.79733    0.0049481034   5.3362873e-06
     0.59685126      0.61573039   7.0874807e-05               0  -2.4938815e-06  -4.2565105e-10               0    0.0020527329       779.50187    0.0049190912   5.3405838e-06
     0.61524836      0.61360793    6.919118e-05               0  -2.4792413e-06  -4.1435113e-10               0    0.0020124005       777.21318    0.0048902493   5.3438099e-06
     0.63421066      0.61149107   6.7585058e-05               0  -2.4646775e-06  -4.0291584e-10               0    0.0019687672       774.93467    0.0048616198      5.3459e-06
     0.65375553      0.60938073    6.581226e-05               0   -2.450208e-06  -3.9081038e-10               0    0.0019270811       772.66844    0.0048332279   5.3469277e-06
     0.67390086      0.60728495   6.3768914e-05               0  -2.4358743e-06  -3.7766404e-10               0    0.0018876661       770.42039    0.0048051459   5.3471492e-06
     0.69466511      0.60521134    6.164382e-05               0  -2.4217149e-06  -3.6414405e-10               0    0.0018466189       768.19666    0.0047774481     5.34676e-06
     0.71606728      0.60315954   5.9625511e-05               0  -2.4077411e-06  -3.5076898e-10               0    0.0018034638       765.99783    0.0047501389   5.3458098e-06
     0.73812698      0.60112999   5.7503716e-05               0  -2.3939605e-06  -3.3730694e-10               0    0.0017627467       763.82356    0.0047232117   5.3444075e-06
     0.76086441      0.59912727    5.533675e-05               0  -2.3803844e-06  -3.2404333e-10               0     0.001722703       761.67439    0.0046966702   5.3428577e-06
     0.78430038      0.59714916    5.341942e-05               0  -2.3670004e-06  -3.1176839e-10               0    0.0016794392       759.54728    0.0046704748   5.3411821e-06
     0.80845637      0.59518884   5.1671615e-05               0  -2.3537795e-06  -3.0040777e-10               0    0.0016359718       757.43688    0.0046445575   5.3392315e-06
     0.83335448      0.59324568   4.9913512e-05               0  -2.3407126e-06  -2.8939952e-10               0    0.0015942396       755.34264    0.0046189097    5.336955e-06
     0.85901753      0.59132295    4.819399e-05               0  -2.3278049e-06  -2.7878353e-10               0    0.0015512231       753.26796    0.0045935712    5.334319e-06
       0.885469      0.58941831   4.6634696e-05               0  -2.3150533e-06  -2.6860825e-10               0    0.0015057191       751.21261    0.0045685373    5.331222e-06
     0.91273313      0.58753183   4.4983195e-05               0  -2.3024639e-06  -2.5840053e-10               0    0.0014626339       749.17685    0.0045438095    5.327745e-06
     0.94083488      0.58566992   4.3278438e-05               0  -2.2900541e-06  -2.4828122e-10               0    0.0014195432       747.16566    0.0045194455   5.3240097e-06
     0.96979998      0.58383071   4.1781995e-05               0  -2.2778195e-06  -2.3877076e-10               0    0.0013727202       745.17717     0.004495421    5.319997e-06
     0.99965496      0.58200945   4.0309711e-05               0  -2.2657438e-06  -2.2969486e-10               0    0.0013276214       743.20607    0.0044716696   5.3157586e-06
      1.0304272      0.58020833   3.8838243e-05               0  -2.2538215e-06  -2.2099174e-10               0    0.0012831925       741.25277    0.0044481948   5.3113731e-06
      1.0621447      0.57842487   3.7560363e-05               0  -2.2420416e-06   -2.128805e-10               0    0.0012350049       739.31619    0.0044249818   5.3067131e-06
      1.0948368      0.57665574   3.6285079e-05               0  -2.2303955e-06  -2.0502163e-10               0    0.0011878427       737.39454    0.0044020078   5.3017287e-06
      1.1285332      0.57490532    3.495444e-05               0  -2.2188922e-06  -1.9723479e-10               0     0.001141508       735.49154    0.0043793157   5.2965225e-06
      1.1632648       0.5731741   3.3746432e-05               0  -2.2075365e-06  -1.8975086e-10               0    0.0010919633       733.60858    0.0043569203   5.2910593e-06
      1.1990635      0.57146009   3.2536712e-05               0  -2.1963257e-06  -1.8248889e-10               0    0.0010435069       731.74355    0.0043347949   5.2853779e-06
       1.235962       0.5697656   3.1331418e-05               0  -2.1852585e-06  -1.7549602e-10               0   0.00099532504       729.89678    0.0043129417   5.2795854e-06
      1.2739941      0.56808777   3.0278028e-05               0  -2.1743237e-06   -1.689785e-10               0    0.0009437957       728.06578    0.0042913298   5.2736069e-06
      1.3131947      0.56642346   2.9233938e-05               0  -2.1635092e-06  -1.6274188e-10               0   0.00089318976        726.2483    0.0042699313   5.2674087e-06
      1.3535996      0.56477489   2.8194698e-05               0   -2.152817e-06  -1.5664465e-10               0   0.00084248885       724.44643    0.0042487696   5.2610397e-06
      1.3952458      0.56314237   2.7211647e-05               0  -2.1422517e-06  -1.5074128e-10               0    0.0007899117       722.66125    0.0042278559   5.2544873e-06
      1.4381715      0.56152621   2.6229284e-05               0  -2.1318124e-06  -1.4505319e-10               0   0.00073770262       720.89286    0.0042071899   5.2477858e-06
       1.482416      0.55992546   2.5320871e-05               0  -2.1214932e-06  -1.3963758e-10               0   0.00068418188       719.13962    0.0041867512   5.2409478e-06
      1.5280198      0.55833832   2.4439859e-05               0   -2.111287e-06  -1.3446392e-10               0   0.00063079431       717.39962    0.0041665161   5.2339755e-06
      1.5750246      0.55676534   2.3585208e-05               0  -2.1011899e-06  -1.2950428e-10               0   0.00057691236       715.67345    0.0041464904   5.2268747e-06
      1.6234735      0.55520519   2.2787514e-05               0  -2.0911993e-06  -1.2475811e-10               0    0.0005215901       713.96064    0.0041266673   5.2196165e-06
      1.6734109      0.55365858    2.198807e-05               0  -2.0813116e-06  -1.2019393e-10               0   0.00046756268       712.26197    0.0041070549   5.2122234e-06
      1.7248825      0.55212356   2.1250853e-05               0  -2.0715252e-06  -1.1589106e-10               0   0.00041276259       710.57519    0.0040876258   5.2047228e-06
      1.7779355      0.55060262   2.0562292e-05               0  -2.0618111e-06  -1.1187418e-10               0   0.00036069559       708.90209    0.0040683998    5.197033e-06
      1.8326183      0.54907487   1.9924253e-05               0  -2.0522144e-06  -1.0798071e-10               0   0.00030621452         707.224    0.0040491621    5.189309e-06
      1.8889812       0.5476081    1.918597e-05               0  -2.0426134e-06  -1.4315393e-10               0   0.00027357161       705.60064    0.0040305943   5.1814589e-06
      1.9470756      0.54601076   5.0025801e-05               0   -2.033037e-06  -2.7283038e-10               0   0.00016258876       703.86265     0.004010764   5.1729086e-06
      2.0069548      0.54461713   9.3860687e-05               0  -2.0227926e-06  -4.1424977e-10               0   0.00035932961       702.32826    0.0039932967   5.1610531e-06
