/*--------------------------------*- C++ -*----------------------------------*\
  =========                 |
  \\      /  F ield         | OpenFOAM: The Open Source CFD Toolbox
   \\    /   O peration     | Website:  https://openfoam.org
    \\  /    A nd           | Version:  12
     \\/     M anipulation  |
\*---------------------------------------------------------------------------*/
FoamFile
{
    format      ascii;
    class       volScalarField;
    location    "1800";
    object      nut;
}
// * * * * * * * * * * * * * * * * * * * * * * * * * * * * * * * * * * * * * //

dimensions      [0 2 -1 0 0 0 0];

internalField   nonuniform List<scalar> 
7480
(
9.0615457e-11
8.8346348e-11
8.6144908e-11
8.4259506e-11
8.2921029e-11
8.2222008e-11
7.401339e-11
6.378331e-11
5.650219e-11
5.0772221e-11
4.8177349e-11
3.6602219e-11
2.3446156e-07
3.4420504e-06
5.5164685e-06
6.8687328e-06
7.6634913e-06
8.0701448e-06
8.2791179e-06
8.2717338e-06
8.2274394e-06
8.1446752e-06
7.846288e-06
7.2032239e-06
6.6521191e-06
6.182842e-06
5.7888755e-06
5.4743326e-06
5.218019e-06
5.0087631e-06
4.8409005e-06
4.7108562e-06
4.615062e-06
4.5496664e-06
4.5105958e-06
4.4938332e-06
4.4952538e-06
4.5104755e-06
4.5385538e-06
4.5789757e-06
4.6296952e-06
4.6881203e-06
4.7517652e-06
4.8187369e-06
4.8885202e-06
4.9581256e-06
5.0266589e-06
5.09299e-06
5.1557521e-06
5.2136683e-06
5.2684731e-06
5.3186729e-06
5.3625842e-06
5.3992829e-06
5.4286833e-06
5.4513628e-06
5.4681932e-06
5.4802249e-06
5.4893439e-06
5.4966438e-06
5.5024219e-06
5.5066795e-06
5.5095095e-06
5.511139e-06
5.511795e-06
5.5116509e-06
5.5108443e-06
5.509716e-06
5.5085562e-06
5.5073095e-06
5.5057513e-06
5.5037285e-06
5.5011944e-06
5.4981657e-06
5.4947012e-06
5.490962e-06
5.4870873e-06
5.4830525e-06
5.4787409e-06
5.4740813e-06
5.4690802e-06
5.463782e-06
5.4583144e-06
5.4527448e-06
5.4470196e-06
5.4410738e-06
5.4348756e-06
5.428453e-06
5.4219123e-06
5.4152843e-06
5.408522e-06
5.4015848e-06
5.3944624e-06
5.3871894e-06
5.3798466e-06
5.3722169e-06
5.3647466e-06
5.3555625e-06
5.3491638e-06
5.3333559e-06
3.6998277e-10
3.6682708e-10
3.6329552e-10
3.5958533e-10
3.5574715e-10
3.5178706e-10
3.4776871e-10
3.4355657e-10
3.3981778e-10
3.3365925e-10
3.3356855e-10
3.1415011e-10
2.0727969e-08
4.9291607e-07
2.1714478e-06
4.1967108e-06
5.1955641e-06
5.4049094e-06
5.2517709e-06
5.0688772e-06
4.9863279e-06
4.9849085e-06
5.052128e-06
5.1772735e-06
5.4305446e-06
5.7895702e-06
6.2644306e-06
6.9047891e-06
7.2467357e-06
7.6259803e-06
8.0295086e-06
8.4448137e-06
8.8622491e-06
9.2745179e-06
9.6764791e-06
1.0066029e-05
1.0439524e-05
1.0799736e-05
1.1155634e-05
1.1510131e-05
1.1856078e-05
1.218808e-05
1.2504067e-05
1.2804431e-05
1.3095586e-05
1.335726e-05
1.3604867e-05
1.3831221e-05
1.4035415e-05
1.4218338e-05
1.4379118e-05
1.4516157e-05
1.4630796e-05
1.4725811e-05
1.4804503e-05
1.4870121e-05
1.4925395e-05
1.4973288e-05
1.5017957e-05
1.5058997e-05
1.5095973e-05
1.5129041e-05
1.5158788e-05
1.5185842e-05
1.5210657e-05
1.5233525e-05
1.5254705e-05
1.5274649e-05
1.5293135e-05
1.5309472e-05
1.5323351e-05
1.5334919e-05
1.5344473e-05
1.5352293e-05
1.5358682e-05
1.5363906e-05
1.5367835e-05
1.5370122e-05
1.5370654e-05
1.5369627e-05
1.5367316e-05
1.536401e-05
1.5359887e-05
1.5354751e-05
1.534836e-05
1.534074e-05
1.5332066e-05
1.5322637e-05
1.5312604e-05
1.5301788e-05
1.5290032e-05
1.5277382e-05
1.5264031e-05
1.5250162e-05
1.5235689e-05
1.5220481e-05
1.5204523e-05
1.5186944e-05
1.5172668e-05
1.5139686e-05
3.7156105e-10
3.7128609e-10
3.7098913e-10
3.7067465e-10
3.7034379e-10
3.6999634e-10
3.6963087e-10
3.6924964e-10
3.6883758e-10
3.6844715e-10
3.6779185e-10
3.6815939e-10
1.3508263e-10
9.4678523e-10
1.7355567e-08
1.1886192e-07
4.8171364e-07
1.1515667e-06
1.967763e-06
2.625571e-06
2.9736123e-06
3.0829758e-06
3.0642612e-06
2.9952227e-06
2.9286766e-06
2.951523e-06
3.0597264e-06
3.2646082e-06
3.5540907e-06
3.923281e-06
4.3856307e-06
4.8905137e-06
5.4542811e-06
6.0817349e-06
6.7751418e-06
7.5365438e-06
8.3750069e-06
9.3109796e-06
1.0192774e-05
1.1052431e-05
1.1929886e-05
1.2804772e-05
1.3660852e-05
1.4495099e-05
1.5309446e-05
1.6107236e-05
1.6872619e-05
1.7587293e-05
1.8262283e-05
1.8899548e-05
1.937228e-05
1.9797658e-05
2.0184673e-05
2.0538909e-05
2.0863881e-05
2.1162659e-05
2.1439273e-05
2.1697515e-05
2.1936833e-05
2.2157759e-05
2.2362122e-05
2.2552179e-05
2.2729964e-05
2.2897175e-05
2.3054961e-05
2.3204043e-05
2.3345189e-05
2.3477991e-05
2.3601745e-05
2.3716651e-05
2.3823448e-05
2.3922928e-05
2.4015805e-05
2.4102688e-05
2.4184242e-05
2.4260344e-05
2.4330389e-05
2.4394439e-05
2.4453084e-05
2.4506987e-05
2.4556634e-05
2.4602577e-05
2.4644635e-05
2.4682348e-05
2.4715782e-05
2.4745447e-05
2.4771822e-05
2.4795465e-05
2.4816216e-05
2.4833687e-05
2.4847965e-05
2.4859453e-05
2.486863e-05
2.487565e-05
2.4880084e-05
2.4882283e-05
2.4881222e-05
2.487992e-05
2.4872594e-05
2.4860222e-05
3.7244624e-10
3.7230497e-10
3.7216151e-10
3.7201367e-10
3.7186016e-10
3.7170061e-10
3.7153455e-10
3.7136256e-10
3.7118132e-10
3.7100265e-10
3.7078069e-10
3.70694e-10
3.7001505e-10
3.6603996e-10
3.7860573e-10
4.7819074e-10
1.1971339e-09
4.8917694e-09
1.9945251e-08
5.8987886e-08
1.3254969e-07
2.4515382e-07
3.9544972e-07
5.7645253e-07
7.8087556e-07
9.8868218e-07
1.1856193e-06
1.3682708e-06
1.5393144e-06
1.7039635e-06
1.8716445e-06
2.050082e-06
2.2456187e-06
2.4990395e-06
2.8169463e-06
3.2041996e-06
3.6753686e-06
4.2435519e-06
4.9067584e-06
5.6891032e-06
6.6127451e-06
7.6837971e-06
8.8486791e-06
9.8862698e-06
1.0976905e-05
1.2110366e-05
1.3272663e-05
1.4440436e-05
1.5606852e-05
1.6760287e-05
1.7886076e-05
1.89823e-05
2.0007228e-05
2.0976356e-05
2.1901737e-05
2.2782462e-05
2.3619378e-05
2.4388472e-05
2.500067e-05
2.557061e-05
2.6105605e-05
2.6611532e-05
2.7091989e-05
2.7548825e-05
2.7983236e-05
2.8396813e-05
2.8791886e-05
2.9167461e-05
2.9521985e-05
2.9856322e-05
3.0172276e-05
3.0471598e-05
3.0755704e-05
3.102565e-05
3.1282572e-05
3.1526301e-05
3.1756176e-05
3.1972685e-05
3.2176866e-05
3.2369759e-05
3.2552194e-05
3.2725167e-05
3.2888356e-05
3.3041356e-05
3.3184621e-05
3.3319029e-05
3.3445309e-05
3.3564348e-05
3.3675842e-05
3.3779458e-05
3.3875596e-05
3.3964968e-05
3.4048331e-05
3.4125857e-05
3.4196985e-05
3.4262554e-05
3.4320735e-05
3.4378512e-05
3.4415659e-05
3.4483841e-05
3.7325415e-10
3.7312209e-10
3.7298785e-10
3.7284917e-10
3.7270549e-10
3.725566e-10
3.724024e-10
3.7224281e-10
3.7207781e-10
3.7190699e-10
3.7173197e-10
3.7154536e-10
3.7137993e-10
3.7114863e-10
3.7094383e-10
3.708202e-10
3.7109314e-10
3.7341311e-10
3.8747e-10
4.4297231e-10
6.0857543e-10
1.0247485e-09
1.9500668e-09
3.8232293e-09
7.3174153e-09
1.3385804e-08
2.3292551e-08
3.8721491e-08
6.1975572e-08
9.6144255e-08
1.4570646e-07
2.1683768e-07
3.1836156e-07
4.5755258e-07
6.4161015e-07
8.7369312e-07
1.1548766e-06
1.4710432e-06
1.8378054e-06
2.2208607e-06
2.6272442e-06
3.1147256e-06
3.7168222e-06
4.4428633e-06
5.2967092e-06
6.3014136e-06
7.4864165e-06
8.844989e-06
9.9539886e-06
1.1148386e-05
1.2417473e-05
1.374785e-05
1.5109281e-05
1.6490595e-05
1.7873715e-05
1.9240793e-05
2.0592397e-05
2.1877613e-05
2.3113159e-05
2.431231e-05
2.5470663e-05
2.6580871e-05
2.762863e-05
2.8620999e-05
2.9570512e-05
3.048401e-05
3.1367368e-05
3.2136816e-05
3.2825663e-05
3.3480688e-05
3.4105952e-05
3.4704056e-05
3.5276437e-05
3.5824207e-05
3.6349312e-05
3.685079e-05
3.7327128e-05
3.7779592e-05
3.8210163e-05
3.8620583e-05
3.9012141e-05
3.9386354e-05
3.9742507e-05
4.0080221e-05
4.0400417e-05
4.0704424e-05
4.0993327e-05
4.1268457e-05
4.1529281e-05
4.1775644e-05
4.2008348e-05
4.222844e-05
4.2436996e-05
4.263419e-05
4.2819407e-05
4.2994148e-05
4.3155533e-05
4.3316034e-05
4.3433702e-05
4.36441e-05
3.7358594e-10
3.7345589e-10
3.7332393e-10
3.7318766e-10
3.7304647e-10
3.7290014e-10
3.7274858e-10
3.7259169e-10
3.724294e-10
3.7226167e-10
3.720884e-10
3.7191001e-10
3.7172445e-10
3.7154445e-10
3.7133871e-10
3.7109893e-10
3.7087238e-10
3.7065831e-10
3.7049908e-10
3.703939e-10
3.7043673e-10
3.7087151e-10
3.7221243e-10
3.7559213e-10
3.8311293e-10
3.9848672e-10
4.2795536e-10
4.8189814e-10
5.7775452e-10
7.4526777e-10
1.0375314e-09
1.5527131e-09
2.4818043e-09
4.2009335e-09
7.4718479e-09
1.3751376e-08
2.5982644e-08
4.9140151e-08
9.3079823e-08
1.7406935e-07
3.1375646e-07
5.3531445e-07
8.6491358e-07
1.2961362e-06
1.8515498e-06
2.4315829e-06
3.0024508e-06
3.6691793e-06
4.4608335e-06
5.4018994e-06
6.5322226e-06
7.8643903e-06
9.4381876e-06
1.0747003e-05
1.2029597e-05
1.3399736e-05
1.4846848e-05
1.634368e-05
1.7890146e-05
1.9460893e-05
2.1032059e-05
2.2577108e-05
2.4051458e-05
2.5517131e-05
2.6973195e-05
2.8405505e-05
2.9787117e-05
3.1109119e-05
3.2377218e-05
3.3599037e-05
3.4777687e-05
3.5906236e-05
3.6984599e-05
3.8019149e-05
3.9020999e-05
3.9915483e-05
4.0718568e-05
4.1486674e-05
4.2222961e-05
4.2929582e-05
4.3607866e-05
4.4259888e-05
4.4883178e-05
4.5477257e-05
4.6044046e-05
4.6585642e-05
4.7103594e-05
4.7599762e-05
4.8072956e-05
4.8523152e-05
4.8951662e-05
4.9359966e-05
4.9749567e-05
5.0120586e-05
5.0472361e-05
5.0807114e-05
5.1120758e-05
5.1432608e-05
5.1672243e-05
5.2093871e-05
3.7357306e-10
3.7344366e-10
3.7331245e-10
3.73177e-10
3.7303668e-10
3.7289128e-10
3.727407e-10
3.7258483e-10
3.7242363e-10
3.7225703e-10
3.72085e-10
3.7190762e-10
3.7172497e-10
3.7153736e-10
3.7134454e-10
3.7114586e-10
3.7093917e-10
3.7072682e-10
3.7046453e-10
3.7018597e-10
3.699035e-10
3.6963661e-10
3.6939986e-10
3.6917929e-10
3.6900017e-10
3.6885639e-10
3.6874969e-10
3.6870767e-10
3.6878545e-10
3.6908131e-10
3.6976913e-10
3.7115762e-10
3.7385846e-10
3.7904164e-10
3.8912206e-10
4.0892224e-10
4.4915001e-10
5.3191424e-10
7.0906008e-10
1.1049752e-09
2.0505048e-09
4.349077e-09
1.0322352e-08
2.5052684e-08
6.1930305e-08
1.479127e-07
3.2014709e-07
6.2802875e-07
1.0951345e-06
1.748939e-06
2.4797943e-06
3.1621306e-06
3.9415734e-06
4.855636e-06
5.9617013e-06
7.3048029e-06
8.8843706e-06
1.0739946e-05
1.2205445e-05
1.3599486e-05
1.509727e-05
1.6684569e-05
1.8334904e-05
2.0050457e-05
2.1793171e-05
2.354275e-05
2.5228558e-05
2.6921575e-05
2.8633378e-05
3.0338863e-05
3.1995213e-05
3.3598854e-05
3.516322e-05
3.6693678e-05
3.8187086e-05
3.9623375e-05
4.0995019e-05
4.2312041e-05
4.3580905e-05
4.4800506e-05
4.5971087e-05
4.7102544e-05
4.8092767e-05
4.901064e-05
4.9891513e-05
5.0738012e-05
5.1551839e-05
5.2335314e-05
5.3084925e-05
5.3801158e-05
5.4486369e-05
5.5142619e-05
5.5771919e-05
5.6373966e-05
5.6947856e-05
5.7496636e-05
5.8015031e-05
5.8530383e-05
5.8937457e-05
5.9644898e-05
3.7353174e-10
3.7340231e-10
3.7327105e-10
3.7313555e-10
3.7299517e-10
3.7284971e-10
3.7269905e-10
3.7254312e-10
3.7238184e-10
3.7221517e-10
3.7204307e-10
3.7186556e-10
3.7168275e-10
3.7149466e-10
3.7130113e-10
3.7110202e-10
3.7089707e-10
3.7068633e-10
3.7046886e-10
3.7024396e-10
3.7001092e-10
3.697688e-10
3.6951496e-10
3.6924518e-10
3.6893609e-10
3.6860302e-10
3.6826212e-10
3.6791939e-10
3.6758027e-10
3.6725051e-10
3.6695032e-10
3.6667283e-10
3.6641154e-10
3.6617676e-10
3.6599289e-10
3.6584376e-10
3.6575189e-10
3.6577646e-10
3.6606077e-10
3.6690161e-10
3.6912743e-10
3.7468464e-10
3.8941872e-10
4.2849405e-10
5.3447592e-10
8.5121964e-10
1.7909263e-09
4.8191086e-09
1.4158777e-08
4.2455372e-08
1.2258896e-07
3.0259978e-07
6.5466841e-07
1.2014515e-06
2.0051454e-06
2.802102e-06
3.6121193e-06
4.5761957e-06
5.736244e-06
7.1421731e-06
8.8244962e-06
1.0788669e-05
1.2907052e-05
1.4347532e-05
1.5907383e-05
1.7581116e-05
1.9338749e-05
2.1187905e-05
2.3091721e-05
2.5022643e-05
2.69011e-05
2.8806553e-05
3.0746006e-05
3.2686529e-05
3.4581374e-05
3.6444939e-05
3.828913e-05
4.0104354e-05
4.1872515e-05
4.3584478e-05
4.5243938e-05
4.6860817e-05
4.8416404e-05
4.9901611e-05
5.132572e-05
5.2697075e-05
5.4016604e-05
5.5291292e-05
5.6394821e-05
5.7436602e-05
5.8438297e-05
5.9402157e-05
6.0330593e-05
6.1221572e-05
6.2073844e-05
6.2891871e-05
6.3669361e-05
6.4442522e-05
6.506514e-05
6.6136594e-05
3.7354934e-10
3.7341981e-10
3.7328844e-10
3.7315281e-10
3.7301229e-10
3.7286667e-10
3.7271585e-10
3.7255974e-10
3.7239827e-10
3.7223138e-10
3.7205902e-10
3.718812e-10
3.7169794e-10
3.7150924e-10
3.7131496e-10
3.7111487e-10
3.7090881e-10
3.7069671e-10
3.7047866e-10
3.7025467e-10
3.700247e-10
3.6978862e-10
3.6954612e-10
3.6929698e-10
3.6904027e-10
3.6877516e-10
3.6850121e-10
3.6821809e-10
3.6792546e-10
3.676227e-10
3.6730907e-10
3.6698267e-10
3.6663922e-10
3.6626977e-10
3.6585888e-10
3.6543693e-10
3.6501297e-10
3.6459419e-10
3.6418581e-10
3.6382824e-10
3.6349853e-10
3.631984e-10
3.6298239e-10
3.6283784e-10
3.6284696e-10
3.6330333e-10
3.651088e-10
3.7113372e-10
3.926113e-10
4.5816615e-10
7.1398967e-10
1.5430242e-09
4.8970466e-09
1.5903e-08
5.5474881e-08
1.7019417e-07
4.3279707e-07
9.1454304e-07
1.7132776e-06
2.6403485e-06
3.5476682e-06
4.5661886e-06
5.8507189e-06
7.4045947e-06
9.2702089e-06
1.1440785e-05
1.3895444e-05
1.5602699e-05
1.7271212e-05
1.9067936e-05
2.0962729e-05
2.2964447e-05
2.5029553e-05
2.7116845e-05
2.9166021e-05
3.1285873e-05
3.3458955e-05
3.5629144e-05
3.7769537e-05
3.9889674e-05
4.1991222e-05
4.4060464e-05
4.6089421e-05
4.8070052e-05
5.0003009e-05
5.1879774e-05
5.3693301e-05
5.5452687e-05
5.7141294e-05
5.8755864e-05
6.0303708e-05
6.1793475e-05
6.3233466e-05
6.4520396e-05
6.5705e-05
6.6846689e-05
6.7937821e-05
6.902367e-05
6.9910778e-05
7.1425622e-05
3.7358867e-10
3.7345915e-10
3.7332777e-10
3.7319214e-10
3.7305161e-10
3.7290599e-10
3.7275516e-10
3.7259903e-10
3.7243754e-10
3.7227062e-10
3.7209823e-10
3.7192035e-10
3.7173698e-10
3.715481e-10
3.713536e-10
3.7115327e-10
3.7094695e-10
3.7073459e-10
3.7051613e-10
3.7029155e-10
3.700608e-10
3.6982386e-10
3.6958071e-10
3.6933131e-10
3.6907572e-10
3.6881398e-10
3.6854601e-10
3.6827171e-10
3.6799094e-10
3.6770353e-10
3.674092e-10
3.6710763e-10
3.6679847e-10
3.6648123e-10
3.6615472e-10
3.6581839e-10
3.6547192e-10
3.6511511e-10
3.647471e-10
3.6436736e-10
3.6397141e-10
3.6355058e-10
3.6306546e-10
3.6256579e-10
3.6206855e-10
3.6160303e-10
3.612073e-10
3.608514e-10
3.6062511e-10
3.6048597e-10
3.6079533e-10
3.6202231e-10
3.688491e-10
3.9127728e-10
4.8842256e-10
8.5279483e-10
2.4730549e-09
8.5226425e-09
3.3816824e-08
1.219407e-07
3.5828201e-07
8.2361013e-07
1.6710227e-06
2.6954074e-06
3.7193903e-06
4.8699608e-06
6.3407457e-06
8.1430234e-06
1.0310262e-05
1.2791437e-05
1.5530348e-05
1.7396819e-05
1.9222957e-05
2.1177571e-05
2.3236799e-05
2.5405334e-05
2.7641781e-05
2.987963e-05
3.2157689e-05
3.4516832e-05
3.691408e-05
3.9293236e-05
4.1669327e-05
4.4049961e-05
4.6416816e-05
4.8740038e-05
5.1013097e-05
5.3243383e-05
5.5434088e-05
5.7562488e-05
5.9625353e-05
6.1623794e-05
6.3559026e-05
6.5415376e-05
6.7190166e-05
6.889243e-05
7.052582e-05
7.2129891e-05
7.3347495e-05
7.5383377e-05
3.736337e-10
3.735042e-10
3.7337284e-10
3.7323723e-10
3.7309672e-10
3.7295112e-10
3.728003e-10
3.7264419e-10
3.7248271e-10
3.7231581e-10
3.7214342e-10
3.7196553e-10
3.7178211e-10
3.7159315e-10
3.7139853e-10
3.711981e-10
3.709917e-10
3.7077927e-10
3.7056076e-10
3.7033611e-10
3.7010529e-10
3.6986824e-10
3.6962492e-10
3.6937529e-10
3.691193e-10
3.6885693e-10
3.6858814e-10
3.6831291e-10
3.6803122e-10
3.6774303e-10
3.6744835e-10
3.6714713e-10
3.6683939e-10
3.6652512e-10
3.6620442e-10
3.6587727e-10
3.6554357e-10
3.6520319e-10
3.6485596e-10
3.6450154e-10
3.6413949e-10
3.6376946e-10
3.6338953e-10
3.6299866e-10
3.6259612e-10
3.6218104e-10
3.6174996e-10
3.6129311e-10
3.6074897e-10
3.601915e-10
3.5964495e-10
3.591967e-10
3.5880852e-10
3.5855433e-10
3.5850014e-10
3.588538e-10
3.6174923e-10
3.7373818e-10
4.2609343e-10
6.774117e-10
1.846972e-09
6.911144e-09
2.9851924e-08
1.1986215e-07
3.8261942e-07
9.0973555e-07
1.9126966e-06
3.0058223e-06
4.1793329e-06
5.5603508e-06
7.3489046e-06
9.530103e-06
1.2118564e-05
1.4989737e-05
1.7912135e-05
1.9800916e-05
2.1823376e-05
2.3963518e-05
2.6220529e-05
2.8575529e-05
3.0983899e-05
3.3400421e-05
3.5930425e-05
3.8542547e-05
4.1157971e-05
4.3782436e-05
4.6422506e-05
4.9057963e-05
5.1667494e-05
5.4241593e-05
5.6779077e-05
5.9261165e-05
6.1676368e-05
6.4038821e-05
6.6340512e-05
6.8566456e-05
7.0714235e-05
7.2821927e-05
7.465191e-05
7.7550878e-05
3.7368612e-10
3.7355662e-10
3.7342528e-10
3.7328969e-10
3.731492e-10
3.730036e-10
3.7285279e-10
3.7269669e-10
3.7253521e-10
3.723683e-10
3.7219591e-10
3.7201798e-10
3.7183451e-10
3.7164544e-10
3.714507e-10
3.7125013e-10
3.7104361e-10
3.7083106e-10
3.7061243e-10
3.7038767e-10
3.7015673e-10
3.6991957e-10
3.6967613e-10
3.6942638e-10
3.6917026e-10
3.6890773e-10
3.6863875e-10
3.6836327e-10
3.6808126e-10
3.6779268e-10
3.674975e-10
3.671957e-10
3.6688725e-10
3.6657214e-10
3.6625037e-10
3.6592195e-10
3.6558687e-10
3.6524516e-10
3.6489682e-10
3.6454188e-10
3.6418037e-10
3.638123e-10
3.6343791e-10
3.6305722e-10
3.6267014e-10
3.6227645e-10
3.6187549e-10
3.61467e-10
3.6104788e-10
3.606171e-10
3.6017194e-10
3.5971312e-10
3.5922393e-10
3.5863323e-10
3.5801909e-10
3.5746596e-10
3.5700161e-10
3.566432e-10
3.5646981e-10
3.565687e-10
3.5865337e-10
3.6738552e-10
4.1682737e-10
6.7639378e-10
2.0413627e-09
8.4628898e-09
3.9435051e-08
1.6609842e-07
5.1778571e-07
1.2609468e-06
2.4699337e-06
3.7218931e-06
5.1193823e-06
6.8692464e-06
9.1250609e-06
1.1871778e-05
1.4926481e-05
1.8172973e-05
2.073873e-05
2.2869517e-05
2.5119093e-05
2.7472755e-05
2.9948331e-05
3.2514819e-05
3.5075605e-05
3.7782476e-05
4.0601981e-05
4.3443218e-05
4.6310662e-05
4.9214225e-05
5.2129297e-05
5.5017593e-05
5.7869234e-05
6.0693487e-05
6.3473059e-05
6.6189989e-05
6.8835645e-05
7.1442517e-05
7.3764593e-05
7.7487927e-05
3.7374235e-10
3.7361288e-10
3.7348156e-10
3.7334599e-10
3.7320552e-10
3.7305995e-10
3.7290916e-10
3.7275308e-10
3.7259162e-10
3.7242472e-10
3.7225233e-10
3.720744e-10
3.718909e-10
3.7170178e-10
3.7150696e-10
3.7130631e-10
3.7109973e-10
3.7088712e-10
3.7066843e-10
3.7044361e-10
3.7021262e-10
3.6997539e-10
3.697319e-10
3.6948208e-10
3.6922589e-10
3.689633e-10
3.6869425e-10
3.6841869e-10
3.6813661e-10
3.6784794e-10
3.6755267e-10
3.6725077e-10
3.669422e-10
3.6662694e-10
3.6630498e-10
3.6597629e-10
3.6564087e-10
3.6529871e-10
3.6494982e-10
3.6459418e-10
3.6423183e-10
3.6386276e-10
3.6348703e-10
3.6310466e-10
3.6271572e-10
3.6232027e-10
3.6191837e-10
3.6151007e-10
3.6109574e-10
3.6067544e-10
3.6024907e-10
3.598159e-10
3.5937542e-10
3.5892406e-10
3.5845912e-10
3.5797957e-10
3.5748461e-10
3.5691641e-10
3.5626779e-10
3.5563808e-10
3.5513514e-10
3.5471277e-10
3.5451641e-10
3.5459189e-10
3.5692855e-10
3.6821169e-10
4.4041163e-10
8.5776266e-10
3.2185854e-09
1.5931579e-08
7.6432529e-08
3.1311166e-07
8.7788936e-07
2.0536619e-06
3.4008212e-06
4.8911969e-06
6.7210272e-06
9.0745816e-06
1.2028536e-05
1.5326635e-05
1.8809162e-05
2.206954e-05
2.4339515e-05
2.6713653e-05
2.9177646e-05
3.1785295e-05
3.4503255e-05
3.7232397e-05
4.0124338e-05
4.3152835e-05
4.6220797e-05
4.9337496e-05
5.250431e-05
5.568953e-05
5.8860339e-05
6.2009566e-05
6.5117623e-05
6.8209012e-05
7.0970333e-05
7.548116e-05
3.7379683e-10
3.7366738e-10
3.735361e-10
3.7340056e-10
3.7326013e-10
3.7311459e-10
3.7296384e-10
3.7280778e-10
3.7264636e-10
3.7247949e-10
3.7230713e-10
3.7212922e-10
3.7194572e-10
3.7175658e-10
3.7156173e-10
3.7136107e-10
3.7115447e-10
3.7094186e-10
3.7072318e-10
3.7049838e-10
3.702674e-10
3.700302e-10
3.6978672e-10
3.6953693e-10
3.6928076e-10
3.6901818e-10
3.6874915e-10
3.6847361e-10
3.6819153e-10
3.6790288e-10
3.6760763e-10
3.6730573e-10
3.6699717e-10
3.6668192e-10
3.6635997e-10
3.6603129e-10
3.6569587e-10
3.6535372e-10
3.6500481e-10
3.6464916e-10
3.6428677e-10
3.6391763e-10
3.6354178e-10
3.6315921e-10
3.6276996e-10
3.6237404e-10
3.619715e-10
3.6156236e-10
3.611467e-10
3.6072458e-10
3.6029612e-10
3.598614e-10
3.5942051e-10
3.5897391e-10
3.5852178e-10
3.5806364e-10
3.5759899e-10
3.5712559e-10
3.5663918e-10
3.5613816e-10
3.5561968e-10
3.5505376e-10
3.5436864e-10
3.5370454e-10
3.5317165e-10
3.5276805e-10
3.5254198e-10
3.5309946e-10
3.5601017e-10
3.8308331e-10
5.455966e-10
1.6258787e-09
8.0095084e-09
4.5877145e-08
2.126319e-07
6.8998852e-07
1.8381378e-06
3.2752993e-06
4.8899934e-06
6.871881e-06
9.4012317e-06
1.265029e-05
1.6249484e-05
1.9999254e-05
2.3795725e-05
2.6237319e-05
2.8748843e-05
3.134566e-05
3.4097195e-05
3.6972433e-05
3.9875173e-05
4.2981229e-05
4.6237498e-05
4.9548681e-05
5.2928701e-05
5.6372262e-05
5.9827687e-05
6.3325593e-05
6.6472596e-05
7.1713534e-05
3.7384771e-10
3.737183e-10
3.7358705e-10
3.7345155e-10
3.7331115e-10
3.7316564e-10
3.7301492e-10
3.728589e-10
3.7269751e-10
3.7253068e-10
3.7235834e-10
3.7218045e-10
3.7199696e-10
3.7180782e-10
3.7161296e-10
3.7141228e-10
3.7120568e-10
3.7099308e-10
3.7077442e-10
3.7054964e-10
3.7031869e-10
3.7008152e-10
3.6983808e-10
3.6958832e-10
3.6933219e-10
3.6906965e-10
3.6880065e-10
3.6852515e-10
3.6824311e-10
3.679545e-10
3.6765928e-10
3.6735742e-10
3.670489e-10
3.6673369e-10
3.6641177e-10
3.6608313e-10
3.6574775e-10
3.6540563e-10
3.6505677e-10
3.6470116e-10
3.6433881e-10
3.6396972e-10
3.6359391e-10
3.632114e-10
3.628222e-10
3.6242633e-10
3.6202383e-10
3.6161471e-10
3.6119903e-10
3.607768e-10
3.6034808e-10
3.5991292e-10
3.5947136e-10
3.590235e-10
3.5856945e-10
3.5810934e-10
3.5764325e-10
3.571715e-10
3.5669453e-10
3.5621228e-10
3.5572373e-10
3.5522778e-10
3.547187e-10
3.5419383e-10
3.5365337e-10
3.53042e-10
3.5232001e-10
3.5165848e-10
3.5109922e-10
3.5079748e-10
3.5081709e-10
3.5195733e-10
3.6389863e-10
4.5674816e-10
1.0866332e-09
5.2721828e-09
3.4704097e-08
1.748493e-07
6.2631717e-07
1.8239222e-06
3.3755119e-06
5.153179e-06
7.3602626e-06
1.019256e-05
1.381659e-05
1.7762611e-05
2.1800438e-05
2.5854566e-05
2.8547324e-05
3.1214757e-05
3.3974594e-05
3.6903574e-05
3.9952875e-05
4.3072605e-05
4.6415524e-05
4.9904298e-05
5.3467141e-05
5.7188574e-05
6.0580886e-05
6.6397208e-05
3.7389516e-10
3.7376578e-10
3.7363456e-10
3.7349908e-10
3.7335872e-10
3.7321324e-10
3.7306255e-10
3.7290656e-10
3.727452e-10
3.725784e-10
3.7240609e-10
3.7222822e-10
3.7204474e-10
3.7185559e-10
3.7166072e-10
3.7146002e-10
3.7125342e-10
3.7104082e-10
3.7082217e-10
3.705974e-10
3.7036647e-10
3.7012932e-10
3.698859e-10
3.6963616e-10
3.6938006e-10
3.6911754e-10
3.6884856e-10
3.6857309e-10
3.6829108e-10
3.6800249e-10
3.6770729e-10
3.6740546e-10
3.6709696e-10
3.6678178e-10
3.6645989e-10
3.6613127e-10
3.6579592e-10
3.6545383e-10
3.6510499e-10
3.6474941e-10
3.6438708e-10
3.6401802e-10
3.6364224e-10
3.6325976e-10
3.6287059e-10
3.6247475e-10
3.6207229e-10
3.6166322e-10
3.6124758e-10
3.6082541e-10
3.6039675e-10
3.5996164e-10
3.5952013e-10
3.5907228e-10
3.5861813e-10
3.5815774e-10
3.5769117e-10
3.5721852e-10
3.567399e-10
3.5625547e-10
3.5576536e-10
3.5526976e-10
3.5476936e-10
3.5426402e-10
3.5375304e-10
3.5323358e-10
3.527016e-10
3.5214654e-10
3.5159417e-10
3.5085728e-10
3.5007835e-10
3.4951472e-10
3.4890336e-10
3.4941936e-10
3.4736999e-10
3.5632271e-10
4.2582314e-10
9.1978744e-10
4.5156416e-09
3.3771086e-08
1.787358e-07
6.7166455e-07
2.0337682e-06
3.7527271e-06
5.7370371e-06
8.2508482e-06
1.1567117e-05
1.5612392e-05
1.9914441e-05
2.4238643e-05
2.852176e-05
3.1331221e-05
3.4159306e-05
3.7103051e-05
4.0222824e-05
4.3450665e-05
4.6827249e-05
5.0508792e-05
5.3882529e-05
5.9959292e-05
3.7393943e-10
3.7381007e-10
3.7367888e-10
3.7354344e-10
3.734031e-10
3.7325765e-10
3.7310699e-10
3.7295103e-10
3.7278969e-10
3.7262292e-10
3.7245063e-10
3.7227278e-10
3.7208931e-10
3.7190017e-10
3.7170528e-10
3.7150457e-10
3.7129796e-10
3.7108536e-10
3.7086671e-10
3.7064196e-10
3.7041104e-10
3.701739e-10
3.6993049e-10
3.6968077e-10
3.6942468e-10
3.6916217e-10
3.6889321e-10
3.6861775e-10
3.6833575e-10
3.6804718e-10
3.67752e-10
3.6745018e-10
3.671417e-10
3.6682653e-10
3.6650465e-10
3.6617605e-10
3.6584071e-10
3.6549863e-10
3.6514981e-10
3.6479424e-10
3.6443193e-10
3.6406288e-10
3.6368711e-10
3.6330464e-10
3.6291549e-10
3.6251967e-10
3.6211721e-10
3.6170816e-10
3.6129253e-10
3.6087038e-10
3.6044173e-10
3.6000665e-10
3.5956517e-10
3.5911734e-10
3.5866323e-10
3.5820288e-10
3.5773636e-10
3.5726373e-10
3.5678505e-10
3.5630039e-10
3.5580983e-10
3.5531345e-10
3.548114e-10
3.5430385e-10
3.5379095e-10
3.5327296e-10
3.5275083e-10
3.5222343e-10
3.5169176e-10
3.5114843e-10
3.5058461e-10
3.5001135e-10
3.493715e-10
3.4851323e-10
3.4785306e-10
3.4723856e-10
3.473369e-10
3.4633903e-10
3.5302796e-10
4.2220832e-10
9.4200151e-10
5.0992378e-09
4.2509067e-08
2.2806287e-07
8.6593586e-07
2.4923802e-06
4.4399275e-06
6.7562961e-06
9.7221476e-06
1.3609911e-05
1.80954e-05
2.273803e-05
2.7346408e-05
3.1570758e-05
3.4560378e-05
3.7583358e-05
4.0747726e-05
4.4141849e-05
4.7207472e-05
5.3119967e-05
3.7398074e-10
3.7385141e-10
3.7372024e-10
3.7358482e-10
3.7344451e-10
3.7329909e-10
3.7314846e-10
3.7299252e-10
3.7283121e-10
3.7266446e-10
3.724922e-10
3.7231437e-10
3.7213091e-10
3.7194176e-10
3.7174687e-10
3.7154615e-10
3.7133953e-10
3.7112693e-10
3.7090828e-10
3.7068353e-10
3.7045262e-10
3.7021549e-10
3.6997209e-10
3.6972237e-10
3.6946629e-10
3.692038e-10
3.6893485e-10
3.6865939e-10
3.6837741e-10
3.6808884e-10
3.6779367e-10
3.6749186e-10
3.6718338e-10
3.6686822e-10
3.6654635e-10
3.6621775e-10
3.6588243e-10
3.6554035e-10
3.6519154e-10
3.6483597e-10
3.6447367e-10
3.6410463e-10
3.6372887e-10
3.633464e-10
3.6295725e-10
3.6256143e-10
3.6215899e-10
3.6174993e-10
3.6133431e-10
3.6091216e-10
3.6048352e-10
3.6004844e-10
3.5960696e-10
3.5915914e-10
3.5870503e-10
3.5824469e-10
3.5777818e-10
3.5730556e-10
3.568269e-10
3.5634227e-10
3.5585174e-10
3.5535538e-10
3.5485326e-10
3.5434547e-10
3.5383208e-10
3.5331321e-10
3.52789e-10
3.5225974e-10
3.5172533e-10
3.5118683e-10
3.5064483e-10
3.500969e-10
3.4954612e-10
3.4896635e-10
3.4839096e-10
3.4778254e-10
3.4692245e-10
3.4625805e-10
3.4549894e-10
3.4607155e-10
3.433059e-10
3.5264775e-10
4.4427491e-10
1.1912383e-09
7.8618845e-09
6.8852134e-08
3.5431619e-07
1.3790031e-06
3.2497541e-06
5.4574413e-06
8.2239945e-06
1.1882475e-05
1.6407491e-05
2.1351501e-05
2.6303505e-05
3.1198833e-05
3.5142676e-05
3.8345075e-05
4.1259076e-05
4.6692993e-05
3.7401931e-10
3.7389e-10
3.7375886e-10
3.7362347e-10
3.7348318e-10
3.7333779e-10
3.7318717e-10
3.7303126e-10
3.7286998e-10
3.7270325e-10
3.7253101e-10
3.7235319e-10
3.7216974e-10
3.719806e-10
3.717857e-10
3.7158498e-10
3.7137835e-10
3.7116574e-10
3.709471e-10
3.7072234e-10
3.7049143e-10
3.7025431e-10
3.7001091e-10
3.697612e-10
3.6950512e-10
3.6924263e-10
3.6897368e-10
3.6869824e-10
3.6841625e-10
3.6812769e-10
3.6783252e-10
3.6753071e-10
3.6722224e-10
3.6690708e-10
3.6658521e-10
3.6625662e-10
3.6592129e-10
3.6557922e-10
3.6523041e-10
3.6487484e-10
3.6451254e-10
3.641435e-10
3.6376774e-10
3.6338527e-10
3.6299612e-10
3.6260031e-10
3.6219786e-10
3.617888e-10
3.6137318e-10
3.6095103e-10
3.6052238e-10
3.600873e-10
3.5964581e-10
3.5919799e-10
3.5874387e-10
3.5828353e-10
3.5781701e-10
3.5734439e-10
3.5686573e-10
3.5638109e-10
3.5589056e-10
3.553942e-10
3.548921e-10
3.5438432e-10
3.5387096e-10
3.5335209e-10
3.5282779e-10
3.5229816e-10
3.5176328e-10
3.5122328e-10
3.5067846e-10
3.5012889e-10
3.4957498e-10
3.4901796e-10
3.484565e-10
3.4789284e-10
3.4730757e-10
3.4671306e-10
3.4611043e-10
3.4518654e-10
3.4447282e-10
3.437483e-10
3.441328e-10
3.425115e-10
3.572472e-10
5.1933269e-10
1.9881012e-09
1.8221242e-08
1.4001637e-07
6.3794554e-07
2.24042e-06
4.4500612e-06
7.0633509e-06
1.0460929e-05
1.4953226e-05
2.0078644e-05
2.5376019e-05
3.0715239e-05
3.5387049e-05
4.08372e-05
3.7405534e-10
3.7392605e-10
3.7379493e-10
3.7365956e-10
3.735193e-10
3.7337393e-10
3.7322334e-10
3.7306745e-10
3.7290619e-10
3.7273948e-10
3.7256726e-10
3.7238945e-10
3.7220602e-10
3.7201688e-10
3.7182198e-10
3.7162125e-10
3.7141461e-10
3.71202e-10
3.7098335e-10
3.7075859e-10
3.7052768e-10
3.7029055e-10
3.7004716e-10
3.6979745e-10
3.6954137e-10
3.6927888e-10
3.6900993e-10
3.6873448e-10
3.684525e-10
3.6816393e-10
3.6786876e-10
3.6756695e-10
3.6725848e-10
3.6694332e-10
3.6662145e-10
3.6629285e-10
3.6595752e-10
3.6561545e-10
3.6526663e-10
3.6491107e-10
3.6454876e-10
3.6417972e-10
3.6380395e-10
3.6342148e-10
3.6303232e-10
3.626365e-10
3.6223405e-10
3.6182499e-10
3.6140936e-10
3.609872e-10
3.6055854e-10
3.6012345e-10
3.5968196e-10
3.5923412e-10
3.5878e-10
3.5831964e-10
3.5785311e-10
3.5738048e-10
3.569018e-10
3.5641716e-10
3.5592661e-10
3.5543024e-10
3.5492812e-10
3.5442034e-10
3.5390697e-10
3.5338809e-10
3.528638e-10
3.5233418e-10
3.5179932e-10
3.512593e-10
3.5071422e-10
3.5016419e-10
3.4960925e-10
3.4904976e-10
3.4848584e-10
3.4791748e-10
3.4734683e-10
3.4677074e-10
3.4619721e-10
3.4559098e-10
3.4499486e-10
3.4436388e-10
3.4343464e-10
3.4272734e-10
3.4213534e-10
3.4233403e-10
3.4262725e-10
3.8017905e-10
7.7223688e-10
4.679553e-09
5.1022787e-08
3.241141e-07
1.3681128e-06
3.4596816e-06
6.0342526e-06
9.3048124e-06
1.3712836e-05
1.911528e-05
2.4195558e-05
3.2950722e-05
3.7408899e-10
3.7395973e-10
3.7382863e-10
3.7369328e-10
3.7355304e-10
3.7340769e-10
3.7325712e-10
3.7310126e-10
3.7294001e-10
3.7277332e-10
3.7260112e-10
3.7242333e-10
3.722399e-10
3.7205077e-10
3.7185587e-10
3.7165513e-10
3.7144849e-10
3.7123587e-10
3.7101721e-10
3.7079246e-10
3.7056154e-10
3.7032441e-10
3.7008101e-10
3.698313e-10
3.6957522e-10
3.6931272e-10
3.6904377e-10
3.6876832e-10
3.6848633e-10
3.6819776e-10
3.6790258e-10
3.6760077e-10
3.6729229e-10
3.6697712e-10
3.6665525e-10
3.6632665e-10
3.6599131e-10
3.6564923e-10
3.6530041e-10
3.6494483e-10
3.6458252e-10
3.6421347e-10
3.638377e-10
3.6345522e-10
3.6306605e-10
3.6267022e-10
3.6226776e-10
3.6185868e-10
3.6144304e-10
3.6102087e-10
3.6059221e-10
3.601571e-10
3.5971559e-10
3.5926775e-10
3.5881361e-10
3.5835323e-10
3.5788669e-10
3.5741404e-10
3.5693535e-10
3.5645068e-10
3.5596012e-10
3.5546373e-10
3.5496159e-10
3.5445379e-10
3.5394039e-10
3.534215e-10
3.5289719e-10
3.5236755e-10
3.5183267e-10
3.5129265e-10
3.5074758e-10
3.5019754e-10
3.4964263e-10
3.4908295e-10
3.485186e-10
3.4794964e-10
3.4737636e-10
3.4679894e-10
3.462174e-10
3.456338e-10
3.4504608e-10
3.4446056e-10
3.4384141e-10
3.4324178e-10
3.4252336e-10
3.4166729e-10
3.4073047e-10
3.4135228e-10
3.3764396e-10
3.470373e-10
4.6421909e-10
1.7634624e-09
1.7734378e-08
1.5736926e-07
7.8344008e-07
2.7121785e-06
5.2678741e-06
8.6984881e-06
1.2212336e-05
2.1127205e-05
3.7412029e-10
3.7399104e-10
3.7385996e-10
3.7372464e-10
3.7358442e-10
3.7343909e-10
3.7328854e-10
3.731327e-10
3.7297147e-10
3.728048e-10
3.7263261e-10
3.7245484e-10