/*--------------------------------*- C++ -*----------------------------------*\
  =========                 |
  \\      /  F ield         | OpenFOAM: The Open Source CFD Toolbox
   \\    /   O peration     | Website:  https://openfoam.org
    \\  /    A nd           | Version:  12
     \\/     M anipulation  |
\*---------------------------------------------------------------------------*/
FoamFile
{
    format      ascii;
    class       volScalarField;
    location    "1800";
    object      omega;
}
// * * * * * * * * * * * * * * * * * * * * * * * * * * * * * * * * * * * * * //

dimensions      [0 0 -1 0 0 0 0];

internalField   nonuniform List<scalar> 
13056
(
414.06928
170.04934
96.436126
70.266361
58.962557
53.010173
49.367639
46.905391
45.13216
43.801552
42.774136
41.963391
41.312094
40.780727
40.341108
39.972654
39.659832
39.391328
39.15619
38.954216
38.752818
38.64389
38.231498
100.19517
15925793
15925793
15925793
15925793
15925793
15925793
15925793
15925793
15925793
15925793
15925793
15925793
15925793
15925793
15925793
15925793
15925793
15925793
15925793
15925793
15925793
15925793
15925793
15925793
15925793
15925793
15925793
15925793
15925793
15925793
15925793
15925793
15925793
15925793
15925793
15925793
15925793
15925793
15925793
15925793
15925793
15925793
15925793
15925793
15925793
15925793
15925793
15925793
15925793
15925793
15925793
15925793
15925793
15925793
15925793
15925793
15925793
15925793
15925793
15925793
15925793
15925793
15925793
15925793
15925793
15925793
15925793
15925793
15925793
15925793
15925793
15925793
15925793
15925793
15925793
15925793
15925793
15925793
15925793
15925793
15925793
15925793
15925793
15925793
15925793
15925793
15925793
15925793
15925793
15925793
15925793
15925793
15925793
15925793
15925793
15925793
15925793
15925793
15925793
15925793
15925793
15925793
15925793
15925793
15925793
15925793
15925793
15925793
15925793
15925793
15925793
15925793
414.06927
170.04941
96.436363
70.266474
58.962272
53.009368
49.366331
46.903657
45.130079
43.79919
42.771543
41.960606
41.309149
40.777646
40.33791
39.969355
39.656445
39.387863
39.152657
38.95062
38.749161
38.640244
38.227284
96.939201
2727967.3
2723730.4
2723622.6
2723622.6
2723615
2723603.4
2723592.3
2723582.8
2723574.8
2723567.9
2723561.9
2723556.6
2723551.8
2723547.4
2723543.3
2723539.6
2723536.1
2723532.9
2723530
2723527.2
2723524.6
2723522.1
2723519.8
2723517.6
2723515.6
2723513.6
2723511.7
2723509.9
2723508.2
2723506.5
2723505
2723503.4
2723502
2723500.6
2723499.2
2723497.9
2723496.6
2723495.3
2723494.1
2723492.9
2723491.8
2723490.7
2723489.6
2723488.5
2723487.5
2723486.4
2723485.4
2723484.4
2723483.5
2723482.5
2723481.6
2723480.7
2723479.8
2723478.9
2723478
2723477.1
2723476.3
2723475.4
2723474.6
2723473.8
2723473
2723472.2
2723471.4
2723470.6
2723469.8
2723469
2723468.2
2723467.4
2723466.7
2723465.9
2723465.2
2723464.4
2723463.6
2723462.9
2723462.1
2723461.4
2723460.6
2723459.9
2723459.1
2723458.3
2723457.6
2723456.8
2723456.1
2723455.3
2723454.5
2723453.7
2723452.9
2723452.1
2723451.3
2723450.5
2723449.8
2723449.1
2723448.4
2723447.7
2723447.1
2723446.5
2723445.9
2723445.4
2723444.9
2723444.4
2723443.9
2723443.4
2723443
2723442.5
2723442.1
2723441.7
2723441.3
2723440.9
2723440.6
2723440.2
2723439.9
2723439.3
414.06922
170.04972
96.437176
70.266776
58.961129
53.006424
49.361703
46.897631
45.12293
43.791135
42.762749
41.951199
41.299228
40.76729
40.327183
39.958308
39.645119
39.37629
39.140865
38.938629
38.736984
38.628024
38.213913
93.297522
912022.59
910424.37
910282.41
910281.41
910254.31
910218.99
910186.51
910159.04
910135.73
910115.6
910097.96
910082.32
910068.09
910055.05
910043.07
910032.05
910021.87
910012.44
910003.65
909995.44
909987.71
909980.44
909973.57
909967.06
909960.88
909955
909949.4
909944.05
909938.92
909934
909929.28
909924.72
909920.34
909916.11
909912.01
909908.05
909904.2
909900.47
909896.84
909893.31
909889.87
909886.5
909883.21
909879.99
909876.85
909873.78
909870.76
909867.81
909864.91
909862.06
909859.26
909856.5
909853.79
909851.12
909848.48
909845.88
909843.31
909840.78
909838.27
909835.79
909833.33
909830.9
909828.48
909826.09
909823.71
909821.36
909819.01
909816.68
909814.36
909812.06
909809.76
909807.47
909805.18
909802.9
909800.62
909798.34
909796.06
909793.78
909791.5
909789.2
909786.91
909784.6
909782.28
909779.95
909777.61
909775.25
909772.86
909770.46
909768.02
909765.62
909763.31
909761.12
909759.04
909757.05
909755.16
909753.36
909751.63
909749.98
909748.39
909746.87
909745.41
909744
909742.65
909741.34
909740.07
909738.85
909737.66
909736.5
909735.39
909734.24
909733.23
909731.58
414.06913
170.05026
96.438586
70.267278
58.959108
53.001273
49.353641
46.887159
45.110524
43.777171
42.747512
41.934909
41.282055
40.749371
40.308626
39.939201
39.625531
39.356279
39.120479
38.917899
38.715938
38.606883
38.191002
89.618052
424448.64
421869.51
421639.39
421632.12
421573.97
421500.68
421433.85
421377.36
421329.39
421287.92
421251.55
421219.28
421189.87
421162.94
421138.18
421115.37
421094.32
421074.79
421056.58
421039.56
421023.55
421008.46
420994.2
420980.69
420967.86
420955.64
420944
420932.88
420922.21
420911.99
420902.16
420892.69
420883.56
420874.75
420866.22
420857.95
420849.95
420842.17
420834.6
420827.24
420820.05
420813.03
420806.16
420799.45
420792.89
420786.47
420780.18
420774
420767.95
420762
420756.15
420750.39
420744.71
420739.13
420733.62
420728.18
420722.81
420717.5
420712.25
420707.05
420701.91
420696.81
420691.76
420686.75
420681.77
420676.83
420671.92
420667.04
420662.18
420657.34
420652.52
420647.71
420642.92
420638.14
420633.35
420628.57
420623.78
420618.99
420614.2
420609.39
420604.56
420599.72
420594.85
420589.95
420585.02
420580.05
420575.04
420569.98
420564.87
420559.8
420554.95
420550.34
420545.95
420541.77
420537.79
420534
420530.36
420526.88
420523.54
420520.34
420517.26
420514.29
420511.43
420508.67
420506.01
420503.42
420500.92
420498.48
420496.13
420493.7
420491.57
420488.1
414.069
170.05106
96.440627
70.268003
58.956178
52.993812
49.341966
46.871995
45.092562
43.756956
42.725456
41.911328
41.257198
40.723434
40.281766
39.911544
39.59718
39.327315
39.090972
38.887894
38.685476
38.576279
38.157945
85.964088
238255.59
234342.64
233974.7
233949.63
233848.82
233725.05
233612.66
233517.62
233436.8
233366.87
233305.49
233250.98
233201.28
233155.75
233113.84
233075.22
233039.56
233006.44
232975.55
232946.65
232919.46
232893.82
232869.57
232846.59
232824.77
232803.97
232784.14
232765.19
232747
232729.56
232712.8
232696.64
232681.05
232666.01
232651.44
232637.31
232623.63
232610.33
232597.39
232584.79
232572.49
232560.46
232548.7
232537.21
232525.98
232514.98
232504.19
232493.61
232483.22
232473.01
232462.97
232453.09
232443.36
232433.76
232424.3
232414.95
232405.72
232396.6
232387.58
232378.65
232369.8
232361.03
232352.34
232343.71
232335.15
232326.64
232318.18
232309.77
232301.4
232293.06
232284.75
232276.46
232268.2
232259.94
232251.69
232243.43
232235.17
232226.91
232218.62
232210.31
232201.97
232193.61
232185.19
232176.72
232168.19
232159.6
232150.92
232142.16
232133.31
232124.54
232116.13
232108.16
232100.55
232093.31
232086.41
232079.82
232073.52
232067.48
232061.69
232056.13
232050.78
232045.63
232040.66
232035.87
232031.25
232026.76
232022.42
232018.17
232014.08
232009.87
232006.17
232000.13
414.06883
170.05211
96.443344
70.26898
58.9523
52.983905
49.326443
46.851819
45.068652
43.730037
42.696078
41.879915
41.22408
40.688873
40.245972
39.874685
39.559393
39.28871
39.05164
38.847897
38.644869
38.535488
38.113923
82.343186
151050.07
146084.1
145515.54
145452.03
145298.82
145116.27
144951.01
144811.09
144691.91
144588.68
144497.98
144417.36
144343.81
144276.36
144214.22
144156.91
144103.93
144054.7
144008.74
143965.7
143925.18
143886.95
143850.76
143816.45
143783.84
143752.74
143723.09
143694.72
143667.48
143641.35
143616.22
143591.97
143568.59
143546
143524.12
143502.89
143482.32
143462.32
143442.85
143423.88
143405.36
143387.25
143369.53
143352.21
143335.28
143318.68
143302.4
143286.43
143270.75
143255.33
143240.16
143225.22
143210.5
143195.99
143181.67
143167.53
143153.55
143139.74
143126.06
143112.53
143099.12
143085.82
143072.63
143059.54
143046.54
143033.63
143020.78
143007.99
142995.27
142982.6
142969.96
142957.35
142944.77
142932.21
142919.64
142907.05
142894.47
142881.87
142869.24
142856.56
142843.85
142831.08
142818.22
142805.29
142792.26
142779.13
142765.86
142752.47
142738.93
142725.5
142712.63
142700.42
142688.76
142677.66
142667.09
142656.99
142647.32
142638.05
142629.17
142620.64
142612.43
142604.52
142596.89
142589.53
142582.42
142575.53
142568.85
142562.32
142556.04
142549.56
142543.86
142534.58
414.06861
170.05341
96.446791
70.270247
58.947432
52.971392
49.306791
46.826242
45.038316
43.695862
42.658767
41.840005
41.181993
40.644944
40.200468
39.827821
39.511344
39.239615
39.001618
38.797024
38.593215
38.483617
38.057919
78.751482
104635.64
99031.167
98181.736
98047.338
97835.213
97592.332
97373.191
97187.297
97028.68
96891.098
96770.07
96662.331
96563.991
96473.697
96390.423
96313.505
96242.323
96176.094
96114.199
96056.177
96001.51
95949.866
95900.941
95854.509
95810.346
95768.2
95727.974
95689.461
95652.465
95616.94
95582.75
95549.744
95517.886
95487.098
95457.245
95428.279
95400.181
95372.861
95346.235
95320.291
95294.944
95270.146
95245.883
95222.15
95198.927
95176.166
95153.825
95131.892
95110.347
95089.156
95068.293
95047.742
95027.481
95007.497
94987.766
94968.275
94949.009
94929.948
94911.075
94892.388
94873.869
94855.493
94837.255
94819.148
94801.162
94783.279
94765.482
94747.768
94730.135
94712.564
94695.028
94677.524
94660.058
94642.61
94625.136
94607.643
94590.141
94572.612
94555.023
94537.367
94519.65
94501.845
94483.917
94465.864
94447.683
94429.336
94410.8
94392.078
94373.138
94354.347
94336.323
94319.216
94302.884
94287.327
94272.499
94258.332
94244.764
94231.756
94219.281
94207.299
94195.764
94184.642
94173.916
94163.566
94153.562
94143.865
94134.462
94125.264
94116.413
94107.296
94099.255
94086.179
414.06835
170.05499
96.45103
70.271853
58.941533
52.956098
49.282694
46.794821
45.001003
43.653795
42.612811
41.790827
41.130116
40.59078
40.14435
39.770016
39.452068
39.179039
38.939891
38.734242
38.529459
38.419628
37.988737
75.185731
77657.138
71889.689
70654.355
70403.23
70130.064
69834.105
69568.256
69342.231
69149.006
68981.166
68833.303
68701.464
68581.068
68470.371
68368.115
68273.51
68185.821
68104.113
68027.647
67955.87
67888.155
67824.106
67763.357
67705.636
67650.674
67598.167
67547.998
67499.918
67453.688
67409.251
67366.447
67325.089
67285.133
67246.487
67208.984
67172.567
67137.21
67102.807
67069.255
67036.535
67004.554
66973.25
66942.603
66912.603
66883.229
66854.418
66826.122
66798.323
66770.998
66744.104
66717.612
66691.498
66665.736
66640.311
66615.194
66590.366
66565.81
66541.501
66517.418
66493.557
66469.897
66446.407
66423.078
66399.905
66376.873
66353.958
66331.142
66308.418
66285.786
66263.219
66240.685
66218.18
66195.709
66173.248
66150.742
66128.197
66105.628
66083.009
66060.302
66037.492
66014.591
65991.561
65968.358
65944.979
65921.419
65897.629
65873.578
65849.269
65824.661
65800.23
65776.781
65754.512
65733.246
65712.976
65693.645
65675.167
65657.461
65640.477
65624.181
65608.523
65593.442
65578.894
65564.859
65551.31
65538.211
65525.507
65513.185
65501.127
65489.52
65477.561
65467.007
65449.842
414.06804
170.05682
96.456128
70.273854
58.934571
52.937844
49.253816
46.757076
44.956112
43.603131
42.557423
41.731524
41.067529
40.525413
40.076605
39.700217
39.380478
39.105869
38.865319
38.658386
38.452413
38.342355
37.90502
71.647105
60840.851
55387.917
53642.783
53218.098
52885.711
52552.152
52254.735
52001.351
51784.411
51595.773
51429.366
51280.757
51145.058
51020.121
50904.498
50797.324
50697.799
50604.905
50517.828
50435.957
50358.603
50285.326
50215.725
50149.498
50086.352
50025.947
49968.155
49912.703
49859.32
49807.946
49758.404
49710.483
49664.134
49619.258
49575.665
49533.29
49492.107
49451.998
49412.843
49374.623
49337.247
49300.644
49264.778
49229.638
49195.199
49161.393
49128.164
49095.491
49063.346
49031.685
49000.47
48969.677
48939.274
48909.245
48879.556
48850.187
48821.115
48792.314
48763.76
48735.447
48707.352
48679.436
48651.691
48624.111
48596.677
48569.364
48542.148
48515.02
48487.982
48461.001
48434.041
48407.093
48380.167
48353.232
48326.222
48299.145
48272.018
48244.811
48217.475
48189.995
48162.381
48134.592
48106.569
48078.312
48049.812
48021.01
47991.867
47962.386
47932.516
47902.834
47874.321
47847.221
47821.332
47796.638
47773.071
47750.528
47728.912
47708.164
47688.244
47669.093
47650.636
47632.822
47615.627
47599.018
47582.953
47567.364
47552.238
47537.428
47523.165
47508.465
47495.484
47474.361
414.06768
170.05892
96.462157
70.276322
58.926525
52.916459
49.219814
46.712507
44.903007
43.543121
42.491759
41.661169
40.993241
40.447793
39.996133
39.617282
39.295395
39.018888
38.776656
38.568183
38.360777
38.250533
37.805274
68.142143
49643.821
44925.783
42554.568
41897.412
41508.795
41156.598
40846.662
40582.417
40356.125
40159.382
39985.742
39830.519
39689.005
39558.598
39437.714
39325.455
39221.016
39123.369
39031.684
38945.337
38863.626
38786.099
38712.348
38642.064
38574.95
38510.657
38449.056
38389.869
38332.816
38277.835
38224.748
38173.334
38123.544
38075.277
38028.338
37982.656
37938.206
37894.869
37852.517
37811.127
37770.638
37730.968
37692.06
37653.897
37616.458
37579.671
37543.475
37507.848
37472.764
37438.174
37404.039
37370.332
37337.021
37304.087
37271.497
37239.227
37207.255
37175.55
37144.088
37112.863
37081.849
37051.005
37020.323
36989.794
36959.4
36929.11
36898.901
36868.763
36838.696
36808.666
36778.63
36748.581
36718.528
36688.437
36658.234
36627.927
36597.536
36567.024
36536.34
36505.463
36474.405
36443.119
36411.538
36379.661
36347.475
36314.915
36281.934
36248.534
36214.656
36180.954
36148.544
36117.712
36088.247
36060.116
36033.243
36007.515
35982.824
35959.106
35936.316
35914.388
35893.241
35872.816
35853.086
35834.016
35815.559
35797.638
35780.237
35763.191
35746.765
35729.824
35714.856
35690.481
414.06727
170.06125
96.469189
70.279337
58.917398
52.891793
49.18036
46.660614
44.84104
43.472992
42.41494
41.578797
40.906209
40.356811
39.901771
39.519999
39.195562
38.916805
38.672576
38.462276
38.253162
38.142829
37.687899
64.682315
41654.022
37990.465
34930.328
33992.526
33547.959
33192.303
32886.17
32625.684
32403.064
32209.956
32039.741
31887.64
31749.579
31622.395
31504.395
31394.678
31292.463
31196.777
31106.82
31021.987
30941.607
30865.242
30792.499
30723.084
30656.711
30593.046
30531.964
30473.203
30416.491
30361.769
30308.867
30257.573
30207.837
30159.566
30112.572
30066.781
30022.173
29978.636
29936.043
29894.367
29853.603
29813.66
29774.446
29735.939
29698.123
29660.93
29624.296
29588.198
29552.614
29517.497
29482.807
29448.515
29414.591
29381.019
29347.765
29314.804
29282.112
29249.663
29217.431
29185.409
29153.571
29121.876
29090.316
29058.884
29027.557
28996.306
28965.107
28933.951
28902.836
28871.727
28840.58
28809.388
28778.16
28746.858
28715.407
28683.816
28652.102
28620.227
28588.137
28555.81
28523.258
28490.428
28457.252
28423.725
28389.833
28355.505
28320.692
28285.391
28249.54
28213.829
28179.443
28146.698
28115.401
28085.488
28056.883
28029.468
28003.131
27977.807
27953.453
27929.999
27907.359
27885.474
27864.318
27843.853
27824.029
27804.768
27786.052
27767.703
27750.011
27731.746
27715.604
27689.285
414.0668
170.0638
96.477293
70.282993
58.90722
52.863732
49.135158
46.600923
44.769578
43.391977
42.326084
41.483429
40.805372
40.251335
39.792324
39.407119
39.079686
38.798281
38.551704
38.339256
38.128126
38.01788
37.551216
61.282868
35519.519
33133.278
29415.543
28167.871
27662.588
27309.983
27016.426
26768.098
26556.885
26374.593
26214.504
26071.791
25943.358
25825.298
25715.819
25614.012
25519.129
25430.277
25346.709
25267.856
25193.099
25122.028
25054.278
24989.574
24927.655
24868.211
24811.124
24756.161
24703.072
24651.794
24602.179
24554.032
24507.3
24461.905
24417.675
24374.534
24332.469
24291.381
24251.148
24211.74
24173.237
24135.534
24098.491
24062.081
24026.292
23991.064
23956.335
23922.08
23888.283
23854.902
23821.897
23789.24
23756.903
23724.875
23693.123
23661.619
23630.343
23599.272
23568.383
23537.665
23507.094
23476.632
23446.273
23416.008
23385.815
23355.667
23325.54
23295.426
23265.322
23235.193
23204.999
23174.731
23144.397
23113.96
23083.348
23052.567
23021.634
22990.511
22959.143
22927.511
22895.621
22863.422
22830.847
22797.89
22764.533
22730.706
22696.357
22661.484
22626.02
22590.649
22556.546
22524.039
22492.984
22463.27
22434.822
22407.529
22381.282
22356.02
22331.701
22308.258
22285.608
22263.696
22242.493
22221.966
22202.066
22182.715
22163.898
22145.434
22127.62
22109.205
22092.93
22066.355
414.06628
170.06652
96.486533
70.287397
58.896059
52.832218
49.083975
46.533017
44.688036
43.299345
42.224339
41.374106
40.689682
40.130241
39.666601
39.277391
38.946463
38.661969
38.41265
38.197695
37.984207
37.874122
37.393743
57.962174
30468.447
29482.712
25246.371
23699.197
23124.749
22773.044
22492.981
22258.467
22060.467
21890.875
21742.846
21611.475
21494.879
21388.148
21289.388
21197.666
21112.252
21032.332
20957.213
20886.36
20819.211
20755.386
20694.546
20636.437
20580.821
20527.419
20476.116
20426.711
20378.978
20332.852
20288.207
20244.867
20202.779
20161.876
20122.01
20083.103
20045.144
20008.053
19971.717
19936.099
19901.393
19867.473
19834.135
19801.345
19769.096
19737.338
19706.01
19675.09
19644.563
19614.397
19584.553
19555.002
19525.721
19496.703
19467.918
19439.337
19410.942
19382.716
19354.637
19326.694
19298.863
19271.112
19243.436
19215.827
19188.261
19160.715
19133.169
19105.615
19078.047
19050.434
19022.74
18994.958
18967.091
18939.105
18910.936
18882.589
18854.077
18825.362
18796.397
18767.161
18737.659
18707.842
18677.648
18647.069
18616.087
18584.635
18552.665
18520.17
18487.086
18454.052
18422.164
18391.751
18362.745
18334.965
18308.343
18282.775
18258.165
18234.457
18211.614
18189.574
18168.264
18147.629
18127.648
18108.289
18089.506
18071.227
18053.441
18035.973
18019.113
18001.654
17986.232
17961.005
414.06572
170.06935
96.49696
70.292666
58.88403
52.797266
49.02666
46.456564
44.595913
43.194444
42.108922
41.249937
40.558149
39.992456
39.523456
39.129609
38.794629
38.506555
38.254057
38.036195
37.819971
37.709874
37.21422
54.749297
26067.52
26497.143
21968.029
20166.963
19519.081
19164.276
18896.597
18675.801
18491.114
18334.401
18198.698
18079.013
17973.523
17877.518
17789.015
17707.038
17630.849
17559.691
17492.921
17430.026
17370.493
17313.967
17260.131
17208.746
17159.592
17112.418
17067.109
17023.494
16981.368
16940.665
16901.276
16863.045
16825.916
16789.835
16754.673
16720.352
16686.863
16654.141
16622.085
16590.65
16560.173
16530.496
16501.331
16472.637
16444.41
16416.611
16389.184
16362.102
16335.358
16308.927
16282.771
16256.862
16231.18
16205.722
16180.463
16155.372
16130.434
16105.636
16080.96
16056.393
16031.913
16007.493
15983.132
15958.819
15934.531
15910.248
15885.957
15861.647
15837.312
15812.924
15788.453
15763.893
15739.245
15714.476
15689.533
15664.421
15639.145
15613.675
15587.967
15562.004
15535.787
15509.271
15482.403
15455.173
15427.564
15399.515
15370.982
15341.957
15312.381
15282.826
15254.272
15227.038
15201.158
15176.356
15152.57
15129.709
15107.69
15086.463
15065.997
15046.237
15027.119
15008.596
14990.649
14973.25
14956.358
14939.911
14923.897
14908.159
14892.965
14877.2
14863.29
14840.491
414.06511
170.07222
96.508612
70.29893
58.871302
52.758985
48.963183
46.371359
44.492832
43.076745
41.97917
41.11014
40.409895
39.837013
39.361847
38.96266
38.623014
38.330813
38.07465
37.853437
37.634066
37.523612
37.011485
51.683688
22087.937
23836.403
19302.65
17310.892
16590.621
16228.732
15971.822
15764.218
15592.448
15448.193
15324.42
15216.074
15120.505
15034.114
14954.881
14881.775
14814.029
14750.928
14691.865
14636.349
14583.903
14534.196
14486.928
14441.87
14398.818
14357.542
14317.931
14279.833
14243.068
14207.564
14173.229
14139.924
14107.592
14076.185
14045.597
14015.749
13986.629
13958.19
13930.34
13903.029
13876.58
13850.861
13825.6
13800.747
13776.301
13752.234
13728.49
13705.044
13681.891
13659.012
13636.374
13613.946
13591.713
13569.676
13547.811
13526.089
13504.495
13483.022
13461.655
13440.379
13419.173
13398.017
13376.91
13355.842
13334.791
13313.74
13292.677
13271.596
13250.488
13229.327
13208.09
13186.772
13165.372
13143.859
13122.192
13100.373
13078.406
13056.261
13033.903
13011.317
12988.5
12965.415
12942.014
12918.29
12894.225
12869.765
12844.872
12819.537
12793.709
12767.886
12742.925
12719.137
12696.679
12675.15
12654.493
12634.631
12615.492
12597.034
12579.23
12562.033
12545.387
12529.254
12513.617
12498.45
12483.72
12469.372
12455.397
12441.654
12428.387
12414.592
12402.442
12382.482
414.06447
170.07501
96.521502
70.306324
58.858109
52.717601
48.893665
46.277371
44.378598
42.945898
41.834598
40.954111
40.244208
39.66311
39.180889
38.77559
38.430599
38.13367
37.873307
37.648248
37.425292
37.313998
36.784637
48.805676
18423.542
21284.843
17078.755
14971.569
14182.419
13807.948
13558.261
13361.68
13201.033
13067.554
12954.143
12855.686
12768.962
12691.13
12620.193
12555.065
12494.939
12439.121
12387.039
12338.218
12292.217
12248.725
12207.455
12168.184
12130.723
12094.86
12060.485
12027.465
11995.643
11964.94
11935.277
11906.535
11878.652
11851.587
11825.253
11799.572
11774.53
11750.091
11726.175
11702.73
11679.947
11657.764
11635.994
11614.581
11593.527
11572.81
11552.38
11532.21
11512.296
11492.627
11473.172
11453.9
11434.797
11415.867
11397.093
11378.442
11359.902
11341.469
11323.131
11304.874
11286.676
11268.522
11250.414
11232.342
11214.283
11196.223
11178.156
11160.075
11141.968
11123.816
11105.599
11087.315
11068.958
11050.503
11031.919
11013.206
10994.363
10975.366
10956.185
10936.808
10917.231
10897.42
10877.336
10856.974
10836.314
10815.312
10793.935
10772.174
10749.984
10727.795
10706.341
10685.897
10666.627
10648.155
10630.426
10613.375
10596.942
10581.091
10565.798
10551.023
10536.718
10522.852
10509.408
10496.366
10483.697
10471.352
10459.328
10447.496
10436.078
10424.177
10413.72
10396.498
414.0638
170.07761
96.535616
70.314986
58.844749
52.673479
48.818417
46.174783
44.253245
42.801793
41.674961
40.781487
40.060621
39.470185
38.979941
38.567684
38.216605
37.914286
37.649133
37.419683
37.192681
37.079863
36.533311
46.153181
15035.493
18734.03
15179.307
13043.505
12192.36
11799.752
11552.902
11364.477
11212.659
11087.86
10982.868
10892.5
10813.152
10742.468
10678.51
10620.13
10566.469
10516.837
10470.692
10427.573
10387.071
10348.894
10312.757
10278.445
10245.777
10214.56
10184.684
10156.03
10128.458
10101.89
10076.253
10051.444
10027.401
10004.087
9981.4278
9959.3527
9937.8405
9916.8663
9896.3618
9876.2735
9856.7045
9837.636
9818.9421
9800.5653
9782.5056
9764.7481
9747.2487
9729.9783
9712.9347
9696.1106
9679.4786
9663.0092
9646.6893
9630.5248
9614.5009
9598.588
9582.7725
9567.054
9551.4242
9535.867
9520.3638
9504.9015
9489.4837
9474.1012
9458.7324
9443.3655
9427.9965
9412.6193
9397.2234
9381.7906
9366.3064
9350.7691
9335.1723
9319.4936
9303.7125
9287.8278
9271.8354
9255.7127
9239.4363
9222.9966
9206.3884
9189.5831
9172.549
9155.28
9137.7601
9119.9505
9101.825
9083.3734
9064.5594
9045.7474
9027.5583
9010.2096
8993.7884
8978.05
8962.9439
8948.4152
8934.4122
8920.9054
8907.8724
8895.2798
8883.0882
8871.2694
8859.8106
8848.6926
8837.891
8827.3651
8817.1122
8807.0189
8797.2838
8787.1136
8778.2019
8763.479
414.06312
170.07986
96.550902
70.325048
58.831593
52.62714
48.737976
46.064053
44.117109
42.644633
41.500336
40.592229
39.858993
39.258006
38.758685
38.338551
37.980573
37.672144
37.401558
37.167115
36.935597
36.820285
36.25791
43.757739
11925.665
16173.861
13517.301
11448.131
10546.717
10131.713
9883.2428
9699.9703
9554.6824
9436.5228
9338.0669
9254.0446
9180.5898
9115.6547
9057.3722
9004.5161
8956.1625
8911.6155
8870.3537
8831.93
8795.9688
8762.1881
8730.2993
8700.0895
8671.3882
8644.0162
8617.8643
8592.8242
8568.7714
8545.6275
8523.3251
8501.7753
8480.9154
8460.709
8441.0969
8422.012
8403.4287
8385.3286
8367.6548
8350.3543
8333.4751
8317.0214
8300.9092
8285.0825
8269.5379
8254.2663
8239.2293
8224.3975
8209.7679
8195.3367
8181.0804
8166.9713
8152.9961
8139.1612
8125.4555
8111.8515
8098.3357
8084.9087
8071.5647
8058.2888
8045.0636
8031.8781
8018.7364
8005.6306
7992.5408
7979.4565
7966.3754
7953.2927
7940.1979
7927.0754
7913.9138
7900.7125
7887.4645
7874.1501
7860.7618
7847.293
7833.7368
7820.0733
7806.2839
7792.3606
7778.2982
7764.0722
7749.6569
7735.0469
7720.2278
7705.1673
7689.8437
7674.2474
7658.3484
7642.4553
7627.0912
7612.4293
7598.5081
7585.1704
7572.3701
7560.0604
7548.1978
7536.757
7525.7182
7515.0531
7504.7285
7494.7208
7485.0185
7475.6048
7466.4592
7457.5472
7448.8673
7440.3202
7432.0813
7423.457
7415.9227
7403.4272
414.06245
170.08159
96.567265
70.336624
58.819076
52.579276
48.653139
45.945962
43.970886
42.475006
41.311202
40.386713
39.639602
39.026763
38.517235
38.088231
37.722479
37.407158
37.130442
36.890347
36.653851
36.534674
35.959931
41.640976
9124.8947
13656.363
12025.377
10120.262
9186.8153
8747.5857
8493.4437
8312.4468
8171.5945
8058.278
7964.7195
7885.5303
7816.6867
7756.3169
7702.6224
7654.2605
7610.237
7569.8406
7532.5654
7497.9743
7465.736
7435.5649
7407.1606
7380.3122
7354.8586
7330.6317
7307.5253
7285.4374
7264.2568
7243.9067
7224.323
7205.428
7187.1611
7169.4855
7152.3518
7135.6995
7119.4986
7103.7344
7088.3602
7073.3255
7058.6438
7044.3293
7030.3272
7016.5849
7003.0957
6989.854
6976.8278
6963.988
6951.33
6938.8519
6926.5348
6914.3528
6902.2924
6890.359
6878.5451
6866.8262
6855.1883
6843.6323
6832.1542
6820.741
6809.3764
6798.0509
6786.7681
6775.5219
6764.2945
6753.0759
6741.8648
6730.6574
6719.4442
6708.2115
6696.95
6685.6593
6674.333
6662.954
6651.5303
6640.0463
6628.4923
6616.851
6605.1071
6593.2542
6581.287
6569.185
6556.927
6544.5082
6531.916
6519.1232
6506.1119
6492.8734
6479.3828
6465.9024
6452.8749
6440.4399
6428.6078
6417.2763
6406.404
6395.9508
6385.8797
6376.169
6366.801
6357.7515
6348.9928
6340.5044
6332.2764
6324.2941
6316.5399
6308.9847
6301.6277
6294.3823
6287.4025
6280.0858
6273.7136
6263.0948
414.06181
170.08262
96.584558
70.349799
58.80769
52.530753
48.564992
45.821661
43.815703
42.293971
41.108533
40.165825
39.403249
38.77718
38.256239
37.817307
37.442846
37.119795
36.836202
36.589736
36.347829
36.222871
35.642391
39.811684
6589.6841
11286.82
10648.009
9001.7355
8063.162
7601.0681
7337.9073
7156.5355
7018.2528
6908.2504
6818.2222
6742.6206
6677.3883
6620.6914
6570.7842
6526.1451
6485.7136
6448.7597
6414.7864
6383.3658
6354.2207
6327.0483
6301.5313
6277.4625
6254.6893
6233.0532
6212.452
6192.7883
6173.9613
6155.8979
6138.5363
6121.8074
6105.6544
6090.0395
6074.9205
6060.2438
6045.9769
6032.1059
6018.593
6005.3921
5992.4957
5979.919
5967.6277
5955.575
5943.7506
5932.1507
5920.7496
5909.5198
5898.4544
5887.5524
5876.7987
5866.1705
5855.6536
5845.2519
5834.9604
5824.7585
5814.6321
5804.5809
5794.6024
5784.6859
5774.8167
5764.9855
5755.1952
5745.4414
5735.7089
5725.9879
5716.2771
5706.5736
5696.8695
5687.1526
5677.4145
5667.6548
5657.8684
5648.0404
5638.1969
5628.3099
5618.3667
5608.3526
5598.2546
5588.0673
5577.7859
5567.3931
5556.8709
5546.215
5535.4148
5524.4473
5513.2971
5501.9564
5490.4048
5478.8672
5467.7212
5457.082
5446.9431
5437.2372
5427.9275
5418.9792
5410.3607
5402.0528
5394.0398
5386.3011
5378.8129
5371.5575
5364.5261
5357.7058
5351.0817
5344.6287
5338.3466
5332.1601
5326.2036
5319.9558
5314.5308
5305.4383
414.06121
170.08274
96.602576
70.36461
58.797961
52.482607
48.474922
45.692713
43.653172
42.103125
40.89388
39.931057
39.151367
38.510625
37.977007
37.527032
37.14287
36.811201
36.51994
36.266323
36.018627
35.885277
35.31041
38.263832
4502.0731
9138.1154
9354.5466
8040.0384
7132.9504
6652.9164
6378.3826
6194.27
6056.8808
5948.8825
5861.2488
5788.2277
5725.8966
5672.2641
5625.599
5584.1398
5546.7762
5512.7608
5481.5987
5452.8703
5426.3428
5401.6957
5378.6028
5356.8629
5336.3308
5316.8564
5298.3424
5280.6946
5263.8203
5247.6512
5232.1277
5217.187
5202.7768
5188.8591
5175.3957
5162.3405
5149.6599
5137.3391
5125.3476
5113.6448
5102.2111
5091.0579
5080.1642
5069.4907
5059.0244
5048.7617
5038.6824
5028.7618
5018.9907
5009.3676
4999.8812
4990.512
4981.2456
4972.0833
4963.0222
4954.0458
4945.1403
4936.3037
4927.5343
4918.8237
4910.1593
4901.5316
4892.9419
4884.388
4875.857
4867.3395
4858.8334
4850.3367
4841.843
4833.3418
4824.8249
4816.2915
4807.7381
4799.1519
4790.5726
4781.9617
4773.3055
4764.5913
4755.8075
4746.9493
4738.0128
4728.9833
4719.8451
4710.5943
4701.2219
4691.7084
4682.0401
4672.2105
4662.2023
4652.2104
4642.5613
4633.3516
4624.565
4616.1562
4608.0932
4600.3457
4592.886
4585.6969
4578.7647
4572.0714
4565.5965
4559.3243
4553.247
4547.3534
4541.6306
4536.0569
4530.6322
4525.2912
4520.1508
4514.7615
4510.0949
4502.2196
414.06068
170.08178
96.621053
70.381023
58.790419
52.436015
48.384614
45.561109
43.48544
41.904672
40.669455
39.684603
38.886115
38.229221
37.681621
37.219445
36.824553
36.483337
36.18358
35.921979
35.668192
35.52304
34.971993
36.974554
2909.4167
7319.0693
8150.793
7199.6636
6361.2898
5869.9395
5582.6664
5393.7259
5255.6719
5148.5115
5062.3058
4991.0448
4931.1342
4880.1516
4836.2816
4797.5521
4762.828
4731.3454
4702.603
4676.1888
4651.832
4629.2461
4608.1363
4588.3072
4569.6181
4551.9248
4535.1336
4519.1521
4503.8934
4489.2938
4475.2944
4461.8374
4448.8747
4436.3674
4424.2804
4412.5738
4401.2135
4390.1832
4379.4582
4369.0031
4358.7905
4348.827
4339.1012
4329.5805
4320.2495
4311.1044
4302.1298
4293.3035
4284.6145
4276.0605
4267.6334
4259.3165
4251.0952
4242.9688
4234.9358
4226.9833
4219.0979
4211.2759
4203.5162
4195.8128
4188.1543
4180.5312
4172.9438
4165.391
4157.8625
4150.3489
4142.8475
4135.3569
4127.8722
4120.384
4112.8845
4105.3725
4097.8457
4090.2935
4082.7408
4075.1612
4067.5445
4059.8798
4052.1564
4044.3698
4036.517
4028.5856
4020.5614
4012.4407
4004.2162
3995.871
3987.3928
3978.7759
3970.0058
3961.2531
3952.8033
3944.7392
3937.0386
3929.6703
3922.6072
3915.8223