/*--------------------------------*- C++ -*----------------------------------*\
  =========                 |
  \\      /  F ield         | OpenFOAM: The Open Source CFD Toolbox
   \\    /   O peration     | Website:  https://openfoam.org
    \\  /    A nd           | Version:  12
     \\/     M anipulation  |
\*---------------------------------------------------------------------------*/
FoamFile
{
    format      ascii;
    class       volScalarField;
    location    "1800";
    object      omega;
}
// * * * * * * * * * * * * * * * * * * * * * * * * * * * * * * * * * * * * * //

dimensions      [0 0 -1 0 0 0 0];

internalField   nonuniform List<scalar> 
7480
(
99.668428
99.668428
99.668428
99.668428
99.668428
99.668428
99.668428
99.668428
99.668428
99.668428
99.668428
99.668428
99.668428
425.1732
681.41204
848.4481
946.61925
996.8504
1022.6634
1021.7513
1016.2799
1006.0566
993.3507
979.75721
965.81461
951.79701
937.96927
924.70806
912.40372
900.91559
890.25824
880.49878
871.6816
863.80506
856.82263
850.65936
845.21713
840.401
836.14779
832.41024
829.12127
826.19884
823.56988
821.1607
818.94002
816.81149
814.75586
812.74025
810.73217
808.71014
806.65056
804.52517
802.3153
800.01969
797.65091
795.22644
792.76327
790.27887
787.78889
785.30366
782.82824
780.36522
777.91804
775.49257
773.0946
770.72734
768.39394
766.09678
763.83366
761.59866
759.38738
757.19938
755.03592
752.89772
750.78667
748.70484
746.65036
744.61904
742.60817
740.61777
738.6489
736.7033
734.78229
732.88406
731.005
729.14394
727.30095
725.47743
723.67481
721.89112
720.12349
718.37109
716.63457
714.91307
713.20866
711.50498
709.83566
708.06713
706.5673
703.81874
24.729576
24.769792
24.830714
24.899363
24.972429
25.04919
25.129015
25.212088
25.297555
25.392356
25.466418
25.679196
25.297844
27.770705
39.052111
67.463441
115.63557
179.13681
251.76779
316.4244
363.3765
394.72736
415.47313
429.71435
438.53615
441.28514
439.30856
434.22365
429.55181
428.32165
429.8289
432.58232
435.26547
436.99743
437.32194
436.11286
433.48135
429.71111
425.27616
420.42015
414.94512
408.90181
402.61165
396.27995
390.01705
383.9177
378.06106
372.50347
367.26879
362.3498
357.79816
353.60444
349.74672
346.20287
342.94935
339.95496
337.18599
334.60788
332.17278
329.85783
327.65501
325.55853
323.55782
321.6419
319.80329
318.03562
316.3332
314.68501
313.08036
311.51585
309.99272
308.51278
307.07664
305.68297
304.33002
303.01408
301.72997
300.47445
299.24776
298.05089
296.88399
295.74662
294.636
293.54918
292.48421
291.44113
290.42068
289.4227
288.44554
287.48726
286.54634
285.62277
284.71722
283.82839
282.95588
282.0951
281.2559
280.40796
279.66646
278.40845
24.644346
24.494645
24.343578
24.190463
24.035116
23.877512
23.71766
23.555587
23.391317
23.224909
23.056329
22.885892
22.713296
22.538653
22.395529
22.573085
23.51734
25.951988
30.627135
38.729074
50.895171
66.7468
85.593027
106.43843
129.01595
149.50951
167.06014
181.95743
195.10429
208.06614
222.72367
237.04209
248.93214
258.23466
265.13051
269.75866
272.12904
272.06477
269.65681
265.68427
261.70202
258.24815
255.00488
251.738
248.38846
245.10207
241.7076
238.14148
234.47841
230.77823
227.11416
223.58776
220.25563
217.13382
214.21002
211.462
208.87511
206.44117
204.17775
202.07468
200.11391
198.27598
196.54253
194.90114
193.34372
191.86244
190.44864
189.08867
187.7749
186.50811
185.28942
184.11725
182.98896
181.90198
180.85438
179.84094
178.85598
177.89814
176.96856
176.06791
175.19553
174.35077
173.53014
172.73019
171.94984
171.18964
170.45011
169.73136
169.03117
168.34722
167.67861
167.02557
166.38873
165.76708
165.15938
164.56321
163.98363
163.40255
162.91086
162.04429
24.638758
24.4801
24.31887
24.154929
23.988294
23.818979
23.646999
23.472375
23.295126
23.115278
22.932858
22.747912
22.560465
22.370749
22.178589
21.985566
21.792092
21.605591
21.446496
21.361825
21.413474
21.66654
22.181031
23.046328
24.28075
26.362811
29.465423
33.70768
39.216787
46.150469
54.846912
65.558353
78.788403
93.076864
107.96697
123.28828
138.99638
155.08396
168.34418
177.82535
184.18084
188.17804
190.25529
190.67811
189.69192
187.54603
185.15874
182.81313
180.43802
177.91122
175.24278
172.59644
169.86943
167.11591
164.37411
161.67083
159.04715
156.53146
154.15116
151.91312
149.80579
147.81758
145.94328
144.17952
142.51656
140.94147
139.43985
138.01285
136.66177
135.38144
134.16422
133.0027
131.89188
130.82843
129.80894
128.82737
127.88016
126.96776
126.09035
125.24653
124.43419
123.65187
122.89521
122.1613
121.45003
120.76188
120.09662
119.4538
118.83038
118.22415
117.63474
117.06244
116.50756
115.96869
115.44424
114.93253
114.43766
113.94395
113.53579
112.80637
24.638339
24.479117
24.317338
24.152855
23.985639
23.815688
23.64301
23.467616
23.28952
23.108738
22.925289
22.739193
22.550476
22.359109
22.165275
21.967948
21.767417
21.564484
21.361236
21.15669
20.951315
20.74649
20.541768
20.338754
20.139863
19.950503
19.77829
19.636343
19.541497
19.515921
19.589757
19.814611
20.232096
21.156447
22.792978
25.369781
29.193858
34.728815
42.427989
53.067982
66.330112
80.937398
96.39456
112.73807
126.28293
135.82394
141.92422
145.36324
146.82832
146.86094
145.85295
144.28303
142.57155
140.73253
138.71472
136.54587
134.3779
132.15789
129.91231
127.6698
125.4653
123.33732
121.31444
119.39565
117.5647
115.81156
114.13399
112.54082
111.03723
109.61712
108.26959
106.98804
105.76888
104.60788
103.49787
102.4389
101.43212
100.47377
99.559288
98.684419
97.846047
97.041685
96.267558
95.522393
94.806096
94.117842
93.456089
92.819475
92.204529
91.609754
91.035106
90.480431
89.945398
89.42799
88.926622
88.440021
87.972189
87.5068
87.128039
86.448622
24.638306
24.479021
24.317175
24.152626
23.985344
23.81533
23.642592
23.467142
23.288995
23.10817
22.924686
22.738569
22.549849
22.358563
22.16476
21.968476
21.769749
21.5686
21.365039
21.158906
20.949771
20.736907
20.521786
20.304909
20.086662
19.867417
19.648295
19.428546
19.208091
18.987277
18.767295
18.547566
18.328436
18.11191
17.902252
17.707028
17.541219
17.430296
17.42416
17.573469
18.098632
19.34375
21.649613
25.563072
31.718671
41.238197
54.040364
68.445501
84.010052
97.77193
107.84205
114.18678
117.66256
119.07879
119.14933
118.35873
117.15811
115.78236
114.25509
112.57059
110.79741
109.00835
107.19647
105.36497
103.52839
101.72294
99.98129
98.308322
96.696236
95.143082
93.653644
92.233679
90.881888
89.592269
88.357959
87.18076
86.064465
85.005735
83.998212
83.037188
82.119788
81.241806
80.405268
79.608878
78.849309
78.123216
77.42783
76.760807
76.119743
75.504029
74.913024
74.345528
73.800266
73.274862
72.768161
72.279066
71.811391
71.347272
70.972463
70.302981
24.638312
24.479019
24.317163
24.152603
23.98531
23.815284
23.642534
23.46707
23.28891
23.10807
22.924571
22.738439
22.549706
22.358416
22.164619
21.968372
21.769732
21.568758
21.365498
21.159998
20.952296
20.7424
20.530348
20.316186
20.09997
19.881743
19.661551
19.43938
19.215116
18.988654
18.759312
18.528372
18.296445
18.063875
17.831016
17.598665
17.367303
17.136234
16.905866
16.678044
16.452336
16.23189
16.026056
15.852842
15.76552
15.830421
16.304304
17.607531
20.264654
24.94446
32.859991
44.454814
57.821157
72.323567
84.034483
92.106042
96.832173
99.056918
99.686312
99.380826
98.548618
97.504602
96.287049
94.94727
93.518302
92.085256
90.624117
89.127354
87.597367
86.066528
84.570565
83.121007
81.713444
80.346764
79.027987
77.761329
76.547102
75.384421
74.272587
73.21125
72.19877
71.230488
70.307709
69.431315
68.598188
67.803961
67.045589
66.319741
65.628928
64.970945
64.342817
63.742012
63.166291
62.613836
62.084202
61.575813
61.091858
60.612689
60.226723
59.543766
24.638327
24.479034
24.317178
24.152617
23.985322
23.815294
23.642542
23.467076
23.288914
23.108073
22.924575
22.738444
22.549714
22.358426
22.16463
21.96838
21.769731
21.568741
21.365465
21.159962
20.952287
20.742505
20.530679
20.31687
20.101141
19.883558
19.66418
19.443073
19.2203
18.995927
18.769994
18.542566
18.313729
18.083574
17.852188
17.619642
17.385975
17.151083
16.914781
16.675978
16.436624
16.197513
15.959347
15.723981
15.490051
15.258455
15.031149
14.811376
14.610825
14.469927
14.460849
14.821464
16.010722
18.649746
23.412464
32.211327
43.525529
56.498005
68.158805
76.609431
81.764861
84.274341
85.032763
84.881835
84.26041
83.44257
82.467619
81.380776
80.215678
79.037424
77.82305
76.565603
75.273598
73.976235
72.70282
71.454049
70.224752
69.021416
67.855237
66.73135
65.649637
64.60925
63.61007
62.654489
61.742113
60.871034
60.039911
59.245557
58.489337
57.77051
57.086239
56.433475
55.809222
55.214337
54.648313
54.107624
53.594512
53.087702
52.679658
51.966552
24.638344
24.479053
24.317199
24.152638
23.985345
23.815318
23.642565
23.4671
23.288939
23.108099
22.924602
22.738475
22.549748
22.358465
22.164674
21.968429
21.769785
21.568798
21.365523
21.160016
20.952333
20.742534
20.53068
20.316836
20.101072
19.883459
19.664072
19.442987
19.220284
18.996048
18.770365
18.543324
18.315011
18.08551
17.854911
17.623299
17.390758
17.157373
16.923231
16.68837
16.452866
16.216816
15.98029
15.743355
15.505845
15.2671
15.026731
14.786831
14.549407
14.315482
14.08401
13.858226
13.640788
13.443116
13.321845
13.353415
13.95161
15.656056
19.098354
25.864665
35.798413
47.556244
58.430167
66.265579
70.959247
73.125933
73.714476
73.544874
73.017221
72.33483
71.507844
70.583788
69.604253
68.608812
67.581143
66.509636
65.405562
64.294787
63.192006
62.099013
61.020324
59.966383
58.941132
57.94577
56.98263
56.055411
55.166059
54.313226
53.495095
52.713466
51.968007
51.256854
50.577627
49.930765
49.316034
48.730237
48.175313
47.628969
47.189624
46.432269
24.638363
24.479075
24.317222
24.152664
23.985371
23.815345
23.642594
23.46713
23.28897
23.108132
22.924639
22.738515
22.549794
22.358517
22.164732
21.968493
21.769854
21.568869
21.365596
21.160089
20.952405
20.742602
20.530744
20.316893
20.10112
19.883494
19.664089
19.442983
19.220255
18.995988
18.770267
18.54318
18.314817
18.085272
17.854638
17.623013
17.390494
17.157184
16.923184
16.688605
16.453549
16.218117
15.982405
15.746502
15.510494
15.274452
15.038407
14.802415
14.566571
14.330781
14.094858
13.856645
13.6191
13.385172
13.15531
12.928841
12.709856
12.502866
12.340986
12.29375
12.680526
14.040645
16.991801
23.241387
32.48048
43.547304
53.048396
59.522186
63.046788
64.486875
64.725694
64.449835
63.942141
63.319786
62.579379
61.775901
60.945056
60.087164
59.186312
58.245013
57.284223
56.323343
55.36286
54.403206
53.453987
52.524304
51.617936
50.737388
49.883727
49.059858
48.267435
47.507454
46.780059
46.083887
45.419007
44.784477
44.183267
43.592904
43.114694
42.299145
24.638383
24.479098
24.317247
24.152691
23.9854
23.815375
23.642625
23.467163
23.289005
23.10817
22.92468
22.738561
22.549846
22.358576
22.164798
21.968565
21.769931
21.568951
21.36568
21.160174
20.95249
20.742687
20.530827
20.316975
20.101199
19.883571
19.664163
19.443054
19.220321
18.996048
18.770319
18.543222
18.314847
18.085285
17.85463
17.62298
17.390434
17.15709
16.923053
16.688426
16.453314
16.217824
15.982065
15.746143
15.510167
15.274248
15.038501
14.803031
14.567931
14.333278
14.09916
13.865567
13.632518
13.400124
13.16824
12.936314
12.702817
12.471198
12.245367
12.022661
11.808009
11.603232
11.436507
11.375823
11.763762
13.177956
16.27157
23.167082
32.397992
42.344921
50.002686
54.661216
56.759418
57.391234
57.298477
56.922363
56.423032
55.831836
55.167278
54.463138
53.738658
52.976551
52.172818
51.340961
50.499322
49.650427
48.796199
47.946792
47.108966
46.285553
45.480236
44.698159
43.942652
43.2132
42.510738
41.836244
41.194548
40.56391
40.048056
39.170178
24.638405
24.479122
24.317274
24.152719
23.98543
23.815407
23.642659
23.467199
23.289043
23.108211
22.924724
22.738611
22.549902
22.358639
22.164868
21.968642
21.770013
21.569037
21.365769
21.160264
20.95258
20.742777
20.530915
20.317061
20.101282
19.883651
19.664241
19.443128
19.220392
18.996116
18.770384
18.543284
18.314906
18.085341
17.854683
17.62303
17.39048
17.157132
16.923089
16.688455
16.453332
16.217829
15.98205
15.746104
15.510099
15.274142
15.038343
14.802811
14.567654
14.33298
14.098896
13.865518
13.632951
13.401278
13.170566
12.94088
12.712178
12.484501
12.257793
12.032119
11.804201
11.577956
11.358276
11.141895
10.934472
10.737125
10.5883
10.567385
11.180707
12.944196
17.193836
24.770302
34.427333
42.543843
47.871388
50.325122
51.218436
51.276961
50.997569
50.583088
50.092596
49.528054
48.926883
48.307739
47.653199
46.956365
46.227946
45.486359
44.73426
43.972411
43.209458
42.453105
41.707789
40.976372
40.262583
39.568892
38.902327
38.242698
37.699493
36.768395
24.638428
24.479148
24.317302
24.152749
23.985463
23.815441
23.642695
23.467237
23.289084
23.108254
22.924772
22.738664
22.549962
22.358706
22.164943
21.968723
21.7701
21.569129
21.365863
21.16036
20.952676
20.742872
20.531009
20.317153
20.101372
19.883738
19.664324
19.443208
19.220469
18.99619
18.770454
18.543351
18.314969
18.085401
17.854741
17.623085
17.390532
17.157182
16.923137
16.688501
16.453377
16.217872
15.982092
15.746144
15.510137
15.274176
15.038371
14.80283
14.567658
14.332963
14.098851
13.865428
13.632799
13.401067
13.170336
12.940705
12.712283
12.485165
12.259396
12.035068
11.812089
11.590471
11.370175
11.151394
10.930345
10.711722
10.499771
10.291972
10.093439
9.9137833
9.7976921
10.004787
11.121371
13.930339
20.28994
28.977026
37.02004
42.503805
45.083953
46.067897
46.187561
45.95042
45.586635
45.161965
44.671988
44.151333
43.611388
43.039991
42.429317
41.787808
41.130545
40.458766
39.77564
39.089442
38.405937
37.728082
37.065588
36.399951
35.847526
34.884598
24.638453
24.479175
24.317331
24.152781
23.985496
23.815477
23.642733
23.467277
23.289127
23.108301
22.924823
22.73872
22.550024
22.358776
22.165021
21.968808
21.770191
21.569224
21.365962
21.16046
20.952776
20.742971
20.531107
20.317249
20.101466
19.883829
19.664412
19.443293
19.22055
18.996267
18.770528
18.543421
18.315036
18.085464
17.854801
17.623142
17.390586
17.157233
16.923186
16.688547
16.453421
16.217914
15.982133
15.746184
15.510175
15.274213
15.038408
14.802865
14.567693
14.332997
14.098884
13.865458
13.632821
13.401077
13.170326
12.940666
12.712196
12.485013
12.259211
12.034878
11.81212
11.591026
11.371626
11.154009
10.938045
10.723744
10.511049
10.299771
10.086843
9.8780656
9.6749303
9.479242
9.2949818
9.1494336
9.1799854
9.9571245
12.090946
17.668938
25.674425
33.318324
38.517291
40.874987
41.74137
41.83009
41.601937
41.26893
40.887472
40.456189
39.999557
39.524923
39.020284
38.477181
37.905433
37.316306
36.711109
36.0935
35.476068
34.839899
34.30642
33.348371
24.63848
24.479204
24.317362
24.152815
23.985532
23.815515
23.642773
23.46732
23.289172
23.10835
22.924876
22.738779
22.55009
22.35885
22.165102
21.968897
21.770286
21.569323
21.366064
21.160563
20.95288
20.743075
20.531209
20.31735
20.101564
19.883924
19.664505
19.443382
19.220636
18.996349
18.770607
18.543496
18.315107
18.085532
17.854865
17.623203
17.390644
17.157288
16.923238
16.688597
16.453469
16.21796
15.982176
15.746225
15.510214
15.274251
15.038444
14.8029
14.567726
14.33303
14.098915
13.865488
13.632852
13.401107
13.170355
12.940694
12.71222
12.485028
12.25921
12.034856
11.812055
11.590894
11.371459
11.153825
10.93809
10.724328
10.512559
10.302836
10.095033
9.889052
9.6852149
9.48068
9.2771485
9.0808972
8.8885111
8.7123996
8.5404484
8.5183031
9.1522397
11.066743
16.305404
23.974754
31.012236
35.51035
37.41921
38.046587
38.053474
37.820242
37.508732
37.16148
36.77621
36.371178
35.948979
35.49365
35.00302
34.487172
33.957439
33.390901
32.911492
32.008585
24.638508
24.479234
24.317395
24.15285
23.98557
23.815555
23.642816
23.467365
23.28922
23.108402
22.924933
22.738841
22.55016
22.358927
22.165187
21.968988
21.770384
21.569426
21.366169
21.160671
20.952988
20.743182
20.531316
20.317454
20.101666
19.884024
19.664601
19.443475
19.220725
18.996435
18.770689
18.543574
18.315182
18.085603
17.854932
17.623267
17.390705
17.157346
16.923293
16.688649
16.453519
16.218007
15.982222
15.746268
15.510256
15.274291
15.038482
14.802937
14.567762
14.333063
14.098948
13.865519
13.632881
13.401136
13.170383
12.940721
12.712246
12.485054
12.259236
12.034881
11.812077
11.590909
11.371458
11.153804
10.938025
10.724197
10.512393
10.302678
10.095143
9.8898224
9.686766
9.4858876
9.287055
9.0903557
8.8950929
8.6980004
8.5092905
8.3211283
8.1611192
7.9540407
7.9560536
8.5897113
10.619538
15.908296
23.499873
29.709226
33.091121
34.451892
34.817314
34.742157
34.507031
34.216234
33.897284
33.54829
33.182007
32.797213
32.383987
31.919717
31.527473
30.732553
24.638537
24.479266
24.31743
24.152887
23.985609
23.815597
23.64286
23.467412
23.289271
23.108456
22.924992
22.738906
22.550232
22.359007
22.165274
21.969083
21.770484
21.569531
21.366278
21.160782
20.9531
20.743294
20.531426
20.317563
20.101772
19.884127
19.664701
19.443572
19.220818
18.996524
18.770774
18.543656
18.31526
18.085677
17.855003
17.623334
17.390769
17.157407
16.923352
16.688705
16.453572
16.218058
15.98227
15.746315
15.5103
15.274333
15.038523
14.802975
14.567799
14.333099
14.098982
13.865552
13.632913
13.401166
13.170411
12.940748
12.712273
12.485079
12.25926
12.034904
11.8121
11.590931
11.37148
11.153825
10.938043
10.724207
10.512388
10.302651
10.095064
9.8896913
9.6865881
9.4858238
9.2874621
9.0914948
8.8979793
8.7065767
8.5175456
8.3307805
8.1406439
7.9582789
7.7806196
7.6151817
7.4684033
7.4959272
8.2328114
10.782687
16.518484
23.519019
28.640685
30.98788
31.867787
31.990916
31.835694
31.589015
31.31072
31.01214
30.698163
30.350844
30.064291
29.418835
24.638569
24.4793
24.317467
24.152926
23.985651
23.815641
23.642907
23.467462
23.289324
23.108514
22.925055
22.738975
22.550307
22.359089
22.165365
21.969181
21.770588
21.56964
21.36639
21.160896
20.953215
20.743408
20.53154
20.317675
20.101882
19.884234
19.664805
19.443672
19.220915
18.996617
18.770863
18.543741
18.315341
18.085755
17.855077
17.623405
17.390836
17.157471
16.923413
16.688763
16.453627
16.218111
15.98232
15.746363
15.510346
15.274378
15.038565
14.803016
14.567838
14.333137
14.099018
13.865587
13.632946
13.401197
13.170442
12.940777
12.7123
12.485106
12.259285
12.034928
11.812123
11.590953
11.371501
11.153845
10.938063
10.724227
10.512407
10.30267
10.095079
9.8896962
9.686578
9.4857795
9.2873553
9.091355
8.8978225
8.7068371
8.5183526
8.3325428
8.1487578
7.9677953
7.7888781
7.6079415
7.4345041
7.2652787
7.111715
6.9716872
7.1570316
8.122644
11.859083
18.172289
24.158672
27.6721
29.060254
29.460639
29.425328
29.237062
28.999674
28.724955
28.502343
28.01284
24.638603
24.479337
24.317505
24.152967
23.985694
23.815688
23.642956
23.467515
23.289381
23.108574
22.92512
22.739046
22.550385
22.359175
22.165458
21.969281
21.770695
21.569751
21.366505
21.161013
20.953333
20.743527
20.531657
20.31779
20.101995
19.884344
19.664912
19.443776
19.221015
18.996714
18.770956
18.54383
18.315426
18.085835
17.855154
17.623478
17.390906
17.157538
16.923476
16.688824
16.453685
16.218166
15.982373
15.746414
15.510395
15.274424
15.03861
14.803059
14.567879
14.333176
14.099056
13.865623
13.63298
13.401231
13.170473
12.940808
12.712329
12.485133
12.259311
12.034953
11.812147
11.590976
11.371522
11.153866
10.938083
10.724245
10.512424
10.302687
10.095096
9.8897128
9.6865944
9.4857947
9.2873641
9.0913506
8.8977976
8.7067507
8.5182483
8.3323242
8.1490438
7.9683976
7.7904383
7.614803
7.441755
7.2702836
7.0978805
6.9322339
6.7737476
6.6309199
6.5325699
6.9550871
8.6807582
13.528368
19.833228
24.452998
26.476589
27.185955
27.269344
27.117062
26.954544
26.560178
24.638638
24.479375
24.317546
24.15301
23.98574
23.815736
23.643008
23.46757
23.28944
23.108638
22.925189
22.739121
22.550467
22.359264
22.165554
21.969384
21.770804
21.569865
21.366623
21.161133
20.953454
20.743648
20.531777
20.317909
20.102112
19.884458
19.665023
19.443883
19.221119
18.996813
18.771052
18.543921
18.315513
18.085919
17.855234
17.623554
17.390979
17.157607
16.923542
16.688887
16.453745
16.218224
15.982429
15.746466
15.510445
15.274473
15.038656
14.803103
14.567922
14.333217
14.099095
13.86566
13.633017
13.401265
13.170507
12.940839
12.71236
12.485162
12.259339
12.03498
11.812172
11.590999
11.371545
11.153887
10.938103
10.724265
10.512443
10.302704
10.095112
9.8897285
9.6866094
9.4858092
9.2873786
9.0913648
8.8978118
8.70676
8.5182476
8.3323071
8.1489756
7.968281
7.7902465
7.6149309
7.4423019
7.2724053
7.104743
6.9401678
6.7749737
6.6124824
6.4542938
6.3120531
6.1677491
6.270402
7.032019
10.478392
16.327236
21.446309
24.081243
25.04412
25.329176
25.125378
24.638676
24.479415
24.317589
24.153056
23.985789
23.815788
23.643063
23.467628
23.289501
23.108704
22.92526
22.739198
22.550551
22.359355
22.165653
21.96949
21.770916
21.569982
21.366743
21.161256
20.953578
20.743772
20.531901
20.318031
20.102232
19.884575
19.665137
19.443994
19.221226
18.996916
18.77115
18.544016
18.315604
18.086006
17.855317
17.623634
17.391054
17.15768
16.923611
16.688953
16.453808
16.218284
15.982486
15.746521
15.510498
15.274523
15.038704
14.80315
14.567966
14.33326
14.099136
13.8657
13.633054
13.401301
13.170541
12.940872
12.712391
12.485192
12.259368
12.035007
11.812198
11.591024
11.371568
11.15391
10.938124
10.724285
10.512462
10.302722
10.09513
9.8897446
9.6866246
9.4858236
9.2873922
9.0913778
8.8978243
8.7067725
8.5182597
8.33232
8.1489841
7.9682801
7.7902315
7.6148646
7.4421973
7.2722546
7.1050585
6.9406304
6.7788379
6.6193085
6.4629642
6.3038309
6.1515754
6.0061128
5.870739
5.7881578
6.2010324
8.1523691
13.033467
18.383795
21.853393
23.262298
24.638716
24.479457
24.317634
24.153104
23.985839
23.815841
23.64312
23.467689
23.289566
23.108773
22.925335
22.739279
22.550638
22.35945
22.165755
21.969599
21.77103
21.570102
21.366866
21.161381
20.953705
20.743899
20.532027
20.318156
20.102355
19.884696
19.665254
19.444107
19.221336
18.997022
18.771253
18.544114
18.315698
18.086096
17.855403
17.623716
17.391133
17.157754
16.923682
16.689021
16.453873
16.218346
15.982545
15.746578
15.510552
15.274575
15.038755
14.803198
14.568012
14.333304
14.099178
13.86574
13.633093
13.401338
13.170577
12.940906
12.712424
12.485223
12.259397
12.035035
11.812225
11.59105
11.371593
11.153933
10.938146
10.724306
10.512482
10.302741
10.095147
9.8897613
9.6866404
9.4858385
9.2874063
9.091391
8.8978367
8.7067842
8.5182708
8.3323307
8.1489947
7.9682905
7.7902427
7.6148722
7.442198
7.2722344
7.1050011
6.9404995
6.778773
6.6197781
6.4636483
6.309788
6.1589542
6.0084952
5.8599386
5.7155817
5.5861914
5.4594992
5.6353792
7.0320839
10.276759
17.275583
24.638759
24.479502
24.317681
24.153154
23.985893
23.815898
23.643179
23.467752
23.289634
23.108846
22.925412
22.739362
22.550729
22.359547
22.165859
21.96971
21.771147
21.570223
21.366992
21.161509
20.953835
20.744029
20.532156
20.318284
20.102481
19.884819
19.665374
19.444224
19.221449
18.997132
18.771358
18.544215
18.315795
18.086189
17.855491
17.6238
17.391213
17.157831
16.923756
16.689091
16.453941
16.218411
15.982607
15.746637
15.510609
15.274629
15.038807
14.803248
14.56806
14.33335
14.099222
13.865782
13.633133
13.401377
13.170614
12.940942
12.712458
12.485256
12.259428
12.035065
11.812252
11.591076
11.371618
11.153957
10.938169
10.724327
10.512502
10.30276
10.095165
9.8897786
9.6866567
9.4858539
9.2874208
9.0914046
8.8978496
8.7067963
8.5182822
8.3323413
8.1490047
7.9683
7.7902517
7.6148813
7.442207
7.2722441
7.1050053
6.9404995
6.7787349
6.619721
6.4634555
6.3099669
6.1592545
6.0112054
5.8654967
5.7228363
5.577646
5.4397559
5.3050191
5.2046295
5.1617231
8.313307
24.638803
24.47955
24.317731
24.153207
23.985949
23.815957
23.643242
23.467819
23.289704
23.108921
22.925493
22.739449
22.550822
22.359647
22.165966
21.969823
21.771267
21.570348
21.36712
21.16164
20.953967
20.744162
20.532289
20.318415
20.10261
19.884946
19.665498
19.444344
19.221565
18.997244
18.771466
18.544319
18.315894
18.086284
17.855583
17.623888
17.391297
17.157911
16.923833
16.689164
16.45401
16.218477
15.982671
15.746699
15.510667
15.274686
15.03886
14.803299
14.568109
14.333397
14.099268
13.865826
13.633175
13.401417
13.170652
12.940978
12.712492
12.485289
12.25946
12.035095
11.812281
11.591104
11.371644
11.153981
10.938192
10.724349
10.512523
10.30278
10.095184
9.8897963
9.6866735
9.4858697
9.2874356
9.0914187
8.8978628
8.7068087
8.5182938
8.3323523
8.149015
7.9683096
7.7902607
7.6148897
7.4422149
7.2722518
7.1050128
6.9405075
6.7787423
6.6197224
6.4634467
6.3099215
6.1591369
6.0111181
5.8658049
5.7233881
5.5829271
5.4467262
5.3048581
5.1877696
4.984918
5.0144464
24.638851
24.479599
24.317784
24.153263
23.986007
23.816019
23.643308
23.467888
23.289778
23.109
22.925577
22.739539
22.550918
22.35975
22.166076
21.969939
21.771389
21.570475
21.367251
21.161773
20.954102
20.744297
20.532424
20.318548
20.102741
19.885075
19.665624
19.444467
19.221684
18.997359
18.771577
18.544426
18.315997
18.086383
17.855677
17.623978
17.391383
17.157994
16.923911
16.689239
16.454082
16.218546
15.982737
15.746762
15.510728
15.274743
15.038916
14.803352
14.56816
14.333446
14.099314
13.865871
13.633218
13.401458
13.170691
12.941016
12.712528
12.485323
12.259492
12.035126
11.812311
11.591132
11.371671
11.154007
10.938216
10.724372
10.512544
10.3028
10.095204
9.8898146
9.6866907
9.4858859
9.2874509
9.091433
8.8978763
8.7068214
8.5183057
8.3323634
8.1490254
7.9683194
7.7902698
7.6148982
7.4422229
7.2722592
7.1050197
6.9405139
6.7787488
6.6197284
6.4634542
6.3099253
6.1591374
6.0110865
5.8657664
5.7231723
5.5832989
5.4461642
5.3118013
5.177716
5.0594274
4.8591084
24.638901
24.479652
24.317839
24.153321
23.986069
23.816084
23.643376
23.46796
23.289855
23.109081
22.925664
22.739632
22.551017
22.359856
22.166188
21.970058
21.771513
21.570604
21.367384
21.161909
20.954239
20.744435
20.532561
20.318685
20.102876
19.885207
19.665753
19.444593
19.221807
18.997477
18.771691
18.544536
18.316103
18.086484
17.855774
17.624071
17.391472
17.158079
16.923992
16.689317
16.454157
16.218617
15.982805
15.746827
15.51079
15.274803
15.038973
14.803407
14.568213
14.333496
14.099363
13.865917
13.633262
13.401501
13.170732
12.941055
12.712565
12.485358
12.259526
12.035158
11.812341
11.591161
11.371698
11.154033
10.938241
10.724395
10.512567
10.302821
10.095223
9.8898332
9.6867083
9.4859025
9.2874665
9.0914477
8.8978901
8.7068343
8.5183179
8.3323748
8.1490361
7.9683293
7.7902791
7.6149069
7.4422309
7.2722667
7.1050266
6.9405204
6.7787548
6.619734
6.4634595
6.3099304
6.1591433
6.0110913
5.8657705
5.7231533
5.5833013
5.4458945
5.3122796
5.1765301
5.0644442
4.8640915
24.638953
24.479707
24.317897
24.153382
23.986133
23.816152
23.643448
23.468036
23.289935
23.109166
22.925754
22.739728
22.551119
22.359964
22.166303
21.970179
21.77164
21.570735
21.367519
21.162047
20.954379
20.744575
20.532701
20.318824
20.103014
19.885342
19.665886
19.444722
19.221932
18.997599
18.771808
18.544649
18.316211
18.086588
17.855874
17.624166
17.391563
17.158166
16.924076
16.689397
16.454233
16.21869
15.982875
15.746894
15.510854
15.274865
15.039032
14.803464
14.568267
14.333548
14.099412
13.865965
13.633308
13.401544
13.170774
12.941094
12.712603
12.485395
12.259561
12.035191
11.812372
11.59119
11.371726
11.15406
10.938266
10.724419
10.512589
10.302843
10.095244
9.8898523
9.6867262
9.4859194
9.2874824
9.0914627
8.8979041
8.7068475
8.5183302
8.3323864
8.1490469
7.9683394
7.7902885
7.6149156
7.4422391
7.2722742
7.1050336
6.9405269
6.7787608
6.6197395
6.4634646
6.3099351
6.1591476
6.0110957
5.8657745
5.7231593
5.5833012
5.4459039
5.3122005
5.1766348
5.0638565
4.8637912
24.639009
24.479765
24.317958
24.153446
23.9862
23.816222
23.643522
23.468115
23.290018
23.109254
22.925848
22.739827
22.551224
22.360076
22.166421
21.970303
21.771769
21.570869
21.367656
21.162187
20.954521
20.744718
20.532844
20.318966
20.103154
19.88548
19.666021
19.444854
19.22206
18.997723
18.771928
18.544764
18.316322
18.086694
17.855976
17.624264
17.391657
17.158256
16.924162
16.689479
16.454312
16.218766
15.982947
15.746963
15.51092
15.274928
15.039093
14.803522
14.568323
14.333601
14.099464
13.866014
13.633355
13.401589
13.170816
12.941135
12.712642
12.485432
12.259596
12.035224
11.812404
11.591221
11.371755
11.154087
10.938292
10.724444
10.512612
10.302865
10.095264
9.8898717
9.6867446
9.4859367
9.2874986
9.0914779
8.8979184
8.7068609
8.5183427
8.3323981
8.1490578
7.9683496
7.790298
7.6149244
7.4422472
7.2722818
7.1050407
6.9405334
6.7787668
6.619745
6.4634697
6.3099397
6.1591518
6.0110996
5.8657779
5.723163
5.5833032
5.445912
5.3121917
5.1766582
5.0638047
4.863628
24.639067
24.479826
24.318022
24.153513
23.986271
23.816296
23.6436
23.468197
23.290105
23.109345
22.925944
22.739929
22.551332
22.36019
22.166541
21.970429
21.7719
21.571005
21.367796
21.16233
20.954665
20.744863
20.532989
20.31911
20.103297
19.885621
19.666158
19.444988
19.222191
18.997849
18.772051
18.544883
18.316436
18.086804
17.856081
17.624365
17.391754
17.158348
16.92425
16.689564
16.454393
16.218843
15.983021
15.747034
15.510988
15.274993
15.039155
14.803582
14.56838
14.333656
14.099516
13.866064
13.633403
13.401635
13.17086
12.941177
12.712682
12.48547
12.259632
12.035259
11.812437
11.591252
11.371785
11.154115
10.938319
10.724469
10.512636
10.302887
10.095285
9.8898916
9.6867632
9.4859542
9.2875151
9.0914933
8.8979329
8.7068744
8.5183554
8.3324099
8.1490688
7.9683598
7.7903075
7.6149333
7.4422555
7.2722894
7.1050477
6.9405398
6.7787727
6.6197505
6.4634747
6.3099443
6.159156
6.0111033
5.8657813
5.7231661
5.5833059
5.4459147
5.3121951
5.1766616
5.0638112
4.8636292
24.639128
24.479891
24.318089
24.153583
23.986344
23.816373
23.643681
23.468282
23.290194
23.10944
22.926044
22.740034
22.551443
22.360307
22.166664
21.970557
21.772034
21.571143
21.367938
21.162475
20.954812
20.745011
20.533137
20.319257
20.103442
19.885764
19.666299
19.445125
19.222324
18.997979
18.772176
18.545004
18.316553
18.086916
17.856189
17.624468
17.391853
17.158443
16.924341
16.68965
16.454476
16.218922
15.983097
15.747106
15.511058
15.27506
15.039219
14.803643
14.568439
14.333712
14.09957
13.866115
13.633452
13.401682
13.170905
12.94122
12.712723
12.485509
12.259669
12.035294
11.812471
11.591284
11.371815
11.154144
10.938346
10.724495