# y+ ()         
# Time          	patch           	min             	max             	average         
0               	lowerWall	1.91343787e+00	1.91343787e+00	1.91343787e+00
1               	lowerWall	1.66898304e+00	1.77854127e+00	1.67309400e+00
2               	lowerWall	8.77087680e-01	1.51036513e+00	9.06960109e-01
3               	lowerWall	6.28224758e-01	1.44538640e+00	6.56438299e-01
4               	lowerWall	5.27595849e-01	1.41897537e+00	5.55085299e-01
5               	lowerWall	4.72497714e-01	1.40794792e+00	5.00019792e-01
6               	lowerWall	4.35580204e-01	1.40302366e+00	4.63484348e-01
7               	lowerWall	4.08184161e-01	1.40062817e+00	4.36625369e-01
8               	lowerWall	3.86499600e-01	1.39939882e+00	4.15559481e-01
9               	lowerWall	3.68690368e-01	1.39855850e+00	3.98403860e-01
10              	lowerWall	3.53629282e-01	1.39771450e+00	3.84015401e-01
11              	lowerWall	3.40642971e-01	1.39670290e+00	3.71708769e-01
12              	lowerWall	3.29256896e-01	1.39549431e+00	3.61005191e-01
13              	lowerWall	3.19149626e-01	1.39416394e+00	3.51580055e-01
14              	lowerWall	3.10078867e-01	1.39279437e+00	3.43190132e-01
15              	lowerWall	3.01866684e-01	1.39144156e+00	3.35656675e-01
16              	lowerWall	2.94373754e-01	1.39013827e+00	3.28840156e-01
17              	lowerWall	2.87492198e-01	1.38890125e+00	3.22632491e-01
18              	lowerWall	2.81135198e-01	1.38773670e+00	3.16946821e-01
19              	lowerWall	2.75232969e-01	1.38664529e+00	3.11713302e-01
20              	lowerWall	2.69728061e-01	1.38562408e+00	3.06874474e-01
21              	lowerWall	2.64573005e-01	1.38466787e+00	3.02382847e-01
22              	lowerWall	2.59727971e-01	1.38377105e+00	2.98198586e-01
23              	lowerWall	2.55159360e-01	1.38292824e+00	2.94288087e-01
24              	lowerWall	2.50838532e-01	1.38213445e+00	2.90622704e-01
25              	lowerWall	2.46740939e-01	1.38138517e+00	2.87177880e-01
26              	lowerWall	2.42845378e-01	1.38067638e+00	2.83932398e-01
27              	lowerWall	2.39133445e-01	1.38000446e+00	2.80867834e-01
28              	lowerWall	2.35589057e-01	1.37936621e+00	2.77968090e-01
29              	lowerWall	2.32198082e-01	1.37875878e+00	2.75219034e-01
30              	lowerWall	2.28948055e-01	1.37817965e+00	2.72608192e-01
31              	lowerWall	2.25827946e-01	1.37762660e+00	2.70124515e-01
32              	lowerWall	2.22827965e-01	1.37709765e+00	2.67758176e-01
33              	lowerWall	2.19939392e-01	1.37659100e+00	2.65500406e-01
34              	lowerWall	2.17154427e-01	1.37610508e+00	2.63343356e-01
35              	lowerWall	2.14466069e-01	1.37563846e+00	2.61279970e-01
36              	lowerWall	2.11868013e-01	1.37518985e+00	2.59303892e-01
37              	lowerWall	2.09354564e-01	1.37475804e+00	2.57409375e-01
38              	lowerWall	2.06920559e-01	1.37434194e+00	2.55591211e-01
39              	lowerWall	2.04561301e-01	1.37394054e+00	2.53844665e-01
40              	lowerWall	2.02272501e-01	1.37355290e+00	2.52165422e-01
41              	lowerWall	2.00050235e-01	1.37317817e+00	2.50549539e-01
42              	lowerWall	1.97890914e-01	1.37281555e+00	2.48993403e-01
43              	lowerWall	1.95791241e-01	1.37246435e+00	2.47493699e-01
44              	lowerWall	1.93748181e-01	1.37212390e+00	2.46047379e-01
45              	lowerWall	1.91758925e-01	1.37179362e+00	2.44651628e-01
46              	lowerWall	1.89820865e-01	1.37147295e+00	2.43303845e-01
47              	lowerWall	1.87931573e-01	1.37116138e+00	2.42001618e-01
48              	lowerWall	1.86088779e-01	1.37085847e+00	2.40742704e-01
49              	lowerWall	1.84290363e-01	1.37056377e+00	2.39525016e-01
50              	lowerWall	1.82534334e-01	1.37027690e+00	2.38346604e-01
51              	lowerWall	1.80818824e-01	1.36999719e+00	2.37205642e-01
52              	lowerWall	1.79142072e-01	1.36972537e+00	2.36100425e-01
53              	lowerWall	1.77502428e-01	1.36946066e+00	2.35029351e-01
54              	lowerWall	1.75898346e-01	1.36920240e+00	2.33990913e-01
55              	lowerWall	1.74328376e-01	1.36895020e+00	2.32983698e-01
56              	lowerWall	1.72791164e-01	1.36870382e+00	2.32006376e-01
57              	lowerWall	1.71285435e-01	1.36846305e+00	2.31057696e-01
58              	lowerWall	1.69809995e-01	1.36822772e+00	2.30136480e-01
59              	lowerWall	1.68363719e-01	1.36799763e+00	2.29241616e-01
60              	lowerWall	1.66945551e-01	1.36777261e+00	2.28372058e-01
61              	lowerWall	1.65554496e-01	1.36755247e+00	2.27526815e-01
62              	lowerWall	1.64189614e-01	1.36733705e+00	2.26704951e-01
63              	lowerWall	1.62850016e-01	1.36712618e+00	2.25905582e-01
64              	lowerWall	1.61534830e-01	1.36691972e+00	2.25127863e-01
65              	lowerWall	1.60243291e-01	1.36671752e+00	2.24371010e-01
66              	lowerWall	1.58974643e-01	1.36651943e+00	2.23634269e-01
67              	lowerWall	1.57728173e-01	1.36632531e+00	2.22916923e-01
68              	lowerWall	1.56503209e-01	1.36613504e+00	2.22218291e-01
69              	lowerWall	1.55299112e-01	1.36594851e+00	2.21537728e-01
70              	lowerWall	1.54115279e-01	1.36576559e+00	2.20874617e-01
71              	lowerWall	1.52951139e-01	1.36558618e+00	2.20228372e-01
72              	lowerWall	1.51806150e-01	1.36541018e+00	2.19598436e-01
73              	lowerWall	1.50679796e-01	1.36523747e+00	2.18984275e-01
74              	lowerWall	1.49571588e-01	1.36506797e+00	2.18385382e-01
75              	lowerWall	1.48481058e-01	1.36490158e+00	2.17801270e-01
76              	lowerWall	1.47407760e-01	1.36473820e+00	2.17231476e-01
77              	lowerWall	1.46351270e-01	1.36457775e+00	2.16675556e-01
78              	lowerWall	1.45311179e-01	1.36442015e+00	2.16133085e-01
79              	lowerWall	1.44287099e-01	1.36426532e+00	2.15603656e-01
80              	lowerWall	1.43278659e-01	1.36411319e+00	2.15086878e-01
81              	lowerWall	1.42285510e-01	1.36396367e+00	2.14582377e-01
82              	lowerWall	1.41307316e-01	1.36381671e+00	2.14089795e-01
83              	lowerWall	1.40343759e-01	1.36367224e+00	2.13608788e-01
84              	lowerWall	1.39394535e-01	1.36353020e+00	2.13139025e-01
85              	lowerWall	1.38459353e-01	1.36339052e+00	2.12680189e-01
86              	lowerWall	1.37537935e-01	1.36325314e+00	2.12231977e-01
87              	lowerWall	1.36630014e-01	1.36311802e+00	2.11794094e-01
88              	lowerWall	1.35735337e-01	1.36298511e+00	2.11366261e-01
89              	lowerWall	1.34853660e-01	1.36285433e+00	2.10948206e-01
90              	lowerWall	1.33984748e-01	1.36272566e+00	2.10539669e-01
91              	lowerWall	1.33128377e-01	1.36259903e+00	2.10140400e-01
92              	lowerWall	1.32284331e-01	1.36247441e+00	2.09750158e-01
93              	lowerWall	1.31452401e-01	1.36235174e+00	2.09368711e-01
94              	lowerWall	1.30632388e-01	1.36223098e+00	2.08995834e-01
95              	lowerWall	1.29824102e-01	1.36211208e+00	2.08631313e-01
96              	lowerWall	1.29027361e-01	1.36199501e+00	2.08274939e-01
97              	lowerWall	1.28241993e-01	1.36187972e+00	2.07926513e-01
98              	lowerWall	1.27467834e-01	1.36176617e+00	2.07585842e-01
99              	lowerWall	1.26704730e-01	1.36165432e+00	2.07252741e-01
100             	lowerWall	1.25952530e-01	1.36154413e+00	2.06927031e-01
101             	lowerWall	1.25211095e-01	1.36143557e+00	2.06608540e-01
102             	lowerWall	1.24480285e-01	1.36132859e+00	2.06297103e-01
103             	lowerWall	1.23759965e-01	1.36122318e+00	2.05992562e-01
104             	lowerWall	1.23050005e-01	1.36111929e+00	2.05694763e-01
105             	lowerWall	1.22350283e-01	1.36101689e+00	2.05403559e-01
106             	lowerWall	1.21660691e-01	1.36091597e+00	2.05118812e-01
107             	lowerWall	1.20981121e-01	1.36081648e+00	2.04840387e-01
108             	lowerWall	1.20311470e-01	1.36071840e+00	2.04568155e-01
109             	lowerWall	1.19651643e-01	1.36062172e+00	2.04301994e-01
110             	lowerWall	1.19001555e-01	1.36052640e+00	2.04041790e-01
111             	lowerWall	1.18361120e-01	1.36043242e+00	2.03787433e-01
112             	lowerWall	1.17730263e-01	1.36033977e+00	2.03538822e-01
113             	lowerWall	1.17108919e-01	1.36024842e+00	2.03295862e-01
114             	lowerWall	1.16497025e-01	1.36015835e+00	2.03058466e-01
115             	lowerWall	1.15894539e-01	1.36006954e+00	2.02826558e-01
116             	lowerWall	1.15301426e-01	1.35998198e+00	2.02600070e-01
117             	lowerWall	1.14717663e-01	1.35989564e+00	2.02378950e-01
118             	lowerWall	1.14143248e-01	1.35981050e+00	2.02163154e-01
119             	lowerWall	1.13578189e-01	1.35972656e+00	2.01952660e-01
120             	lowerWall	1.13022522e-01	1.35964379e+00	2.01747461e-01
121             	lowerWall	1.12476318e-01	1.35956216e+00	2.01547578e-01
122             	lowerWall	1.11939635e-01	1.35948168e+00	2.01353042e-01
123             	lowerWall	1.11412598e-01	1.35940233e+00	2.01163921e-01
124             	lowerWall	1.10895362e-01	1.35932408e+00	2.00980303e-01
125             	lowerWall	1.10388131e-01	1.35924692e+00	2.00802305e-01
126             	lowerWall	1.09891176e-01	1.35917083e+00	2.00630068e-01
127             	lowerWall	1.09404805e-01	1.35909579e+00	2.00463758e-01
128             	lowerWall	1.08929422e-01	1.35902180e+00	2.00303562e-01
129             	lowerWall	1.08465491e-01	1.35894883e+00	2.00149688e-01
130             	lowerWall	1.08013592e-01	1.35887687e+00	2.00002364e-01
131             	lowerWall	1.07574414e-01	1.35880591e+00	1.99861834e-01
132             	lowerWall	1.07148709e-01	1.35873592e+00	1.99728358e-01
133             	lowerWall	1.06737346e-01	1.35866690e+00	1.99602199e-01
134             	lowerWall	1.06341380e-01	1.35859882e+00	1.99483654e-01
135             	lowerWall	1.05961970e-01	1.35853168e+00	1.99373020e-01
136             	lowerWall	1.05600453e-01	1.35846545e+00	1.99270607e-01
137             	lowerWall	1.05258154e-01	1.35840013e+00	1.99176711e-01
138             	lowerWall	1.04936621e-01	1.35833570e+00	1.99091643e-01
139             	lowerWall	1.04637520e-01	1.35827215e+00	1.99015710e-01
140             	lowerWall	1.04362643e-01	1.35820946e+00	1.98949213e-01
141             	lowerWall	1.04113879e-01	1.35814762e+00	1.98892442e-01
142             	lowerWall	1.03893162e-01	1.35808661e+00	1.98845670e-01
143             	lowerWall	1.03702550e-01	1.35802642e+00	1.98809149e-01
144             	lowerWall	1.03544132e-01	1.35796703e+00	1.98783104e-01
145             	lowerWall	1.03420002e-01	1.35790844e+00	1.98767726e-01
146             	lowerWall	1.03332247e-01	1.35785062e+00	1.98763170e-01
147             	lowerWall	1.03282889e-01	1.35779358e+00	1.98769545e-01
148             	lowerWall	1.03273852e-01	1.35773729e+00	1.98786912e-01
149             	lowerWall	1.03306913e-01	1.35768174e+00	1.98815277e-01
150             	lowerWall	1.03383641e-01	1.35762692e+00	1.98854587e-01
151             	lowerWall	1.03505401e-01	1.35757282e+00	1.98904730e-01
152             	lowerWall	1.03673280e-01	1.35751943e+00	1.98965528e-01
153             	lowerWall	1.03888046e-01	1.35746673e+00	1.99036743e-01
154             	lowerWall	1.04150156e-01	1.35741472e+00	1.99118072e-01
155             	lowerWall	1.04459699e-01	1.35736338e+00	1.99209156e-01
156             	lowerWall	1.04816381e-01	1.35731270e+00	1.99309582e-01
157             	lowerWall	1.05219519e-01	1.35726267e+00	1.99418895e-01
158             	lowerWall	1.05668040e-01	1.35721328e+00	1.99536603e-01
159             	lowerWall	1.06160488e-01	1.35716452e+00	1.99662191e-01
160             	lowerWall	1.06695041e-01	1.35711638e+00	1.99795126e-01
161             	lowerWall	1.07269569e-01	1.35706885e+00	1.99934873e-01
162             	lowerWall	1.07881682e-01	1.35702192e+00	2.00080905e-01
163             	lowerWall	1.08528810e-01	1.35697558e+00	2.00232710e-01
164             	lowerWall	1.09208284e-01	1.35692982e+00	2.00389793e-01
165             	lowerWall	1.09917400e-01	1.35688463e+00	2.00551678e-01
166             	lowerWall	1.10653453e-01	1.35684001e+00	2.00717919e-01
167             	lowerWall	1.11413774e-01	1.35679594e+00	2.00888098e-01
168             	lowerWall	1.12195787e-01	1.35675241e+00	2.01061828e-01
169             	lowerWall	1.12997075e-01	1.35670941e+00	2.01238746e-01
170             	lowerWall	1.13815373e-01	1.35666695e+00	2.01418509e-01
171             	lowerWall	1.14648573e-01	1.35662500e+00	2.01600795e-01
172             	lowerWall	1.15494738e-01	1.35658356e+00	2.01785310e-01
173             	lowerWall	1.16352115e-01	1.35654262e+00	2.01971783e-01
174             	lowerWall	1.17219117e-01	1.35650218e+00	2.02159963e-01
175             	lowerWall	1.18094263e-01	1.35646222e+00	2.02349610e-01
176             	lowerWall	1.18976139e-01	1.35642275e+00	2.02540492e-01
177             	lowerWall	1.19863410e-01	1.35638374e+00	2.02732386e-01
178             	lowerWall	1.20754859e-01	1.35634519e+00	2.02925087e-01
179             	lowerWall	1.21649386e-01	1.35630710e+00	2.03118402e-01
180             	lowerWall	1.22545955e-01	1.35626946e+00	2.03312153e-01
181             	lowerWall	1.23443523e-01	1.35623226e+00	2.03506165e-01
182             	lowerWall	1.24341047e-01	1.35619550e+00	2.03700259e-01
183             	lowerWall	1.25237545e-01	1.35615916e+00	2.03894255e-01
184             	lowerWall	1.25662773e-01	1.35612325e+00	2.04087977e-01
185             	lowerWall	1.25696560e-01	1.35608775e+00	2.04281260e-01
186             	lowerWall	1.25732139e-01	1.35605266e+00	2.04473955e-01
187             	lowerWall	1.25764988e-01	1.35601796e+00	2.04665924e-01
188             	lowerWall	1.25798449e-01	1.35598367e+00	2.04857031e-01
189             	lowerWall	1.25831434e-01	1.35594976e+00	2.05047138e-01
190             	lowerWall	1.25862640e-01	1.35591624e+00	2.05236099e-01
191             	lowerWall	1.25895123e-01	1.35588309e+00	2.05423760e-01
192             	lowerWall	1.25925207e-01	1.35585031e+00	2.05609973e-01
193             	lowerWall	1.25955203e-01	1.35581790e+00	2.05794606e-01
194             	lowerWall	1.25986225e-01	1.35578586e+00	2.05977547e-01
195             	lowerWall	1.26014245e-01	1.35575416e+00	2.06158698e-01
196             	lowerWall	1.26042566e-01	1.35572282e+00	2.06337972e-01
197             	lowerWall	1.26071739e-01	1.35569182e+00	2.06515281e-01
198             	lowerWall	1.26098724e-01	1.35566116e+00	2.06690531e-01
199             	lowerWall	1.26124996e-01	1.35563083e+00	2.06863619e-01
200             	lowerWall	1.26152004e-01	1.35560083e+00	2.07034432e-01
201             	lowerWall	1.26179048e-01	1.35557116e+00	2.07202857e-01
202             	lowerWall	1.26203102e-01	1.35554181e+00	2.07368794e-01
203             	lowerWall	1.26227707e-01	1.35551277e+00	2.07532163e-01
204             	lowerWall	1.26252785e-01	1.35548405e+00	2.07692912e-01
205             	lowerWall	1.26277113e-01	1.35545563e+00	2.07851007e-01
206             	lowerWall	1.26299182e-01	1.35542751e+00	2.08006427e-01
207             	lowerWall	1.26321572e-01	1.35539970e+00	2.08159155e-01
208             	lowerWall	1.26344227e-01	1.35537218e+00	2.08309175e-01
209             	lowerWall	1.26366557e-01	1.35534494e+00	2.08456461e-01
210             	lowerWall	1.26386149e-01	1.35531800e+00	2.08600985e-01
211             	lowerWall	1.26405912e-01	1.35529133e+00	2.08742710e-01
212             	lowerWall	1.26425793e-01	1.35526495e+00	2.08881599e-01
213             	lowerWall	1.26445743e-01	1.35523884e+00	2.09017616e-01
214             	lowerWall	1.26463666e-01	1.35521300e+00	2.09150728e-01
215             	lowerWall	1.26480657e-01	1.35518743e+00	2.09280907e-01
216             	lowerWall	1.26497648e-01	1.35516213e+00	2.09408134e-01
217             	lowerWall	1.26514636e-01	1.35513709e+00	2.09532396e-01
218             	lowerWall	1.26531570e-01	1.35511230e+00	2.09653690e-01
219             	lowerWall	1.26546532e-01	1.35508777e+00	2.09772032e-01
220             	lowerWall	1.26560754e-01	1.35506349e+00	2.09887450e-01
221             	lowerWall	1.26574940e-01	1.35503946e+00	2.09999992e-01
222             	lowerWall	1.26589062e-01	1.35501567e+00	2.10109713e-01
223             	lowerWall	1.26603104e-01	1.35499213e+00	2.10216675e-01
224             	lowerWall	1.26616594e-01	1.35496882e+00	2.10320938e-01
225             	lowerWall	1.26628323e-01	1.35494575e+00	2.10422558e-01
226             	lowerWall	1.26639981e-01	1.35492292e+00	2.10521586e-01
227             	lowerWall	1.26651534e-01	1.35490031e+00	2.10618067e-01
228             	lowerWall	1.26662955e-01	1.35487794e+00	2.10712041e-01
229             	lowerWall	1.26674223e-01	1.35485579e+00	2.10803541e-01
230             	lowerWall	1.26685088e-01	1.35483386e+00	2.10892599e-01
231             	lowerWall	1.26694331e-01	1.35481215e+00	2.10979243e-01
232             	lowerWall	1.26703465e-01	1.35479066e+00	2.11063501e-01
233             	lowerWall	1.26712461e-01	1.35476938e+00	2.11145402e-01
234             	lowerWall	1.26721284e-01	1.35474831e+00	2.11224974e-01
235             	lowerWall	1.26729914e-01	1.35472746e+00	2.11302250e-01
236             	lowerWall	1.26738336e-01	1.35470681e+00	2.11377265e-01
237             	lowerWall	1.26745969e-01	1.35468637e+00	2.11450057e-01
238             	lowerWall	1.26752625e-01	1.35466613e+00	2.11520665e-01
239             	lowerWall	1.26759149e-01	1.35464609e+00	2.11589130e-01
240             	lowerWall	1.26765527e-01	1.35462625e+00	2.11655494e-01
241             	lowerWall	1.26771731e-01	1.35460660e+00	2.11719799e-01
242             	lowerWall	1.26777738e-01	1.35458715e+00	2.11782089e-01
243             	lowerWall	1.26783531e-01	1.35456789e+00	2.11842406e-01
244             	lowerWall	1.26789101e-01	1.35454881e+00	2.11900794e-01
245             	lowerWall	1.26793981e-01	1.35452993e+00	2.11957297e-01
246             	lowerWall	1.26798001e-01	1.35451123e+00	2.12011961e-01
247             	lowerWall	1.26801897e-01	1.35449271e+00	2.12064829e-01
248             	lowerWall	1.26805668e-01	1.35447438e+00	2.12115947e-01
249             	lowerWall	1.26809320e-01	1.35445622e+00	2.12165360e-01
250             	lowerWall	1.26812849e-01	1.35443824e+00	2.12213111e-01
251             	lowerWall	1.26816255e-01	1.35442043e+00	2.12259245e-01
252             	lowerWall	1.26819540e-01	1.35440280e+00	2.12303804e-01
253             	lowerWall	1.26822709e-01	1.35438534e+00	2.12346829e-01
254             	lowerWall	1.26825768e-01	1.35436805e+00	2.12388362e-01
255             	lowerWall	1.26828704e-01	1.35435093e+00	2.12428444e-01
256             	lowerWall	1.26831224e-01	1.35433397e+00	2.12467114e-01
257             	lowerWall	1.26833128e-01	1.35431718e+00	2.12504411e-01
258             	lowerWall	1.26834961e-01	1.35430055e+00	2.12540375e-01
259             	lowerWall	1.26836723e-01	1.35428408e+00	2.12575041e-01
260             	lowerWall	1.26838416e-01	1.35426777e+00	2.12608445e-01
261             	lowerWall	1.26840044e-01	1.35425161e+00	2.12640618e-01
262             	lowerWall	1.26841607e-01	1.35423561e+00	2.12671594e-01
263             	lowerWall	1.26843100e-01	1.35421976e+00	2.12701403e-01
264             	lowerWall	1.26844518e-01	1.35420407e+00	2.12730074e-01
265             	lowerWall	1.26845862e-01	1.35418853e+00	2.12757637e-01
266             	lowerWall	1.26847131e-01	1.35417313e+00	2.12784121e-01
267             	lowerWall	1.26848324e-01	1.35415788e+00	2.12809559e-01
268             	lowerWall	1.26849438e-01	1.35414278e+00	2.12833973e-01
269             	lowerWall	1.26850471e-01	1.35412782e+00	2.12857390e-01
270             	lowerWall	1.26851423e-01	1.35411301e+00	2.12879837e-01
271             	lowerWall	1.26852293e-01	1.35409833e+00	2.12901339e-01
272             	lowerWall	1.26853081e-01	1.35408379e+00	2.12921924e-01
273             	lowerWall	1.26853787e-01	1.35406940e+00	2.12941614e-01
274             	lowerWall	1.26854261e-01	1.35405513e+00	2.12960437e-01
275             	lowerWall	1.26854380e-01	1.35404101e+00	2.12978414e-01
276             	lowerWall	1.26854437e-01	1.35402702e+00	2.12995572e-01
277             	lowerWall	1.26854432e-01	1.35401316e+00	2.13011932e-01
278             	lowerWall	1.26854362e-01	1.35399943e+00	2.13027520e-01
279             	lowerWall	1.26854226e-01	1.35398583e+00	2.13042357e-01
280             	lowerWall	1.26854025e-01	1.35397235e+00	2.13056466e-01
281             	lowerWall	1.26853756e-01	1.35395901e+00	2.13069870e-01
282             	lowerWall	1.26853420e-01	1.35394579e+00	2.13082589e-01
283             	lowerWall	1.26853015e-01	1.35393269e+00	2.13094647e-01
284             	lowerWall	1.26852543e-01	1.35391972e+00	2.13106064e-01
285             	lowerWall	1.26852000e-01	1.35390687e+00	2.13116861e-01
286             	lowerWall	1.26851389e-01	1.35389414e+00	2.13127060e-01
287             	lowerWall	1.26850709e-01	1.35388153e+00	2.13136682e-01
288             	lowerWall	1.26849957e-01	1.35386903e+00	2.13145746e-01
289             	lowerWall	1.26849131e-01	1.35385666e+00	2.13154272e-01
290             	lowerWall	1.26848229e-01	1.35384440e+00	2.13162278e-01
291             	lowerWall	1.26847249e-01	1.35383225e+00	2.13169785e-01
292             	lowerWall	1.26846189e-01	1.35382022e+00	2.13176808e-01
293             	lowerWall	1.26845051e-01	1.35380830e+00	2.13183365e-01
294             	lowerWall	1.26843836e-01	1.35379649e+00	2.13189472e-01
295             	lowerWall	1.26842548e-01	1.35378479e+00	2.13195146e-01
296             	lowerWall	1.26841193e-01	1.35377320e+00	2.13200401e-01
297             	lowerWall	1.26839777e-01	1.35376171e+00	2.13205252e-01
298             	lowerWall	1.26838304e-01	1.35375034e+00	2.13209713e-01
299             	lowerWall	1.26836777e-01	1.35373906e+00	2.13213798e-01
300             	lowerWall	1.26835201e-01	1.35372790e+00	2.13217521e-01
301             	lowerWall	1.26833578e-01	1.35371684e+00	2.13220893e-01
302             	lowerWall	1.26831911e-01	1.35370588e+00	2.13223928e-01
303             	lowerWall	1.26830206e-01	1.35369502e+00	2.13226637e-01
304             	lowerWall	1.26828466e-01	1.35368426e+00	2.13229032e-01
305             	lowerWall	1.26826695e-01	1.35367360e+00	2.13231123e-01
306             	lowerWall	1.26824899e-01	1.35366304e+00	2.13232922e-01
307             	lowerWall	1.26823081e-01	1.35365258e+00	2.13234437e-01
308             	lowerWall	1.26821244e-01	1.35364221e+00	2.13235678e-01
309             	lowerWall	1.26819391e-01	1.35363194e+00	2.13236654e-01
310             	lowerWall	1.26817522e-01	1.35362176e+00	2.13237372e-01
311             	lowerWall	1.26815640e-01	1.35361168e+00	2.13237840e-01
312             	lowerWall	1.26813745e-01	1.35360169e+00	2.13238065e-01
313             	lowerWall	1.26811837e-01	1.35359179e+00	2.13238055e-01
314             	lowerWall	1.26809916e-01	1.35358199e+00	2.13237819e-01
315             	lowerWall	1.26807983e-01	1.35357227e+00	2.13237363e-01
316             	lowerWall	1.26806036e-01	1.35356264e+00	2.13236696e-01
317             	lowerWall	1.26804076e-01	1.35355311e+00	2.13235827e-01
318             	lowerWall	1.26802103e-01	1.35354365e+00	2.13234762e-01
319             	lowerWall	1.26800116e-01	1.35353429e+00	2.13233511e-01
320             	lowerWall	1.26798116e-01	1.35352501e+00	2.13232082e-01
321             	lowerWall	1.26796101e-01	1.35351582e+00	2.13230484e-01
322             	lowerWall	1.26794072e-01	1.35350671e+00	2.13228724e-01
323             	lowerWall	1.26792030e-01	1.35349769e+00	2.13226809e-01
324             	lowerWall	1.26789973e-01	1.35348874e+00	2.13224749e-01
325             	lowerWall	1.26787903e-01	1.35347988e+00	2.13222550e-01
326             	lowerWall	1.26785819e-01	1.35347111e+00	2.13220221e-01
327             	lowerWall	1.26783721e-01	1.35346241e+00	2.13217768e-01
328             	lowerWall	1.26781610e-01	1.35345379e+00	2.13215200e-01
329             	lowerWall	1.26779486e-01	1.35344525e+00	2.13212525e-01
330             	lowerWall	1.26777350e-01	1.35343678e+00	2.13209749e-01
331             	lowerWall	1.26775201e-01	1.35342840e+00	2.13206881e-01
332             	lowerWall	1.26773039e-01	1.35342009e+00	2.13203926e-01
333             	lowerWall	1.26770866e-01	1.35341186e+00	2.13200891e-01
334             	lowerWall	1.26768680e-01	1.35340370e+00	2.13197783e-01
335             	lowerWall	1.26766484e-01	1.35339562e+00	2.13194606e-01
336             	lowerWall	1.26764276e-01	1.35338761e+00	2.13191366e-01
337             	lowerWall	1.26762057e-01	1.35337967e+00	2.13188068e-01
338             	lowerWall	1.26759829e-01	1.35337181e+00	2.13184719e-01
339             	lowerWall	1.26757590e-01	1.35336401e+00	2.13181323e-01
340             	lowerWall	1.26755342e-01	1.35335629e+00	2.13177886e-01
341             	lowerWall	1.26753084e-01	1.35334864e+00	2.13174412e-01
342             	lowerWall	1.26750818e-01	1.35334106e+00	2.13170905e-01
343             	lowerWall	1.26748543e-01	1.35333355e+00	2.13167371e-01
344             	lowerWall	1.26746261e-01	1.35332610e+00	2.13163812e-01
345             	lowerWall	1.26743972e-01	1.35331872e+00	2.13160233e-01
346             	lowerWall	1.26741677e-01	1.35331141e+00	2.13156637e-01
347             	lowerWall	1.26739375e-01	1.35330417e+00	2.13153027e-01
348             	lowerWall	1.26737065e-01	1.35329699e+00	2.13149407e-01
349             	lowerWall	1.26734749e-01	1.35328988e+00	2.13145778e-01
350             	lowerWall	1.26732424e-01	1.35328283e+00	2.13142145e-01
351             	lowerWall	1.26730092e-01	1.35327585e+00	2.13138510e-01
352             	lowerWall	1.26727751e-01	1.35326892e+00	2.13134874e-01
353             	lowerWall	1.26725402e-01	1.35326207e+00	2.13131241e-01
354             	lowerWall	1.26723045e-01	1.35325527e+00	2.13127612e-01
355             	lowerWall	1.26720681e-01	1.35324853e+00	2.13123991e-01
356             	lowerWall	1.26718309e-01	1.35324186e+00	2.13120379e-01
357             	lowerWall	1.26715929e-01	1.35323525e+00	2.13116780e-01
358             	lowerWall	1.26713542e-01	1.35322869e+00	2.13113195e-01
359             	lowerWall	1.26711148e-01	1.35322220e+00	2.13109627e-01
360             	lowerWall	1.26708747e-01	1.35321576e+00	2.13106079e-01
361             	lowerWall	1.26706340e-01	1.35320938e+00	2.13102554e-01
362             	lowerWall	1.26703926e-01	1.35320306e+00	2.13099052e-01
363             	lowerWall	1.26701506e-01	1.35319680e+00	2.13095576e-01
364             	lowerWall	1.26699082e-01	1.35319059e+00	2.13092128e-01
365             	lowerWall	1.26696652e-01	1.35318444e+00	2.13088708e-01
366             	lowerWall	1.26694217e-01	1.35317834e+00	2.13085318e-01
367             	lowerWall	1.26691778e-01	1.35317230e+00	2.13081960e-01
368             	lowerWall	1.26689335e-01	1.35316632e+00	2.13078633e-01
369             	lowerWall	1.26686889e-01	1.35316038e+00	2.13075340e-01
370             	lowerWall	1.26684440e-01	1.35315450e+00	2.13072082e-01
371             	lowerWall	1.26681987e-01	1.35314868e+00	2.13068859e-01
372             	lowerWall	1.26679533e-01	1.35314290e+00	2.13065672e-01
373             	lowerWall	1.26677078e-01	1.35313718e+00	2.13062522e-01
374             	lowerWall	1.26674623e-01	1.35313151e+00	2.13059410e-01
375             	lowerWall	1.26672169e-01	1.35312589e+00	2.13056336e-01
376             	lowerWall	1.26669719e-01	1.35312032e+00	2.13053300e-01
377             	lowerWall	1.26667272e-01	1.35311480e+00	2.13050301e-01
378             	lowerWall	1.26664829e-01	1.35310933e+00	2.13047341e-01
379             	lowerWall	1.26662393e-01	1.35310391e+00	2.13044418e-01
380             	lowerWall	1.26659964e-01	1.35309854e+00	2.13041533e-01
381             	lowerWall	1.26657542e-01	1.35309321e+00	2.13038686e-01
382             	lowerWall	1.26655130e-01	1.35308794e+00	2.13035876e-01
383             	lowerWall	1.26652729e-01	1.35308271e+00	2.13033103e-01
384             	lowerWall	1.26650338e-01	1.35307753e+00	2.13030367e-01
385             	lowerWall	1.26647960e-01	1.35307239e+00	2.13027667e-01
386             	lowerWall	1.26645595e-01	1.35306730e+00	2.13025004e-01
387             	lowerWall	1.26643244e-01	1.35306226e+00	2.13022377e-01
388             	lowerWall	1.26640907e-01	1.35305726e+00	2.13019786e-01
389             	lowerWall	1.26638584e-01	1.35305230e+00	2.13017232e-01
390             	lowerWall	1.26636277e-01	1.35304739e+00	2.13014715e-01
391             	lowerWall	1.26633985e-01	1.35304253e+00	2.13012236e-01
392             	lowerWall	1.26631708e-01	1.35303770e+00	2.13009795e-01
393             	lowerWall	1.26629448e-01	1.35303292e+00	2.13007393e-01
394             	lowerWall	1.26627203e-01	1.35302819e+00	2.13005029e-01
395             	lowerWall	1.26624973e-01	1.35302349e+00	2.13002706e-01
396             	lowerWall	1.26622760e-01	1.35301884e+00	2.13000422e-01
397             	lowerWall	1.26620562e-01	1.35301423e+00	2.12998178e-01
398             	lowerWall	1.26618380e-01	1.35300966e+00	2.12995973e-01
399             	lowerWall	1.26616214e-01	1.35300513e+00	2.12993809e-01
400             	lowerWall	1.26614063e-01	1.35300064e+00	2.12991684e-01
401             	lowerWall	1.26611928e-01	1.35299619e+00	2.12989598e-01
402             	lowerWall	1.26609807e-01	1.35299178e+00	2.12987551e-01
403             	lowerWall	1.26607701e-01	1.35298741e+00	2.12985543e-01
404             	lowerWall	1.26605609e-01	1.35298308e+00	2.12983574e-01
405             	lowerWall	1.26603530e-01	1.35297879e+00	2.12981642e-01
406             	lowerWall	1.26601466e-01	1.35297454e+00	2.12979749e-01
407             	lowerWall	1.26599416e-01	1.35297032e+00	2.12977892e-01
408             	lowerWall	1.26597379e-01	1.35296614e+00	2.12976073e-01
409             	lowerWall	1.26595356e-01	1.35296200e+00	2.12974291e-01
410             	lowerWall	1.26593344e-01	1.35295790e+00	2.12972545e-01
411             	lowerWall	1.26591345e-01	1.35295383e+00	2.12970833e-01
412             	lowerWall	1.26589358e-01	1.35294980e+00	2.12969157e-01
413             	lowerWall	1.26587384e-01	1.35294580e+00	2.12967514e-01
414             	lowerWall	1.26585421e-01	1.35294184e+00	2.12965904e-01