# y+ ()         
# Time          	patch           	min             	max             	average         
0               	lowerWall	1.91343787e+00	1.91343787e+00	1.91343787e+00
1               	lowerWall	1.66898304e+00	1.77854133e+00	1.67309400e+00
2               	lowerWall	8.77087680e-01	1.51036490e+00	9.06960119e-01
3               	lowerWall	6.28224757e-01	1.44538595e+00	6.56438332e-01
4               	lowerWall	5.27595850e-01	1.41897494e+00	5.55085323e-01
5               	lowerWall	4.72497718e-01	1.40794749e+00	5.00019805e-01
6               	lowerWall	4.35580206e-01	1.40302323e+00	4.63484355e-01
7               	lowerWall	4.08184152e-01	1.40062774e+00	4.36625364e-01
8               	lowerWall	3.86499587e-01	1.39939842e+00	4.15559467e-01
9               	lowerWall	3.68690352e-01	1.39855815e+00	3.98403840e-01
10              	lowerWall	3.53629265e-01	1.39771420e+00	3.84015378e-01
11              	lowerWall	3.40642951e-01	1.39670264e+00	3.71708747e-01
12              	lowerWall	3.29256874e-01	1.39549409e+00	3.61005174e-01
13              	lowerWall	3.19149601e-01	1.39416374e+00	3.51580045e-01
14              	lowerWall	3.10078840e-01	1.39279420e+00	3.43190134e-01
15              	lowerWall	3.01866657e-01	1.39144141e+00	3.35656691e-01
16              	lowerWall	2.94373726e-01	1.39013813e+00	3.28840188e-01
17              	lowerWall	2.87492169e-01	1.38890113e+00	3.22632541e-01
18              	lowerWall	2.81135167e-01	1.38773659e+00	3.16946891e-01
19              	lowerWall	2.75232937e-01	1.38664520e+00	3.11713392e-01
20              	lowerWall	2.69728028e-01	1.38562400e+00	3.06874586e-01
21              	lowerWall	2.64572969e-01	1.38466779e+00	3.02382981e-01
22              	lowerWall	2.59727934e-01	1.38377098e+00	2.98198742e-01
23              	lowerWall	2.55159322e-01	1.38292817e+00	2.94288265e-01
24              	lowerWall	2.50838493e-01	1.38213438e+00	2.90622905e-01
25              	lowerWall	2.46740898e-01	1.38138510e+00	2.87178103e-01
26              	lowerWall	2.42845336e-01	1.38067631e+00	2.83932643e-01
27              	lowerWall	2.39133400e-01	1.38000439e+00	2.80868100e-01
28              	lowerWall	2.35589010e-01	1.37936614e+00	2.77968377e-01
29              	lowerWall	2.32198034e-01	1.37875871e+00	2.75219340e-01
30              	lowerWall	2.28948004e-01	1.37817959e+00	2.72608517e-01
31              	lowerWall	2.25827892e-01	1.37762654e+00	2.70124858e-01
32              	lowerWall	2.22827909e-01	1.37709758e+00	2.67758536e-01
33              	lowerWall	2.19939333e-01	1.37659094e+00	2.65500783e-01
34              	lowerWall	2.17154366e-01	1.37610502e+00	2.63343742e-01
35              	lowerWall	2.14466006e-01	1.37563840e+00	2.61280364e-01
36              	lowerWall	2.11867947e-01	1.37518978e+00	2.59304292e-01
37              	lowerWall	2.09354495e-01	1.37475798e+00	2.57409781e-01
38              	lowerWall	2.06920487e-01	1.37434188e+00	2.55591622e-01
39              	lowerWall	2.04561226e-01	1.37394048e+00	2.53845079e-01
40              	lowerWall	2.02272422e-01	1.37355284e+00	2.52165838e-01
41              	lowerWall	2.00050152e-01	1.37317810e+00	2.50549957e-01
42              	lowerWall	1.97890827e-01	1.37281549e+00	2.48993825e-01
43              	lowerWall	1.95791150e-01	1.37246429e+00	2.47494125e-01
44              	lowerWall	1.93748086e-01	1.37212385e+00	2.46047808e-01
45              	lowerWall	1.91758826e-01	1.37179356e+00	2.44652059e-01
46              	lowerWall	1.89820763e-01	1.37147289e+00	2.43304278e-01
47              	lowerWall	1.87931466e-01	1.37116133e+00	2.42002052e-01
48              	lowerWall	1.86088667e-01	1.37085842e+00	2.40743139e-01
49              	lowerWall	1.84290244e-01	1.37056372e+00	2.39525451e-01
50              	lowerWall	1.82534210e-01	1.37027685e+00	2.38347038e-01
51              	lowerWall	1.80818692e-01	1.36999715e+00	2.37206075e-01
52              	lowerWall	1.79141932e-01	1.36972533e+00	2.36100856e-01
53              	lowerWall	1.77502280e-01	1.36946062e+00	2.35029779e-01
54              	lowerWall	1.75898188e-01	1.36920236e+00	2.33991339e-01
55              	lowerWall	1.74328209e-01	1.36895016e+00	2.32984120e-01
56              	lowerWall	1.72790986e-01	1.36870378e+00	2.32006793e-01
57              	lowerWall	1.71285246e-01	1.36846301e+00	2.31058108e-01
58              	lowerWall	1.69809794e-01	1.36822768e+00	2.30136886e-01
59              	lowerWall	1.68363507e-01	1.36799760e+00	2.29242017e-01
60              	lowerWall	1.66945327e-01	1.36777257e+00	2.28372453e-01
61              	lowerWall	1.65554258e-01	1.36755244e+00	2.27527205e-01
62              	lowerWall	1.64189362e-01	1.36733702e+00	2.26705336e-01
63              	lowerWall	1.62849750e-01	1.36712615e+00	2.25905962e-01
64              	lowerWall	1.61534578e-01	1.36691969e+00	2.25128246e-01
65              	lowerWall	1.60243048e-01	1.36671748e+00	2.24371393e-01
66              	lowerWall	1.58974406e-01	1.36651939e+00	2.23634650e-01
67              	lowerWall	1.57727938e-01	1.36632528e+00	2.22917301e-01
68              	lowerWall	1.56502971e-01	1.36613501e+00	2.22218666e-01
69              	lowerWall	1.55298868e-01	1.36594848e+00	2.21538099e-01
70              	lowerWall	1.54115027e-01	1.36576556e+00	2.20874984e-01
71              	lowerWall	1.52950876e-01	1.36558616e+00	2.20228736e-01
72              	lowerWall	1.51805875e-01	1.36541015e+00	2.19598796e-01
73              	lowerWall	1.50679508e-01	1.36523745e+00	2.18984632e-01
74              	lowerWall	1.49571283e-01	1.36506795e+00	2.18385734e-01
75              	lowerWall	1.48480735e-01	1.36490156e+00	2.17801619e-01
76              	lowerWall	1.47407421e-01	1.36473818e+00	2.17231822e-01
77              	lowerWall	1.46350913e-01	1.36457773e+00	2.16675899e-01
78              	lowerWall	1.45310802e-01	1.36442014e+00	2.16133424e-01
79              	lowerWall	1.44286701e-01	1.36426531e+00	2.15603992e-01
80              	lowerWall	1.43278240e-01	1.36411317e+00	2.15087211e-01
81              	lowerWall	1.42285068e-01	1.36396366e+00	2.14582707e-01
82              	lowerWall	1.41306852e-01	1.36381670e+00	2.14090122e-01
83              	lowerWall	1.40343271e-01	1.36367223e+00	2.13609113e-01
84              	lowerWall	1.39394023e-01	1.36353018e+00	2.13139347e-01
85              	lowerWall	1.38458818e-01	1.36339050e+00	2.12680509e-01
86              	lowerWall	1.37537376e-01	1.36325313e+00	2.12232294e-01
87              	lowerWall	1.36629431e-01	1.36311801e+00	2.11794410e-01
88              	lowerWall	1.35734729e-01	1.36298509e+00	2.11366574e-01
89              	lowerWall	1.34853027e-01	1.36285432e+00	2.10948518e-01
90              	lowerWall	1.33984092e-01	1.36272564e+00	2.10539979e-01
91              	lowerWall	1.33127697e-01	1.36259902e+00	2.10140709e-01
92              	lowerWall	1.32283628e-01	1.36247439e+00	2.09750466e-01
93              	lowerWall	1.31451675e-01	1.36235172e+00	2.09369017e-01
94              	lowerWall	1.30631640e-01	1.36223096e+00	2.08996139e-01
95              	lowerWall	1.29823331e-01	1.36211207e+00	2.08631617e-01
96              	lowerWall	1.29026568e-01	1.36199500e+00	2.08275242e-01
97              	lowerWall	1.28241180e-01	1.36187971e+00	2.07926816e-01
98              	lowerWall	1.27467001e-01	1.36176616e+00	2.07586144e-01
99              	lowerWall	1.26703877e-01	1.36165431e+00	2.07253043e-01
100             	lowerWall	1.25951658e-01	1.36154412e+00	2.06927333e-01
101             	lowerWall	1.25210205e-01	1.36143555e+00	2.06608842e-01
102             	lowerWall	1.24479377e-01	1.36132858e+00	2.06297405e-01
103             	lowerWall	1.23759038e-01	1.36122317e+00	2.05992864e-01
104             	lowerWall	1.23049061e-01	1.36111928e+00	2.05695065e-01
105             	lowerWall	1.22349323e-01	1.36101689e+00	2.05403862e-01
106             	lowerWall	1.21659713e-01	1.36091596e+00	2.05119115e-01
107             	lowerWall	1.20980127e-01	1.36081647e+00	2.04840691e-01
108             	lowerWall	1.20310460e-01	1.36071839e+00	2.04568459e-01
109             	lowerWall	1.19650616e-01	1.36062171e+00	2.04302300e-01
110             	lowerWall	1.19000511e-01	1.36052639e+00	2.04042096e-01
111             	lowerWall	1.18360061e-01	1.36043241e+00	2.03787741e-01
112             	lowerWall	1.17729190e-01	1.36033976e+00	2.03539131e-01
113             	lowerWall	1.17107837e-01	1.36024841e+00	2.03296173e-01
114             	lowerWall	1.16495938e-01	1.36015834e+00	2.03058781e-01
115             	lowerWall	1.15893451e-01	1.36006953e+00	2.02826877e-01
116             	lowerWall	1.15300341e-01	1.35998197e+00	2.02600395e-01
117             	lowerWall	1.14716586e-01	1.35989563e+00	2.02379281e-01
118             	lowerWall	1.14142180e-01	1.35981049e+00	2.02163494e-01
119             	lowerWall	1.13577135e-01	1.35972655e+00	2.01953008e-01
120             	lowerWall	1.13021484e-01	1.35964378e+00	2.01747817e-01
121             	lowerWall	1.12475281e-01	1.35956216e+00	2.01547937e-01
122             	lowerWall	1.11938604e-01	1.35948169e+00	2.01353408e-01
123             	lowerWall	1.11411577e-01	1.35940233e+00	2.01164294e-01
124             	lowerWall	1.10894356e-01	1.35932408e+00	2.00980683e-01
125             	lowerWall	1.10387144e-01	1.35924691e+00	2.00802694e-01
126             	lowerWall	1.09890212e-01	1.35917082e+00	2.00630465e-01
127             	lowerWall	1.09403866e-01	1.35909579e+00	2.00464163e-01
128             	lowerWall	1.08928508e-01	1.35902179e+00	2.00303974e-01
129             	lowerWall	1.08464604e-01	1.35894883e+00	2.00150106e-01
130             	lowerWall	1.08012739e-01	1.35887687e+00	2.00002788e-01
131             	lowerWall	1.07573601e-01	1.35880590e+00	1.99862265e-01
132             	lowerWall	1.07147943e-01	1.35873591e+00	1.99728795e-01
133             	lowerWall	1.06736677e-01	1.35866689e+00	1.99602653e-01
134             	lowerWall	1.06340815e-01	1.35859881e+00	1.99484124e-01
135             	lowerWall	1.05961515e-01	1.35853167e+00	1.99373504e-01
136             	lowerWall	1.05600080e-01	1.35846545e+00	1.99271097e-01
137             	lowerWall	1.05257879e-01	1.35840013e+00	1.99177208e-01
138             	lowerWall	1.04936458e-01	1.35833570e+00	1.99092149e-01
139             	lowerWall	1.04637482e-01	1.35827215e+00	1.99016225e-01
140             	lowerWall	1.04362740e-01	1.35820946e+00	1.98949739e-01
141             	lowerWall	1.04114123e-01	1.35814761e+00	1.98892977e-01
142             	lowerWall	1.03893561e-01	1.35808660e+00	1.98846215e-01
143             	lowerWall	1.03703112e-01	1.35802641e+00	1.98809703e-01
144             	lowerWall	1.03544861e-01	1.35796702e+00	1.98783666e-01
145             	lowerWall	1.03420904e-01	1.35790842e+00	1.98768296e-01
146             	lowerWall	1.03333326e-01	1.35785061e+00	1.98763746e-01
147             	lowerWall	1.03284145e-01	1.35779357e+00	1.98770127e-01
148             	lowerWall	1.03275285e-01	1.35773727e+00	1.98787498e-01
149             	lowerWall	1.03308520e-01	1.35768173e+00	1.98815866e-01
150             	lowerWall	1.03385419e-01	1.35762691e+00	1.98855179e-01
151             	lowerWall	1.03507342e-01	1.35757281e+00	1.98905323e-01
152             	lowerWall	1.03675378e-01	1.35751942e+00	1.98966122e-01
153             	lowerWall	1.03890294e-01	1.35746672e+00	1.99037336e-01
154             	lowerWall	1.04152544e-01	1.35741470e+00	1.99118664e-01
155             	lowerWall	1.04462219e-01	1.35736336e+00	1.99209746e-01
156             	lowerWall	1.04819023e-01	1.35731268e+00	1.99310168e-01
157             	lowerWall	1.05222273e-01	1.35726265e+00	1.99419477e-01
158             	lowerWall	1.05670896e-01	1.35721326e+00	1.99537181e-01
159             	lowerWall	1.06163435e-01	1.35716450e+00	1.99662763e-01
160             	lowerWall	1.06698069e-01	1.35711637e+00	1.99795691e-01
161             	lowerWall	1.07272668e-01	1.35706884e+00	1.99935430e-01
162             	lowerWall	1.07884842e-01	1.35702191e+00	2.00081454e-01
163             	lowerWall	1.08532021e-01	1.35697557e+00	2.00233250e-01
164             	lowerWall	1.09211538e-01	1.35692981e+00	2.00390322e-01
165             	lowerWall	1.09920688e-01	1.35688462e+00	2.00552197e-01
166             	lowerWall	1.10656767e-01	1.35683999e+00	2.00718427e-01
167             	lowerWall	1.11417108e-01	1.35679592e+00	2.00888595e-01
168             	lowerWall	1.12199135e-01	1.35675239e+00	2.01062314e-01
169             	lowerWall	1.13000431e-01	1.35670940e+00	2.01239219e-01
170             	lowerWall	1.13818730e-01	1.35666693e+00	2.01418969e-01
171             	lowerWall	1.14651924e-01	1.35662498e+00	2.01601244e-01
172             	lowerWall	1.15498077e-01	1.35658355e+00	2.01785746e-01
173             	lowerWall	1.16355436e-01	1.35654261e+00	2.01972206e-01
174             	lowerWall	1.17222416e-01	1.35650217e+00	2.02160373e-01
175             	lowerWall	1.18097536e-01	1.35646221e+00	2.02350007e-01
176             	lowerWall	1.18979381e-01	1.35642273e+00	2.02540876e-01
177             	lowerWall	1.19866618e-01	1.35638372e+00	2.02732758e-01
178             	lowerWall	1.20758031e-01	1.35634518e+00	2.02925446e-01
179             	lowerWall	1.21652520e-01	1.35630709e+00	2.03118749e-01
180             	lowerWall	1.22549050e-01	1.35626945e+00	2.03312488e-01
181             	lowerWall	1.23446577e-01	1.35623225e+00	2.03506488e-01
182             	lowerWall	1.24344057e-01	1.35619549e+00	2.03700571e-01
183             	lowerWall	1.25240508e-01	1.35615915e+00	2.03894555e-01
184             	lowerWall	1.25662750e-01	1.35612324e+00	2.04088265e-01
185             	lowerWall	1.25696536e-01	1.35608774e+00	2.04281537e-01
186             	lowerWall	1.25732115e-01	1.35605265e+00	2.04474221e-01
187             	lowerWall	1.25764977e-01	1.35601796e+00	2.04666178e-01
188             	lowerWall	1.25798437e-01	1.35598366e+00	2.04857274e-01
189             	lowerWall	1.25831426e-01	1.35594975e+00	2.05047371e-01
190             	lowerWall	1.25862631e-01	1.35591623e+00	2.05236321e-01
191             	lowerWall	1.25895115e-01	1.35588308e+00	2.05423973e-01
192             	lowerWall	1.25925206e-01	1.35585031e+00	2.05610176e-01
193             	lowerWall	1.25955201e-01	1.35581790e+00	2.05794800e-01
194             	lowerWall	1.25986222e-01	1.35578585e+00	2.05977731e-01
195             	lowerWall	1.26014246e-01	1.35575416e+00	2.06158874e-01
196             	lowerWall	1.26042566e-01	1.35572281e+00	2.06338140e-01
197             	lowerWall	1.26071739e-01	1.35569181e+00	2.06515441e-01
198             	lowerWall	1.26098726e-01	1.35566115e+00	2.06690684e-01
199             	lowerWall	1.26124998e-01	1.35563082e+00	2.06863764e-01
200             	lowerWall	1.26152005e-01	1.35560083e+00	2.07034571e-01
201             	lowerWall	1.26179051e-01	1.35557116e+00	2.07202990e-01
202             	lowerWall	1.26203105e-01	1.35554180e+00	2.07368920e-01
203             	lowerWall	1.26227710e-01	1.35551277e+00	2.07532283e-01
204             	lowerWall	1.26252788e-01	1.35548404e+00	2.07693026e-01
205             	lowerWall	1.26277118e-01	1.35545562e+00	2.07851115e-01
206             	lowerWall	1.26299188e-01	1.35542751e+00	2.08006529e-01
207             	lowerWall	1.26321578e-01	1.35539969e+00	2.08159253e-01
208             	lowerWall	1.26344232e-01	1.35537217e+00	2.08309267e-01
209             	lowerWall	1.26366561e-01	1.35534494e+00	2.08456549e-01
210             	lowerWall	1.26386153e-01	1.35531799e+00	2.08601068e-01
211             	lowerWall	1.26405915e-01	1.35529133e+00	2.08742789e-01
212             	lowerWall	1.26425796e-01	1.35526494e+00	2.08881674e-01
213             	lowerWall	1.26445746e-01	1.35523884e+00	2.09017687e-01
214             	lowerWall	1.26463671e-01	1.35521300e+00	2.09150795e-01
215             	lowerWall	1.26480661e-01	1.35518743e+00	2.09280971e-01
216             	lowerWall	1.26497652e-01	1.35516212e+00	2.09408195e-01
217             	lowerWall	1.26514639e-01	1.35513708e+00	2.09532454e-01
218             	lowerWall	1.26531573e-01	1.35511229e+00	2.09653746e-01
219             	lowerWall	1.26546536e-01	1.35508776e+00	2.09772084e-01
220             	lowerWall	1.26560758e-01	1.35506348e+00	2.09887500e-01
221             	lowerWall	1.26574944e-01	1.35503945e+00	2.10000040e-01
222             	lowerWall	1.26589067e-01	1.35501567e+00	2.10109759e-01
223             	lowerWall	1.26603109e-01	1.35499212e+00	2.10216718e-01
224             	lowerWall	1.26616602e-01	1.35496882e+00	2.10320979e-01
225             	lowerWall	1.26628331e-01	1.35494575e+00	2.10422597e-01
226             	lowerWall	1.26639990e-01	1.35492291e+00	2.10521623e-01
227             	lowerWall	1.26651542e-01	1.35490031e+00	2.10618103e-01
228             	lowerWall	1.26662963e-01	1.35487793e+00	2.10712075e-01
229             	lowerWall	1.26674231e-01	1.35485578e+00	2.10803574e-01
230             	lowerWall	1.26685095e-01	1.35483385e+00	2.10892631e-01
231             	lowerWall	1.26694337e-01	1.35481214e+00	2.10979275e-01
232             	lowerWall	1.26703470e-01	1.35479065e+00	2.11063532e-01
233             	lowerWall	1.26712465e-01	1.35476937e+00	2.11145432e-01
234             	lowerWall	1.26721287e-01	1.35474831e+00	2.11225004e-01
235             	lowerWall	1.26729916e-01	1.35472745e+00	2.11302280e-01
236             	lowerWall	1.26738337e-01	1.35470681e+00	2.11377295e-01
237             	lowerWall	1.26745969e-01	1.35468636e+00	2.11450087e-01
238             	lowerWall	1.26752624e-01	1.35466612e+00	2.11520694e-01
239             	lowerWall	1.26759147e-01	1.35464608e+00	2.11589159e-01
240             	lowerWall	1.26765523e-01	1.35462624e+00	2.11655524e-01
241             	lowerWall	1.26771725e-01	1.35460660e+00	2.11719829e-01
242             	lowerWall	1.26777731e-01	1.35458714e+00	2.11782119e-01
243             	lowerWall	1.26783523e-01	1.35456788e+00	2.11842436e-01
244             	lowerWall	1.26789091e-01	1.35454881e+00	2.11900825e-01
245             	lowerWall	1.26793971e-01	1.35452992e+00	2.11957328e-01
246             	lowerWall	1.26797991e-01	1.35451122e+00	2.12011992e-01
247             	lowerWall	1.26801886e-01	1.35449271e+00	2.12064860e-01
248             	lowerWall	1.26805657e-01	1.35447437e+00	2.12115979e-01
249             	lowerWall	1.26809308e-01	1.35445621e+00	2.12165392e-01
250             	lowerWall	1.26812837e-01	1.35443823e+00	2.12213143e-01
251             	lowerWall	1.26816242e-01	1.35442043e+00	2.12259277e-01
252             	lowerWall	1.26819527e-01	1.35440280e+00	2.12303836e-01
253             	lowerWall	1.26822696e-01	1.35438534e+00	2.12346862e-01
254             	lowerWall	1.26825754e-01	1.35436805e+00	2.12388395e-01
255             	lowerWall	1.26828690e-01	1.35435092e+00	2.12428477e-01
256             	lowerWall	1.26831212e-01	1.35433397e+00	2.12467147e-01
257             	lowerWall	1.26833115e-01	1.35431717e+00	2.12504445e-01
258             	lowerWall	1.26834948e-01	1.35430054e+00	2.12540408e-01
259             	lowerWall	1.26836708e-01	1.35428407e+00	2.12575075e-01
260             	lowerWall	1.26838401e-01	1.35426776e+00	2.12608478e-01
261             	lowerWall	1.26840028e-01	1.35425161e+00	2.12640652e-01
262             	lowerWall	1.26841591e-01	1.35423561e+00	2.12671628e-01
263             	lowerWall	1.26843083e-01	1.35421976e+00	2.12701437e-01
264             	lowerWall	1.26844501e-01	1.35420406e+00	2.12730108e-01
265             	lowerWall	1.26845843e-01	1.35418852e+00	2.12757671e-01
266             	lowerWall	1.26847112e-01	1.35417313e+00	2.12784155e-01
267             	lowerWall	1.26848304e-01	1.35415788e+00	2.12809587e-01
268             	lowerWall	1.26849417e-01	1.35414277e+00	2.12833996e-01
269             	lowerWall	1.26850450e-01	1.35412782e+00	2.12857409e-01
270             	lowerWall	1.26851401e-01	1.35411300e+00	2.12879852e-01
271             	lowerWall	1.26852270e-01	1.35409832e+00	2.12901357e-01
272             	lowerWall	1.26853057e-01	1.35408379e+00	2.12921942e-01
273             	lowerWall	1.26853763e-01	1.35406939e+00	2.12941635e-01
274             	lowerWall	1.26854237e-01	1.35405513e+00	2.12960458e-01
275             	lowerWall	1.26854355e-01	1.35404100e+00	2.12978437e-01
276             	lowerWall	1.26854411e-01	1.35402701e+00	2.12995595e-01
277             	lowerWall	1.26854405e-01	1.35401315e+00	2.13011957e-01
278             	lowerWall	1.26854335e-01	1.35399942e+00	2.13027545e-01
279             	lowerWall	1.26854199e-01	1.35398582e+00	2.13042383e-01
280             	lowerWall	1.26853997e-01	1.35397235e+00	2.13056492e-01
281             	lowerWall	1.26853729e-01	1.35395900e+00	2.13069896e-01
282             	lowerWall	1.26853392e-01	1.35394578e+00	2.13082617e-01
283             	lowerWall	1.26852988e-01	1.35393269e+00	2.13094675e-01
284             	lowerWall	1.26852515e-01	1.35391972e+00	2.13106092e-01
285             	lowerWall	1.26851973e-01	1.35390686e+00	2.13116890e-01
286             	lowerWall	1.26851362e-01	1.35389413e+00	2.13127089e-01
287             	lowerWall	1.26850682e-01	1.35388152e+00	2.13136711e-01
288             	lowerWall	1.26849930e-01	1.35386903e+00	2.13145775e-01
289             	lowerWall	1.26849104e-01	1.35385665e+00	2.13154301e-01
290             	lowerWall	1.26848202e-01	1.35384439e+00	2.13162308e-01
291             	lowerWall	1.26847222e-01	1.35383225e+00	2.13169815e-01
292             	lowerWall	1.26846163e-01	1.35382021e+00	2.13176838e-01
293             	lowerWall	1.26845025e-01	1.35380829e+00	2.13183395e-01
294             	lowerWall	1.26843810e-01	1.35379648e+00	2.13189502e-01
295             	lowerWall	1.26842523e-01	1.35378478e+00	2.13195176e-01
296             	lowerWall	1.26841169e-01	1.35377319e+00	2.13200431e-01
297             	lowerWall	1.26839753e-01	1.35376171e+00	2.13205282e-01
298             	lowerWall	1.26838281e-01	1.35375033e+00	2.13209743e-01
299             	lowerWall	1.26836755e-01	1.35373906e+00	2.13213829e-01
300             	lowerWall	1.26835179e-01	1.35372790e+00	2.13217551e-01
301             	lowerWall	1.26833557e-01	1.35371683e+00	2.13220923e-01
302             	lowerWall	1.26831891e-01	1.35370587e+00	2.13223958e-01
303             	lowerWall	1.26830186e-01	1.35369501e+00	2.13226667e-01
304             	lowerWall	1.26828446e-01	1.35368426e+00	2.13229062e-01
305             	lowerWall	1.26826677e-01	1.35367360e+00	2.13231153e-01
306             	lowerWall	1.26824881e-01	1.35366304e+00	2.13232952e-01
307             	lowerWall	1.26823064e-01	1.35365257e+00	2.13234467e-01
308             	lowerWall	1.26821228e-01	1.35364221e+00	2.13235709e-01
309             	lowerWall	1.26819375e-01	1.35363194e+00	2.13236684e-01
310             	lowerWall	1.26817507e-01	1.35362176e+00	2.13237402e-01
311             	lowerWall	1.26815625e-01	1.35361168e+00	2.13237870e-01
312             	lowerWall	1.26813731e-01	1.35360169e+00	2.13238095e-01
313             	lowerWall	1.26811823e-01	1.35359179e+00	2.13238085e-01
314             	lowerWall	1.26809903e-01	1.35358199e+00	2.13237849e-01
315             	lowerWall	1.26807970e-01	1.35357227e+00	2.13237393e-01
316             	lowerWall	1.26806024e-01	1.35356264e+00	2.13236726e-01
317             	lowerWall	1.26804065e-01	1.35355310e+00	2.13235856e-01
318             	lowerWall	1.26802092e-01	1.35354365e+00	2.13234792e-01
319             	lowerWall	1.26800106e-01	1.35353429e+00	2.13233541e-01
320             	lowerWall	1.26798106e-01	1.35352501e+00	2.13232112e-01
321             	lowerWall	1.26796091e-01	1.35351582e+00	2.13230513e-01
322             	lowerWall	1.26794063e-01	1.35350671e+00	2.13228753e-01
323             	lowerWall	1.26792021e-01	1.35349769e+00	2.13226839e-01
324             	lowerWall	1.26789965e-01	1.35348875e+00	2.13224778e-01
325             	lowerWall	1.26787895e-01	1.35347989e+00	2.13222579e-01
326             	lowerWall	1.26785811e-01	1.35347111e+00	2.13220250e-01
327             	lowerWall	1.26783714e-01	1.35346241e+00	2.13217797e-01
328             	lowerWall	1.26781603e-01	1.35345379e+00	2.13215229e-01
329             	lowerWall	1.26779480e-01	1.35344525e+00	2.13212553e-01
330             	lowerWall	1.26777344e-01	1.35343679e+00	2.13209778e-01
331             	lowerWall	1.26775195e-01	1.35342840e+00	2.13206909e-01
332             	lowerWall	1.26773034e-01	1.35342009e+00	2.13203954e-01
333             	lowerWall	1.26770861e-01	1.35341186e+00	2.13200919e-01
334             	lowerWall	1.26768676e-01	1.35340370e+00	2.13197810e-01
335             	lowerWall	1.26766480e-01	1.35339562e+00	2.13194633e-01
336             	lowerWall	1.26764272e-01	1.35338761e+00	2.13191393e-01
337             	lowerWall	1.26762054e-01	1.35337967e+00	2.13188095e-01
338             	lowerWall	1.26759826e-01	1.35337181e+00	2.13184746e-01
339             	lowerWall	1.26757588e-01	1.35336402e+00	2.13181349e-01
340             	lowerWall	1.26755340e-01	1.35335629e+00	2.13177912e-01
341             	lowerWall	1.26753083e-01	1.35334864e+00	2.13174437e-01
342             	lowerWall	1.26750818e-01	1.35334106e+00	2.13170931e-01
343             	lowerWall	1.26748544e-01	1.35333355e+00	2.13167396e-01
344             	lowerWall	1.26746262e-01	1.35332610e+00	2.13163837e-01
345             	lowerWall	1.26743974e-01	1.35331873e+00	2.13160257e-01
346             	lowerWall	1.26741679e-01	1.35331142e+00	2.13156661e-01
347             	lowerWall	1.26739377e-01	1.35330417e+00	2.13153051e-01
348             	lowerWall	1.26737068e-01	1.35329699e+00	2.13149430e-01
349             	lowerWall	1.26734752e-01	1.35328988e+00	2.13145801e-01
350             	lowerWall	1.26732428e-01	1.35328283e+00	2.13142168e-01
351             	lowerWall	1.26730096e-01	1.35327585e+00	2.13138532e-01
352             	lowerWall	1.26727756e-01	1.35326893e+00	2.13134896e-01
353             	lowerWall	1.26725408e-01	1.35326207e+00	2.13131262e-01
354             	lowerWall	1.26723051e-01	1.35325527e+00	2.13127633e-01
355             	lowerWall	1.26720687e-01	1.35324854e+00	2.13124011e-01
356             	lowerWall	1.26718315e-01	1.35324186e+00	2.13120399e-01
357             	lowerWall	1.26715936e-01	1.35323525e+00	2.13116799e-01
358             	lowerWall	1.26713550e-01	1.35322870e+00	2.13113214e-01
359             	lowerWall	1.26711157e-01	1.35322220e+00	2.13109646e-01
360             	lowerWall	1.26708756e-01	1.35321576e+00	2.13106098e-01
361             	lowerWall	1.26706349e-01	1.35320939e+00	2.13102572e-01
362             	lowerWall	1.26703936e-01	1.35320307e+00	2.13099070e-01
363             	lowerWall	1.26701517e-01	1.35319680e+00	2.13095594e-01
364             	lowerWall	1.26699092e-01	1.35319059e+00	2.13092146e-01
365             	lowerWall	1.26696663e-01	1.35318444e+00	2.13088726e-01
366             	lowerWall	1.26694228e-01	1.35317835e+00	2.13085336e-01
367             	lowerWall	1.26691790e-01	1.35317231e+00	2.13081977e-01
368             	lowerWall	1.26689347e-01	1.35316632e+00	2.13078650e-01
369             	lowerWall	1.26686901e-01	1.35316039e+00	2.13075357e-01
370             	lowerWall	1.26684451e-01	1.35315451e+00	2.13072098e-01
371             	lowerWall	1.26681999e-01	1.35314868e+00	2.13068875e-01
372             	lowerWall	1.26679545e-01	1.35314291e+00	2.13065688e-01
373             	lowerWall	1.26677090e-01	1.35313718e+00	2.13062538e-01
374             	lowerWall	1.26674635e-01	1.35313151e+00	2.13059426e-01
375             	lowerWall	1.26672182e-01	1.35312589e+00	2.13056351e-01
376             	lowerWall	1.26669731e-01	1.35312032e+00	2.13053315e-01
377             	lowerWall	1.26667284e-01	1.35311480e+00	2.13050316e-01
378             	lowerWall	1.26664842e-01	1.35310933e+00	2.13047355e-01
379             	lowerWall	1.26662406e-01	1.35310391e+00	2.13044432e-01
380             	lowerWall	1.26659977e-01	1.35309854e+00	2.13041547e-01
381             	lowerWall	1.26657556e-01	1.35309322e+00	2.13038699e-01
382             	lowerWall	1.26655144e-01	1.35308794e+00	2.13035889e-01
383             	lowerWall	1.26652743e-01	1.35308271e+00	2.13033116e-01
384             	lowerWall	1.26650352e-01	1.35307753e+00	2.13030380e-01
385             	lowerWall	1.26647974e-01	1.35307239e+00	2.13027680e-01
386             	lowerWall	1.26645609e-01	1.35306730e+00	2.13025017e-01
387             	lowerWall	1.26643258e-01	1.35306226e+00	2.13022389e-01
388             	lowerWall	1.26640921e-01	1.35305726e+00	2.13019799e-01
389             	lowerWall	1.26638599e-01	1.35305230e+00	2.13017244e-01
390             	lowerWall	1.26636292e-01	1.35304740e+00	2.13014727e-01
391             	lowerWall	1.26634000e-01	1.35304253e+00	2.13012248e-01
392             	lowerWall	1.26631724e-01	1.35303771e+00	2.13009807e-01
393             	lowerWall	1.26629463e-01	1.35303293e+00	2.13007404e-01
394             	lowerWall	1.26627218e-01	1.35302819e+00	2.13005041e-01
395             	lowerWall	1.26624989e-01	1.35302350e+00	2.13002717e-01
396             	lowerWall	1.26622776e-01	1.35301884e+00	2.13000433e-01
397             	lowerWall	1.26620579e-01	1.35301423e+00	2.12998189e-01
398             	lowerWall	1.26618397e-01	1.35300966e+00	2.12995984e-01
399             	lowerWall	1.26616231e-01	1.35300513e+00	2.12993820e-01
400             	lowerWall	1.26614080e-01	1.35300064e+00	2.12991695e-01
401             	lowerWall	1.26611945e-01	1.35299619e+00	2.12989609e-01
402             	lowerWall	1.26609824e-01	1.35299179e+00	2.12987562e-01
403             	lowerWall	1.26607718e-01	1.35298742e+00	2.12985554e-01
404             	lowerWall	1.26605626e-01	1.35298309e+00	2.12983584e-01
405             	lowerWall	1.26603548e-01	1.35297879e+00	2.12981652e-01
406             	lowerWall	1.26601484e-01	1.35297454e+00	2.12979759e-01
407             	lowerWall	1.26599433e-01	1.35297032e+00	2.12977902e-01
408             	lowerWall	1.26597397e-01	1.35296615e+00	2.12976083e-01
409             	lowerWall	1.26595373e-01	1.35296200e+00	2.12974301e-01
410             	lowerWall	1.26593362e-01	1.35295790e+00	2.12972554e-01
411             	lowerWall	1.26591362e-01	1.35295383e+00	2.12970843e-01
412             	lowerWall	1.26589376e-01	1.35294980e+00	2.12969166e-01
413             	lowerWall	1.26587402e-01	1.35294581e+00	2.12967523e-01
414             	lowerWall	1.26585439e-01	1.35294185e+00	2.12965913e-01