#      distance             U_x             U_y             U_z wallShearStr... wallShearStr... wallShearStr...               p             nut         nuTilda
  3.0219182e-06     0.019145274   2.3618147e-09  -3.3691141e-23               0               0               0   0.00022438948   3.2816692e-12   4.4157961e-08
  5.0865428e-06     0.032226851    5.993788e-09  -1.4310821e-23               0               0               0   0.00022438968   1.6261494e-11   7.4324155e-08
  7.2269684e-06     0.045785262   1.1806934e-08   -3.685592e-23               0               0               0   0.00022438987   5.5541995e-11   1.0558883e-07
  9.4750924e-06     0.060018696   2.0127906e-08  -5.5277967e-23               0               0               0   0.00022439007    1.512029e-10   1.3841427e-07
  1.1864417e-05     0.075131602    3.142094e-08  -2.3527819e-23               0               0               0   0.00022439028   3.5545784e-10   1.7328534e-07
  1.4430548e-05     0.091334266   4.6353468e-08   7.6171666e-23               0               0               0   0.00022439051   7.5655924e-10   2.1071634e-07
  1.7211727e-05      0.10883957   6.5804706e-08   1.2445518e-22               0               0               0   0.00022439076   1.5013627e-09   2.5125852e-07
  2.0249401e-05      0.12785475   9.0896338e-08    2.591007e-23               0               0               0   0.00022439104   2.8312567e-09   2.9550844e-07
  2.3588836e-05      0.14856462   1.2302894e-07  -3.4535352e-23               0               0               0   0.00022439135   5.1383694e-09   3.4411811e-07
  2.7279799e-05      0.17110161   1.6390477e-07  -1.7267676e-23               0               0               0   0.00022439173   9.0516755e-09   3.9780813e-07
  3.1377293e-05       0.1954976   2.1551337e-07               0               0               0               0   0.00022439218   1.5565301e-08   4.5738574e-07
  3.5942381e-05      0.22161732   2.8004805e-07   8.2630299e-23               0               0               0   0.00022439274   2.6222014e-08   5.2376887e-07
  4.1043091e-05      0.24908576   3.5972351e-07   1.2393219e-22               0               0               0   0.00022439349   4.3357905e-08   5.9801325e-07
  4.6755437e-05      0.27724587   4.5650373e-07   1.4388012e-22               0               0               0   0.00022439451   7.0386066e-08   6.8132931e-07
  5.3164546e-05      0.30520122   5.7184025e-07   1.5385088e-22               0               0               0   0.00022439595   1.1202871e-07   7.7506724e-07
  6.0365928e-05      0.33197737    7.066104e-07  -2.1684384e-22               0               0               0   0.00022439798   1.7430652e-07   8.8066362e-07
    6.84669e-05      0.35675836   8.6140229e-07  -4.7167639e-22               0               0               0   0.00022440085   2.6405084e-07   9.9959158e-07
  7.7588184e-05        0.379078   1.0370671e-06  -2.4995507e-22               0               0               0   0.00022440481   3.8785041e-07   1.1333824e-06
   8.786571e-05      0.39886518   1.2352527e-06   4.1111273e-23               0               0               0    0.0002244101    5.506773e-07     1.28373e-06
  9.9452634e-05      0.41634919   1.4586818e-06    2.316241e-22               0               0               0   0.00022441686   7.5475099e-07   1.4526135e-06
  0.00011252163      0.43191198   1.7111713e-06   6.5734941e-23               0               0               0   0.00022442516   9.9924096e-07   1.6423768e-06
  0.00012726745      0.44596592   1.9975362e-06  -9.7413237e-23               0               0               0   0.00022443499   1.2810566e-06   1.8557576e-06
  0.00014390985      0.45888392   2.3235084e-06  -1.9030535e-23               0               0               0   0.00022444631   1.5964022e-06   2.0958944e-06
  0.00016269684      0.47097254   2.6957227e-06   5.8382561e-23               0               0               0   0.00022445908   1.9423979e-06   2.3663342e-06
  0.00018390838      0.48247001   3.1217747e-06   4.2356562e-22               0               0               0   0.00022447334   2.3181657e-06    2.671051e-06
  0.00020786057      0.49355491    3.610338e-06   5.1853409e-22               0               0               0   0.00022448922   2.7251919e-06   3.0144782e-06
  0.00023491035      0.50435798   4.1713273e-06   1.5335103e-22               0               0               0   0.00022450692   3.1671443e-06   3.4015526e-06
  0.00026546084      0.51497332   4.8160999e-06               0               0               0               0   0.00022452673   3.6494502e-06   3.8377669e-06
   0.0002999673      0.52546786   5.5576936e-06               0               0               0               0   0.00022454902   4.1788692e-06   4.3292262e-06
  0.00033894396      0.53588876   6.4111048e-06  -1.6877679e-22               0               0               0   0.00022457421   4.7631738e-06   4.8827063e-06
  0.00038297165      0.54626913   7.3936158e-06  -3.3755358e-22               0               0               0    0.0002246028   5.4109562e-06   5.5057085e-06
  0.00043270649      0.55663224   8.5251809e-06   6.6460721e-22               0               0               0   0.00022463536   6.1315354e-06   6.2065071e-06
  0.00048888965      0.56699462   9.8288856e-06   1.3219257e-21               0               0               0   0.00022467253   6.9349252e-06   6.9941851e-06
  0.00055235838      0.57736834   1.1331495e-05   4.8854168e-22               0               0               0   0.00022471504   7.8318278e-06   7.8786505e-06
   0.0006240585      0.58776271   1.3064113e-05               0               0               0               0   0.00022476373    8.833624e-06   8.8706247e-06
  0.00070505852      0.59818549   1.5062982e-05   2.3809819e-22               0               0               0   0.00022481956   9.9523367e-06   9.9815923e-06
  0.00079656552      0.60864385   1.7370458e-05   4.7619638e-22               0               0               0    0.0002248836   1.1200545e-05     1.12237e-05
  0.00089994316       0.6191451   2.0036197e-05   2.3809819e-22               0               0               0   0.00022495709   1.2591237e-05   1.2609589e-05
    0.001016732      0.62969726   2.3118624e-05               0               0               0               0   0.00022504146   1.4137575e-05   1.4152146e-05
   0.0011486725      0.64030959   2.6686737e-05   9.5571502e-22               0               0               0   0.00022513831   1.5852565e-05    1.586416e-05
   0.0012977308      0.65099297   3.0822344e-05  -7.4709028e-22               0               0               0   0.00022524946   1.7748626e-05   1.7757878e-05
   0.0014661282      0.66176033   3.5622822e-05  -3.3120752e-21               0               0               0   0.00022537699   1.9837041e-05   1.9844446e-05
   0.0016563743      0.67262691    4.120452e-05  -2.7227904e-21               0               0               0   0.00022552316   2.2127312e-05   2.2133262e-05
   0.0018713042      0.68361063   4.7706956e-05   -1.707676e-21               0               0               0   0.00022569054   2.4626428e-05   2.4631229e-05
   0.0021141207      0.69473224   5.5297946e-05  -5.9415554e-22               0               0               0   0.00022588188   2.7338061e-05   2.7341955e-05
   0.0023884425      0.70601551   6.4179862e-05  -4.4996215e-22               0               0               0    0.0002261001   3.0261718e-05   3.0264894e-05
   0.0026983575      0.71748731   7.4597228e-05   1.0773667e-21               0               0               0   0.00022634823   3.3391835e-05   3.3394441e-05
   0.0030484842      0.72917765   8.6845885e-05  -2.3228614e-21               0               0               0   0.00022662927   3.6716797e-05    3.671895e-05
   0.0034440402      0.74111957   0.00010128402  -5.5386343e-21               0               0               0   0.00022694596   4.0217816e-05   4.0219609e-05
   0.0038909203      0.75334905   0.00011834528   -1.688444e-21               0               0               0    0.0002273005   4.3867593e-05   4.3869098e-05
    0.004395784      0.76590477   0.00013855427   3.7632784e-21               0               0               0   0.00022769408   4.7628647e-05   4.7629922e-05
   0.0049661549      0.77882777    0.0001625448  -4.2423113e-21               0               0               0   0.00022812637   5.1451234e-05   5.1452326e-05
   0.0056105328      0.79216094   0.00019108319  -1.4437203e-20               0               0               0   0.00022859505    5.527077e-05   5.5271715e-05
   0.0063385204      0.80594821   0.00022509946   5.3142801e-21               0               0               0   0.00022909487   5.9004701e-05   5.9005529e-05
   0.0071609664      0.82023321   0.00026571503   1.9633973e-20               0               0               0   0.00022961226   6.2548794e-05    6.254953e-05
   0.0080901272      0.83505715    0.0003141125   4.2942766e-20               0               0               0   0.00023012507   6.5772781e-05   6.5773446e-05
   0.0091398493      0.85045524   0.00037188994   5.3575609e-20               0               0               0   0.00023060453   6.8515324e-05   6.8515936e-05
    0.010325776      0.86645096   0.00044095992   2.3341142e-20               0               0               0   0.00023100646   7.0578231e-05   7.0578807e-05
     0.01166558      0.88304674   0.00052316243    4.820223e-21               0               0               0   0.00023126728   7.1719908e-05   7.1720465e-05
    0.013179228      0.90020886    0.0006205128   1.5594554e-20               0               0               0    0.0002312985   7.1648151e-05    7.164871e-05
    0.014889277      0.91784268   0.00073496971   1.3054881e-20               0               0               0    0.0002309756    7.001267e-05   7.0013256e-05
    0.016821209      0.93575139   0.00086781949   3.9170391e-20               0               0               0   0.00023013246   6.6398145e-05     6.63988e-05
    0.019003816      0.95356576    0.0010185186   6.1847239e-20               0               0               0   0.00022855429   6.0318811e-05   6.0319617e-05
    0.021469624      0.97062145    0.0011827657    3.083743e-20               0               0               0   0.00022600707   5.1208059e-05    5.120923e-05
    0.024255377       0.9857837    0.0013514612   1.1543162e-20               0               0               0   0.00022236259   3.8205893e-05   3.8208537e-05
    0.027402591      0.99694722    0.0014836061   8.4287001e-22               0               0               0   0.00021713462   2.1648646e-05   2.1682302e-05
    0.030958166       1.0024168    0.0015418667               0               0               0               0   0.00021031244   7.7767067e-06   7.9789784e-06
    0.034975088       1.0037385    0.0015504592               0               0               0               0   0.00020318565   2.1495768e-06   2.5865212e-06
    0.039513219       1.0038224    0.0015422932   1.8776621e-20               0               0               0   0.00019644263   1.4411314e-06    1.975995e-06
    0.044640187       1.0038234    0.0015322414   2.5782875e-20               0               0               0   0.00018975768   1.4370698e-06   1.9729018e-06
    0.050432395       1.0038278    0.0015225995   4.6270965e-21               0               0               0   0.00018297419   1.4451488e-06   1.9790147e-06
    0.056976161       1.0038321    0.0015112752  -2.3791236e-21               0               0               0   0.00017617945   1.4515139e-06   1.9838331e-06
    0.064369002       1.0038341    0.0014994066               0               0               0               0   0.00016949778   1.4565396e-06   1.9876395e-06
    0.072721087       1.0038319    0.0014858186               0               0               0               0   0.00016303766   1.4606126e-06   1.9907252e-06
    0.082156882       1.0038267    0.0014716157               0               0               0               0   0.00015688417   1.4639185e-06   1.9932306e-06
    0.092817002       1.0038188     0.001456171               0               0               0               0   0.00015111639   1.4673635e-06    1.995842e-06
