# Selection     : all 
# Volume        : 2.33333000e+00
# Time          	maxMagU	location	cell
0               	1.00000000e+00	1.56631511e-03 4.00664797e-04 5.00000000e-01	0
1               	1.00063620e+00	1.96867370e+00 1.10190469e-02 5.00000000e-01	1199
2               	1.00080922e+00	1.96867370e+00 1.99102419e-01 5.00000000e-01	6579
3               	1.00117754e+00	4.44885220e-01 5.71560190e-03 5.00000000e-01	655
4               	1.00148056e+00	5.15248361e-01 5.71560190e-03 5.00000000e-01	659
5               	1.00171523e+00	2.67034535e-01 4.75548180e-03 5.00000000e-01	542
6               	1.00183650e+00	2.56035867e-01 5.71560190e-03 5.00000000e-01	641
7               	1.00192774e+00	7.33354481e-01 7.73309085e-03 5.00000000e-01	869
8               	1.00207396e+00	1.90695483e+00 1.10190469e-02 5.00000000e-01	1198
9               	1.00229730e+00	1.90695483e+00 1.59356319e-02 5.00000000e-01	1598
10              	1.00247404e+00	1.90695483e+00 2.30631827e-02 5.00000000e-01	2098
11              	1.00262147e+00	1.84707559e+00 1.33966242e-02 5.00000000e-01	1397
12              	1.00274584e+00	1.78898115e+00 1.33966242e-02 5.00000000e-01	1396
13              	1.00285448e+00	1.96867370e+00 1.46452811e-02 5.00000000e-01	1499
14              	1.00296908e+00	1.90695483e+00 3.52285364e-02 5.00000000e-01	2798
15              	1.00310144e+00	1.90695483e+00 3.72061836e-02 5.00000000e-01	2898
16              	1.00324216e+00	1.90695483e+00 3.92498666e-02 5.00000000e-01	2998
17              	1.00339861e+00	1.90695483e+00 3.92498666e-02 5.00000000e-01	2998
18              	1.00355647e+00	1.90695483e+00 4.13617903e-02 5.00000000e-01	3098
19              	1.00370204e+00	1.90695483e+00 4.13617903e-02 5.00000000e-01	3098
20              	1.00382171e+00	1.90695483e+00 4.35442333e-02 5.00000000e-01	3198
21              	1.00392614e+00	1.90695483e+00 4.35442333e-02 5.00000000e-01	3198
22              	1.00399209e+00	1.90695483e+00 4.57995504e-02 5.00000000e-01	3298
23              	1.00404331e+00	1.96867370e+00 6.67753197e-02 5.00000000e-01	4099
24              	1.00407571e+00	1.96867370e+00 6.38422312e-02 5.00000000e-01	3999
25              	1.00408993e+00	1.96867370e+00 6.98063470e-02 5.00000000e-01	4199
26              	1.00409041e+00	1.96867370e+00 6.98063470e-02 5.00000000e-01	4199
27              	1.00408137e+00	1.96867370e+00 7.29385835e-02 5.00000000e-01	4299
28              	1.00406806e+00	1.96867370e+00 7.61754087e-02 5.00000000e-01	4399
29              	1.00405440e+00	1.96867370e+00 7.61754087e-02 5.00000000e-01	4399
30              	1.00404321e+00	1.96867370e+00 7.95203148e-02 5.00000000e-01	4499
31              	1.00403555e+00	1.96867370e+00 7.95203148e-02 5.00000000e-01	4499
32              	1.00403183e+00	1.96867370e+00 8.29769108e-02 5.00000000e-01	4599
33              	1.00403106e+00	1.96867370e+00 8.29769108e-02 5.00000000e-01	4599
34              	1.00403212e+00	1.96867370e+00 8.29769108e-02 5.00000000e-01	4599
35              	1.00403378e+00	1.96867370e+00 8.65489262e-02 5.00000000e-01	4699
36              	1.00403405e+00	1.96867370e+00 8.65489262e-02 5.00000000e-01	4699
37              	1.00403479e+00	1.96867370e+00 8.65489262e-02 5.00000000e-01	4699
38              	1.00403497e+00	1.96867370e+00 8.65489262e-02 5.00000000e-01	4699
39              	1.00403167e+00	1.96867370e+00 8.65489262e-02 5.00000000e-01	4699
40              	1.00402485e+00	1.96867370e+00 8.65489262e-02 5.00000000e-01	4699
41              	1.00401643e+00	1.96867370e+00 8.65489262e-02 5.00000000e-01	4699
42              	1.00400792e+00	1.96867370e+00 8.65489262e-02 5.00000000e-01	4699
43              	1.00400025e+00	1.96867370e+00 8.65489262e-02 5.00000000e-01	4699
44              	1.00399363e+00	1.96867370e+00 8.65489262e-02 5.00000000e-01	4699
45              	1.00398772e+00	1.96867370e+00 8.65489262e-02 5.00000000e-01	4699
46              	1.00398222e+00	1.96867370e+00 8.65489262e-02 5.00000000e-01	4699
47              	1.00397702e+00	1.96867370e+00 8.65489262e-02 5.00000000e-01	4699
48              	1.00397227e+00	1.96867370e+00 8.65489262e-02 5.00000000e-01	4699
49              	1.00396776e+00	1.96867370e+00 8.65489262e-02 5.00000000e-01	4699
50              	1.00396305e+00	1.96867370e+00 8.65489262e-02 5.00000000e-01	4699
51              	1.00395679e+00	1.96867370e+00 8.65489262e-02 5.00000000e-01	4699
52              	1.00395085e+00	1.96867370e+00 8.65489262e-02 5.00000000e-01	4699
53              	1.00394549e+00	1.96867370e+00 8.65489262e-02 5.00000000e-01	4699
54              	1.00394060e+00	1.96867370e+00 1.02239541e-01 5.00000000e-01	5779
55              	1.00393296e+00	1.96867370e+00 1.02239541e-01 5.00000000e-01	5779
56              	1.00392280e+00	1.96867370e+00 1.02239541e-01 5.00000000e-01	5779
57              	1.00391276e+00	1.96867370e+00 1.02239541e-01 5.00000000e-01	5779
58              	1.00390501e+00	1.96867370e+00 1.02239541e-01 5.00000000e-01	5779
59              	1.00390017e+00	1.96867370e+00 1.02239541e-01 5.00000000e-01	5779
60              	1.00389745e+00	1.96867370e+00 1.02239541e-01 5.00000000e-01	5779
61              	1.00389594e+00	1.96867370e+00 1.02239541e-01 5.00000000e-01	5779
62              	1.00389535e+00	1.96867370e+00 1.02239541e-01 5.00000000e-01	5779
63              	1.00389555e+00	1.96867370e+00 1.02239541e-01 5.00000000e-01	5779
64              	1.00389645e+00	1.96867370e+00 1.02239541e-01 5.00000000e-01	5779
65              	1.00389737e+00	1.96867370e+00 1.02239541e-01 5.00000000e-01	5779
66              	1.00389796e+00	1.96867370e+00 1.02239541e-01 5.00000000e-01	5779
67              	1.00389646e+00	1.96867370e+00 1.02239541e-01 5.00000000e-01	5779
68              	1.00389609e+00	1.96867370e+00 1.02239541e-01 5.00000000e-01	5779
69              	1.00389601e+00	1.96867370e+00 1.02239541e-01 5.00000000e-01	5779
70              	1.00389551e+00	1.96867370e+00 1.02239541e-01 5.00000000e-01	5779
71              	1.00389202e+00	1.96867370e+00 1.02239541e-01 5.00000000e-01	5779
72              	1.00388604e+00	1.96867370e+00 1.02239541e-01 5.00000000e-01	5779
73              	1.00388039e+00	1.96867370e+00 1.02239541e-01 5.00000000e-01	5779
74              	1.00387691e+00	1.96867370e+00 1.02239541e-01 5.00000000e-01	5779
75              	1.00387584e+00	1.96867370e+00 1.02239541e-01 5.00000000e-01	5779
76              	1.00387646e+00	1.96867370e+00 1.02239541e-01 5.00000000e-01	5779
77              	1.00387789e+00	1.96867370e+00 1.02239541e-01 5.00000000e-01	5779
78              	1.00387994e+00	1.96867370e+00 1.02239541e-01 5.00000000e-01	5779
79              	1.00388252e+00	1.96867370e+00 1.02239541e-01 5.00000000e-01	5779
80              	1.00388558e+00	1.96867370e+00 1.02239541e-01 5.00000000e-01	5779
81              	1.00388824e+00	1.96867370e+00 1.02239541e-01 5.00000000e-01	5779
82              	1.00389029e+00	1.96867370e+00 1.02239541e-01 5.00000000e-01	5779
83              	1.00389006e+00	1.96867370e+00 1.02239541e-01 5.00000000e-01	5779
84              	1.00389110e+00	1.96867370e+00 1.02239541e-01 5.00000000e-01	5779
85              	1.00389222e+00	1.96867370e+00 1.02239541e-01 5.00000000e-01	5779
86              	1.00389207e+00	1.96867370e+00 1.02239541e-01 5.00000000e-01	5779
87              	1.00388869e+00	1.96867370e+00 1.02239541e-01 5.00000000e-01	5779
88              	1.00388326e+00	1.96867370e+00 1.02239541e-01 5.00000000e-01	5779
89              	1.00387851e+00	1.96867370e+00 1.02239541e-01 5.00000000e-01	5779
90              	1.00387601e+00	1.96867370e+00 1.02239541e-01 5.00000000e-01	5779
91              	1.00387566e+00	1.96867370e+00 1.02239541e-01 5.00000000e-01	5779
92              	1.00387671e+00	1.96867370e+00 1.02239541e-01 5.00000000e-01	5779
93              	1.00387839e+00	1.96867370e+00 1.02239541e-01 5.00000000e-01	5779
94              	1.00388074e+00	1.96867370e+00 1.02239541e-01 5.00000000e-01	5779
95              	1.00388350e+00	1.96867370e+00 1.02239541e-01 5.00000000e-01	5779
96              	1.00388661e+00	1.96867370e+00 1.02239541e-01 5.00000000e-01	5779
97              	1.00388916e+00	1.96867370e+00 1.02239541e-01 5.00000000e-01	5779
98              	1.00389073e+00	1.96867370e+00 1.02239541e-01 5.00000000e-01	5779
99              	1.00389063e+00	1.96867370e+00 1.02239541e-01 5.00000000e-01	5779
100             	1.00389158e+00	1.96867370e+00 1.02239541e-01 5.00000000e-01	5779
101             	1.00389275e+00	1.96867370e+00 1.02239541e-01 5.00000000e-01	5779
102             	1.00389183e+00	1.96867370e+00 1.02239541e-01 5.00000000e-01	5779
103             	1.00388778e+00	1.96867370e+00 1.02239541e-01 5.00000000e-01	5779
104             	1.00388238e+00	1.96867370e+00 1.02239541e-01 5.00000000e-01	5779
105             	1.00387806e+00	1.96867370e+00 1.02239541e-01 5.00000000e-01	5779
106             	1.00387605e+00	1.96867370e+00 1.02239541e-01 5.00000000e-01	5779
107             	1.00387611e+00	1.96867370e+00 1.02239541e-01 5.00000000e-01	5779
108             	1.00387729e+00	1.96867370e+00 1.02239541e-01 5.00000000e-01	5779
109             	1.00387917e+00	1.96867370e+00 1.02239541e-01 5.00000000e-01	5779
110             	1.00388165e+00	1.96867370e+00 1.02239541e-01 5.00000000e-01	5779
111             	1.00388457e+00	1.96867370e+00 1.02239541e-01 5.00000000e-01	5779
112             	1.00388758e+00	1.96867370e+00 1.02239541e-01 5.00000000e-01	5779
113             	1.00389014e+00	1.96867370e+00 1.02239541e-01 5.00000000e-01	5779
114             	1.00389093e+00	1.96867370e+00 1.02239541e-01 5.00000000e-01	5779
115             	1.00389136e+00	1.96867370e+00 1.02239541e-01 5.00000000e-01	5779
116             	1.00389198e+00	1.96867370e+00 1.02239541e-01 5.00000000e-01	5779
117             	1.00389294e+00	1.96867370e+00 1.02239541e-01 5.00000000e-01	5779
118             	1.00389121e+00	1.96867370e+00 1.02239541e-01 5.00000000e-01	5779
119             	1.00388646e+00	1.96867370e+00 1.02239541e-01 5.00000000e-01	5779
120             	1.00388102e+00	1.96867370e+00 1.02239541e-01 5.00000000e-01	5779
121             	1.00387717e+00	1.96867370e+00 1.02239541e-01 5.00000000e-01	5779
122             	1.00387573e+00	1.96867370e+00 1.02239541e-01 5.00000000e-01	5779
123             	1.00387627e+00	1.96867370e+00 1.02239541e-01 5.00000000e-01	5779
124             	1.00387766e+00	1.96867370e+00 1.02239541e-01 5.00000000e-01	5779
125             	1.00387963e+00	1.96867370e+00 1.02239541e-01 5.00000000e-01	5779
126             	1.00388214e+00	1.96867370e+00 1.02239541e-01 5.00000000e-01	5779
127             	1.00388526e+00	1.96867370e+00 1.02239541e-01 5.00000000e-01	5779
128             	1.00388824e+00	1.96867370e+00 1.02239541e-01 5.00000000e-01	5779
129             	1.00389071e+00	1.96867370e+00 1.02239541e-01 5.00000000e-01	5779
130             	1.00389090e+00	1.96867370e+00 1.02239541e-01 5.00000000e-01	5779
131             	1.00389172e+00	1.96867370e+00 1.02239541e-01 5.00000000e-01	5779
132             	1.00389259e+00	1.96867370e+00 1.02239541e-01 5.00000000e-01	5779
133             	1.00389315e+00	1.96867370e+00 1.02239541e-01 5.00000000e-01	5779
134             	1.00389065e+00	1.96867370e+00 1.02239541e-01 5.00000000e-01	5779
135             	1.00388545e+00	1.96867370e+00 1.02239541e-01 5.00000000e-01	5779
136             	1.00388025e+00	1.96867370e+00 1.02239541e-01 5.00000000e-01	5779
137             	1.00387698e+00	1.96867370e+00 1.02239541e-01 5.00000000e-01	5779
138             	1.00387601e+00	1.96867370e+00 1.02239541e-01 5.00000000e-01	5779
139             	1.00387670e+00	1.96867370e+00 1.02239541e-01 5.00000000e-01	5779
140             	1.00387818e+00	1.96867370e+00 1.02239541e-01 5.00000000e-01	5779
141             	1.00388026e+00	1.96867370e+00 1.02239541e-01 5.00000000e-01	5779
142             	1.00388283e+00	1.96867370e+00 1.02239541e-01 5.00000000e-01	5779
143             	1.00388590e+00	1.96867370e+00 1.02239541e-01 5.00000000e-01	5779
144             	1.00388863e+00	1.96867370e+00 1.02239541e-01 5.00000000e-01	5779
145             	1.00389080e+00	1.96867370e+00 1.02239541e-01 5.00000000e-01	5779
146             	1.00389063e+00	1.96867370e+00 1.02239541e-01 5.00000000e-01	5779
147             	1.00389166e+00	1.96867370e+00 1.02239541e-01 5.00000000e-01	5779
148             	1.00389274e+00	1.96867370e+00 1.02239541e-01 5.00000000e-01	5779
149             	1.00389276e+00	1.96867370e+00 1.02239541e-01 5.00000000e-01	5779
150             	1.00388956e+00	1.96867370e+00 1.02239541e-01 5.00000000e-01	5779
151             	1.00388420e+00	1.96867370e+00 1.02239541e-01 5.00000000e-01	5779
152             	1.00387939e+00	1.96867370e+00 1.02239541e-01 5.00000000e-01	5779
153             	1.00387672e+00	1.96867370e+00 1.02239541e-01 5.00000000e-01	5779
154             	1.00387618e+00	1.96867370e+00 1.02239541e-01 5.00000000e-01	5779
155             	1.00387711e+00	1.96867370e+00 1.02239541e-01 5.00000000e-01	5779
156             	1.00387869e+00	1.96867370e+00 1.02239541e-01 5.00000000e-01	5779
157             	1.00388097e+00	1.96867370e+00 1.02239541e-01 5.00000000e-01	5779
158             	1.00388368e+00	1.96867370e+00 1.02239541e-01 5.00000000e-01	5779
159             	1.00388676e+00	1.96867370e+00 1.02239541e-01 5.00000000e-01	5779
160             	1.00388929e+00	1.96867370e+00 1.02239541e-01 5.00000000e-01	5779
161             	1.00389093e+00	1.96867370e+00 1.02239541e-01 5.00000000e-01	5779
162             	1.00389077e+00	1.96867370e+00 1.02239541e-01 5.00000000e-01	5779
163             	1.00389176e+00	1.96867370e+00 1.02239541e-01 5.00000000e-01	5779
164             	1.00389293e+00	1.96867370e+00 1.02239541e-01 5.00000000e-01	5779
165             	1.00389213e+00	1.96867370e+00 1.02239541e-01 5.00000000e-01	5779
166             	1.00388817e+00	1.96867370e+00 1.02239541e-01 5.00000000e-01	5779
167             	1.00388278e+00	1.96867370e+00 1.02239541e-01 5.00000000e-01	5779
168             	1.00387841e+00	1.96867370e+00 1.02239541e-01 5.00000000e-01	5779
169             	1.00387632e+00	1.96867370e+00 1.02239541e-01 5.00000000e-01	5779
170             	1.00387628e+00	1.96867370e+00 1.02239541e-01 5.00000000e-01	5779
171             	1.00387739e+00	1.96867370e+00 1.02239541e-01 5.00000000e-01	5779
172             	1.00387920e+00	1.96867370e+00 1.02239541e-01 5.00000000e-01	5779
173             	1.00388163e+00	1.96867370e+00 1.02239541e-01 5.00000000e-01	5779
174             	1.00388451e+00	1.96867370e+00 1.02239541e-01 5.00000000e-01	5779
175             	1.00388750e+00	1.96867370e+00 1.02239541e-01 5.00000000e-01	5779
176             	1.00389003e+00	1.96867370e+00 1.02239541e-01 5.00000000e-01	5779
177             	1.00389091e+00	1.96867370e+00 1.02239541e-01 5.00000000e-01	5779
178             	1.00389127e+00	1.96867370e+00 1.02239541e-01 5.00000000e-01	5779
179             	1.00389189e+00	1.96867370e+00 1.02239541e-01 5.00000000e-01	5779
180             	1.00389290e+00	1.96867370e+00 1.02239541e-01 5.00000000e-01	5779
181             	1.00389127e+00	1.96867370e+00 1.02239541e-01 5.00000000e-01	5779
182             	1.00388659e+00	1.96867370e+00 1.02239541e-01 5.00000000e-01	5779
183             	1.00388114e+00	1.96867370e+00 1.02239541e-01 5.00000000e-01	5779
184             	1.00387724e+00	1.96867370e+00 1.02239541e-01 5.00000000e-01	5779
185             	1.00387577e+00	1.96867370e+00 1.02239541e-01 5.00000000e-01	5779
186             	1.00387625e+00	1.96867370e+00 1.02239541e-01 5.00000000e-01	5779
187             	1.00387762e+00	1.96867370e+00 1.02239541e-01 5.00000000e-01	5779
188             	1.00387959e+00	1.96867370e+00 1.02239541e-01 5.00000000e-01	5779
189             	1.00388208e+00	1.96867370e+00 1.02239541e-01 5.00000000e-01	5779
190             	1.00388517e+00	1.96867370e+00 1.02239541e-01 5.00000000e-01	5779
191             	1.00388817e+00	1.96867370e+00 1.02239541e-01 5.00000000e-01	5779
192             	1.00389066e+00	1.96867370e+00 1.02239541e-01 5.00000000e-01	5779
193             	1.00389092e+00	1.96867370e+00 1.02239541e-01 5.00000000e-01	5779
194             	1.00389169e+00	1.96867370e+00 1.02239541e-01 5.00000000e-01	5779
195             	1.00389252e+00	1.96867370e+00 1.02239541e-01 5.00000000e-01	5779
196             	1.00389315e+00	1.96867370e+00 1.02239541e-01 5.00000000e-01	5779
197             	1.00389073e+00	1.96867370e+00 1.02239541e-01 5.00000000e-01	5779
198             	1.00388557e+00	1.96867370e+00 1.02239541e-01 5.00000000e-01	5779
199             	1.00388033e+00	1.96867370e+00 1.02239541e-01 5.00000000e-01	5779
200             	1.00387698e+00	1.96867370e+00 1.02239541e-01 5.00000000e-01	5779
201             	1.00387596e+00	1.96867370e+00 1.02239541e-01 5.00000000e-01	5779
202             	1.00387664e+00	1.96867370e+00 1.02239541e-01 5.00000000e-01	5779
203             	1.00387809e+00	1.96867370e+00 1.02239541e-01 5.00000000e-01	5779
204             	1.00388016e+00	1.96867370e+00 1.02239541e-01 5.00000000e-01	5779
205             	1.00388273e+00	1.96867370e+00 1.02239541e-01 5.00000000e-01	5779
206             	1.00388580e+00	1.96867370e+00 1.02239541e-01 5.00000000e-01	5779
207             	1.00388860e+00	1.96867370e+00 1.02239541e-01 5.00000000e-01	5779
208             	1.00389080e+00	1.96867370e+00 1.02239541e-01 5.00000000e-01	5779
209             	1.00389069e+00	1.96867370e+00 1.02239541e-01 5.00000000e-01	5779
210             	1.00389172e+00	1.96867370e+00 1.02239541e-01 5.00000000e-01	5779
211             	1.00389277e+00	1.96867370e+00 1.02239541e-01 5.00000000e-01	5779
212             	1.00389287e+00	1.96867370e+00 1.02239541e-01 5.00000000e-01	5779
213             	1.00388976e+00	1.96867370e+00 1.02239541e-01 5.00000000e-01	5779
214             	1.00388440e+00	1.96867370e+00 1.02239541e-01 5.00000000e-01	5779
215             	1.00387952e+00	1.96867370e+00 1.02239541e-01 5.00000000e-01	5779
216             	1.00387677e+00	1.96867370e+00 1.02239541e-01 5.00000000e-01	5779
217             	1.00387615e+00	1.96867370e+00 1.02239541e-01 5.00000000e-01	5779
218             	1.00387705e+00	1.96867370e+00 1.02239541e-01 5.00000000e-01	5779
219             	1.00387861e+00	1.96867370e+00 1.02239541e-01 5.00000000e-01	5779
220             	1.00388086e+00	1.96867370e+00 1.02239541e-01 5.00000000e-01	5779
221             	1.00388357e+00	1.96867370e+00 1.02239541e-01 5.00000000e-01	5779
222             	1.00388663e+00	1.96867370e+00 1.02239541e-01 5.00000000e-01	5779
223             	1.00388921e+00	1.96867370e+00 1.02239541e-01 5.00000000e-01	5779
224             	1.00389092e+00	1.96867370e+00 1.02239541e-01 5.00000000e-01	5779
225             	1.00389076e+00	1.96867370e+00 1.02239541e-01 5.00000000e-01	5779
226             	1.00389174e+00	1.96867370e+00 1.02239541e-01 5.00000000e-01	5779
227             	1.00389291e+00	1.96867370e+00 1.02239541e-01 5.00000000e-01	5779
228             	1.00389223e+00	1.96867370e+00 1.02239541e-01 5.00000000e-01	5779
229             	1.00388839e+00	1.96867370e+00 1.02239541e-01 5.00000000e-01	5779
230             	1.00388300e+00	1.96867370e+00 1.02239541e-01 5.00000000e-01	5779
231             	1.00387857e+00	1.96867370e+00 1.02239541e-01 5.00000000e-01	5779
232             	1.00387639e+00	1.96867370e+00 1.02239541e-01 5.00000000e-01	5779
233             	1.00387628e+00	1.96867370e+00 1.02239541e-01 5.00000000e-01	5779
234             	1.00387735e+00	1.96867370e+00 1.02239541e-01 5.00000000e-01	5779
235             	1.00387914e+00	1.96867370e+00 1.02239541e-01 5.00000000e-01	5779
236             	1.00388154e+00	1.96867370e+00 1.02239541e-01 5.00000000e-01	5779
237             	1.00388439e+00	1.96867370e+00 1.02239541e-01 5.00000000e-01	5779
238             	1.00388738e+00	1.96867370e+00 1.02239541e-01 5.00000000e-01	5779
239             	1.00388991e+00	1.96867370e+00 1.02239541e-01 5.00000000e-01	5779
240             	1.00389091e+00	1.96867370e+00 1.02239541e-01 5.00000000e-01	5779
241             	1.00389118e+00	1.96867370e+00 1.02239541e-01 5.00000000e-01	5779
242             	1.00389183e+00	1.96867370e+00 1.02239541e-01 5.00000000e-01	5779
243             	1.00389289e+00	1.96867370e+00 1.02239541e-01 5.00000000e-01	5779
244             	1.00389137e+00	1.96867370e+00 1.02239541e-01 5.00000000e-01	5779
245             	1.00388678e+00	1.96867370e+00 1.02239541e-01 5.00000000e-01	5779
246             	1.00388131e+00	1.96867370e+00 1.02239541e-01 5.00000000e-01	5779
247             	1.00387735e+00	1.96867370e+00 1.02239541e-01 5.00000000e-01	5779
248             	1.00387581e+00	1.96867370e+00 1.02239541e-01 5.00000000e-01	5779
249             	1.00387621e+00	1.96867370e+00 1.02239541e-01 5.00000000e-01	5779
250             	1.00387757e+00	1.96867370e+00 1.02239541e-01 5.00000000e-01	5779
251             	1.00387954e+00	1.96867370e+00 1.02239541e-01 5.00000000e-01	5779
252             	1.00388202e+00	1.96867370e+00 1.02239541e-01 5.00000000e-01	5779
253             	1.00388504e+00	1.96867370e+00 1.02239541e-01 5.00000000e-01	5779
254             	1.00388803e+00	1.96867370e+00 1.02239541e-01 5.00000000e-01	5779
255             	1.00389056e+00	1.96867370e+00 1.02239541e-01 5.00000000e-01	5779
256             	1.00389090e+00	1.96867370e+00 1.02239541e-01 5.00000000e-01	5779
257             	1.00389162e+00	1.96867370e+00 1.02239541e-01 5.00000000e-01	5779
258             	1.00389242e+00	1.96867370e+00 1.02239541e-01 5.00000000e-01	5779
259             	1.00389312e+00	1.96867370e+00 1.02239541e-01 5.00000000e-01	5779
260             	1.00389082e+00	1.96867370e+00 1.02239541e-01 5.00000000e-01	5779
261             	1.00388573e+00	1.96867370e+00 1.02239541e-01 5.00000000e-01	5779
262             	1.00388046e+00	1.96867370e+00 1.02239541e-01 5.00000000e-01	5779
263             	1.00387701e+00	1.96867370e+00 1.02239541e-01 5.00000000e-01	5779
264             	1.00387591e+00	1.96867370e+00 1.02239541e-01 5.00000000e-01	5779
265             	1.00387659e+00	1.96867370e+00 1.02239541e-01 5.00000000e-01	5779
266             	1.00387802e+00	1.96867370e+00 1.02239541e-01 5.00000000e-01	5779
267             	1.00388007e+00	1.96867370e+00 1.02239541e-01 5.00000000e-01	5779
268             	1.00388266e+00	1.96867370e+00 1.02239541e-01 5.00000000e-01	5779
269             	1.00388573e+00	1.96867370e+00 1.02239541e-01 5.00000000e-01	5779
270             	1.00388859e+00	1.96867370e+00 1.02239541e-01 5.00000000e-01	5779
271             	1.00389085e+00	1.96867370e+00 1.02239541e-01 5.00000000e-01	5779
272             	1.00389079e+00	1.96867370e+00 1.02239541e-01 5.00000000e-01	5779
273             	1.00389178e+00	1.96867370e+00 1.02239541e-01 5.00000000e-01	5779
274             	1.00389281e+00	1.96867370e+00 1.02239541e-01 5.00000000e-01	5779
275             	1.00389301e+00	1.96867370e+00 1.02239541e-01 5.00000000e-01	5779
276             	1.00389001e+00	1.96867370e+00 1.02239541e-01 5.00000000e-01	5779
277             	1.00388466e+00	1.96867370e+00 1.02239541e-01 5.00000000e-01	5779
278             	1.00387971e+00	1.96867370e+00 1.02239541e-01 5.00000000e-01	5779
279             	1.00387685e+00	1.96867370e+00 1.02239541e-01 5.00000000e-01	5779
280             	1.00387615e+00	1.96867370e+00 1.02239541e-01 5.00000000e-01	5779
281             	1.00387699e+00	1.96867370e+00 1.02239541e-01 5.00000000e-01	5779
282             	1.00387851e+00	1.96867370e+00 1.02239541e-01 5.00000000e-01	5779
283             	1.00388071e+00	1.96867370e+00 1.02239541e-01 5.00000000e-01	5779
284             	1.00388343e+00	1.96867370e+00 1.02239541e-01 5.00000000e-01	5779
285             	1.00388646e+00	1.96867370e+00 1.02239541e-01 5.00000000e-01	5779
286             	1.00388910e+00	1.96867370e+00 1.02239541e-01 5.00000000e-01	5779
287             	1.00389091e+00	1.96867370e+00 1.02239541e-01 5.00000000e-01	5779
288             	1.00389071e+00	1.96867370e+00 1.02239541e-01 5.00000000e-01	5779
289             	1.00389169e+00	1.96867370e+00 1.02239541e-01 5.00000000e-01	5779
290             	1.00389286e+00	1.96867370e+00 1.02239541e-01 5.00000000e-01	5779
291             	1.00389233e+00	1.96867370e+00 1.02239541e-01 5.00000000e-01	5779
292             	1.00388862e+00	1.96867370e+00 1.02239541e-01 5.00000000e-01	5779
293             	1.00388323e+00	1.96867370e+00 1.02239541e-01 5.00000000e-01	5779
294             	1.00387873e+00	1.96867370e+00 1.02239541e-01 5.00000000e-01	5779
295             	1.00387646e+00	1.96867370e+00 1.02239541e-01 5.00000000e-01	5779
296             	1.00387626e+00	1.96867370e+00 1.02239541e-01 5.00000000e-01	5779
297             	1.00387729e+00	1.96867370e+00 1.02239541e-01 5.00000000e-01	5779
298             	1.00387905e+00	1.96867370e+00 1.02239541e-01 5.00000000e-01	5779
299             	1.00388143e+00	1.96867370e+00 1.02239541e-01 5.00000000e-01	5779
300             	1.00388424e+00	1.96867370e+00 1.02239541e-01 5.00000000e-01	5779
301             	1.00388722e+00	1.96867370e+00 1.02239541e-01 5.00000000e-01	5779
302             	1.00388975e+00	1.96867370e+00 1.02239541e-01 5.00000000e-01	5779
303             	1.00389090e+00	1.96867370e+00 1.02239541e-01 5.00000000e-01	5779
304             	1.00389107e+00	1.96867370e+00 1.02239541e-01 5.00000000e-01	5779
305             	1.00389177e+00	1.96867370e+00 1.02239541e-01 5.00000000e-01	5779
306             	1.00389288e+00	1.96867370e+00 1.02239541e-01 5.00000000e-01	5779
307             	1.00389150e+00	1.96867370e+00 1.02239541e-01 5.00000000e-01	5779
308             	1.00388702e+00	1.96867370e+00 1.02239541e-01 5.00000000e-01	5779
309             	1.00388155e+00	1.96867370e+00 1.02239541e-01 5.00000000e-01	5779
310             	1.00387749e+00	1.96867370e+00 1.02239541e-01 5.00000000e-01	5779
311             	1.00387586e+00	1.96867370e+00 1.02239541e-01 5.00000000e-01	5779
312             	1.00387618e+00	1.96867370e+00 1.02239541e-01 5.00000000e-01	5779
313             	1.00387752e+00	1.96867370e+00 1.02239541e-01 5.00000000e-01	5779
314             	1.00387948e+00	1.96867370e+00 1.02239541e-01 5.00000000e-01	5779
315             	1.00388196e+00	1.96867370e+00 1.02239541e-01 5.00000000e-01	5779
316             	1.00388492e+00	1.96867370e+00 1.02239541e-01 5.00000000e-01	5779
317             	1.00388792e+00	1.96867370e+00 1.02239541e-01 5.00000000e-01	5779
318             	1.00389049e+00	1.96867370e+00 1.02239541e-01 5.00000000e-01	5779
319             	1.00389093e+00	1.96867370e+00 1.02239541e-01 5.00000000e-01	5779
320             	1.00389160e+00	1.96867370e+00 1.02239541e-01 5.00000000e-01	5779
321             	1.00389234e+00	1.96867370e+00 1.02239541e-01 5.00000000e-01	5779
322             	1.00389310e+00	1.96867370e+00 1.02239541e-01 5.00000000e-01	5779
323             	1.00389094e+00	1.96867370e+00 1.02239541e-01 5.00000000e-01	5779
324             	1.00388591e+00	1.96867370e+00 1.02239541e-01 5.00000000e-01	5779
325             	1.00388058e+00	1.96867370e+00 1.02239541e-01 5.00000000e-01	5779
326             	1.00387702e+00	1.96867370e+00 1.02239541e-01 5.00000000e-01	5779
327             	1.00387582e+00	1.96867370e+00 1.02239541e-01 5.00000000e-01	5779
328             	1.00387651e+00	1.96867370e+00 1.02239541e-01 5.00000000e-01	5779
329             	1.00387796e+00	1.96867370e+00 1.02239541e-01 5.00000000e-01	5779
330             	1.00387995e+00	1.96867370e+00 1.02239541e-01 5.00000000e-01	5779
331             	1.00388257e+00	1.96867370e+00 1.02239541e-01 5.00000000e-01	5779
332             	1.00388568e+00	1.96867370e+00 1.02239541e-01 5.00000000e-01	5779
333             	1.00388857e+00	1.96867370e+00 1.02239541e-01 5.00000000e-01	5779
334             	1.00389089e+00	1.96867370e+00 1.02239541e-01 5.00000000e-01	5779
335             	1.00389088e+00	1.96867370e+00 1.02239541e-01 5.00000000e-01	5779
336             	1.00389182e+00	1.96867370e+00 1.02239541e-01 5.00000000e-01	5779
337             	1.00389280e+00	1.96867370e+00 1.02239541e-01 5.00000000e-01	5779
338             	1.00389311e+00	1.96867370e+00 1.02239541e-01 5.00000000e-01	5779
339             	1.00389024e+00	1.96867370e+00 1.02239541e-01 5.00000000e-01	5779
340             	1.00388491e+00	1.96867370e+00 1.02239541e-01 5.00000000e-01	5779
341             	1.00387989e+00	1.96867370e+00 1.02239541e-01 5.00000000e-01	5779
342             	1.00387691e+00	1.96867370e+00 1.02239541e-01 5.00000000e-01	5779
343             	1.00387613e+00	1.96867370e+00 1.02239541e-01 5.00000000e-01	5779
344             	1.00387691e+00	1.96867370e+00 1.02239541e-01 5.00000000e-01	5779
345             	1.00387841e+00	1.96867370e+00 1.02239541e-01 5.00000000e-01	5779
346             	1.00388058e+00	1.96867370e+00 1.02239541e-01 5.00000000e-01	5779
347             	1.00388326e+00	1.96867370e+00 1.02239541e-01 5.00000000e-01	5779
348             	1.00388628e+00	1.96867370e+00 1.02239541e-01 5.00000000e-01	5779
349             	1.00388894e+00	1.96867370e+00 1.02239541e-01 5.00000000e-01	5779
350             	1.00389086e+00	1.96867370e+00 1.02239541e-01 5.00000000e-01	5779
351             	1.00389066e+00	1.96867370e+00 1.02239541e-01 5.00000000e-01	5779
352             	1.00389166e+00	1.96867370e+00 1.02239541e-01 5.00000000e-01	5779
353             	1.00389281e+00	1.96867370e+00 1.02239541e-01 5.00000000e-01	5779
354             	1.00389245e+00	1.96867370e+00 1.02239541e-01 5.00000000e-01	5779
355             	1.00388889e+00	1.96867370e+00 1.02239541e-01 5.00000000e-01	5779
356             	1.00388349e+00	1.96867370e+00 1.02239541e-01 5.00000000e-01	5779
357             	1.00387891e+00	1.96867370e+00 1.02239541e-01 5.00000000e-01	5779
358             	1.00387653e+00	1.96867370e+00 1.02239541e-01 5.00000000e-01	5779
359             	1.00387622e+00	1.96867370e+00 1.02239541e-01 5.00000000e-01	5779
360             	1.00387721e+00	1.96867370e+00 1.02239541e-01 5.00000000e-01	5779
361             	1.00387893e+00	1.96867370e+00 1.02239541e-01 5.00000000e-01	5779
362             	1.00388129e+00	1.96867370e+00 1.02239541e-01 5.00000000e-01	5779
363             	1.00388404e+00	1.96867370e+00 1.02239541e-01 5.00000000e-01	5779