#      distance             U_x             U_y             U_z wallShearStr... wallShearStr... wallShearStr...               p         epsilon               k             nut
  3.0219182e-06      0.04923598   5.1079421e-13  -1.7271012e-25               0               0               0    3.094514e-06       3.6770733   0.00018607884    1.706228e-09
  5.0865428e-06     0.082116716   1.3541286e-12  -6.9958216e-26               0               0               0    3.094514e-06       2.8307727   0.00040510638   6.2913055e-09
  7.2269684e-06      0.11484899   2.7857247e-12  -1.6140606e-25               0               0               0   3.0945141e-06       2.9132944   0.00067309135   1.4746701e-08
  9.4750924e-06      0.14723817   5.0112504e-12   -2.420832e-25               0               0               0   3.0945141e-06        3.262113   0.00096675207    2.623268e-08
  1.1864417e-05      0.17923307   8.3681853e-12  -9.1378098e-26               0               0               0   3.0945141e-06       3.6697433    0.0012641842   3.9494595e-08
  1.4430548e-05      0.21089623   1.3385286e-11   3.0067277e-25               0               0               0   3.0945142e-06       4.0335587    0.0015480812   5.3724692e-08
  1.7211727e-05      0.24232199   2.0881928e-11    4.723594e-25               0               0               0   3.0945142e-06       4.2989164    0.0018060944   6.8547031e-08
  2.0249401e-05       0.2735879   3.2114226e-11   1.2957727e-25               0               0               0   3.0945143e-06       4.4397913    0.0020297452   8.3811909e-08
  2.3588836e-05      0.30473841    4.899487e-11   -6.281681e-26               0               0               0   3.0945144e-06       4.4495606    0.0022134544   9.9467712e-08
  2.7279799e-05      0.33578357   7.4420885e-11  -3.1408405e-26               0               0               0   3.0945144e-06       4.3354823    0.0023539638   1.1549999e-07
  3.1377293e-05      0.36670325   1.1275783e-10               0               0               0               0   3.0945145e-06       4.1145267    0.0024500152   1.3190388e-07
  3.5942381e-05      0.39745301   1.7054907e-10   2.7301668e-25               0               0               0   3.0945145e-06        3.809714    0.0025021279   1.4867148e-07
  4.1043091e-05      0.42797013   2.5754604e-10   4.0948121e-25               0               0               0   3.0945146e-06       3.4467843    0.0025123798   1.6578605e-07
  4.6755437e-05      0.45817925   3.8819208e-10   5.3142959e-25               0               0               0   3.0945145e-06       3.0513181    0.0024841513   1.8321917e-07
  5.3164546e-05      0.48799738   5.8374067e-10   5.9238421e-25               0               0               0   3.0945144e-06       2.6464836    0.0024218275   2.0092938e-07
  6.0365928e-05       0.5173383   8.7525209e-10  -1.0936901e-24               0               0               0    3.094514e-06       2.2515309    0.0023304778   2.1886138e-07
    6.84669e-05       0.5461162   1.3077919e-09  -2.1592518e-24               0               0               0   3.0945133e-06       1.8810412    0.0022155358   2.3694584e-07
  7.7588184e-05       0.5742486   1.9462547e-09  -1.0261034e-24               0               0               0    3.094512e-06       1.5448382    0.0020825048    2.550994e-07
   8.786571e-05      0.60165875   2.8833559e-09   7.8364883e-25               0               0               0   3.0945099e-06       1.2483968    0.0019367061   2.7322498e-07
  9.9452634e-05      0.62827725   4.2504763e-09   2.6553095e-24               0               0               0   3.0945064e-06      0.99356358    0.0017830815   2.9121235e-07
  0.00011252163      0.65404325   6.2321975e-09  -1.2727068e-25               0               0               0   3.0945008e-06      0.77941307    0.0016260522    3.089388e-07
  0.00012726745      0.67890515   9.0855319e-09  -2.7284301e-24               0               0               0   3.0944924e-06      0.60310261    0.0014694326   3.2626992e-07
  0.00014390985       0.7028209   1.3164999e-08  -8.8745964e-25               0               0               0     3.09448e-06      0.46063348    0.0013163914   3.4306025e-07
  0.00016269684      0.72575805   1.8954818e-08   6.7823036e-25               0               0               0   3.0944619e-06      0.34746958    0.0011694529   3.5915367e-07
  0.00018390838      0.74769348   2.7109508e-08   8.9159046e-24               0               0               0   3.0944361e-06      0.25899924     0.001030527   3.7438344e-07
  0.00020786057      0.76861307   3.8504095e-08   1.2016183e-23               0               0               0      3.0944e-06      0.19084966   0.00090096097   3.8857145e-07
  0.00023491035      0.78851115   5.4294771e-08   3.7785092e-24               0               0               0   3.0943505e-06       0.1390763   0.00078160441    4.015266e-07
  0.00026546084      0.80738994   7.5990219e-08               0               0               0               0   3.0942836e-06      0.10025522   0.00067288001   4.1304181e-07
   0.0002999673      0.82525891   1.0553266e-07               0               0               0               0   3.0941948e-06     0.071505422   0.00057485632   4.2288931e-07
  0.00033894396      0.84213417   1.4538601e-07   -3.867432e-24               0               0               0   3.0940786e-06     0.050465219   0.00048731791   4.3081365e-07
  0.00038297165      0.85803777   1.9862569e-07   -7.734864e-24               0               0               0   3.0939287e-06     0.035241744   0.00040983076     4.36522e-07
  0.00043270649      0.87299709   2.6902096e-07   3.7082257e-23               0               0               0    3.093738e-06     0.024347687   0.00034180122   4.3967144e-07
  0.00048888965      0.88704418   3.6109425e-07   6.3455874e-23               0               0               0   3.0934984e-06      0.01663502   0.00028252784   4.3985351e-07
  0.00055235838      0.90021508   4.8013527e-07   2.2506185e-23               0               0               0    3.093201e-06     0.011231867   0.00023124604   4.3657754e-07
   0.0006240585      0.91254901   6.3213279e-07               0               0               0               0   3.0928355e-06    0.0074859293   0.00018716616   4.2925679e-07
  0.00070505852      0.92408724   8.2357543e-07   1.0111892e-23               0               0               0   3.0923907e-06    0.0049160027   0.00014950584   4.1720613e-07
  0.00079656552      0.93487142   1.0610783e-06   2.0223785e-23               0               0               0   3.0918554e-06    0.0031718236   0.00011751832   3.9966754e-07
  0.00089994316      0.94494062   1.3508371e-06   1.0111892e-23               0               0               0   3.0912213e-06    0.0020017464   9.0518502e-05   3.7589105e-07
    0.001016732      0.95432609    1.698084e-06               0               0               0               0   3.0904896e-06    0.0012273202   6.7908721e-05   3.4531238e-07
   0.0011486725       0.9630421   2.1070757e-06   1.1561939e-22               0               0               0   3.0896808e-06   0.00072365052   4.9204192e-05   3.0787884e-07
   0.0012977308       0.9710707   2.5824345e-06  -1.0579413e-22               0               0               0   3.0888443e-06   0.00040436868   3.4051939e-05   2.6455761e-07
   0.0014661282      0.97834034   3.1315882e-06  -3.8737002e-22               0               0               0   3.0880562e-06   0.00021006003   2.2222265e-05   2.1795906e-07
   0.0016563743      0.98470724   3.7631409e-06  -2.1825713e-22               0               0               0   3.0873892e-06   9.9275756e-05   1.3536181e-05   1.7275103e-07
   0.0018713042       0.9899687   4.4701794e-06  -7.8202335e-23               0               0               0   3.0868608e-06   4.1975562e-05   7.7163018e-06   1.3528661e-07
   0.0021141207      0.99394709   5.2018294e-06  -2.5901695e-23               0               0               0   3.0864011e-06   1.5915564e-05    4.252242e-06   1.1219086e-07
   0.0023884425      0.99662817   5.8592546e-06  -3.0856315e-24               0               0               0   3.0858602e-06   5.6594445e-06   2.4395925e-06   1.0802354e-07
   0.0026983575      0.99823044   6.3563453e-06    2.148149e-22               0               0               0   3.0850526e-06   2.1313462e-06   1.5945677e-06   1.2069342e-07
   0.0030484842      0.99910654   6.6825562e-06  -1.1668005e-22               0               0               0   3.0838567e-06   1.0373916e-06   1.2342898e-06   1.3855384e-07
   0.0034440402      0.99957401   6.8821087e-06   -5.570283e-22               0               0               0   3.0822795e-06   7.2102713e-07   1.0905726e-06   1.4963777e-07
   0.0038909203      0.99983585   7.0050689e-06  -2.2244771e-22               0               0               0    3.080405e-06    6.320182e-07   1.0347391e-06   1.5259871e-07
    0.004395784       0.9999977   7.0895319e-06               0               0               0               0   3.0783052e-06    6.050104e-07   1.0114431e-06   1.5221833e-07
   0.0049661549       1.0001059   7.1575533e-06  -4.1401621e-22               0               0               0   3.0759953e-06   5.9434475e-07   9.9979921e-07   1.5139463e-07
   0.0056105328       1.0001765   7.2163326e-06  -6.2095793e-22               0               0               0   3.0734474e-06   5.8855517e-07   9.9286477e-07   1.5076906e-07
   0.0063385204       1.0002167   7.2661319e-06    1.635445e-22               0               0               0   3.0706329e-06   5.8486854e-07   9.8837945e-07   1.5035112e-07
   0.0071609664       1.0002348   7.3076174e-06    5.556699e-22               0               0               0    3.067548e-06   5.8238475e-07   9.8536948e-07   1.5007378e-07
   0.0080901272       1.0002407   7.3433597e-06   4.9517879e-22               0               0               0    3.064205e-06    5.806239e-07   9.8325087e-07   1.4988213e-07
   0.0091398493       1.0002424    7.375734e-06   4.6494297e-22               0               0               0   3.0606268e-06   5.7931489e-07   9.8168373e-07   1.4974221e-07
    0.010325776       1.0002442   7.4063658e-06   1.5494785e-22               0               0               0   3.0568714e-06   5.7831638e-07   9.8049069e-07   1.4963629e-07
     0.01166558       1.0002473   7.4389563e-06               0               0               0               0   3.0530442e-06   5.7754578e-07   9.7957115e-07   1.4955497e-07
    0.013179228       1.0002506   7.4790153e-06   7.2364282e-23               0               0               0   3.0492668e-06   5.7694743e-07   9.7885829e-07   1.4949221e-07
    0.014889277       1.0002525   7.5286552e-06   1.0853484e-22               0               0               0   3.0456394e-06   5.7648166e-07   9.7830411e-07    1.494436e-07
    0.016821209        1.000253   7.5867602e-06   3.6170547e-23               0               0               0   3.0422742e-06   5.7611857e-07   9.7787246e-07   1.4940582e-07
    0.019003816        1.000253   7.6527202e-06               0               0               0               0   3.0393375e-06   5.7583525e-07   9.7753584e-07   1.4937642e-07
    0.021469624       1.0002529   7.7272203e-06               0               0               0               0   3.0370424e-06   5.7561394e-07   9.7727301e-07   1.4935349e-07
    0.024255377       1.0002528   7.8111541e-06               0               0               0               0   3.0356472e-06   5.7544089e-07   9.7706756e-07   1.4933558e-07
    0.027402591       1.0002527   7.9056792e-06               0               0               0               0    3.035461e-06   5.7530548e-07   9.7690686e-07   1.4932158e-07
    0.030958166       1.0002525   8.0120428e-06               0               0               0               0   3.0368502e-06   5.7519941e-07     9.76781e-07   1.4931063e-07
    0.034975088       1.0002523   8.1315026e-06               0               0               0               0   3.0402337e-06   5.7511629e-07   9.7668243e-07   1.4930207e-07
    0.039513219        1.000252   8.2657573e-06               0               0               0               0   3.0460514e-06    5.750511e-07   9.7660516e-07   1.4929536e-07
    0.044640187       1.0002517   8.4162238e-06               0               0               0               0   3.0546413e-06   5.7499994e-07   9.7654457e-07   1.4929012e-07
    0.050432395       1.0002513   8.5840526e-06               0               0               0               0   3.0661577e-06    5.749598e-07   9.7649707e-07   1.4928601e-07
    0.056976161        1.000251   8.7695806e-06               0               0               0               0   3.0805694e-06   5.7492823e-07   9.7645977e-07    1.492828e-07
    0.064369002       1.0002505   8.9765547e-06               0               0               0               0   3.0979434e-06   5.7490334e-07   9.7643041e-07   1.4928029e-07
    0.072721087       1.0002499   9.2049185e-06               0               0               0               0   3.1184897e-06   5.7488357e-07   9.7640719e-07   1.4927832e-07
    0.082156882        1.000249   9.4571857e-06               0               0               0               0   3.1425347e-06   5.7486776e-07   9.7638873e-07   1.4927678e-07
    0.092817002       1.0002479   9.7315966e-06               0               0               0               0   3.1702998e-06   5.7485493e-07   9.7637392e-07   1.4927558e-07
