/*--------------------------------*- C++ -*----------------------------------*\
  =========                 |
  \\      /  F ield         | OpenFOAM: The Open Source CFD Toolbox
   \\    /   O peration     | Website:  https://openfoam.org
    \\  /    A nd           | Version:  12
     \\/     M anipulation  |
\*---------------------------------------------------------------------------*/
FoamFile
{
    format      ascii;
    class       volScalarField;
    location    "1100";
    object      k;
}
// * * * * * * * * * * * * * * * * * * * * * * * * * * * * * * * * * * * * * //

dimensions      [0 2 -2 0 0 0 0];

internalField   nonuniform List<scalar> 
7480
(
0.000195279
0.00028325743
0.00041617349
0.00060369527
0.00085967723
0.0011979857
0.0016288701
0.0021550054
0.0027680446
0.003446245
0.0041551543
0.0048535631
0.0055002721
0.0060610052
0.0065128309
0.0068477508
0.0070605612
0.0072071549
0.0072020157
0.0071604575
0.0070696335
0.0069439611
0.0067969428
0.0066401279
0.0064831871
0.0063341671
0.0061996779
0.0060848326
0.0059931782
0.005926187
0.0058824845
0.0058576009
0.0058446047
0.0058358375
0.0058250774
0.0058089038
0.0057867404
0.0057598846
0.0057301703
0.0056989669
0.0056668689
0.0056339389
0.0056001509
0.005565684
0.0055309211
0.0054962685
0.0054619942
0.0054281962
0.0053948795
0.0053620387
0.005329683
0.0052978175
0.0052664435
0.0052355512
0.0052051265
0.0051751585
0.0051456382
0.0051165524
0.0050878872
0.0050596387
0.0050317953
0.0050043384
0.004977253
0.0049505286
0.0049241554
0.0048981257
0.0048724318
0.0048470647
0.0048220165
0.0047972792
0.0047728444
0.0047487045
0.0047248529
0.004701282
0.0046779847
0.0046549545
0.0046321855
0.0046096715
0.0045874067
0.0045653856
0.0045436025
0.0045220523
0.0045007295
0.0044796291
0.0044587459
0.004438075
0.0044176112
0.0043973494
0.0043772847
0.0043574103
0.0043377224
0.0043182095
0.004298875
0.0042796782
0.0042606735
0.0042416665
0.0042230085
0.0042035154
0.0041870437
0.0041566911
0.00014788621
0.0001505125
0.00015462242
0.00016057307
0.00016911488
0.00018148684
0.00019945811
0.00022528743
0.00026138465
0.0003102163
0.00037428974
0.00045424319
0.00054840624
0.00065329114
0.00076442806
0.00087776571
0.00098916035
0.0011011095
0.0012113926
0.0013274353
0.0014597065
0.0016288137
0.0018424672
0.0020805433
0.0023433733
0.0026344037
0.0029536298
0.0032974835
0.0036569191
0.004015337
0.0043506882
0.0046410589
0.004870068
0.0050330853
0.0051380545
0.0052003958
0.0052366886
0.0052597128
0.0052761148
0.0052874887
0.0052932395
0.0052930038
0.0052877046
0.0052791475
0.0052690158
0.0052582391
0.0052470036
0.0052351652
0.0052226542
0.0052095652
0.005196023
0.0051820884
0.0051677559
0.005153024
0.0051379215
0.0051224818
0.0051067225
0.0050906541
0.0050743038
0.0050577226
0.0050409033
0.0050238457
0.0050065665
0.0049890881
0.0049714335
0.0049536235
0.0049356751
0.0049176049
0.0048994282
0.0048811588
0.0048628105
0.0048443969
0.0048259289
0.0048074195
0.0047888809
0.0047703242
0.0047517593
0.0047331954
0.004714641
0.004696104
0.0046775919
0.0046591112
0.0046406682
0.0046222682
0.0046039164
0.0045856173
0.004567375
0.0045491932
0.0045310751
0.0045130224
0.0044950378
0.0044771246
0.0044592805
0.0044415111
0.0044237991
0.0044061684
0.0043885725
0.004370782
0.0043548695
0.0043267954
0.00014665712
0.00014693743
0.00014735198
0.00014788492
0.00014853417
0.00014930456
0.00015020278
0.0001512337
0.00015239374
0.00015367221
0.0001550727
0.00015660155
0.00015825342
0.00016001651
0.000161882
0.0001638556
0.00016595849
0.00016829396
0.000171012
0.00017444602
0.00017910328
0.00018628507
0.00019679551
0.00021657796
0.00024923152
0.00029792895
0.00036695782
0.00046149925
0.00058944268
0.00076287111
0.0010103385
0.001313454
0.0016590927
0.002031663
0.0024112154
0.0027746535
0.0030998645
0.0033715615
0.0035852361
0.0037465684
0.0038676591
0.0039619447
0.0040401301
0.0041082412
0.0041683575
0.0042206837
0.0042653896
0.0043033926
0.0043360501
0.0043645416
0.0043895563
0.004411423
0.0044303807
0.0044467122
0.0044607075
0.0044725982
0.0044825554
0.004490726
0.0044972452
0.0045022205
0.0045057769
0.0045080211
0.0045090479
0.0045089443
0.0045077895
0.0045056568
0.0045026132
0.0044987206
0.004494036
0.0044886123
0.0044824995
0.0044757451
0.0044683929
0.0044604848
0.0044520603
0.0044431567
0.0044338088
0.0044240491
0.0044139081
0.0044034144
0.0043925948
0.0043814742
0.004370076
0.004358422
0.0043465324
0.0043344263
0.0043221216
0.004309635
0.0042969819
0.0042841786
0.004271237
0.004258172
0.0042449885
0.0042317125
0.0042183172
0.0042048926
0.0041912872
0.0041776452
0.0041650323
0.0041430621
0.00014653128
0.00014657317
0.00014664719
0.00014674544
0.00014686077
0.00014698651
0.00014711581
0.00014724115
0.00014735368
0.00014744306
0.00014749903
0.00014751149
0.00014746946
0.00014736064
0.00014717246
0.0001468891
0.0001464961
0.00014598426
0.00014535084
0.00014459877
0.00014373326
0.00014278606
0.00014177349
0.00014080998
0.00014005507
0.00013977245
0.00014022957
0.00014180654
0.00014528199
0.0001516509
0.00016366179
0.00018402123
0.0002219896
0.00028559309
0.0003824737
0.0005205325
0.00071908582
0.00097842909
0.0012766747
0.0015951461
0.0019139246
0.0022128959
0.0024766002
0.0026980348
0.0028789399
0.003027077
0.0031519653
0.0032612288
0.0033590683
0.0034470225
0.0035256221
0.0035956097
0.0036581485
0.0037144279
0.003765318
0.0038113731
0.0038530188
0.0038906657
0.003924699
0.0039554364
0.0039831482
0.0040080753
0.0040304363
0.0040504269
0.0040682217
0.0040839785
0.0040978406
0.0041099384
0.0041203909
0.0041293075
0.00413679
0.0041429325
0.0041478227
0.004151542
0.0041541668
0.0041557683
0.0041564132
0.0041561638
0.0041550782
0.004153211
0.0041506129
0.0041473314
0.004143411
0.0041388932
0.0041338169
0.0041282185
0.0041221323
0.0041155904
0.0041086229
0.0041012591
0.0040935246
0.0040854472
0.0040770429
0.004068352
0.0040593531
0.0040501657
0.0040406037
0.0040310077
0.0040217761
0.0040056358
0.00014651013
0.00014650199
0.00014650532
0.00014651767
0.00014653581
0.00014655618
0.00014657509
0.00014658871
0.00014659299
0.00014658356
0.000146556
0.00014650593
0.000146429
0.00014632065
0.00014617653
0.0001459924
0.00014576263
0.00014548097
0.00014513934
0.00014473335
0.00014425991
0.00014371859
0.00014311009
0.00014244146
0.00014172834
0.00014099612
0.00014027126
0.00013958261
0.0001389613
0.00013846493
0.0001380967
0.00013823
0.0001388756
0.00014071298
0.00014447703
0.00015120022
0.0001634437
0.00018446094
0.00022400597
0.00029037101
0.0003913311
0.00053786992
0.00074099801
0.00098227236
0.0012457469
0.0015141043
0.0017704323
0.0020023232
0.0022044893
0.0023782598
0.0025289554
0.0026624756
0.002782944
0.0028923789
0.0029916765
0.0030816466
0.0031633381
0.0032378131
0.0033059071
0.003368226
0.0034252732
0.0034775164
0.0035253798
0.00356923
0.0036093852
0.0036461297
0.0036797199
0.0037103859
0.0037383351
0.0037637565
0.0037868231
0.0038076933
0.0038265131
0.0038434171
0.0038585297
0.0038719666
0.0038838356
0.0038942366
0.003903263
0.0039110015
0.0039175331
0.0039229332
0.0039272723
0.0039306161
0.0039330263
0.0039345604
0.0039352725
0.0039352133
0.0039344304
0.0039329693
0.0039308711
0.0039281783
0.003924921
0.0039211527
0.0039168646
0.0039121928
0.003906943
0.0039015919
0.0038959628
0.0038858673
0.0001465161
0.00014649204
0.00014647229
0.00014645678
0.00014644437
0.00014643326
0.00014642137
0.00014640658
0.00014638666
0.00014635932
0.00014632218
0.0001462729
0.00014620924
0.00014612888
0.00014602937
0.00014590774
0.00014576226
0.00014559063
0.00014538974
0.00014515653
0.00014488827
0.00014458265
0.00014423781
0.00014385258
0.00014342706
0.00014296314
0.00014246411
0.00014193346
0.00014137718
0.0001408168
0.00014025944
0.00013973652
0.00013926147
0.00013890197
0.00013862374
0.00013868961
0.00013903592
0.00013991674
0.00014182641
0.00014553296
0.00015205909
0.0001634302
0.00018290492
0.00021880305
0.00027926851
0.00037163925
0.00050898355
0.00068933696
0.00089962422
0.0011264573
0.0013550815
0.0015727219
0.0017715431
0.0019493421
0.0021081676
0.002251607
0.0023825711
0.002502657
0.0026127213
0.0027135622
0.0028061035
0.0028912275
0.0029696467
0.0030419355
0.0031086027
0.0031701142
0.003226885
0.0032792798
0.0033276246
0.0033722155
0.0034133202
0.0034511821
0.0034860232
0.0035180467
0.0035474396
0.0035743744
0.0035990106
0.003621496
0.0036419675
0.0036605523
0.0036773685
0.0036925261
0.0037061274
0.003718268
0.003729037
0.0037385177
0.0037467882
0.0037539217
0.0037599864
0.0037650474
0.0037691643
0.0037723968
0.0037747918
0.0037764172
0.0037772807
0.0037775318
0.0037769782
0.0037762142
0.0037744957
0.0037708624
0.00014653029
0.00014650113
0.00014647275
0.00014644596
0.00014642077
0.00014639648
0.00014637197
0.00014634601
0.00014631724
0.00014628426
0.00014624559
0.00014619978
0.0001461453
0.00014608074
0.00014600465
0.0001459154
0.00014581159
0.00014569183
0.00014555455
0.0001453981
0.00014522077
0.0001450209
0.00014479695
0.00014454751
0.00014427144
0.00014396807
0.00014363727
0.00014327936
0.00014289484
0.00014248744
0.00014206038
0.0001416202
0.00014116826
0.00014072063
0.00014028261
0.00013989026
0.00013955157
0.00013929562
0.00013913187
0.00013921299
0.00013954098
0.00014032444
0.00014177733
0.00014448044
0.00014933286
0.00015759614
0.00017176878
0.00019648608
0.00023970507
0.00030862353
0.00041284964
0.00055669102
0.00073057661
0.00092427113
0.0011256067
0.0013231757
0.0015091322
0.0016802354
0.0018369091
0.0019810444
0.0021142702
0.0022375232
0.0023514448
0.0024567365
0.0025541582
0.0026443978
0.0027280312
0.0028055644
0.0028774632
0.0029441522
0.0030060121
0.003063387
0.0031165906
0.0031659098
0.0032116068
0.003253923
0.0032930806
0.0033292849
0.0033627256
0.0033935785
0.0034220063
0.0034481605
0.0034721817
0.0034942009
0.0035143402
0.0035327136
0.0035494276
0.003564582
0.00357827
0.0035905795
0.003601592
0.0036113871
0.0036200317
0.00362761
0.0036341497
0.0036398133
0.0036444151
0.0036486668
0.0036512265
0.0036545984
0.00014654823
0.00014651763
0.00014648627
0.00014645487
0.00014642386
0.00014639319
0.00014636238
0.00014633076
0.00014629753
0.00014626179
0.00014622254
0.0001461788
0.0001461295
0.00014607364
0.00014601019
0.00014593809
0.0001458563
0.00014576384
0.00014565966
0.0001455427
0.00014541184
0.00014526596
0.00014510392
0.00014492459
0.00014472693
0.00014451002
0.00014427313
0.00014401577
0.00014373754
0.0001434388
0.00014312026
0.00014278373
0.00014243019
0.00014206334
0.00014168603
0.00014130639
0.00014093089
0.00014056749
0.00014022153
0.00013992125
0.00013968659
0.00013949397
0.00013949954
0.00013961947
0.00014001983
0.00014085839
0.00014235867
0.00014491457
0.00014937432
0.00015692108
0.0001696579
0.00019130147
0.00022891279
0.0002890745
0.0003811859
0.00050664173
0.00065933885
0.0008309661
0.0010112617
0.0011905178
0.0013619858
0.0015227792
0.001672764
0.0018127548
0.0019434289
0.0020652312
0.0021786282
0.0022841847
0.0023824732
0.0024740072
0.0025592503
0.0026386368
0.0027125702
0.0027814205
0.002845528
0.0029052072
0.0029607488
0.0030124211
0.0030604725
0.0031051335
0.0031466174
0.0031851227
0.003220834
0.0032539228
0.0032845493
0.0033128628
0.0033390028
0.0033630996
0.0033852752
0.0034056443
0.0034243135
0.0034413856
0.0034569502
0.0034711105
0.003483917
0.0034955472
0.0035058232
0.0035155825
0.0035228373
0.0035338508
0.00014656912
0.00014653814
0.00014650594
0.00014647289
0.00014643943
0.0001464057
0.0001463716
0.00014633684
0.00014630098
0.00014626347
0.00014622366
0.00014618085
0.0001461343
0.00014608324
0.00014602692
0.00014596454
0.00014589535
0.00014581857
0.00014573343
0.00014563915
0.00014553494
0.00014541998
0.00014529342
0.00014515441
0.0001450021
0.00014483568
0.00014465439
0.00014445759
0.00014424467
0.00014401527
0.00014376921
0.00014350677
0.00014322822
0.00014293452
0.00014262674
0.00014230729
0.00014197915
0.00014164596
0.00014131036
0.00014097933
0.00014066208
0.0001403545
0.00014009207
0.00013987181
0.00013971524
0.00013965033
0.00013972208
0.00013997193
0.00014053184
0.00014156396
0.00014331388
0.00014617184
0.00015102172
0.0001591019
0.00017259724
0.00019549086
0.00023397564
0.00029458001
0.00038542169
0.00050404515
0.00064618079
0.00080442904
0.00096968882
0.0011339517
0.0012922008
0.0014424312
0.0015843252
0.0017180119
0.0018436343
0.001961414
0.0020717065
0.0021749292
0.002271492
0.0023617882
0.0024461992
0.0025250897
0.0025988026
0.0026676599
0.0027319636
0.0027919958
0.0028480203
0.0029002834
0.0029490152
0.0029944306
0.0030367304
0.0030761023
0.003112722
0.0031467537
0.0031783513
0.0032076594
0.0032348127
0.0032599401
0.0032831569
0.003304588
0.0033243089
0.0033425148
0.003359036
0.0033748477
0.0033872585
0.0034066284
0.00014659287
0.00014656177
0.00014652941
0.00014649594
0.00014646162
0.00014642662
0.00014639094
0.00014635451
0.00014631711
0.00014627844
0.00014623808
0.00014619556
0.00014615037
0.00014610194
0.00014604969
0.00014599304
0.00014593137
0.0001458641
0.00014579061
0.00014571028
0.00014562252
0.00014552669
0.00014542214
0.00014530821
0.0001451842
0.00014504946
0.00014490331
0.00014474514
0.00014457436
0.00014439043
0.00014419293
0.00014398162
0.00014375633
0.00014351716
0.00014326435
0.0001429986
0.00014272105
0.00014243333
0.00014213696
0.00014183434
0.00014152973
0.00014122336
0.00014092427
0.00014063705
0.00014036713
0.00014012508
0.0001399249
0.00013977895
0.00013970423
0.00013975793
0.00013996054
0.00014039985
0.00014121
0.00014258171
0.00014481065
0.00014842892
0.00015441403
0.00016426053
0.00018045265
0.00020795067
0.00025214314
0.00032088123
0.00041540425
0.00053414809
0.00067232092
0.00082236094
0.00097637443
0.0011284456
0.0012753781
0.0014158904
0.001549511
0.0016760296
0.0017954223
0.0019078465
0.0020135629
0.0021128687
0.0022060755
0.0022935026
0.0023754664
0.0024522736
0.0025242192
0.0025915845
0.0026546367
0.0027136284
0.0027687979
0.0028203699
0.0028685557
0.0029135543
0.0029555523
0.0029947258
0.0030312395
0.0030652504
0.0030969014
0.0031263411
0.0031536723
0.0031791106
0.0032024938
0.0032249489
0.0032430169
0.0032715269
0.00014661945
0.00014658829
0.00014655595
0.00014652248
0.000146488
0.0001464526
0.00014641632
0.00014637914
0.00014634095
0.0001463016
0.00014626084
0.00014621836
0.0001461738
0.00014612678
0.00014607687
0.0001460236
0.00014596653
0.00014590518
0.00014583906
0.00014576767
0.00014569054
0.00014560715
0.00014551698
0.00014541949
0.00014531414
0.00014520036
0.0001450776
0.0001449453
0.00014480294
0.00014464999
0.00014448597
0.00014431048
0.00014412318
0.00014392383
0.00014371231
0.00014348866
0.00014325318
0.00014300649
0.0001427493
0.00014248262
0.00014220833
0.00014192732
0.00014164255
0.00014135707
0.00014107374
0.00014079664
0.00014053145
0.00014028397
0.00014006042
0.00013987858
0.00013974926
0.0001396846
0.00013973394
0.00013991981
0.00014032632
0.00014104733
0.00014224936
0.00014419869
0.00014725837
0.00015224998
0.00016034879
0.00017361052
0.00019560891
0.00023118082
0.0002869836
0.00036601289
0.00046835304
0.00059105699
0.00072796347
0.00087180362
0.0010165625
0.0011585159
0.0012957739
0.0014273922
0.0015528528
0.0016719226
0.0017845906
0.0018909797
0.0019912822
0.0020857315
0.0021745852
0.002258111
0.002336578
0.0024102515
0.0024793896
0.0025442411
0.0026050443
0.0026620265
0.0027154038
0.0027653811
0.002812152
0.0028559012
0.0028967994
0.0029350201
0.0029706937
0.0030040586
0.0030349584
0.0030646865
0.0030889477
0.0031274425
0.00014664874
0.00014661757
0.00014658531
0.00014655196
0.00014651756
0.00014648217
0.00014644578
0.00014640838
0.00014636992
0.00014633028
0.00014628932
0.00014624685
0.00014620263
0.00014615638
0.0001461078
0.00014605656
0.00014600232
0.0001459447
0.00014588331
0.00014581777
0.00014574767
0.0001456726
0.00014559213
0.00014550582
0.00014541321
0.00014531384
0.00014520723
0.00014509291
0.00014497041
0.00014483926
0.00014469901
0.00014454921
0.00014438948
0.00014421946
0.00014403885
0.00014384745
0.00014364517
0.00014343211
0.00014320848
0.00014297467
0.00014273145
0.00014247945
0.00014221988
0.00014195432
0.00014168447
0.00014141235
0.00014114068
0.00014087258
0.00014061097
0.00014036199
0.0001401324
0.00013992757
0.00013976332
0.00013964897
0.00013960666
0.00013966261
0.00013985849
0.00014027617
0.00014098112
0.00014213562
0.00014397815
0.00014686612
0.00015146404
0.0001588247
0.00017073314
0.00019018966
0.00022150617
0.00027063277
0.00034055494
0.00043249261
0.00054451053
0.00067140945
0.00080659952
0.00094437289
0.0010809329
0.0012141084
0.0013426633
0.0014658678
0.0015833385
0.0016949386
0.0018006848
0.0019006856
0.001995109
0.0020841595
0.0021680616
0.0022470496
0.0023213606
0.00239123
0.0024568878
0.0025185574
0.0025764536
0.0026307833
0.0026817416
0.0027295245
0.0027742885
0.0028162951
0.0028553909
0.0028930497
0.0029240665
0.0029734406
0.00014668058
0.00014664947
0.00014661732
0.00014658413
0.00014654991
0.00014651467
0.0001464784
0.00014644107
0.00014640262
0.00014636297
0.00014632203
0.00014627966
0.00014623568
0.00014618992
0.00014614215
0.00014609216
0.00014603967
0.00014598442
0.0001459261
0.00014586441
0.00014579902
0.00014572961
0.0001456558
0.00014557724
0.00014549354
0.00014540431
0.00014530915
0.00014520765
0.0001450994
0.00014498398
0.00014486099
0.00014473002
0.00014459066
0.00014444253
0.00014428528
0.0001441186
0.00014394223
0.00014375601
0.00014355987
0.00014335386
0.00014313822
0.00014291323
0.00014267939
0.00014243746
0.00014218839
0.00014193327
0.00014167354
0.00014141094
0.00014114717
0.00014088494
0.0001406278
0.00014037871
0.00014014388
0.00013992849
0.00013974209
0.00013959729
0.00013948629
0.00013949206
0.0001395691
0.00013979743
0.00014024377
0.00014099127
0.00014218727
0.00014406436
0.00014697625
0.00015154153
0.00015876683
0.00017034708
0.00018906574
0.00021894896
0.00026507356
0.00033048486
0.00041679017
0.00052231995
0.00064233112
0.00077083379
0.00090260798
0.001034053
0.0011629536
0.0012879514
0.0014082138
0.001523275
0.0016329198
0.001737094
0.0018358477
0.0019292996
0.0020176128
0.0021009771
0.0021795978
0.0022536875
0.0023234612
0.0023891324
0.0024509088
0.0025090007
0.0025635846
0.0026149415
0.0026629154
0.0027091724
0.0027475192
0.0028087006
0.00014671482
0.0001466838
0.00014665181
0.00014661881
0.00014658481
0.00014654979
0.00014651373
0.00014647659
0.00014643832
0.00014639885
0.00014635808
0.0001463159
0.0001462722
0.00014622683
0.00014617964
0.00014613047
0.00014607913
0.00014602542
0.00014596912
0.00014590999
0.00014584779
0.00014578224
0.00014571305
0.00014563992
0.00014556252
0.00014548053
0.0001453936
0.00014530139
0.00014520354
0.00014509969
0.00014498947
0.00014487251
0.00014474843
0.00014461687
0.00014447746
0.00014432984
0.00014417371
0.00014400877
0.00014383483
0.00014365172
0.00014345941
0.00014325793
0.00014304743
0.00014282821
0.00014260071
0.00014236551
0.00014212336
0.00014187526
0.00014162222
0.00014136564
0.00014110742
0.00014084938
0.00014059445
0.00014034563
0.00014010705
0.00013988573
0.00013967889
0.00013951543
0.00013939112
0.00013931389
0.00013933524
0.00013946204
0.00013974603
0.00014025712
0.00014108823
0.00014239273
0.00014440803
0.00014751135
0.00015233535
0.00015991963
0.00017190953
0.00019114646
0.00022162741
0.00026741982
0.00033178316
0.00041605721
0.00051834418
0.00063402685
0.0007576277
0.00088448364
0.0010113313
0.0011360635
0.0012573293
0.0013742836
0.001486436
0.0015935361
0.0016954917
0.0017923182
0.0018841022
0.0019709779
0.0020531095
0.0021306803
0.0022038832
0.0022729218
0.0023379774
0.0023993398
0.0024568391
0.0025123426
0.0025585813
0.0026325046
0.00014675127
0.00014672041
0.0001466886
0.00014665583
0.00014662207
0.00014658731
0.00014655152
0.00014651464
0.00014647663
0.00014643742
0.00014639692
0.00014635503
0.00014631166
0.00014626668
0.00014621999
0.00014617145
0.00014612093
0.0001460683
0.00014601338
0.00014595601
0.00014589598
0.0001458331
0.00014576713
0.00014569783
0.00014562492
0.00014554814
0.00014546719
0.00014538178
0.00014529159
0.00014519633
0.00014509566
0.00014498925
0.00014487676
0.00014475785
0.00014463217
0.00014449937
0.00014435911
0.00014421106
0.00014405495
0.00014389052
0.00014371758
0.00014353601
0.00014334575
0.00014314683
0.0001429394
0.0001427237
0.00014250008
0.00014226906
0.00014203123
0.00014178734
0.00014153846
0.00014128569
0.00014103059
0.00014077495
0.00014052086
0.00014027222
0.00014002868
0.00013980052
0.00013959145
0.00013940414
0.00013925651
0.00013915664
0.00013912095
0.00013917893
0.00013935921
0.00013971957
0.00014032797
0.00014129115
0.00014277617
0.00014504873
0.00014850419
0.00015386089
0.00016224975
0.00017544688
0.00019637722
0.00022883077
0.00027653604
0.00034253705
0.00042746579
0.00052886017
0.00064209992
0.00076219246
0.00088505713
0.0010078274
0.0011285926
0.0012460992
0.001359555
0.0014684896
0.0015726517
0.0016719388
0.0017663513
0.0018559591
0.0019408788
0.0020212628
0.0020972628
0.002169153
0.0022367279
0.0023020563
0.0023566998
0.0024442615
0.00014678977
0.0001467591
0.00014672752
0.000146695
0.00014666152
0.00014662705
0.00014659155
0.00014655498
0.00014651728
0.00014647839
0.00014643822
0.00014639669
0.0001463537
0.00014630915
0.00014626294
0.00014621497
0.00014616513
0.00014611333
0.00014605943
0.00014600332
0.00014594485
0.00014588386
0.00014582017
0.00014575359
0.00014568391
0.00014561089
0.0001455343
0.00014545389
0.00014536939
0.00014528054
0.00014518706
0.00014508865
0.00014498501
0.00014487584
0.0001447608
0.00014463956
0.00014451179
0.00014437716
0.00014423536
0.00014408609
0.0001439291
0.00014376415
0.00014359109
0.00014340977
0.00014322017
0.00014302229
0.00014281626
0.00014260228
0.00014238065
0.00014215175
0.00014191616
0.00014167453
0.00014142772
0.00014117682
0.000140923
0.00014066842
0.00014041361
0.00014016256
0.00013991875
0.00013968397
0.00013946539
0.00013926897
0.00013910326
0.00013897978
0.0001389023
0.00013891901
0.00013903141
0.00013928919
0.00013974787
0.00014049246
0.00014164007
0.00014338903
0.00014604457
0.00015007405
0.00015629851
0.000165951
0.00018115692
0.00020487668
0.00024074872
0.00029241389
0.0003621737
0.00044964342
0.00055167899
0.00066368632
0.00078119702
0.00090072088
0.0010198025
0.0011367751
0.0012505363
0.0013603855
0.0014659021
0.0015668591
0.0016631641
0.0017548217
0.0018418824
0.0019245531
0.0020025502
0.0020781292
0.0021415797
0.0022435637
0.00014683013
0.0001467997
0.00014676838
0.00014673615
0.00014670297
0.00014666881
0.00014663364
0.00014659741
0.00014656006
0.00014652153
0.00014648174
0.00014644061
0.00014639804
0.00014635395
0.00014630825
0.00014626084
0.00014621164
0.00014616055
0.0001461075
0.00014605238
0.00014599509
0.00014593551
0.0001458735
0.00014580891
0.00014574158
0.00014567132
0.00014559794
0.00014552122
0.00014544097
0.00014535693
0.00014526888
0.00014517655
0.0001450797
0.00014497803
0.00014487125
0.00014475906
0.00014464115
0.0001445172
0.00014438688
0.0001442499
0.00014410596
0.0001439548
0.00014379616
0.00014362985
0.0001434557
0.0001432736
0.0001430835
0.00014288541
0.00014267942
0.00014246569
0.00014224448
0.00014201614
0.00014178114
0.00014154009
0.0001412937
0.00014104316
0.00014078913
0.00014053336
0.0001402781
0.00014002486
0.00013977692
0.00013953793
0.00013931241
0.00013910674
0.00013892436
0.00013878293
0.00013868682
0.00013866195
0.0001387246
0.00013891178
0.00013926758
0.00013985877
0.00014078737
0.00014219675
0.00014432621
0.00014752355
0.00015239262
0.00015986171
0.00017146327
0.00018954579
0.00021727092
0.00025828089
0.00031572864
0.00039080246
0.00048193242
0.00058539415
0.00069677593
0.00081219892
0.00092874491
0.0010443593
0.0011576399
0.0012676585
0.0013738258
0.0014757916
0.0015733557
0.0016665497
0.0017549286
0.0018408897
0.001913334
0.0020302917
0.00014687218
0.00014684203
0.000146811
0.00014677908
0.00014674623
0.00014671242
0.0001466776
0.00014664174
0.00014660477
0.00014656663
0.00014652725
0.00014648656
0.00014644446
0.00014640086
0.00014635569
0.00014630886
0.00014626028
0.00014620989
0.00014615761
0.00014610336
0.00014604705
0.0001459886
0.0001459279
0.00014586484
0.00014579928
0.00014573109
0.00014566011
0.00014558618
0.0001455091
0.0001454287
0.00014534477
0.00014525709
0.00014516545
0.00014506958
0.00014496924
0.00014486415
0.00014475401
0.00014463854
0.00014451744
0.00014439039
0.0001442571
0.00014411729
0.00014397069
0.00014381703
0.00014365609
0.00014348767
0.00014331163
0.00014312785
0.00014293628
0.00014273691
0.00014252982
0.00014231513
0.00014209306
0.00014186395
0.00014162817
0.00014138637
0.00014113908
0.00014088718
0.00014063198
0.00014037461
0.00014011681
0.00013986078
0.00013960911
0.00013936554
0.00013913243
0.00013891764
0.00013872624
0.00013856907
0.00013845508
0.00013839989
0.00013842565
0.00013855984
0.00013884303
0.0001393297
0.00014010396
0.00014128069
0.00014305149
0.00014569878
0.00014967875
0.00015572111
0.00016500382
0.00017939332
0.00020154999
0.00023485832
0.00028276388
0.00034746111
0.00042873199
0.00052389491
0.000628923
0.00073980137
0.00085327649
0.00096696094
0.0010791806
0.001188798
0.0012950485
0.0013975648
0.0014955726
0.0015915073
0.0016727371
0.0018047862
0.00014691576
0.00014688591
0.00014685521
0.00014682362
0.00014679113
0.00014675768
0.00014672325
0.00014668777
0.00014665121
0.0001466135
0.00014657456
0.00014653433
0.00014649273
0.00014644966
0.00014640505
0.00014635882
0.00014631089
0.00014626119
0.00014620966
0.00014615622
0.0001461008
0.00014604334
0.00014598375
0.00014592194
0.00014585781
0.00014579125
0.00014572214
0.00014565034
0.00014557571
0.00014549809
0.00014541732
0.00014533323
0.0001452456
0.00014515424
0.00014505892
0.00014495939
0.0001448554
0.00014474667
0.00014463294
0.0001445139
0.00014438928
0.00014425879
0.00014412215
0.00014397907
0.00014382931
0.00014367262
0.00014350878
0.00014333761
0.00014315896
0.00014297272
0.00014277882
0.00014257726
0.00014236808
0.0001421514
0.0001419274
0.0001416964
0.00014145873
0.00014121487
0.00014096553
0.0001407115
0.00014045378
0.00014019369
0.00013993279
0.00013967334
0.00013941705
0.00013916779
0.00013892909
0.0001387066
0.0001385058
0.00013833544
0.00013820508
0.00013812806
0.0001381253
0.00013822088
0.00013845027
0.00013886014
0.00013952227
0.00014053802
0.00014206031
0.00014432262
0.00014769811
0.00015277991
0.00016052458
0.00017243816
0.00019077751
0.00021859018
0.0002593079
0.00031568048
0.00038850551
0.00047609893
0.00057499149
0.00068123895
0.00079139219
0.00090280891
0.001013568
0.0011224573
0.0012280372
0.001332559
0.0014216549
0.0015681351
0.00014696068
0.00014693117
0.00014690081
0.00014686959
0.00014683747
0.00014680442
0.00014677039
0.00014673533
0.0001466992
0.00014666194
0.00014662348
0.00014658374
0.00014654265
0.00014650014
0.00014645611
0.00014641051
0.00014636324
0.00014631426
0.00014626348
0.00014621084
0.00014615629
0.00014609975
0.00014604117
0.00014598047
0.00014591757
0.00014585237
0.00014578478
0.00014571471
0.00014564202
0.0001455666
0.00014548831
0.00014540701
0.00014532253
0.00014523469
0.00014514331
0.00014504817
0.00014494904
0.00014484568
0.00014473784
0.00014462526
0.00014450767
0.0001443848
0.00014425636
0.00014412209
0.00014398171
0.00014383496
0.00014368159
0.00014352137
0.00014335409
0.00014317958
0.00014299767
0.00014280827
0.0001426113
0.00014240674
0.00014219462
0.00014197505
0.0001417482
0.00014151429
0.00014127371
0.00014102692
0.00014077451
0.00014051728
0.00014025619
0.00013999259
0.00013972773
0.00013946368
0.00013920276
0.00013894819
0.00013870345
0.00013847341
0.00013826362
0.00013808209
0.00013793803
0.0001378439
0.0001378189
0.00013788458
0.00013807242
0.00013842603
0.00013900682
0.00013990338
0.00014124838
0.00014324362
0.0001462044
0.00015063254
0.00015732564
0.00016755248
0.00018325496
0.00020716256
0.0002425595
0.00029245295
0.00035833386
0.00043935464
0.0005326419
0.00063445968
0.0007412666
0.00085036883
0.0009590757
0.0010690244
0.001163789
0.0013226616
0.00014700679
0.00014697764
0.00014694765
0.00014691681
0.00014688509
0.00014685245
0.00014681884
0.00014678423
0.00014674856
0.00014671177
0.0001466738
0.00014663458
0.00014659404
0.0001465521
0.00014650868
0.00014646373
0.00014641715
0.00014636889
0.00014631888
0.00014626705
0.00014621336
0.00014615774
0.00014610013
0.00014604047
0.00014597868
0.0001459147
0.00014584845
0.00014577984
0.00014570878
0.00014563517
0.0001455589
0.00014547984
0.00014539788
0.00014531285
0.0001452246
0.00014513295
0.00014503769
0.00014493862
0.00014483552
0.00014472814
0.00014461625
0.00014449959
0.0001443779
0.00014425091
0.00014411835
0.00014397997
0.0001438355
0.00014368468
0.00014352728
0.00014336308
0.00014319186
0.00014301345
0.00014282771
0.00014263451
0.00014243378
0.0001422255
0.00014200969
0.00014178643
0.00014155586
0.00014131824
0.00014107388
0.00014082325
0.00014056691
0.00014030568
0.0001400404
0.00013977229
0.0001395028
0.0001392339
0.00013896782
0.0001387075
0.00013845633
0.00013821896
0.00013800079
0.00013780952
0.00013765394
0.00013754583
0.00013750242
0.00013754475
0.00013770122
0.00013801157
0.00013853149
0.00013934144
0.00014056034
0.00014236835
0.00014504146
0.00014901535
0.00015498359
0.00016405142
0.00017792841
0.00019907569
0.00023059295
0.00027556926
0.00033593345
0.00041148554
0.00049987161
0.00059776746
0.00070098619
0.00081003337
0.00090598235
0.0010727616
0.00014705392
0.00014702515
0.00014699555
0.00014696512
0.00014693381
0.0001469016
0.00014686844
0.00014683428
0.00014679909
0.00014676279
0.00014672534
0.00014668666
0.00014664668
0.00014660534
0.00014656256
0.00014651827
0.0001464724
0.00014642488
0.00014637565
0.00014632466
0.00014627184
0.00014621713
0.00014616048
0.00014610184
0.00014604113
0.0001459783
0.00014591327
0.00014584599
0.00014577636
0.00014570431
0.00014562976
0.0001455526
0.00014547271
0.00014538999
0.0001453043
0.00014521547
0.00014512335
0.00014502775
0.00014492847
0.00014482531
0.00014471806
0.00014460647
0.00014449031
0.00014436933
0.00014424329
0.00014411191
0.00014397495
0.00014383214
0.00014368323
0.00014352797
0.00014336614
0.00014319751
0.00014302188
0.00014283907
0.00014264894
0.00014245136
0.00014224626
0.0001420336
0.00014181339
0.00014158572
0.00014135071
0.00014110859
0.00014085969
0.00014060445
0.00014034343
0.00014007733