/*--------------------------------*- C++ -*----------------------------------*\
  =========                 |
  \\      /  F ield         | OpenFOAM: The Open Source CFD Toolbox
   \\    /   O peration     | Website:  https://openfoam.org
    \\  /    A nd           | Version:  12
     \\/     M anipulation  |
\*---------------------------------------------------------------------------*/
FoamFile
{
    format      ascii;
    class       volVectorField;
    location    "1100";
    object      wallShearStress;
}
// * * * * * * * * * * * * * * * * * * * * * * * * * * * * * * * * * * * * * //

dimensions      [0 2 -2 0 0 0 0];

internalField   uniform (0 0 0);

boundaryField
{
    inlet
    {
        type            calculated;
        value           uniform (0 0 0);
    }
    top
    {
        type            calculated;
        value           uniform (0 0 0);
    }
    outlet
    {
        type            calculated;
        value           uniform (0 0 0);
    }
    slipsurface
    {
        type            calculated;
        value           uniform (0 0 0);
    }
    bottom
    {
        type            calculated;
        value           nonuniform List<vector> 
100
(
(-0.00062377946 -3.5778529e-07 1.5996481e-21)
(-0.0007226588 -4.9079912e-07 3.2203462e-23)
(-0.00084212256 -8.0557143e-07 0)
(-0.00097675183 -1.214769e-06 8.9070676e-21)
(-0.0011246416 -1.7440405e-06 4.7610188e-20)
(-0.0012834087 -2.2942083e-06 -4.8322715e-20)
(-0.0014493324 -2.8499719e-06 4.6492892e-22)
(-0.0016174005 -3.8112902e-06 1.3991215e-19)
(-0.0017815206 -4.9390423e-06 0)
(-0.0019350836 -6.1582913e-06 3.9283901e-19)
(-0.0020716954 -7.406467e-06 0)
(-0.0021862941 -8.6047559e-06 -6.1761607e-19)
(-0.0022756468 -9.6709823e-06 0)
(-0.0023385942 -1.0514701e-05 1.193171e-18)
(-0.0023758312 -1.1165655e-05 -2.3012219e-22)
(-0.0023898926 -1.1390927e-05 1.3786834e-18)
(-0.002382941 -1.1411086e-05 0)
(-0.0023649721 -1.1181475e-05 0)
(-0.0023255537 -1.0663608e-05 3.927444e-19)
(-0.0022817787 -9.9909784e-06 3.6004629e-19)
(-0.0022324534 -9.1687418e-06 6.4833691e-19)
(-0.0021800545 -8.2264992e-06 0)
(-0.002126872 -7.2209585e-06 -4.1025794e-19)
(-0.0020747775 -6.205417e-06 0)
(-0.0020252782 -5.2099698e-06 1.0153071e-19)
(-0.0019795887 -4.261792e-06 0)
(-0.0019386472 -3.3804328e-06 -0)
(-0.0019031217 -2.5899162e-06 0)
(-0.0018733856 -1.9152704e-06 -5.5988828e-21)
(-0.0018494017 -1.3776708e-06 -4.6335421e-20)
(-0.0018306271 -9.9388207e-07 0)
(-0.0018160337 -7.5984467e-07 7.0414854e-20)
(-0.0018042432 -6.508419e-07 -6.0407806e-20)
(-0.0017938279 -6.2925514e-07 0)
(-0.0017836638 -6.5221678e-07 0)
(-0.0017731219 -6.836143e-07 9.8349249e-21)
(-0.0017620423 -7.0131167e-07 0)
(-0.001750565 -6.9753648e-07 0)
(-0.0017389126 -6.7801314e-07 0)
(-0.0017272336 -6.5351456e-07 -0)
(-0.001715564 -6.3221137e-07 -0)
(-0.0017038735 -6.1654148e-07 -0)
(-0.0016921412 -6.0406513e-07 -0)
(-0.0016803985 -5.9130308e-07 0)
(-0.0016687157 -5.7633243e-07 -0)
(-0.0016571624 -5.5898462e-07 -0)
(-0.0016457797 -5.4012705e-07 0)
(-0.0016345794 -5.2069988e-07 0)
(-0.0016235606 -5.013007e-07 0)
(-0.0016127223 -4.8207004e-07 -0)
(-0.0016020657 -4.6301985e-07 0)
(-0.001591592 -4.4419773e-07 0)
(-0.0015813008 -4.2580025e-07 0)
(-0.0015711886 -4.0805187e-07 -0)
(-0.0015612503 -3.9096046e-07 0)
(-0.0015514826 -3.7445788e-07 0)
(-0.0015418826 -3.5857975e-07 0)
(-0.001532446 -3.4338494e-07 0)
(-0.0015231675 -3.2880703e-07 0)
(-0.0015140449 -3.1480599e-07 -0)
(-0.001505074 -3.0146441e-07 0)
(-0.0014962485 -2.8874062e-07 0)
(-0.001487564 -2.7658012e-07 0)
(-0.0014790165 -2.64993e-07 0)
(-0.0014706016 -2.5392239e-07 0)
(-0.0014623162 -2.4332831e-07 0)
(-0.0014541567 -2.3322353e-07 0)
(-0.0014461194 -2.2357013e-07 0)
(-0.001438201 -2.1434072e-07 -0)
(-0.001430398 -2.0553761e-07 -0)
(-0.001422707 -1.9712951e-07 -0)
(-0.0014151248 -1.891004e-07 0)
(-0.0014076481 -1.8143387e-07 0)
(-0.001400274 -1.7410779e-07 0)
(-0.0013929995 -1.6710853e-07 0)
(-0.0013858217 -1.6041638e-07 0)
(-0.001378738 -1.540176e-07 0)
(-0.0013717459 -1.47899e-07 0)
(-0.0013648427 -1.420466e-07 0)
(-0.0013580262 -1.364479e-07 0)
(-0.0013512938 -1.3109072e-07 0)
(-0.0013446434 -1.2596345e-07 0)
(-0.0013380727 -1.210556e-07 0)
(-0.0013315796 -1.1635727e-07 0)
(-0.001325162 -1.1185893e-07 -0)
(-0.0013188178 -1.075521e-07 0)
(-0.001312545 -1.0342878e-07 -0)
(-0.0013063414 -9.9481971e-08 -0)
(-0.0013002052 -9.5705477e-08 0)
(-0.0012941336 -9.2095181e-08 0)
(-0.0012881254 -8.8645361e-08 0)
(-0.0012821756 -8.5361653e-08 0)
(-0.0012762863 -8.2236688e-08 0)
(-0.0012704404 -7.9318554e-08 0)
(-0.0012646623 -7.6545159e-08 0)
(-0.0012588699 -7.4324643e-08 0)
(-0.0012532116 -7.0383693e-08 1.7536761e-23)
(-0.0012472353 -1.0895584e-07 -1.7538566e-22)
(-0.0012422598 -7.3009388e-08 5.534955e-22)
(-0.0012329956 -1.1050915e-07 2.1410974e-20)
)
;
    }
    frontandback
    {
        type            empty;
    }
}


// ************************************************************************* //
