/*--------------------------------*- C++ -*----------------------------------*\
  =========                 |
  \\      /  F ield         | OpenFOAM: The Open Source CFD Toolbox
   \\    /   O peration     | Website:  https://openfoam.org
    \\  /    A nd           | Version:  12
     \\/     M anipulation  |
\*---------------------------------------------------------------------------*/
FoamFile
{
    format      ascii;
    class       volScalarField;
    location    "1100";
    object      yPlus;
}
// * * * * * * * * * * * * * * * * * * * * * * * * * * * * * * * * * * * * * //

dimensions      [];

internalField   uniform 0;

boundaryField
{
    inlet
    {
        type            calculated;
        value           uniform 0;
    }
    top
    {
        type            calculated;
        value           uniform 0;
    }
    outlet
    {
        type            calculated;
        value           uniform 0;
    }
    slipsurface
    {
        type            calculated;
        value           uniform 0;
    }
    bottom
    {
        type            calculated;
        value           nonuniform List<scalar> 
100
(
15.33344
18.46726
22.384584
26.960051
32.172109
37.978485
44.284836
50.93731
57.729575
64.414686
70.730283
76.443781
81.377418
85.424835
88.551662
90.799988
92.200108
93.152335
93.119117
92.850063
92.259324
91.435629
90.462508
89.412871
88.349907
87.328616
86.396546
85.592584
84.945507
84.469416
84.157382
83.979195
83.885981
83.823041
83.745729
83.629386
83.469694
83.27578
83.060699
82.834239
82.600638
82.360294
82.112956
81.859878
81.603831
81.347795
81.093759
80.842472
80.593997
80.348318
80.105532
79.865702
79.628866
79.394976
79.163951
78.935733
78.710277
78.487506
78.267336
78.04976
77.834708
77.622058
77.411713
77.203609
76.997689
76.79391
76.592228
76.392589
76.194946
75.999252
75.805455
75.613509
75.423376
75.235008
75.048362
74.863399
74.680082
74.498376
74.318244
74.139653
73.962569
73.786958
73.612789
73.44003
73.268649
73.098613
72.929891
72.762449
72.596255
72.431261
72.267444
72.104716
71.943113
71.782301
71.622742
71.462809
71.305461
71.140701
71.00118
70.743362
)
;
    }
    frontandback
    {
        type            empty;
    }
}


// ************************************************************************* //
