#      distance             U_x             U_y             U_z wallShearStr... wallShearStr... wallShearStr...               p           omega               k             nut
  3.0219182e-06     0.018437888   2.6284516e-09  -3.4461362e-23               0               0               0   0.00023276696       5570601.8   3.9968239e-07   3.7390967e-13
  5.0865428e-06      0.03103803   6.6678279e-09  -1.4611535e-23               0               0               0   0.00023276717       1240850.2   1.8252601e-06   3.4559003e-12
  7.2269684e-06     0.044100077   1.3130498e-08  -3.7643228e-23               0               0               0   0.00023276739       495682.18   5.7569103e-06   1.9325625e-11
  9.4750924e-06     0.057816662   2.2378915e-08  -5.6458802e-23               0               0               0   0.00023276761       256764.62   1.4417801e-05   7.8819576e-11
  1.1864417e-05     0.072385788   3.4924543e-08  -2.3400981e-23               0               0               0   0.00023276784       152802.43   3.1086337e-05   2.5990336e-10
  1.4430548e-05     0.088006871    5.150175e-08   7.8882624e-23               0               0               0    0.0002327681        99058.22   6.0518585e-05   7.3658718e-10
  1.7211727e-05       0.1048687   7.3068601e-08   1.2748062e-22               0               0               0   0.00023276838       68139.934   0.00010940358   1.8611123e-09
  2.0249401e-05      0.12312314   1.0081996e-07   2.8786661e-23               0               0               0    0.0002327687       49052.781   0.00018656233   4.2814115e-09
  2.3588836e-05      0.14283958   1.3617962e-07  -3.0451862e-23               0               0               0   0.00023276909       36671.307   0.00030228804    9.065599e-09
  2.7279799e-05      0.16394565   1.8073698e-07  -1.5225931e-23               0               0               0   0.00023276957       28321.835   0.00046603764    1.775529e-08
  3.1377293e-05      0.18618217   2.3612588e-07               0               0               0               0   0.00023277019       22484.257   0.00068235527   3.2248226e-08
  3.5942381e-05      0.20911571   3.0390815e-07   7.1949556e-23               0               0               0   0.00023277102       18244.023    0.0009468286   5.4497275e-08
  4.1043091e-05      0.23222701   3.8555525e-07   1.0791279e-22               0               0               0   0.00023277211       15039.648    0.0012453316   8.6183006e-08
  4.6755437e-05      0.25503549   4.8251361e-07   1.2149723e-22               0               0               0   0.00023277352       12530.033    0.0015580303   1.2857467e-07
  5.3164546e-05      0.27720464    5.964601e-07   1.2828726e-22               0               0               0   0.00023277532       10510.287    0.0018656951   1.8205239e-07
  6.0365928e-05      0.29857464   7.2962051e-07  -1.9330799e-22               0               0               0   0.00023277757       8853.5787    0.0021545079   2.4683783e-07
    6.84669e-05       0.3190896    8.847132e-07   -4.117339e-22               0               0               0   0.00023278036       7476.9371    0.0024168737   3.2495167e-07
  7.7588184e-05      0.33871257   1.0647514e-06  -2.1503827e-22               0               0               0   0.00023278383       6324.5488    0.0026493281    4.196167e-07
   8.786571e-05      0.35741898    1.273105e-06    6.135562e-23               0               0               0   0.00023278813       5357.5389    0.0028511038   5.3377078e-07
  9.9452634e-05      0.37521861   1.5136473e-06   2.7236184e-22               0               0               0   0.00023279338       4546.6251    0.0030236989   6.6994513e-07
  0.00011252163      0.39216373   1.7909129e-06   5.6552825e-23               0               0               0   0.00023279969       3867.6643    0.0031701505     8.29549e-07
  0.00012726745      0.40834853   2.1103994e-06  -1.5311996e-22               0               0               0   0.00023280718       3299.2826    0.0032941987   1.0127848e-06
  0.00014390985      0.42388502   2.4786881e-06  -3.8032193e-23               0               0               0   0.00023281598       2822.4268    0.0033995541   1.2215792e-06
  0.00016269684      0.43886722   2.9032004e-06   6.8210124e-23               0               0               0   0.00023282632       2421.0096    0.0034893244   1.4605673e-06
  0.00018390838      0.45336294   3.3922346e-06   5.4409903e-22               0               0               0   0.00023283845       2082.0039    0.0035658989   1.7344574e-06
  0.00020786057      0.46742737   3.9553756e-06    6.796629e-22               0               0               0   0.00023285267       1794.8362    0.0036312167   2.0475798e-06
  0.00023491035      0.48110986    4.603703e-06   2.0377399e-22               0               0               0   0.00023286928       1550.8451    0.0036869321   2.4048034e-06
  0.00026546084      0.49445436   5.3499158e-06               0               0               0               0   0.00023288863       1342.9263      0.00373444   2.8115953e-06
   0.0002999673      0.50749997    6.208584e-06               0               0               0               0   0.00023291111        1165.241    0.0037749078   3.2740852e-06
  0.00033894396      0.52028146   7.1964365e-06  -1.8512465e-22               0               0               0    0.0002329372       1012.9786    0.0038093062   3.7991347e-06
  0.00038297165      0.53282983   8.3326876e-06   -3.702493e-22               0               0               0   0.00023296741        882.1647    0.0038384384   4.3944105e-06
  0.00043270649      0.54517276   9.6394103e-06   8.0095902e-22               0               0               0   0.00023300232       769.50505    0.0038629649   5.0684604e-06
  0.00048888965      0.55733508   1.1141972e-05    1.555439e-21               0               0               0   0.00023304262       672.26034    0.0038834243   5.8307903e-06
  0.00055235838       0.5693392   1.2869542e-05   5.6935534e-22               0               0               0   0.00023308906       588.14477    0.0039002513     6.69194e-06
   0.0006240585      0.58120544   1.4855678e-05               0               0               0               0   0.00023314251       515.24436    0.0039137902   7.6635531e-06
  0.00070505852      0.59295241    1.713902e-05   2.3905845e-22               0               0               0   0.00023320394       451.95101    0.0039243063   8.7584372e-06
  0.00079656552      0.60459728   1.9764101e-05    4.781169e-22               0               0               0   0.00023327445         396.909    0.0039319942   9.9906051e-06
  0.00089994316      0.61615608   2.2782302e-05   2.3905845e-22               0               0               0   0.00023335527       348.97168    0.0039369847   1.1375288e-05
    0.001016732      0.62764396   2.6252987e-05               0               0               0               0    0.0002334478       307.16616     0.003939349   1.2928907e-05
   0.0011486725       0.6390755   3.0244856e-05   1.0417272e-21               0               0               0   0.00023355358       270.66454    0.0039391013   1.4668981e-05
   0.0012977308      0.65046491   3.4837559e-05  -7.8789581e-22               0               0               0   0.00023367432        238.7603       0.0039362   1.6613949e-05
   0.0014661282      0.66182634   4.0123663e-05  -3.4905338e-21               0               0               0   0.00023381194       210.84895    0.0039305475   1.8782869e-05
   0.0016563743      0.67317415   4.6211019e-05  -2.6967077e-21               0               0               0   0.00023396851       186.41202    0.0039219879   2.1194957e-05
   0.0018713042      0.68452324   5.3225689e-05  -1.5854656e-21               0               0               0   0.00023414631       165.00387    0.0039103032   2.3868887e-05
   0.0021141207      0.69588938   6.1315547e-05  -5.4966875e-22               0               0               0    0.0002343478       146.24067    0.0038952079   2.6821806e-05
   0.0023884425      0.70728963   7.0654783e-05  -4.0098686e-22               0               0               0   0.00023457555       129.79135    0.0038763411    3.006793e-05
   0.0026983575      0.71874283   8.1449578e-05   1.2443678e-21               0               0               0   0.00023483224        115.3699     0.003853256   3.3616633e-05
   0.0030484842      0.73027017   9.3945341e-05  -2.2368196e-21               0               0               0   0.00023512059        102.7291    0.0038254065   3.7469846e-05
   0.0034440402      0.74189592   0.00010843602  -5.6989935e-21               0               0               0   0.00023544313       91.655137    0.0037921285     4.16186e-05
   0.0038909203      0.75364831   0.00012527622  -1.8168192e-21               0               0               0   0.00023580211       81.963252     0.003752617   4.6038492e-05
    0.004395784      0.76556073   0.00014489731   3.1397402e-21               0               0               0   0.00023619909       73.494052    0.0037058952   5.0683855e-05
   0.0049661549      0.77767313   0.00016782938  -4.6845685e-21               0               0               0   0.00023663464       66.110574    0.0036507739   5.5480392e-05
   0.0056105328      0.79003401   0.00019473148  -1.3757678e-20               0               0               0   0.00023710755       59.695986    0.0035857992   6.0316142e-05
   0.0063385204      0.80270297   0.00022642994   5.3445667e-21               0               0               0   0.00023761286       54.151974    0.0035091838   6.5030755e-05
   0.0071609664      0.81575409   0.00026394758   1.8558418e-20               0               0               0   0.00023813775       49.397988    0.0034187227   6.9403402e-05
   0.0080901272       0.8292928   0.00030865269   2.9365103e-20               0               0               0   0.00023866641       45.366278    0.0033113891   7.3002855e-05
   0.0091398493      0.84349113   0.00036255447   3.4051135e-20               0               0               0   0.00023918411       41.988101     0.003182397   7.5150103e-05
    0.010325776      0.85859786   0.00042856716   1.6023053e-20               0               0               0   0.00023965463       39.180357    0.0030240958   7.5298434e-05
     0.01166558      0.87491327     0.000510626   4.0565416e-21               0               0               0    0.0002400076       36.833292    0.0028246297   7.3109901e-05
    0.013179228      0.89277143   0.00061403816   1.7909575e-20               0               0               0   0.00024015092       34.787076    0.0025665988   6.8305436e-05
    0.014889277      0.91247584   0.00074574722   1.6571039e-20               0               0               0   0.00023993648        32.81867    0.0022283438   6.0909706e-05
    0.016821209      0.93403233    0.0009105285   5.0714721e-20               0               0               0   0.00023904299       30.697573      0.00179362   5.1466176e-05
    0.019003816      0.95679132    0.0011121048   7.7419641e-20               0               0               0   0.00023727386       28.146648    0.0012635007    4.015934e-05
    0.021469624      0.97883336     0.001339542   4.3864643e-20               0               0               0   0.00023446773       23.077357   0.00068844714   2.6268184e-05
    0.024255377      0.99526713    0.0015166039   2.4054443e-20               0               0               0   0.00022960056       14.332384   0.00023565883   1.2129104e-05
    0.027402591       1.0024697    0.0015843225   5.5561411e-21               0               0               0   0.00022278754       7.3125695   3.6689137e-05   3.1149863e-06
    0.030958166        1.003776    0.0015883047               0               0               0               0   0.00021582923       5.3269957   1.7760617e-06   3.2426442e-07
    0.034975088       1.0038179    0.0015795053               0               0               0               0    0.0002093381       5.2603575   6.5595355e-07   1.2469783e-07
    0.039513219       1.0038155    0.0015693758    1.970316e-20               0               0               0   0.00020287728       5.2618482   6.5391265e-07   1.2427305e-07
    0.044640187       1.0038176    0.0015601513    2.955165e-20               0               0               0   0.00019621869       5.2622593   6.5412436e-07   1.2430341e-07
    0.050432395       1.0038245    0.0015498645   9.8484549e-21               0               0               0    0.0001893598       5.2622372   6.5413622e-07   1.2430619e-07
    0.056976161       1.0038303    0.0015380531               0               0               0               0    0.0001823983       5.2622296     6.54133e-07   1.2430576e-07
    0.064369002       1.0038309    0.0015254741               0               0               0               0   0.00017550897       5.2622238   6.5413179e-07   1.2430567e-07
    0.072721087       1.0038279    0.0015117652               0               0               0               0   0.00016884476       5.2622136   6.5413018e-07    1.243056e-07
    0.082156882       1.0038227    0.0014970802               0               0               0               0   0.00016249312       5.2621961   6.5412763e-07   1.2430553e-07
    0.092817002        1.003815    0.0014811884               0               0               0               0   0.00015653501       5.2621689   6.5412383e-07   1.2430545e-07
