/*--------------------------------*- C++ -*----------------------------------*\
  =========                 |
  \\      /  F ield         | OpenFOAM: The Open Source CFD Toolbox
   \\    /   O peration     | Website:  https://openfoam.org
    \\  /    A nd           | Version:  12
     \\/     M anipulation  |
\*---------------------------------------------------------------------------*/
FoamFile
{
    format      ascii;
    class       volScalarField;
    location    "1000";
    object      nut;
}
// * * * * * * * * * * * * * * * * * * * * * * * * * * * * * * * * * * * * * //

dimensions      [0 2 -1 0 0 0 0];

internalField   nonuniform List<scalar> 
7480
(
7.2168383e-10
7.0418633e-10
6.8720288e-10
6.7274502e-10
6.6254491e-10
6.5790402e-10
5.9259581e-10
5.1112504e-10
4.5325259e-10
4.0758133e-10
3.8748556e-10
3.3299332e-10
2.345001e-07
3.4420973e-06
5.5164976e-06
6.8687513e-06
7.6635053e-06
8.0701572e-06
8.2791289e-06
8.2717444e-06
8.2274494e-06
8.1446847e-06
7.8464048e-06
7.2033237e-06
6.6522065e-06
6.1829196e-06
5.7889447e-06
5.4743953e-06
5.2180761e-06
5.0088149e-06
4.840947e-06
4.7108973e-06
4.6150981e-06
4.5496978e-06
4.510623e-06
4.4938567e-06
4.4952743e-06
4.5104937e-06
4.5385699e-06
4.57899e-06
4.6297076e-06
4.6881308e-06
4.7517739e-06
4.818744e-06
4.8885263e-06
4.958131e-06
5.026664e-06
5.092995e-06
5.1557572e-06
5.2136734e-06
5.2684783e-06
5.3186784e-06
5.36259e-06
5.3992891e-06
5.4286898e-06
5.4513695e-06
5.4682001e-06
5.4802319e-06
5.4893511e-06
5.4966509e-06
5.502429e-06
5.5066864e-06
5.5095164e-06
5.5111458e-06
5.5118017e-06
5.5116573e-06
5.5108506e-06
5.5097221e-06
5.5085622e-06
5.5073153e-06
5.5057569e-06
5.503734e-06
5.5011997e-06
5.4981709e-06
5.4947062e-06
5.4909671e-06
5.4870927e-06
5.4830575e-06
5.4787453e-06
5.4740855e-06
5.4690843e-06
5.463786e-06
5.4583185e-06
5.4527485e-06
5.4470228e-06
5.4410769e-06
5.4348786e-06
5.4284559e-06
5.4219151e-06
5.415287e-06
5.4085247e-06
5.4015874e-06
5.3944649e-06
5.3871918e-06
5.3798489e-06
5.3722192e-06
5.3647487e-06
5.3555646e-06
5.3491659e-06
5.3333577e-06
2.9335047e-09
2.9107288e-09
2.8850048e-09
2.8578437e-09
2.8296083e-09
2.8004159e-09
2.770512e-09
2.7399133e-09
2.709117e-09
2.6760574e-09
2.6500491e-09
2.5908805e-09
2.1377081e-08
4.9474947e-07
2.1726324e-06
4.1972776e-06
5.1958361e-06
5.4050823e-06
5.2519286e-06
5.0690212e-06
4.9864631e-06
4.9850366e-06
5.0522563e-06
5.1773881e-06
5.4306435e-06
5.7896576e-06
6.2645056e-06
6.9048789e-06
7.2468153e-06
7.6260499e-06
8.0295686e-06
8.4448656e-06
8.8622943e-06
9.2745576e-06
9.6765146e-06
1.0066061e-05
1.0439554e-05
1.0799763e-05
1.1155659e-05
1.1510151e-05
1.1856095e-05
1.2188094e-05
1.250408e-05
1.2804443e-05
1.3095599e-05
1.3357273e-05
1.3604881e-05
1.3831235e-05
1.403543e-05
1.4218354e-05
1.4379135e-05
1.4516175e-05
1.4630815e-05
1.4725831e-05
1.4804523e-05
1.4870141e-05
1.4925415e-05
1.4973308e-05
1.5017976e-05
1.5059016e-05
1.5095992e-05
1.5129059e-05
1.5158806e-05
1.5185859e-05
1.5210674e-05
1.5233542e-05
1.5254721e-05
1.5274665e-05
1.529315e-05
1.5309486e-05
1.5323365e-05
1.5334932e-05
1.5344486e-05
1.5352306e-05
1.5358694e-05
1.5363919e-05
1.5367848e-05
1.5370134e-05
1.5370664e-05
1.5369637e-05
1.5367326e-05
1.5364019e-05
1.5359896e-05
1.5354758e-05
1.5348367e-05
1.5340747e-05
1.5332073e-05
1.5322644e-05
1.531261e-05
1.5301794e-05
1.5290038e-05
1.5277388e-05
1.5264037e-05
1.5250168e-05
1.5235695e-05
1.5220486e-05
1.5204528e-05
1.5186949e-05
1.5172673e-05
1.5139691e-05
2.9507538e-09
2.9508387e-09
2.9508169e-09
2.95067e-09
2.9503934e-09
2.9499853e-09
2.9494192e-09
2.9487724e-09
2.9476687e-09
2.947581e-09
2.9418438e-09
2.9595485e-09
2.7147719e-09
3.5390797e-09
1.9970693e-08
1.2149921e-07
4.8438054e-07
1.1541608e-06
1.9700725e-06
2.6273925e-06
2.9749426e-06
3.0839341e-06
3.0649739e-06
2.9957637e-06
2.9291224e-06
2.9519058e-06
3.0600661e-06
3.2649214e-06
3.5543897e-06
3.9235734e-06
4.3859198e-06
4.8907957e-06
5.4545537e-06
6.0819949e-06
6.7753853e-06
7.5367673e-06
8.3752073e-06
9.3111551e-06
1.0192934e-05
1.1052572e-05
1.1930013e-05
1.2804891e-05
1.3660968e-05
1.4495213e-05
1.5309557e-05
1.6107341e-05
1.6872715e-05
1.7587387e-05
1.8262374e-05
1.8899644e-05
1.9372375e-05
1.979775e-05
2.0184763e-05
2.0538995e-05
2.0863963e-05
2.1162738e-05
2.1439348e-05
2.1697587e-05
2.1936901e-05
2.2157825e-05
2.2362185e-05
2.2552239e-05
2.273002e-05
2.2897229e-05
2.3055012e-05
2.3204091e-05
2.3345235e-05
2.3478035e-05
2.3601785e-05
2.371669e-05
2.3823485e-05
2.3922964e-05
2.401584e-05
2.4102721e-05
2.4184273e-05
2.4260374e-05
2.4330418e-05
2.4394465e-05
2.4453107e-05
2.4507009e-05
2.4556654e-05
2.4602596e-05
2.4644653e-05
2.4682364e-05
2.4715796e-05
2.4745462e-05
2.4771836e-05
2.4795478e-05
2.4816228e-05
2.4833699e-05
2.4847977e-05
2.4859464e-05
2.4868641e-05
2.487566e-05
2.4880093e-05
2.4882292e-05
2.4881231e-05
2.4879927e-05
2.4872602e-05
2.4860229e-05
2.9947874e-09
2.9958909e-09
2.9970391e-09
2.9981625e-09
2.9992393e-09
3.0002631e-09
3.0012302e-09
3.0021408e-09
3.0029834e-09
3.0037883e-09
3.0044302e-09
3.0052961e-09
3.0052373e-09
3.0019517e-09
3.0138974e-09
3.1270809e-09
3.8530383e-09
7.5601479e-09
2.2644485e-08
6.1745035e-08
1.3537825e-07
2.4804945e-07
3.983895e-07
5.7938816e-07
7.8374592e-07
9.9137714e-07
1.1880454e-06
1.3703747e-06
1.5410824e-06
1.7054101e-06
1.8728072e-06
2.0509819e-06
2.2463543e-06
2.4996639e-06
2.8174951e-06
3.204699e-06
3.6758381e-06
4.2440036e-06
4.9071984e-06
5.6895415e-06
6.6131817e-06
7.6842274e-06
8.8490465e-06
9.8866221e-06
1.0977234e-05
1.2110672e-05
1.3272948e-05
1.4440711e-05
1.5607119e-05
1.6760545e-05
1.7886322e-05
1.8982532e-05
2.000744e-05
2.0976564e-05
2.1901943e-05
2.2782662e-05
2.3619568e-05
2.4388652e-05
2.500084e-05
2.5570772e-05
2.6105759e-05
2.6611678e-05
2.7092126e-05
2.7548956e-05
2.7983359e-05
2.8396929e-05
2.8791996e-05
2.9167564e-05
2.9522082e-05
2.9856414e-05
3.0172362e-05
3.047168e-05
3.0755782e-05
3.1025722e-05
3.1282641e-05
3.1526366e-05
3.1756236e-05
3.197274e-05
3.2176916e-05
3.2369805e-05
3.2552236e-05
3.2725206e-05
3.2888391e-05
3.3041388e-05
3.3184651e-05
3.3319056e-05
3.3445334e-05
3.3564372e-05
3.3675865e-05
3.3779479e-05
3.3875616e-05
3.3964986e-05
3.4048348e-05
3.4125874e-05
3.4197e-05
3.4262568e-05
3.4320747e-05
3.4378523e-05
3.441567e-05
3.448385e-05
3.0326649e-09
3.0338744e-09
3.0351359e-09
3.0363753e-09
3.0375749e-09
3.0387296e-09
3.0398377e-09
3.0408979e-09
3.0419099e-09
3.0428677e-09
3.0437871e-09
3.0445994e-09
3.0455144e-09
3.0460087e-09
3.0463404e-09
3.0473034e-09
3.0490623e-09
3.0528699e-09
3.0680182e-09
3.1249569e-09
3.2930601e-09
3.7136983e-09
4.6469397e-09
6.5329377e-09
1.0046608e-08
1.6142328e-08
2.6084833e-08
4.1557376e-08
6.4861535e-08
9.9083878e-08
1.4869936e-07
2.1987399e-07
3.2142032e-07
4.6056477e-07
6.4448109e-07
8.7631767e-07
1.1571564e-06
1.4729127e-06
1.8392397e-06
2.2218689e-06
2.6280299e-06
3.1153911e-06
3.7174303e-06
4.443433e-06
5.2972719e-06
6.3019935e-06
7.4870201e-06
8.845438e-06
9.9544425e-06
1.1148832e-05
1.2417904e-05
1.3748265e-05
1.5109682e-05
1.6490993e-05
1.7874105e-05
1.9241165e-05
2.0592747e-05
2.1877935e-05
2.311348e-05
2.431263e-05
2.5470974e-05
2.6581162e-05
2.7628906e-05
2.8621264e-05
2.9570768e-05
3.0484256e-05
3.1367602e-05
3.2137024e-05
3.2825858e-05
3.3480872e-05
3.4106125e-05
3.4704219e-05
3.527659e-05
3.5824351e-05
3.6349447e-05
3.6850916e-05
3.7327245e-05
3.7779699e-05
3.8210262e-05
3.8620674e-05
3.9012225e-05
3.9386431e-05
3.9742578e-05
4.0080285e-05
4.0400476e-05
4.0704479e-05
4.0993378e-05
4.1268504e-05
4.1529325e-05
4.1775684e-05
4.2008386e-05
4.2228475e-05
4.2437028e-05
4.2634219e-05
4.2819434e-05
4.2994172e-05
4.3155555e-05
4.3316054e-05
4.343372e-05
4.3644116e-05
3.0404952e-09
3.0417712e-09
3.04311e-09
3.0444336e-09
3.0457223e-09
3.046971e-09
3.0481779e-09
3.0493419e-09
3.0504626e-09
3.0515393e-09
3.0525724e-09
3.053562e-09
3.0545138e-09
3.055426e-09
3.0563389e-09
3.0569204e-09
3.0572547e-09
3.0576082e-09
3.0582477e-09
3.0591926e-09
3.0606224e-09
3.0627139e-09
3.06575e-09
3.0707466e-09
3.0796198e-09
3.0962858e-09
3.1269778e-09
3.1823397e-09
3.2800547e-09
3.4501687e-09
3.7461404e-09
4.2670531e-09
5.2051401e-09
6.9382686e-09
1.0230513e-08
1.6541614e-08
2.8817723e-08
5.2034709e-08
9.6046519e-08
1.7711311e-07
3.1683864e-07
5.3833077e-07
8.677108e-07
1.298531e-06
1.8533979e-06
2.4328067e-06
3.0033711e-06
3.6699443e-06
4.4615467e-06
5.402598e-06
6.5329453e-06
7.8651451e-06
9.4389706e-06
1.074754e-05
1.203013e-05
1.3400261e-05
1.4847364e-05
1.6344188e-05
1.7890656e-05
1.9461393e-05
2.1032532e-05
2.2577545e-05
2.4051899e-05
2.5517575e-05
2.6973627e-05
2.8405915e-05
2.9787496e-05
3.1109474e-05
3.2377558e-05
3.3599364e-05
3.4777999e-05
3.590653e-05
3.6984876e-05
3.801941e-05
3.9021246e-05
3.9915702e-05
4.0718772e-05
4.1486864e-05
4.2223137e-05
4.2929745e-05
4.3608017e-05
4.4260028e-05
4.4883307e-05
4.5477376e-05
4.6044156e-05
4.6585743e-05
4.7103688e-05
4.7599849e-05
4.8073036e-05
4.8523227e-05
4.8951731e-05
4.936003e-05
4.9749625e-05
5.0120639e-05
5.0472409e-05
5.0807158e-05
5.1120797e-05
5.1432644e-05
5.1672276e-05
5.2093899e-05
3.0364095e-09
3.0376985e-09
3.0390516e-09
3.0403908e-09
3.0416965e-09
3.0429635e-09
3.04419e-09
3.0453752e-09
3.0465185e-09
3.0476198e-09
3.0486796e-09
3.0496994e-09
3.0506835e-09
3.0516392e-09
3.052572e-09
3.0534755e-09
3.054338e-09
3.0551458e-09
3.0558914e-09
3.0564101e-09
3.0566538e-09
3.0568153e-09
3.0569761e-09
3.0572057e-09
3.0576862e-09
3.0582818e-09
3.0590115e-09
3.060088e-09
3.0614491e-09
3.0631331e-09
3.0654203e-09
3.0684204e-09
3.0726375e-09
3.0791174e-09
3.0902518e-09
3.1109865e-09
3.152173e-09
3.2363614e-09
3.4160018e-09
3.8165045e-09
4.7713238e-09
7.0878089e-09
1.3094182e-08
2.7880228e-08
6.4843183e-08
1.5093425e-07
3.2325011e-07
6.3108679e-07
1.0979261e-06
1.7512187e-06
2.4813264e-06
3.163248e-06
3.9425248e-06
4.856479e-06
5.9625354e-06
7.3056825e-06
8.885296e-06
1.0740901e-05
1.2206047e-05
1.360009e-05
1.509787e-05
1.6685162e-05
1.8335507e-05
2.0051052e-05
2.1793736e-05
2.3543281e-05
2.522905e-05
2.6922074e-05
2.8633879e-05
3.0339351e-05
3.1995676e-05
3.3599297e-05
3.5163648e-05
3.6694089e-05
3.8187477e-05
3.9623744e-05
4.0995368e-05
4.2312372e-05
4.3581214e-05
4.4800793e-05
4.5971353e-05
4.7102791e-05
4.809298e-05
4.9010837e-05
4.9891695e-05
5.0738182e-05
5.1551997e-05
5.2335461e-05
5.3085061e-05
5.3801284e-05
5.4486485e-05
5.5142726e-05
5.5772017e-05
5.6374056e-05
5.6947938e-05
5.7496711e-05
5.80151e-05
5.8530446e-05
5.8937515e-05
5.9644948e-05
3.0351669e-09
3.0364468e-09
3.0377892e-09
3.0391164e-09
3.0404092e-09
3.0416623e-09
3.042874e-09
3.0440434e-09
3.0451699e-09
3.046253e-09
3.0472927e-09
3.0482894e-09
3.0492446e-09
3.0501601e-09
3.051036e-09
3.0518709e-09
3.0526639e-09
3.0534138e-09
3.0541194e-09
3.0547761e-09
3.0553756e-09
3.0559118e-09
3.0563801e-09
3.0567734e-09
3.0570845e-09
3.0572853e-09
3.0573407e-09
3.0570934e-09
3.0566995e-09
3.056259e-09
3.0558156e-09
3.0554045e-09
3.0550655e-09
3.0549105e-09
3.0549847e-09
3.0551996e-09
3.0556271e-09
3.0565971e-09
3.0580174e-09
3.0603399e-09
3.0640476e-09
3.070811e-09
3.0863685e-09
3.1260962e-09
3.2334937e-09
3.553962e-09
4.5029413e-09
7.5533134e-09
1.6939104e-08
4.5321889e-08
1.2558548e-07
3.0571958e-07
6.5779871e-07
1.2043179e-06
2.0074288e-06
2.8035318e-06
3.6131873e-06
4.5771673e-06
5.7371916e-06
7.1431674e-06
8.8255524e-06
1.0789773e-05
1.2907655e-05
1.4348152e-05
1.5908014e-05
1.7581752e-05
1.9339387e-05
2.1188548e-05
2.3092351e-05
2.502325e-05
2.6901673e-05
2.8807132e-05
3.0746582e-05
3.2687086e-05
3.4581916e-05
3.6445468e-05
3.8289642e-05
4.0104844e-05
4.1872976e-05
4.3584911e-05
4.5244346e-05
4.6861199e-05
4.8416757e-05
4.9901937e-05
5.1326023e-05
5.2697357e-05
5.4016864e-05
5.5291532e-05
5.6395032e-05
5.7436798e-05
5.8438479e-05
5.9402324e-05
6.0330747e-05
6.1221714e-05
6.2073975e-05
6.2891991e-05
6.3669471e-05
6.4442623e-05
6.5065233e-05
6.6136676e-05
3.0364035e-09
3.0376803e-09
3.0390192e-09
3.0403424e-09
3.0416307e-09
3.042879e-09
3.0440855e-09
3.0452492e-09
3.0463694e-09
3.0474457e-09
3.0484775e-09
3.0494649e-09
3.0504083e-09
3.051308e-09
3.052163e-09
3.0529715e-09
3.0537318e-09
3.0544434e-09
3.0551055e-09
3.0557183e-09
3.056282e-09
3.0567962e-09
3.0572602e-09
3.0576728e-09
3.0580317e-09
3.0583342e-09
3.0585777e-09
3.0587543e-09
3.0588582e-09
3.0588863e-09
3.058836e-09
3.0587055e-09
3.0584922e-09
3.058192e-09
3.0577957e-09
3.0572702e-09
3.056559e-09
3.055454e-09
3.0542499e-09
3.0530543e-09
3.0519297e-09
3.0510734e-09
3.0506459e-09
3.050463e-09
3.0511364e-09
3.0526537e-09
3.0559337e-09
3.063121e-09
3.0852134e-09
3.1515065e-09
3.410243e-09
4.2477467e-09
7.6259525e-09
1.8686831e-08
5.8368665e-08
1.7325332e-07
4.3597307e-07
9.1763894e-07
1.7159667e-06
2.642138e-06
3.5489691e-06
4.5673346e-06
5.8518028e-06
7.4057184e-06
9.2713984e-06
1.1442009e-05
1.3896641e-05
1.5603405e-05
1.7271919e-05
1.9068638e-05
2.0963418e-05
2.296513e-05
2.5030226e-05
2.7117496e-05
2.9166686e-05
3.1286539e-05
3.3459604e-05
3.5629761e-05
3.7770129e-05
3.9890248e-05
4.1991775e-05
4.4060988e-05
4.6089917e-05
4.8070523e-05
5.0003454e-05
5.188019e-05
5.3693686e-05
5.5453045e-05
5.7141624e-05
5.8756168e-05
6.0303988e-05
6.1793733e-05
6.3233702e-05
6.4520607e-05
6.5705195e-05
6.6846869e-05
6.7937988e-05
6.9023824e-05
6.9910921e-05
7.1425749e-05
3.0379234e-09
3.0392011e-09
3.0405409e-09
3.0418651e-09
3.0431545e-09
3.0444038e-09
3.0456113e-09
3.0467761e-09
3.0478974e-09
3.0489747e-09
3.0500076e-09
3.050996e-09
3.0519403e-09
3.0528406e-09
3.0536962e-09
3.0545055e-09
3.0552668e-09
3.0559792e-09
3.056642e-09
3.0572543e-09
3.0578157e-09
3.0583255e-09
3.0587833e-09
3.0591887e-09
3.0595412e-09
3.0598404e-09
3.0600859e-09
3.0602781e-09
3.0604168e-09
3.060501e-09
3.0605299e-09
3.060502e-09
3.0604159e-09
3.0602694e-09
3.0600602e-09
3.0597852e-09
3.0594414e-09
3.0590174e-09
3.0585071e-09
3.0579066e-09
3.0572109e-09
3.0564179e-09
3.0554978e-09
3.054428e-09
3.0527354e-09
3.0509004e-09
3.0490875e-09
3.0477095e-09
3.0468943e-09
3.0465943e-09
3.047552e-09
3.0502381e-09
3.0583028e-09
3.0811922e-09
3.1792374e-09
3.5478181e-09
5.1823837e-09
1.1270499e-08
3.6658997e-08
1.2495196e-07
3.6146527e-07
8.2680422e-07
1.6738914e-06
2.697305e-06
3.7207685e-06
4.8711712e-06
6.3419714e-06
8.1443205e-06
1.0311499e-05
1.2792663e-05
1.5531525e-05
1.7397551e-05
1.9223694e-05
2.1178306e-05
2.3237534e-05
2.5406055e-05
2.7642472e-05
2.9880287e-05
3.215836e-05
3.4517504e-05
3.6914731e-05
3.9293869e-05
4.1669948e-05
4.4050566e-05
4.6417394e-05
4.8740583e-05
5.1013611e-05
5.3243868e-05
5.5434545e-05
5.7562914e-05
5.962575e-05
6.1624162e-05
6.3559368e-05
6.5415692e-05
6.7190456e-05
6.8892697e-05
7.0526066e-05
7.2130118e-05
7.3347702e-05
7.5383561e-05
3.0395745e-09
3.0408528e-09
3.0421932e-09
3.0435179e-09
3.0448078e-09
3.0460576e-09
3.0472655e-09
3.0484307e-09
3.0495523e-09
3.0506299e-09
3.051663e-09
3.0526514e-09
3.0535952e-09
3.0544945e-09
3.0553487e-09
3.0561563e-09
3.0569161e-09
3.057627e-09
3.0582883e-09
3.0588994e-09
3.0594597e-09
3.0599684e-09
3.0604251e-09
3.0608291e-09
3.0611799e-09
3.061477e-09
3.0617198e-09
3.0619079e-09
3.0620408e-09
3.0621184e-09
3.0621401e-09
3.0621059e-09
3.0620153e-09
3.0618681e-09
3.061664e-09
3.061403e-09
3.061085e-09
3.0607108e-09
3.0602804e-09
3.0597928e-09
3.0592465e-09
3.0586397e-09
3.0579674e-09
3.0572288e-09
3.0564045e-09
3.055484e-09
3.0544568e-09
3.053318e-09
3.052039e-09
3.0504339e-09
3.0481874e-09
3.0458658e-09
3.0440388e-09
3.0428573e-09
3.0426218e-09
3.043671e-09
3.0482747e-09
3.0603426e-09
3.1155282e-09
3.353674e-09
4.5320814e-09
9.6233071e-09
3.267717e-08
1.228777e-07
3.858324e-07
9.1297304e-07
1.9154675e-06
3.007839e-06
4.1808903e-06
5.5617436e-06
7.3503459e-06
9.5314852e-06
1.2119813e-05
1.4990944e-05
1.7912852e-05
1.9801628e-05
2.1824084e-05
2.3964215e-05
2.6221231e-05
2.8576215e-05
3.0984556e-05
3.3401103e-05
3.5931117e-05
3.854323e-05
4.1158626e-05
4.3783071e-05
4.6423128e-05
4.9058565e-05
5.1668069e-05
5.4242143e-05
5.6779599e-05
5.9261658e-05
6.1676832e-05
6.4039257e-05
6.6340919e-05
6.8566834e-05
7.0714586e-05
7.2822251e-05
7.465221e-05
7.7551143e-05
3.0415667e-09
3.0428453e-09
3.044186e-09
3.0455111e-09
3.0468011e-09
3.0480509e-09
3.0492588e-09
3.0504238e-09
3.0515452e-09
3.0526223e-09
3.0536548e-09
3.0546422e-09
3.0555845e-09
3.0564815e-09
3.0573326e-09
3.0581365e-09
3.058892e-09
3.0595983e-09
3.0602547e-09
3.0608605e-09
3.0614153e-09
3.0619183e-09
3.0623691e-09
3.0627671e-09
3.0631118e-09
3.0634027e-09
3.0636391e-09
3.0638207e-09
3.0639469e-09
3.0640174e-09
3.0640315e-09
3.0639891e-09
3.0638897e-09
3.063733e-09
3.0635188e-09
3.0632469e-09
3.0629171e-09
3.0625294e-09
3.0620838e-09
3.0615803e-09
3.0610193e-09
3.0604007e-09
3.0597247e-09
3.0589914e-09
3.058203e-09
3.0573597e-09
3.0564607e-09
3.055503e-09
3.0544813e-09
3.0533887e-09
3.0521993e-09
3.0508999e-09
3.0494638e-09
3.0479171e-09
3.0457984e-09
3.0431128e-09
3.0404088e-09
3.0387971e-09
3.0377527e-09
3.0382598e-09
3.0416173e-09
3.0526276e-09
3.0949793e-09
3.3488387e-09
4.723829e-09
1.1178545e-08
4.2284214e-08
1.6918801e-07
5.2107413e-07
1.2642623e-06
2.4724065e-06
3.7236544e-06
5.1208073e-06
6.870617e-06
9.12648e-06
1.1873095e-05
1.4927765e-05
1.8174189e-05
2.0739445e-05
2.2870215e-05
2.5119768e-05
2.7473441e-05
2.9949007e-05
3.2515484e-05
3.5076253e-05
3.7783151e-05
4.0602665e-05
4.3443888e-05
4.6311325e-05
4.921488e-05
5.2129934e-05
5.5018209e-05
5.7869828e-05
6.0694053e-05
6.3473593e-05
6.6190494e-05
6.8836119e-05
7.1442957e-05
7.3765004e-05
7.7488292e-05
3.04374e-09
3.0450194e-09
3.0463609e-09
3.0476867e-09
3.0489775e-09
3.050228e-09
3.0514366e-09
3.0526021e-09
3.053724e-09
3.0548015e-09
3.0558343e-09
3.0568218e-09
3.0577639e-09
3.0586603e-09
3.0595103e-09
3.0603129e-09
3.061067e-09
3.0617716e-09
3.0624261e-09
3.06303e-09
3.0635825e-09
3.0640832e-09
3.0645314e-09
3.0649266e-09
3.0652683e-09
3.065556e-09
3.065789e-09
3.065967e-09
3.0660895e-09
3.0661559e-09
3.066166e-09
3.0661193e-09
3.0660154e-09
3.065854e-09
3.0656348e-09
3.0653575e-09
3.065022e-09
3.0646281e-09
3.0641755e-09
3.0636643e-09
3.0630943e-09
3.0624656e-09
3.0617782e-09
3.0610321e-09
3.0602277e-09
3.0593653e-09
3.0584453e-09
3.0574682e-09
3.0564346e-09
3.0553452e-09
3.0542028e-09
3.0530079e-09
3.0517559e-09
3.0504438e-09
3.0490528e-09
3.0475579e-09
3.0459276e-09
3.0441652e-09
3.0421727e-09
3.039157e-09
3.0359595e-09
3.0340433e-09
3.0326064e-09
3.0330151e-09
3.0365074e-09
3.0506098e-09
3.1063986e-09
3.5276399e-09
5.9056424e-09
1.8667599e-08
7.9377814e-08
3.1633411e-07
8.8126936e-07
2.056554e-06
3.4028703e-06
4.8927727e-06
6.7224679e-06
9.0760954e-06
1.2029951e-05
1.5328005e-05
1.8810447e-05
2.2070241e-05
2.4340197e-05
2.6714322e-05
2.9178325e-05
3.1785993e-05
3.4503943e-05
3.7233074e-05
4.0125046e-05
4.3153548e-05
4.6221513e-05
4.9338212e-05
5.2505014e-05
5.5690211e-05
5.8860997e-05
6.2010199e-05
6.5118225e-05
6.8209577e-05
7.0970866e-05
7.5481642e-05
3.0458508e-09
3.0471314e-09
3.0484741e-09
3.0498011e-09
3.051093e-09
3.0523448e-09
3.0535544e-09
3.0547212e-09
3.0558442e-09
3.0569229e-09
3.0579568e-09
3.0589454e-09
3.0598884e-09
3.0607856e-09
3.0616364e-09
3.0624398e-09
3.0631948e-09
3.0639004e-09
3.0645561e-09
3.0651611e-09
3.0657148e-09
3.0662167e-09
3.066666e-09
3.0670624e-09
3.0674051e-09
3.0676937e-09
3.0679277e-09
3.0681066e-09
3.0682298e-09
3.0682969e-09
3.0683074e-09
3.0682611e-09
3.0681575e-09
3.0679963e-09
3.0677772e-09
3.0674999e-09
3.0671642e-09
3.06677e-09
3.066317e-09
3.0658052e-09
3.0652344e-09
3.0646046e-09
3.0639159e-09
3.0631682e-09
3.0623615e-09
3.061496e-09
3.0605718e-09
3.059589e-09
3.0585479e-09
3.0574487e-09
3.0562921e-09
3.0550787e-09
3.0538095e-09
3.0524846e-09
3.0511064e-09
3.0496776e-09
3.0481986e-09
3.0466601e-09
3.045059e-09
3.0433543e-09
3.041514e-09
3.0395142e-09
3.0373966e-09
3.0340247e-09
3.0305264e-09
3.0284285e-09
3.0270223e-09
3.0275228e-09
3.0337577e-09
3.0534423e-09
3.2082045e-09
4.2982888e-09
1.0713965e-08
4.867569e-08
2.1575863e-07
6.9335212e-07
1.8413645e-06
3.2776951e-06
4.8918001e-06
6.8734935e-06
9.4029024e-06
1.2651803e-05
1.6250915e-05
2.0000573e-05
2.3796933e-05
2.6238101e-05
2.874958e-05
3.1346387e-05
3.4097925e-05
3.697314e-05
3.9875915e-05
4.2981989e-05
4.6238249e-05
4.954943e-05
5.2929448e-05
5.6372994e-05
5.9828391e-05
6.3326268e-05
6.6473245e-05
7.1714133e-05
3.047825e-09
3.0491066e-09
3.0504505e-09
3.0517787e-09
3.0530719e-09
3.0543248e-09
3.0555356e-09
3.0567035e-09
3.0578277e-09
3.0589076e-09
3.0599427e-09
3.0609324e-09
3.0618766e-09
3.0627747e-09
3.0636264e-09
3.0644308e-09
3.0651868e-09
3.0658937e-09
3.0665507e-09
3.0671572e-09
3.0677125e-09
3.0682159e-09
3.068667e-09
3.069065e-09
3.0694095e-09
3.0696999e-09
3.0699357e-09
3.0701163e-09
3.0702412e-09
3.0703101e-09
3.0703225e-09
3.0702779e-09
3.070176e-09
3.0700166e-09
3.0697991e-09
3.0695235e-09
3.0691895e-09
3.0687968e-09
3.0683454e-09
3.0678352e-09
3.0672659e-09
3.0666377e-09
3.0659505e-09
3.0652042e-09
3.064399e-09
3.063535e-09
3.0626122e-09
3.0616307e-09
3.0605908e-09
3.0594927e-09
3.0583365e-09
3.0571226e-09
3.0558512e-09
3.0545227e-09
3.0531376e-09
3.0516966e-09
3.0502008e-09
3.0486512e-09
3.0470483e-09
3.0453969e-09
3.0436999e-09
3.0419443e-09
3.0401331e-09
3.0382136e-09
3.0361488e-09
3.0339201e-09
3.0314578e-09
3.0277409e-09
3.024186e-09
3.0219658e-09
3.0210034e-09
3.0246462e-09
3.0336654e-09
3.1129142e-09
3.7534152e-09
7.9502396e-09
3.7465726e-08
1.7793279e-07
6.2974011e-07
1.8272551e-06
3.3779796e-06
5.1550237e-06
7.3619444e-06
1.0194214e-05
1.3818128e-05
1.7764052e-05
2.1801765e-05
2.5855778e-05
2.8548113e-05
3.1215496e-05
3.3975332e-05
3.6904301e-05
3.9953585e-05
4.3073356e-05
4.6416291e-05
4.990505e-05
5.3467887e-05
5.7189318e-05
6.0581616e-05
6.6397901e-05
3.049668e-09
3.0509507e-09
3.0522956e-09
3.0536249e-09
3.0549191e-09
3.0561731e-09
3.057385e-09
3.058554e-09
3.0596793e-09
3.0607602e-09
3.0617963e-09
3.062787e-09
3.0637321e-09
3.0646311e-09
3.0654834e-09
3.0662885e-09
3.0670454e-09
3.0677531e-09
3.0684111e-09
3.0690186e-09
3.0695749e-09
3.0700795e-09
3.0705317e-09
3.0709309e-09
3.0712766e-09
3.0715682e-09
3.0718052e-09
3.071987e-09
3.0721132e-09
3.0721834e-09
3.072197e-09
3.0721537e-09
3.0720531e-09
3.0718949e-09
3.0716787e-09
3.0714044e-09
3.0710716e-09
3.0706802e-09
3.0702301e-09
3.0697211e-09
3.0691531e-09
3.0685261e-09
3.0678401e-09
3.0670952e-09
3.0662913e-09
3.0654285e-09
3.0645071e-09
3.063527e-09
3.0624886e-09
3.0613919e-09
3.0602373e-09
3.059025e-09
3.0577553e-09
3.0564285e-09
3.0550448e-09
3.0536047e-09
3.0521086e-09
3.0505569e-09
3.04895e-09
3.0472889e-09
3.0455747e-09
3.043809e-09
3.0419916e-09
3.040129e-09
3.0382236e-09
3.0362624e-09
3.03424e-09
3.0321097e-09
3.0297814e-09
3.0274258e-09
3.0239629e-09
3.01961e-09
3.0173308e-09
3.0141561e-09
3.021936e-09
3.0042355e-09
3.0768937e-09
3.581022e-09
7.1810192e-09
3.6553259e-08
1.8184053e-07
6.751353e-07
2.0369672e-06
3.7550172e-06
5.7387097e-06
8.2524657e-06
1.1568735e-05
1.5613901e-05
1.991584e-05
2.4239936e-05
2.8522551e-05
3.1331953e-05
3.4160013e-05
3.7103758e-05
4.0223516e-05
4.3451342e-05
4.6827973e-05
5.050954e-05
5.388327e-05
5.9960031e-05
3.05139e-09
3.0526736e-09
3.0540195e-09
3.0553498e-09
3.056645e-09
3.0579e-09
3.0591129e-09
3.0602829e-09
3.0614091e-09
3.062491e-09
3.063528e-09
3.0645197e-09
3.0654655e-09
3.0663652e-09
3.0672183e-09
3.0680239e-09
3.0687813e-09
3.0694898e-09
3.0701484e-09
3.0707567e-09
3.0713138e-09
3.0718192e-09
3.0722722e-09
3.0726723e-09
3.0730188e-09
3.0733113e-09
3.0735491e-09
3.0737318e-09
3.0738589e-09
3.0739299e-09
3.0739444e-09
3.0739019e-09
3.0738021e-09
3.0736447e-09
3.0734294e-09
3.0731558e-09
3.0728238e-09
3.0724332e-09
3.0719838e-09
3.0714755e-09
3.0709083e-09
3.070282e-09
3.0695968e-09
3.0688525e-09
3.0680493e-09
3.0671873e-09
3.0662665e-09
3.0652872e-09
3.0642494e-09
3.0631535e-09
3.0619996e-09
3.0607881e-09
3.0595192e-09
3.0581932e-09
3.0568105e-09
3.0553714e-09
3.0538763e-09
3.0523257e-09
3.0507199e-09
3.0490594e-09
3.0473447e-09
3.0455764e-09
3.0437549e-09
3.0418814e-09
3.0399573e-09
3.0379843e-09
3.0359625e-09
3.0339002e-09
3.0317941e-09
3.0296392e-09
3.0274074e-09
3.0249854e-09
3.0224538e-09
3.0196182e-09
3.0145303e-09
3.0114272e-09
3.0074316e-09
3.0153448e-09
2.9940672e-09
3.0686217e-09
3.5987267e-09
7.7674244e-09
4.5293272e-08
2.312121e-07
8.6945935e-07
2.495268e-06
4.4418891e-06
6.7579151e-06
9.7238455e-06
1.3611532e-05
1.8096941e-05
2.2739436e-05
2.7347683e-05
3.157147e-05
3.4561039e-05
3.7584019e-05
4.0748409e-05
4.4142539e-05
4.7208154e-05
5.3120694e-05
3.052999e-09
3.0542835e-09
3.0556304e-09
3.0569616e-09
3.0582577e-09
3.0595136e-09
3.0607275e-09
3.0618983e-09
3.0630255e-09
3.0641082e-09
3.0651461e-09
3.0661386e-09
3.0670852e-09
3.0679856e-09
3.0688392e-09
3.0696453e-09
3.0704032e-09
3.0711122e-09
3.0717714e-09
3.0723802e-09
3.0729379e-09
3.0734439e-09
3.0738976e-09
3.0742983e-09
3.0746455e-09
3.0749386e-09
3.0751771e-09
3.0753604e-09
3.0754881e-09
3.0755597e-09
3.0755748e-09
3.0755329e-09
3.0754337e-09
3.0752769e-09
3.0750621e-09
3.0747891e-09
3.0744576e-09
3.0740675e-09
3.0736186e-09
3.0731108e-09
3.072544e-09
3.0719182e-09
3.0712334e-09
3.0704895e-09
3.0696867e-09
3.068825e-09
3.0679046e-09
3.0669256e-09
3.0658882e-09
3.0647926e-09
3.0636391e-09
3.0624278e-09
3.0611592e-09
3.0598335e-09
3.0584511e-09
3.0570124e-09
3.0555176e-09
3.0539673e-09
3.0523619e-09
3.0507019e-09
3.0489877e-09
3.0472199e-09
3.045399e-09
3.0435255e-09
3.0416e-09
3.0396232e-09
3.0375958e-09
3.0355189e-09
3.0333949e-09
3.0312235e-09
3.0290105e-09
3.0267656e-09
3.0244605e-09
3.0221433e-09
3.019559e-09
3.0170068e-09
3.0142969e-09
3.0088355e-09
3.0053655e-09
3.0011413e-09
3.0086539e-09
2.9892727e-09
3.0856176e-09
3.843122e-09
1.0538949e-08
7.1680334e-08
3.573541e-07
1.3825861e-06
3.2521104e-06
5.4590253e-06
8.2254676e-06
1.1884069e-05
1.6409054e-05
2.1352959e-05
2.6304841e-05
3.1200075e-05
3.5143421e-05
3.8345779e-05
4.1259762e-05
4.6693682e-05
3.0545028e-09
3.0557881e-09
3.0571358e-09
3.0584679e-09
3.0597649e-09
3.0610217e-09
3.0622364e-09
3.0634081e-09
3.064536e-09
3.0656196e-09
3.0666583e-09
3.0676515e-09
3.0685988e-09
3.0694998e-09
3.0703538e-09
3.0711604e-09
3.0719187e-09
3.0726281e-09
3.0732877e-09
3.073897e-09
3.0744551e-09
3.0749616e-09
3.0754157e-09
3.0758168e-09
3.0761645e-09
3.076458e-09
3.0766969e-09
3.0768807e-09
3.0770089e-09
3.0770809e-09
3.0770964e-09
3.0770549e-09
3.0769562e-09
3.0767997e-09
3.0765853e-09
3.0763126e-09
3.0759815e-09
3.0755917e-09
3.0751431e-09
3.0746356e-09
3.0740691e-09
3.0734435e-09
3.0727589e-09
3.0720153e-09
3.0712126e-09
3.0703511e-09
3.0694309e-09
3.068452e-09
3.0674147e-09
3.0663192e-09
3.0651658e-09
3.0639546e-09
3.0626861e-09
3.0613604e-09
3.0599781e-09
3.0585393e-09
3.0570446e-09
3.0554943e-09
3.0538889e-09
3.0522288e-09
3.0505147e-09
3.0487469e-09
3.046926e-09
3.0450526e-09
3.0431273e-09
3.0411507e-09
3.0391234e-09
3.037046e-09
3.0349191e-09
3.0327437e-09
3.0305203e-09
3.0282516e-09
3.0259385e-09
3.0235821e-09
3.0211979e-09
3.0187617e-09
3.0163395e-09
3.0136305e-09
3.0109819e-09
3.0081448e-09
3.0024981e-09
2.9987081e-09
2.9952697e-09
3.0007172e-09
2.9944811e-09
3.1574316e-09
4.637709e-09
2.0928584e-08
1.4293434e-07
6.4103552e-07
2.2435036e-06
4.4521835e-06
7.0650639e-06
1.046272e-05
1.4954898e-05
2.0080252e-05
2.5377463e-05
3.0716541e-05
3.5388255e-05
4.0837936e-05
3.0559084e-09
3.0571945e-09
3.0585431e-09
3.059876e-09
3.0611738e-09
3.0624313e-09
3.0636468e-09
3.0648193e-09
3.065948e-09
3.0670324e-09
3.0680717e-09
3.0690657e-09
3.0700136e-09
3.070915e-09
3.0717695e-09
3.0725765e-09
3.0733351e-09
3.0740448e-09
3.0747047e-09
3.0753142e-09
3.0758727e-09
3.0763794e-09
3.0768338e-09
3.0772353e-09
3.0775832e-09
3.077877e-09
3.0781162e-09
3.0783003e-09
3.0784287e-09
3.078501e-09
3.0785167e-09
3.0784755e-09
3.0783769e-09
3.0782207e-09
3.0780065e-09
3.077734e-09
3.077403e-09
3.0770134e-09
3.0765649e-09
3.0760575e-09
3.0754911e-09
3.0748656e-09
3.0741811e-09
3.0734375e-09
3.0726349e-09
3.0717734e-09
3.0708531e-09
3.0698742e-09
3.0688369e-09
3.0677413e-09
3.0665877e-09
3.0653765e-09
3.0641078e-09
3.062782e-09
3.0613994e-09
3.0599605e-09
3.0584656e-09
3.0569151e-09
3.0553094e-09
3.0536492e-09
3.0519347e-09
3.0501667e-09
3.0483455e-09
3.0464718e-09
3.0445463e-09
3.0425694e-09
3.0405418e-09
3.0384643e-09
3.0363373e-09
3.0341617e-09
3.0319382e-09
3.0296672e-09
3.02735e-09
3.0249865e-09
3.02258e-09
3.0201311e-09
3.01764e-09
3.0151255e-09
3.0125643e-09
3.0100247e-09
3.0071845e-09
3.0044436e-09
3.0012317e-09
2.9956311e-09
2.9920103e-09
2.9902998e-09
2.9934076e-09
3.0115838e-09
3.4135373e-09
7.3241347e-09
5.3801803e-08
3.2712806e-07
1.3717547e-06
3.4620491e-06
6.035827e-06
9.3063362e-06
1.3714476e-05
1.9116849e-05
2.4197052e-05
3.2952042e-05
3.0572228e-09
3.0585096e-09
3.059859e-09
3.0611926e-09
3.0624912e-09
3.0637495e-09
3.0649657e-09
3.0661388e-09
3.0672682e-09
3.0683533e-09
3.0693933e-09
3.0703879e-09
3.0713363e-09
3.0722383e-09
3.0730931e-09
3.0739003e-09
3.0746592e-09
3.0753691e-09
3.0760292e-09
3.0766389e-09
3.0771976e-09
3.0777045e-09
3.078159e-09
3.0785606e-09
3.0789087e-09
3.0792027e-09
3.079442e-09
3.0796262e-09
3.0797547e-09
3.0798271e-09
3.079843e-09
3.0798018e-09
3.0797033e-09
3.0795472e-09
3.079333e-09
3.0790605e-09
3.0787296e-09
3.07834e-09
3.0778915e-09
3.0773841e-09
3.0768176e-09
3.076192e-09
3.0755074e-09
3.0747637e-09
3.0739609e-09
3.0730993e-09
3.0721788e-09
3.0711997e-09
3.0701621e-09
3.0690663e-09
3.0679125e-09
3.0667009e-09
3.0654319e-09
3.0641058e-09
3.0627229e-09
3.0612836e-09
3.0597883e-09
3.0582374e-09
3.0566313e-09
3.0549706e-09
3.0532557e-09
3.0514871e-09
3.0496655e-09
3.0477913e-09
3.0458652e-09
3.0438878e-09
3.0418597e-09
3.0397815e-09
3.037654e-09
3.0354779e-09
3.0332539e-09
3.0309826e-09
3.0286648e-09
3.0263013e-09
3.0238927e-09
3.02144e-09
3.0189432e-09
3.0164058e-09
3.0138281e-09
3.0112114e-09
3.0085731e-09
3.0058976e-09
3.0032296e-09
3.0002508e-09
2.9974908e-09
2.9932383e-09
2.9885141e-09
2.9832679e-09
2.9907924e-09
2.9683621e-09
3.0921901e-09
4.4015812e-09
2.0431974e-08
1.6029231e-07
7.8656494e-07
2.7150568e-06
5.2698078e-06
8.7001313e-06
1.2214084e-05
2.1128807e-05
3.0584504e-09
3.0597379e-09
3.0610879e-09
3.0624223e-09
3.0637216e-09
3.0649805e-09
3.0661974e-09
3.0673713e-09
3.0685013e-09
3.069587e-09
3.0706277e-09
3.0716227e-09