/*--------------------------------*- C++ -*----------------------------------*\
  =========                 |
  \\      /  F ield         | OpenFOAM: The Open Source CFD Toolbox
   \\    /   O peration     | Website:  https://openfoam.org
    \\  /    A nd           | Version:  12
     \\/     M anipulation  |
\*---------------------------------------------------------------------------*/
FoamFile
{
    format      ascii;
    class       volScalarField;
    location    "1000";
    object      p;
}
// * * * * * * * * * * * * * * * * * * * * * * * * * * * * * * * * * * * * * //

dimensions      [0 2 -2 0 0 0 0];

internalField   nonuniform List<scalar> 
7480
(
0.0053224099
0.0052834211
0.0051751399
0.0051426529
0.0051597046
0.0051941251
0.0052419592
0.0053069633
0.0053955314
0.0055147026
0.0056850929
0.0059235991
0.0063922847
0.0068176603
0.0067599313
0.0063258587
0.0058585447
0.0054884745
0.0051728765
0.0048906484
0.0046449501
0.0044348892
0.0042572622
0.0040905108
0.0039237392
0.0037618187
0.0036086304
0.0034772791
0.0033647612
0.0032576543
0.0031596353
0.0030739184
0.00299956
0.0029356435
0.0028806602
0.0028328425
0.0027906304
0.002754122
0.0027221405
0.0026920583
0.0026634474
0.0026364041
0.0026110692
0.0025861263
0.0025598111
0.0025319821
0.0025030904
0.0024743448
0.0024451017
0.0024141972
0.0023810491
0.002345201
0.0023083661
0.0022710168
0.0022319053
0.0021912077
0.0021500159
0.0021100437
0.0020706762
0.0020298438
0.0019880319
0.0019462665
0.001905592
0.0018648405
0.0018227732
0.0017805781
0.0017395123
0.001698603
0.0016563415
0.001613427
0.0015709162
0.0015280431
0.0014839915
0.00143949
0.0013952382
0.0013505695
0.0013047489
0.0012584817
0.00121166
0.0011641418
0.0011157271
0.0010668443
0.001017632
0.00096710507
0.0009160398
0.0008643981
0.00081144773
0.00075831554
0.00070459378
0.00064964607
0.00059469589
0.00053922331
0.00048323532
0.00042780165
0.00037411291
0.00032002803
0.00028139306
0.00022268296
0.00036000643
-0.00024142456
0.0052598815
0.0052211886
0.0051487224
0.005126895
0.00514745
0.0051860554
0.0052360734
0.0053020295
0.0053910001
0.0055101923
0.0056790865
0.0059146771
0.0063426665
0.0067158644
0.0066577287
0.006299384
0.0058864337
0.0055412666
0.0052386939
0.004960275
0.004715428
0.0045011239
0.0043095948
0.0041288761
0.0039561481
0.0037925244
0.0036412564
0.0035093294
0.0033933782
0.0032849036
0.0031861532
0.0030997055
0.0030244663
0.0029593243
0.0029028516
0.0028534144
0.0028095416
0.0027715275
0.0027383252
0.0027071843
0.002677462
0.0026492584
0.0026228555
0.0025970086
0.0025697927
0.0025410755
0.0025114322
0.0024820306
0.0024521946
0.002420757
0.0023871813
0.0023509812
0.0023138219
0.0022761761
0.0022367955
0.002195861
0.0021544588
0.0021143143
0.0020747925
0.0020337951
0.001991815
0.001949885
0.0019090527
0.0018681444
0.0018259221
0.0017835779
0.0017423702
0.0017013246
0.0016589311
0.0016158919
0.0015732638
0.0015302783
0.0014861191
0.001441516
0.0013971673
0.0013524055
0.0013064963
0.001260146
0.0012132457
0.001165653
0.0011171672
0.0010682168
0.0010189398
0.00096835106
0.00091722802
0.00086553146
0.00081252891
0.00075934735
0.00070557805
0.00065058531
0.000595593
0.00054008019
0.00048405428
0.00042858446
0.0003748629
0.00032074517
0.00028206965
0.00022339278
0.00036083638
-0.00024083059
0.005218178
0.0052040545
0.0051589956
0.0051373358
0.0051540327
0.0051919296
0.0052408601
0.0053053638
0.0053927926
0.0055102448
0.0056749577
0.0059036688
0.0062707178
0.0065848746
0.0065458249
0.0062305939
0.0058390101
0.0054975887
0.0051985508
0.0049247256
0.0046831638
0.0044715314
0.0042825777
0.0041087052
0.0039447073
0.0037889945
0.003645404
0.0035171164
0.0034024577
0.0032972668
0.0032010056
0.0031154866
0.0030408347
0.0029759427
0.0029193977
0.0028696806
0.0028255208
0.0027868425
0.0027525156
0.0027204283
0.002689871
0.0026607715
0.0026335446
0.0026071104
0.0025794202
0.0025501652
0.0025199324
0.0024899615
0.0024596624
0.0024275118
0.0023931542
0.0023564927
0.0023190191
0.0022811281
0.0022415173
0.0022003767
0.0021587979
0.0021185126
0.0020788561
0.0020377076
0.001995569
0.0019534895
0.0019125226
0.0018714787
0.001829119
0.001786644
0.0017453156
0.0017041536
0.0016616404
0.0016184843
0.0015757459
0.0015326536
0.001488391
0.0014436904
0.0013992496
0.0013543983
0.0013084018
0.0012619691
0.0012149902
0.0011673227
0.0011187651
0.0010697465
0.0010204037
0.00096975079
0.00091856796
0.00086681429
0.00081375696
0.00076052394
0.00070670436
0.00065166331
0.00059662602
0.00054106989
0.00048500297
0.00042949394
0.00037573628
0.00032158048
0.00028287699
0.0002242901
0.00036175094
-0.00024009621
0.0051850636
0.0051842028
0.0051491748
0.0051293217
0.0051453554
0.0051833764
0.0052327544
0.005297345
0.0053843321
0.0055005731
0.0056607485
0.005879543
0.0061954132
0.0064684672
0.0064494302
0.0061697511
0.0058042601
0.0054772495
0.0051907964
0.0049272048
0.004690832
0.0044819329
0.0042939159
0.0041210091
0.0039567484
0.0037999955
0.0036546962
0.0035239225
0.0034076918
0.0033023533
0.0032056926
0.003119401
0.0030445539
0.0029800379
0.00292432
0.0028758778
0.0028333701
0.0027955671
0.0027613372
0.0027296844
0.0026997237
0.0026709156
0.0026430238
0.002615444
0.0025871166
0.0025574521
0.0025267641
0.0024963574
0.0024657606
0.0024331434
0.0023982491
0.0023612861
0.0023236045
0.0022856244
0.0022459363
0.0022046899
0.0021629722
0.0021224228
0.0020825005
0.0020412099
0.0019989614
0.0019567897
0.0019157441
0.0018746078
0.0018321436
0.0017895726
0.0017481527
0.0017068874
0.0016642638
0.0016210013
0.0015781643
0.0015349764
0.0014906199
0.0014458301
0.0014013063
0.0013563742
0.001310296
0.0012637849
0.0012167304
0.0011689912
0.0011203641
0.00107128
0.0010218741
0.00097115835
0.00091991719
0.0008681076
0.00081499607
0.00076171249
0.00070784302
0.00065275363
0.00059767174
0.00054207237
0.00048596412
0.00043041558
0.00037662053
0.0003224258
0.00028369637
0.00022508099
0.00036260944
-0.00023939762
0.0051543231
0.0051614279
0.0051372885
0.0051247481
0.005142805
0.0051813381
0.005231242
0.0052956541
0.005381477
0.0054952986
0.0056494732
0.0058544241
0.0061296062
0.0063659176
0.0063567444
0.0061067284
0.0057672975
0.0054546286
0.0051779166
0.0049211758
0.0046877424
0.004480047
0.0042926763
0.004120346
0.0039568905
0.0038015755
0.0036578023
0.0035283101
0.0034130673
0.0033083819
0.0032119973
0.0031256714
0.0030505239
0.0029854131
0.0029288713
0.0028795526
0.0028361638
0.002797301
0.0027623606
0.002730783
0.0027014887
0.0026737798
0.0026468152
0.002619767
0.0025920601
0.0025632134
0.0025332591
0.0025026048
0.0024710436
0.0024379231
0.0024028401
0.0023657318
0.0023278772
0.0022898041
0.0022500934
0.0022087744
0.0021668685
0.002126002
0.0020858781
0.0020445389
0.002002236
0.0019599895
0.001918878
0.0018776802
0.0018351428
0.001792517
0.0017509926
0.0017095615
0.0016668092
0.0016234652
0.0015805614
0.0015373033
0.0014928723
0.0014480113
0.0014034176
0.0013584081
0.00131225
0.0012656633
0.0012185356
0.0011707267
0.0011220315
0.0010728843
0.0010234175
0.00097263855
0.00092133798
0.00086947096
0.00081630333
0.00076296828
0.00070904797
0.00065390841
0.00059878025
0.00054313562
0.00048698373
0.00043139368
0.00037755818
0.00032332266
0.00028455881
0.00022585935
0.00036346016
-0.0002386053
0.0051258107
0.0051390686
0.0051254941
0.0051196259
0.0051383782
0.0051760176
0.0052254614
0.0052890406
0.0053730934
0.005483803
0.005631058
0.0058218723
0.0060628471
0.0062657693
0.0062621097
0.0060404243
0.0057273631
0.0054294407
0.0051624273
0.0049133664
0.0046847919
0.0044798654
0.0042945253
0.0041238201
0.0039620389
0.0038085083
0.0036660811
0.0035372136
0.0034218794
0.0033169261
0.003220423
0.0031338652
0.0030582491
0.0029925315
0.0029353133
0.0028852948
0.0028411632
0.002801586
0.0027659864
0.0027336728
0.0027035217
0.0026749209
0.0026472067
0.0026196467
0.0025917558
0.0025632684
0.0025341644
0.0025042117
0.0024731288
0.0024407366
0.0024065531
0.0023703307
0.0023325749
0.0022937875
0.002253632
0.0022121864
0.0021701758
0.0021292469
0.0020891574
0.0020478602
0.0020054831
0.0019630627
0.0019218479
0.0018806463
0.001838082
0.0017953977
0.0017537447
0.0017121543
0.0016692969
0.0016259027
0.0015829591
0.0015396471
0.001495155
0.0014502456
0.0014055774
0.0013604532
0.0013142039
0.0012675581
0.0012203746
0.0011725108
0.0011237595
0.0010745555
0.0010250277
0.00097418613
0.00092282744
0.000870904
0.00081768067
0.00076429583
0.00071032546
0.00065513457
0.00059995868
0.00054426701
0.00048806977
0.00043243704
0.0003785584
0.00032428025
0.00028547239
0.00022668356
0.00036430293
-0.00023764259
0.005099353
0.0051173155
0.0051126757
0.0051125778
0.0051323037
0.0051695917
0.0052190407
0.0052821834
0.005364626
0.0054720117
0.0056120102
0.0057887171
0.0060000063
0.0061734217
0.0061726818
0.0059765987
0.0056883015
0.0054047484
0.0051471632
0.0049057658
0.0046821899
0.0044797734
0.0042961033
0.0041264659
0.0039658883
0.0038136338
0.0036721417
0.0035436801
0.0034283114
0.0033233948
0.0032271333
0.0031406363
0.0030647986
0.0029987257
0.0029410709
0.002890558
0.0028459179
0.0028058948
0.0027698286
0.0027370053
0.0027063843
0.0026773498
0.0026492393
0.0026212965
0.002592991
0.0025640198
0.00253433
0.0025038533
0.0024725222
0.002440138
0.0024063294
0.0023709374
0.002333917
0.0022954308
0.0022557825
0.0022151598
0.0021739178
0.0021330033
0.002092235
0.0020505639
0.0020081057
0.0019656591
0.0019245086
0.0018833717
0.0018408255
0.0017980165
0.001756244
0.0017146403
0.0016717747
0.0016283291
0.0015853144
0.0015419418
0.0014973952
0.0014524488
0.0014077083
0.0013624702
0.0013161403
0.0012694551
0.0012222333
0.0011743276
0.001125534
0.0010762604
0.0010266452
0.00097574188
0.00092433759
0.0008723696
0.00081910031
0.00076567042
0.00071164861
0.00065640717
0.00060118479
0.00054544685
0.00048920517
0.00043353065
0.00037960719
0.00032528525
0.00028642488
0.00022754527
0.000365106
-0.00023648741
0.0050746147
0.0050960982
0.0050988819
0.0051041002
0.0051252573
0.0051623954
0.0052116114
0.0052739374
0.0053542537
0.0054576064
0.0055897391
0.0057522529
0.0059374553
0.0060850875
0.0060852036
0.0059115601
0.0056465456
0.0053774887
0.0051294827
0.0048958745
0.0046774839
0.0044780992
0.0042964194
0.0041282183
0.0039691928
0.0038185268
0.0036783061
0.0035506037
0.0034355357
0.0033308537
0.003234864
0.0031483872
0.0030722686
0.0030057583
0.0029475628
0.0028964429
0.0028511853
0.0028105881
0.0027739441
0.0027405597
0.0027094582
0.0026799878
0.0026514843
0.0026231923
0.002594584
0.0025653592
0.0025354543
0.0025048097
0.0024733009
0.0024406537
0.0024064992
0.0023707094
0.0023333405
0.0022947292
0.0022553202
0.0022153274
0.0021750839
0.0021346854
0.0020939129
0.0020526493
0.0020108276
0.0019688629
0.0019273889
0.001885557
0.0018428857
0.0018000911
0.0017584199
0.0017169145
0.0016740987
0.0016305663
0.001587464
0.0015440925
0.0014995396
0.0014545427
0.001409733
0.0013644441
0.0013180732
0.0012713531
0.0012240867
0.001176134
0.0011273014
0.0010779613
0.0010282636
0.00097730599
0.00092586817
0.00087386711
0.00082056208
0.00076707243
0.00071297842
0.00065769101
0.00060243181
0.00054665609
0.00049037449
0.0004346577
0.00038068793
0.00032632298
0.00028740305
0.00022842773
0.00036583807
-0.00023511927
0.0050512947
0.0050754146
0.0050843292
0.0050943652
0.0051171049
0.0051540978
0.0052028513
0.0052641525
0.0053421409
0.005441174
0.0055653147
0.0057141002
0.0058765092
0.0060018418
0.0060014161
0.0058473213
0.0056042548
0.0053497588
0.0051113604
0.0048854704
0.0046724831
0.0044764191
0.0042968817
0.0041302533
0.0039727971
0.0038236663
0.0036846488
0.003557634
0.0034427901
0.0033382206
0.0032423729
0.0031558518
0.003079437
0.0030124897
0.0029537698
0.0029020737
0.0028562348
0.0028150966
0.0027779213
0.0027440213
0.0027124575
0.0026825488
0.0026536392
0.002625001
0.0025961127
0.0025666725
0.0025365988
0.002505811
0.0024741574
0.0024413732
0.0024071226
0.0023712793
0.0023338949
0.0022952687
0.0022557535
0.0022155301
0.0021749868
0.0021342318
0.0020934288
0.0020526682
0.0020116908
0.0019705652
0.0019291261
0.0018872274
0.0018450147
0.0018027008
0.0017608807
0.0017187572
0.0016757662
0.0016322786
0.001589307
0.0015460328
0.001501518
0.0014564446
0.0014115877
0.0013663316
0.0013199558
0.0012731851
0.0012258654
0.0011778735
0.0011290059
0.0010796241
0.0010298819
0.00097888257
0.00092741346
0.00087537628
0.00082203342
0.00076848351
0.00071432244
0.00065899503
0.00060370675
0.00054790209
0.00049157287
0.00043579688
0.00038177812
0.00032737761
0.00028839617
0.00022931963
0.00036646695
-0.00023350992
0.0050291193
0.0050552189
0.0050691385
0.0050834205
0.0051077662
0.0051446593
0.0051928258
0.0052529378
0.005328396
0.0054228176
0.0055388409
0.0056743781
0.0058166312
0.0059225641
0.0059205894
0.00578332
0.0055607099
0.0053206052
0.0050917695
0.0048735253
0.0046661508
0.0044736677
0.0042964635
0.0041315799
0.0039757835
0.0038282475
0.0036905059
0.0035642763
0.003449776
0.0033454187
0.0032497972
0.003163329
0.003086706
0.0030193822
0.002960181
0.0029079369
0.0028615286
0.0028198464
0.002782132
0.0027476992
0.0027156466
0.0026852787
0.0026559507
0.0026269591
0.0025977807
0.002568105
0.0025378276
0.002506856
0.0024750371
0.0024421216
0.0024077922
0.0023719183
0.0023345387
0.0022959235
0.0022564021
0.0022161737
0.0021756034
0.0021348132
0.0020939652
0.0020530446
0.0020118081
0.0019703573
0.0019287023
0.0018871998
0.0018458375
0.0018043254
0.0017625577
0.0017202895
0.0016775714
0.0016344651
0.0015913295
0.0015475163
0.0015029028
0.0014579231
0.0014132086
0.0013680344
0.0013216704
0.0012748512
0.0012275289
0.0011795488
0.0011306474
0.0010812195
0.0010314533
0.00098042704
0.00092892628
0.00087684716
0.00082346463
0.0007698833
0.000715687
0.00066032176
0.00060500313
0.00054916806
0.00049278726
0.00043695305
0.00038288821
0.00032845841
0.00028941051
0.00023021401
0.00036694889
-0.00023162878
0.0050078593
0.0050354407
0.0050533974
0.0050713398
0.005097241
0.0051340727
0.0051815306
0.0052402557
0.0053129698
0.0054025523
0.0055104591
0.0056333788
0.0057577851
0.005846916
0.005842863
0.0057200351
0.0055163809
0.0052904359
0.0050711806
0.0048605634
0.0046589884
0.0044703429
0.004295682
0.0041327153
0.0039786759
0.0038327902
0.0036963752
0.0035709899
0.0034568966
0.0033527803
0.0032573786
0.0031709556
0.0030941147
0.0030263957
0.0029666943
0.0029138852
0.0028668906
0.002824646
0.002786379
0.0027514032
0.0027188526
0.0026880232
0.0026582759
0.002628927
0.0025994521
0.0025695336
0.0025390493
0.0025078988
0.0024759264
0.0024428879
0.0024084766
0.0023725563
0.0023351619
0.0022965479
0.0022570375
0.0022168397
0.0021762982
0.0021355366
0.002094687
0.0020537208
0.0020124292
0.0019709081
0.001929197
0.001887598
0.0018460305
0.0018042102
0.0017622284
0.0017203694
0.0016784543
0.0016360379
0.001592914
0.0015489405
0.0015045416
0.0014598057
0.0014148222
0.0013692116
0.0013228807
0.0012761978
0.001228986
0.0011810604
0.0011321351
0.0010826937
0.0010329584
0.00098191805
0.00093037524
0.00087826781
0.00082485834
0.00077125498
0.00071702938
0.00066163085
0.00060628508
0.0005504152
0.00049399476
0.00043812819
0.00038402259
0.00032956096
0.00029043074
0.00023110737
0.00036726693
-0.00022942569
0.0049873209
0.0050159951
0.0050371667
0.0050581967
0.0050855342
0.0051223081
0.0051689377
0.0052260866
0.0052958783
0.0053804823
0.0054803818
0.0055913878
0.0056999427
0.0057745118
0.0057681071
0.0056575836
0.0054713287
0.0052591807
0.0050494828
0.0048464373
0.0046507727
0.0044661813
0.0042942569
0.0041333608
0.0039811693
0.0038369849
0.003701944
0.0035774629
0.0034638454
0.003360015
0.0032648521
0.0031785002
0.0031014762
0.003033393
0.0029732198
0.0029198713
0.0028723101
0.0028295147
0.0027907045
0.0027551925
0.0027221455
0.0026908545
0.002660685
0.0026309725
0.0026011944
0.0025710271
0.0025403319
0.0025089991
0.0024768683
0.002443699
0.0024091973
0.0023732258
0.0023358171
0.0022972104
0.002257716
0.0022175423
0.0021770095
0.0021362471
0.0020953789
0.0020543918
0.0020131075
0.0019716058
0.0019299146
0.001888282
0.0018466276
0.00180471
0.0017626401
0.0017206767
0.0016785593
0.0016358928
0.0015927222
0.0015493301
0.0015056498
0.0014613537
0.0014162823
0.0013705229
0.0013244
0.0012776827
0.0012301442
0.0011821033
0.0011332781
0.0010839624
0.0010342989
0.00098325426
0.0009316987
0.0008796268
0.00082621106
0.00077257422
0.00071832668
0.0006629081
0.00060753836
0.00055163315
0.00049518221
0.0004392948
0.00038514868
0.00033065452
0.00029142633
0.00023198733
0.00036739229
-0.00022684816
0.0049673367
0.0049967909
0.0050204837
0.0050440567
0.0050726565
0.005109343
0.0051550354
0.0052104379
0.0052771596
0.0053567095
0.0054487826
0.0055486092
0.005643053
0.005704995
0.0056961642
0.0055960986
0.0054257149
0.0052269214
0.0050267461
0.0048312274
0.0046415644
0.0044612401
0.0042922574
0.0041335951
0.0039833568
0.0038409388
0.0037073307
0.0035838225
0.0034707553
0.0033672621
0.0032723616
0.0031861052
0.0031089261
0.003040498
0.0029798648
0.002925983
0.0028778553
0.0028345017
0.0027951399
0.002759083
0.0027255276
0.0026937643
0.0026631627
0.0026330766
0.0026029864
0.0025725623
0.0025416493
0.0025101279
0.0024778334
0.0024445297
0.0024099355
0.0023739126
0.0023364899
0.0022978896
0.0022584083
0.0022182544
0.0021777293
0.0021369703
0.0020960949
0.0020550973
0.0020138129
0.0019723041
0.0019306027
0.0018889398
0.001847265
0.0018053607
0.0017633001
0.0017212892
0.0016790689
0.0016362917
0.0015930204
0.0015495336
0.00150564
0.0014612033
0.0014163991
0.0013712753
0.0013256992
0.0012791055
0.001231405
0.0011833717
0.0011346206
0.0010850903
0.0010352104
0.00098423866
0.00093282023
0.0008808276
0.00082742248
0.00077377778
0.0007195606
0.00066413862
0.00060873947
0.00055281465
0.00049634467
0.00044043523
0.00038624812
0.00033172747
0.00029239152
0.00023283264
0.00036725985
-0.00022384773
0.0049477608
0.0049777371
0.0050033663
0.0050289762
0.0050586267
0.0050951659
0.0051398196
0.0051933251
0.0052568574
0.0053313332
0.0054158224
0.0055052197
0.0055870885
0.0056380762
0.0056268797
0.0055356957
0.0053797014
0.0051937323
0.0050030047
0.0048149595
0.0046313533
0.004455478
0.0042896278
0.0041333516
0.0039851669
0.0038445776
0.0037124576
0.0035899863
0.0034775386
0.0033744316
0.003279817
0.0031936784
0.0031163714
0.0030476199
0.0029865423
0.00293214
0.0028834544
0.0028395454
0.0027996337
0.0027630334
0.0027289677
0.0026967304
0.002665695
0.002635232
0.0026048257
0.0025741401
0.0025430052
0.0025112915
0.002478831
0.0024453913
0.002410703
0.002374627
0.0023371876
0.0022985914
0.0022591219
0.0022189872
0.0021784718
0.0021377178
0.0020968361
0.0020558249
0.002014534
0.0019730155
0.0019313093
0.001889629
0.001847936
0.0018060211
0.0017639376
0.0017218809
0.0016796312
0.0016368592
0.0015935906
0.001550047
0.0015060462
0.0014614969
0.0014165906
0.0013713186
0.001325606
0.0012791854
0.0012319822
0.0011844563
0.0011359854
0.0010863137
0.0010362892
0.0009854232
0.00093386834
0.00088163639
0.00082829725
0.0007747843
0.00072064186
0.00066523129
0.00060983515
0.00055394351
0.00049746641
0.00044152793
0.00038730996
0.00033277153
0.00029331869
0.00023362577
0.00036680846
-0.00022035187
0.0049284651
0.0049587455
0.0049858176
0.0050130021
0.0050434687
0.0050797741
0.0051232929
0.0051747718
0.0052350258
0.0053044579
0.005381655
0.0054613707
0.005532027
0.0055735035
0.005560084
0.0054764494
0.0053334333
0.0051596888
0.0049782939
0.004797665
0.0046201471
0.0044488787
0.0042863461
0.0041326087
0.003986583
0.0038478923
0.0037173219
0.0035959564
0.003484201
0.0033815353
0.0032872369
0.0032012432
0.0031238394
0.0030547902
0.0029932877
0.0029383799
0.0028891459
0.0028446841
0.0028042225
0.0027670774
0.0027324965
0.0026997797
0.0026683045
0.0026374573
0.0026067269
0.0025757719
0.002544408
0.0025124965
0.0024798653
0.0024462861
0.0024114999
0.0023753675
0.0023379083
0.0022993145
0.0022598561
0.0022197399
0.0021792342
0.0021384844
0.0020975954
0.0020565696
0.0020152724
0.001973747
0.0019320383
0.0018903406
0.001848624
0.0018066921
0.0017645885
0.0017224979
0.0016802199
0.001637432
0.0015941424
0.0015505652
0.0015065566
0.0014620139
0.0014170808
0.00137172
0.0013258857
0.0012793554
0.0012320181
0.0011843942
0.0011361099
0.0010868325
0.0010372446
0.00098671256
0.00093502066
0.00088256991
0.00082931749
0.00077571582
0.00072138023
0.00066602806
0.00061076225
0.00055493391
0.00049846435
0.00044252863
0.00038831613
0.00033376648
0.00029419129
0.00023435051
0.00036597622
-0.00021627462
0.0049093366
0.0049397334
0.0049678301
0.0049961724
0.0050272104
0.005063174
0.0051054655
0.0051548108
0.0052117283
0.0052761901
0.0053464227
0.0054171895
0.0054778467
0.0055110591
0.0054956075
0.0054184075
0.0052870503
0.0051248791
0.0049526581
0.0047793808
0.0046079608
0.0044414305
0.0042823885
0.0041313379
0.003987576
0.0038508552
0.0037218967
0.0036017051
0.0034907133
0.0033885442
0.0032945943
0.0032087725
0.0031313026
0.0030619821
0.0030000743
0.0029446757
0.0028949031
0.0028498919
0.0028088812
0.0027711911
0.0027360918
0.0027028915
0.0026709727
0.0026397361
0.002608676
0.0025774458
0.0025458482
0.0025137347
0.0024809299
0.0024472088
0.0024123225
0.0023761316
0.002338651
0.0023000584
0.0022606106
0.0022205121
0.0021800162
0.0021392701
0.0020983742
0.0020573348
0.0020160315
0.0019744996
0.0019327869
0.0018910705
0.0018493291
0.0018073813
0.0017652608
0.0017231372
0.0016808257
0.0016380159
0.001594708
0.0015511061
0.001507082
0.0014625246
0.0014175636
0.0013721845
0.0013263397
0.0012797905
0.0012323907
0.0011846616
0.0011362657
0.0010868467
0.0010372008
0.00098691056
0.00093555086
0.0008834655
0.00083051344
0.00077677445
0.00072221361
0.00066692666
0.0006115919
0.00055560166
0.00049920248
0.00044337543
0.00038918889
0.00033464889
0.00029497892
0.00023497843
0.00036469084
-0.00021151954
0.0048902749
0.0049206237
0.004949389
0.0049785174
0.0050098814
0.0050453804
0.005086356
0.0051334827
0.0051870354
0.0052466364
0.0053102575
0.005372784
0.0054245271
0.0054505552
0.0054332857
0.0053615939
0.0052406791
0.005089396
0.0049261445
0.0047601419
0.0045948108
0.0044331237
0.0042777316
0.004129511
0.0039881175
0.003853441
0.0037261593
0.0036072113
0.0034970555
0.0033954412
0.0033018765
0.0032162569
0.0031387536
0.0030691911
0.0030069004
0.0029510285
0.0029007294
0.0028551747
0.0028136176
0.0027753837
0.002739764
0.0027060772
0.0026737111
0.0026420799
0.002610684
0.0025791723
0.0025473351
0.0025150148
0.0024820325
0.0024481664
0.0024131767
0.0023769245
0.0023394197
0.0023008264
0.0022613879
0.0022213057
0.0021808193
0.0021400767
0.0020991741
0.0020581214
0.0020168114
0.0019752725
0.0019335548
0.0018918199
0.0018500543
0.0018080904
0.0017659521
0.0017237938
0.0016814472
0.0016386163
0.0015952927
0.001551666
0.0015076207
0.001463046
0.0014180631
0.0013726645
0.0013267946
0.0012802225
0.0012328215
0.0011850771
0.0011366539
0.0010871844
0.0010374372
0.00098703222
0.00093552664
0.00088345744
0.00083080388
0.00077736812
0.00072310286
0.00066802253
0.00061250862
0.00055632487
0.00049997276
0.00044408037
0.00038978218
0.00033532874
0.00029561855
0.00023543098
0.00036284201
-0.00020598049
0.0048711914
0.0049013458
0.0049304757
0.0049600606
0.004991513
0.0050264155
0.005065991
0.0051108351
0.0051610229
0.0052159026
0.0052732811
0.0053282465
0.0053720475
0.0053918284
0.0053729623
0.0053060119
0.0051944323
0.0050533349
0.0048988048
0.0047399852
0.0045807182
0.0044239545
0.0042723558
0.0041271024
0.0039881813
0.0038556249
0.0037300867
0.0036124526
0.0035032052
0.0034022057
0.0033090658
0.0032236804
0.0031461778
0.0030764038
0.0030137543
0.0029574276
0.0029066154
0.0028605242
0.002818424
0.0027796479
0.0027435063
0.0027093301
0.0026765132
0.0026444826
0.0026127451
0.0025809458
0.0025488637
0.0025163321
0.0024831686
0.0024491547
0.0024140589
0.0023777431
0.0023402117
0.002301616
0.002262186
0.0022221192
0.0021816423
0.0021409029
0.0020999941
0.0020589284
0.0020176113
0.0019760655
0.0019343423
0.0018925894
0.0018507996
0.0018088187
0.0017666616
0.0017244686
0.001682087
0.0016392349
0.0015958947
0.0015522416
0.001508174
0.0014635836
0.0014185803
0.0013731589
0.0013272604
0.0012806691
0.0012332644
0.0011854908
0.001137044
0.0010875829
0.0010378165
0.00098737306
0.00093581543
0.00088365314
0.00083087562
0.00077731555
0.00072317567
0.00066840835
0.00061314702
0.00055721426
0.00050094396
0.00044484514
0.00039041172
0.00033597463
0.00029604524
0.00023560297
0.00036027544
-0.00019956422
0.0048520069
0.0048818359
0.0049110693
0.0049408208
0.0049721369
0.0050063085
0.0050444045
0.0050869218
0.0051337707
0.0051840929
0.0052356061
0.0052836555
0.0053203868
0.0053347361
0.0053144905
0.005251649
0.0051484072
0.0050167921
0.0048706958
0.0047189495
0.0045657067
0.0044139235
0.004266244
0.0041240878
0.0039877409
0.0038573815
0.003733655
0.0036174058
0.0035091393
0.003408816
0.003316144
0.0032310273
0.0031535609
0.0030836083
0.0030206262
0.0029638653
0.0029125551
0.0028659363
0.0028232979
0.0027839825
0.002747319
0.0027126514
0.0026793811
0.002646947
0.0026148625
0.0025827699
0.0025504376
0.0025176901
0.0024843421
0.0024501775
0.0024149727
0.0023785905
0.00234103
0.00230243
0.0022630072
0.0022229547
0.0021824871
0.0021417506
0.0021008356
0.0020597572
0.0020184326
0.0019768798
0.0019351505
0.0018933797
0.0018515656
0.0018095666
0.0017673901
0.0017251627
0.0016827458
0.0016398714
0.0015965136
0.0015528338
0.0015087438
0.0014641374
0.0014191124
0.0013736668
0.0013277407
0.0012811311
0.0012337199
0.0011859156
0.0011374488
0.0010879909
0.0010381926
0.00098772424
0.00093617298
0.00088399822
0.0008311777
0.00077754749
0.00072331543
0.00066841124
0.00061311269
0.00055742473
0.00050143596
0.00044552411
0.00039123383
0.00033673349
0.00029647824
0.00023575293
0.00035690998
-0.0001921913
0.0048326515
0.0048620368
0.004891149
0.0049208134
0.0049517853
0.0049850939
0.0050216378
0.0050618021
0.0051053614
0.0051513094
0.005197336
0.0052390785
0.0052695233
0.0052791527
0.0052577342
0.0051984803
0.0051026856
0.0049798619
0.0048418778
0.004697075
0.0045498027
0.0044030353
0.0042593825
0.0041204444
0.0039867713
0.003858686
0.0037368401
0.0036220472
0.0035148344
0.0034152503
0.0033230923
0.0032382814
0.0031608881
0.0030907917
0.0030275053
0.0029703324
0.0029185408
0.002871405
0.0028282347
0.0027883838
0.0027511991
0.002716039
0.002682313
0.0026494714
0.002617035
0.0025846435
0.0025520557
0.0025190881
0.0024855519
0.0024512338
0.0024159171
0.0023794658
0.0023418737
0.0023032674
0.0022638507
0.0022238114
0.0021833527
0.002142619
0.002101698
0.0020606073
0.002019275
0.001977715
0.0019359791
0.0018941905
0.0018523521
0.0018103344
0.0017681379
0.0017258762
0.0016834236
0.0016405259
0.0015971498
0.0015534434
0.0015093304
0.001464707
0.0014196597
0.0013741895
0.0013282359
0.0012816071
0.0012341877
0.001186354
0.0011378677
0.0010884096
0.0010385791
0.00098808884
0.00093653617
0.000884341
0.00083150249
0.00077787103
0.00072361946
0.00066865803
0.000613284
0.00055749495
0.00050137645
0.00044556513
0.00039153648
0.00033723883
0.00029700143
0.00023599044
0.00035291475
-0.00018358848
0.0048130632
0.0048418979
0.0048706955
0.0049000518
0.0049304908
0.0049628113
0.0049977384
0.0050355402
0.0050758793
0.0051176507
0.005158566
0.005194573
0.0052194353
0.0052249671
0.0052025687
0.0051464722
0.0050573351
0.0049426349
0.0048124146
0.0046744043
0.004533035
0.0043912988
0.0042517614
0.0041161521
0.0039852483
0.0038595139
0.0037396182
0.0036263532
0.0035202668
0.0034214861
0.0033298907
0.0032454251
0.0031681436
0.0030979397
0.0030343794
0.0029768187
0.0029245643
0.0028769237
0.0028332293
0.0027928479
0.0027551441
0.0027194911
0.002685308
0.0026520558
0.0026192629
0.0025865672
0.0025537191
0.002520527
0.0024867992
0.0024523248
0.0024168935
0.0023803703
0.0023427441
0.0023041294
0.0022647175
0.0022246902
0.0021842402
0.002143509
0.0021025822
0.0020614796
0.0020201391
0.0019785719
0.0019368289
0.0018950227
0.0018531598
0.0018111226
0.0017689055
0.0017266096
0.0016841208
0.001641199
0.0015978039
0.0015540708
0.001509934
0.0014652928
0.001420223
0.0013747277
0.0013287462
0.0012820971
0.0012346688
0.0011868064
0.0011382991
0.0010888394
0.0010389785
0.00098846589
0.00093690879
0.000884694
0.00083183849
0.00077819641
0.00072392331
0.00066895435
0.0006135689
0.00055773842
0.00050155269
0.00044565555
0.00039147629
0.00033714226
0.00029696137
0.00023580454
0.00034827221
-0.00017354416
0.0047931879
0.0048213752
0.0048496913
0.0048785486
0.0049082864
0.0049395038
0.004972759
0.0050082036
0.0050454093
0.0050832121
0.0051193836
0.0051501886
0.0051701007
0.0051720807
0.0051488796
0.0050955851
0.0050124092
0.0049051964
0.004782372
0.004650982
0.0045154345
0.0043787263
0.0042433741
0.0041111927
0.0039831494
0.0038598416
0.0037419654
0.0036302995
0.0035254122
0.0034274999
0.0033365185
0.0032524403
0.0031753109
0.0031050378
0.0030412361
0.0029833136
0.0029306166
0.0028824855
0.0028382762
0.0027973708
0.0027591509
0.0027230058
0.0026883645
0.0026546992
0.0026215456
0.0025885409
0.0025554278
0.0025220071
0.0024880844
0.0024534509
0.0024179021
0.0023813044
0.0023436412
0.0023050162
0.0022656077
0.0022255912
0.0021851493
0.0021444204
0.002103488
0.0020623738
0.0020210251
0.0019794505
0.0019376999
0.0018958761
0.0018539889
0.0018119315
0.0017696932
0.001727363
0.0016848378
0.0016418909
0.0015984762
0.0015547161
0.001510555
0.0014658952
0.0014208024
0.0013752815
0.0013292717
0.0012826018
0.0012351636
0.0011872726
0.0011387435
0.0010892812
0.0010393905
0.00098885424
0.00093729185
0.00088505861
0.00083218512
0.0007785298
0.00072423762
0.00066925792
0.00061384966
0.00055799734
0.00050181013
0.00044588396
0.00039161734
0.00033718533
0.00029655235
0.00023531623
0.0003417945
-0.00016209197
0.0047729782
0.0048004312
0.0048281224
0.0048563168
0.0048852059
0.0049152181
0.0049467567
0.0049798633
0.0050140362
0.0050480847
0.0050798689
0.0051059676
0.0051214976
0.005120405
0.0050965626
0.0050457757
0.0049679494
0.004867625
0.0047518167
0.0046268551
0.0044970339
0.0043653339
0.0042342177
0.0041055509
0.0039804536
0.0038596461
0.0037438581
0.0036338623
0.0035302461
0.0034332683
0.0033429542
0.0032593077
0.0031823726
0.0031120704
0.0030480618
0.0029898056
0.0029366881
0.0028880825
0.0028433694
0.0028019475
0.002763216
0.0027265803
0.0026914809
0.0026574005
0.0026238827
0.0025905644