/*--------------------------------*- C++ -*----------------------------------*\
  =========                 |
  \\      /  F ield         | OpenFOAM: The Open Source CFD Toolbox
   \\    /   O peration     | Website:  https://openfoam.org
    \\  /    A nd           | Version:  12
     \\/     M anipulation  |
\*---------------------------------------------------------------------------*/
FoamFile
{
    format      ascii;
    class       volScalarField;
    location    "900";
    object      nut;
}
// * * * * * * * * * * * * * * * * * * * * * * * * * * * * * * * * * * * * * //

dimensions      [0 2 -1 0 0 0 0];

internalField   nonuniform List<scalar> 
13056
(
1.9250703e-07
1.7049094e-07
1.6598101e-07
1.5147144e-07
1.4426577e-07
1.4004804e-07
1.3718158e-07
1.350798e-07
1.3348904e-07
1.3226256e-07
1.3130039e-07
1.3053236e-07
1.2990938e-07
1.2939686e-07
1.289699e-07
1.2861008e-07
1.2830351e-07
1.2803922e-07
1.2780962e-07
1.2760495e-07
1.2742788e-07
1.2724552e-07
1.2704812e-07
8.9708899e-08
1.098332e-16
1.041814e-15
1.9451627e-15
2.1837774e-15
2.1245983e-15
2.0014162e-15
1.8895679e-15
1.7951351e-15
1.7134756e-15
1.6420666e-15
1.5792181e-15
1.5233636e-15
1.4718637e-15
1.4246922e-15
1.3814438e-15
1.3417857e-15
1.3053333e-15
1.2716067e-15
1.2402691e-15
1.2110712e-15
1.1837076e-15
1.1580099e-15
1.1338071e-15
1.1109606e-15
1.0893543e-15
1.068848e-15
1.0493783e-15
1.030831e-15
1.0131057e-15
9.9616901e-16
9.7994617e-16
9.6436296e-16
9.4939494e-16
9.3499062e-16
9.2108756e-16
9.0766605e-16
8.946986e-16
8.8213941e-16
8.6995841e-16
8.5814645e-16
8.4660831e-16
8.3533393e-16
8.2435276e-16
8.1365834e-16
8.0322979e-16
7.9304493e-16
7.8309369e-16
7.7336645e-16
7.6384444e-16
7.5451098e-16
7.4536005e-16
7.3638572e-16
7.2757179e-16
7.189056e-16
7.1038176e-16
7.0199886e-16
6.9374549e-16
6.8560719e-16
6.7757769e-16
6.6965984e-16
6.6184653e-16
6.541221e-16
6.464804e-16
6.3892347e-16
6.3144926e-16
6.2404658e-16
6.1670579e-16
6.0942578e-16
6.0220968e-16
5.9504823e-16
5.8792812e-16
5.808465e-16
5.7380943e-16
5.6680978e-16
5.5982705e-16
5.5286292e-16
5.4592496e-16
5.3900648e-16
5.3209333e-16
5.2518112e-16
5.1827573e-16
5.1136766e-16
5.0444167e-16
4.9749791e-16
4.9053743e-16
4.835471e-16
4.7651723e-16
4.6945137e-16
4.6233906e-16
4.5531723e-16
4.4861525e-16
4.4228e-16
4.3623406e-16
4.3049831e-16
4.2505444e-16
4.1987513e-16
4.1493378e-16
4.1021359e-16
4.0570362e-16
4.013878e-16
3.9724708e-16
3.9326755e-16
3.8944188e-16
3.8576224e-16
3.8221749e-16
3.7879209e-16
3.754801e-16
3.7225384e-16
3.6915181e-16
3.6599645e-16
3.6319352e-16
3.5865827e-16
1.9250699e-07
1.7048712e-07
1.6598313e-07
1.5147534e-07
1.4426843e-07
1.4004931e-07
1.3718174e-07
1.3507907e-07
1.3348758e-07
1.3226051e-07
1.3129784e-07
1.3052938e-07
1.2990605e-07
1.2939324e-07
1.2896602e-07
1.2860598e-07
1.2829922e-07
1.2803476e-07
1.2780501e-07
1.2760019e-07
1.2742318e-07
1.2724045e-07
1.2704315e-07
9.1473604e-08
5.9915299e-15
1.8283339e-13
3.4138061e-13
3.8325823e-13
3.7287338e-13
3.5125621e-13
3.3162789e-13
3.150557e-13
3.0072497e-13
2.8819309e-13
2.7716345e-13
2.6736116e-13
2.5832307e-13
2.5004456e-13
2.4245453e-13
2.3549457e-13
2.2909717e-13
2.2317815e-13
2.1767838e-13
2.1255412e-13
2.0775179e-13
2.0324179e-13
1.9899415e-13
1.9498453e-13
1.9119259e-13
1.8759367e-13
1.8417667e-13
1.8092157e-13
1.7781071e-13
1.7483826e-13
1.7199109e-13
1.6925617e-13
1.6662922e-13
1.641012e-13
1.6166114e-13
1.593056e-13
1.5702975e-13
1.5482555e-13
1.5268771e-13
1.5061465e-13
1.4858964e-13
1.4661092e-13
1.4468366e-13
1.4280673e-13
1.4097645e-13
1.3918894e-13
1.3744243e-13
1.3573524e-13
1.3406406e-13
1.3242598e-13
1.3081992e-13
1.2924486e-13
1.2769796e-13
1.2617698e-13
1.2468098e-13
1.2320972e-13
1.2176119e-13
1.2033285e-13
1.1892361e-13
1.1753396e-13
1.1616266e-13
1.1480696e-13
1.1346578e-13
1.1213948e-13
1.1082769e-13
1.0952846e-13
1.0824008e-13
1.0696238e-13
1.0569589e-13
1.0443899e-13
1.0318934e-13
1.0194645e-13
1.0071138e-13
9.948288e-14
9.8257345e-14
9.7035072e-14
9.5817393e-14
9.4603133e-14
9.3389808e-14
9.2176647e-14
9.096468e-14
8.9752244e-14
8.8536662e-14
8.731796e-14
8.6096323e-14
8.4869449e-14
8.3635632e-14
8.2395498e-14
8.114721e-14
7.9914802e-14
7.8738531e-14
7.7626625e-14
7.6565495e-14
7.5558805e-14
7.4603345e-14
7.3694316e-14
7.2827053e-14
7.1998606e-14
7.1207052e-14
7.0449576e-14
6.972283e-14
6.9024377e-14
6.8352925e-14
6.7707105e-14
6.7084959e-14
6.648376e-14
6.5902466e-14
6.5336218e-14
6.4791775e-14
6.4237969e-14
6.374602e-14
6.2950028e-14
1.9250675e-07
1.7047471e-07
1.6599319e-07
1.5148951e-07
1.4427826e-07
1.4005463e-07
1.3718343e-07
1.3507788e-07
1.3348402e-07
1.3225498e-07
1.3129068e-07
1.3052086e-07
1.298964e-07
1.2938262e-07
1.2895458e-07
1.2859384e-07
1.2828646e-07
1.2802145e-07
1.2779122e-07
1.2758594e-07
1.2740873e-07
1.2722543e-07
1.2702812e-07
9.3461338e-08
8.3693813e-14
3.9032456e-12
7.2882272e-12
8.1822087e-12
7.9607516e-12
7.4995385e-12
7.0807265e-12
6.7270977e-12
6.4212777e-12
6.1538303e-12
5.9184322e-12
5.7092206e-12
5.5163114e-12
5.3396094e-12
5.1775982e-12
5.0290323e-12
4.8924717e-12
4.7661198e-12
4.6487154e-12
4.5393251e-12
4.4368052e-12
4.3405247e-12
4.2498437e-12
4.1642429e-12
4.0832881e-12
4.0064531e-12
3.9335014e-12
3.8640051e-12
3.7975878e-12
3.7341248e-12
3.6733359e-12
3.6149432e-12
3.5588551e-12
3.5048788e-12
3.4527802e-12
3.4024858e-12
3.3538924e-12
3.3068284e-12
3.2611813e-12
3.2169168e-12
3.173678e-12
3.1314272e-12
3.090275e-12
3.050197e-12
3.0111152e-12
2.9729463e-12
2.9356526e-12
2.8991982e-12
2.8635127e-12
2.8285336e-12
2.7942383e-12
2.7606047e-12
2.727572e-12
2.6950928e-12
2.6631469e-12
2.631729e-12
2.6007964e-12
2.5702949e-12
2.540201e-12
2.5105254e-12
2.4812414e-12
2.4522904e-12
2.4236493e-12
2.3953257e-12
2.3673121e-12
2.3395664e-12
2.3120525e-12
2.2847663e-12
2.2577195e-12
2.2308773e-12
2.20419e-12
2.1776468e-12
2.1512705e-12
2.1250343e-12
2.0988613e-12
2.0727579e-12
2.0467525e-12
2.02082e-12
1.9949074e-12
1.9689981e-12
1.9431142e-12
1.9172202e-12
1.8912589e-12
1.8652308e-12
1.8391399e-12
1.812937e-12
1.7865857e-12
1.7600994e-12
1.7334388e-12
1.7071172e-12
1.6819945e-12
1.6582463e-12
1.6355826e-12
1.6140814e-12
1.5936744e-12
1.574259e-12
1.5557356e-12
1.5380412e-12
1.5211347e-12
1.504956e-12
1.4894336e-12
1.4745155e-12
1.460174e-12
1.44638e-12
1.4330916e-12
1.4202506e-12
1.4078347e-12
1.3957401e-12
1.3841112e-12
1.3722824e-12
1.3617747e-12
1.3447729e-12
1.925063e-07
1.7045334e-07
1.6601136e-07
1.515144e-07
1.4429565e-07
1.4006423e-07
1.371868e-07
1.3507627e-07
1.3347832e-07
1.3224588e-07
1.3127877e-07
1.3050661e-07
1.2988019e-07
1.2936475e-07
1.289353e-07
1.2857334e-07
1.282649e-07
1.2799895e-07
1.2776788e-07
1.2756181e-07
1.2738414e-07
1.2720003e-07
1.2700268e-07
9.548898e-08
5.5387979e-13
3.1378394e-11
5.859496e-11
6.5780309e-11
6.4008576e-11
6.0310723e-11
5.6951693e-11
5.4114594e-11
5.1660338e-11
4.9513523e-11
4.7623609e-11
4.5943659e-11
4.4394352e-11
4.2975021e-11
4.1673541e-11
4.0479944e-11
3.9382694e-11
3.8367378e-11
3.7423881e-11
3.654472e-11
3.5720715e-11
3.4946807e-11
3.4217862e-11
3.3529713e-11
3.2878876e-11
3.2261128e-11
3.167457e-11
3.1115768e-11
3.0581699e-11
3.0071362e-11
2.9582508e-11
2.9112905e-11
2.8661818e-11
2.8227698e-11
2.7808665e-11
2.7404128e-11
2.701326e-11
2.6634681e-11
2.6267488e-11
2.5911406e-11
2.5563562e-11
2.5223656e-11
2.4892578e-11
2.4570133e-11
2.4255694e-11
2.3948591e-11
2.3648523e-11
2.33552e-11
2.3068056e-11
2.2786589e-11
2.2510617e-11
2.2239964e-11
2.197414e-11
2.1712763e-11
2.1455673e-11
2.1202826e-11
2.0953879e-11
2.0708396e-11
2.0466188e-11
2.0227341e-11
1.9991642e-11
1.9758618e-11
1.9528083e-11
1.9300099e-11
1.9074605e-11
1.8851263e-11
1.8629783e-11
1.8410131e-11
1.8192402e-11
1.7976316e-11
1.7761472e-11
1.7547784e-11
1.7335435e-11
1.712421e-11
1.6913491e-11
1.6703327e-11
1.6493947e-11
1.6285151e-11
1.607651e-11
1.5867893e-11
1.5659476e-11
1.5450972e-11
1.5241923e-11
1.5032332e-11
1.4822231e-11
1.4611224e-11
1.4399017e-11
1.4185719e-11
1.3971012e-11
1.3759032e-11
1.3556702e-11
1.3365438e-11
1.3182905e-11
1.3009732e-11
1.2845368e-11
1.2688989e-11
1.2539791e-11
1.2397269e-11
1.2261092e-11
1.2130774e-11
1.2005742e-11
1.1885576e-11
1.1770053e-11
1.1658939e-11
1.1551896e-11
1.1448456e-11
1.1348439e-11
1.1251011e-11
1.1157332e-11
1.1062043e-11
1.0977395e-11
1.0840429e-11
1.9250565e-07
1.7042244e-07
1.6603787e-07
1.5155078e-07
1.4432121e-07
1.4007854e-07
1.3719209e-07
1.3507434e-07
1.3347046e-07
1.3223311e-07
1.3126191e-07
1.3048636e-07
1.2985709e-07
1.2933926e-07
1.2890776e-07
1.2854403e-07
1.2823404e-07
1.2796673e-07
1.2773444e-07
1.2752725e-07
1.2734882e-07
1.2716364e-07
1.2696629e-07
9.7520044e-08
2.3879665e-12
1.521082e-10
2.8412674e-10
3.1895462e-10
3.1048456e-10
2.9269241e-10
2.765147e-10
2.6283908e-10
2.5099917e-10
2.4063553e-10
2.3150715e-10
2.2338912e-10
2.1589879e-10
2.0903427e-10
2.0273765e-10
1.9696126e-10
1.9164968e-10
1.8673346e-10
1.8216391e-10
1.7790501e-10
1.7391248e-10
1.7016196e-10
1.6662871e-10
1.6329261e-10
1.601369e-10
1.5714117e-10
1.5429627e-10
1.5158562e-10
1.4899459e-10
1.4651839e-10
1.4414613e-10
1.4186703e-10
1.3967754e-10
1.3757017e-10
1.3553583e-10
1.3357167e-10
1.3167368e-10
1.2983519e-10
1.2805183e-10
1.2632228e-10
1.2463258e-10
1.2298127e-10
1.2137273e-10
1.19806e-10
1.1827804e-10
1.1678562e-10
1.1532727e-10
1.139016e-10
1.1250585e-10
1.111376e-10
1.0979597e-10
1.084801e-10
1.0718763e-10
1.0591669e-10
1.0466651e-10
1.0343688e-10
1.0222615e-10
1.0103218e-10
9.9854062e-11
9.8692226e-11
9.7545629e-11
9.6411975e-11
9.5290362e-11
9.4181095e-11
9.3083878e-11
9.199707e-11
9.0919254e-11
8.9850273e-11
8.8790588e-11
8.7738841e-11
8.669308e-11
8.5652882e-11
8.4619146e-11
8.3590823e-11
8.2564901e-11
8.1541624e-11
8.0522111e-11
7.9505379e-11
7.8489347e-11
7.7473367e-11
7.6458305e-11
7.5442768e-11
7.442451e-11
7.3403554e-11
7.2380054e-11
7.135208e-11
7.0318201e-11
6.9278939e-11
6.8232754e-11
6.7199789e-11
6.6213793e-11
6.5281672e-11
6.4392041e-11
6.3547988e-11
6.2746833e-11
6.1984561e-11
6.1257266e-11
6.0562479e-11
5.9898596e-11
5.9263259e-11
5.8653664e-11
5.8067771e-11
5.75045e-11
5.6962705e-11
5.6440748e-11
5.5936342e-11
5.5448615e-11
5.4973495e-11
5.4516649e-11
5.4051941e-11
5.3639112e-11
5.2971106e-11
1.925048e-07
1.7038123e-07
1.6607302e-07
1.515997e-07
1.4435586e-07
1.400982e-07
1.371997e-07
1.350723e-07
1.3346049e-07
1.3221656e-07
1.3123989e-07
1.304598e-07
1.2982673e-07
1.2930568e-07
1.2887143e-07
1.2850533e-07
1.2819327e-07
1.2792413e-07
1.2769021e-07
1.2748151e-07
1.27302e-07
1.2711533e-07
1.2691843e-07
9.9545836e-08
7.8263208e-12
5.4450406e-10
1.0178957e-09
1.1426673e-09
1.1133006e-09
1.0506609e-09
9.9357817e-10
9.4523363e-10
9.0330255e-10
8.6654542e-10
8.3413059e-10
8.0527359e-10
7.786192e-10
7.5417129e-10
7.3172936e-10
7.1112797e-10
6.9217272e-10
6.7461826e-10
6.5829298e-10
6.4307012e-10
6.2879267e-10
6.153749e-10
6.0272926e-10
5.9078468e-10
5.7948184e-10
5.6874829e-10
5.5855183e-10
5.4883346e-10
5.3954121e-10
5.3065819e-10
5.2214572e-10
5.1396534e-10
5.0610463e-10
4.9853686e-10
4.9122961e-10
4.8417286e-10
4.773523e-10
4.707441e-10
4.6433273e-10
4.5811358e-10
4.5203631e-10
4.4609588e-10
4.4030818e-10
4.3466991e-10
4.2917014e-10
4.2379731e-10
4.1854625e-10
4.13412e-10
4.0838466e-10
4.0345553e-10
3.9862153e-10
3.9387963e-10
3.8922129e-10
3.8463984e-10
3.8013253e-10
3.756987e-10
3.7133234e-10
3.670258e-10
3.6277582e-10
3.5858399e-10
3.5444656e-10
3.5035526e-10
3.4630684e-10
3.4230243e-10
3.38341e-10
3.3441661e-10
3.3052417e-10
3.2666311e-10
3.2283512e-10
3.1903532e-10
3.1525663e-10
3.1149755e-10
3.0776133e-10
3.0404419e-10
3.0033525e-10
2.9663538e-10
2.9294864e-10
2.8927148e-10
2.8559636e-10
2.8192095e-10
2.7824838e-10
2.745736e-10
2.7088849e-10
2.6719312e-10
2.6348804e-10
2.5976626e-10
2.560226e-10
2.5225892e-10
2.4846964e-10
2.4472772e-10
2.4115546e-10
2.3777795e-10
2.3455393e-10
2.3149473e-10
2.2859068e-10
2.2582728e-10
2.2319041e-10
2.2067115e-10
2.1826372e-10
2.1595961e-10
2.1374866e-10
2.1162349e-10
2.0958022e-10
2.076147e-10
2.0572101e-10
2.0389087e-10
2.0212111e-10
2.00397e-10
1.9873907e-10
1.9705258e-10
1.9555421e-10
1.9312948e-10
1.9250376e-07
1.7032874e-07
1.6611713e-07
1.5166254e-07
1.4440081e-07
1.4012407e-07
1.372102e-07
1.3507048e-07
1.3344853e-07
1.3219618e-07
1.3121252e-07
1.3042661e-07
1.2978866e-07
1.2926349e-07
1.2882572e-07
1.2845658e-07
1.2814186e-07
1.2787038e-07
1.2763437e-07
1.2742374e-07
1.272428e-07
1.2705402e-07
1.2685847e-07
1.0156171e-07
2.1067967e-11
1.5850378e-09
2.9677629e-09
3.3322167e-09
3.2520402e-09
3.0754289e-09
2.9137884e-09
2.7764129e-09
2.6568564e-09
2.5517597e-09
2.4588684e-09
2.3760108e-09
2.2993207e-09
2.2288672e-09
2.164104e-09
2.1045778e-09
2.0497445e-09
1.9989077e-09
1.9515829e-09
1.9074126e-09
1.8659488e-09
1.8269495e-09
1.7901661e-09
1.7553961e-09
1.7224716e-09
1.6911846e-09
1.6614445e-09
1.6330818e-09
1.605947e-09
1.579993e-09
1.5551084e-09
1.5311825e-09
1.5081803e-09
1.4860247e-09
1.464622e-09
1.443944e-09
1.4239494e-09
1.404569e-09
1.3857585e-09
1.3675049e-09
1.3496597e-09
1.3322091e-09
1.3152009e-09
1.298626e-09
1.2824524e-09
1.2666466e-09
1.2511939e-09
1.23608e-09
1.2212759e-09
1.2067563e-09
1.1925125e-09
1.1785358e-09
1.1648013e-09
1.1512893e-09
1.1379921e-09
1.1249079e-09
1.112019e-09
1.0993031e-09
1.0867507e-09
1.0743665e-09
1.0621398e-09
1.050046e-09
1.0380757e-09
1.0262324e-09
1.0145131e-09
1.0029003e-09
9.9137893e-10
9.7994744e-10
9.6861097e-10
9.5735505e-10
9.4615876e-10
9.3501763e-10
9.2394144e-10
9.1291902e-10
9.0191803e-10
8.9094111e-10
8.8000032e-10
8.6908518e-10
8.5817329e-10
8.4725765e-10
8.3634762e-10
8.2542822e-10
8.1447522e-10
8.0348879e-10
7.924706e-10
7.813998e-10
7.7026084e-10
7.5905929e-10
7.4777845e-10
7.3663551e-10
7.2599491e-10
7.1593174e-10
7.0632318e-10
6.9720365e-10
6.8854472e-10
6.8030341e-10
6.7243786e-10
6.6492166e-10
6.5773777e-10
6.5086093e-10
6.4426103e-10
6.3791615e-10
6.3181479e-10
6.2594471e-10
6.202883e-10
6.1482094e-10
6.0953326e-10
6.0438128e-10
5.9942637e-10
5.9438581e-10
5.8990665e-10
5.8265709e-10
1.9250253e-07
1.7026385e-07
1.6617045e-07
1.5174095e-07
1.4445757e-07
1.4015731e-07
1.3722438e-07
1.3506937e-07
1.3343484e-07
1.3217202e-07
1.3117967e-07
1.3038651e-07
1.2974248e-07
1.2921217e-07
1.2877002e-07
1.2839708e-07
1.2807906e-07
1.2780465e-07
1.2756604e-07
1.2735299e-07
1.2717025e-07
1.2697864e-07
1.267857e-07
1.0355933e-07
4.8582111e-11
3.9342258e-09
7.3864854e-09
8.2997508e-09
8.1228364e-09
7.7077361e-09
7.3249951e-09
6.9978504e-09
6.7115419e-09
6.4586983e-09
6.2343804e-09
6.0336447e-09
5.8472102e-09
5.6754841e-09
5.5172628e-09
5.3715339e-09
5.2370356e-09
5.1121136e-09
4.9956258e-09
4.8867336e-09
4.7843617e-09
4.6879426e-09
4.5968836e-09
4.5107026e-09
4.4290007e-09
4.3512764e-09
4.2773165e-09
4.2067099e-09
4.1390949e-09
4.0743618e-09
4.0122401e-09
3.9524604e-09
3.8949411e-09
3.8394935e-09
3.7858884e-09
3.7340602e-09
3.6839077e-09
3.6352608e-09
3.5880121e-09
3.542132e-09
3.497244e-09
3.4533166e-09
3.4104765e-09
3.3687022e-09
3.327914e-09
3.2880293e-09
3.2490137e-09
3.2108321e-09
3.173412e-09
3.1366903e-09
3.1006468e-09
3.0652611e-09
3.0304701e-09
2.9962245e-09
2.9625058e-09
2.9293112e-09
2.8965961e-09
2.8643036e-09
2.8324104e-09
2.8009299e-09
2.769835e-09
2.7390636e-09
2.7085915e-09
2.6784285e-09
2.6485679e-09
2.6189651e-09
2.5895816e-09
2.5604139e-09
2.5314756e-09
2.5027301e-09
2.4741237e-09
2.4456452e-09
2.41732e-09
2.3891199e-09
2.3609617e-09
2.3328523e-09
2.3048228e-09
2.2768465e-09
2.2488658e-09
2.2208626e-09
2.192861e-09
2.1648226e-09
2.1366848e-09
2.1084479e-09
2.0801162e-09
2.0516357e-09
2.0229662e-09
1.9941216e-09
1.9650587e-09
1.9363369e-09
1.9088969e-09
1.8829337e-09
1.8581308e-09
1.8345804e-09
1.8122105e-09
1.7909116e-09
1.7705764e-09
1.7511376e-09
1.7325521e-09
1.7147553e-09
1.69767e-09
1.68124e-09
1.665436e-09
1.650227e-09
1.6355677e-09
1.6213948e-09
1.6076842e-09
1.5943225e-09
1.5814685e-09
1.5683911e-09
1.5567662e-09
1.5379457e-09
1.9250114e-07
1.7018531e-07
1.662331e-07
1.5183695e-07
1.4452806e-07
1.4019938e-07
1.3724333e-07
1.3506972e-07
1.3341986e-07
1.3214429e-07
1.3114132e-07
1.3033931e-07
1.2968787e-07
1.2915128e-07
1.2870375e-07
1.2832618e-07
1.280041e-07
1.2772611e-07
1.274843e-07
1.272683e-07
1.2708332e-07
1.2688805e-07
1.2669948e-07
1.0552262e-07
9.8407171e-11
8.5206808e-09
1.6067708e-08
1.8088594e-08
1.7776792e-08
1.6950198e-08
1.6179185e-08
1.5514711e-08
1.4928386e-08
1.440707e-08
1.3942027e-08
1.3523904e-08
1.3133558e-08
1.277261e-08
1.2438925e-08
1.2130658e-08
1.1845348e-08
1.1579644e-08
1.1331267e-08
1.1098554e-08
1.0879297e-08
1.0672369e-08
1.047657e-08
1.029092e-08
1.0114614e-08
9.9466149e-09
9.7865002e-09
9.6334124e-09
9.4865981e-09
9.3458455e-09
9.2105883e-09
9.0802624e-09
8.9547085e-09
8.833528e-09
8.7162365e-09
8.6027064e-09
8.4927236e-09
8.3859252e-09
8.2820896e-09
8.1811614e-09
8.0822972e-09
7.9854405e-09
7.8908914e-09
7.7986091e-09
7.7084199e-09
7.620147e-09
7.5337227e-09
7.4490735e-09
7.3660399e-09
7.2844856e-09
7.2043719e-09
7.1256573e-09
7.0482027e-09
6.9718996e-09
6.8967113e-09
6.8226354e-09
6.7495736e-09
6.6773994e-09
6.6060628e-09
6.5355973e-09
6.4659441e-09
6.3969643e-09
6.328604e-09
6.260888e-09
6.1938033e-09
6.1272498e-09
6.0611412e-09
5.9954706e-09
5.9302707e-09
5.8654594e-09
5.8009157e-09
5.7366141e-09
5.6726137e-09
5.608851e-09
5.5451378e-09
5.4814889e-09
5.417976e-09
5.3545387e-09
5.2910455e-09
5.2274549e-09
5.163822e-09
5.1000593e-09
5.0360234e-09
4.9717139e-09
4.9071404e-09
4.842179e-09
4.7767362e-09
4.7108432e-09
4.6443996e-09
4.5786842e-09
4.5158532e-09
4.4563591e-09
4.3994762e-09
4.3454292e-09
4.2940589e-09
4.2451182e-09
4.1983646e-09
4.1536468e-09
4.110869e-09
4.0698856e-09
4.0305211e-09
3.9926481e-09
3.9562014e-09
3.9211111e-09
3.8872749e-09
3.8545477e-09
3.8228751e-09
3.7919975e-09
3.7622804e-09
3.7320421e-09
3.7051473e-09
3.6615847e-09
1.9249962e-07
1.7009174e-07
1.6630501e-07
1.5195287e-07
1.4461462e-07
1.4025219e-07
1.3726849e-07
1.3507259e-07
1.3340434e-07
1.3211344e-07
1.310977e-07
1.3028504e-07
1.2962464e-07
1.2908048e-07
1.2862647e-07
1.2824329e-07
1.2791633e-07
1.2763401e-07
1.2738834e-07
1.2716878e-07
1.2698107e-07
1.2678112e-07
1.2659943e-07
1.0742423e-07
1.7810235e-10
1.6300415e-08
3.0952105e-08
3.4984427e-08
3.4571776e-08
3.3165325e-08
3.1831075e-08
3.0668796e-08
2.963201e-08
2.8701888e-08
2.7866209e-08
2.7110235e-08
2.6399505e-08
2.5738987e-08
2.5125713e-08
2.4556966e-08
2.4028685e-08
2.3535015e-08
2.3072066e-08
2.2637031e-08
2.2225984e-08
2.1837033e-08
2.1468081e-08
2.1117416e-08
2.0783655e-08
2.0464929e-08
2.0160536e-08
1.9868919e-08
1.9588718e-08
1.9319594e-08
1.9060515e-08
1.8810455e-08
1.8569156e-08
1.833588e-08
1.8109737e-08
1.7890522e-08
1.7677838e-08
1.7471007e-08
1.7269637e-08
1.7073644e-08
1.688134e-08
1.6692647e-08
1.6508214e-08
1.6327977e-08
1.6151602e-08
1.5978759e-08
1.5809336e-08
1.56432e-08
1.5480041e-08
1.53196e-08
1.5161815e-08
1.5006618e-08
1.4853735e-08
1.4702955e-08
1.4554216e-08
1.4407525e-08
1.426269e-08
1.411946e-08
1.3977742e-08
1.3837612e-08
1.3698958e-08
1.3561502e-08
1.3425138e-08
1.3289923e-08
1.3155836e-08
1.3022677e-08
1.2890274e-08
1.2758614e-08
1.262777e-08
1.2497578e-08
1.2367792e-08
1.2238361e-08
1.2109409e-08
1.198081e-08
1.1852179e-08
1.1723548e-08
1.1595062e-08
1.1466601e-08
1.1337894e-08
1.1208856e-08
1.1079599e-08
1.0949945e-08
1.0819598e-08
1.0688554e-08
1.0556832e-08
1.0424176e-08
1.0290389e-08
1.0155532e-08
1.0019396e-08
9.8845978e-09
9.7555736e-09
9.6332675e-09
9.5161838e-09
9.404828e-09
9.2988888e-09
9.1978709e-09
9.1012851e-09
9.0088289e-09
8.9203144e-09
8.8354491e-09
8.7538767e-09
8.6753398e-09
8.599709e-09
8.5268457e-09
8.456542e-09
8.3885016e-09
8.3226142e-09
8.2583462e-09
8.1964546e-09
8.1334646e-09
8.0773919e-09
7.9865058e-09
1.92498e-07
1.6998172e-07
1.6638573e-07
1.5209141e-07
1.4472011e-07
1.4031812e-07
1.3730175e-07
1.3507945e-07
1.3338938e-07
1.3208028e-07
1.3104934e-07
1.3022397e-07
1.295529e-07
1.2899969e-07
1.2853794e-07
1.2814807e-07
1.2781525e-07
1.2752776e-07
1.2727748e-07
1.2705364e-07
1.2686266e-07
1.2665684e-07
1.2648553e-07
1.0922143e-07
2.8121956e-10
2.7813847e-08
5.3411001e-08
6.0812833e-08
6.05024e-08
5.8436317e-08
5.6427369e-08
5.4654419e-08
5.3051627e-08
5.1597973e-08
5.0280772e-08
4.9080646e-08
4.7942325e-08
4.6878212e-08
4.5885366e-08
4.4960632e-08
4.409824e-08
4.3289221e-08
4.2527814e-08
4.1809938e-08
4.112946e-08
4.048365e-08
3.9869315e-08
3.9283848e-08
3.8725182e-08
3.8190373e-08
3.7678416e-08
3.7186824e-08
3.6713441e-08
3.625782e-08
3.5818302e-08
3.539325e-08
3.4982314e-08
3.458429e-08
3.4197732e-08
3.3822377e-08
3.345757e-08
3.3102187e-08
3.2755632e-08
3.2417813e-08
3.2085656e-08
3.1759107e-08
3.1439447e-08
3.1126602e-08
3.0819995e-08
3.0519078e-08
3.0223707e-08
2.9933671e-08
2.9648425e-08
2.9367534e-08
2.9090925e-08
2.8818499e-08
2.8549779e-08
2.8284393e-08
2.8022255e-08
2.7763407e-08
2.750751e-08
2.7254117e-08
2.7003074e-08
2.6754539e-08
2.650832e-08
2.6263923e-08
2.6021156e-08
2.5780136e-08
2.5540841e-08
2.5302911e-08
2.5066031e-08
2.483019e-08
2.4595526e-08
2.4361745e-08
2.4128404e-08
2.3895407e-08
2.3662987e-08
2.3430919e-08
2.3198501e-08
2.2965784e-08
2.2733038e-08
2.2500044e-08
2.2266304e-08
2.2031656e-08
2.1796305e-08
2.1559923e-08
2.132196e-08
2.1082399e-08
2.0841273e-08
2.0598103e-08
2.0352516e-08
2.0104613e-08
1.9853997e-08
1.9605482e-08
1.9367272e-08
1.9141142e-08
1.8924301e-08
1.8717804e-08
1.8521116e-08
1.8333349e-08
1.8153621e-08
1.7981392e-08
1.7816337e-08
1.7657931e-08
1.7505527e-08
1.7358658e-08
1.7217096e-08
1.7080599e-08
1.6948787e-08
1.6821117e-08
1.6697389e-08
1.6576618e-08
1.6460213e-08
1.6341716e-08
1.623611e-08
1.6064779e-08
1.9249635e-07
1.698538e-07
1.6647434e-07
1.5225561e-07
1.4484795e-07
1.4040018e-07
1.3734562e-07
1.3509235e-07
1.3337663e-07
1.3204609e-07
1.3099721e-07
1.3015683e-07
1.2947313e-07
1.289092e-07
1.2843828e-07
1.2804046e-07
1.277007e-07
1.2740707e-07
1.271513e-07
1.269224e-07
1.2672752e-07
1.2651437e-07
1.2635841e-07
1.1089326e-07
4.0289438e-10
4.1441327e-08
8.3687157e-08
9.6432788e-08
9.670228e-08
9.4051586e-08
9.137301e-08
8.8970956e-08
8.6763912e-08
8.4736147e-08
8.2880783e-08
8.117687e-08
7.9543018e-08
7.8005963e-08
7.6564579e-08
7.5216249e-08
7.3953762e-08
7.2764755e-08
7.1641666e-08
7.0579274e-08
6.9568958e-08
6.860728e-08
6.7689902e-08
6.6813273e-08
6.5974659e-08
6.5169892e-08
6.4397726e-08
6.3654575e-08
6.2937386e-08
6.2245672e-08
6.157703e-08
6.0929117e-08
6.030155e-08
5.9692538e-08
5.909998e-08
5.8523619e-08
5.7962472e-08
5.7414853e-08
5.6879973e-08
5.6357781e-08
5.5843097e-08
5.5336002e-08
5.4838838e-08
5.4351554e-08
5.3873237e-08
5.3403075e-08
5.2940926e-08
5.2486492e-08
5.2038909e-08
5.1597509e-08
5.1162238e-08
5.0732985e-08
5.0308991e-08
4.9889654e-08
4.9474884e-08
4.9064798e-08
4.8658852e-08
4.8256324e-08
4.7856987e-08
4.7461131e-08
4.7068467e-08
4.667819e-08
4.6289986e-08
4.5904071e-08
4.5520437e-08
4.5138494e-08
4.4757725e-08
4.4378121e-08
4.3999925e-08
4.3622666e-08
4.3245608e-08
4.2868593e-08
4.2492015e-08
4.2115514e-08
4.1737927e-08
4.1359327e-08
4.0980164e-08
4.0600081e-08
4.0218243e-08
3.9834368e-08
3.94488e-08
3.9060989e-08
3.8670005e-08
3.8275807e-08
3.7878439e-08
3.7477093e-08
3.707112e-08
3.6660671e-08
3.6245062e-08
3.583226e-08
3.5435939e-08
3.5059095e-08
3.4696975e-08
3.4351627e-08
3.4022234e-08
3.370737e-08
3.3405603e-08
3.3116072e-08
3.2838275e-08
3.257137e-08
3.2314295e-08
3.2066292e-08
3.1827004e-08
3.1596047e-08
3.1372807e-08
3.1156382e-08
3.0946444e-08
3.0741363e-08
3.0543496e-08
3.0342044e-08
3.0162245e-08
2.9870232e-08
1.9249475e-07
1.6970661e-07
1.6656927e-07
1.5244891e-07
1.4500227e-07
1.405021e-07
1.3740332e-07
1.3511402e-07
1.3336839e-07
1.3201278e-07
1.309429e-07
1.300849e-07
1.2938635e-07
1.2880981e-07
1.2832808e-07
1.2792091e-07
1.2757296e-07
1.2727208e-07
1.2700985e-07
1.2677496e-07
1.2657548e-07
1.2635327e-07
1.2621962e-07
1.1248541e-07
5.5259761e-10
5.5847263e-08
1.1812894e-07
1.4158903e-07
1.4346468e-07
1.4049684e-07
1.3728723e-07
1.3434514e-07
1.3158455e-07
1.2900684e-07
1.2662081e-07
1.2440964e-07
1.2225944e-07
1.2022267e-07
1.1830282e-07
1.1649931e-07
1.1480414e-07
1.1320156e-07
1.116826e-07
1.1024127e-07
1.0886639e-07
1.0755413e-07
1.0629908e-07
1.0509681e-07
1.0394406e-07
1.0283537e-07
1.017694e-07
1.0074134e-07
9.9747236e-08
9.8786678e-08
9.7856431e-08
9.6953429e-08
9.607734e-08
9.5225689e-08
9.4395668e-08
9.3587141e-08
9.2798721e-08
9.2028069e-08
9.1274263e-08
9.0537373e-08
8.9809108e-08
8.9089898e-08
8.8383788e-08
8.7690815e-08
8.7009631e-08
8.633912e-08
8.5679215e-08
8.5029536e-08
8.4388802e-08
8.3756068e-08
8.3131351e-08
8.2514558e-08
8.1904572e-08
8.1300491e-08
8.0702247e-08
8.0110093e-08
7.9523228e-08
7.8940566e-08
7.8361802e-08
7.7787423e-08
7.7217027e-08
7.6649413e-08
7.6084096e-08
7.5521444e-08
7.4961486e-08
7.4403332e-08
7.3846198e-08
7.3290085e-08
7.2735388e-08
7.2181407e-08
7.1627027e-08
7.1072001e-08
7.0516947e-08
6.9961334e-08
6.9403397e-08
6.8843229e-08
6.8281518e-08
6.7717728e-08
6.7150581e-08
6.657963e-08
6.6005396e-08
6.5427043e-08
6.4843139e-08
6.4253588e-08
6.3658454e-08
6.3056487e-08
6.2446658e-08
6.1829173e-08
6.1202952e-08
6.057997e-08
5.9980929e-08
5.9410374e-08
5.8860789e-08
5.8335905e-08
5.7834599e-08
5.735479e-08
5.6894363e-08
5.6452066e-08
5.6027204e-08
5.5618545e-08
5.5224507e-08
5.4843968e-08
5.4476422e-08
5.4121326e-08
5.3777767e-08
5.3444389e-08
5.3120702e-08
5.2804265e-08
5.2498631e-08
5.218749e-08
5.1909328e-08
5.1457072e-08
1.924933e-07
1.6953891e-07
1.6666802e-07
1.5267506e-07
1.4518794e-07
1.4062851e-07
1.3747897e-07
1.351481e-07
1.3336785e-07
1.3198314e-07
1.308888e-07
1.3001025e-07
1.2929435e-07
1.2870306e-07
1.2820866e-07
1.2779052e-07
1.2743297e-07
1.2712359e-07
1.2685376e-07
1.2661184e-07
1.2640695e-07
1.2617361e-07
1.26072e-07
1.140363e-07
7.3167761e-10
7.2108124e-08
1.5604356e-07
1.9152574e-07
1.973818e-07
1.9528699e-07
1.9240469e-07
1.896295e-07
1.8688454e-07
1.8421799e-07
1.8168605e-07
1.7929696e-07
1.7665086e-07
1.7412342e-07
1.7172757e-07
1.6946705e-07
1.6733412e-07
1.6530998e-07
1.633849e-07
1.6155274e-07
1.5979989e-07
1.5812258e-07
1.5651457e-07
1.5497071e-07
1.5348739e-07
1.5205794e-07
1.506811e-07
1.4935076e-07
1.4806211e-07
1.46815e-07
1.4560529e-07
1.4442921e-07
1.4328662e-07
1.4217426e-07
1.4108859e-07
1.4002977e-07
1.3899593e-07
1.3798397e-07
1.3699295e-07
1.3602319e-07
1.350617e-07
1.3410967e-07
1.3317388e-07
1.3225457e-07
1.3134982e-07
1.3045818e-07
1.2957978e-07
1.2871416e-07
1.2785952e-07
1.270146e-07
1.2617955e-07
1.2535436e-07
1.2453746e-07
1.2372757e-07
1.2292469e-07
1.2212929e-07
1.2134027e-07
1.2055606e-07
1.197763e-07
1.1900174e-07
1.1823187e-07
1.17465e-07
1.1670042e-07
1.1593871e-07
1.1517999e-07
1.1442298e-07
1.1366657e-07
1.1291079e-07
1.1215623e-07
1.1140193e-07
1.106463e-07
1.0988899e-07
1.091309e-07
1.0837132e-07
1.0760774e-07
1.0684026e-07
1.0606988e-07
1.0529585e-07
1.0451636e-07
1.0373075e-07
1.0293975e-07
1.0214221e-07
1.0133606e-07
1.0052115e-07
9.9697549e-08
9.8863492e-08
9.8017471e-08
9.7159747e-08
9.6288759e-08
9.5421111e-08
9.4585716e-08
9.3788821e-08
9.3019112e-08
9.2283079e-08
9.1579312e-08
9.0904993e-08
9.0257217e-08
8.9634296e-08
8.903534e-08
8.8458678e-08
8.7902126e-08
8.7364144e-08
8.6844066e-08
8.6341184e-08
8.5854242e-08
8.538136e-08
8.4921848e-08
8.447236e-08
8.4037778e-08
8.3595583e-08
8.3199545e-08
8.2555041e-08
1.9249211e-07
1.6934978e-07
1.6676695e-07
1.5293808e-07
1.4541069e-07
1.4078506e-07
1.3757779e-07
1.3519932e-07
1.3337926e-07
1.3196099e-07
1.3083837e-07
1.2993597e-07
1.291999e-07
1.2859142e-07
1.2808227e-07
1.2765132e-07
1.2728256e-07
1.2696323e-07
1.2668453e-07
1.2643439e-07
1.2622316e-07
1.2597629e-07
1.2592023e-07
1.1552372e-07
9.4152945e-10
9.0115783e-08
1.985707e-07
2.4970664e-07
2.6078378e-07
2.5969343e-07
2.5697903e-07
2.54158e-07
2.5120738e-07
2.4823011e-07
2.4533397e-07
2.4255486e-07
2.3972388e-07
2.3697524e-07
2.3434436e-07
2.3184524e-07
2.2947376e-07
2.2721012e-07
2.2504638e-07
2.2297868e-07
2.209925e-07
2.1908571e-07
2.1725229e-07
2.1548721e-07
2.1378743e-07
2.1214572e-07
2.1056151e-07
2.0902768e-07
2.0753915e-07
2.060965e-07
2.0469481e-07
2.0333007e-07
2.0200273e-07
2.0070863e-07
1.994438e-07
1.9820926e-07
1.9700249e-07
1.9581959e-07
1.9466014e-07
1.9352509e-07
1.923464e-07
1.9114695e-07
1.8996679e-07
1.8880646e-07
1.876634e-07
1.8653576e-07
1.8542399e-07
1.8432762e-07
1.832442e-07
1.8217208e-07
1.8111166e-07
1.8006306e-07
1.7902421e-07
1.7799334e-07
1.7697056e-07
1.7595668e-07
1.7495022e-07
1.7394907e-07
1.7295276e-07
1.7196245e-07
1.709775e-07
1.6999563e-07
1.6901588e-07
1.6803909e-07
1.6706551e-07
1.6609344e-07
1.6512136e-07
1.6414933e-07
1.6317822e-07
1.6220677e-07
1.6123284e-07
1.6025593e-07
1.5927732e-07
1.5829609e-07
1.5730888e-07
1.5631579e-07
1.5531818e-07
1.5431511e-07
1.533041e-07
1.5228427e-07
1.5125663e-07
1.5021964e-07
1.4917053e-07
1.4810904e-07
1.4703532e-07
1.4594699e-07
1.4484198e-07
1.4372064e-07
1.4258085e-07
1.4144428e-07
1.4034888e-07
1.393025e-07
1.3828849e-07
1.3731789e-07
1.3638904e-07
1.3549833e-07
1.3464199e-07
1.3381783e-07
1.330248e-07
1.3226073e-07
1.3152279e-07
1.3080896e-07
1.3011841e-07
1.2945028e-07
1.2880293e-07
1.281739e-07
1.2756227e-07
1.2696376e-07
1.2638458e-07
1.2579583e-07
1.2526754e-07
1.2440724e-07
1.9249134e-07
1.6913871e-07
1.6686098e-07
1.5324211e-07
1.4567713e-07
1.409786e-07
1.3770632e-07
1.3527378e-07
1.3340829e-07
1.3195155e-07
1.3079638e-07
1.2986647e-07
1.2910706e-07
1.2847867e-07
1.2795238e-07
1.2750655e-07
1.2712474e-07
1.2679386e-07
1.2650481e-07
1.2624509e-07
1.2602645e-07
1.2576334e-07
1.2577145e-07
1.1692054e-07
1.1841564e-09
1.1056049e-07
2.4454935e-07
3.1613158e-07
3.3521638e-07
3.3619533e-07
3.3410986e-07
3.3151606e-07
3.2853397e-07
3.2535159e-07
3.221504e-07
3.1900919e-07
3.1581935e-07
3.1267515e-07
3.0963515e-07
3.0672608e-07
3.039491e-07
3.0128328e-07
2.9872247e-07
2.9626525e-07
2.9389584e-07
2.9161361e-07
2.8941255e-07
2.8728777e-07
2.8523675e-07
2.8325129e-07
2.8133174e-07
2.7946948e-07
2.7765879e-07
2.7590123e-07
2.741908e-07
2.7252287e-07
2.7089865e-07
2.6931291e-07
2.6776084e-07
2.6624437e-07
2.6476041e-07
2.6330389e-07
2.6187472e-07
2.6047462e-07
2.5907773e-07
2.5768656e-07
2.5631627e-07
2.5496841e-07
2.5363939e-07
2.5232693e-07
2.5103231e-07
2.4975526e-07