/*--------------------------------*- C++ -*----------------------------------*\
  =========                 |
  \\      /  F ield         | OpenFOAM: The Open Source CFD Toolbox
   \\    /   O peration     | Website:  https://openfoam.org
    \\  /    A nd           | Version:  12
     \\/     M anipulation  |
\*---------------------------------------------------------------------------*/
FoamFile
{
    format      ascii;
    class       volScalarField;
    location    "900";
    object      p;
}
// * * * * * * * * * * * * * * * * * * * * * * * * * * * * * * * * * * * * * //

dimensions      [0 2 -2 0 0 0 0];

internalField   nonuniform List<scalar> 
13056
(
0.0040416881
0.0040613736
0.004104876
0.0041600096
0.0042248166
0.0042993549
0.0043830574
0.0044751996
0.004575425
0.0046837819
0.0048006283
0.0049266222
0.0050628031
0.0052107385
0.0053727354
0.0055522363
0.0057543368
0.0059873375
0.0062636743
0.0066098257
0.0070597467
0.0077604378
0.0087362816
0.01211246
0.0090569134
0.0041496459
0.0041782437
0.0046277929
0.0046715571
0.0044752663
0.0042977464
0.004204111
0.0041328558
0.0040585703
0.0039866953
0.0039211899
0.00385981
0.0038021555
0.0037474463
0.0036965285
0.003648632
0.003603227
0.0035601367
0.0035185876
0.003479158
0.0034406079
0.0034040731
0.003368912
0.003333713
0.003300833
0.0032688348
0.0032363677
0.0032059864
0.0031763285
0.0031460486
0.0031170954
0.0030891988
0.003060958
0.0030326292
0.0030059817
0.0029796906
0.0029524198
0.0029254907
0.002900065
0.0028747028
0.0028482371
0.0028221518
0.0027973154
0.0027726291
0.0027468424
0.0027211351
0.002696229
0.0026716893
0.0026463392
0.0026205063
0.0025949036
0.002570174
0.0025451298
0.0025187785
0.0024925357
0.0024667777
0.0024410822
0.0024144247
0.0023871512
0.0023598135
0.0023330849
0.0023058857
0.0022771677
0.0022482806
0.0022195409
0.0021906104
0.0021605234
0.002129503
0.0020981859
0.0020670042
0.002034817
0.0020009525
0.0019664962
0.0019320179
0.0018964887
0.00185899
0.0018204715
0.0017816
0.0017413211
0.0016987283
0.0016546284
0.0016098427
0.0015629485
0.0015129868
0.001461481
0.0014079731
0.0013511451
0.0012913585
0.0012304161
0.0011688007
0.0011073385
0.0010476534
0.00098891996
0.00093018497
0.00087216826
0.00081560371
0.00075973352
0.00070386009
0.00064868616
0.00059466781
0.00054199117
0.00048994855
0.00043840711
0.00038850322
0.00034045262
0.00029618907
0.00025314763
0.00022353153
0.00018195954
0.00030359708
-0.00023097739
0.0040416881
0.0040613736
0.004104876
0.0041600096
0.0042248166
0.0042993549
0.0043830574
0.0044751996
0.004575425
0.0046837819
0.0048006283
0.0049266222
0.0050628031
0.0052107385
0.0053727354
0.0055522363
0.0057543368
0.0059873375
0.0062636742
0.0066098256
0.0070597466
0.0077604375
0.0087362817
0.012111083
0.009057678
0.0041502494
0.0041782583
0.0046278037
0.0046715829
0.0044752941
0.0042977711
0.0042041321
0.0041328741
0.0040585863
0.0039867096
0.0039212028
0.0038598218
0.0038021664
0.0037474562
0.0036965377
0.0036486405
0.0036032349
0.003560144
0.0035185944
0.0034791644
0.0034406139
0.0034040787
0.0033689174
0.003333718
0.0033008378
0.0032688393
0.003236372
0.0032059904
0.0031763323
0.0031460523
0.0031170989
0.0030892022
0.0030609612
0.0030326322
0.0030059846
0.0029796934
0.0029524225
0.0029254932
0.0029000675
0.0028747052
0.0028482394
0.002822154
0.0027973175
0.0027726311
0.0027468443
0.002721137
0.0026962308
0.002671691
0.0026463409
0.0026205079
0.0025949052
0.0025701755
0.0025451313
0.0025187799
0.002492537
0.002466779
0.0024410835
0.0024144259
0.0023871524
0.0023598146
0.002333086
0.0023058867
0.0022771687
0.0022482816
0.0022195419
0.0021906113
0.0021605242
0.0021295039
0.0020981867
0.002067005
0.0020348178
0.0020009532
0.0019664969
0.0019320186
0.0018964893
0.0018589907
0.0018204721
0.0017816005
0.0017413217
0.0016987288
0.0016546289
0.0016098431
0.001562949
0.0015129872
0.0014614814
0.0014079735
0.0013511455
0.0012913589
0.0012304165
0.001168801
0.0011073389
0.0010476537
0.00098892024
0.00093018524
0.00087216852
0.00081560395
0.00075973376
0.00070386032
0.00064868638
0.00059466802
0.00054199138
0.00048994875
0.00043840731
0.00038850341
0.0003404528
0.00029618925
0.0002531478
0.0002235317
0.00018195972
0.00030359728
-0.00023097725
0.0040416881
0.0040613736
0.004104876
0.0041600096
0.0042248166
0.0042993549
0.0043830574
0.0044751996
0.004575425
0.0046837819
0.0048006283
0.0049266222
0.0050628031
0.0052107385
0.0053727354
0.0055522363
0.0057543368
0.0059873375
0.0062636742
0.0066098256
0.0070597465
0.0077604371
0.0087362817
0.012109666
0.0090585112
0.0041509344
0.0041782757
0.0046278166
0.0046716138
0.0044753273
0.0042978007
0.0042041574
0.0041328959
0.0040586055
0.0039867266
0.0039212181
0.0038598359
0.0038021793
0.0037474682
0.0036965487
0.0036486506
0.0036032443
0.0035601527
0.0035186026
0.003479172
0.0034406211
0.0034040855
0.0033689237
0.003333724
0.0033008434
0.0032688447
0.0032363771
0.0032059953
0.0031763369
0.0031460567
0.003117103
0.0030892062
0.003060965
0.0030326359
0.0030059881
0.0029796967
0.0029524257
0.0029254963
0.0029000704
0.002874708
0.0028482422
0.0028221566
0.00279732
0.0027726335
0.0027468467
0.0027211393
0.002696233
0.0026716931
0.0026463429
0.0026205098
0.0025949071
0.0025701773
0.002545133
0.0025187816
0.0024925386
0.0024667806
0.002441085
0.0024144274
0.0023871538
0.002359816
0.0023330873
0.002305888
0.0022771699
0.0022482828
0.002219543
0.0021906123
0.0021605253
0.0021295049
0.0020981876
0.0020670059
0.0020348186
0.002000954
0.0019664977
0.0019320194
0.0018964901
0.0018589914
0.0018204728
0.0017816012
0.0017413223
0.0016987294
0.0016546295
0.0016098437
0.0015629495
0.0015129877
0.0014614819
0.001407974
0.0013511459
0.0012913593
0.0012304169
0.0011688014
0.0011073392
0.0010476541
0.00098892058
0.00093018556
0.00087216883
0.00081560425
0.00075973405
0.00070386059
0.00064868664
0.00059466828
0.00054199163
0.00048994899
0.00043840754
0.00038850364
0.00034045302
0.00029618946
0.00025314801
0.00022353191
0.00018195993
0.00030359753
-0.00023097709
0.0040416881
0.0040613736
0.004104876
0.0041600096
0.0042248166
0.0042993549
0.0043830574
0.0044751996
0.004575425
0.0046837819
0.0048006283
0.0049266222
0.0050628031
0.0052107385
0.0053727354
0.0055522363
0.0057543367
0.0059873375
0.0062636742
0.0066098255
0.0070597463
0.0077604363
0.0087362817
0.012108189
0.0090593765
0.0041515328
0.0041782928
0.0046278293
0.0046716441
0.0044753599
0.0042978297
0.0042041822
0.0041329174
0.0040586243
0.0039867433
0.0039212332
0.0038598497
0.003802192
0.0037474798
0.0036965594
0.0036486605
0.0036032535
0.0035601613
0.0035186106
0.0034791795
0.0034406281
0.0034040921
0.00336893
0.0033337299
0.003300849
0.00326885
0.0032363821
0.003206
0.0031763415
0.003146061
0.0031171071
0.0030892101
0.0030609687
0.0030326395
0.0030059915
0.0029797
0.0029524288
0.0029254993
0.0029000733
0.0028747108
0.0028482448
0.0028221592
0.0027973224
0.0027726359
0.0027468489
0.0027211415
0.0026962351
0.0026716952
0.0026463449
0.0026205117
0.0025949089
0.002570179
0.0025451347
0.0025187832
0.0024925402
0.0024667821
0.0024410865
0.0024144288
0.0023871552
0.0023598173
0.0023330885
0.0023058892
0.002277171
0.0022482839
0.0022195441
0.0021906134
0.0021605263
0.0021295058
0.0020981886
0.0020670068
0.0020348195
0.0020009549
0.0019664985
0.0019320202
0.0018964908
0.0018589921
0.0018204735
0.0017816018
0.001741323
0.00169873
0.0016546301
0.0016098442
0.0015629501
0.0015129882
0.0014614824
0.0014079745
0.0013511464
0.0012913597
0.0012304173
0.0011688018
0.0011073396
0.0010476544
0.00098892091
0.00093018587
0.00087216913
0.00081560454
0.00075973433
0.00070386086
0.0006486869
0.00059466853
0.00054199187
0.00048994922
0.00043840777
0.00038850386
0.00034045323
0.00029618967
0.00025314821
0.00022353211
0.00018196012
0.00030359777
-0.00023097694
0.0040416881
0.0040613736
0.004104876
0.0041600096
0.0042248166
0.0042993549
0.0043830574
0.0044751996
0.004575425
0.0046837819
0.0048006283
0.0049266222
0.0050628031
0.0052107385
0.0053727353
0.0055522363
0.0057543367
0.0059873375
0.0062636741
0.0066098253
0.0070597461
0.0077604352
0.0087362819
0.012106499
0.0090602683
0.0041520919
0.0041783107
0.0046278427
0.0046716753
0.0044753934
0.0042978594
0.0042042077
0.0041329394
0.0040586437
0.0039867604
0.0039212487
0.0038598639
0.003802205
0.0037474918
0.0036965705
0.0036486707
0.0036032629
0.0035601701
0.0035186188
0.0034791872
0.0034406354
0.0034040989
0.0033689364
0.003333736
0.0033008547
0.0032688554
0.0032363872
0.0032060049
0.0031763461
0.0031460654
0.0031171114
0.0030892141
0.0030609725
0.0030326431
0.0030059951
0.0029797033
0.0029524321
0.0029255024
0.0029000763
0.0028747137
0.0028482476
0.0028221618
0.002797325
0.0027726384
0.0027468513
0.0027211437
0.0026962372
0.0026716972
0.0026463469
0.0026205136
0.0025949108
0.0025701808
0.0025451365
0.0025187849
0.0024925418
0.0024667837
0.002441088
0.0024144302
0.0023871566
0.0023598186
0.0023330898
0.0023058904
0.0022771723
0.002248285
0.0022195452
0.0021906145
0.0021605273
0.0021295068
0.0020981895
0.0020670078
0.0020348204
0.0020009557
0.0019664993
0.001932021
0.0018964916
0.0018589928
0.0018204742
0.0017816025
0.0017413236
0.0016987306
0.0016546307
0.0016098448
0.0015629506
0.0015129887
0.0014614829
0.0014079749
0.0013511468
0.0012913601
0.0012304177
0.0011688022
0.0011073399
0.0010476547
0.00098892124
0.00093018619
0.00087216944
0.00081560484
0.00075973461
0.00070386114
0.00064868717
0.00059466879
0.00054199212
0.00048994946
0.000438408
0.00038850408
0.00034045345
0.00029618988
0.00025314842
0.00022353232
0.00018196032
0.00030359801
-0.00023097679
0.0040416881
0.0040613736
0.004104876
0.0041600096
0.0042248166
0.0042993549
0.0043830574
0.0044751996
0.004575425
0.0046837819
0.0048006283
0.0049266222
0.0050628031
0.0052107384
0.0053727353
0.0055522363
0.0057543367
0.0059873374
0.006263674
0.0066098252
0.0070597458
0.0077604336
0.0087362822
0.012104535
0.0090609963
0.0041526243
0.0041783314
0.004627858
0.004671709
0.0044754296
0.0042978915
0.0042042352
0.0041329632
0.0040586645
0.0039867789
0.0039212653
0.0038598791
0.003802219
0.0037475047
0.0036965823
0.0036486817
0.0036032731
0.0035601796
0.0035186276
0.0034791955
0.0034406431
0.0034041062
0.0033689433
0.0033337425
0.0033008609
0.0032688612
0.0032363927
0.0032060101
0.003176351
0.0031460701
0.0031171159
0.0030892184
0.0030609766
0.003032647
0.0030059988
0.0029797069
0.0029524355
0.0029255057
0.0029000794
0.0028747167
0.0028482505
0.0028221646
0.0027973277
0.002772641
0.0027468538
0.0027211461
0.0026962396
0.0026716995
0.0026463491
0.0026205157
0.0025949128
0.0025701827
0.0025451383
0.0025187867
0.0024925435
0.0024667853
0.0024410896
0.0024144318
0.002387158
0.0023598201
0.0023330912
0.0023058918
0.0022771735
0.0022482863
0.0022195464
0.0021906156
0.0021605284
0.0021295079
0.0020981905
0.0020670088
0.0020348214
0.0020009566
0.0019665002
0.0019320218
0.0018964924
0.0018589936
0.001820475
0.0017816032
0.0017413243
0.0016987313
0.0016546313
0.0016098454
0.0015629512
0.0015129893
0.0014614834
0.0014079754
0.0013511473
0.0012913606
0.0012304181
0.0011688026
0.0011073403
0.0010476551
0.0009889216
0.00093018654
0.00087216977
0.00081560515
0.00075973492
0.00070386143
0.00064868745
0.00059466906
0.00054199238
0.00048994972
0.00043840825
0.00038850432
0.00034045369
0.00029619011
0.00025314864
0.00022353254
0.00018196053
0.00030359827
-0.00023097663
0.0040416881
0.0040613736
0.004104876
0.0041600096
0.0042248166
0.0042993549
0.0043830574
0.0044751996
0.004575425
0.0046837819
0.0048006283
0.0049266222
0.0050628031
0.0052107384
0.0053727353
0.0055522362
0.0057543366
0.0059873373
0.0062636739
0.0066098249
0.0070597455
0.0077604315
0.0087362827
0.012102265
0.0090615227
0.0041531589
0.00417836
0.0046278771
0.0046717473
0.0044754705
0.0042979276
0.004204266
0.0041329897
0.0040586877
0.0039867994
0.0039212838
0.003859896
0.0038022345
0.003747519
0.0036965955
0.0036486938
0.0036032843
0.00356019
0.0035186374
0.0034792046
0.0034406517
0.0034041143
0.0033689508
0.0033337496
0.0033008676
0.0032688675
0.0032363987
0.0032060159
0.0031763565
0.0031460753
0.0031171208
0.0030892231
0.0030609811
0.0030326514
0.0030060029
0.0029797108
0.0029524393
0.0029255093
0.0029000829
0.00287472
0.0028482537
0.0028221677
0.0027973307
0.0027726438
0.0027468565
0.0027211488
0.0026962421
0.0026717019
0.0026463514
0.002620518
0.0025949149
0.0025701848
0.0025451403
0.0025187887
0.0024925454
0.0024667871
0.0024410913
0.0024144335
0.0023871597
0.0023598216
0.0023330927
0.0023058932
0.002277175
0.0022482876
0.0022195477
0.0021906169
0.0021605296
0.0021295091
0.0020981917
0.0020670098
0.0020348224
0.0020009576
0.0019665011
0.0019320227
0.0018964933
0.0018589945
0.0018204758
0.001781604
0.001741325
0.001698732
0.001654632
0.0016098461
0.0015629518
0.0015129899
0.001461484
0.001407976
0.0013511478
0.0012913611
0.0012304186
0.001168803
0.0011073408
0.0010476555
0.00098892199
0.00093018691
0.00087217013
0.0008156055
0.00075973525
0.00070386175
0.00064868776
0.00059466936
0.00054199267
0.00048995
0.00043840852
0.00038850459
0.00034045394
0.00029619036
0.00025314888
0.00022353278
0.00018196076
0.00030359856
-0.00023097645
0.0040416881
0.0040613736
0.004104876
0.0041600096
0.0042248166
0.0042993549
0.0043830574
0.0044751996
0.004575425
0.0046837819
0.0048006283
0.0049266222
0.0050628031
0.0052107384
0.0053727353
0.0055522362
0.0057543366
0.0059873372
0.0062636737
0.0066098246
0.007059745
0.0077604287
0.0087362834
0.012099649
0.0090618598
0.0041538154
0.0041784092
0.0046279043
0.0046717934
0.0044755191
0.0042979703
0.0042043023
0.004133021
0.004058715
0.0039868235
0.0039213055
0.0038599158
0.0038022526
0.0037475355
0.0036966107
0.0036487078
0.0036032973
0.0035602021
0.0035186486
0.0034792151
0.0034406615
0.0034041235
0.0033689595
0.0033337578
0.0033008753
0.0032688748
0.0032364057
0.0032060224
0.0031763627
0.0031460812
0.0031171264
0.0030892285
0.0030609863
0.0030326563
0.0030060076
0.0029797153
0.0029524436
0.0029255134
0.0029000868
0.0028747238
0.0028482574
0.0028221712
0.002797334
0.002772647
0.0027468596
0.0027211517
0.002696245
0.0026717047
0.0026463541
0.0026205205
0.0025949174
0.0025701872
0.0025451426
0.0025187909
0.0024925476
0.0024667892
0.0024410933
0.0024144354
0.0023871615
0.0023598234
0.0023330944
0.0023058949
0.0022771765
0.0022482892
0.0022195492
0.0021906183
0.002160531
0.0021295104
0.0020981929
0.002067011
0.0020348236
0.0020009588
0.0019665022
0.0019320238
0.0018964943
0.0018589954
0.0018204767
0.0017816049
0.0017413259
0.0016987328
0.0016546328
0.0016098468
0.0015629525
0.0015129906
0.0014614846
0.0014079766
0.0013511484
0.0012913616
0.0012304191
0.0011688035
0.0011073412
0.001047656
0.00098892242
0.00093018732
0.00087217053
0.00081560588
0.00075973562
0.0007038621
0.0006486881
0.00059466969
0.00054199299
0.00048995031
0.00043840881
0.00038850488
0.00034045422
0.00029619063
0.00025314915
0.00022353305
0.00018196102
0.00030359887
-0.00023097626
0.0040416881
0.0040613736
0.004104876
0.0041600096
0.0042248166
0.0042993549
0.0043830574
0.0044751996
0.004575425
0.0046837819
0.0048006283
0.0049266222
0.005062803
0.0052107384
0.0053727352
0.0055522361
0.0057543365
0.0059873371
0.0062636735
0.0066098242
0.0070597445
0.0077604252
0.0087362843
0.012096631
0.0090619601
0.0041547392
0.0041785062
0.0046279481
0.0046718532
0.0044755808
0.0042980243
0.004204348
0.0041330601
0.004058749
0.0039868534
0.0039213322
0.0038599401
0.0038022748
0.0037475558
0.0036966293
0.0036487249
0.0036033131
0.0035602167
0.0035186622
0.0034792278
0.0034406734
0.0034041347
0.00336897
0.0033337677
0.0033008846
0.0032688836
0.003236414
0.0032060303
0.0031763702
0.0031460883
0.0031171332
0.0030892349
0.0030609924
0.0030326621
0.0030060132
0.0029797206
0.0029524487
0.0029255183
0.0029000915
0.0028747283
0.0028482617
0.0028221753
0.002797338
0.0027726508
0.0027468633
0.0027211553
0.0026962484
0.0026717079
0.0026463572
0.0026205235
0.0025949203
0.00257019
0.0025451453
0.0025187935
0.00249255
0.0024667916
0.0024410956
0.0024144376
0.0023871636
0.0023598255
0.0023330964
0.0023058968
0.0022771784
0.0022482909
0.0022195509
0.0021906199
0.0021605326
0.0021295119
0.0020981944
0.0020670125
0.0020348249
0.0020009601
0.0019665035
0.001932025
0.0018964954
0.0018589965
0.0018204777
0.0017816059
0.0017413268
0.0016987337
0.0016546336
0.0016098476
0.0015629533
0.0015129913
0.0014614854
0.0014079773
0.001351149
0.0012913622
0.0012304197
0.0011688041
0.0011073418
0.0010476565
0.00098892292
0.0009301878
0.00087217098
0.00081560632
0.00075973604
0.00070386251
0.00064868849
0.00059467006
0.00054199335
0.00048995066
0.00043840915
0.00038850521
0.00034045454
0.00029619095
0.00025314946
0.00022353335
0.00018196131
0.00030359923
-0.00023097604
0.0040416881
0.0040613736
0.004104876
0.0041600096
0.0042248166
0.0042993549
0.0043830574
0.0044751996
0.004575425
0.0046837819
0.0048006283
0.0049266222
0.005062803
0.0052107384
0.0053727352
0.0055522361
0.0057543364
0.0059873369
0.0062636732
0.0066098236
0.0070597437
0.0077604206
0.0087362856
0.012093133
0.0090614904
0.0041560581
0.0041787003
0.0046280235
0.0046719353
0.0044756633
0.0042980961
0.0042044086
0.0041331116
0.0040587935
0.0039868924
0.003921367
0.0038599716
0.0038023035
0.0037475821
0.0036966533
0.003648747
0.0036033334
0.0035602355
0.0035186797
0.0034792441
0.0034406886
0.0034041489
0.0033689834
0.0033337802
0.0033008965
0.0032688948
0.0032364245
0.0032060403
0.0031763796
0.0031460973
0.0031171417
0.003089243
0.0030610001
0.0030326694
0.0030060202
0.0029797273
0.0029524551
0.0029255244
0.0029000974
0.0028747339
0.0028482671
0.0028221805
0.0027973429
0.0027726556
0.0027468679
0.0027211597
0.0026962526
0.002671712
0.0026463611
0.0026205273
0.0025949239
0.0025701935
0.0025451486
0.0025187967
0.0024925531
0.0024667946
0.0024410985
0.0024144403
0.0023871663
0.002359828
0.0023330989
0.0023058991
0.0022771806
0.0022482931
0.002219553
0.002190622
0.0021605345
0.0021295138
0.0020981962
0.0020670142
0.0020348266
0.0020009616
0.001966505
0.0019320264
0.0018964968
0.0018589978
0.001820479
0.0017816071
0.001741328
0.0016987348
0.0016546347
0.0016098487
0.0015629543
0.0015129923
0.0014614863
0.0014079781
0.0013511498
0.001291363
0.0012304204
0.0011688048
0.0011073424
0.0010476571
0.00098892352
0.00093018837
0.00087217153
0.00081560684
0.00075973654
0.00070386299
0.00064868896
0.00059467051
0.00054199379
0.00048995108
0.00043840956
0.0003885056
0.00034045493
0.00029619132
0.00025314982
0.00022353371
0.00018196166
0.00030359966
-0.00023097577
0.0040416881
0.0040613736
0.004104876
0.0041600096
0.0042248166
0.0042993549
0.0043830574
0.0044751996
0.004575425
0.0046837819
0.0048006282
0.0049266222
0.005062803
0.0052107383
0.0053727351
0.005552236
0.0057543362
0.0059873367
0.0062636728
0.0066098229
0.0070597427
0.0077604148
0.0087362873
0.012089067
0.00906019
0.004157886
0.004179069
0.0046281542
0.0046720513
0.0044757761
0.0042981939
0.0042044908
0.0041331814
0.0040588537
0.003986945
0.0039214138
0.0038600139
0.0038023419
0.0037476171
0.0036966853
0.0036487763
0.0036033605
0.0035602605
0.0035187029
0.0034792657
0.0034407088
0.0034041677
0.003369001
0.0033337968
0.003300912
0.0032689095
0.0032364384
0.0032060534
0.0031763921
0.003146109
0.0031171529
0.0030892536
0.0030610102
0.0030326791
0.0030060294
0.0029797361
0.0029524634
0.0029255324
0.002900105
0.0028747413
0.0028482741
0.0028221872
0.0027973494
0.0027726618
0.0027468738
0.0027211653
0.002696258
0.0026717172
0.0026463661
0.0026205321
0.0025949286
0.0025701979
0.002545153
0.0025188008
0.0024925571
0.0024667984
0.0024411021
0.0024144439
0.0023871697
0.0023598313
0.002333102
0.0023059022
0.0022771836
0.0022482959
0.0022195557
0.0021906246
0.002160537
0.0021295161
0.0020981985
0.0020670164
0.0020348287
0.0020009637
0.0019665069
0.0019320283
0.0018964986
0.0018589996
0.0018204807
0.0017816087
0.0017413295
0.0016987363
0.0016546361
0.00160985
0.0015629555
0.0015129934
0.0014614874
0.0014079792
0.0013511508
0.001291364
0.0012304213
0.0011688056
0.0011073433
0.0010476579
0.00098892427
0.00093018909
0.00087217221
0.0008156075
0.00075973717
0.0007038636
0.00064868954
0.00059467108
0.00054199433
0.0004899516
0.00043841007
0.00038850609
0.0003404554
0.00029619178
0.00025315027
0.00022353416
0.00018196209
0.00030360019
-0.00023097544
0.0040416881
0.0040613736
0.004104876
0.0041600096
0.0042248166
0.0042993549
0.0043830574
0.0044751996
0.004575425
0.0046837819
0.0048006282
0.0049266222
0.005062803
0.0052107383
0.0053727351
0.0055522359
0.0057543361
0.0059873364
0.0062636724
0.006609822
0.0070597415
0.0077604073
0.0087362895
0.012084346
0.0090584244
0.0041603079
0.0041797172
0.0046283765
0.0046722149
0.0044759297
0.0042983267
0.0042046024
0.0041332758
0.004058935
0.0039870161
0.0039214769
0.0038600708
0.0038023936
0.0037476643
0.0036967284
0.0036488158
0.0036033968
0.003560294
0.003518734
0.0034792946
0.0034407358
0.003404193
0.0033690246
0.003333819
0.0033009329
0.0032689291
0.0032364569
0.0032060709
0.0031764087
0.0031461248
0.0031171678
0.0030892678
0.0030610237
0.0030326919
0.0030060416
0.0029797478
0.0029524746
0.0029255431
0.0029001152
0.002874751
0.0028482834
0.0028221962
0.002797358
0.00277267
0.0027468817
0.0027211729
0.0026962653
0.0026717242
0.0026463728
0.0026205386
0.0025949347
0.0025702039
0.0025451587
0.0025188063
0.0024925624
0.0024668035
0.002441107
0.0024144486
0.0023871742
0.0023598356
0.0023331062
0.0023059062
0.0022771874
0.0022482996
0.0022195592
0.002190628
0.0021605403
0.0021295193
0.0020982015
0.0020670193
0.0020348315
0.0020009663
0.0019665095
0.0019320307
0.001896501
0.0018590018
0.0018204828
0.0017816107
0.0017413315
0.0016987381
0.0016546379
0.0016098517
0.0015629571
0.001512995
0.0014614888
0.0014079806
0.0013511522
0.0012913652
0.0012304225
0.0011688067
0.0011073443
0.0010476589
0.00098892524
0.00093019002
0.00087217311
0.00081560836
0.00075973799
0.00070386439
0.0006486903
0.00059467181
0.00054199504
0.00048995228
0.00043841073
0.00038850673
0.00034045602
0.00029619239
0.00025315086
0.00022353475
0.00018196264
0.00030360087
-0.00023097502
0.0040416881
0.0040613736
0.004104876
0.0041600096
0.0042248166
0.0042993549
0.0043830574
0.0044751996
0.004575425
0.0046837818
0.0048006282
0.0049266221
0.0050628029
0.0052107382
0.005372735
0.0055522357
0.0057543358
0.0059873361
0.0062636718
0.0066098209
0.00705974
0.0077603978
0.0087362923
0.012078869
0.0090566043
0.0041634147
0.0041807679
0.0046287478
0.0046724415
0.0044761335
0.0042985029
0.0042047507
0.0041334015
0.0040590433
0.0039871108
0.0039215609
0.0038601462
0.0038024621
0.0037477267
0.0036967855
0.0036488681
0.0036034449
0.0035603385
0.0035187752
0.003479333
0.0034407716
0.0034042265
0.003369056
0.0033338485
0.0033009607
0.0032689552
0.0032364816
0.0032060943
0.0031764307
0.0031461457
0.0031171877
0.0030892867
0.0030610416
0.0030327091
0.0030060579
0.0029797633
0.0029524894
0.0029255573
0.0029001288
0.002874764
0.0028482959
0.0028222081
0.0027973694
0.002772681
0.0027468922
0.002721183
0.002696275
0.0026717335
0.0026463817
0.0026205471
0.002594943
0.0025702118
0.0025451663
0.0025188136
0.0024925694
0.0024668102
0.0024411135
0.0024144548
0.0023871802
0.0023598414
0.0023331118
0.0023059115
0.0022771925
0.0022483046
0.002219564
0.0021906325
0.0021605446
0.0021295235
0.0020982055
0.0020670231
0.0020348352
0.0020009699
0.0019665129
0.001932034
0.0018965041
0.0018590048
0.0018204857
0.0017816135
0.0017413341
0.0016987406
0.0016546402
0.0016098539
0.0015629593
0.001512997
0.0014614908
0.0014079824
0.0013511539
0.0012913669
0.0012304241
0.0011688082
0.0011073458
0.0010476603
0.00098892654
0.00093019125
0.00087217429
0.00081560949
0.00075973908
0.00070386543
0.00064869131
0.00059467278
0.00054199597
0.00048995319
0.0004384116
0.00038850757
0.00034045684
0.00029619319
0.00025315163
0.00022353552
0.00018196338
0.00030360178
-0.00023097445
0.0040416881
0.0040613736
0.004104876
0.0041600096
0.0042248166
0.0042993549
0.0043830574
0.0044751996
0.004575425
0.0046837818
0.0048006282
0.0049266221
0.0050628029
0.0052107381
0.0053727348
0.0055522355
0.0057543356
0.0059873356
0.006263671
0.0066098195
0.007059738
0.0077603857
0.008736296
0.012072522
0.0090547854
0.0041674075
0.0041823347
0.0046293366
0.0046727562
0.0044764009
0.0042987326
0.0042049444
0.0041335656
0.0040591847
0.0039872344
0.0039216695
0.0038602428
0.0038025499
0.0037478069
0.0036968588
0.0036489353
0.0036035069
0.0035603959
0.0035188285
0.0034793827
0.003440818
0.0034042699
0.0033690967
0.0033338867
0.0033009967
0.0032689892
0.0032365137
0.0032061247
0.0031764595
0.003146173
0.0031172137
0.0030893113
0.0030610651
0.0030327315
0.0030060793
0.0029797837
0.0029525089
0.0029255759
0.0029001466
0.0028747811
0.0028483122
0.0028222238
0.0027973844
0.0027726953
0.0027469059
0.0027211962
0.0026962876
0.0026717457
0.0026463934
0.0026205584
0.0025949538
0.0025702222
0.0025451762
0.0025188232
0.0024925786
0.0024668191
0.002441122
0.002414463
0.0023871881
0.002359849
0.0023331191
0.0023059185
0.0022771993
0.002248311
0.0022195702
0.0021906385
0.0021605504
0.002129529
0.0020982108
0.0020670282
0.00203484
0.0020009746
0.0019665174
0.0019320383
0.0018965082
0.0018590087
0.0018204894
0.0017816171
0.0017413375
0.0016987439
0.0016546434
0.0016098569
0.0015629622
0.0015129997
0.0014614934
0.0014079849
0.0013511562
0.0012913691
0.0012304262
0.0011688102
0.0011073476
0.0010476621
0.00098892825
0.00093019289
0.00087217586
0.000815611
0.00075974053
0.00070386682
0.00064869264
0.00059467406
0.00054199721
0.00048995438
0.00043841276
0.00038850869
0.00034045793
0.00029619425
0.00025315266
0.00022353655
0.00018196436
0.00030360298
-0.00023097371
0.0040416881
0.0040613736
0.004104876
0.0041600096
0.0042248166
0.0042993549
0.0043830574
0.0044751996
0.004575425
0.0046837818
0.0048006281
0.004926622
0.0050628028
0.005210738
0.0053727347
0.0055522353
0.0057543352
0.005987335
0.0062636701
0.0066098176
0.0070597354
0.0077603701
0.0087363008
0.012065165
0.0090529704
0.0041727196
0.0041845226
0.0046302177
0.0046731941
0.00447675
0.0042990285
0.0042051928
0.0041337753
0.0040593644
0.003987391
0.0039218067
0.0038603647
0.0038026606
0.003747908
0.0036969514
0.0036490204
0.0036035853
0.0035604684
0.0035188959
0.0034794455
0.0034408767
0.003404325
0.0033691484
0.0033339353
0.0033010425
0.0032690324
0.0032365546
0.0032061633
0.0031764962
0.0031462078
0.0031172468
0.0030893428
0.0030610951
0.0030327601
0.0030061066
0.0029798098
0.0029525339
0.0029255998
0.0029001694
0.0028748027
0.0028483328
0.0028222435
0.0027974033
0.0027727135
0.0027469234
0.002721213
0.0026963037
0.0026717611
0.0026464083
0.0026205726
0.0025949675
0.0025702354
0.0025451889
0.0025188354
0.0024925904
0.0024668304
0.0024411329
0.0024144735
0.0023871982
0.0023598587
0.0023331284
0.0023059275
0.0022772079
0.0022483194
0.0022195782
0.0021906462
0.0021605578
0.0021295361
0.0020982176
0.0020670348
0.0020348463
0.0020009806
0.0019665232
0.0019320439
0.0018965135
0.0018590138
0.0018204943
0.0017816218
0.001741342
0.0016987482
0.0016546475
0.0016098608
0.0015629659
0.0015130033
0.0014614967
0.0014079881
0.0013511593
0.0012913719
0.0012304289
0.0011688128
0.0011073501
0.0010476644
0.00098893049
0.00093019503
0.0008721779
0.00081561296
0.00075974241
0.00070386863
0.00064869438
0.00059467574
0.00054199883
0.00048995595
0.00043841427
0.00038851016
0.00034045935
0.00029619563
0.000253154
0.00022353789
0.00018196565
0.00030360456
-0.00023097273
0.0040416881
0.0040613736
0.004104876
0.0041600096
0.0042248166
0.0042993549
0.0043830573
0.0044751996
0.0045754249
0.0046837818
0.0048006281
0.004926622
0.0050628027
0.0052107379
0.0053727345
0.005552235
0.0057543347
0.0059873343
0.0062636689
0.0066098153
0.0070597322
0.0077603504
0.008736307
0.012056629
0.0090511996
0.0041795499
0.0041874176
0.004631487
0.0046737983
0.0044772037
0.0042994065
0.0042055088
0.0041340407
0.0040595911
0.0039875878
0.0039219796
0.0038605191
0.0038028006
0.0037480357
0.0036970681
0.0036491275
0.003603684
0.0035605596
0.0035189806
0.0034795244
0.0034409504
0.0034043939
0.0033692131
0.0033339962
0.0033010998
0.0032690864
0.0032366056
0.0032062117
0.003176542
0.0031462513
0.0031172881
0.0030893821
0.0030611325
0.0030327958
0.0030061407
0.0029798423
0.0029525649
0.0029256296
0.0029001977
0.0028748295
0.0028483585
0.0028222681
0.0027974269
0.0027727361
0.0027469451
0.0027212338
0.0026963238
0.0026717804
0.0026464268
0.0026205905
0.0025949847
0.0025702519
0.0025452048
0.0025188507
0.0024926051
0.0024668446
0.0024411466
0.0024144866
0.0023872108
0.0023598709
0.0023331401
0.0023059388
0.0022772188
0.0022483298
0.0022195882
0.0021906559
0.0021605671
0.002129545
0.0020982262
0.002067043
0.0020348543
0.0020009882
0.0019665305
0.0019320509
0.0018965203
0.0018590203
0.0018205005
0.0017816277
0.0017413477
0.0016987536
0.0016546526
0.0016098658
0.0015629706
0.0015130078
0.001461501
0.0014079921
0.0013511631
0.0012913756
0.0012304324
0.0011688161
0.0011073532
0.0010476674
0.0009889333
0.00093019772
0.00087218048
0.00081561543
0.00075974478
0.00070387091
0.00064869658
0.00059467786
0.00054200088
0.00048995793
0.00043841618
0.00038851201
0.00034046115
0.00029619738
0.00025315571
0.00022353959
0.00018196727
0.00030360656
-0.00023097148
0.0040416881
0.0040613736
0.004104876
0.0041600096
0.0042248166
0.0042993549
0.0043830573
0.0044751995
0.0045754249
0.0046837817
0.004800628
0.0049266219
0.0050628026
0.0052107377
0.0053727342
0.0055522346
0.0057543341
0.0059873334
0.0062636673
0.0066098123
0.007059728
0.0077603252
0.0087363148
0.012046732
0.0090495357
0.004187633
0.0041910215
0.004633253
0.0046746287
0.0044777935
0.004299889
0.0042059105
0.0041343775
0.0040598781
0.0039878365
0.0039221982
0.0038607143
0.0038029772
0.0037481965
0.003697215
0.003649262
0.0036038077
0.0035606739
0.0035190866
0.003479623
0.0034410425
0.0034044801
0.0033692938
0.003334072
0.0033011711
0.0032691536
0.0032366691
0.0032062718
0.0031765989
0.0031463053
0.0031173394
0.0030894308
0.0030611789
0.00303284
0.0030061829
0.0029798825
0.0029526034
0.0029256664
0.0029002328
0.002874863
0.0028483905
0.0028222988
0.0027974563
0.0027727643
0.0027469722
0.0027212599
0.0026963488
0.0026718044
0.0026464499
0.0026206127
0.0025950061
0.0025702725
0.0025452246