/*--------------------------------*- C++ -*----------------------------------*\
  =========                 |
  \\      /  F ield         | OpenFOAM: The Open Source CFD Toolbox
   \\    /   O peration     | Website:  https://openfoam.org
    \\  /    A nd           | Version:  12
     \\/     M anipulation  |
\*---------------------------------------------------------------------------*/
FoamFile
{
    format      ascii;
    class       surfaceScalarField;
    location    "900";
    object      phi;
}
// * * * * * * * * * * * * * * * * * * * * * * * * * * * * * * * * * * * * * //

dimensions      [0 3 -1 0 0 0 0];

internalField   nonuniform List<scalar> 
25880
(
2.0046355e-06
1.865685e-11
2.0045763e-06
5.9155994e-11
2.0044829e-06
9.3415337e-11
2.0043686e-06
1.1432062e-10
2.0042375e-06
1.3110161e-10
2.0040909e-06
1.4657554e-10
2.0039297e-06
1.6124646e-10
2.0037541e-06
1.7559853e-10
2.0035638e-06
1.9028064e-10
2.0033579e-06
2.0589059e-10
2.0031349e-06
2.229775e-10
2.0028927e-06
2.4218498e-10
2.0026284e-06
2.6436633e-10
2.0023375e-06
2.9082759e-10
2.0020143e-06
3.2327106e-10
2.001649e-06
3.6526889e-10
2.0012294e-06
4.1965861e-10
2.000727e-06
5.0233738e-10
2.0001208e-06
6.0623838e-10
1.9992724e-06
8.4835411e-10
1.9982106e-06
1.0618609e-09
1.9951428e-06
3.0677704e-09
1.9926664e-06
2.4763889e-09
1.0227926e-06
9.6987382e-07
3.9178342e-08
9.8361424e-07
2.5391322e-08
1.378702e-08
2.5072381e-08
3.189415e-10
2.4835911e-08
2.3646971e-10
2.4261587e-08
5.743247e-10
2.3637212e-08
6.2437463e-10
2.307558e-08
5.6163165e-10
2.2590295e-08
4.8528574e-10
2.2166731e-08
4.2356302e-10
2.1791405e-08
3.7532654e-10
2.145494e-08
3.364648e-10
2.1147961e-08
3.0697921e-10
2.0863627e-08
2.8433425e-10
2.0599436e-08
2.6419104e-10
2.0353462e-08
2.4597398e-10
2.0124207e-08
2.2925487e-10
1.9909851e-08
2.1435551e-10
1.9708507e-08
2.0134402e-10
1.9518747e-08
1.8976032e-10
1.9339234e-08
1.7951325e-10
1.9168805e-08
1.7042873e-10
1.9006597e-08
1.6220814e-10
1.8851907e-08
1.5468935e-10
1.8704126e-08
1.477811e-10
1.8562559e-08
1.4156708e-10
1.842676e-08
1.3579933e-10
1.8296305e-08
1.3045478e-10
1.8170564e-08
1.2574071e-10
1.8049236e-08
1.2132882e-10
1.7932077e-08
1.1715817e-10
1.7818625e-08
1.1345245e-10
1.770863e-08
1.0999487e-10
1.760196e-08
1.0667037e-10
1.749826e-08
1.0369947e-10
1.7397247e-08
1.0101292e-10
1.729887e-08
9.8377848e-11
1.7202965e-08
9.5904805e-11
1.7109229e-08
9.3735493e-11
1.7017524e-08
9.1705422e-11
1.6927704e-08
8.9819573e-11
1.6839528e-08
8.8176288e-11
1.6752904e-08
8.6624202e-11
1.6667843e-08
8.5060447e-11
1.6584342e-08
8.3501116e-11
1.6502289e-08
8.2053428e-11
1.6421516e-08
8.0772788e-11
1.6341945e-08
7.9571478e-11
1.626354e-08
7.8404311e-11
1.618622e-08
7.7320205e-11
1.6109875e-08
7.6345448e-11
1.6034429e-08
7.5445326e-11
1.595983e-08
7.4599635e-11
1.5886032e-08
7.3797762e-11
1.5812971e-08
7.306045e-11
1.5740572e-08
7.2399663e-11
1.566879e-08
7.1781583e-11
1.5597578e-08
7.1212262e-11
1.5526873e-08
7.0705084e-11
1.5456634e-08
7.0238721e-11
1.5386825e-08
6.9809176e-11
1.5317373e-08
6.9451553e-11
1.5248232e-08
6.9141779e-11
1.5179379e-08
6.8852347e-11
1.5110776e-08
6.8603217e-11
1.504237e-08
6.8405734e-11
1.4974106e-08
6.8264231e-11
1.4905945e-08
6.8160941e-11
1.4837873e-08
6.8072396e-11
1.4769846e-08
6.8026761e-11
1.4701779e-08
6.8067093e-11
1.4633619e-08
6.8159842e-11
1.4565365e-08
6.8253644e-11
1.4496982e-08
6.8383016e-11
1.4428347e-08
6.8635649e-11
1.4359386e-08
6.8960674e-11
1.4290129e-08
6.9256863e-11
1.4220551e-08
6.9578317e-11
1.4150547e-08
7.0003751e-11
1.4080037e-08
7.0510074e-11
1.4009009e-08
7.1027764e-11
1.3937414e-08
7.159539e-11
1.3865117e-08
7.2297255e-11
1.3792039e-08
7.3077299e-11
1.371816e-08
7.3879047e-11
1.3643381e-08
7.4778935e-11
1.3567569e-08
7.5812735e-11
1.3490666e-08
7.6902744e-11
1.3412598e-08
7.8067593e-11
1.3333153e-08
7.9445376e-11
1.3255605e-08
7.7547418e-11
1.3181766e-08
7.3839422e-11
1.3111164e-08
7.0602193e-11
1.3043545e-08
6.7619317e-11
1.2978866e-08
6.4678344e-11
1.2916919e-08
6.1947445e-11
1.2857451e-08
5.9468179e-11
1.2800271e-08
5.7179993e-11
1.2745261e-08
5.5009537e-11
1.2692296e-08
5.2964742e-11
1.2641206e-08
5.1090396e-11
1.2591833e-08
4.9373041e-11
1.2544084e-08
4.7748791e-11
1.249789e-08
4.6194139e-11
1.2453154e-08
4.4736176e-11
1.2409732e-08
4.3421241e-11
1.2367521e-08
4.2211086e-11
1.2326302e-08
4.1219206e-11
1.22862e-08
4.0101812e-11
1.2246149e-08
4.0051107e-11
1.2207741e-08
3.8407956e-11
1.2160672e-08
4.7069653e-11
2.9542451e-11
2.0345091e-06
3.7591909e-11
2.0344491e-06
1.1920275e-10
2.0343542e-06
1.8825492e-10
2.0342382e-06
2.3040678e-10
2.034105e-06
2.6424622e-10
2.0339561e-06
2.9544605e-10
2.0337924e-06
3.2502211e-10
2.033614e-06
3.5395128e-10
2.0334208e-06
3.835421e-10
2.0332116e-06
4.1499983e-10
2.0329852e-06
4.4943145e-10
2.0327392e-06
4.8813427e-10
2.0324708e-06
5.3282797e-10
2.0321755e-06
5.8614449e-10
2.0318472e-06
6.5151409e-10
2.0314764e-06
7.3613444e-10
2.0310503e-06
8.4572334e-10
2.0305403e-06
1.0123105e-09
2.0299249e-06
1.2216614e-09
2.0290638e-06
1.7094756e-09
2.0279859e-06
2.1397268e-09
2.024873e-06
6.1807199e-09
2.0223555e-06
4.9938355e-09
1.0892212e-06
1.9030081e-06
1.1736406e-07
1.9554714e-06
7.7695052e-08
5.3456028e-08
7.6719793e-08
1.2941998e-09
7.5994088e-08
9.6217528e-10
7.4234944e-08
2.3334689e-09
7.2324184e-08
2.5351346e-09
7.0606347e-08
2.2794684e-09
6.9121732e-08
1.9699001e-09
6.7825723e-08
1.719572e-09
6.6677317e-08
1.5237327e-09
6.5647852e-08
1.3659303e-09
6.4708596e-08
1.2462352e-09
6.3838622e-08
1.154308e-09
6.3030278e-08
1.0725353e-09
6.2277677e-08
9.9857429e-10
6.157623e-08
9.3070277e-10
6.0920366e-08
8.7021905e-10
6.0304312e-08
8.173978e-10
5.9723698e-08
7.703747e-10
5.9174438e-08
7.287726e-10
5.865297e-08
6.9189677e-10
5.815666e-08
6.5851836e-10
5.7683352e-08
6.2799772e-10
5.7231175e-08
5.9995787e-10
5.6798022e-08
5.7472002e-10
5.638251e-08
5.513111e-10
5.5983346e-08
5.296196e-10
5.5598616e-08
5.1047043e-10
5.522738e-08
4.9256514e-10
5.4868898e-08
4.7563963e-10
5.4521764e-08
4.6058668e-10
5.4185208e-08
4.4655047e-10
5.3858818e-08
4.3306071e-10
5.354152e-08
4.2099783e-10
5.3232449e-08
4.1008347e-10
5.2931435e-08
3.9939153e-10
5.2637982e-08
3.8935768e-10
5.2351173e-08
3.8054477e-10
5.2070581e-08
3.7229802e-10
5.1795752e-08
3.6464824e-10
5.1525946e-08
3.5798179e-10
5.1260896e-08
3.5167455e-10
5.1000634e-08
3.4532215e-10
5.0745139e-08
3.3899638e-10
5.0494069e-08
3.3312391e-10
5.0246921e-08
3.2792052e-10
5.0003452e-08
3.2304016e-10
4.9763553e-08
3.1830368e-10
4.9526966e-08
3.1390672e-10
4.9293363e-08
3.0994847e-10
4.9062518e-08
3.0629102e-10
4.8834261e-08
3.0285587e-10
4.8608455e-08
2.9960454e-10
4.8384901e-08
2.9661414e-10
4.8163373e-08
2.9392737e-10
4.7943738e-08
2.9141636e-10
4.7725844e-08
2.8910666e-10
4.7509499e-08
2.8705052e-10
4.7294581e-08
2.8515637e-10
4.708098e-08
2.8341043e-10
4.6868474e-08
2.8195708e-10
4.6656914e-08
2.8070234e-10
4.6446236e-08
2.7952965e-10
4.6236324e-08
2.7851527e-10
4.6027018e-08
2.7771231e-10
4.5818143e-08
2.7713885e-10
4.5609582e-08
2.7672154e-10
4.5401293e-08
2.7636161e-10
4.5193145e-08
2.7617475e-10
4.4984874e-08
2.7633782e-10
4.4776318e-08
2.7671647e-10
4.4567473e-08
2.7709836e-10
4.4358234e-08
2.7762166e-10
4.4148224e-08
2.7864629e-10
4.3937217e-08
2.7996745e-10
4.3725303e-08
2.8117116e-10
4.3512406e-08
2.8247477e-10
4.3298209e-08
2.8420097e-10
4.3082461e-08
2.8625785e-10
4.2865129e-08
2.8836058e-10
4.264606e-08
2.9066392e-10
4.2424845e-08
2.9351243e-10
4.2201241e-08
2.9668062e-10
4.1975184e-08
2.9993629e-10
4.1746375e-08
3.0358826e-10
4.1514402e-08
3.0778545e-10
4.1279093e-08
3.1221156e-10
4.1040221e-08
3.1694023e-10
4.0797133e-08
3.225334e-10
4.0559851e-08
3.1482898e-10
4.0333915e-08
2.9977512e-10
4.0117886e-08
2.866315e-10
3.9910983e-08
2.7452201e-10
3.9713079e-08
2.6258284e-10
3.9523531e-08
2.5149538e-10
3.934157e-08
2.4142949e-10
3.9166609e-08
2.3214036e-10
3.899829e-08
2.2332917e-10
3.8836227e-08
2.150272e-10
3.86799e-08
2.0741724e-10
3.8528828e-08
2.0044498e-10
3.8382726e-08
1.9385128e-10
3.824138e-08
1.8753969e-10
3.8104497e-08
1.8161982e-10
3.7971637e-08
1.7628084e-10
3.7842481e-08
1.7136681e-10
3.7716361e-08
1.6733981e-10
3.7593664e-08
1.6279866e-10
3.7471119e-08
1.6259589e-10
3.7353675e-08
1.5585175e-10
3.7209374e-08
1.9137063e-10
1.1951859e-10
2.0947016e-06
5.7087246e-11
2.0946398e-06
1.8103621e-10
2.0945421e-06
2.8593658e-10
2.0944225e-06
3.4999688e-10
2.0942853e-06
4.0143031e-10
2.0941319e-06
4.4884557e-10
2.0939631e-06
4.9378556e-10
2.0937794e-06
5.3773582e-10
2.0935802e-06
5.8268531e-10
2.0933647e-06
6.304656e-10
2.0931314e-06
6.8275871e-10
2.092878e-06
7.4153552e-10
2.0926014e-06
8.0940823e-10
2.0922972e-06
8.9037425e-10
2.0919591e-06
9.8964335e-10
2.0915771e-06
1.1181464e-09
2.0911382e-06
1.2845668e-09
2.090613e-06
1.5375452e-09
2.0899792e-06
1.8554653e-09
2.0890924e-06
2.5962515e-09
2.0879825e-06
3.2496504e-09
2.0847775e-06
9.385694e-09
2.082185e-06
7.5863097e-09
1.1727868e-06
2.8124064e-06
1.9996994e-07
2.9282882e-06
1.346529e-07
1.1877307e-07
1.3295963e-07
2.98747e-09
1.3169844e-07
2.2233631e-09
1.2864751e-07
5.3843992e-09
1.2533557e-07
5.8470812e-09
1.2235946e-07
5.2555693e-09
1.1978711e-07
4.5422584e-09
1.1754122e-07
3.9654586e-09
1.1555111e-07
3.5138466e-09
1.1376715e-07
3.1498861e-09
1.1213951e-07
2.8738729e-09
1.1063192e-07
2.6618953e-09
1.0923113e-07
2.4733267e-09
1.0792695e-07
2.302762e-09
1.067114e-07
2.1462511e-09
1.0557484e-07
2.0067786e-09
1.0450726e-07
1.8849737e-09
1.035011e-07
1.7765406e-09
1.0254927e-07
1.6806024e-09
1.0164559e-07
1.5955705e-09
1.0078552e-07
1.5185912e-09
9.9965303e-08
1.4482144e-09
9.9181701e-08
1.3835604e-09
9.8431075e-08
1.3253455e-09
9.7711014e-08
1.2713725e-09
9.7019274e-08
1.221359e-09
9.6352561e-08
1.1771836e-09
9.5709225e-08
1.1359009e-09
9.5087986e-08
1.096879e-09
9.448642e-08
1.0621531e-09
9.3903185e-08
1.029785e-09
9.3337558e-08
9.9868758e-10
9.278769e-08
9.7086652e-10
9.2252088e-08
9.456855e-10
9.1730441e-08
9.2103793e-10
9.122189e-08
8.9790891e-10
9.0724859e-08
8.7757604e-10
9.0238607e-08
8.5854997e-10
8.9762336e-08
8.4091906e-10
8.9294764e-08
8.255536e-10
8.883544e-08
8.1099883e-10
8.8384419e-08
7.9634297e-10
8.7941652e-08
7.8176303e-10
8.7506548e-08
7.6822833e-10
8.7078246e-08
7.5622226e-10
8.6656324e-08
7.4496185e-10
8.6240586e-08
7.3404243e-10
8.5830583e-08
7.2390962e-10
8.5425751e-08
7.1478027e-10
8.5025702e-08
7.0634018e-10
8.4630142e-08
6.9841568e-10
8.4238822e-08
6.9092455e-10
8.3851403e-08
6.8403306e-10
8.34675e-08
6.7783077e-10
8.3086879e-08
6.7203681e-10
8.2709273e-08
6.667133e-10
8.2334347e-08
6.6197639e-10
8.1961896e-08
6.5760721e-10
8.1591729e-08
6.5357713e-10
8.1223463e-08
6.5022337e-10
8.0856831e-08
6.473346e-10
8.0491726e-08
6.4463396e-10
8.0127951e-08
6.422902e-10
7.9765228e-08
6.4043614e-10
7.9403251e-08
6.3911555e-10
7.9041816e-08
6.3815653e-10
7.8680852e-08
6.3732592e-10
7.8320134e-08
6.3689223e-10
7.7959205e-08
6.3726735e-10
7.7597777e-08
6.3814404e-10
7.7235849e-08
6.3902652e-10
7.687324e-08
6.4023024e-10
7.6509295e-08
6.4259149e-10
7.6143622e-08
6.4564096e-10
7.5776374e-08
6.4841894e-10
7.5407426e-08
6.51423e-10
7.5036224e-08
6.5540222e-10
7.4662334e-08
6.6014779e-10
7.4285696e-08
6.6499864e-10
7.3906052e-08
6.703087e-10
7.3522688e-08
6.768763e-10
7.3135184e-08
6.8418474e-10
7.2743426e-08
6.9169391e-10
7.23469e-08
7.0011378e-10
7.1944893e-08
7.0979321e-10
7.1537102e-08
7.2000183e-10
7.1123136e-08
7.309062e-10
7.0701865e-08
7.4380434e-10
7.0290656e-08
7.2603846e-10
6.9899109e-08
6.9132215e-10
6.9524731e-08
6.6100963e-10
6.9166169e-08
6.3308419e-10
6.88232e-08
6.0555192e-10
6.8494713e-08
5.7998201e-10
6.8179375e-08
5.5676788e-10
6.7876168e-08
5.3534672e-10
6.758447e-08
5.150277e-10
6.7303615e-08
4.9588151e-10
6.7032701e-08
4.783311e-10
6.6770894e-08
4.6225199e-10
6.6517699e-08
4.4704679e-10
6.6272747e-08
4.3249141e-10
6.6035529e-08
4.1883807e-10
6.5805285e-08
4.0652441e-10
6.5581462e-08
3.9519059e-10
6.5362899e-08
3.8590202e-10
6.5150273e-08
3.75425e-10
6.4937918e-08
3.7495088e-10
6.4734453e-08
3.5931715e-10
6.4484192e-08
4.4163162e-10
2.7516484e-10
2.1861099e-06
7.7433381e-11
2.1860453e-06
2.4557943e-10
2.1859433e-06
3.8792202e-10
2.1858185e-06
4.7488498e-10
2.1856752e-06
5.4471577e-10
2.1855149e-06
6.0908214e-10
2.1853386e-06
6.7007713e-10
2.1851467e-06
7.2971871e-10
2.1849386e-06
7.9070736e-10
2.1847136e-06
8.5552934e-10
2.1844699e-06
9.2646755e-10
2.1842052e-06
1.0061965e-09
2.1839164e-06
1.0982603e-09
2.1835986e-06
1.208082e-09
2.1832456e-06
1.342729e-09
2.1828467e-06
1.5170286e-09
2.1823885e-06
1.7427596e-09
2.1818401e-06
2.085899e-09
2.1811785e-06
2.5171255e-09
2.1802528e-06
3.5219257e-09
2.1790942e-06
4.4082039e-09
2.1757495e-06
1.2730392e-08
2.1730432e-06
1.0292706e-08
1.276829e-06
3.7086206e-06
2.9161892e-07
3.9134983e-06
1.9966726e-07
2.1072473e-07
1.9715225e-07
5.5024747e-09
1.9527361e-07
4.1020033e-09
1.9074671e-07
9.911305e-09
1.8583537e-07
1.0758411e-08
1.8142434e-07
9.6666068e-09
1.7761131e-07
8.3552845e-09
1.7428172e-07
7.2950544e-09
1.7133126e-07
6.4643037e-09
1.6868649e-07
5.7946555e-09
1.6627345e-07
5.2869106e-09
1.6403837e-07
4.8969762e-09
1.6196161e-07
4.550085e-09
1.6002807e-07
4.2363008e-09
1.5822594e-07
3.9483852e-09
1.565409e-07
3.6918183e-09
1.5495812e-07
3.4677495e-09
1.5346639e-07
3.268279e-09
1.520552e-07
3.0917872e-09
1.507154e-07
2.9353661e-09
1.4944025e-07
2.7937424e-09
1.4822419e-07
2.664283e-09
1.4706239e-07
2.5453521e-09
1.459495e-07
2.438236e-09
1.4488192e-07
2.338958e-09
1.4385631e-07
2.2469625e-09
1.4286783e-07
2.165672e-09
1.4191399e-07
2.0897369e-09
1.409929e-07
2.0179644e-09
1.40101e-07
1.9540612e-09
1.3923627e-07
1.8945145e-09
1.3839763e-07
1.8373231e-09
1.3758236e-07
1.786136e-09
1.3678825e-07
1.7397932e-09
1.3601483e-07
1.6944634e-09
1.3526081e-07
1.6519293e-09
1.3452388e-07
1.614508e-09
1.3380293e-07
1.5794925e-09
1.3309678e-07
1.5470735e-09
1.3240351e-07
1.5188188e-09
1.3172249e-07
1.4920271e-09
1.3105377e-07
1.4650536e-09
1.3039729e-07
1.438244e-09
1.2975216e-07
1.4133569e-09
1.2911713e-07
1.3912593e-09
1.2849156e-07
1.3705335e-09
1.2787515e-07
1.3504509e-09
1.2726724e-07
1.331821e-09
1.2666699e-07
1.3150242e-09
1.2607385e-07
1.2994873e-09
1.2548736e-07
1.2849045e-09
1.2490715e-07
1.2711343e-09
1.2433272e-07
1.2584636e-09
1.237635e-07
1.2470435e-09
1.2319916e-07
1.2363785e-09
1.2263928e-07
1.22659e-09
1.2208338e-07
1.2178834e-09
1.2153114e-07
1.209844e-09
1.2098229e-07
1.2024234e-09
1.2043627e-07
1.1962503e-09
1.1989266e-07
1.190944e-09
1.1935131e-07
1.1859817e-09
1.1881194e-07
1.1816632e-09
1.1827413e-07
1.1782482e-09
1.1773742e-07
1.1758222e-09
1.1720151e-07
1.1740636e-09
1.166663e-07
1.1725349e-09
1.1613146e-07
1.1717326e-09
1.1559631e-07
1.1724217e-09
1.1506041e-07
1.1740405e-09
1.1452377e-07
1.1756673e-09
1.1398612e-07
1.1778773e-09
1.134465e-07
1.1822189e-09
1.129043e-07
1.187834e-09
1.1235977e-07
1.1929485e-09
1.1181272e-07
1.198472e-09
1.1126234e-07
1.2057906e-09
1.1070796e-07
1.2145251e-09
1.1014951e-07
1.2234527e-09
1.0958659e-07
1.2332194e-09
1.0901817e-07
1.2453004e-09
1.0844361e-07
1.2587501e-09
1.0786273e-07
1.2725675e-09
1.0727479e-07
1.2880554e-09
1.0667872e-07
1.3058639e-09
1.0607407e-07
1.3246481e-09
1.0546027e-07
1.3447094e-09
1.0483564e-07
1.3684388e-09
1.0422592e-07
1.3357562e-09
1.0364535e-07
1.2718857e-09
1.0309025e-07
1.216115e-09
1.0255859e-07
1.1647394e-09
1.0205006e-07
1.1140878e-09
1.01563e-07
1.0670436e-09
1.0109543e-07
1.0243334e-09
1.0064585e-07
9.8492443e-10
1.0021334e-07
9.4754314e-10
9.9796902e-08
9.1231719e-10
9.9395206e-08
8.8002683e-10
9.9007013e-08
8.5044457e-10
9.8631589e-08
8.2247152e-10
9.8268387e-08
7.9569271e-10
9.7916654e-08
7.7057138e-10
9.7575264e-08
7.4791446e-10
9.7243394e-08
7.2706074e-10
9.6919329e-08
7.0996694e-10
9.6604066e-08
6.9068816e-10
9.6289226e-08
6.8979017e-10
9.5987597e-08
6.6094656e-10
9.5616411e-08
8.1281755e-10
5.0578386e-10
2.3100962e-06
9.8933505e-11
2.310028e-06
3.1379648e-10
2.3099201e-06
4.9573928e-10
2.3097881e-06
6.0694846e-10
2.3096365e-06
6.9626177e-10
2.309467e-06
7.7857371e-10
2.3092806e-06
8.5655858e-10
2.3090775e-06
9.3279881e-10
2.3088574e-06
1.0107484e-09
2.3086194e-06
1.0935867e-09
2.3083616e-06
1.1842323e-09
2.3080817e-06
1.2861042e-09
2.3077762e-06
1.4037318e-09
2.3074403e-06
1.5440453e-09
2.3070669e-06
1.7160754e-09
2.3066452e-06
1.9387676e-09
2.3061608e-06
2.2271716e-09
2.3055811e-06
2.6655853e-09
2.3048817e-06
3.2165438e-09
2.3039033e-06
4.5003322e-09
2.3026788e-06
5.6326955e-09
2.2991446e-06
1.6264575e-08
2.2962836e-06
1.3153687e-08
1.4049581e-06
4.599946e-06
3.9720979e-07
4.9212466e-06
2.7660756e-07
3.3132696e-07
2.7310714e-07
9.0028969e-09
2.7048318e-07
6.7259683e-09
2.642092e-07
1.6185285e-08
2.5740755e-07
1.7560053e-08
2.5130198e-07
1.5772183e-08
2.4602349e-07
1.3633768e-08
2.4141343e-07
1.1905117e-08
2.3732817e-07
1.0549569e-08
2.3366618e-07
9.4566458e-09
2.3032498e-07
8.6281034e-09
2.2723013e-07
7.9918298e-09
2.2435446e-07
7.4257542e-09
2.2167708e-07
6.9136856e-09
2.1918161e-07
6.4438485e-09
2.1684825e-07
6.0251761e-09
2.1465647e-07
5.6595307e-09
2.1259073e-07
5.3340213e-09
2.1063652e-07
5.0460023e-09
2.0878114e-07
4.790743e-09
2.0701527e-07
4.5596092e-09
2.053312e-07
4.3483525e-09
2.0372228e-07
4.1542761e-09
2.0218108e-07
3.9794369e-09
2.007026e-07
3.8174383e-09
1.9928224e-07
3.6673221e-09
1.9791329e-07
3.5346243e-09
1.9659231e-07
3.4107157e-09
1.9531667e-07
3.2936059e-09
1.9408144e-07
3.1892881e-09
1.9288385e-07
3.0921069e-09
1.9172237e-07
2.9987978e-09
1.9059326e-07
2.9152514e-09
1.8949346e-07
2.8395922e-09
1.8842229e-07
2.7656341e-09
1.8737797e-07
2.696243e-09
1.8635733e-07
2.635147e-09
1.8535885e-07
2.5779796e-09
1.8438082e-07
2.5250966e-09
1.8342064e-07
2.4790047e-09
1.8247741e-07
2.4352558e-09
1.8155125e-07
2.3912161e-09
1.8064201e-07
2.3474826e-09
1.7974848e-07
2.3068859e-09
1.7886893e-07
2.2708066e-09
1.780025e-07
2.2369651e-09
1.7714875e-07
2.204199e-09
1.7630676e-07
2.1738128e-09
1.7547539e-07
2.146398e-09
1.7465385e-07
2.1210254e-09
1.7384153e-07
2.09722e-09
1.730379e-07
2.0747648e-09
1.7224227e-07
2.054098e-09
1.7145387e-07
2.0354456e-09
1.7067221e-07
2.0180303e-09
1.6989674e-07
2.0020642e-09
1.6912676e-07
1.9878679e-09
1.6836185e-07
1.9747463e-09
1.6760165e-07
1.9626254e-09
1.6684535e-07
1.952547e-09
1.660924e-07
1.9439006e-09
1.6534257e-07
1.9358126e-09
1.6459547e-07
1.9287554e-09
1.6385055e-07
1.9231761e-09
1.6310715e-07
1.9192238e-09
1.6236484e-07
1.9163641e-09
1.6162351e-07
1.91387e-09
1.6088269e-07
1.9125547e-09
1.6014143e-07
1.9136794e-09
1.5939914e-07
1.9163329e-09
1.5865581e-07
1.9189949e-09
1.5791109e-07
1.9225963e-09
1.5716363e-07
1.9296806e-09
1.5641261e-07
1.9388548e-09
1.5565835e-07
1.9472104e-09
1.549006e-07
1.9562227e-09
1.5413822e-07
1.9681663e-09
1.5337031e-07
1.9824309e-09
1.5259676e-07
1.9970095e-09
1.5181703e-07
2.0129492e-09
1.5102966e-07
2.0326672e-09
1.5023378e-07
2.0546283e-09
1.4942916e-07
2.0771872e-09
1.4861475e-07
2.1024652e-09
1.4778908e-07
2.1315359e-09
1.4695153e-07
2.1622028e-09
1.4610129e-07
2.1949496e-09
1.4523604e-07
2.2336843e-09
1.4439145e-07
2.1803427e-09
1.4358725e-07
2.0760894e-09
1.4281831e-07
1.9850533e-09
1.4208186e-07
1.9011961e-09
1.4137742e-07
1.8185222e-09
1.4070273e-07
1.7417317e-09
1.4005505e-07
1.6720151e-09
1.3943228e-07
1.6076912e-09
1.3883315e-07
1.5466768e-09
1.3825629e-07
1.4891767e-09
1.3769985e-07
1.4364676e-09
1.3716211e-07
1.3881809e-09
1.3664206e-07
1.3425231e-09
1.3613894e-07
1.2988125e-09
1.3565171e-07
1.2578041e-09
1.3517881e-07
1.2208174e-09
1.3471909e-07
1.1867755e-09
1.342702e-07
1.1588641e-09
1.3383349e-07
1.1273942e-09
1.3339741e-07
1.1258738e-09
1.3297964e-07
1.0787123e-09
1.3246538e-07
1.3270796e-09
8.251385e-10
2.4685082e-06
1.21908e-10
2.4684353e-06
3.867069e-10
2.46832e-06
6.1100602e-10
2.4681788e-06
7.4817698e-10
2.4680167e-06
8.5835855e-10
2.4678354e-06
9.5988616e-10
2.4676359e-06
1.0560551e-09
2.4674186e-06
1.150053e-09
2.4671832e-06
1.2461412e-09
2.4669286e-06
1.3482407e-09
2.4666529e-06
1.4599511e-09
2.4663535e-06
1.5854872e-09
2.4660268e-06
1.7304325e-09
2.4656675e-06
1.9033281e-09
2.4652683e-06
2.1153032e-09
2.4648173e-06
2.3897046e-09
2.4642994e-06
2.7450779e-09
2.4636797e-06
3.2852982e-09
2.4629321e-06
3.9641985e-09
2.4618863e-06
5.5461036e-09
2.4605776e-06
6.9414307e-09
2.4568013e-06
2.0040796e-08
2.4537427e-06
1.6212308e-08
1.5611911e-06
5.4924976e-06
5.2214117e-07
5.9602966e-06
3.6998735e-07
4.8348077e-07
3.6523924e-07
1.3751009e-08
3.6167864e-07
1.028657e-08
3.5328914e-07
2.4574788e-08
3.4420412e-07
2.6645074e-08
3.3605302e-07
2.3923283e-08
3.2900483e-07
2.0681957e-08
3.2284776e-07
1.8062186e-08
3.1739117e-07
1.6006157e-08
3.1249978e-07
1.4348035e-08
3.0803666e-07
1.3091226e-08
3.0390238e-07
1.2126104e-08
3.0006075e-07
1.1267392e-08
2.9648385e-07
1.0490576e-08
2.9314987e-07
9.7778352e-09
2.9003233e-07
9.1427166e-09
2.8710383e-07
8.5880268e-09
2.8434364e-07
8.0942097e-09
2.8173239e-07
7.657256e-09
2.7925313e-07
7.2700027e-09
2.7689342e-07
6.9193179e-09
2.7464295e-07
6.5988242e-09
2.7249284e-07
6.3043892e-09
2.704332e-07
6.0390777e-09
2.6845732e-07
5.7933164e-09
2.6655906e-07
5.5655784e-09
2.6472949e-07
5.3641937e-09
2.6296399e-07
5.1762132e-09
2.6125904e-07
4.9985567e-09
2.596081e-07
4.8402348e-09
2.5800742e-07
4.6927788e-09
2.5645498e-07
4.5512405e-09
2.5494577e-07
4.4244602e-09
2.5347575e-07
4.30962e-09
2.5204395e-07
4.1974315e-09
2.5064801e-07
4.0921794e-09
2.4928372e-07
3.99944e-09
2.4794903e-07
3.9126646e-09
2.4664167e-07
3.8324614e-09
2.4535812e-07
3.7625547e-09
2.4409724e-07
3.6961353e-09
2.4285917e-07
3.6292832e-09
2.416437e-07
3.5629554e-09
2.404492e-07
3.5013859e-09
2.3927339e-07
3.446618e-09
2.3811511e-07
3.3952432e-09
2.3697377e-07
3.3455404e-09
2.3584812e-07
3.2994623e-09
2.3473665e-07
3.2578626e-09
2.3363834e-07
3.2193397e-09
2.3255235e-07
3.1832111e-09
2.3147795e-07
3.1491679e-09
2.3041421e-07
3.1178293e-09
2.2936015e-07
3.0895069e-09
2.2831512e-07
3.0630687e-09
2.2727832e-07
3.0388591e-09
2.2624885e-07
3.017341e-09
2.2522616e-07
2.9974322e-09
2.2420976e-07
2.9790275e-09
2.2319857e-07
2.963733e-09
2.2219183e-07
2.9506387e-09
2.2118926e-07
2.9383862e-09
2.2019035e-07
2.9276683e-09
2.1919433e-07
2.9191977e-09
2.1820033e-07
2.913217e-09
2.172078e-07
2.9088992e-09
2.1621655e-07
2.9051214e-09
2.1522598e-07
2.9031221e-09
2.1423482e-07
2.904836e-09
2.1324227e-07
2.908887e-09
2.1224832e-07
2.9129443e-09
2.1125251e-07
2.9184086e-09
2.1025302e-07
2.9291646e-09
2.0924877e-07
2.9431109e-09
2.0824017e-07
2.9558118e-09
2.072269e-07
2.9694932e-09
2.0620744e-07
2.9876263e-09
2.0518057e-07
3.0092975e-09
2.0414613e-07
3.031444e-09
2.0310344e-07
3.0556429e-09
2.0205053e-07
3.0855792e-09
2.0098622e-07
3.1189342e-09
1.9991022e-07
3.1531932e-09
1.9882111e-07
3.1915686e-09
1.9771694e-07
3.2357084e-09
1.9659687e-07
3.2822774e-09
1.9545982e-07
3.3319969e-09
1.943027e-07
3.390807e-09
1.9317319e-07
3.3098486e-09
1.9209768e-07
3.1515971e-09
1.9106933e-07
3.0134025e-09
1.9008442e-07
2.8861127e-09
1.8914232e-07
2.7606206e-09
1.8824e-07
2.6440522e-09
1.8737379e-07
2.538221e-09
1.865409e-07
2.440582e-09
1.8573961e-07
2.3479661e-09
1.8496811e-07
2.2606789e-09
1.8422391e-07
2.1806631e-09
1.8350473e-07
2.1073639e-09
1.828092e-07
2.0380583e-09
1.821363e-07
1.9717051e-09
1.8148466e-07
1.9094489e-09
1.8085218e-07
1.8532958e-09
1.8023734e-07
1.8016161e-09
1.7963697e-07
1.7592302e-09
1.7905291e-07
1.7114596e-09
1.7846973e-07
1.7090555e-09
1.7791106e-07
1.6373832e-09
1.7722319e-07
2.0149495e-09
1.252197e-09
2.6637066e-06
1.4669922e-10
2.6636279e-06
4.6540104e-10
2.6635034e-06
7.3545422e-10
2.6633509e-06
9.0070343e-10
2.6631758e-06
1.0334634e-09
2.6629799e-06
1.155774e-09
2.6627644e-06
1.2716002e-09
2.6625296e-06
1.3847853e-09
2.6622753e-06
1.5004639e-09
2.6620002e-06
1.6233595e-09
2.6617024e-06
1.7578073e-09
2.661379e-06
1.9088824e-09
2.6610261e-06
2.0833064e-09
2.6606381e-06
2.2913595e-09
2.6602069e-06
2.5464365e-09
2.65972e-06
2.8766338e-09
2.6591608e-06
3.3042698e-09
2.6584917e-06
3.9543457e-09
2.6576846e-06
4.7713039e-09
2.6565559e-06
6.6748923e-09
2.6551433e-06
8.3539891e-09
2.6510689e-06
2.4115169e-08
2.6477665e-06
1.9514745e-08
1.7500623e-06
6.3902018e-06
6.7249795e-07
7.037861e-06
4.8509955e-07
6.7087917e-07
4.7864613e-07
2.0204431e-08
4.7386208e-07
1.5070628e-08
4.6288551e-07
3.5551357e-08
4.5101998e-07
3.8510601e-08
4.4037895e-07
3.4564317e-08
4.3117496e-07
2.9885941e-08
4.2313205e-07
2.61051e-08
4.1600301e-07
2.3135194e-08
4.0961169e-07
2.0739353e-08
4.0377927e-07
1.8923646e-08
3.9837599e-07
1.7529384e-08
3.9335464e-07
1.6288746e-08
3.8867885e-07
1.5166368e-08
3.8432014e-07
1.4136539e-08
3.8024401e-07
1.3218848e-08
3.7641471e-07
1.2417334e-08
3.7280518e-07
1.1703739e-08
3.6939015e-07
1.1072287e-08
3.6614749e-07
1.0512653e-08
3.63061e-07
1.0005809e-08
3.6011719e-07
9.5426382e-09
3.5730447e-07
9.1171093e-09
3.5460997e-07
8.73358e-09
3.5202489e-07
8.3783985e-09
3.4954121e-07
8.0492546e-09
3.4714731e-07
7.7580961e-09
3.4483711e-07
7.4864061e-09
3.4260602e-07
7.229648e-09
3.4044553e-07
7.0007307e-09
3.3835073e-07
6.7875718e-09
3.3631895e-07
6.583027e-09
3.3434367e-07
6.3997353e-09
3.3241963e-07
6.2336652e-09
3.3054553e-07
6.0715282e-09
3.2871828e-07
5.9194281e-09
3.2693241e-07
5.7853097e-09
3.2518526e-07
5.6598172e-09
3.2347379e-07
5.5439289e-09
3.2179343e-07
5.4429134e-09
3.2014273e-07
5.3468405e-09
3.1852186e-07
5.2501548e-09
3.169305e-07
5.1543148e-09
3.1536653e-07
5.065352e-09
3.13827e-07
4.9861456e-09
3.1231041e-07
4.9118404e-09
3.1081593e-07
4.8400123e-09
3.0934195e-07
4.7734446e-09
3.0788651e-07
4.7133078e-09
3.0644826e-07
4.6575863e-09
3.0502612e-07
4.6053516e-09
3.036191e-07
4.5561863e-09
3.0222601e-07
4.5109177e-09
3.0084557e-07
4.4699516e-09
2.9947692e-07
4.431719e-09
2.9811902e-07
4.396754e-09
2.9677067e-07
4.3656901e-09
2.9543118e-07
4.3369213e-09
2.9409991e-07
4.3103054e-09
2.9277543e-07
4.2882047e-09
2.9145675e-07
4.269326e-09
2.9014348e-07
4.2516565e-09
2.8883498e-07
4.2361627e-09
2.8753025e-07
4.2239255e-09
2.8622815e-07
4.2153211e-09
2.8492792e-07
4.2091294e-09
2.8362935e-07
4.2036965e-09
2.8233165e-07
4.2008209e-09
2.8103315e-07
4.203332e-09
2.7973279e-07
4.2092497e-09
2.7843057e-07
4.2151665e-09
2.7712588e-07
4.2230908e-09
2.7581637e-07
4.23868e-09
2.7450057e-07
4.2589125e-09
2.7317904e-07
4.2773389e-09
2.7185137e-07
4.2971597e-09
2.7051557e-07
4.3234258e-09
2.6917004e-07
4.3548345e-09
2.6781455e-07
4.3869294e-09
2.6644822e-07
4.4219746e-09
2.6506847e-07
4.4653255e-09
2.6367376e-07
4.5136451e-09
2.6226369e-07
4.5632679e-09
2.6083642e-07
4.6188322e-09
2.5938938e-07
4.68275e-09
2.5792147e-07
4.7501929e-09
2.5643128e-07
4.8221863e-09
2.5491475e-07
4.9073379e-09
2.5343438e-07
4.790219e-09
2.5202475e-07
4.5612231e-09
2.5067691e-07
4.3612392e-09
2.4938598e-07
4.1770447e-09
2.4815115e-07
3.9954544e-09
2.4696843e-07
3.8267656e-09
2.4583304e-07
3.673613e-09
2.447413e-07
3.5323236e-09
2.4369096e-07
3.3983018e-09
2.4267966e-07
3.2719814e-09
2.4170414e-07
3.1561815e-09
2.407614e-07
3.0501063e-09
2.3984964e-07
2.9498146e-09
2.3896756e-07
2.8537897e-09
2.3811332e-07
2.7636861e-09
2.3728421e-07
2.6824119e-09
2.3647821e-07
2.6076165e-09
2.3569119e-07
2.5462513e-09
2.3492552e-07
2.4771228e-09
2.3416109e-07
2.4734927e-09
2.3342878e-07
2.369686e-09
2.3252695e-07
2.9167775e-09
1.8120304e-09
2.8986003e-06
1.7367656e-10
2.8985146e-06
5.5105651e-10
2.8983791e-06
8.7095674e-10
2.898213e-06
1.0668373e-09
2.8980222e-06
1.2242399e-09
2.8978088e-06
1.3692246e-09
2.8975739e-06
1.5064847e-09
2.8973181e-06
1.6405799e-09
2.897041e-06
1.777598e-09
2.8967412e-06
1.9231379e-09
2.8964167e-06
2.0823367e-09
2.8960643e-06
2.2612071e-09
2.8956799e-06
2.4677103e-09
2.8952573e-06
2.7140202e-09
2.8947877e-06
3.0159973e-09
2.8942574e-06
3.4069078e-09
2.8936485e-06
3.9131759e-09
2.8929201e-06
4.6827924e-09
2.8920414e-06
5.649982e-09
2.8908127e-06
7.9036068e-09
2.8892752e-06
9.891521e-09
2.8848421e-06
2.8548176e-08
2.8812458e-06
2.3111059e-08
1.976714e-06
7.2947336e-06
8.5518259e-07
8.1593924e-06
6.2803418e-07
8.9802758e-07
6.1899981e-07
2.9238805e-08
6.1255494e-07
2.1515496e-08
5.98424e-07
4.9682292e-08
5.8319426e-07
5.3740342e-08
5.6954062e-07
4.821796e-08
5.5772511e-07
4.1701451e-08
5.4739526e-07
3.6434942e-08
5.3823643e-07
3.2294028e-08
5.3002334e-07
2.8952443e-08
5.2252671e-07
2.6420279e-08
5.1558019e-07
2.4475897e-08
5.0912327e-07
2.2745672e-08
5.0310937e-07
2.1180266e-08
4.9750211e-07
1.9743797e-08
4.9225731e-07
1.8463647e-08
4.8732918e-07
1.7345464e-08
4.8268308e-07
1.6349838e-08
4.7828661e-07
1.5468759e-08
4.7411141e-07
1.4687853e-08
4.7013671e-07
1.3980512e-08
4.663452e-07
1.3334151e-08
4.6272203e-07
1.2740272e-08
4.5925074e-07
1.2204874e-08
4.5591999e-07
1.1709152e-08
4.527195e-07
1.1249742e-08
4.4963439e-07
1.0843208e-08
4.4665682e-07
1.0463971e-08
4.4378089e-07
1.010558e-08
4.4099571e-07
9.7859082e-09
4.3829498e-07
9.4883028e-09
4.3567521e-07
9.2027999e-09
4.3312809e-07
8.9468573e-09
4.3064684e-07
8.7149076e-09
4.2822979e-07
8.4885827e-09
4.2587293e-07
8.2762826e-09
4.235693e-07
8.0889436e-09
4.2131546e-07
7.9136555e-09
4.1910747e-07
7.7519179e-09
4.1693946e-07
7.6109274e-09
4.148096e-07
7.4767031e-09
4.1271811e-07
7.3416442e-09
4.1066453e-07
7.2078887e-09
4.0864615e-07
7.0837336e-09
4.066592e-07
6.9730987e-09
4.0470174e-07
6.8693023e-09
4.027727e-07
6.7690499e-09
4.0086997e-07
6.6761731e-09
3.9899106e-07
6.5922175e-09
3.9713427e-07
6.5143823e-09
3.9529816e-07
6.4414545e-09
3.9348146e-07
6.3728914e-09
3.9168262e-07
6.3097518e-09
3.8990003e-07
6.2525404e-09
3.8813259e-07
6.1991612e-09
3.8637893e-07
6.1504129e-09
3.8463749e-07
6.1071287e-09
3.8290741e-07
6.067006e-09
3.8118786e-07
6.0298597e-09
3.7947701e-07
5.9990507e-09
3.7777353e-07
5.972803e-09
3.7607696e-07
5.9482326e-09
3.7438648e-07
5.9266414e-09
3.7270079e-07
5.909612e-09
3.710184e-07
5.8977084e-09
3.6933835e-07
5.8891883e-09
3.6766034e-07
5.8816974e-09
3.659834e-07
5.8777604e-09
3.6430536e-07
5.8813804e-09
3.626248e-07
5.8898019e-09
3.6094176e-07
5.8982077e-09
3.5925547e-07
5.9093821e-09
3.5756286e-07
5.9312928e-09
3.5586203e-07
5.9597394e-09
3.5415372e-07
5.9856538e-09
3.5243739e-07
6.0134852e-09
3.5071048e-07
6.0503413e-09
3.4897088e-07
6.0944274e-09
3.4721834e-07
6.1394724e-09
3.454517e-07
6.1886189e-09
3.4366763e-07
6.249395e-09
3.4186411e-07
6.3171566e-09
3.4004065e-07