/*--------------------------------*- C++ -*----------------------------------*\
  =========                 |
  \\      /  F ield         | OpenFOAM: The Open Source CFD Toolbox
   \\    /   O peration     | Website:  https://openfoam.org
    \\  /    A nd           | Version:  12
     \\/     M anipulation  |
\*---------------------------------------------------------------------------*/
FoamFile
{
    format      ascii;
    class       surfaceScalarField;
    location    "900";
    object      phi;
}
// * * * * * * * * * * * * * * * * * * * * * * * * * * * * * * * * * * * * * //

dimensions      [0 3 -1 0 0 0 0];

internalField   nonuniform List<scalar> 
14782
(
0.00079839081
1.0682274e-06
-0.00079945904
0.00079695524
1.4355661e-06
0.00079532307
1.6321748e-06
0.00079361488
1.7081891e-06
0.00079183111
1.7837684e-06
0.00078997043
1.8606849e-06
0.00078803542
1.9350025e-06
0.00078602277
2.0126493e-06
0.0007839222
2.1005698e-06
0.00078173379
2.1884155e-06
0.00077938329
2.3504971e-06
0.00077698471
2.3985863e-06
0.00077340414
3.5805687e-06
0.00076706389
6.3402508e-06
0.00075812961
8.9342721e-06
0.00074740723
1.0722385e-05
0.00073575457
1.1652655e-05
0.0007235626
1.2191976e-05
0.00071111589
1.2446702e-05
0.00069866137
1.2454523e-05
0.00068634904
1.2312329e-05
0.0006742585
1.2090545e-05
0.00066233554
1.1922957e-05
0.00065052649
1.1809054e-05
0.00063892552
1.1600968e-05
0.00062767763
1.1247889e-05
0.00061698881
1.068882e-05
0.00060693756
1.0051246e-05
0.00059747086
9.4667062e-06
0.00058862074
8.8501162e-06
0.00058043765
8.1830883e-06
0.00057295245
7.4851996e-06
0.00056616878
6.7836698e-06
0.00056006777
6.1010102e-06
0.00055461207
5.4557016e-06
0.00054975052
4.8615493e-06
0.00054542469
4.3258376e-06
0.00054158365
3.8410329e-06
0.00053818374
3.3999143e-06
0.00053517712
3.0066186e-06
0.00053251069
2.6664274e-06
0.00053012949
2.3812013e-06
0.00052798369
2.1457959e-06
0.00052603414
1.9495592e-06
0.00052423785
1.7962903e-06
0.00052255242
1.6854277e-06
0.00052094588
1.6065394e-06
0.0005193895
1.5563781e-06
0.00051786054
1.5289604e-06
0.00051633712
1.5234208e-06
0.00051479364
1.5434805e-06
0.00051320615
1.5874914e-06
0.0005115626
1.6435472e-06
0.00050986231
1.7002854e-06
0.00050811074
1.7515791e-06
0.00050631739
1.7933489e-06
0.00050449317
1.8242197e-06
0.00050265273
1.8404388e-06
0.00050080884
1.8438893e-06
0.00049896661
1.8422332e-06
0.00049712873
1.8378714e-06
0.00049529728
1.8314566e-06
0.00049347738
1.8198927e-06
0.0004916741
1.803283e-06
0.00048988997
1.7841277e-06
0.00048812762
1.7623546e-06
0.0004863912
1.736424e-06
0.00048468321
1.7079842e-06
0.00048300128
1.6819267e-06
0.00048134158
1.6597068e-06
0.00047970233
1.6392452e-06
0.00047808292
1.6194128e-06
0.00047648267
1.6002498e-06
0.00047490208
1.5805867e-06
0.00047334323
1.5588527e-06
0.00047180713
1.536096e-06
0.00047029182
1.5153148e-06
0.00046879533
1.4964899e-06
0.000467316
1.4793295e-06
0.00046585354
1.4624622e-06
0.00046440808
1.4454533e-06
0.00046298079
1.4272953e-06
0.00046157267
1.4081152e-06
0.00046018153
1.3911448e-06
0.00045880601
1.3755241e-06
0.0004574455
1.3605101e-06
0.00045609903
1.3464688e-06
0.00045476814
1.3308903e-06
0.00045345318
1.3149518e-06
0.00045215201
1.3011708e-06
0.00045086397
1.2880425e-06
0.0004495883
1.2756739e-06
0.00044832419
1.2641066e-06
0.00044707209
1.252105e-06
0.00044582905
1.2430381e-06
0.00044459261
1.2364408e-06
0.00044335285
1.2397532e-06
0.00044207955
1.2733064e-06
0.00044084959
1.2299606e-06
1.4789664e-06
0.00082684523
1.0459812e-06
-0.00082682298
0.00082687809
1.4027023e-06
0.00082688518
1.6250854e-06
0.00082686948
1.7238945e-06
0.00082684173
1.8115107e-06
0.00082679756
1.9048556e-06
0.00082673632
1.996251e-06
0.00082665559
2.0933796e-06
0.00082655019
2.2059669e-06
0.00082640818
2.3304208e-06
0.00082621871
2.5399718e-06
0.00082585422
2.7630739e-06
0.00082543043
4.0043567e-06
0.00082494198
6.8287005e-06
0.00082398928
9.8869744e-06
0.00082232301
1.2388656e-05
0.00081987343
1.4102239e-05
0.00081671387
1.5351529e-05
0.00081291824
1.6242334e-05
0.0008085402
1.6832567e-05
0.00080360027
1.7252257e-05
0.00079812638
1.7564436e-05
0.000792249
1.7800331e-05
0.00078606852
1.7989543e-05
0.00077960336
1.806612e-05
0.00077287636
1.7974897e-05
0.00076586858
1.7696596e-05
0.00075863597
1.7283856e-05
0.00075129087
1.6811805e-05
0.00074389199
1.6248996e-05
0.00073649348
1.5581601e-05
0.00072914637
1.4832305e-05
0.00072190376
1.4026282e-05
0.00071481984
1.3184937e-05
0.00070794536
1.2330176e-05
0.00070132552
1.1481388e-05
0.00069500812
1.0643245e-05
0.00068901005
9.8390983e-06
0.00068330697
9.1029966e-06
0.00067788585
8.4277331e-06
0.000672749
7.8032831e-06
0.00066789623
7.23397e-06
0.00066331815
6.7238758e-06
0.00065899286
6.274849e-06
0.00065489975
5.8893989e-06
0.00065102131
5.5638716e-06
0.00064733449
5.2933595e-06
0.00064382036
5.0705053e-06
0.00064046756
4.8817606e-06
0.00063723527
4.7557143e-06
0.00063407973
4.6990141e-06
0.00063099444
4.6727885e-06
0.00062798123
4.6567526e-06
0.00062504225
4.6392643e-06
0.00062217577
4.6180588e-06
0.00061937734
4.5917815e-06
0.00061664144
4.5601227e-06
0.00061395857
4.523307e-06
0.00061131721
4.4852523e-06
0.0006087118
4.4476388e-06
0.00060614262
4.4070478e-06
0.00060361118
4.3628968e-06
0.00060112036
4.3107199e-06
0.00059867245
4.2511842e-06
0.00059626781
4.1887749e-06
0.00059390698
4.1231831e-06
0.00059159052
4.0528871e-06
0.0005893157
3.9828028e-06
0.00058707741
3.9202089e-06
0.00058487266
3.8644639e-06
0.00058270167
3.8102361e-06
0.00058056535
3.7557279e-06
0.00057846356
3.7020423e-06
0.00057639635
3.6477999e-06
0.00057436429
3.5909071e-06
0.00057236603
3.5343528e-06
0.00057039814
3.4832112e-06
0.0005684586
3.436027e-06
0.00056654681
3.391122e-06
0.00056466296
3.3463072e-06
0.00056280717
3.3012435e-06
0.00056097959
3.2548806e-06
0.00055917945
3.2082548e-06
0.00055740406
3.1665311e-06
0.00055565215
3.1274361e-06
0.00055392351
3.0891548e-06
0.00055221765
3.0523247e-06
0.00055053515
3.0133917e-06
0.00054887522
2.9748785e-06
0.00054723553
2.9408596e-06
0.00054561525
2.908323e-06
0.00054401404
2.8768869e-06
0.00054243093
2.8472187e-06
0.00054086576
2.8172706e-06
0.00053931352
2.795284e-06
0.00053777691
2.7730433e-06
0.0005362289
2.7877687e-06
0.00053470461
2.7975967e-06
0.00053296711
2.967461e-06
2.9621516e-06
0.00085447076
1.0422913e-06
-0.00085446707
0.00085448557
1.387893e-06
0.00085449734
1.6133229e-06
0.00085449116
1.7300758e-06
0.00085447152
1.8311445e-06
0.00085443862
1.9377566e-06
0.00085438999
2.0448811e-06
0.00085432385
2.159516e-06
0.00085423574
2.2940854e-06
0.00085411313
2.4530269e-06
0.00085394586
2.7072425e-06
0.00085364074
3.0681928e-06
0.00085337262
4.2724773e-06
0.00085335888
6.8424361e-06
0.00085349839
9.747467e-06
0.00085369593
1.2191113e-05
0.00085384334
1.3954834e-05
0.00085389441
1.5300459e-05
0.00085379441
1.6342333e-05
0.0008535033
1.7123678e-05
0.00085300593
1.7749626e-05
0.00085228574
1.8284624e-05
0.00085132789
1.8758187e-05
0.00085011585
1.9201577e-05
0.00084859276
1.9589212e-05
0.00084667201
1.9895651e-05
0.00084425545
2.0113151e-05
0.00084128915
2.0250159e-05
0.00083777178
2.032918e-05
0.00083367441
2.0346363e-05
0.00082900293
2.0253074e-05
0.00082380043
2.0034813e-05
0.0008181096
1.9717111e-05
0.00081199062
1.9303918e-05
0.00080552182
1.8798969e-05
0.00079879652
1.8206695e-05
0.00079191525
1.7524509e-05
0.00078498471
1.6769639e-05
0.00077810653
1.5981175e-05
0.00077136259
1.5171677e-05
0.0007648185
1.4347368e-05
0.00075852241
1.3530065e-05
0.00075246813
1.2778151e-05
0.00074662837
1.2114615e-05
0.00074101203
1.150574e-05
0.00073563525
1.0940645e-05
0.00073050986
1.0418749e-05
0.00072563618
9.9441861e-06
0.00072099528
9.5226635e-06
0.00071656611
9.1848808e-06
0.00071233284
8.932287e-06
0.0007082773
8.7283232e-06
0.00070438458
8.5494807e-06
0.00070064483
8.3790156e-06
0.00069704478
8.2181006e-06
0.00069356897
8.0675922e-06
0.00069020105
7.9280478e-06
0.00068691298
7.8113759e-06
0.00068368683
7.711406e-06
0.00068052665
7.6078129e-06
0.00067743494
7.4987624e-06
0.00067440974
7.3880962e-06
0.00067144915
7.2713024e-06
0.0006685523
7.148034e-06
0.00066571763
7.0234546e-06
0.00066294404
6.8967686e-06
0.000660228
6.7689305e-06
0.0006575618
6.6490013e-06
0.00065493993
6.5420731e-06
0.00065236182
6.4425762e-06
0.00064982911
6.3429489e-06
0.00064734272
6.2421135e-06
0.00064490201
6.1427588e-06
0.0006425065
6.0433082e-06
0.00064015547
5.9419396e-06
0.0006378454
5.844421e-06
0.00063557202
5.7565901e-06
0.00063333397
5.6740774e-06
0.00063113144
5.5936538e-06
0.00062896475
5.5129956e-06
0.00062683383
5.4321567e-06
0.00062473802
5.3506927e-06
0.00062267521
5.2710656e-06
0.00062064236
5.199385e-06
0.00061863848
5.1313174e-06
0.00061666368
5.0639554e-06
0.00061471766
4.9983414e-06
0.00061280038
4.9306682e-06
0.00061091022
4.8650463e-06
0.00060904462
4.80645e-06
0.00060720284
4.750105e-06
0.00060538477
4.6949624e-06
0.00060358926
4.6427257e-06
0.0006018157
4.5908339e-06
0.00060005807
4.5529153e-06
0.00059832102
4.5100907e-06
0.00059657064
4.5381511e-06
0.00059486834
4.4998913e-06
0.00059284682
4.9889824e-06
4.5284451e-06
0.00088301902
1.0500123e-06
-0.00088302674
0.00088303031
1.376604e-06
0.00088304003
1.6036094e-06
0.00088303183
1.7382725e-06
0.00088301054
1.8524365e-06
0.00088297624
1.9720579e-06
0.00088292598
2.0951415e-06
0.00088285782
2.2276747e-06
0.00088276751
2.3843934e-06
0.00088264331
2.5772302e-06
0.00088247408
2.8764684e-06
0.00088220431
3.3379612e-06
0.00088195803
4.5187563e-06
0.00088193413
6.8663397e-06
0.00088208456
9.597035e-06
0.000882328
1.1947678e-05
0.00088258834
1.3694489e-05
0.00088284943
1.5039373e-05
0.00088308997
1.6101788e-05
0.000883295
1.6918649e-05
0.00088346661
1.7578015e-05
0.00088360616
1.814508e-05
0.00088371178
1.8652564e-05
0.00088378372
1.9129631e-05
0.00088381473
1.9558203e-05
0.00088378986
1.9920524e-05
0.00088368863
2.0214383e-05
0.00088348458
2.0454207e-05
0.0008831463
2.0667464e-05
0.0008826358
2.0856862e-05
0.00088188141
2.1007459e-05
0.00088079245
2.1123774e-05
0.00087929094
2.1218622e-05
0.00087729775
2.1297108e-05
0.00087473558
2.1361136e-05
0.00087153424
2.1408034e-05
0.00086763444
2.142431e-05
0.00086303583
2.1368258e-05
0.00085779711
2.1219888e-05
0.00085198621
2.0982577e-05
0.0008456944
2.0639177e-05
0.00083905041
2.0174058e-05
0.0008322111
1.9617457e-05
0.00082532396
1.9001759e-05
0.00081850383
1.8325868e-05
0.00081184095
1.7603527e-05
0.0008054121
1.6847601e-05
0.00079921719
1.6139093e-05
0.0007932163
1.5523554e-05
0.00078743986
1.4961321e-05
0.00078192792
1.4444226e-05
0.00077669044
1.3965806e-05
0.00077171849
1.3521434e-05
0.00076698268
1.3114816e-05
0.00076244846
1.2752325e-05
0.00075809211
1.2423939e-05
0.00075389749
1.2122666e-05
0.0007498541
1.1854767e-05
0.0007459541
1.1611406e-05
0.00074218388
1.1378037e-05
0.0007385281
1.115454e-05
0.00073497226
1.0943941e-05
0.00073150826
1.0735296e-05
0.00072813386
1.0522437e-05
0.00072484591
1.0311404e-05
0.00072164009
1.0102587e-05
0.00071850444
9.9045866e-06
0.00071542585
9.727587e-06
0.00071240407
9.5638601e-06
0.000709443
9.4036462e-06
0.00070654358
9.2423618e-06
0.00070370476
9.0809338e-06
0.00070092457
8.9229519e-06
0.00069820187
8.7660115e-06
0.00069553362
8.6101837e-06
0.00069291325
8.4647888e-06
0.00069033666
8.3331848e-06
0.0006878043
8.2064338e-06
0.00068531702
8.0809406e-06
0.0006828747
7.9553095e-06
0.00068047682
7.8300361e-06
0.00067812138
7.7061372e-06
0.00067580457
7.5878714e-06
0.00067352335
7.4806066e-06
0.00067127744
7.3772247e-06
0.00066906726
7.2741406e-06
0.00066689248
7.1731215e-06
0.00066475221
7.0709382e-06
0.00066264374
6.9735168e-06
0.00066056446
6.8857305e-06
0.00065851389
6.8006733e-06
0.00065649216
6.7166963e-06
0.00065449781
6.6370758e-06
0.00065252956
6.5590786e-06
0.00065058072
6.5017597e-06
0.00064865709
6.4337213e-06
0.00064672068
6.4745619e-06
0.00064484954
6.3710253e-06
0.00064258969
7.2488384e-06
6.2034175e-06
0.00091252407
1.0646954e-06
-0.00091253875
0.00091252959
1.3710778e-06
0.00091253358
1.5996257e-06
0.00091252211
1.7497372e-06
0.00091249794
1.8766127e-06
0.00091246132
2.0086761e-06
0.00091240936
2.147102e-06
0.00091233954
2.2974972e-06
0.00091224764
2.4762862e-06
0.00091212292
2.7019563e-06
0.00091195646
3.0429237e-06
0.00091171345
3.580971e-06
0.00091148915
4.7430614e-06
0.00091145755
6.8979388e-06
0.0009115981
9.4564836e-06
0.00091183065
1.1715131e-05
0.00091208673
1.3438406e-05
0.00091234845
1.4777654e-05
0.00091259958
1.5850661e-05
0.00091282597
1.6692251e-05
0.00091302823
1.7375754e-05
0.00091321057
1.796275e-05
0.00091337561
1.8487522e-05
0.00091352976
1.897548e-05
0.00091367351
1.9414453e-05
0.00091380495
1.9789083e-05
0.00091392239
2.0096938e-05
0.00091402469
2.0351914e-05
0.00091411303
2.0579121e-05
0.00091418627
2.0783626e-05
0.00091423869
2.0955029e-05
0.00091426328
2.1099189e-05
0.00091425002
2.1231877e-05
0.00091418238
2.136475e-05
0.00091403502
2.1508495e-05
0.00091377106
2.1671993e-05
0.00091333394
2.1861437e-05
0.00091262689
2.2075307e-05
0.00091153246
2.2314312e-05
0.00090993654
2.25785e-05
0.00090771837
2.285735e-05
0.00090475709
2.3135337e-05
0.0009009857
2.3388851e-05
0.00089642902
2.3558438e-05
0.00089115774
2.3597145e-05
0.00088526065
2.3500615e-05
0.00087886555
2.3242707e-05
0.00087215013
2.2854507e-05
0.00086529253
2.2381158e-05
0.00085844142
2.1812435e-05
0.00085172102
2.1164618e-05
0.00084523523
2.0451605e-05
0.00083900346
1.9753197e-05
0.00083297822
1.9140056e-05
0.00082715635
1.8574199e-05
0.00082155933
1.8020957e-05
0.00081620796
1.7474038e-05
0.00081111845
1.6944275e-05
0.00080627384
1.6456014e-05
0.00080163118
1.6020701e-05
0.00079716012
1.56256e-05
0.00079284327
1.5260788e-05
0.0007886742
1.4904361e-05
0.00078464681
1.454983e-05
0.00078074744
1.4210773e-05
0.00077696066
1.3889367e-05
0.00077327615
1.3589093e-05
0.00076969036
1.331338e-05
0.00076619983
1.3054395e-05
0.00076279863
1.2804842e-05
0.00075948035
1.256064e-05
0.00075624042
1.2320868e-05
0.00075307578
1.2087586e-05
0.00074998441
1.1857388e-05
0.0007469586
1.1635996e-05
0.000743988
1.1435387e-05
0.00074107176
1.1249419e-05
0.0007382134
1.1064801e-05
0.00073541305
1.0881287e-05
0.00073266921
1.0699149e-05
0.0007299805
1.0518745e-05
0.00072734259
1.0344045e-05
0.00072474959
1.018087e-05
0.00072219952
1.0030682e-05
0.00071969331
9.8834385e-06
0.00071723136
9.7360862e-06
0.00071481297
9.5915102e-06
0.00071243578
9.4481297e-06
0.00071009568
9.3136161e-06
0.00070779043
9.1909759e-06
0.00070552013
9.070978e-06
0.00070328502
8.9518037e-06
0.00070108302
8.8390815e-06
0.00069891187
8.7302294e-06
0.00069676437
8.649256e-06
0.00069464736
8.5507312e-06
0.0006925198
8.6021213e-06
0.00069047281
8.4180166e-06
0.00068798003
9.7416185e-06
8.0044916e-06
0.00094301477
1.0851089e-06
-0.00094303518
0.00094301361
1.3722319e-06
0.0009430124
1.6008354e-06
0.00094299862
1.7635214e-06
0.00094297253
1.9026991e-06
0.00094293439
2.0468164e-06
0.00094288141
2.2000807e-06
0.00094281057
2.3683454e-06
0.00094271772
2.5691277e-06
0.00094259367
2.8260081e-06
0.00094243135
3.205248e-06
0.00094221084
3.8014761e-06
0.00094200873
4.9451771e-06
0.00094197341
6.9332584e-06
0.00094210393
9.3259645e-06
0.00094232586
1.1493194e-05
0.00094257531
1.3188962e-05
0.00094283121
1.4521751e-05
0.00094307874
1.5603126e-05
0.00094330443
1.6466569e-05
0.00094350825
1.7171934e-05
0.00094369412
1.7776874e-05
0.00094386453
1.8317117e-05
0.00094402509
1.8814919e-05
0.00094417677
1.9262768e-05
0.00094431835
1.9647501e-05
0.00094444788
1.9967414e-05
0.0009445646
2.0235196e-05
0.00094467065
2.0473064e-05
0.00094476708
2.06872e-05
0.00094485291
2.08692e-05
0.0009449282
2.1023895e-05
0.00094499364
2.1166438e-05
0.00094504982
2.1308574e-05
0.00094509745
2.1460868e-05
0.00094513665
2.1632786e-05
0.0009451665
2.1831589e-05
0.00094518274
2.2059069e-05
0.0009451774
2.2319649e-05
0.00094513687
2.2619034e-05
0.00094503665
2.2957564e-05
0.00094483426
2.3337727e-05
0.00094446248
2.376063e-05
0.00094379904
2.4221886e-05
0.00094268337
2.4712808e-05
0.00094096333
2.5220655e-05
0.00093848092
2.5725119e-05
0.00093513481
2.6200615e-05
0.00093093132
2.6584651e-05
0.00092593529
2.6808468e-05
0.00092024338
2.6856522e-05
0.00091399474
2.6700249e-05
0.0009073843
2.6363633e-05
0.00090061413
2.5910223e-05
0.00089384803
2.5340305e-05
0.00088720581
2.466318e-05
0.00088078311
2.3896732e-05
0.00087458864
2.3138745e-05
0.0008685693
2.2475357e-05
0.0008627332
2.1856801e-05
0.00085711548
2.1243319e-05
0.00085174318
2.0633085e-05
0.00084661078
2.0036766e-05
0.00084168016
1.9480447e-05
0.00083692131
1.8969626e-05
0.00083231863
1.8492047e-05
0.000827875
1.803272e-05
0.00082359761
1.7590772e-05
0.00081947275
1.7179252e-05
0.00081547801
1.6799584e-05
0.00081159876
1.6439895e-05
0.00080782963
1.6089994e-05
0.000804166
1.5751217e-05
0.00080060034
1.5423044e-05
0.00079712506
1.511128e-05
0.00079373522
1.4825229e-05
0.00079042725
1.4557385e-05
0.00078719765
1.4294399e-05
0.00078404223
1.4036714e-05
0.00078095729
1.3784083e-05
0.00077794051
1.3535523e-05
0.00077498369
1.3300865e-05
0.0007720792
1.3085368e-05
0.00076922834
1.2881535e-05
0.00076643313
1.2678653e-05
0.00076369299
1.2476223e-05
0.00076100629
1.2278213e-05
0.00075836831
1.2086105e-05
0.00075577353
1.1908395e-05
0.00075322106
1.1743449e-05
0.00075071162
1.1580422e-05
0.00074824525
1.1418173e-05
0.00074581867
1.1265658e-05
0.00074342837
1.1120527e-05
0.00074106701
1.101062e-05
0.00073874254
1.0875202e-05
0.00073641109
1.0933568e-05
0.0007341754
1.0653704e-05
0.00073144145
1.2475569e-05
9.9476513e-06
0.00097452375
1.1101383e-06
-0.00097454878
0.00097451641
1.3795736e-06
0.00097451056
1.6066814e-06
0.0009744943
1.7797801e-06
0.00097446608
1.9309232e-06
0.00097442602
2.0868752e-06
0.00097437159
2.2545056e-06
0.00097429953
2.4404091e-06
0.0009742059
2.6627573e-06
0.00097408308
2.9488326e-06
0.00097392583
3.3624975e-06
0.00097372514
4.0021573e-06
0.00097354396
5.1263602e-06
0.00097350716
6.970056e-06
0.00097362766
9.2054688e-06
0.00097383988
1.1280978e-05
0.0009740834
1.2945436e-05
0.00097433504
1.4270108e-05
0.00097458103
1.5357143e-05
0.00097480802
1.6239576e-05
0.00097501466
1.6965301e-05
0.00097520349
1.7588043e-05
0.0009753773
1.8143304e-05
0.0009755406
1.8651614e-05
0.00097569438
1.910899e-05
0.00097583763
1.9504251e-05
0.00097596899
1.9836058e-05
0.00097608812
2.0116069e-05
0.00097619701
2.0364173e-05
0.00097629682
2.0587382e-05
0.0009763867
2.0779328e-05
0.00097646657
2.0944024e-05
0.0009765373
2.1095701e-05
0.00097659944
2.1246439e-05
0.00097665374
2.1406567e-05
0.00097670133
2.1585199e-05
0.00097674338
2.1789537e-05
0.00097678063
2.202182e-05
0.00097681397
2.2286306e-05
0.00097684436
2.258865e-05
0.00097687212
2.2929798e-05
0.00097689726
2.3312587e-05
0.00097691859
2.3739306e-05
0.00097693136
2.4209116e-05
0.00097692412
2.4720046e-05
0.00097687621
2.5268559e-05
0.00097674857
2.5852767e-05
0.00097647812
2.6471064e-05
0.0009759419
2.7120867e-05
0.00097495579
2.7794583e-05
0.00097333557
2.8476741e-05
0.00097089607
2.9139746e-05
0.0009675177
2.9742009e-05
0.00096323294
3.0194975e-05
0.0009581462
3.0427047e-05
0.00095237972
3.0429659e-05
0.00094610138
3.0175071e-05
0.00093952234
2.9717793e-05
0.00093284027
2.9157425e-05
0.00092619787
2.84992e-05
0.00091969727
2.7743923e-05
0.00091341545
2.6914903e-05
0.00090731197
2.6140239e-05
0.00090132653
2.5465893e-05
0.00089550417
2.479198e-05
0.00088989471
2.4101516e-05
0.000884515
2.3412423e-05
0.00087934305
2.2762724e-05
0.0008743549
2.2167403e-05
0.00086953772
2.161676e-05
0.00086488878
2.1088843e-05
0.00086040465
2.0574124e-05
0.00085607147
2.0084391e-05
0.00085187127
1.9623248e-05
0.0008477984
1.9184145e-05
0.00084385701
1.8766627e-05
0.00084003933
1.8375063e-05
0.00083633084
1.8002892e-05
0.00083272113
1.7646421e-05
0.0008292045
1.730071e-05
0.00082577617
1.6963853e-05
0.00082243079
1.6646242e-05
0.00081916358
1.6352581e-05
0.00081597048
1.6074641e-05
0.00081284862
1.5800511e-05
0.00080979489
1.5529949e-05
0.0008068063
1.5266808e-05
0.00080387464
1.5017762e-05
0.00080099366
1.478938e-05
0.0007981654
1.4571708e-05
0.00079539063
1.4355191e-05
0.00079266851
1.414029e-05
0.00078999384
1.394033e-05
0.00078736168
1.3752683e-05
0.00078476523
1.3607072e-05
0.0007822137
1.3426731e-05
0.00077966009
1.348718e-05
0.00077721813
1.3095662e-05
0.00077422631
1.5467389e-05
1.2049985e-05
0.001007085
1.1388155e-06
-0.0010071137
0.0010070721
1.3924927e-06
0.0010070617
1.6170645e-06
0.0010070427
1.7988148e-06
0.0010070123
1.9613211e-06
0.0010069704
2.1287783e-06
0.0010069147
2.3102063e-06
0.0010068419
2.5132552e-06
0.0010067482
2.7564659e-06
0.0010066274
3.0695358e-06
0.0010064764
3.513587e-06
0.0010062935
4.1850076e-06
0.0010061317
5.2882033e-06
0.0010060954
7.006358e-06
0.0010062064
9.094409e-06
0.0010064091
1.1078255e-05
0.0010066464
1.2708134e-05
0.0010068937
1.4022875e-05
0.0010071378
1.5113042e-05
0.001007366
1.6011327e-05
0.0010075754
1.6755965e-05
0.0010077676
1.7395817e-05
0.0010079453
1.7965583e-05
0.0010081122
1.8484707e-05
0.0010082694
1.8951816e-05
0.0010084159
1.9357747e-05
0.0010085504
1.9701525e-05
0.0010086727
1.999383e-05
0.0010087843
2.0252513e-05
0.0010088866
2.048513e-05
0.0010089787
2.0687181e-05
0.0010090606
2.0862174e-05
0.0010091329
2.1023397e-05
0.0010091964
2.1182894e-05
0.0010092522
2.135075e-05
0.0010093016
2.153588e-05
0.0010093457
2.1745433e-05
0.0010093853
2.1982193e-05
0.0010094214
2.2250211e-05
0.001009455
2.2555047e-05
0.0010094865
2.2898294e-05
0.0010095165
2.3282544e-05
0.0010095457
2.3710124e-05
0.0010095746
2.4180285e-05
0.0010096035
2.4691133e-05
0.0010096324
2.5239612e-05
0.0010096611
2.5824037e-05
0.0010096885
2.6443692e-05
0.0010097105
2.7098876e-05
0.0010097155
2.7789627e-05
0.0010096801
2.8512067e-05
0.0010095591
2.926074e-05
0.0010092735
3.0027618e-05
0.0010086655
3.0803038e-05
0.0010075175
3.1574974e-05
0.0010056266
3.2320647e-05
0.0010027885
3.3013167e-05
0.00099893589
3.3570364e-05
0.00099419077
3.3902544e-05
0.00098870766
3.3982312e-05
0.00098265236
3.3799221e-05
0.00097622793
3.3339332e-05
0.00096964435
3.2723817e-05
0.0009630551
3.2055139e-05
0.00095655287
3.129421e-05
0.00095022349
3.0430899e-05
0.0009440462
2.9589711e-05
0.00093795564
2.8853286e-05
0.00093199519
2.8127857e-05
0.00092623256
2.7379384e-05
0.0009206926
2.6628803e-05
0.00091535001
2.5916718e-05
0.00091018115
2.5253248e-05
0.00090517909
2.4625314e-05
0.00090034858
2.4014649e-05
0.00089569232
2.3422892e-05
0.00089119796
2.2869421e-05
0.00088684964
2.2351211e-05
0.00088263786
2.18582e-05
0.00087855625
2.1382323e-05
0.00087459442
2.0925684e-05
0.00087074824
2.0492422e-05
0.00086701714
2.0083683e-05
0.00086339131
1.9700463e-05
0.00085986058
1.9331249e-05
0.00085641764
1.8972888e-05
0.000853057
1.8627444e-05
0.00084977453
1.8300233e-05
0.00084656576
1.799815e-05
0.00084342635
1.7711122e-05
0.00084035342
1.7428119e-05
0.00083734444
1.7149267e-05
0.00083439145
1.6893322e-05
0.00083148836
1.6655768e-05
0.00082863003
1.6465407e-05
0.00082582677
1.6229986e-05
0.00082302765
1.6286302e-05
0.00082035725
1.5766061e-05
0.00081708415
1.8740491e-05
1.4330813e-05
0.0010407338
1.1704209e-06
-0.0010407654
0.0010407158
1.410412e-06
0.001040701
1.6318623e-06
0.0010406792
1.8207084e-06
0.0010406467
1.9937938e-06
0.0010406031
2.1723947e-06
0.0010405462
2.3670742e-06
0.0010404728
2.5866497e-06
0.0010403794
2.8498329e-06
0.0010402614
3.1875984e-06
0.001040117
3.6579783e-06
0.0010399501
4.351893e-06
0.0010398059
5.4324478e-06
0.0010397715
7.040667e-06
0.0010398739
8.992014e-06
0.0010400673
1.0884939e-05
0.0010402981
1.247729e-05
0.0010405409
1.3780118e-05
0.0010407828
1.487107e-05
0.0010410119
1.5782225e-05
0.0010412237
1.6544187e-05
0.0010414192
1.7200299e-05
0.0010416008
1.7784054e-05
0.0010417714
1.8314107e-05
0.0010419321
1.8791052e-05
0.0010420822
1.9207678e-05
0.0010422203
1.9563378e-05
0.0010423462
1.9867932e-05
0.0010424613
2.0137411e-05
0.0010425668
2.03797e-05
0.001042662
2.0591975e-05
0.0010427467
2.0777435e-05
0.0010428217
2.0948435e-05
0.0010428877
2.1116901e-05
0.0010429457
2.1292711e-05
0.001042997
2.1484578e-05
0.0010430428
2.1699598e-05
0.001043084
2.1941044e-05
0.0010431213
2.2212902e-05
0.0010431558
2.2520534e-05
0.0010431882
2.2865942e-05
0.0010432191
2.3251584e-05
0.0010432495
2.3679749e-05
0.0010432799
2.414992e-05
0.0010433107
2.4660255e-05
0.0010433424
2.5207975e-05
0.0010433748
2.5791622e-05
0.0010434079
2.6410623e-05
0.0010434416
2.7065109e-05
0.0010434764
2.7754846e-05
0.0010435121
2.8476363e-05
0.0010435482
2.9224603e-05
0.0010435833
2.9992595e-05
0.0010436107
3.0775606e-05
0.0010436137
3.1571995e-05
0.0010435567
3.2377642e-05
0.0010433761
3.319371e-05
0.0010429298
3.4016746e-05
0.0010419918
3.4840536e-05
0.0010403253
3.564882e-05
0.0010377139
3.6410614e-05
0.0010340158
3.7037391e-05
0.0010293272
3.7412464e-05
0.0010238817
3.7500625e-05
0.0010178695
3.7306418e-05
0.0010114942
3.6806211e-05
0.0010049574
3.6126481e-05
0.00099840164
3.5409033e-05
0.00099190948
3.4620021e-05
0.00098556128
3.3727576e-05
0.00097933424
3.2855846e-05
0.00097316876
3.2082198e-05
0.00096712054
3.1301471e-05
0.00096126038
3.0485468e-05
0.00095560465
2.9670378e-05
0.00095012816
2.8899383e-05
0.00094482177
2.8175818e-05
0.00093969146
2.7481517e-05
0.00093474043
2.6809228e-05
0.00092996007
2.6162679e-05
0.00092533434
2.5551421e-05
0.0009208562
2.4970562e-05
0.00091652708
2.4412796e-05
0.00091233878
2.3888771e-05
0.00090827804
2.3391982e-05
0.00090433534
2.2915597e-05
0.00090050226
2.2460517e-05
0.00089677768
2.2024811e-05
0.00089315893
2.1616904e-05
0.00088963448
2.1235572e-05
0.00088619623
2.086637e-05
0.00088283814
2.0507354e-05
0.00087955416
2.0177307e-05
0.00087634065
1.9869271e-05
0.00087318803
1.961803e-05
0.00087010312
1.9314897e-05
0.00086702976
1.9359661e-05
0.00086410377
1.8692055e-05
0.00086051968
2.2324576e-05
1.6812439e-05
0.0010755062
1.2044391e-06
-0.0010755402
0.0010754839
1.4327638e-06
0.0010754649
1.6508647e-06
0.0010754401
1.8454702e-06
0.0010754056
2.0282885e-06
0.0010753604
2.217637e-06
0.0010753024
2.4250125e-06
0.0010752287
2.6603555e-06
0.0010751362
2.9424076e-06
0.0010750213
3.3024831e-06
0.001074884
3.7952155e-06
0.0010747317
4.5042032e-06
0.0010746036
5.5605964e-06
0.0010745724
7.0718016e-06
0.0010746672
8.8973043e-06
0.0010748513
1.0700836e-05
0.0010750755
1.2253019e-05
0.0010753138
1.3541875e-05
0.0010755534
1.4631457e-05
0.0010757829
1.5552702e-05
0.0010759969
1.6330241e-05
0.0010761955
1.7001691e-05
0.0010763806
1.7598905e-05
0.0010765548
1.8139892e-05
0.0010767191
1.8626757e-05
0.0010768727
1.9054088e-05
0.0010770144
1.9421653e-05
0.001077144
1.973841e-05
0.0010772625
2.0018869e-05
0.0010773711
2.0271074e-05
0.0010774694
2.0493673e-05
0.0010775571
2.0689713e-05
0.0010776349
2.0870656e-05
0.0010777036
2.1048237e-05
0.0010777641
2.1232161e-05
0.0010778178
2.1430946e-05
0.0010778657
2.1651635e-05
0.0010779089
2.1897921e-05
0.001077948
2.2173773e-05
0.0010779842
2.2484372e-05
0.001078018
2.2832061e-05
0.0010780504
2.3219223e-05
0.001078082
2.3648101e-05
0.0010781136
2.4118402e-05
0.0010781454
2.4628432e-05
0.0010781777
2.5175639e-05
0.0010782107
2.5758589e-05
0.0010782446
2.6376725e-05
0.0010782797
2.7030085e-05
0.0010783162
2.7718298e-05
0.0010783547
2.8437931e-05
0.001078395
2.9184278e-05
0.0010784365
2.9951087e-05
0.0010784786
3.0733491e-05
0.0010785211
3.1529488e-05
0.0010785632
3.2335563e-05
0.001078604
3.3152927e-05
0.0010786396
3.3981119e-05
0.0010786566
3.4823544e-05
0.0010786215
3.5683938e-05
0.0010784734
3.6558695e-05
0.0010780651
3.7445695e-05
0.0010771464
3.8331147e-05
0.001075451
3.9196062e-05
0.0010727451
4.0012257e-05
0.0010688936
4.065776e-05
0.0010640142
4.1005904e-05
0.0010583869
4.1036313e-05
0.0010522507
4.0756208e-05
0.0010458192
4.0159102e-05
0.0010392738
3.9401174e-05
0.0010327277
3.8628344e-05
0.0010262481
3.7781083e-05
0.0010198946
3.6838993e-05
0.0010136206
3.5944335e-05
0.0010073853
3.5134655e-05
0.001001276
3.4285125e-05
0.00099535054
3.3406997e-05
0.00098960852
3.2551242e-05
0.00098403693
3.1734274e-05
0.00097863712
3.0951232e-05
0.00097341622
3.0191462e-05
0.00096837534
2.9453672e-05
0.00096350363
2.8760486e-05
0.00095879167
2.8103935e-05
0.00095423509
2.7472181e-05
0.00094982331
2.6872293e-05
0.00094554849
2.6299633e-05
0.00094140764
2.5757755e-05
0.00093739223
2.5250987e-05
0.00093349159
2.4767003e-05
0.00092969565
2.4303294e-05
0.00092600033
2.3872632e-05
0.00092240449
2.3465114e-05
0.00091889294
2.3129572e-05
0.00091546741
2.2740433e-05
0.00091206533
2.2761739e-05
0.00090884095
2.1916436e-05
0.0009049088
2.6256726e-05
1.9520978e-05
0.00111144
1.2404929e-06
-0.0011114761
0.0011114138
1.4590128e-06
0.0011113908
1.6738113e-06
0.0011113632
1.8730739e-06
0.0011113267
2.0647595e-06
0.00111128
2.26439e-06
0.0011112211
2.4838673e-06
0.0011111474
2.7341024e-06
0.001111056
3.0337512e-06
0.0011109448
3.413732e-06
0.001110815
3.9250318e-06
0.0011106761
4.6431271e-06
0.0011105625
5.6741056e-06
0.0011105353
7.0990141e-06
0.0011106233
8.8092884e-06
0.0011107985
1.0525705e-05
0.0011110161
1.2035443e-05
0.0011112497
1.3308238e-05
0.0011114867
1.4394443e-05
0.0011117162
1.5323168e-05
0.0011119321
1.6114418e-05
0.0011121335
1.6800204e-05
0.0011123221
1.7410305e-05
0.0011124999
1.7962131e-05
0.0011126677
1.8458961e-05
0.0011128248
1.8896979e-05
0.0011129701
1.9276334e-05
0.0011131033
1.9605239e-05
0.0011132253
1.9896828e-05
0.0011133372
2.0159174e-05
0.0011134387
2.0392198e-05
0.0011135295
2.0598919e-05
0.0011136102
2.0789965e-05
0.0011136816
2.097681e-05
0.0011137448
2.1169011e-05
0.0011138008
2.1374897e-05
0.001113851
2.1601451e-05
0.0011138962
2.1852728e-05
0.0011139373
2.2132714e-05
0.0011139752
2.2446425e-05
0.0011140108
2.2796497e-05
0.0011140447
2.3185275e-05
0.0011140779
2.3614956e-05
0.0011141108
2.4085458e-05
0.001114144
2.4595248e-05
0.0011141776
2.5141993e-05
0.0011142119
2.5724296e-05
0.0011142471
2.6341609e-05
0.0011142832
2.6993895e-05
0.0011143208
2.7680699e-05
0.00111436
2.8398755e-05
0.0011144008
2.9143448e-05
0.0011144431
2.9908797e-05
0.0011144866
3.0690001e-05
0.0011145313
3.1484862e-05
0.0011145768
3.2290021e-05
0.001114623
3.3106757e-05
0.0011146688
3.3935278e-05
0.0011147142
3.477819e-05
0.001114759
3.5639135e-05
0.0011148024
3.6515303e-05
0.0011148414
3.7406668e-05
0.0011148618
3.8310769e-05
0.0011148249
3.9232933e-05