/*--------------------------------*- C++ -*----------------------------------*\
  =========                 |
  \\      /  F ield         | OpenFOAM: The Open Source CFD Toolbox
   \\    /   O peration     | Website:  https://openfoam.org
    \\  /    A nd           | Version:  12
     \\/     M anipulation  |
\*---------------------------------------------------------------------------*/
FoamFile
{
    format      ascii;
    class       volVectorField;
    location    "900";
    object      wallShearStress;
}
// * * * * * * * * * * * * * * * * * * * * * * * * * * * * * * * * * * * * * //

dimensions      [0 2 -2 0 0 0 0];

internalField   uniform (0 0 0);

boundaryField
{
    bottom
    {
        type            calculated;
        value           nonuniform List<vector> 
112
(
(-0.0052267903 -3.4946055e-05 0)
(-0.0025600598 -5.6740607e-07 7.1395695e-19)
(-0.0024943794 -7.3053061e-09 7.746798e-19)
(-0.0024970735 -5.3584192e-09 -2.8882369e-19)
(-0.0024468498 -1.2924922e-08 0)
(-0.0023826117 -1.3933301e-08 0)
(-0.0023226165 -1.2425282e-08 0)
(-0.0022708561 -1.0631924e-08 0)
(-0.0022260315 -9.1869865e-09 0)
(-0.0021865531 -8.0589195e-09 -8.5891605e-19)
(-0.0021513313 -7.1502345e-09 0)
(-0.0021195868 -6.4545716e-09 -6.878911e-19)
(-0.0020902287 -5.9135202e-09 6.3023419e-19)
(-0.0020629917 -5.4334606e-09 -5.790748e-19)
(-0.0020376423 -5.0011586e-09 0)
(-0.0020140318 -4.6067579e-09 4.9096644e-19)
(-0.0019920101 -4.255819e-09 0)
(-0.0019713648 -3.9485148e-09 -2.1040999e-19)
(-0.0019519328 -3.6746757e-09 0)
(-0.0019335927 -3.4316524e-09 -3.6573618e-19)
(-0.0019162004 -3.2152002e-09 3.4267505e-19)
(-0.001899668 -3.0190575e-09 0)
(-0.0018839123 -2.8395648e-09 0)
(-0.0018688763 -2.6746382e-09 0)
(-0.001854495 -2.5254593e-09 -2.6915426e-19)
(-0.0018406966 -2.3869974e-09 0)
(-0.0018274631 -2.2586486e-09 0)
(-0.0018147279 -2.1437447e-09 0)
(-0.0018024334 -2.0361305e-09 0)
(-0.0017905761 -1.9346765e-09 -2.0620741e-19)
(-0.0017791113 -1.8429394e-09 1.964188e-19)
(-0.0017679919 -1.7569816e-09 0)
(-0.0017572153 -1.6748283e-09 0)
(-0.0017467575 -1.5998837e-09 0)
(-0.001736572 -1.5308097e-09 1.6314999e-19)
(-0.0017266493 -1.4638266e-09 0)
(-0.0017169882 -1.400595e-09 0)
(-0.0017075574 -1.3430872e-09 -1.4314932e-19)
(-0.0016983282 -1.2886881e-09 0)
(-0.0016893017 -1.2373174e-09 0)
(-0.0016804474 -1.1902554e-09 0)
(-0.0016717478 -1.1453528e-09 1.220744e-19)
(-0.0016632027 -1.1011528e-09 -5.8679933e-20)
(-0.0016548145 -1.057851e-09 1.1274922e-19)
(-0.0016465797 -1.0168199e-09 0)
(-0.0016384794 -9.7868362e-10 0)
(-0.0016304996 -9.4223284e-10 -1.5063594e-19)
(-0.0016226384 -9.0686575e-10 0)
(-0.0016148909 -8.7313028e-10 9.3064188e-20)
(-0.0016072453 -8.4128092e-10 0)
(-0.0015996918 -8.1084953e-10 0)
(-0.0015922253 -7.8155589e-10 -4.1649558e-20)
(-0.0015848402 -7.532389e-10 -4.014205e-20)
(-0.0015775331 -7.2609836e-10 0)
(-0.0015702946 -7.0022293e-10 -7.4632632e-20)
(-0.0015631192 -6.752094e-10 0)
(-0.0015560035 -6.510778e-10 0)
(-0.0015489414 -6.2792279e-10 0)
(-0.0015419264 -6.0553068e-10 0)
(-0.0015349571 -5.8383574e-10 0)
(-0.0015280276 -5.6309139e-10 0)
(-0.0015211294 -5.4304865e-10 0)
(-0.0015142613 -5.2348334e-10 0)
(-0.0015074205 -5.045425e-10 0)
(-0.0015006021 -4.8626419e-10 -5.1827811e-20)
(-0.0014938004 -4.6864473e-10 0)
(-0.0014870099 -4.51535e-10 -2.4063868e-20)
(-0.0014802286 -4.34771e-10 0)
(-0.0014734557 -4.1852004e-10 -2.2303949e-20)
(-0.0014666832 -4.0300759e-10 4.2954155e-20)
(-0.001459902 -3.8798653e-10 4.135406e-20)
(-0.0014531108 -3.7315576e-10 -1.9886876e-20)
(-0.0014463108 -3.5870628e-10 0)
(-0.0014394936 -3.4505628e-10 0)
(-0.0014326428 -3.3188626e-10 3.53745e-20)
(-0.0014257606 -3.1869925e-10 -3.3969377e-20)
(-0.0014188506 -3.0576388e-10 0)
(-0.0014119041 -2.9339915e-10 0)
(-0.001404909 -2.8145866e-10 -2.9999709e-20)
(-0.0013978612 -2.6964575e-10 0)
(-0.0013907626 -2.5810684e-10 0)
(-0.0013836012 -2.4711127e-10 0)
(-0.0013763621 -2.364155e-10 0)
(-0.0013690448 -2.2582282e-10 0)
(-0.0013616455 -2.155592e-10 0)
(-0.0013541481 -2.0568455e-10 0)
(-0.001346542 -1.9595331e-10 0)
(-0.0013388268 -1.8640436e-10 1.9868331e-20)
(-0.0013309874 -1.7733069e-10 -1.8901107e-20)
(-0.0013231754 -1.6871261e-10 0)
(-0.00131565 -1.6064545e-10 0)
(-0.0013084759 -1.5360322e-10 0)
(-0.0013015951 -1.471133e-10 0)
(-0.0012950148 -1.4071442e-10 0)
(-0.0012887194 -1.3477337e-10 0)
(-0.0012826828 -1.2937986e-10 0)
(-0.0012768809 -1.2440139e-10 0)
(-0.0012712998 -1.19679e-10 -1.275632e-20)
(-0.00126593 -1.1523046e-10 0)
(-0.001260756 -1.1115298e-10 0)
(-0.0012557593 -1.0741693e-10 0)
(-0.0012509272 -1.0388281e-10 0)
(-0.0012462538 -1.0050049e-10 0)
(-0.0012417312 -9.7329036e-11 0)
(-0.0012373481 -9.4468801e-11 0)
(-0.0012330872 -9.1836736e-11 0)
(-0.0012289451 -8.9679337e-11 0)
(-0.0012248814 -8.7251366e-11 0)
(-0.0012209625 -8.7147269e-11 0)
(-0.0012169066 -1.5034414e-10 0)
(-0.0012133247 -1.022506e-10 -1.098186e-20)
(-0.0012074995 -1.1557157e-10 0)
)
;
    }
    back
    {
        type            empty;
    }
    front
    {
        type            empty;
    }
    inlet
    {
        type            calculated;
        value           uniform (0 0 0);
    }
    outlet
    {
        type            calculated;
        value           uniform (0 0 0);
    }
    top
    {
        type            calculated;
        value           uniform (0 0 0);
    }
    slipsurface
    {
        type            calculated;
        value           uniform (0 0 0);
    }
}


// ************************************************************************* //
