/*--------------------------------*- C++ -*----------------------------------*\
  =========                 |
  \\      /  F ield         | OpenFOAM: The Open Source CFD Toolbox
   \\    /   O peration     | Website:  https://openfoam.org
    \\  /    A nd           | Version:  12
     \\/     M anipulation  |
\*---------------------------------------------------------------------------*/
FoamFile
{
    format      ascii;
    class       volScalarField;
    location    "500";
    object      k;
}
// * * * * * * * * * * * * * * * * * * * * * * * * * * * * * * * * * * * * * //

dimensions      [0 2 -2 0 0 0 0];

internalField   nonuniform List<scalar> 
7480
(
0.00019185243
0.00027874031
0.00041012261
0.00059569949
0.00084935826
0.0011850669
0.0016132734
0.0021369525
0.0027480967
0.0034253375
0.0041344219
0.0048341502
0.0054831383
0.006046785
0.0065017739
0.0068398106
0.0070552135
0.007205018
0.0072006604
0.0071604233
0.0070705064
0.0069453924
0.00679866
0.006641921
0.0064848983
0.0063356811
0.0062009152
0.0060857462
0.0059937499
0.00592643
0.0058824434
0.0058573428
0.0058442064
0.0058353651
0.0058245735
0.0058083869
0.0057862131
0.005759343
0.0057296105
0.0056983865
0.005666266
0.0056333107
0.0055994946
0.0055649982
0.0055302063
0.0054955265
0.0054612271
0.0054274055
0.0053940663
0.0053612038
0.0053288275
0.0052969423
0.005265549
0.005234638
0.0052041951
0.0051742094
0.0051446717
0.0051155687
0.0050868863
0.0050586205
0.0050307598
0.0050032857
0.0049761832
0.0049494415
0.0049230512
0.0048970042
0.0048712927
0.0048459076
0.004820841
0.0047960848
0.0047716307
0.0047474713
0.0047236001
0.0047000095
0.0046766923
0.0046536423
0.0046308533
0.0046083191
0.004586034
0.0045639922
0.0045421882
0.0045206168
0.0044992725
0.0044781505
0.0044572456
0.0044365528
0.0044160671
0.0043957835
0.0043756969
0.0043558009
0.0043360912
0.0043165576
0.0042972017
0.0042779865
0.0042589645
0.0042399367
0.0042213049
0.0042018097
0.0041852324
0.0041548758
0.00014493678
0.00014748235
0.00015149959
0.00015733821
0.00016574123
0.00017793938
0.00019569649
0.00022127123
0.00025709573
0.00030562668
0.0003694173
0.00044917546
0.00054327901
0.00064826404
0.00075963669
0.00087332892
0.00098509372
0.0010974699
0.0012080428
0.0013242168
0.0014564309
0.0016250565
0.0018385594
0.0020765272
0.0023392135
0.0026300838
0.0029491957
0.0032930103
0.0036525373
0.0040112236
0.0043470132
0.0046379283
0.0048675151
0.0050310291
0.0051363598
0.0051989314
0.0052353604
0.0052584695
0.0052749331
0.0052863527
0.0052921312
0.0052919059
0.0052866062
0.0052780461
0.005267914
0.0052571393
0.0052459054
0.0052340665
0.0052215531
0.0052084608
0.0051949148
0.005180975
0.0051666357
0.0051518959
0.005136785
0.0051213365
0.0051055673
0.0050894878
0.0050731244
0.0050565296
0.005039696
0.0050226237
0.0050053292
0.0049878353
0.0049701648
0.0049523379
0.0049343716
0.0049162825
0.004898086
0.004879796
0.0048614268
0.0048429921
0.0048245031
0.0048059726
0.0047874128
0.0047688348
0.0047502484
0.0047316626
0.0047130858
0.0046945259
0.0046759902
0.0046574856
0.0046390181
0.0046205935
0.0046022169
0.0045838927
0.0045656251
0.0045474178
0.004529274
0.0045111952
0.0044931843
0.0044752444
0.0044573733
0.0044395772
0.0044218374
0.0044041835
0.0043865558
0.0043687673
0.0043528086
0.0043247461
0.00014376173
0.00014398087
0.00014434219
0.00014482834
0.00014543402
0.0001461623
0.00014701921
0.00014800932
0.00014912958
0.00015036941
0.00015173252
0.00015322694
0.00015484979
0.00015659205
0.00015844752
0.00016042443
0.0001625453
0.00016491426
0.00016768005
0.00017117259
0.00017589602
0.00018313538
0.00019370343
0.00021349969
0.00024614545
0.00029481136
0.00036376493
0.00045817634
0.00058591791
0.00075896199
0.0010061164
0.001309056
0.001654685
0.00202747
0.0024074436
0.0027714522
0.0030972737
0.0033695015
0.0035835461
0.0037450777
0.0038662434
0.0039605493
0.0040387535
0.0041069011
0.004167062
0.0042194252
0.0042641531
0.0043021666
0.0043348306
0.0043633292
0.0043883509
0.0044102222
0.0044291812
0.0044455118
0.0044595052
0.0044713928
0.0044813451
0.0044895087
0.0044960195
0.0045009846
0.0045045294
0.004506761
0.0045077747
0.0045076572
0.0045064876
0.0045043387
0.0045012776
0.0044973661
0.0044926614
0.0044872168
0.0044810827
0.0044743068
0.004466933
0.0044590033
0.0044505573
0.0044416321
0.0044322623
0.0044224803
0.0044123165
0.0044017993
0.0043909554
0.00437981
0.0043683865
0.0043567069
0.0043447914
0.0043326593
0.0043203283
0.004307815
0.0042951349
0.004282304
0.0042693344
0.0042562406
0.0042430277
0.0042297217
0.0042162941
0.0042028432
0.0041891931
0.0041755347
0.0041628966
0.0041409197
0.00014366254
0.00014365895
0.00014368346
0.00014373549
0.0001438087
0.00014389574
0.00014398903
0.00014408052
0.00014416107
0.00014422011
0.00014424715
0.00014423197
0.00014416366
0.00014403007
0.00014381905
0.00014351535
0.00014310458
0.0001425774
0.00014193102
0.0001411683
0.00014029435
0.00013933974
0.00013832088
0.00013734763
0.00013658239
0.00013625976
0.00013669628
0.00013822696
0.00014164204
0.00014792956
0.00015983513
0.00018005193
0.00021786076
0.00028129881
0.00037801627
0.00051591579
0.00071421849
0.00097360178
0.0012721907
0.001591243
0.0019107457
0.0022104475
0.0024747429
0.0026965467
0.0028776113
0.0030257768
0.0031506515
0.0032599153
0.0033577782
0.003445762
0.0035243805
0.0035943735
0.0036569113
0.0037131899
0.0037640804
0.0038101346
0.0038517762
0.0038894162
0.0039234412
0.003954169
0.0039818699
0.004006785
0.0040291332
0.0040491102
0.00406689
0.0040826302
0.0040964741
0.0041085523
0.0041189839
0.0041278788
0.0041353391
0.0041414592
0.004146327
0.004150024
0.0041526264
0.0041542056
0.0041548279
0.0041545554
0.0041534462
0.0041515545
0.0041489313
0.0041456241
0.0041416775
0.0041371331
0.00413203
0.0041264046
0.0041202911
0.0041137215
0.0041067258
0.0040993332
0.0040915692
0.0040834613
0.0040750257
0.0040663026
0.0040572682
0.0040480516
0.0040384403
0.004028815
0.0040195594
0.0040034048
0.00014368428
0.00014362836
0.00014358317
0.00014354844
0.00014352202
0.00014350058
0.00014348021
0.00014345675
0.00014342579
0.00014338266
0.00014332263
0.00014324103
0.00014313329
0.00014299462
0.00014282095
0.00014260771
0.00014234905
0.00014203922
0.00014167005
0.00014123704
0.00014073706
0.00014016952
0.00013953504
0.00013884041
0.00013810075
0.00013733966
0.00013658517
0.00013586155
0.00013519842
0.00013466407
0.00013420922
0.00013430683
0.00013487412
0.00013660691
0.00014023917
0.00014680343
0.00015884733
0.00017962721
0.00021891872
0.00028506944
0.00038588651
0.00053230002
0.00073559848
0.00097739222
0.0012416397
0.0015108832
0.001768023
0.0020005052
0.0022030019
0.0023768984
0.0025276169
0.0026611418
0.0027816301
0.0028910929
0.0029904096
0.003080384
0.003162071
0.0032365395
0.0033046269
0.0033669376
0.0034239742
0.0034762055
0.003524056
0.0035678921
0.0036080312
0.0036447579
0.0036783287
0.0037089738
0.003736901
0.0037622996
0.0037853429
0.0038061897
0.003824986
0.0038418665
0.0038569557
0.0038703692
0.0038822144
0.0038925913
0.0039015929
0.0039093059
0.0039158113
0.0039211846
0.0039254964
0.0039288127
0.0039311951
0.0039327012
0.003933385
0.0039332971
0.003932485
0.0039309939
0.0039288649
0.0039261402
0.0039228499
0.0039190477
0.0039147218
0.0039100178
0.0039047173
0.003899328
0.0038936731
0.0038835525
0.00014372226
0.00014365632
0.00014359177
0.00014353037
0.00014347243
0.00014341702
0.0001433625
0.00014330683
0.00014324769
0.0001431826
0.00014310898
0.00014302423
0.00014292578
0.0001428112
0.0001426775
0.00014252188
0.00014234263
0.00014213721
0.00014190248
0.00014163535
0.000141333
0.00014099306
0.00014061355
0.00014019318
0.00013973184
0.00013923098
0.00013869359
0.0001381225
0.00013752308
0.00013691736
0.00013630884
0.00013573427
0.0001352017
0.00013478653
0.00013439671
0.00013441761
0.00013466819
0.00013543684
0.00013720711
0.00014074554
0.00014706625
0.00015818359
0.00017735189
0.00021292464
0.00027312658
0.00036535353
0.00050262361
0.00068341156
0.00089449056
0.0011223133
0.0013519142
0.0015703305
0.0017696488
0.0019477003
0.0021066322
0.0022501255
0.0023811361
0.0025012636
0.0026113546
0.0027122056
0.002804748
0.0028898697
0.0029682836
0.003040563
0.0031072168
0.0031687121
0.0032254646
0.0032778392
0.0033261624
0.0033707305
0.0034118119
0.00344965
0.0034844671
0.0035164665
0.0035458352
0.0035727456
0.003597357
0.003619817
0.0036402625
0.0036588206
0.0036756096
0.0036907394
0.0037043126
0.0037164247
0.003727165
0.0037366168
0.003744858
0.0037519617
0.0037579962
0.0037630262
0.0037671112
0.0037703106
0.0037726713
0.0037742611
0.0037750853
0.0037753012
0.0037746967
0.0037738887
0.0037721421
0.0037684723
0.00014376775
0.00014370067
0.00014363175
0.00014356222
0.00014349292
0.00014342407
0.00014335531
0.00014328586
0.00014321464
0.00014314032
0.0001430614
0.00014297629
0.00014288336
0.00014278099
0.00014266747
0.00014254104
0.00014240015
0.00014224327
0.00014206873
0.00014187478
0.00014165965
0.00014142159
0.00014115896
0.00014087025
0.00014055419
0.00014020992
0.00013983708
0.00013943571
0.00013900596
0.00013855121
0.00013807407
0.00013758085
0.00013707296
0.00013656687
0.00013605937
0.00013559825
0.00013518491
0.00013485744
0.00013456251
0.00013458907
0.00013480196
0.00013546122
0.00013676005
0.00013928315
0.00014391441
0.00015190736
0.00016574291
0.00019005454
0.0002329063
0.00030158903
0.00040568972
0.00054994451
0.00072464674
0.00091939767
0.0011217923
0.0013202247
0.0015067657
0.0016782055
0.0018350625
0.0019793147
0.0021126317
0.0022359539
0.0023499192
0.0024552335
0.0025526656
0.0026429076
0.002726537
0.0028040605
0.0028759456
0.0029426182
0.0030044596
0.0030618142
0.0031149964
0.0031642932
0.0032099671
0.0032522594
0.0032913924
0.0033275711
0.0033609855
0.0033918111
0.0034202112
0.0034463371
0.0034703296
0.0034923197
0.0035124297
0.0035307735
0.0035474576
0.0035625815
0.0035762384
0.003588516
0.0035994956
0.0036092566
0.0036178657
0.0036254072
0.0036319064
0.0036375321
0.0036420831
0.0036462872
0.0036488174
0.0036521414
0.00014382031
0.00014375357
0.00014368431
0.00014361309
0.00014354045
0.00014346672
0.00014339198
0.0001433161
0.00014323871
0.00014315921
0.0001430768
0.00014299056
0.00014289947
0.00014280243
0.0001426983
0.0001425859
0.00014246406
0.00014233163
0.00014218744
0.00014203031
0.00014185903
0.00014167235
0.00014146905
0.00014124791
0.00014100777
0.00014074757
0.00014046643
0.00014016368
0.0001398387
0.00013949155
0.00013912262
0.0001387333
0.00013832436
0.00013789944
0.00013745967
0.00013701355
0.00013656677
0.00013613085
0.00013569778
0.00013531511
0.00013498421
0.00013473972
0.00013455829
0.00013461249
0.00013487945
0.00013556445
0.00013689778
0.00013925432
0.00014346685
0.00015071059
0.00016307327
0.00018425508
0.00022143676
0.00028131205
0.00037328272
0.00049922288
0.00065283202
0.00082558862
0.0010069863
0.0011871286
0.0013592069
0.0015203789
0.0016706007
0.0018107577
0.0019415557
0.0020634453
0.0021768987
0.0022824906
0.0023808007
0.0024723456
0.0025575912
0.0026369736
0.0027108982
0.0027797359
0.0028438277
0.0029034887
0.0029590097
0.0030106595
0.0030586869
0.0031033224
0.0031447799
0.003183258
0.0032189412
0.0032520015
0.003282599
0.003310883
0.0033369928
0.0033610589
0.0033832031
0.0034035399
0.0034221756
0.0034392129
0.0034547411
0.0034688637
0.003481629
0.003493219
0.0035034446
0.003513154
0.0035203792
0.0035313344
0.0001438798
0.0001438136
0.00014374486
0.00014367385
0.00014360083
0.00014352595
0.00014344932
0.00014337095
0.00014329077
0.00014320855
0.00014312394
0.00014303647
0.00014294554
0.00014285047
0.00014275052
0.00014264488
0.00014253271
0.00014241315
0.0001422853
0.00014214829
0.00014200121
0.00014184312
0.00014167308
0.00014149013
0.00014129332
0.00014108171
0.00014085444
0.00014061069
0.00014034972
0.00014007094
0.00013977394
0.00013945868
0.00013912517
0.00013877412
0.00013840605
0.00013802295
0.00013762713
0.00013722306
0.00013681064
0.00013639912
0.00013599381
0.0001356066
0.00013523714
0.00013491586
0.00013465824
0.00013444626
0.00013443496
0.00013454893
0.00013494737
0.00013580353
0.00013735623
0.0001399789
0.0001445392
0.00015226827
0.00016532834
0.00018770469
0.00022573785
0.00028601963
0.00037700685
0.00049629714
0.00063946936
0.00079887517
0.00096519252
0.0011302803
0.0012890996
0.0014397086
0.0015818679
0.0017157517
0.0018415189
0.0019594008
0.0020697641
0.0021730357
0.002269631
0.0023599465
0.0024443666
0.0025232581
0.0025969655
0.0026658123
0.0027301013
0.0027901156
0.0028461197
0.0028983604
0.0029470682
0.0029924582
0.0030347314
0.0030740756
0.0031106666
0.0031446686
0.0031762355
0.0032055116
0.0032326317
0.0032577243
0.0032809046
0.0033022975
0.003321977
0.0033401411
0.0033566123
0.003372373
0.0033847557
0.0034040581
0.00014394573
0.00014388013
0.00014381209
0.00014374178
0.00014366931
0.00014359472
0.00014351803
0.00014343924
0.00014335831
0.00014327515
0.00014318962
0.00014310147
0.0001430104
0.00014291603
0.00014281789
0.00014271547
0.00014260821
0.00014249548
0.00014237663
0.00014225099
0.00014211786
0.00014197652
0.00014182622
0.00014166619
0.00014149566
0.00014131385
0.00014111999
0.00014091332
0.0001406931
0.00014045867
0.00014020941
0.00013994482
0.00013966452
0.00013936834
0.00013905621
0.00013872847
0.00013838572
0.00013802953
0.00013766064
0.00013728152
0.00013689478
0.00013650509
0.00013611447
0.0001357301
0.00013536125
0.00013500478
0.00013469666
0.00013443626
0.00013424331
0.0001341427
0.00013420942
0.00013449219
0.0001351185
0.0001362866
0.00013828069
0.00014161167
0.00014724817
0.00015666777
0.00017235594
0.00019931536
0.00024309352
0.00031159372
0.00040657171
0.00052623969
0.0006655737
0.00081678075
0.00097178599
0.0011245966
0.0012720475
0.0014129307
0.0015468277
0.0016735524
0.0017930958
0.001905629
0.0020114239
0.0021107846
0.0022040282
0.0022914779
0.0023734533
0.0024502638
0.0025222059
0.0025895625
0.0026526017
0.0027115769
0.0027667271
0.0028182773
0.0028664392
0.0029114117
0.002953382
0.0029925258
0.0030290081
0.0030629855
0.003094601
0.0031240031
0.0031512937
0.0031766895
0.0032000237
0.0032224275
0.0032404704
0.0032689055
0.00014401745
0.00014395254
0.00014388527
0.00014381579
0.00014374414
0.00014367033
0.0001435943
0.00014351602
0.00014343544
0.00014335247
0.00014326701
0.00014317894
0.00014308807
0.0001429942
0.00014289705
0.00014279632
0.00014269165
0.00014258263
0.00014246881
0.00014234968
0.00014222474
0.00014209342
0.00014195514
0.0001418093
0.00014165525
0.00014149236
0.00014131996
0.00014113739
0.000140944
0.00014073914
0.00014052218
0.00014029252
0.00014004963
0.00013979305
0.00013952242
0.00013923748
0.00013893818
0.00013862482
0.00013829772
0.00013795761
0.00013760553
0.00013724332
0.00013687251
0.00013649557
0.00013611669
0.0001357366
0.00013536448
0.00013500579
0.00013466634
0.00013435751
0.00013409743
0.00013390322
0.00013378288
0.00013382762
0.00013406438
0.0001345903
0.00013557845
0.00013728073
0.00014004988
0.00014468563
0.00015235775
0.00016509509
0.00018649889
0.00022156908
0.00027702702
0.00035637365
0.00045952236
0.00058335058
0.00072147047
0.00086640323
0.0010120198
0.0011546014
0.0012923209
0.0014242864
0.0015500083
0.0016692722
0.0017820837
0.0018885787
0.0019889582
0.0020834623
0.0021723536
0.0022559036
0.0023343841
0.0024080625
0.0024771985
0.0025420422
0.0026028328
0.0026597984
0.0027131554
0.0027631091
0.0028098535
0.0028535732
0.0028944393
0.0029326248
0.0029682603
0.0030015833
0.0030324361
0.0030621139
0.0030863548
0.0031247692
0.00014409431
0.00014403015
0.00014396372
0.00014389513
0.00014382441
0.00014375154
0.00014367644
0.00014359906
0.00014351932
0.00014343712
0.00014335237
0.00014326497
0.00014317477
0.00014308164
0.00014298543
0.00014288592
0.0001427829
0.00014267612
0.00014256527
0.00014245001
0.00014232998
0.00014220477
0.00014207393
0.000141937
0.00014179346
0.00014164279
0.00014148444
0.00014131786
0.00014114247
0.00014095769
0.00014076294
0.00014055765
0.00014034126
0.00014011322
0.00013987304
0.0001396203
0.00013935461
0.0001390758
0.00013878374
0.00013847853
0.0001381604
0.00013782997
0.00013748798
0.00013713543
0.00013677413
0.00013640515
0.00013603147
0.00013565638
0.00013528306
0.00013491585
0.0001345615
0.00013422806
0.00013392248
0.00013366608
0.00013347652
0.00013335792
0.00013339872
0.00013362511
0.00013412277
0.00013504696
0.00013662605
0.0001392051
0.00014342676
0.00015033943
0.00016170352
0.00018054118
0.00021129622
0.00026011416
0.00033028961
0.00042296027
0.00053607159
0.00066420217
0.00080053653
0.00093923553
0.0010764963
0.0012101996
0.0013391564
0.0014626663
0.0015803677
0.0016921422
0.0017980198
0.001898119
0.0019926148
0.0020817173
0.0021656552
0.0022446659
0.0023189891
0.0023888618
0.0024545157
0.0025161751
0.0025740557
0.0026283649
0.0026792985
0.0027270521
0.0027717835
0.0028137516
0.0028528044
0.0028904155
0.002921419
0.0029707101
0.00014417564
0.00014411231
0.00014404677
0.00014397913
0.0001439094
0.00014383754
0.00014376349
0.00014368716
0.00014360847
0.00014352732
0.00014344362
0.00014335724
0.00014326808
0.00014317601
0.0001430809
0.00014298262
0.00014288101
0.00014277592
0.00014266713
0.00014255444
0.00014243757
0.00014231626
0.00014219018
0.00014205896
0.00014192223
0.00014177956
0.00014163053
0.00014147466
0.00014131148
0.00014114049
0.00014096117
0.00014077301
0.00014057548
0.00014036806
0.00014015021
0.00013992146
0.00013968132
0.0001394294
0.00013916537
0.00013888898
0.00013860009
0.00013829873
0.00013798508
0.00013765947
0.00013732258
0.00013697504
0.00013661801
0.0001362531
0.0001358821
0.00013550711
0.00013513111
0.00013475807
0.00013439159
0.000134039
0.00013370938
0.00013340941
0.00013315969
0.00013297715
0.00013288404
0.00013292638
0.00013316649
0.00013368837
0.00013463218
0.00013622295
0.00013880051
0.00014296311
0.000149708
0.00016072248
0.00017881123
0.0002081038
0.00025399039
0.00031965824
0.00040668672
0.0005133132
0.00063457637
0.00076424808
0.00089698081
0.0010291691
0.0011586423
0.0012840821
0.0014046844
0.001520006
0.0016298503
0.0017341769
0.0018330458
0.001926584
0.0020149602
0.002098369
0.0021770189
0.0022511256
0.0023209057
0.0023865745
0.0024483413
0.0025064162
0.0025609783
0.0026123043
0.0026602427
0.0027064577
0.0027448009
0.0028059009
0.0001442608
0.00014419835
0.00014413375
0.00014406711
0.00014399841
0.00014392762
0.00014385467
0.00014377947
0.00014370194
0.00014362198
0.00014353948
0.00014345434
0.00014336642
0.00014327563
0.00014318183
0.00014308492
0.00014298477
0.00014288126
0.00014277424
0.00014266356
0.00014254905
0.0001424305
0.00014230769
0.00014218036
0.00014204821
0.00014191094
0.0001417682
0.00014161962
0.00014146482
0.00014130337
0.00014113485
0.0001409588
0.00014077476
0.00014058224
0.00014038075
0.00014016981
0.00013994892
0.00013971763
0.00013947549
0.00013922213
0.0001389572
0.00013868046
0.00013839176
0.00013809105
0.00013777843
0.00013745413
0.00013711854
0.00013677234
0.00013641641
0.00013605184
0.00013568004
0.00013530302
0.00013492281
0.00013454253
0.00013416667
0.00013379909
0.00013344743
0.00013312048
0.00013283063
0.00013258969
0.00013241945
0.00013234976
0.00013242539
0.00013271021
0.00013329483
0.00013432257
0.00013602279
0.00013875991
0.00014314757
0.00015021031
0.00016160678
0.00018020373
0.0002100862
0.00025573147
0.00032039751
0.00040546174
0.00050890573
0.00062587184
0.00075065237
0.00087847975
0.0010060931
0.0011314235
0.0012531546
0.0013704694
0.0014829006
0.0015902159
0.001692337
0.0017892895
0.0018811684
0.0019681138
0.0020502948
0.0021278982
0.00220112
0.0022701653
0.0023352189
0.0023965659
0.0024540436
0.0025095156
0.0025557649
0.0026296146
0.00014434916
0.00014428764
0.00014422402
0.00014415842
0.0001440908
0.00014402112
0.00014394931
0.00014387529
0.00014379898
0.00014372027
0.00014363907
0.00014355525
0.00014346871
0.00014337933
0.00014328699
0.00014319158
0.000143093
0.00014299112
0.00014288584
0.00014277703
0.00014266456
0.00014254828
0.00014242803
0.00014230361
0.00014217482
0.00014204141
0.00014190312
0.00014175968
0.00014161077
0.00014145605
0.00014129518
0.00014112777
0.00014095342
0.00014077172
0.00014058223
0.00014038449
0.00014017805
0.00013996243
0.00013973719
0.00013950189
0.00013925611
0.00013899948
0.00013873167
0.00013845242
0.00013816156
0.00013785899
0.00013754472
0.00013721893
0.00013688192
0.00013653416
0.00013617632
0.00013580933
0.00013543432
0.00013505279
0.00013466696
0.00013427911
0.00013389269
0.00013351209
0.00013314336
0.00013279257
0.00013247003
0.00013218795
0.00013196206
0.0001318148
0.00013178203
0.00013190983
0.00013226721
0.00013295629
0.00013413521
0.00013605803
0.00013911194
0.00014398947
0.000151808
0.00016435061
0.00018461473
0.00021662944
0.00026427782
0.00033070047
0.00041654069
0.00051917391
0.00063371518
0.00075497303
0.00087879605
0.0010023295
0.0011236959
0.0012416731
0.001355496
0.0014647163
0.0015691001
0.0016685582
0.0017631015
0.0018528075
0.0019377996
0.0020182337
0.0020942678
0.0021661713
0.0022337492
0.0022990657
0.002353741
0.0024412463
0.00014444013
0.00014437958
0.00014431698
0.00014425244
0.00014418592
0.00014411739
0.00014404676
0.00014397396
0.0001438989
0.0001438215
0.00014374164
0.00014365921
0.00014357411
0.00014348622
0.00014339542
0.00014330161
0.00014320468
0.00014310452
0.00014300103
0.00014289409
0.00014278359
0.00014266942
0.00014255143
0.0001424295
0.00014230344
0.00014217307
0.00014203821
0.00014189863
0.00014175408
0.0001416043
0.00014144902
0.00014128792
0.00014112066
0.00014094691
0.00014076627
0.00014057835
0.00014038273
0.000140179
0.00013996671
0.00013974543
0.00013951473
0.00013927418
0.00013902339
0.000138762
0.00013848967
0.00013820614
0.00013791121
0.00013760474
0.00013728671
0.00013695721
0.00013661643
0.00013626475
0.00013590268
0.00013553094
0.0001351506
0.00013476292
0.00013436965
0.00013397304
0.00013357621
0.00013318261
0.00013279713
0.00013242597
0.00013207653
0.00013176155
0.00013149233
0.00013128818
0.00013117597
0.00013119523
0.00013139809
0.00013186545
0.00013271017
0.00013411849
0.00013638418
0.00013995803
0.00014564971
0.00015469371
0.0001692085
0.00019234687
0.00022790127
0.00027964734
0.00035000791
0.00043855033
0.00054189912
0.00065520384
0.00077384494
0.00089429563
0.0010141192
0.0011316792
0.0012459023
0.0013561134
0.0014619131
0.0015630901
0.0016595655
0.0017513522
0.0018385118
0.0019212475
0.0019992909
0.0020748927
0.0021384081
0.0022403683
0.00014453315
0.00014447359
0.00014441204
0.00014434858
0.00014428319
0.00014421582
0.0001441464
0.00014407485
0.00014400108
0.000143925
0.00014384651
0.00014376552
0.00014368189
0.00014359554
0.00014350634
0.00014341419
0.00014331897
0.00014322059
0.00014311894
0.00014301391
0.0001429054
0.00014279331
0.00014267751
0.00014255789
0.0001424343
0.0001423066
0.00014217463
0.00014203822
0.00014189717
0.00014175127
0.0001416003
0.00014144401
0.00014128213
0.00014111436
0.0001409404
0.00014075989
0.00014057249
0.0001403778
0.00014017545
0.00013996502
0.00013974611
0.00013951829
0.00013928115
0.00013903429
0.00013877733
0.00013850989
0.00013823166
0.00013794236
0.00013764175
0.0001373297
0.00013700611
0.00013667102
0.00013632455
0.00013596697
0.00013559871
0.00013522039
0.00013483287
0.0001344373
0.0001340353
0.00013362883
0.00013322045
0.00013281348
0.00013241189
0.00013202184
0.00013164967
0.00013130469
0.00013100008
0.00013075103
0.00013057853
0.0001305174
0.00013060971
0.00013091843
0.00013153938
0.00013260817
0.00013435448
0.00013711604
0.00014147157
0.00014836359
0.00015931409
0.00017674687
0.00020397638
0.00024479347
0.00030253791
0.00037845588
0.00047082258
0.0005756461
0.00068829672
0.0008047993
0.00092222664
0.0010385473
0.0011523882
0.0012628488
0.0013693641
0.0014716014
0.0015693795
0.0016627307
0.0017512313
0.0018372756
0.0019098384
0.0020268302
0.00014462767
0.00014456913
0.00014450864
0.00014444629
0.00014438204
0.00014431586
0.00014424766
0.00014417737
0.0001441049
0.00014403018
0.00014395309
0.00014387354
0.00014379142
0.00014370663
0.00014361905
0.00014352859
0.00014343512
0.00014333856
0.00014323879
0.00014313571
0.00014302923
0.00014291923
0.00014280562
0.00014268826
0.00014256706
0.00014244186
0.00014231255
0.00014217897
0.00014204097
0.00014189837
0.00014175099
0.00014159862
0.00014144104
0.00014127802
0.00014110928
0.00014093455
0.00014075351
0.00014056585
0.00014037122
0.00014016925
0.00013995958
0.00013974182
0.00013951556
0.00013928041
0.00013903598
0.00013878187
0.00013851769
0.0001382431
0.00013795776
0.00013766139
0.00013735374
0.00013703463
0.00013670395
0.00013636166
0.00013600785
0.0001356427
0.00013526658
0.00013488
0.00013448374
0.00013407884
0.00013366668
0.00013324906
0.00013282821
0.0001324073
0.00013199001
0.00013158115
0.00013118751
0.00013081701
0.00013048182
0.00013019459
0.00012997471
0.00012984909
0.00012985811
0.00013005211
0.00013050982
0.00013134378
0.00013273173
0.00013495109
0.00013844078
0.0001439242
0.00015256442
0.00016627738
0.00018783449
0.00022076031
0.00026870814
0.00033401208
0.00041638879
0.00051291707
0.00061931155
0.00073140277
0.00084589143
0.00096039917
0.0010732786
0.0011834188
0.0012900858
0.0013929214
0.0014911824
0.0015873051
0.0016687411
0.001800923
0.00014472321
0.0001446657
0.00014460628
0.00014454504
0.00014448195
0.00014441696
0.00014434999
0.00014428098
0.00014420983
0.00014413646
0.00014406079
0.0001439827
0.0001439021
0.00014381888
0.00014373295
0.00014364418
0.00014355249
0.00014345776
0.00014335989
0.00014325879
0.00014315435
0.00014304647
0.00014293505
0.00014281997
0.00014270112
0.00014257838
0.00014245164
0.00014232075
0.00014218558
0.00014204598
0.0001419018
0.00014175285
0.00014159897
0.00014143993
0.00014127552
0.00014110551
0.00014092963
0.0001407476
0.00014055914
0.00014036391
0.0001401616
0.00013995186
0.00013973432
0.00013950862
0.00013927436
0.00013903117
0.00013877865
0.00013851642
0.00013824411
0.00013796137
0.00013766785
0.00013736326
0.00013704734
0.00013671989
0.00013638075
0.00013602987
0.00013566727
0.0001352931
0.00013490764
0.00013451135
0.00013410492
0.00013368928
0.00013326563
0.00013283569
0.00013240153
0.00013196582
0.00013153226
0.00013110529
0.00013069126
0.00013029728
0.0001299335
0.00012961292
0.00012935285
0.00012917604
0.00012911869
0.00012922523
0.00012956162
0.00013022577
0.00013136132
0.00013319864
0.00013608998
0.00014062241
0.00014773459
0.0001589644
0.00017663504
0.0002039272
0.00024448317
0.00030124442
0.00037502372
0.00046394481
0.0005642646
0.00067183578
0.00078312429
0.00089547559
0.0010069938
0.0011164806
0.0012225396
0.0013274298
0.0014168773
0.0015636582
0.0001448193
0.00014476283
0.00014470449
0.00014464437
0.00014458244
0.00014451864
0.00014445291
0.00014438517
0.00014431534
0.00014424334
0.00014416908
0.00014409246
0.00014401338
0.00014393175
0.00014384745
0.00014376039
0.00014367047
0.00014357758
0.00014348163
0.00014338251
0.00014328012
0.00014317437
0.00014306514
0.00014295234
0.00014283584
0.00014271555
0.00014259133
0.00014246308
0.00014233065
0.00014219392
0.00014205275
0.00014190697
0.00014175644
0.00014160097
0.00014144037
0.00014127443
0.00014110294
0.00014092565
0.00014074231
0.00014055265
0.00014035638
0.00014015319
0.00013994277
0.00013972477
0.00013949884
0.00013926462
0.00013902175
0.00013876983
0.0001385085
0.00013823737
0.00013795608
0.00013766426
0.00013736158
0.00013704774
0.00013672245
0.00013638549
0.0001360367
0.00013567597
0.00013530329
0.00013491877
0.00013452265
0.00013411533
0.0001336974
0.00013326971
0.0001328334
0.00013238995
0.0001319414
0.0001314903
0.00013104013
0.00013059507
0.00013016058
0.00012974379
0.00012935374
0.00012900348
0.00012870793
0.0001284882
0.00012837669
0.00012841431
0.00012865763
0.00012919329
0.00013014497
0.00013170725
0.00013417886
0.00013805248
0.00014411741
0.00015364897
0.00016863827
0.00019192823
0.0002270094
0.00027710701
0.00034379349
0.00042608304
0.00052083188
0.00062406265
0.00073211593
0.00084225114
0.00095180615
0.001062425
0.0011577808
0.0013172366
0.00014491552
0.00014486009
0.00014480283
0.00014474382
0.00014468305
0.00014462044
0.00014455594
0.00014448948
0.00014442097
0.00014435033
0.00014427748
0.00014420233
0.00014412477
0.00014404471
0.00014396206
0.0001438767
0.00014378855
0.00014369749
0.00014360345
0.0001435063
0.00014340596
0.00014330233
0.00014319529
0.00014308476
0.00014297062
0.00014285275
0.00014273105
0.0001426054
0.00014247567
0.00014234175
0.00014220349
0.00014206076
0.0001419134
0.00014176126
0.00014160417
0.00014144195
0.00014127439
0.0001411013
0.00014092244
0.00014073757
0.00014054645
0.00014034881
0.00014014436
0.0001399328
0.00013971383
0.00013948709
0.00013925227
0.00013900899
0.0001387569
0.00013849563
0.00013822479
0.00013794402
0.00013765295
0.00013735121
0.00013703847
0.00013671441
0.00013637874
0.00013603122
0.00013567166
0.00013529993
0.000134916
0.00013451994
0.00013411193
0.00013369234
0.00013326168
0.00013282073
0.00013237056
0.0001319126
0.00013144878
0.00013098155
0.00013051402
0.00013005025
0.00012959536
0.00012915646
0.00012874188
0.00012836405
0.00012803657
0.00012778023
0.00012762288
0.00012760357
0.00012777335
0.00012820954
0.00012902291
0.00013038545
0.00013256208
0.00013597646
0.00014131031
0.00014966751
0.00016279171
0.00018324823
0.00021433152
0.00025936288
0.00032040176
0.00039715791
0.00048702443
0.00058639941
0.000690956
0.00080112634
0.00089803837
0.0010658637
0.00014501148
0.0001449571
0.00014490091
0.00014484301
0.00014478338
0.00014472196
0.00014465869
0.00014459349
0.00014452629
0.00014445701
0.00014438556
0.00014431186
0.00014423581
0.00014415732
0.00014407629
0.00014399263
0.00014390623
0.000143817
0.00014372484
0.00014362966
0.00014353135
0.00014342982
0.00014332497
0.00014321669
0.00014310488
0.00014298943
0.00014287022
0.00014274715
0.0001426201
0.00014248894
0.00014235354
0.00014221378
0.0001420695
0.00014192058
0.00014176684
0.00014160812
0.00014144424
0.00014127501
0.00014110023
0.00014091968
0.00014073315
0.00014054039
0.00014034115
0.00014013517
0.00013992216
0.00013970183
0.00013947386
0.00013923794
0.00013899371
0.00013874084
0.00013847896
0.0001382077
0.0001379267
0.00013763558
0.00013733397
0.00013702151
0.00013669786
0.00013636269
0.00013601569
0.00013565662
0.00013528527
0.00013490149
0.00013450522
0.00013409648