/*--------------------------------*- C++ -*----------------------------------*\
  =========                 |
  \\      /  F ield         | OpenFOAM: The Open Source CFD Toolbox
   \\    /   O peration     | Website:  https://openfoam.org
    \\  /    A nd           | Version:  12
     \\/     M anipulation  |
\*---------------------------------------------------------------------------*/
FoamFile
{
    format      ascii;
    class       volScalarField;
    location    "500";
    object      nut;
}
// * * * * * * * * * * * * * * * * * * * * * * * * * * * * * * * * * * * * * //

dimensions      [0 2 -1 0 0 0 0];

internalField   nonuniform List<scalar> 
7480
(
1.2463736e-06
1.5023151e-06
1.8222793e-06
2.1961846e-06
2.6223941e-06
3.0975709e-06
3.614108e-06
4.1595075e-06
4.716913e-06
5.2661231e-06
5.7855454e-06
6.2559716e-06
6.6626547e-06
6.9966998e-06
7.2551341e-06
7.4413261e-06
7.557575e-06
7.6373708e-06
7.6350566e-06
7.613687e-06
7.5657265e-06
7.4984859e-06
7.4188525e-06
7.3328345e-06
7.2456379e-06
7.1617927e-06
7.0852157e-06
7.0191125e-06
6.9658596e-06
6.9266319e-06
6.9008806e-06
6.8861431e-06
6.8784177e-06
6.8732132e-06
6.866855e-06
6.8573068e-06
6.8442053e-06
6.8282953e-06
6.8106471e-06
6.7920643e-06
6.7728947e-06
6.7531704e-06
6.7328709e-06
6.7120997e-06
6.6910852e-06
6.6700726e-06
6.6492252e-06
6.628604e-06
6.6082139e-06
6.5880536e-06
6.568131e-06
6.5484514e-06
6.5290175e-06
6.5098254e-06
6.4908685e-06
6.472142e-06
6.4536422e-06
6.4353626e-06
6.4172962e-06
6.3994424e-06
6.3817956e-06
6.3643458e-06
6.3470849e-06
6.3300077e-06
6.3131096e-06
6.2963869e-06
6.2798359e-06
6.2634521e-06
6.2472317e-06
6.2311707e-06
6.215265e-06
6.1995109e-06
6.1839054e-06
6.1684444e-06
6.1531246e-06
6.1379426e-06
6.1228955e-06
6.1079804e-06
6.0931941e-06
6.0785339e-06
6.063997e-06
6.0495808e-06
6.0352826e-06
6.0210997e-06
6.0070297e-06
5.99307e-06
5.9792179e-06
5.9654707e-06
5.9518257e-06
5.9382794e-06
5.9248294e-06
5.9114693e-06
5.8982009e-06
5.8849994e-06
5.8719014e-06
5.8587701e-06
5.8458833e-06
5.832369e-06
5.8208534e-06
5.7997054e-06
2.190091e-05
1.1424111e-05
7.1535167e-06
4.8021476e-06
3.3337333e-06
2.3830247e-06
1.7761006e-06
1.4067482e-06
1.2014198e-06
1.1120731e-06
1.1120892e-06
1.1752411e-06
1.2811956e-06
1.4199135e-06
1.5833667e-06
1.7647294e-06
1.9602859e-06
2.1674407e-06
2.3918438e-06
2.6426126e-06
2.9359023e-06
3.3050655e-06
3.7744486e-06
4.3114068e-06
4.9134136e-06
5.5847943e-06
6.3237462e-06
7.1299311e-06
7.9892204e-06
8.8678047e-06
9.721832e-06
1.0507095e-05
1.1187554e-05
1.1750057e-05
1.220761e-05
1.2586759e-05
1.2914512e-05
1.3208963e-05
1.3476295e-05
1.3714872e-05
1.3922252e-05
1.4099852e-05
1.4253528e-05
1.4390706e-05
1.4516993e-05
1.4635004e-05
1.4745091e-05
1.4846967e-05
1.4941077e-05
1.5028495e-05
1.5110196e-05
1.5186739e-05
1.5258336e-05
1.5325186e-05
1.5387608e-05
1.5445928e-05
1.5500366e-05
1.5551079e-05
1.559828e-05
1.5642271e-05
1.5683073e-05
1.5720761e-05
1.5755474e-05
1.5787353e-05
1.5816537e-05
1.5843157e-05
1.586732e-05
1.5889135e-05
1.5908708e-05
1.5926129e-05
1.5941496e-05
1.5954903e-05
1.5966426e-05
1.5976154e-05
1.5984174e-05
1.5990568e-05
1.5995409e-05
1.5998768e-05
1.6000716e-05
1.6001318e-05
1.6000637e-05
1.5998735e-05
1.5995669e-05
1.5991494e-05
1.5986264e-05
1.5980029e-05
1.5972837e-05
1.5964734e-05
1.5955764e-05
1.5945966e-05
1.5935381e-05
1.592406e-05
1.5912014e-05
1.5899351e-05
1.5885926e-05
1.587221e-05
1.5857285e-05
1.5842629e-05
1.5828483e-05
1.5800062e-05
7.7507896e-05
5.4708367e-05
3.9425179e-05
2.9335157e-05
2.2223259e-05
1.6945573e-05
1.2931093e-05
9.8684526e-06
7.5536162e-06
5.824793e-06
4.5449827e-06
3.5966124e-06
2.8886581e-06
2.3572779e-06
1.9573367e-06
1.6553603e-06
1.4283451e-06
1.2568975e-06
1.1291506e-06
1.0360704e-06
9.7113487e-07
9.3262245e-07
9.1386527e-07
9.5539701e-07
1.0688497e-06
1.2590204e-06
1.5389451e-06
1.8992449e-06
2.3565638e-06
2.9568813e-06
3.7879497e-06
4.82517e-06
6.0165228e-06
7.3081175e-06
8.651353e-06
9.975104e-06
1.1210083e-05
1.2310962e-05
1.3265032e-05
1.4088753e-05
1.4815148e-05
1.547719e-05
1.6096086e-05
1.6678327e-05
1.7221461e-05
1.772219e-05
1.8181811e-05
1.8606565e-05
1.9003541e-05
1.9377529e-05
1.9730543e-05
2.0063416e-05
2.0377317e-05
2.0674001e-05
2.0955182e-05
2.1222073e-05
2.14755e-05
2.1716218e-05
2.1944971e-05
2.216228e-05
2.2368866e-05
2.256533e-05
2.2752199e-05
2.2929942e-05
2.3098981e-05
2.3259701e-05
2.3412457e-05
2.3557579e-05
2.3695379e-05
2.3826147e-05
2.3950161e-05
2.4067688e-05
2.417898e-05
2.4284279e-05
2.4383821e-05
2.4477832e-05
2.4566528e-05
2.4650117e-05
2.4728799e-05
2.4802765e-05
2.4872202e-05
2.4937288e-05
2.4998195e-05
2.5055088e-05
2.5108127e-05
2.5157463e-05
2.5203243e-05
2.524561e-05
2.5284699e-05
2.5320658e-05
2.5353604e-05
2.5383673e-05
2.5410936e-05
2.543564e-05
2.5457584e-05
2.5477691e-05
2.5494189e-05
2.5511434e-05
2.5520978e-05
2.5537095e-05
9.8642886e-05
8.9639783e-05
7.8455864e-05
6.7581704e-05
5.7880499e-05
4.9439166e-05
4.2128135e-05
3.5807612e-05
3.0371733e-05
2.5737527e-05
2.182689e-05
1.855361e-05
1.582642e-05
1.3559562e-05
1.1678069e-05
1.0116417e-05
8.820535e-06
7.7423405e-06
6.8425508e-06
6.087268e-06
5.4477017e-06
4.8976595e-06
4.4138981e-06
3.9794408e-06
3.5815948e-06
3.2121352e-06
2.8677755e-06
2.5421041e-06
2.2418452e-06
1.9805451e-06
1.7736377e-06
1.6486499e-06
1.7083217e-06
1.9856798e-06
2.4439225e-06
3.1186907e-06
4.0905674e-06
5.3730336e-06
6.8472451e-06
8.4307003e-06
1.003971e-05
1.1583309e-05
1.2999374e-05
1.4266043e-05
1.5398203e-05
1.6430671e-05
1.739699e-05
1.8315883e-05
1.9190369e-05
2.0016475e-05
2.0792416e-05
2.1521969e-05
2.221184e-05
2.2867589e-05
2.3492077e-05
2.4086683e-05
2.4652969e-05
2.519302e-05
2.5708839e-05
2.6201857e-05
2.6673254e-05
2.7124184e-05
2.7555773e-05
2.796902e-05
2.836479e-05
2.8743878e-05
2.9107015e-05
2.9454874e-05
2.9788078e-05
3.0107202e-05
3.0412793e-05
3.0705367e-05
3.0985408e-05
3.1253376e-05
3.1509712e-05
3.1754836e-05
3.1989151e-05
3.2213044e-05
3.2426887e-05
3.263104e-05
3.2825847e-05
3.3011641e-05
3.3188744e-05
3.3357465e-05
3.3518102e-05
3.3670943e-05
3.3816267e-05
3.3954343e-05
3.408543e-05
3.4209792e-05
3.4327667e-05
3.4439312e-05
3.4544898e-05
3.4644814e-05
3.4738868e-05
3.4828372e-05
3.4910726e-05
3.4993896e-05
3.5055305e-05
3.5164879e-05
0.00010269653
0.00010052741
9.6550131e-05
9.1164819e-05
8.4976128e-05
7.847693e-05
7.1982422e-05
6.5675843e-05
5.9665524e-05
5.4021021e-05
4.8788855e-05
4.3995289e-05
3.9646552e-05
3.5732421e-05
3.223206e-05
2.9117348e-05
2.6356824e-05
2.3916858e-05
2.1763035e-05
1.9862468e-05
1.8184053e-05
1.6697235e-05
1.5373065e-05
1.4184014e-05
1.3104541e-05
1.2110301e-05
1.117844e-05
1.0286511e-05
9.4101301e-06
8.5390717e-06
7.6346381e-06
6.7338507e-06
5.8169865e-06
4.9530267e-06
4.1623892e-06
3.489718e-06
2.9688779e-06
2.6239905e-06
2.6177711e-06
2.9098704e-06
3.4961108e-06
4.4294357e-06
5.7585417e-06
7.339831e-06
9.0728088e-06
1.0851041e-05
1.2574257e-05
1.4180776e-05
1.5654874e-05
1.7016129e-05
1.8296655e-05
1.9520371e-05
2.0695098e-05
2.1818318e-05
2.2887361e-05
2.3904609e-05
2.4875751e-05
2.5805759e-05
2.6697321e-05
2.7551981e-05
2.8371541e-05
2.9158153e-05
2.9913758e-05
3.0639893e-05
3.1337913e-05
3.2009121e-05
3.2654729e-05
3.3275817e-05
3.3873375e-05
3.4448323e-05
3.5001524e-05
3.5533781e-05
3.6045848e-05
3.6538433e-05
3.7012209e-05
3.7467813e-05
3.7905858e-05
3.8326928e-05
3.8731583e-05
3.9120365e-05
3.9493793e-05
3.9852367e-05
4.0196573e-05
4.0526877e-05
4.084373e-05
4.114757e-05
4.143882e-05
4.1717891e-05
4.1985181e-05
4.2241086e-05
4.2485975e-05
4.2720243e-05
4.2944176e-05
4.3158314e-05
4.3362498e-05
4.3558444e-05
4.3742547e-05
4.3927604e-05
4.4070591e-05
4.4325697e-05
0.00010380619
0.00010325937
0.00010213413
0.00010025645
9.7610686e-05
9.4298488e-05
9.0471121e-05
8.628181e-05
8.1864462e-05
7.7331342e-05
7.2776312e-05
6.8277533e-05
6.3898209e-05
5.968703e-05
5.5678754e-05
5.1896491e-05
4.8354327e-05
4.5057487e-05
4.2004425e-05
3.9188307e-05
3.6598529e-05
3.4221289e-05
3.2040506e-05
3.0038133e-05
2.8194629e-05
2.6489394e-05
2.4901378e-05
2.3408356e-05
2.1986814e-05
2.0618613e-05
1.9276258e-05
1.7936691e-05
1.6571893e-05
1.5177774e-05
1.3711383e-05
1.22417e-05
1.0715677e-05
9.1819402e-06
7.7218477e-06
6.3987594e-06
5.2714592e-06
4.4037497e-06
3.8004463e-06
3.6473807e-06
3.8767311e-06
4.4978866e-06
5.5742658e-06
7.0528292e-06
8.783283e-06
1.0659338e-05
1.2559759e-05
1.4396384e-05
1.6128346e-05
1.7757814e-05
1.9308368e-05
2.0801057e-05
2.2243159e-05
2.3632239e-05
2.496588e-05
2.624624e-05
2.7477926e-05
2.8664549e-05
2.9808062e-05
3.0910035e-05
3.1972388e-05
3.2997087e-05
3.398579e-05
3.4939918e-05
3.5860824e-05
3.6749797e-05
3.7608016e-05
3.8436569e-05
3.9236478e-05
4.0008703e-05
4.0754147e-05
4.1473667e-05
4.2168077e-05
4.2838157e-05
4.3484653e-05
4.4108283e-05
4.4709735e-05
4.5289675e-05
4.5848744e-05
4.6387564e-05
4.6906735e-05
4.740684e-05
4.7888446e-05
4.8352105e-05
4.8798352e-05
4.9227717e-05
4.9640703e-05
5.0037837e-05
5.0419529e-05
5.0786469e-05
5.113854e-05
5.147789e-05
5.1799681e-05
5.2122822e-05
5.237779e-05
5.2831036e-05
0.0001046323
0.0001043711
0.00010397636
0.00010334326
0.00010237646
0.00010101674
9.9246918e-05
9.7083905e-05
9.4567901e-05
9.1751417e-05
8.8692252e-05
8.5449365e-05
8.2080161e-05
7.8638462e-05
7.5172839e-05
7.1725697e-05
6.8333072e-05
6.5024422e-05
6.1822887e-05
5.8745628e-05
5.5804499e-05
5.3006656e-05
5.035519e-05
4.7849567e-05
4.5486149e-05
4.3257991e-05
4.1154293e-05
3.9163327e-05
3.7270966e-05
3.5462349e-05
3.3719911e-05
3.2023603e-05
3.0348732e-05
2.867578e-05
2.6978219e-05
2.5245345e-05
2.3457953e-05
2.1601615e-05
1.9646375e-05
1.7657653e-05
1.559345e-05
1.3532671e-05
1.1505168e-05
9.6237237e-06
7.9429669e-06
6.5579826e-06
5.5082767e-06
4.8970059e-06
4.8186332e-06
5.2006311e-06
6.0958017e-06
7.4865331e-06
9.2051716e-06
1.1140012e-05
1.3159083e-05
1.5159794e-05
1.708814e-05
1.8935914e-05
2.0718275e-05
2.2448974e-05
2.413036e-05
2.575867e-05
2.7332248e-05
2.8853385e-05
3.0325308e-05
3.1750058e-05
3.312895e-05
3.4463488e-05
3.5755371e-05
3.7006139e-05
3.8217141e-05
3.9389666e-05
4.0524949e-05
4.1624146e-05
4.268834e-05
4.3718566e-05
4.471581e-05
4.5681012e-05
4.6615074e-05
4.7518861e-05
4.8393208e-05
4.9238918e-05
5.005677e-05
5.0847516e-05
5.1611887e-05
5.2350595e-05
5.3064332e-05
5.3753775e-05
5.4419584e-05
5.506241e-05
5.5682877e-05
5.6281637e-05
5.6859213e-05
5.7416437e-05
5.7953227e-05
5.8472194e-05
5.8967041e-05
5.946396e-05
5.9861424e-05
6.0565029e-05
0.00010556754
0.00010534317
0.00010509019
0.0001047794
0.00010436624
0.00010380165
0.00010304164
0.00010205353
0.0001008186
9.9331784e-05
9.7599765e-05
9.563858e-05
9.3471298e-05
9.1125873e-05
8.8633157e-05
8.6025178e-05
8.3333722e-05
8.0589203e-05
7.7819836e-05
7.5050976e-05
7.2304774e-05
6.9600062e-05
6.6952367e-05
6.4373938e-05
6.187387e-05
5.9458162e-05
5.7129383e-05
5.4887354e-05
5.2729237e-05
5.0649918e-05
4.8642026e-05
4.6695915e-05
4.4798783e-05
4.2936701e-05
4.1093175e-05
3.9254049e-05
3.7387256e-05
3.5474126e-05
3.3491654e-05
3.1436157e-05
2.9285592e-05
2.7042934e-05
2.4689333e-05
2.2283678e-05
1.9796187e-05
1.7301237e-05
1.4846868e-05
1.2512479e-05
1.0407834e-05
8.6158547e-06
7.2192983e-06
6.3025798e-06
6.0174081e-06
6.2704154e-06
7.1229388e-06
8.5082625e-06
1.0273526e-05
1.2290935e-05
1.4423398e-05
1.6564093e-05
1.8658578e-05
2.0697089e-05
2.2687667e-05
2.4634435e-05
2.6533795e-05
2.8381417e-05
3.0176717e-05
3.1921375e-05
3.3616801e-05
3.5263835e-05
3.6863464e-05
3.8416932e-05
3.9925452e-05
4.139014e-05
4.28121e-05
4.419242e-05
4.5532146e-05
4.6832287e-05
4.8093824e-05
4.9317705e-05
5.0504847e-05
5.1656141e-05
5.2772453e-05
5.3854625e-05
5.490348e-05
5.5919819e-05
5.690443e-05
5.7858085e-05
5.8781538e-05
5.9675538e-05
6.0540806e-05
6.1378096e-05
6.2188027e-05
6.297155e-05
6.3728609e-05
6.4462287e-05
6.5164636e-05
6.5870139e-05
6.6440321e-05
6.7445667e-05
0.00010664568
0.00010642349
0.00010619117
0.00010594547
0.0001056738
0.00010535658
0.00010496951
0.00010448656
0.0001038829
0.00010313734
0.00010223388
0.00010116249
9.99193e-05
9.8506234e-05
9.6930419e-05
9.5203333e-05
9.3339855e-05
9.1357301e-05
8.9274522e-05
8.7111015e-05
8.488619e-05
8.2618789e-05
8.0326445e-05
7.8025305e-05
7.5729743e-05
7.345217e-05
7.1202758e-05
6.8989359e-05
6.6817485e-05
6.4690344e-05
6.2608936e-05
6.0572144e-05
5.8576457e-05
5.6616365e-05
5.4684012e-05
5.2771334e-05
5.0863825e-05
4.8945987e-05
4.7000536e-05
4.5013559e-05
4.2969125e-05
4.0849589e-05
3.8626221e-05
3.6299512e-05
3.3857822e-05
3.128048e-05
2.8625538e-05
2.5856696e-05
2.3028327e-05
2.01889e-05
1.7396434e-05
1.4730995e-05
1.2323466e-05
1.0271187e-05
8.6558088e-06
7.6391532e-06
7.2945218e-06
7.5849113e-06
8.5558838e-06
1.0046958e-05
1.1944119e-05
1.4097235e-05
1.6363649e-05
1.8646186e-05
2.0902762e-05
2.3125718e-05
2.5314567e-05
2.7464123e-05
2.9567759e-05
3.1622192e-05
3.3627033e-05
3.5582414e-05
3.7488331e-05
3.9345091e-05
4.1153352e-05
4.2913866e-05
4.4627411e-05
4.6294823e-05
4.7916963e-05
4.94947e-05
5.1028902e-05
5.2520432e-05
5.3970149e-05
5.5378901e-05
5.6747529e-05
5.8076863e-05
5.9367727e-05
6.0620936e-05
6.1837295e-05
6.3017607e-05
6.4162653e-05
6.527325e-05
6.6350088e-05
6.73942e-05
6.8405537e-05
6.9387649e-05
7.0330771e-05
7.127853e-05
7.2051045e-05
7.3408369e-05
0.0001078626
0.00010763937
0.00010740844
0.00010717253
0.00010692953
0.00010667396
0.00010639707
0.00010608714
0.00010573008
0.00010531057
0.00010481311
0.00010422325
0.00010352849
0.00010271902
0.00010178817
0.00010073266
9.9552536e-05
9.8250953e-05
9.6833867e-05
9.5309553e-05
9.3688099e-05
9.1980909e-05
9.0200222e-05
8.8358655e-05
8.6468766e-05
8.4542696e-05
8.2591815e-05
8.0626419e-05
7.8655491e-05
7.6686518e-05
7.4725397e-05
7.277642e-05
7.0842135e-05
6.8923398e-05
6.7019174e-05
6.512725e-05
6.3242771e-05
6.1358448e-05
5.9464597e-05
5.7550723e-05
5.5605281e-05
5.3615615e-05
5.156333e-05
4.9434616e-05
4.7216638e-05
4.4892577e-05
4.2461013e-05
3.9894199e-05
3.7188902e-05
3.4344946e-05
3.1383498e-05
2.8324622e-05
2.5208218e-05
2.2092521e-05
1.9031044e-05
1.6141962e-05
1.3551267e-05
1.1388974e-05
9.7322003e-06
8.849411e-06
8.6436145e-06
9.1893212e-06
1.0394593e-05
1.2127663e-05
1.4243276e-05
1.6577639e-05
1.9000962e-05
2.1441704e-05
2.3873274e-05
2.6285761e-05
2.8669492e-05
3.1014864e-05
3.3315962e-05
3.5570173e-05
3.7776019e-05
3.9932427e-05
4.2038899e-05
4.4095407e-05
4.6102149e-05
4.8059481e-05
4.9967892e-05
5.1827961e-05
5.3640324e-05
5.5405664e-05
5.7124694e-05
5.8798152e-05
6.0426794e-05
6.201139e-05
6.3552715e-05
6.505156e-05
6.6508705e-05
6.7924975e-05
6.9301082e-05
7.0638096e-05
7.1935941e-05
7.3198607e-05
7.4414372e-05
7.5636725e-05
7.6640314e-05
7.8398442e-05
0.00010921355
0.00010898916
0.00010875727
0.00010852163
0.00010828259
0.000108039
0.00010778845
0.000107527
0.00010724904
0.00010694736
0.00010661329
0.0001062372
0.00010580897
0.00010531855
0.00010475656
0.00010411477
0.00010338651
0.00010256693
0.00010165324
0.00010064465
9.9542366e-05
9.8349422e-05
9.7070449e-05
9.5711422e-05
9.4279353e-05
9.2781984e-05
9.1227466e-05
8.9624057e-05
8.797982e-05
8.6302355e-05
8.4598595e-05
8.287466e-05
8.11357e-05
7.9385825e-05
7.7627944e-05
7.5863877e-05
7.4094006e-05
7.2317011e-05
7.0529593e-05
6.8726805e-05
6.690221e-05
6.50482e-05
6.31543e-05
6.1209082e-05
5.9200918e-05
5.7116294e-05
5.4945379e-05
5.2671631e-05
5.0280321e-05
4.776235e-05
4.5114502e-05
4.2316659e-05
3.9353174e-05
3.6262728e-05
3.3033661e-05
2.9705129e-05
2.6331848e-05
2.2986522e-05
1.9727979e-05
1.6734243e-05
1.4125552e-05
1.2008564e-05
1.0629607e-05
1.0022737e-05
1.0221485e-05
1.1178205e-05
1.2766483e-05
1.4843975e-05
1.7230344e-05
1.9772982e-05
2.2378509e-05
2.5003674e-05
2.7627793e-05
3.0235064e-05
3.2812372e-05
3.5351232e-05
3.7846797e-05
4.0295853e-05
4.269614e-05
4.5046269e-05
4.7345461e-05
4.9593324e-05
5.1789748e-05
5.3934847e-05
5.6028889e-05
5.8072263e-05
6.006545e-05
6.2009001e-05
6.3903522e-05
6.5749667e-05
6.7548113e-05
6.9299603e-05
7.1004796e-05
7.2664724e-05
7.4279235e-05
7.5852709e-05
7.7371334e-05
7.8899067e-05
8.0161337e-05
8.2367403e-05
0.00011069455
0.00011046896
0.00011023584
0.0001099991
0.00010975953
0.000109517
0.00010927091
0.00010902017
0.00010876296
0.00010849663
0.00010821755
0.00010792113
0.00010760184
0.0001072534
0.00010686901
0.00010644165
0.0001059644
0.00010543074
0.00010483488
0.00010417197
0.00010343833
0.00010263149
0.00010175035
0.00010079507
9.9767047e-05
9.8668795e-05
9.7503754e-05
9.6276117e-05
9.4990615e-05
9.3652296e-05
9.226632e-05
9.0837787e-05
8.937157e-05
8.7872189e-05
8.6343667e-05
8.4789448e-05
8.3212229e-05
8.1613761e-05
7.999457e-05
7.835386e-05
7.6689478e-05
7.4998069e-05
7.3274564e-05
7.1512313e-05
6.9703506e-05
6.7838715e-05
6.5908752e-05
6.3902269e-05
6.1806435e-05
5.9608778e-05
5.7299892e-05
5.4865455e-05
5.2289938e-05
4.9569271e-05
4.6696402e-05
4.3648538e-05
4.044796e-05
3.7089414e-05
3.3592333e-05
3.0015713e-05
2.6434929e-05
2.2906877e-05
1.9587294e-05
1.6633023e-05
1.4169939e-05
1.2438155e-05
1.153464e-05
1.1495346e-05
1.2280856e-05
1.3787333e-05
1.5864935e-05
1.8319251e-05
2.0983542e-05
2.3750944e-05
2.6565823e-05
2.9397556e-05
3.2223996e-05
3.5028537e-05
3.7800299e-05
4.0532329e-05
4.3219781e-05
4.5859255e-05
4.8448478e-05
5.0985947e-05
5.3470696e-05
5.5902163e-05
5.8280092e-05
6.0604452e-05
6.2875387e-05
6.5093178e-05
6.7258208e-05
6.9370977e-05
7.1431958e-05
7.3442029e-05
7.5400871e-05
7.731317e-05
7.9162887e-05
8.1024955e-05
8.2572077e-05
8.5271192e-05
0.00011230182
0.0001120749
0.00011184042
0.00011160234
0.00011136149
0.00011111793
0.00011087149
0.00011062184
0.00011036843
0.00011011041
0.00010984649
0.00010957491
0.00010929329
0.00010899864
0.00010868734
0.0001083552
0.0001079976
0.00010760958
0.00010718607
0.00010672207
0.00010621285
0.00010565409
0.00010504213
0.000104374
0.00010364758
0.00010286158
0.00010201558
0.00010110997
0.00010014587
9.9125046e-05
9.8049753e-05
9.6922659e-05
9.5746695e-05
9.4524955e-05
9.3260578e-05
9.1956636e-05
9.0616002e-05
8.9241197e-05
8.7834186e-05
8.6396201e-05
8.4927598e-05
8.3427823e-05
8.1895224e-05
8.032691e-05
7.8718799e-05
7.7065406e-05
7.5360422e-05
7.3596289e-05
7.1763971e-05
6.9853241e-05
6.7854242e-05
6.5755768e-05
6.3544367e-05
6.1208602e-05
5.8738006e-05
5.6118681e-05
5.334001e-05
5.039098e-05
4.7265778e-05
4.3962871e-05
4.0486445e-05
3.6849809e-05
3.3096215e-05
2.9309359e-05
2.5560001e-05
2.1994683e-05
1.8789808e-05
1.6078348e-05
1.4134606e-05
1.3050558e-05
1.2891459e-05
1.3610477e-05
1.512953e-05
1.7274145e-05
1.9837291e-05
2.2645858e-05
2.5587357e-05
2.8598563e-05
3.1641154e-05
3.4687826e-05
3.7719206e-05
4.0722423e-05
4.3688739e-05
4.661195e-05
4.9487682e-05
5.2312875e-05
5.5085388e-05
5.780375e-05
6.0466989e-05
6.3074514e-05
6.5626016e-05
6.8121436e-05
7.0560813e-05
7.2944655e-05
7.527232e-05
7.7548652e-05
7.975521e-05
8.1978325e-05
8.3834636e-05
8.7069438e-05
0.00011403151
0.00011380312
0.00011356715
0.00011332757
0.00011308523
0.00011284022
0.00011259245
0.00011234175
0.00011208791
0.00011183062
0.00011156945
0.00011130377
0.00011103273
0.00011075511
0.00011046937
0.00011017353
0.00010986517
0.00010954146
0.00010919921
0.00010883491
0.00010844484
0.00010802521
0.00010757226
0.00010708239
0.0001065523
0.00010597906
0.00010536021
0.00010469383
0.00010397852
0.00010321346
0.00010239834
0.00010153335
0.00010061912
9.9656703e-05
9.8647448e-05
9.7592981e-05
9.6495085e-05
9.5355598e-05
9.4176279e-05
9.2958653e-05
9.170387e-05
9.0412595e-05
8.9084881e-05
8.7720015e-05
8.6316427e-05
8.4871527e-05
8.3381794e-05
8.1842715e-05
8.0248619e-05
7.8592565e-05
7.686686e-05
7.5062946e-05
7.3170676e-05
7.1179289e-05
6.9078022e-05
6.6854619e-05
6.4496519e-05
6.1990285e-05
5.9325989e-05
5.6488194e-05
5.3465573e-05
5.0249947e-05
4.6846226e-05
4.325154e-05
3.9475953e-05
3.5563141e-05
3.1596517e-05
2.7657269e-05
2.3908884e-05
2.0526835e-05
1.7667199e-05
1.564757e-05
1.451201e-05
1.4355644e-05
1.514211e-05
1.6780566e-05
1.9069266e-05
2.1793115e-05
2.4779573e-05
2.7916772e-05
3.1137957e-05
3.4399831e-05
3.7671864e-05
4.0932981e-05
4.4168871e-05
4.7369492e-05
5.0527666e-05
5.3638261e-05
5.6697588e-05
5.9702994e-05
6.2652595e-05
6.5545099e-05
6.8379588e-05
7.115579e-05
7.3872424e-05
7.6534227e-05
7.9120092e-05
8.1728067e-05
8.3915493e-05
8.7725477e-05
0.00011587971
0.0001156497
0.00011541207
0.00011517084
0.00011492687
0.00011468023
0.00011443086
0.00011417861
0.00011392335
0.0001136649
0.00011340309
0.00011313766
0.0001128683
0.00011259458
0.00011231591
0.00011203151
0.00011174032
0.00011144104
0.00011113203
0.00011081134
0.00011047675
0.00011012575
0.00010975561
0.00010936346
0.00010894637
0.00010850141
0.00010802573
0.00010751668
0.00010697181
0.00010638897
0.00010576633
0.00010510244
0.00010439619
0.00010364686
0.00010285411
0.00010201793
0.00010113864
0.00010021681
9.9253165e-05
9.8248537e-05
9.7203726e-05
9.6119408e-05
9.4996034e-05
9.3833704e-05
9.263205e-05
9.1390095e-05
9.0106184e-05
8.877793e-05
8.7402105e-05
8.5974491e-05
8.4489953e-05
8.2942504e-05
8.1325012e-05
7.9629279e-05
7.7846408e-05
7.5966396e-05
7.3978366e-05
7.18701e-05
6.9629873e-05
6.7243616e-05
6.4698291e-05
6.1978917e-05
5.9073633e-05
5.596871e-05
5.265552e-05
4.9131547e-05
4.541391e-05
4.1495308e-05
3.7428122e-05
3.3296798e-05
2.9193026e-05
2.5320509e-05
2.1830852e-05
1.8950275e-05
1.6953121e-05
1.5911272e-05
1.5897569e-05
1.6896639e-05
1.8762365e-05
2.1273015e-05
2.4211973e-05
2.7414211e-05
3.0773114e-05
3.422157e-05
3.7714174e-05
4.1219302e-05
4.4715236e-05
4.8186863e-05
5.1623402e-05
5.5017088e-05
5.8362289e-05
6.1654898e-05
6.4891881e-05
6.8071304e-05
7.1190582e-05
7.4253838e-05
7.7236821e-05
8.0249463e-05
8.2786631e-05
8.7207076e-05
0.00011784239
0.0001176106
0.00011737115
0.00011712811
0.00011688234
0.00011663392
0.00011638278
0.00011612879
0.00011587181
0.00011561172
0.00011534839
0.00011508166
0.0001148114
0.00011453744
0.00011425956
0.00011397747
0.00011369077
0.00011339896
0.00011310131
0.00011279695
0.00011248475
0.00011216336
0.00011183119
0.00011148644
0.00011112709
0.00011075098
0.0001103558
0.0001099392
0.00010949878
0.0001090322
0.0001085372
0.00010801165
0.00010745361
0.00010686136
0.00010623346
0.00010556872
0.00010486625
0.0001041254
0.0001033458
0.00010252727
0.00010166978
0.00010077339
9.9838177e-05
9.8864166e-05
9.7851207e-05
9.6798888e-05
9.5706431e-05
9.4572613e-05
9.3395675e-05
9.21732e-05
9.0902043e-05
8.9578326e-05
8.8197318e-05
8.6753337e-05
8.5239853e-05
8.3649356e-05
8.1973394e-05
8.0202287e-05
7.8325715e-05
7.6331907e-05
7.4208436e-05
7.1941317e-05
6.9516135e-05
6.6920285e-05
6.4134726e-05
6.1144386e-05
5.7943094e-05
5.4517078e-05
5.0861815e-05
4.7000727e-05
4.2927174e-05
3.870772e-05
3.4421045e-05
3.0193543e-05
2.6239955e-05
2.272422e-05
1.9960496e-05
1.8105526e-05
1.7298674e-05
1.7596278e-05
1.8938784e-05
2.1129278e-05
2.3931879e-05
2.7136371e-05
3.059115e-05
3.4197782e-05
3.7891326e-05
4.162704e-05
4.5374001e-05
4.9110743e-05
5.2822047e-05
5.6496954e-05
6.0127466e-05
6.3707957e-05
6.7233043e-05
7.0705146e-05
7.4095948e-05
7.7527123e-05
8.0427866e-05
8.5488038e-05
0.00011991543
0.00011968168
0.00011944023
0.00011919521
0.00011894746
0.00011869709
0.00011844402
0.00011818813
0.00011792927
0.00011766734
0.00011740219
0.00011713373
0.00011686184
0.00011658643
0.0001163074
0.00011602463
0.00011573799
0.00011544728
0.00011515225
0.00011485254
0.00011454768
0.00011423703
0.00011391984
0.00011359512
0.00011326175
0.00011291839
0.00011256354
0.00011219554
0.00011181256
0.0001114127
0.00011099397
0.00011055434
0.00011009181
0.00010960441
0.00010909028
0.00010854772
0.00010797515
0.00010737121
0.0001067347
0.00010606463
0.00010536017
0.00010462066
0.00010384555
0.00010303438
0.00010218671
0.00010130204
0.00010037976
9.9419051e-05
9.8418818e-05
9.7377599e-05
9.6293466e-05
9.516397e-05
9.3986063e-05
9.2755986e-05
9.1469251e-05
9.0120558e-05
8.8703766e-05
8.7211723e-05
8.5636401e-05
8.3968624e-05
8.2198207e-05
8.0313637e-05
7.8302144e-05
7.6150925e-05
7.3844141e-05
7.1365205e-05
6.870075e-05
6.5831995e-05
6.274014e-05
5.9422288e-05
5.5860944e-05
5.2057276e-05
4.803002e-05
4.3793602e-05
3.9416983e-05
3.4984312e-05
3.0685011e-05
2.670608e-05
2.3304212e-05
2.0750512e-05
1.920175e-05
1.8797344e-05
1.9569052e-05
2.1367715e-05
2.396229e-05
2.711249e-05
3.0623975e-05
3.4362523e-05
3.8239256e-05
4.2193668e-05
4.6183937e-05
5.0181037e-05
5.4164477e-05
5.8119775e-05
6.2035146e-05
6.5908796e-05
6.9706363e-05
7.3560433e-05
7.6831122e-05
8.2551154e-05
0.00012209455
0.00012185866
0.00012161503
0.00012136783
0.00012111793
0.00012086544
0.00012061027
0.00012035231
0.00012009141
0.00011982746
0.00011956034
0.00011928994
0.00011901615
0.00011873891
0.00011845813
0.00011817376
0.00011788574
0.00011759399
0.00011729843
0.00011699892
0.0001166953
0.00011638732
0.00011607463
0.00011575681
0.00011543329
0.00011510336
0.00011476619
0.00011442076
0.00011406592
0.00011370037
0.00011332266
0.00011293123
0.00011252443
0.00011210057
0.00011165791
0.00011119472
0.00011070934
0.00011020013
0.00010966558
0.00010910426
0.00010851487
0.00010789621
0.00010724723
0.00010656697
0.00010585456
0.00010510919
0.00010433004
0.00010351626
0.00010266691
0.00010178086
0.00010085678
9.9892996e-05
9.8887477e-05
9.7837724e-05
9.6740707e-05
9.5592797e-05
9.43897e-05
9.3126347e-05
9.1796877e-05
9.0394506e-05
8.8911494e-05
8.7338988e-05
8.5666892e-05
8.3884303e-05
8.1978561e-05
7.9935267e-05
7.7740226e-05
7.5376719e-05
7.2827648e-05
7.0075077e-05
6.7099921e-05
6.3885557e-05
6.0424811e-05
5.6704685e-05
5.2729094e-05
4.8513986e-05
4.4106758e-05
3.9568406e-05
3.503297e-05
3.0705733e-05
2.6812124e-05
2.3669558e-05
2.1458197e-05
2.039575e-05
2.059275e-05
2.1964268e-05
2.4303277e-05
2.7355673e-05
3.0891577e-05
3.4740293e-05
3.8785926e-05
4.2949845e-05
4.7177826e-05
5.1432475e-05
5.5686189e-05
5.9926652e-05
6.410884e-05
6.8373734e-05
7.2008303e-05
7.8393493e-05
0.00012437532
0.00012413711
0.00012389111
0.00012364154
0.00012338931
0.00012313451
0.00012287706
0.00012261685
0.00012235374
0.00012208762
0.00012181836
0.00012154585
0.00012127
0.00012099072
0.00012070796
0.00012042166
0.00012013177
0.00011983827
0.00011954111
0.00011924026
0.00011893564
0.00011862718
0.00011831474
0.00011799815
0.00011767715
0.00011735141
0.00011702052
0.00011668392
0.00011634097
0.00011599088
0.00011563273
0.00011526548
0.00011488797
0.00011449893
0.00011409703
0.00011368084
0.00011324892
0.00011279978
0.00011233194
0.00011184394
0.00011133434
0.00011080177
0.0001102449
0.00010966249
0.00010905337
0.00010841642
0.0001077506
0.00010705486
0.00010632817
0.00010556943
0.00010477748
0.00010395099
0.00010308843
0.00010218802
0.00010124763
0.00010026474
9.9236351e-05
9.8158925e-05
9.7028306e-05
9.5839637e-05
9.4587283e-05
9.3264723e-05
9.1864422e-05
9.0377896e-05
8.8795406e-05
8.7105678e-05
8.5296544e-05
8.3354167e-05
8.1263298e-05
7.9007045e-05
7.6567506e-05
7.3924915e-05
7.1060461e-05
6.7953762e-05
6.459117e-05
6.0958106e-05
5.7052549e-05
5.2877607e-05
4.8463458e-05
4.3874654e-05
3.9193763e-05
3.4615961e-05
3.0346581e-05
2.6709278e-05
2.3928845e-05
2.2275708e-05
2.1929159e-05
2.2872533e-05
2.4935712e-05
2.7864809e-05
3.1403686e-05
3.5347742e-05
3.9552916e-05
4.3921106e-05
4.8383305e-05
5.2899815e-05
5.7403314e-05
6.2036149e-05
6.6006225e-05
7.3036052e-05
0.00012675322
0.00012651249
0.0001262639
0.00012601177
0.000125757
0.0001254997
0.00012523979
0.00012497715
0.00012471165
0.00012444318
0.0001241716
0.00012389683
0.00012361875
0.00012333728
0.00012305237
0.00012276395
0.00012247198
0.00012217644
0.0001218773
0.00012157454
0.00012126814
0.00012095806
0.00012064426
0.00012032666
0.00012000516
0.00011967962
0.00011934983
0.00011901552
0.00011867635
0.00011833187
0.00011798154
0.00011762475
0.00011726073
0.00011688866
0.00011650761
0.00011611656
0.00011571442
0.00011530004
0.00011487219
0.00011442961
0.00011397102
0.0001134951
0.00011300057
0.00011248613
0.00011195051
0.00011139249
0.00011081087
0.00011020448
0.00010957216
0.00010891276
0.00010822513
0.00010750802
0.00010676013
0.00010598001
0.00010516603
0.00010431632
0.0001034287
0.00010250067
0.00010152925
0.000100511
9.9441891e-05
9.8317235e-05
9.7131575e-05
9.5878633e-05
9.4551171e-05
9.314077e-05
9.1637949e-05
9.0031897e-05
8.8310381e-05
8.6459504e-05
8.4463866e-05
8.2306132e-05
7.9967575e-05
7.7429301e-05
7.4668632e-05
7.1663521e-05
6.8398422e-05
6.4854268e-05
6.1018969e-05
5.6897484e-05
5.2498111e-05
4.7882056e-05
4.3117236e-05
3.8358231e-05
3.3801652e-05
2.9757409e-05
2.6498768e-05
2.4332369e-05
2.3495854e-05
2.4037039e-05
2.5829192e-05
2.8628829e-05
3.2162311e-05
3.6195852e-05
4.0556423e-05
4.5133559e-05
4.9807491e-05
5.4702531e-05
5.8936536e-05
6.6542099e-05
0.00012922354
0.00012898009
0.00012872872
0.00012847381
0.0001282163
0.00012795629
0.00012769372
0.00012742846
0.00012716038
0.00012688937
0.00012661531
0.00012633809
0.00012605762
0.0001257738
0.00012548657
0.00012519587
0.00012490166
0.0001246039
0.00012430258
0.00012399767
0.00012368916
0.00012337703
0.00012306126
0.00012274182
0.00012241866
0.00012209171
0.00012176086
0.00012142599
0.0001210869
0.00012074335
0.00012039503
0.00012004157
0.00011968252
0.00011931736
0.0001189455
0.00011856625
0.00011817889
0.00011778258
0.00011737646
0.00011695954
0.00011653083
0.00011608925
0.00011563368
0.00011516299
0.00011467601
0.00011417156
0.00011364848
0.00011310558
0.00011254168
0.00011195563
0.00011134625
0.00011071234
0.00011005268
0.00010936598
0.00010865085
0.00010790578
0.0001071291
0.0001063189
0.000105473
0.00010458891
0.00010366373
0.00010269409
0.00010167609
0.00010060519
9.9476136e-05
9.828281e-05
9.7018176e-05
9.5674141e-05
9.4241421e-05
9.2709322e-05
9.1065689e-05
8.9296665e-05
8.7386576e-05
8.5318574e-05
8.3072898e-05
8.0629674e-05
7.796512e-05
7.5056615e-05
7.1881795e-05
6.8423085e-05
6.4659708e-05
6.0591987e-05
5.6224467e-05
5.1595334e-05
4.677345e-05
4.1887243e-05
3.7111836e-05
3.2742369e-05
2.9080845e-05
2.648105e-05
2.5218632e-05
2.5401819e-05
2.6948335e-05
2.9631011e-05
3.3163565e-05
3.7296424e-05
4.1790963e-05
4.6703656e-05
5.103993e-05
5.9054085e-05
0.00013178147
0.00013153509
0.00013128072
0.00013102283
0.00013076236
0.00013049944
0.000130234
0.00012996591
0.00012969506
0.00012942133
0.00012914459
0.00012886474