/*--------------------------------*- C++ -*----------------------------------*\
  =========                 |
  \\      /  F ield         | OpenFOAM: The Open Source CFD Toolbox
   \\    /   O peration     | Website:  https://openfoam.org
    \\  /    A nd           | Version:  12
     \\/     M anipulation  |
\*---------------------------------------------------------------------------*/
FoamFile
{
    format      ascii;
    class       volVectorField;
    location    "500";
    object      wallShearStress;
}
// * * * * * * * * * * * * * * * * * * * * * * * * * * * * * * * * * * * * * //

dimensions      [0 2 -2 0 0 0 0];

internalField   uniform (0 0 0);

boundaryField
{
    inlet
    {
        type            calculated;
        value           uniform (0 0 0);
    }
    top
    {
        type            calculated;
        value           uniform (0 0 0);
    }
    outlet
    {
        type            calculated;
        value           uniform (0 0 0);
    }
    slipsurface
    {
        type            calculated;
        value           uniform (0 0 0);
    }
    bottom
    {
        type            calculated;
        value           nonuniform List<vector> 
100
(
(-0.00061937182 -3.5004139e-07 9.9296461e-22)
(-0.00071798619 -4.806233e-07 4.0201812e-23)
(-0.00083713191 -7.9165375e-07 0)
(-0.00097146099 -1.1970622e-06 6.8743456e-21)
(-0.0011191131 -1.7222227e-06 4.5037323e-20)
(-0.0012777468 -2.2657375e-06 -4.4279213e-20)
(-0.0014436771 -2.8158222e-06 4.7447584e-22)
(-0.0016119203 -3.7730164e-06 1.3441515e-19)
(-0.0017763897 -4.8979486e-06 0)
(-0.0019304757 -6.1162575e-06 3.8635047e-19)
(-0.0020677441 -7.3657995e-06 0)
(-0.0021830788 -8.5679589e-06 -6.1457456e-19)
(-0.002273188 -9.6397197e-06 0)
(-0.0023368559 -1.0493741e-05 1.1944444e-18)
(-0.0023747407 -1.1136631e-05 -1.6944403e-22)
(-0.0023893475 -1.1388912e-05 1.3783894e-18)
(-0.0023828034 -1.141359e-05 0)
(-0.0023652868 -1.1189924e-05 0)
(-0.0023259522 -1.0675025e-05 3.9326644e-19)
(-0.0022823238 -1.0005415e-05 3.6059403e-19)
(-0.0022330787 -9.1857638e-06 6.4953517e-19)
(-0.0021807064 -8.2450183e-06 0)
(-0.0021275098 -7.2394867e-06 -4.1414814e-19)
(-0.0020753716 -6.2234492e-06 0)
(-0.0020258075 -5.2270162e-06 1.0492871e-19)
(-0.0019800388 -4.2776538e-06 0)
(-0.0019390101 -3.394751e-06 -0)
(-0.0019033943 -2.602374e-06 0)
(-0.00187357 -1.925732e-06 -4.3908965e-21)
(-0.0018495054 -1.3859938e-06 -4.5413427e-20)
(-0.0018306623 -1.000138e-06 0)
(-0.0018160156 -7.6427133e-07 6.9989085e-20)
(-0.0018041875 -6.5381715e-07 -6.0158868e-20)
(-0.0017937475 -6.3123339e-07 0)
(-0.0017835673 -6.5361487e-07 0)
(-0.0017730134 -6.8471201e-07 9.7720456e-21)
(-0.0017619235 -7.0225369e-07 0)
(-0.0017504364 -6.9836514e-07 0)
(-0.0017387743 -6.7873311e-07 0)
(-0.001727086 -6.5413705e-07 -0)
(-0.001715407 -6.3276514e-07 -0)
(-0.0017037069 -6.170649e-07 -0)
(-0.0016919647 -6.0457657e-07 -0)
(-0.001680212 -5.917958e-07 0)
(-0.0016685196 -5.7679538e-07 -0)
(-0.0016569574 -5.594108e-07 -0)
(-0.0016455664 -5.4052298e-07 0)
(-0.0016343584 -5.210733e-07 0)
(-0.0016233321 -5.0165186e-07 0)
(-0.0016124865 -4.8239658e-07 -0)
(-0.0016018233 -4.6332342e-07 0)
(-0.0015913431 -4.4448244e-07 0)
(-0.0015810456 -4.2606715e-07 0)
(-0.0015709274 -4.0830108e-07 -0)
(-0.0015609833 -3.9119477e-07 0)
(-0.00155121 -3.7467997e-07 0)
(-0.0015416046 -3.5878804e-07 0)
(-0.0015321626 -3.435836e-07 0)
(-0.0015228789 -3.2899895e-07 0)
(-0.001513751 -3.1498985e-07 -0)
(-0.0015047749 -3.0163967e-07 0)
(-0.0014959443 -2.889105e-07 0)
(-0.0014872547 -2.7674607e-07 0)
(-0.001478702 -2.6515145e-07 0)
(-0.0014702821 -2.540765e-07 0)
(-0.0014619916 -2.434799e-07 0)
(-0.001453827 -2.3337162e-07 0)
(-0.0014457845 -2.2371669e-07 0)
(-0.0014378607 -2.1448496e-07 -0)
(-0.0014300523 -2.0568115e-07 -0)
(-0.0014223558 -1.9727219e-07 -0)
(-0.0014147679 -1.8923886e-07 0)
(-0.0014072856 -1.8157014e-07 0)
(-0.0013999058 -1.7424199e-07 0)
(-0.0013926256 -1.6723945e-07 0)
(-0.0013854421 -1.6054375e-07 0)
(-0.0013783527 -1.5414223e-07 0)
(-0.0013713547 -1.4802154e-07 0)
(-0.0013644458 -1.4216616e-07 0)
(-0.0013576233 -1.3656514e-07 0)
(-0.0013508849 -1.3120569e-07 0)
(-0.0013442285 -1.260763e-07 0)
(-0.0013376517 -1.2116618e-07 0)
(-0.0013311525 -1.1646522e-07 0)
(-0.0013247288 -1.1196422e-07 -0)
(-0.0013183784 -1.0765436e-07 0)
(-0.0013120994 -1.0352777e-07 -0)
(-0.0013058897 -9.9577394e-08 -0)
(-0.0012997473 -9.5797209e-08 0)
(-0.0012936698 -9.2182052e-08 0)
(-0.0012876555 -8.8728512e-08 0)
(-0.0012817001 -8.5435623e-08 0)
(-0.001275805 -8.2310489e-08 0)
(-0.0012699545 -7.9360777e-08 0)
(-0.0012641722 -7.6616801e-08 0)
(-0.0012583742 -7.4251703e-08 -0)
(-0.0012527303 -7.0459893e-08 1.8653658e-24)
(-0.0012467502 -1.0802014e-07 -1.558684e-22)
(-0.0012417358 -7.4391322e-08 5.2241232e-22)
(-0.0012324743 -1.0853836e-07 2.1322084e-20)
)
;
    }
    frontandback
    {
        type            empty;
    }
}


// ************************************************************************* //
