/*--------------------------------*- C++ -*----------------------------------*\
  =========                 |
  \\      /  F ield         | OpenFOAM: The Open Source CFD Toolbox
   \\    /   O peration     | Website:  https://openfoam.org
    \\  /    A nd           | Version:  12
     \\/     M anipulation  |
\*---------------------------------------------------------------------------*/
FoamFile
{
    format      ascii;
    class       volScalarField;
    location    "100";
    object      k;
}
// * * * * * * * * * * * * * * * * * * * * * * * * * * * * * * * * * * * * * //

dimensions      [0 2 -2 0 0 0 0];

internalField   nonuniform List<scalar> 
7480
(
0.0001736521
0.00025416064
0.00037647494
0.00055030533
0.00078957307
0.0011086797
0.001519104
0.0020255467
0.0026222028
0.0032903295
0.0039973475
0.0047025592
0.0053638833
0.0059450439
0.0064203918
0.0067791386
0.007014919
0.007170767
0.0071939352
0.0071617323
0.0070778041
0.0069566201
0.0068119907
0.0066557764
0.0064980335
0.006347243
0.0062103445
0.0060924984
0.0059968955
0.0059244645
0.0058735455
0.0058398465
0.0058169199
0.005797437
0.0057756082
0.0057489487
0.0057182339
0.0056859751
0.0056545734
0.0056252723
0.0055980294
0.0055719269
0.0055457761
0.005518604
0.0054899025
0.0054596864
0.0054283809
0.0053965375
0.0053645783
0.0053327546
0.0053012322
0.0052701857
0.0052397945
0.0052101862
0.0051814162
0.0051534952
0.0051264145
0.0051001473
0.0050746453
0.0050498331
0.0050256126
0.0050018687
0.0049784727
0.0049552833
0.0049321526
0.0049089321
0.0048854725
0.0048616275
0.0048372674
0.0048122818
0.0047865793
0.0047600927
0.0047327758
0.004704599
0.0046755487
0.004645621
0.0046148135
0.004583121
0.0045505296
0.0045170116
0.0044825261
0.0044470168
0.0044104132
0.0043726303
0.0043335692
0.0042931155
0.0042511331
0.0042074577
0.0041618859
0.0041141637
0.0040639783
0.0040109572
0.0039546799
0.0038946782
0.0038305139
0.0037615101
0.0036880634
0.0036059705
0.0035306889
0.0033796265
0.00012975725
0.00013165836
0.00013497897
0.00014002422
0.00014746795
0.00015847011
0.0001747419
0.00019850884
0.00023230724
0.00027852692
0.00033997884
0.00041780082
0.00051070917
0.00061545852
0.00072756508
0.00084282449
0.00095682935
0.00107069
0.0011832401
0.0013003397
0.0014320434
0.0015970964
0.0018091225
0.0020462966
0.0023083666
0.0025984396
0.0029160797
0.0032564729
0.0036096165
0.0039591732
0.0042848884
0.0045669329
0.0047905957
0.0049493512
0.0050497336
0.0051070175
0.0051390205
0.0051609921
0.0051826436
0.0052076589
0.0052347358
0.0052597489
0.0052784098
0.00528838
0.0052898468
0.0052846638
0.0052750216
0.0052623753
0.0052473868
0.0052304885
0.0052123234
0.0051936769
0.0051751563
0.005157049
0.0051394417
0.0051223797
0.0051058889
0.0050899403
0.0050744423
0.0050592628
0.0050442638
0.0050292884
0.0050141626
0.0049987174
0.0049827929
0.0049662297
0.0049488737
0.0049305921
0.0049112799
0.0048908639
0.0048693055
0.0048465932
0.0048227339
0.004797749
0.004771665
0.0047445051
0.0047162816
0.0046869879
0.0046565956
0.0046250581
0.0045923121
0.0045582821
0.0045228865
0.0044860342
0.0044476235
0.0044075442
0.0043656545
0.0043217713
0.0042756516
0.0042269748
0.0041753385
0.0041202734
0.004061263
0.0039977896
0.0039293108
0.0038554288
0.0037757851
0.0036887438
0.0036058291
0.0034471062
0.00012890871
0.00012868525
0.0001285787
0.0001286022
0.00012876009
0.00012905557
0.00012949208
0.00013007033
0.00013078635
0.00013162683
0.00013259268
0.00013369849
0.00013495327
0.00013636298
0.00013793744
0.00013970069
0.0001416919
0.00014400905
0.00014680643
0.00015039263
0.0001552503
0.00016254992
0.00017316979
0.00019266195
0.00022490701
0.00027309729
0.00034117713
0.00043382788
0.0005579686
0.00072292048
0.00095792578
0.0012425958
0.0015632414
0.0019059809
0.0022521571
0.0025834156
0.0028862101
0.0031542859
0.0033870093
0.0035858244
0.0037526897
0.0038902592
0.0040031504
0.0040973451
0.0041776959
0.0042463081
0.0043032529
0.0043483463
0.0043824674
0.0044077374
0.0044267
0.0044413994
0.00445305
0.0044623288
0.0044697737
0.0044759054
0.0044811177
0.0044856068
0.0044894562
0.0044927205
0.0044954015
0.0044974356
0.0044987219
0.0044991534
0.004498618
0.0044969941
0.0044941584
0.0044899974
0.0044844184
0.0044773578
0.0044687816
0.0044586782
0.0044470506
0.0044339123
0.0044192821
0.0044031767
0.0043856046
0.0043665594
0.0043460171
0.0043239397
0.0043002772
0.0042749706
0.0042479559
0.0042191663
0.0041885227
0.0041559179
0.0041212173
0.0040842428
0.0040447515
0.0040024194
0.0039568391
0.003907541
0.0038540181
0.0037957878
0.0037323212
0.0036633824
0.0035883695
0.0035067221
0.0034282551
0.0032783625
0.00012897486
0.00012861803
0.00012826193
0.00012791649
0.00012758556
0.00012726842
0.00012696169
0.0001266597
0.00012635552
0.00012603959
0.0001257013
0.00012532998
0.00012491459
0.00012444349
0.0001239048
0.0001232866
0.00012257465
0.00012176148
0.00012084256
0.0001198186
0.00011869414
0.0001174933
0.00011623248
0.00011499105
0.00011397612
0.00011305615
0.0001131779
0.00011426477
0.0001170019
0.0001222966
0.00013253168
0.00015008147
0.00018218919
0.00023481235
0.0003127218
0.00042041356
0.00056459374
0.00075936747
0.00099213347
0.0012578126
0.0015527786
0.0018675962
0.002185
0.0024835203
0.0027441521
0.0029574406
0.0031252427
0.0032573676
0.0033652824
0.0034572676
0.0035371782
0.0036061724
0.0036650115
0.0037152543
0.0037589702
0.0037979192
0.0038331455
0.0038652069
0.0038945506
0.0039216121
0.0039467092
0.0039700037
0.0039915696
0.0040114435
0.0040296269
0.0040460851
0.0040607581
0.0040735718
0.0040844551
0.0040933542
0.0041002349
0.0041050767
0.0041078696
0.004108613
0.004107315
0.0041039876
0.0040986423
0.0040912833
0.0040819048
0.0040704917
0.004057021
0.0040414611
0.0040237744
0.0040039174
0.0039818295
0.0039574233
0.0039305799
0.0039011368
0.0038688692
0.0038334733
0.0037945648
0.003751701
0.0037044059
0.003652239
0.0035946941
0.0035316278
0.0034622997
0.0033867161
0.0033135409
0.0031731391
0.00012911836
0.0001287552
0.00012837588
0.00012798555
0.0001275864
0.00012718002
0.00012676697
0.00012634682
0.00012591741
0.00012547604
0.00012501914
0.00012454256
0.00012404172
0.00012351174
0.00012294765
0.00012234427
0.00012169676
0.00012099814
0.00012024195
0.00011942341
0.00011853897
0.00011758701
0.00011656726
0.00011548527
0.00011435102
0.00011318081
0.00011199504
0.00011081202
0.00010966107
0.0001085636
0.00010758968
0.00010684091
0.00010645036
0.00010686039
0.0001085474
0.00011207839
0.00011840011
0.00012956722
0.00014788332
0.00018018252
0.00023331333
0.00031615925
0.00044034943
0.00062496367
0.00086175073
0.0011373141
0.0014352332
0.0017328171
0.0020071693
0.0022426872
0.002435389
0.0025910744
0.0027200456
0.0028315567
0.002930886
0.0030199464
0.0030994857
0.0031706753
0.0032351694
0.0032944102
0.0033492654
0.0034002304
0.0034477087
0.0034920514
0.0035334981
0.0035721823
0.00360817
0.0036414778
0.0036720936
0.0036999987
0.0037251752
0.0037476053
0.0037672751
0.0037841791
0.0037983233
0.0038097261
0.0038184137
0.0038244143
0.0038277531
0.0038284511
0.003826523
0.0038219737
0.0038147991
0.0038049847
0.0037924958
0.0037772699
0.0037592139
0.0037381954
0.0037140262
0.0036864462
0.0036551188
0.0036196512
0.0035796154
0.0035346181
0.0034841806
0.0034282047
0.0033658711
0.0032974432
0.0032308116
0.0031010947
0.000129308
0.0001289483
0.00012857101
0.00012817965
0.00012777501
0.0001273572
0.00012692622
0.00012648191
0.00012602392
0.0001255516
0.00012506396
0.00012455966
0.000124037
0.00012349397
0.00012292828
0.0001223374
0.00012171871
0.00012106928
0.00012038592
0.00011966538
0.00011890459
0.00011810059
0.00011725074
0.00011635298
0.00011540531
0.00011440803
0.00011335959
0.00011225959
0.00011110973
0.00010992467
0.00010871488
0.0001074924
0.00010627489
0.00010507177
0.00010392011
0.00010284844
0.00010189311
0.0001011325
0.00010066659
0.00010077106
0.00010188489
0.00010472274
0.00011050833
0.00012222413
0.0001441536
0.00018641853
0.00025859822
0.00037100303
0.00053961829
0.00075405236
0.0009994893
0.0012578288
0.0015089394
0.0017360358
0.0019312599
0.0020959419
0.0022371039
0.0023622229
0.0024758716
0.0025797987
0.0026748008
0.0027619936
0.002842714
0.0029179693
0.002988343
0.0030542314
0.0031159574
0.003173737
0.0032276878
0.0032778798
0.003324357
0.0033671405
0.0034062398
0.0034416661
0.0034734428
0.0035016102
0.0035262238
0.0035473481
0.0035650514
0.003579401
0.0035904582
0.0035982726
0.0036028804
0.0036043025
0.0036025377
0.0035975574
0.0035893055
0.0035776939
0.0035625889
0.0035437938
0.0035210413
0.0034940071
0.0034623252
0.0034256543
0.0033835473
0.0033359207
0.003281909
0.0032218543
0.0031630038
0.0030454804
0.00012953516
0.00012917989
0.00012880721
0.00012842035
0.00012801977
0.00012760519
0.00012717615
0.00012673218
0.00012627277
0.00012579737
0.00012530536
0.00012479605
0.00012426864
0.00012372217
0.00012315555
0.00012256754
0.00012195672
0.00012132154
0.00012066026
0.00011997103
0.00011925184
0.00011850063
0.0001177153
0.00011689374
0.00011603383
0.00011513366
0.00011419129
0.00011320498
0.00011217292
0.00011109472
0.00010997088
0.0001088024
0.0001075916
0.00010633893
0.00010504525
0.00010372241
0.00010238212
0.000101035
9.9689802e-05
9.8353047e-05
9.705624e-05
9.5847564e-05
9.4790408e-05
9.4041121e-05
9.3814318e-05
9.4666318e-05
9.7455535e-05
0.00010354225
0.00011611195
0.00014093662
0.00018737895
0.00026493166
0.00038655778
0.00055395205
0.00075620666
0.00097831577
0.0012021002
0.0014114189
0.0015977889
0.0017611448
0.0019065686
0.0020393345
0.0021622443
0.0022762315
0.0023820102
0.002480604
0.0025729098
0.0026594412
0.0027405056
0.0028163574
0.0028871847
0.0029531002
0.0030141785
0.0030704822
0.0031220777
0.003169047
0.0032114894
0.0032495173
0.0032832514
0.0033128136
0.0033383194
0.0033598702
0.0033775494
0.003391421
0.0034015253
0.0034078767
0.0034104667
0.003409264
0.0034042035
0.0033951681
0.0033819767
0.0033643896
0.0033421156
0.003314872
0.0032822507
0.0032441662
0.0031997349
0.0031492566
0.003099397
0.0029956949
0.00012979089
0.0001294405
0.00012907299
0.00012869152
0.00012829648
0.00012788753
0.00012746415
0.00012702573
0.00012657166
0.00012610129
0.00012561396
0.00012510898
0.00012458564
0.00012404318
0.0001234808
0.00012289764
0.00012229278
0.00012166519
0.00012101375
0.00012033726
0.00011963439
0.00011890375
0.00011814381
0.00011735298
0.00011652959
0.00011567192
0.00011477818
0.00011384661
0.00011287541
0.00011186284
0.00011080734
0.00010970758
0.00010856253
0.00010737127
0.00010613296
0.00010484755
0.00010351591
0.00010213945
0.00010071988
9.9257721e-05
9.7754078e-05
9.6219106e-05
9.467173e-05
9.3135959e-05
9.1615131e-05
9.0149261e-05
8.8804089e-05
8.7650767e-05
8.6879425e-05
8.6815567e-05
8.8126145e-05
9.1905561e-05
0.00010051104
0.00011773413
0.00015279665
0.00021476722
0.00031520618
0.00045860194
0.0006363729
0.00083492813
0.0010374165
0.0012295228
0.001404487
0.0015630479
0.0017091347
0.0018455976
0.0019733569
0.002092786
0.0022045355
0.0023092623
0.0024073521
0.0024990339
0.0025845046
0.0026639244
0.0027374271
0.0028051551
0.0028672653
0.0029239269
0.0029753193
0.003021624
0.003063016
0.0030996543
0.003131676
0.0031591951
0.003182301
0.0032010591
0.0032155167
0.003225708
0.0032316461
0.0032333048
0.0032306015
0.0032233945
0.00321148
0.0031946439
0.0031725296
0.0031450454
0.0031113242
0.0030715293
0.0030318151
0.0029435869
0.00013006739
0.00012972215
0.00012936008
0.0001289843
0.00012859517
0.00012819235
0.00012777532
0.00012734346
0.00012689616
0.00012643273
0.0001259525
0.00012545475
0.00012493875
0.00012440375
0.00012384899
0.00012327366
0.00012267693
0.00012205793
0.00012141573
0.00012074934
0.00012005772
0.00011933974
0.00011859423
0.00011781989
0.0001170154
0.00011617931
0.00011531014
0.0001144063
0.00011346621
0.00011248818
0.00011147054
0.00011041162
0.00010930977
0.00010816343
0.00010697106
0.00010573126
0.0001044428
0.00010310468
0.00010171613
0.0001002765
9.8785256e-05
9.7242213e-05
9.5648746e-05
9.4008241e-05
9.2321812e-05
9.0590351e-05
8.8823252e-05
8.7042811e-05
8.5260943e-05
8.349334e-05
8.178869e-05
8.0213126e-05
7.8921269e-05
7.8146159e-05
7.8541372e-05
8.1151891e-05
8.8126526e-05
0.0001033819
0.00013587793
0.00019483365
0.00029395026
0.00043235683
0.00060246351
0.00078976032
0.00097789069
0.0011558603
0.0013206768
0.0014742991
0.001618827
0.0017548244
0.0018823713
0.0020018422
0.0021136638
0.0022180814
0.0023152816
0.0024054831
0.0024889072
0.0025657763
0.0026363273
0.0027008006
0.0027594304
0.0028124352
0.002860009
0.0029023209
0.0029395146
0.0029717114
0.0029990193
0.0030215419
0.0030393745
0.0030525866
0.0030612019
0.0030651863
0.0030644358
0.003058817
0.003048043
0.0030320222
0.0030099498
0.0029817772
0.0029532482
0.0028820675
0.00013035818
0.0001300182
0.00012966168
0.00012929169
0.00012890859
0.00012851203
0.00012810151
0.00012767642
0.00012723614
0.00012678002
0.00012630738
0.00012581751
0.00012530968
0.00012478315
0.00012423716
0.0001236709
0.00012308358
0.00012247432
0.00012184227
0.00012118647
0.00012050597
0.00011979974
0.0001190667
0.0001183057
0.00011751555
0.00011669496
0.0001158426
0.00011495704
0.00011403683
0.00011308044
0.00011208627
0.00011105271
0.00010997809
0.00010886073
0.00010769893
0.00010649098
0.00010523525
0.00010393014
0.00010257419
0.00010116606
9.9704512e-05
9.8188364e-05
9.6616476e-05
9.4987847e-05
9.3301201e-05
9.1554705e-05
8.9745992e-05
8.7873895e-05
8.5937359e-05
8.3933898e-05
8.1860105e-05
7.973216e-05
7.7577081e-05
7.5398053e-05
7.3247561e-05
7.1212537e-05
6.9427842e-05
6.814359e-05
6.8044432e-05
7.0347003e-05
7.750391e-05
9.5406015e-05
0.00013351547
0.00020339803
0.00031527535
0.00046419028
0.00063763321
0.00081876058
0.00099458778
0.0011601255
0.00131594
0.0014632527
0.0016021362
0.0017324209
0.0018543102
0.0019681088
0.0020740328
0.0021723131
0.0022632293
0.0023470628
0.0024240913
0.0024945844
0.0025587892
0.0026169279
0.0026691989
0.0027157801
0.0027568394
0.0027925481
0.002823081
0.0028486018
0.002869241
0.0028850772
0.0028961156
0.0029023164
0.0029034833
0.0028995395
0.002889799
0.0028739424
0.0028574483
0.0028046732
0.00013065788
0.00013032316
0.0001299722
0.000129608
0.00012923091
0.0001288406
0.00012843656
0.00012801822
0.00012758497
0.00012713615
0.00012667111
0.00012618916
0.00012568957
0.00012517163
0.00012463457
0.00012407761
0.00012349995
0.00012290075
0.00012227915
0.00012163424
0.00012096507
0.00012027064
0.00011954992
0.00011880178
0.00011802509
0.00011721861
0.00011638107
0.00011551112
0.00011460736
0.00011366831
0.00011269245
0.00011167823
0.00011062402
0.00010952814
0.0001083889
0.00010720454
0.0001059733
0.00010469344
0.00010336329
0.00010198122
0.00010054571
9.905527e-05
9.7508389e-05
9.5903399e-05
9.423831e-05
9.2510601e-05
9.0716982e-05
8.8853396e-05
8.6915146e-05
8.4896893e-05
8.2792746e-05
8.0597799e-05
7.8310125e-05
7.5928328e-05
7.3454578e-05
7.0893701e-05
6.8293294e-05
6.5678655e-05
6.3097494e-05
6.0661937e-05
5.8501823e-05
5.7008932e-05
5.7063889e-05
6.0423053e-05
7.1094718e-05
9.8599509e-05
0.0001543112
0.00025162709
0.00038789026
0.00055153716
0.00072547307
0.00089626144
0.0010585163
0.0012121583
0.0013576966
0.0014948399
0.0016233505
0.0017434042
0.0018552678
0.0019591657
0.0020553636
0.0021441566
0.0022258194
0.00230061
0.0023687717
0.0024305301
0.0024861056
0.0025357281
0.0025796418
0.0026180943
0.0026513153
0.0026794939
0.0027027482
0.0027211415
0.0027345883
0.002743045
0.0027460071
0.0027428462
0.002738957
0.0027055659
0.00013096203
0.00013063252
0.00013028703
0.00012992853
0.00012955737
0.00012917321
0.00012877556
0.00012836386
0.0001279375
0.00012749586
0.00012703829
0.00012656411
0.00012607262
0.0001255631
0.00012503481
0.00012448699
0.00012391884
0.00012332955
0.00012271827
0.00012208409
0.00012142609
0.0001207433
0.00012003467
0.00011929913
0.00011853553
0.00011774268
0.00011691932
0.00011606411
0.00011517567
0.00011425256
0.00011329329
0.00011229629
0.00011125997
0.00011018268
0.00010906271
0.0001078983
0.00010668767
0.00010542901
0.00010412056
0.00010276058
0.0001013474
9.9879415e-05
9.8354968e-05
9.6772288e-05
9.5129301e-05
9.3423421e-05
9.1651353e-05
8.980893e-05
8.7891083e-05
8.5891943e-05
8.3805077e-05
8.1623922e-05
7.9342433e-05
7.695578e-05
7.4460988e-05
7.1856634e-05
6.9147073e-05
6.6340576e-05
6.3447849e-05
6.0477441e-05
5.7493295e-05
5.4540508e-05
5.1680062e-05
4.9059634e-05
4.684609e-05
4.5734587e-05
4.7233581e-05
5.4614929e-05
7.7513493e-05
0.00012778762
0.00021941701
0.00035011214
0.00050763656
0.00067464998
0.00083847857
0.00099453123
0.0011426765
0.0012830073
0.0014150781
0.0015386916
0.0016540337
0.0017613397
0.0018608135
0.0019526977
0.0020372515
0.0021147215
0.0021853573
0.0022494287
0.0023072294
0.0023590703
0.0024052632
0.0024460941
0.0024817886
0.0025125148
0.0025383112
0.0025591845
0.002574871
0.0025844163
0.002593335
0.0025797624
0.00013126695
0.00013094253
0.00013060239
0.00013024946
0.00012988408
0.00012950592
0.0001291145
0.00012870927
0.00012828963
0.00012785498
0.00012740467
0.00012693804
0.00012645441
0.00012595307
0.0001254333
0.00012489434
0.00012433542
0.00012375572
0.00012315442
0.00012253063
0.00012188345
0.00012121189
0.00012051496
0.00011979158
0.00011904062
0.00011826089
0.00011745115
0.00011661007
0.00011573627
0.00011482833
0.00011388474
0.00011290396
0.00011188438
0.00011082436
0.00010972219
0.0001085761
0.0001073843
0.00010614493
0.00010485618
0.00010351623
0.00010212332
0.00010067576
9.9171829e-05
9.7609723e-05
9.598739e-05
9.430233e-05
9.2551387e-05
9.0730568e-05
8.8834954e-05
8.6858745e-05
8.4795455e-05
8.263828e-05
8.0380607e-05
7.8016632e-05
7.5542002e-05
7.2954356e-05
7.0253878e-05
6.744382e-05
6.4530599e-05
6.1522691e-05
5.8434466e-05
5.5283574e-05
5.2091075e-05
4.8868042e-05
4.5710382e-05
4.2652962e-05
3.981026e-05
3.7321897e-05
3.5703812e-05
3.6377155e-05
4.262132e-05
6.460399e-05
0.00011491405
0.00020656172
0.00033573639
0.00048858019
0.0006480817
0.00080337907
0.00095123113
0.0010916521
0.0012245193
0.0013493705
0.0014660625
0.001574763
0.0016756594
0.0017689297
0.001854805
0.00193356
0.0020055011
0.002070968
0.0021303235
0.0021839241
0.0022320835
0.0022750631
0.0023130256
0.0023460356
0.0023741161
0.0023959815
0.0024174825
0.0024234777
0.00013156961
0.00013125014
0.00013091519
0.00013056767
0.00013020789
0.00012983555
0.00012945017
0.0001290512
0.00012863807
0.00012821017
0.00012776689
0.00012730757
0.00012683153
0.00012633809
0.00012582654
0.00012529612
0.00012474608
0.00012417562
0.00012358392
0.00012297012
0.00012233331
0.00012167254
0.00012098681
0.00012027507
0.0001195362
0.00011876902
0.00011797228
0.00011714469
0.00011628485
0.00011539135
0.00011446268
0.0001134973
0.0001124936
0.00011144994
0.00011036459
0.00010923579
0.00010806171
0.00010684049
0.00010557025
0.00010424912
0.00010287527
0.00010144693
9.9962311e-05
9.8419602e-05
9.6816776e-05
9.5151429e-05
9.3420562e-05
9.1620387e-05
8.9746203e-05
8.7792391e-05
8.5752555e-05
8.3619835e-05
8.1387378e-05
7.9048912e-05
7.659938e-05
7.4035553e-05
7.1356566e-05
6.8564332e-05
6.5663805e-05
6.2662986e-05
5.9572908e-05
5.6407295e-05
5.3182966e-05
4.9916189e-05
4.6630351e-05
4.334895e-05
4.0086542e-05
3.6896106e-05
3.385909e-05
3.104342e-05
2.8581485e-05
2.6898935e-05
2.7410939e-05
3.3983255e-05
5.7557601e-05
0.00011125722
0.00020555424
0.00033411678
0.00048168454
0.00063252678
0.00077808999
0.00091641741
0.0010476473
0.0011715615
0.0012877331
0.0013960663
0.0014967256
0.0015899091
0.0016758497
0.0017548596
0.0018273059
0.0018935706
0.0019540161
0.0020089681
0.002058694
0.0021033056
0.0021431321
0.0021765523
0.0022099635
0.0022344899
0.00013186759
0.0001315529
0.00013122297
0.00013088066
0.00013052629
0.00013015956
0.00012978
0.00012938707
0.00012898021
0.00012855884
0.00012812232
0.00012767003
0.00012720131
0.00012671548
0.00012621182
0.00012568961
0.0001251481
0.00012458651
0.00012400403
0.00012339979
0.00012277292
0.00012212247
0.00012144745
0.00012074682
0.00012001948
0.00011926425
0.00011847989
0.00011766512
0.00011681855
0.00011593877
0.00011502426
0.00011407349
0.00011308486
0.0001120567
0.0001109873
0.00010987489
0.00010871762
0.00010751361
0.00010626095
0.00010495771
0.000103602
0.00010219197
0.00010072579
9.9201612e-05
9.7617422e-05
9.5970899e-05
9.4259187e-05
9.2478696e-05
9.0624947e-05
8.8692523e-05
8.6675166e-05
8.4566033e-05
8.2358114e-05
8.0044788e-05
7.7620435e-05
7.5081069e-05
7.2424918e-05
6.9652882e-05
6.6768854e-05
6.3779853e-05
6.0696021e-05
5.7530419e-05
5.4298803e-05
5.1019146e-05
4.7711179e-05
4.4396178e-05
4.1095399e-05
3.7830955e-05
3.4628267e-05
3.1504302e-05
2.8483626e-05
2.5667803e-05
2.3096468e-05
2.0892636e-05
1.9459179e-05
2.029421e-05
2.8327167e-05
5.5098157e-05
0.00011364781
0.0002104462
0.00033692933
0.00047753746
0.00061851941
0.00075345448
0.00088128502
0.0010022479
0.0011161511
0.0012226606
0.0013217682
0.0014137126
0.0014987859
0.0015773049
0.001649616
0.0017160594
0.001776961
0.001832443
0.0018831208
0.0019270298
0.0019712642
0.0020124767
0.00013215902
0.00013184893
0.00013152382
0.00013118652
0.00013083735
0.00013047602
0.00013010205
0.00012971493
0.0001293141
0.00012889899
0.00012846897
0.00012802344
0.00012756174
0.0001270832
0.00012658713
0.0001260728
0.00012553948
0.00012498639
0.00012441273
0.00012381766
0.00012320029
0.00012255971
0.00012189492
0.00012120489
0.00012048853
0.00011974468
0.0001189721
0.00011816951
0.00011733554
0.00011646876
0.00011556769
0.00011463078
0.00011365642
0.00011264297
0.00011158869
0.00011049182
0.0001093505
0.00010816285
0.0001069269
0.00010564071
0.00010430232
0.00010290981
0.00010146129
9.9954888e-05
9.8388592e-05
9.6760136e-05
9.5066788e-05
9.3305134e-05
9.1470908e-05
8.9558904e-05
8.7563025e-05
8.5476485e-05
8.3292186e-05
8.1003227e-05
7.8603512e-05
7.6088379e-05
7.345521e-05
7.0703943e-05
6.7837447e-05
6.4861729e-05
6.1785994e-05
5.8622534e-05
5.5386488e-05
5.2095514e-05
4.8769375e-05
4.5429494e-05
4.2098426e-05
3.8799316e-05
3.5555277e-05
3.2388876e-05
2.9319872e-05
2.637207e-05
2.3556613e-05
2.0891224e-05
1.846798e-05
1.6308019e-05
1.4527307e-05
1.356274e-05
1.512207e-05
2.5367872e-05
5.5737792e-05
0.00011849324
0.00021545532
0.00033715459
0.00046887146
0.00059899838
0.0007226693
0.00083933967
0.00094939765
0.0010528156
0.0011494122
0.0012392657
0.0013226522
0.0013998541
0.0014711641
0.0015366409
0.0015971195
0.0016502658
0.0017039282
0.0017592624
0.00013244251
0.00013213684
0.00013181635
0.00013148386
0.00013113968
0.00013078351
0.00013041491
0.00013003336
0.00012963831
0.00012922919
0.00012880542
0.00012836636
0.0001279114
0.00012743985
0.00012695104
0.00012644426
0.00012591878
0.00012537383
0.00012480862
0.00012422232
0.00012361405
0.00012298289
0.00012232787
0.00012164796
0.00012094207
0.00012020905
0.00011944768
0.00011865667
0.00011783466
0.00011698023
0.00011609191
0.00011516813
0.00011420731
0.00011320779
0.00011216786
0.00011108573
0.00010995957
0.00010878745
0.00010756742
0.00010629747
0.00010497562
0.00010359987
0.00010216831
0.00010067899
9.9129901e-05
9.7518824e-05
9.5843125e-05
9.4099546e-05
9.2284019e-05
9.0391546e-05
8.8416205e-05
8.6351303e-05
8.4189701e-05
8.1924288e-05
7.9548563e-05
7.7057264e-05
7.4446998e-05
7.1716788e-05
6.886851e-05
6.5907163e-05
6.2840996e-05
5.9681456e-05
5.6443007e-05
5.3142827e-05
4.9800444e-05
4.6437308e-05
4.3076238e-05
3.9740972e-05
3.6455599e-05
3.3244039e-05
3.0129442e-05
2.7133371e-05
2.4275221e-05
2.1569989e-05
1.9036144e-05
1.6669945e-05
1.4500647e-05
1.2579631e-05
1.0937905e-05
9.6366252e-06
9.2511349e-06
1.1783709e-05
2.4244453e-05
5.7141641e-05
0.00012099868
0.00021474937
0.00032875947
0.00045002008
0.00056877805
0.00068105639
0.00078649732
0.00088566473
0.00097873508
0.0010655924
0.0011462853
0.0012207246
0.0012898681
0.0013509455
0.0014125067
0.0014788925
0.00013271712
0.00013241567
0.00013209961
0.00013177172
0.00013143231
0.00013108109
0.00013071763
0.0001303414
0.00012995189
0.00012954851
0.0001291307
0.00012869785
0.00012824932
0.00012778447
0.00012730262
0.00012680307
0.00012628509
0.00012574794
0.00012519081
0.0001246129
0.00012401333
0.00012339118
0.00012274549
0.00012207523
0.00012137933
0.00012065663
0.00011990592
0.00011912593
0.00011831529
0.00011747259
0.00011659636
0.00011568505
0.00011473708
0.00011375078
0.00011272446
0.00011165633
0.00011054455
0.00010938721
0.00010818232
0.00010692787
0.00010562181
0.00010426213
0.00010284682
0.00010137392
9.9841394e-05
9.824705e-05
9.6588333e-05
9.4862123e-05
9.3064533e-05
9.1190767e-05
8.9235084e-05
8.7190908e-05
8.5051103e-05
8.2808407e-05
8.045598e-05
7.7988034e-05
7.5400465e-05
7.2691444e-05
6.9861889e-05
6.691581e-05
6.3860491e-05
6.0706507e-05
5.7467594e-05
5.4160391e-05
5.0804104e-05
4.7420095e-05
4.4031324e-05
4.0661882e-05
3.7336445e-05
3.4079683e-05
3.0915711e-05
2.7867437e-05
2.495603e-05
2.2200262e-05
1.9615907e-05
1.721444e-05
1.5003006e-05
1.2990666e-05
1.1152233e-05
9.542223e-06
8.151418e-06
7.0476195e-06
6.1252599e-06
6.3852195e-06
9.8315044e-06
2.3453426e-05
5.6324706e-05
0.00011695946
0.000203531
0.0003072271
0.00041707426
0.00052458963
0.00062592313
0.00072045514
0.00080875997
0.00089081064
0.0009674441
0.0010352151
0.0011032221
0.0011774157
0.00013298224
0.00013268484
0.00013237301
0.00013204951
0.00013171466
0.00013136818
0.00013100962
0.00013063849
0.00013025426
0.00012985639
0.00012944428
0.00012901736
0.00012857499
0.00012811654
0.00012764134
0.0001271487
0.00012663791
0.00012610821
0.00012555882
0.00012498893
0.00012439767
0.00012378413
0.00012314735
0.00012248631
0.00012179993
0.00012108707
0.00012034651
0.00011957699
0.00011877716
0.00011794561
0.00011708087
0.0001161814
0.00011524562
0.00011427188
0.00011325848
0.00011220365
0.00011110555
0.00010996226
0.0001087718
0.00010753212
0.00010624116
0.00010489684
0.00010349713
0.00010204001
0.00010052343
9.8945195e-05
9.7302826e-05
9.5593318e-05
9.3812948e-05
9.1957112e-05
9.0020253e-05
8.7995929e-05
8.5877043e-05
8.3656228e-05
8.1326372e-05
7.8881228e-05
7.6316051e-05
7.3628212e-05
7.0817724e-05
6.7887628e-05
6.4844247e-05
6.1697267e-05
5.8459659e-05
5.5147471e-05
5.1779523e-05
4.8377018e-05
4.4962991e-05
4.1561824e-05
3.8198689e-05
3.4898929e-05
3.1687449e-05
2.8588095e-05
2.5623023e-05
2.2812136e-05
2.0172453e-05
1.7717758e-05
1.5457886e-05
1.339903e-05
1.1540836e-05
9.8820727e-06
8.4173566e-06
7.1151993e-06
6.0253259e-06
5.1238889e-06
4.4170415e-06
4.044887e-06
4.6690248e-06
8.4505206e-06
2.127571e-05
5.0726754e-05
0.00010362811
0.00017909977
0.00026994185
0.00036724566
0.00046325347
0.00055314211
0.00063658174
0.00070983814
0.00078297695
0.00086191081
0.00013323757
0.00013294404
0.00013263625
0.00013231695
0.00013198645
0.00013164449
0.00013129062
0.00013092436
0.00013054519
0.00013015256
0.00012974591
0.00012932465
0.00012888818
0.00012843585
0.00012796701
0.00012748098
0.00012697705
0.00012645448
0.00012591249
0.00012535026
0.00012476695
0.00012416164
0.00012353336
0.00012288112
0.00012220381
0.00012150032
0.00012076943
0.00012000988
0.00011922032
0.00011839936
0.00011754553
0.00011665731
0.00011573312
0.00011477131
0.00011377019
0.00011272799
0.0001116429
0.00011051298
0.00010933626
0.00010811068
0.00010683413
0.00010550453
0.00010411977
0.0001026778
0.00010117655
9.9613829e-05
9.7987197e-05
9.6293751e-05
9.4529918e-05
9.2691272e-05
9.0772439e-05
8.8767124e-05
8.6668293e-05
8.4468523e-05
8.2160483e-05
7.9737529e-05
7.7194342e-05
7.4527558e-05
7.1736326e-05
6.8822756e-05
6.5792221e-05
6.2653506e-05
5.941879e-05
5.6103484e-05
5.2725967e-05
4.930722e-05
4.5870284e-05
4.2439775e-05
3.9041303e-05
3.5700836e-05
3.244405e-05
2.9295678e-05
2.6278834e-05
2.3414388e-05
2.0720373e-05
1.821148e-05
1.5898668e-05
1.3788824e-05
1.1884861e-05
1.0185173e-05
8.6848149e-06
7.3721892e-06
6.2396483e-06
5.2654432e-06
4.4392519e-06
3.7676488e-06
3.2394696e-06
2.8452444e-06
2.7649358e-06
3.5490767e-06
6.9399697e-06
1.6953419e-05
3.9867161e-05
8.0881767e-05
0.00014071786
0.00021408283
0.00029499778
0.00037223572
0.00045164443
0.00053487407
0.000133483
0.00013319316
0.00013288923
0.00013257394
0.00013224761
0.00013190997
0.00013156058
0.00013119897
0.00013082462
0.00013043701
0.00013003557
0.00012961973
0.00012918889
0.00012874241
0.00012827965
0.00012779994
0.00012730258
0.00012678682
0.0001262519
0.000125697
0.00012512128
0.00012452382
0.00012390366
0.0001232598
0.00012259115
0.00012189657
0.00012117488
0.00012042481
0.00011964502
0.00011883412
0.00011799066
0.00011711312
0.00011619992
0.00011524945
0.00011426
0.00011322982
0.00011215709
0.0001110399
0.00010987627
0.00010866412
0.00010740135
0.00010608581
0.00010471538
0.00010328796
0.00010180144
0.00010025364
9.8642151e-05
9.6964149e-05
9.5216192e-05
9.3394024e-05
9.1492448e-05
8.9505322e-05
8.74257e-05
8.5246136e-05
8.2959131e-05
8.0557704e-05
7.8036027e-05
7.5390056e-05
7.2618134e-05
6.9721471e-05
6.6704513e-05
6.3575142e-05
6.0344724e-05
5.7027998e-05
5.3642849e-05
5.0209979e-05
4.6752373e-05
4.3294817e-05
3.9863305e-05
3.6484379e-05
3.3184449e-05
2.9989104e-05
2.6922398e-05
2.4006183e-05
2.1259477e-05
1.8697915e-05
1.6333318e-05
1.4173393e-05
1.2221636e-05
1.0477336e-05
8.935807e-06
7.5888563e-06
6.4250014e-06
5.4299926e-06
4.5875961e-06
3.8824174e-06
3.2884542e-06
2.8109722e-06
2.4318127e-06
2.146403e-06
1.9620054e-06
2.0064919e-06
2.700133e-06
5.1143367e-06
1.1313239e-05
2.5411946e-05
5.1138272e-05
8.6319678e-05
0.00013821189
0.00019840771
0.0001337186
0.00013343228
0.00013313204
0.00013282058
0.00013249823
0.00013216471
0.0001318196
0.00013146244
0.00013109271
0.00013070989
0.00013031343
0.00012990277
0.0001294773
0.00012903642
0.00012857948
0.00012810581
0.00012761472
0.00012710547
0.00012657731
0.00012602941
0.00012546093
0.00012487096
0.00012425855
0.00012362267
0.00012296225
0.00012227617
0.00012156322
0.00012082215
0.00012005164
0.0001192503
0.00011841668
0.00011754928
0.00011664653
0.00011570682
0.00011472845
0.0001137097
0.00011264873
0.00011154365
0.00011039248
0.00010919314
0.0001079435
0.00010664141
0.0001052847
0.00010387123
0.00010239886
0.0001008654
9.9268465e-05
9.76053e-05
9.587258e-05
9.4066199e-05
9.2181134e-05
9.0211399e-05
8.8150151e-05
8.5989952e-05
8.3723182e-05
8.1342578e-05
7.8841856e-05
7.6216361e-05
7.3463677e-05
7.0584158e-05
6.7581345e-05
6.4462227e-05