/*--------------------------------*- C++ -*----------------------------------*\
  =========                 |
  \\      /  F ield         | OpenFOAM: The Open Source CFD Toolbox
   \\    /   O peration     | Website:  https://openfoam.org
    \\  /    A nd           | Version:  12
     \\/     M anipulation  |
\*---------------------------------------------------------------------------*/
FoamFile
{
    format      ascii;
    class       volScalarField;
    location    "100";
    object      nut;
}
// * * * * * * * * * * * * * * * * * * * * * * * * * * * * * * * * * * * * * //

dimensions      [0 2 -1 0 0 0 0];

internalField   nonuniform List<scalar> 
7480
(
1.1877845e-06
1.4368322e-06
1.7485566e-06
2.1138408e-06
2.5317544e-06
2.9997537e-06
3.5110475e-06
4.0538583e-06
4.6118493e-06
5.1654097e-06
5.6927451e-06
6.1738807e-06
6.5930014e-06
6.9401871e-06
7.2116005e-06
7.4097048e-06
7.5375803e-06
7.6178865e-06
7.63197e-06
7.6147205e-06
7.5697942e-06
7.504601e-06
7.4261938e-06
7.3406821e-06
7.2533467e-06
7.1688492e-06
7.091313e-06
7.0241268e-06
6.9696701e-06
6.9288943e-06
6.9009941e-06
6.8835112e-06
6.8727514e-06
6.8643011e-06
6.8541448e-06
6.8398918e-06
6.8212942e-06
6.7998355e-06
6.7776701e-06
6.7565208e-06
6.7371276e-06
6.7192593e-06
6.7021051e-06
6.6848286e-06
6.6669278e-06
6.648277e-06
6.6290132e-06
6.6093626e-06
6.5894984e-06
6.569538e-06
6.5495801e-06
6.5297449e-06
6.5101667e-06
6.4909593e-06
6.472198e-06
6.4539287e-06
6.4361821e-06
6.418978e-06
6.402321e-06
6.3861965e-06
6.3705721e-06
6.3554003e-06
6.3406177e-06
6.3261435e-06
6.3118835e-06
6.2977361e-06
6.2835898e-06
6.2693241e-06
6.2548202e-06
6.2399669e-06
6.224664e-06
6.2088279e-06
6.1923922e-06
6.175308e-06
6.1575446e-06
6.1390854e-06
6.1199235e-06
6.1000564e-06
6.0794802e-06
6.0581838e-06
6.0361468e-06
6.0133369e-06
5.9897098e-06
5.9652099e-06
5.9397698e-06
5.9133132e-06
5.8857515e-06
5.8569792e-06
5.8268675e-06
5.7952538e-06
5.7619297e-06
5.7266329e-06
5.6890474e-06
5.6487937e-06
5.6054818e-06
5.5584996e-06
5.5079677e-06
5.4506504e-06
5.3976278e-06
5.2874474e-06
1.5736437e-05
9.6264747e-06
6.3279499e-06
4.329215e-06
3.0291366e-06
2.1706622e-06
1.6182894e-06
1.2826604e-06
1.0989268e-06
1.0221369e-06
1.029011e-06
1.0987067e-06
1.2096431e-06
1.3524161e-06
1.5195596e-06
1.7045457e-06
1.9035622e-06
2.1134869e-06
2.3393266e-06
2.589849e-06
2.880901e-06
3.2428472e-06
3.7070475e-06
4.2410062e-06
4.8410564e-06
5.510531e-06
6.2464697e-06
7.0443552e-06
7.8882847e-06
8.744366e-06
9.5721285e-06
1.0331355e-05
1.0990422e-05
1.1530898e-05
1.196192e-05
1.230947e-05
1.2604855e-05
1.2875832e-05
1.3141155e-05
1.3408314e-05
1.3674007e-05
1.3927866e-05
1.4158796e-05
1.4360706e-05
1.453406e-05
1.4683334e-05
1.4813404e-05
1.4926621e-05
1.5023812e-05
1.5106247e-05
1.5176654e-05
1.5238451e-05
1.5294368e-05
1.5345953e-05
1.5394068e-05
1.5439468e-05
1.5482848e-05
1.5524684e-05
1.5565137e-05
1.5604135e-05
1.564158e-05
1.5677297e-05
1.5711019e-05
1.5742464e-05
1.577138e-05
1.579751e-05
1.5820569e-05
1.5840326e-05
1.5856611e-05
1.5869311e-05
1.5878394e-05
1.5883878e-05
1.588579e-05
1.5884179e-05
1.5879091e-05
1.587054e-05
1.5858517e-05
1.5842968e-05
1.5823779e-05
1.5800814e-05
1.5773907e-05
1.5742872e-05
1.5707525e-05
1.5667665e-05
1.5623046e-05
1.5573417e-05
1.5518423e-05
1.5457589e-05
1.5390272e-05
1.5315611e-05
1.5232531e-05
1.5139806e-05
1.5036116e-05
1.492028e-05
1.4790771e-05
1.4647748e-05
1.4486965e-05
1.4315692e-05
1.4129406e-05
1.3818772e-05
2.7095145e-05
2.5013115e-05
2.2234217e-05
1.9174621e-05
1.6107581e-05
1.3208411e-05
1.0599377e-05
8.3633618e-06
6.5341229e-06
5.0951481e-06
3.9931995e-06
3.1604775e-06
2.531306e-06
2.0557933e-06
1.6970076e-06
1.4265138e-06
1.2240395e-06
1.0729038e-06
9.6189788e-07
8.8287235e-07
8.2998643e-07
8.0188599e-07
7.927061e-07
8.3903158e-07
9.5527623e-07
1.1475052e-06
1.4272581e-06
1.7878041e-06
2.2389046e-06
2.8171844e-06
3.6101378e-06
4.5857516e-06
5.690601e-06
6.8776031e-06
8.0915354e-06
9.278488e-06
1.0394112e-05
1.1420478e-05
1.2359904e-05
1.3223227e-05
1.4023084e-05
1.4771263e-05
1.5479484e-05
1.6156452e-05
1.6801981e-05
1.7406482e-05
1.7957826e-05
1.8450463e-05
1.8887612e-05
1.9278518e-05
1.9633136e-05
1.995836e-05
2.0257855e-05
2.0534354e-05
2.0791383e-05
2.1032942e-05
2.1262226e-05
2.1481112e-05
2.1690868e-05
2.1892744e-05
2.2087707e-05
2.227624e-05
2.2458475e-05
2.2634405e-05
2.2803932e-05
2.2966833e-05
2.3122768e-05
2.3271358e-05
2.3412249e-05
2.3545137e-05
2.3669794e-05
2.3786034e-05
2.3893679e-05
2.3992568e-05
2.4082561e-05
2.4163519e-05
2.4235303e-05
2.4297755e-05
2.4350685e-05
2.4393889e-05
2.4427144e-05
2.4450201e-05
2.4462788e-05
2.4464626e-05
2.4455349e-05
2.4434379e-05
2.4401017e-05
2.4354387e-05
2.4293352e-05
2.4216453e-05
2.4121913e-05
2.4007777e-05
2.3872032e-05
2.3713049e-05
2.3528601e-05
2.3319693e-05
2.3079138e-05
2.2821767e-05
2.2538695e-05
2.205949e-05
2.7958376e-05
2.7529619e-05
2.6920414e-05
2.6102157e-05
2.5063801e-05
2.3808319e-05
2.235124e-05
2.0723159e-05
1.8972612e-05
1.7164077e-05
1.5368337e-05
1.3649139e-05
1.2051951e-05
1.0603338e-05
9.3147273e-06
8.1852039e-06
7.2065391e-06
6.3649346e-06
5.6443565e-06
5.0276207e-06
4.4977399e-06
4.0376601e-06
3.6306736e-06
3.263262e-06
2.9283073e-06
2.6040045e-06
2.3174465e-06
2.0455777e-06
1.7954272e-06
1.5831447e-06
1.4210969e-06
1.3317895e-06
1.3943962e-06
1.6286951e-06
2.0159586e-06
2.5531528e-06
3.2684307e-06
4.2137571e-06
5.3490658e-06
6.631758e-06
8.0464847e-06
9.5655944e-06
1.1119914e-05
1.2626907e-05
1.4018328e-05
1.5264722e-05
1.6379091e-05
1.7397272e-05
1.8350352e-05
1.9249771e-05
2.0090937e-05
2.0866793e-05
2.1578205e-05
2.2234881e-05
2.2848991e-05
2.342909e-05
2.3979169e-05
2.4501754e-05
2.5000379e-05
2.5479124e-05
2.5940997e-05
2.638764e-05
2.682012e-05
2.7239327e-05
2.7645807e-05
2.8039666e-05
2.842068e-05
2.8788428e-05
2.9142374e-05
2.9481969e-05
2.9806684e-05
3.0115999e-05
3.0409386e-05
3.0686356e-05
3.0946485e-05
3.1189414e-05
3.1414845e-05
3.1622517e-05
3.181218e-05
3.1983588e-05
3.2136483e-05
3.2270551e-05
3.2385419e-05
3.2480647e-05
3.2555632e-05
3.2609542e-05
3.2641363e-05
3.2649887e-05
3.2633629e-05
3.259075e-05
3.2519049e-05
3.2416149e-05
3.2279644e-05
3.2107739e-05
3.1897773e-05
3.1651669e-05
3.1359495e-05
3.1043747e-05
3.0684913e-05
3.0081301e-05
2.8200995e-05
2.7899115e-05
2.7570769e-05
2.7209484e-05
2.6803265e-05
2.6339386e-05
2.5805651e-05
2.5191479e-05
2.4488965e-05
2.3695013e-05
2.2812563e-05
2.1851053e-05
2.0825429e-05
1.9754372e-05
1.8658494e-05
1.7558293e-05
1.6472917e-05
1.5418061e-05
1.4406185e-05
1.3446238e-05
1.2543681e-05
1.170016e-05
1.0914109e-05
1.0181465e-05
9.4952547e-06
8.8480489e-06
8.2281793e-06
7.6237846e-06
7.0213352e-06
6.4121304e-06
5.7825334e-06
5.1302942e-06
4.4656047e-06
3.8280938e-06
3.2433067e-06
2.7352393e-06
2.3324284e-06
2.0460689e-06
1.8964971e-06
1.9649895e-06
2.2444113e-06
2.7391154e-06
3.5194498e-06
4.6829537e-06
6.1918872e-06
7.9296071e-06
9.8153216e-06
1.1718014e-05
1.3517597e-05
1.5145071e-05
1.6595949e-05
1.7910082e-05
1.9136502e-05
2.0304927e-05
2.1419751e-05
2.2474016e-05
2.3465874e-05
2.4403539e-05
2.5298843e-05
2.6159785e-05
2.6989642e-05
2.7790597e-05
2.856572e-05
2.9317829e-05
3.0048388e-05
3.0757928e-05
3.1446592e-05
3.2114111e-05
3.2759822e-05
3.338291e-05
3.3982526e-05
3.4557753e-05
3.5107649e-05
3.5631334e-05
3.6128058e-05
3.6597213e-05
3.7038322e-05
3.7451011e-05
3.7834958e-05
3.8189864e-05
3.8515414e-05
3.8811202e-05
3.9076715e-05
3.9311322e-05
3.9514187e-05
3.9684236e-05
3.9820221e-05
3.9920738e-05
3.9984158e-05
4.0008513e-05
3.9991467e-05
3.9930497e-05
3.9823063e-05
3.9667386e-05
3.9460604e-05
3.9205425e-05
3.8889765e-05
3.8542618e-05
3.8133097e-05
3.7444009e-05
2.8496233e-05
2.8199166e-05
2.7891089e-05
2.7576491e-05
2.725436e-05
2.6921886e-05
2.6575351e-05
2.621039e-05
2.5822517e-05
2.5406997e-05
2.4959369e-05
2.4475959e-05
2.3954333e-05
2.3393639e-05
2.2794796e-05
2.216048e-05
2.1494969e-05
2.080372e-05
2.0093012e-05
1.9369558e-05
1.8640171e-05
1.791128e-05
1.7188583e-05
1.6476695e-05
1.5778583e-05
1.5096115e-05
1.4428395e-05
1.3773064e-05
1.3125989e-05
1.2485268e-05
1.1844858e-05
1.1196554e-05
1.0532365e-05
9.8410337e-06
9.1163827e-06
8.3529904e-06
7.5567007e-06
6.7308075e-06
5.8940898e-06
5.0849327e-06
4.3269433e-06
3.637417e-06
3.055527e-06
2.6217274e-06
2.4112583e-06
2.5762751e-06
3.0589664e-06
3.9332886e-06
5.2861416e-06
7.0215255e-06
8.9942166e-06
1.106989e-05
1.3105667e-05
1.500107e-05
1.6726454e-05
1.8311248e-05
1.9806701e-05
2.1247574e-05
2.2640405e-05
2.3978425e-05
2.5260528e-05
2.6495125e-05
2.7691583e-05
2.8853986e-05
2.998319e-05
3.1080408e-05
3.214696e-05
3.3182864e-05
3.4187197e-05
3.5158938e-05
3.6096981e-05
3.6999981e-05
3.7866529e-05
3.8695335e-05
3.9485285e-05
4.0235481e-05
4.0945238e-05
4.1614027e-05
4.224141e-05
4.2826999e-05
4.3370377e-05
4.3871014e-05
4.4328239e-05
4.4741231e-05
4.5108957e-05
4.5430166e-05
4.5703477e-05
4.5927437e-05
4.6100445e-05
4.6220602e-05
4.6285639e-05
4.6293078e-05
4.6240387e-05
4.6125897e-05
4.5946728e-05
4.5706157e-05
4.5390891e-05
4.5034088e-05
4.4598653e-05
4.3852781e-05
2.8856971e-05
2.8558045e-05
2.8248931e-05
2.7935665e-05
2.7619438e-05
2.7300156e-05
2.6977263e-05
2.6649972e-05
2.6316958e-05
2.5976816e-05
2.5627968e-05
2.5268698e-05
2.4897232e-05
2.4511867e-05
2.4111069e-05
2.3693849e-05
2.3259457e-05
2.2807583e-05
2.2338432e-05
2.1852729e-05
2.1351724e-05
2.0837129e-05
2.031104e-05
1.9775793e-05
1.9233743e-05
1.8687131e-05
1.8137767e-05
1.7586954e-05
1.7035247e-05
1.6482942e-05
1.5929779e-05
1.5374701e-05
1.4816072e-05
1.4250599e-05
1.3673976e-05
1.3083852e-05
1.2478203e-05
1.1853098e-05
1.1203913e-05
1.0525582e-05
9.8140697e-06
9.0574801e-06
8.242793e-06
7.3470872e-06
6.3752495e-06
5.3963755e-06
4.4626665e-06
3.6770795e-06
3.1158923e-06
2.9244162e-06
3.165912e-06
3.8436007e-06
5.0355902e-06
6.7248018e-06
8.7393431e-06
1.0941658e-05
1.3162479e-05
1.5276003e-05
1.7240442e-05
1.9084097e-05
2.0857503e-05
2.258875e-05
2.4276558e-05
2.5912624e-05
2.7498486e-05
2.904129e-05
3.054404e-05
3.2005308e-05
3.3423686e-05
3.4798513e-05
3.6128413e-05
3.7411386e-05
3.8645538e-05
3.9829145e-05
4.0960639e-05
4.2038761e-05
4.3062552e-05
4.4031256e-05
4.4944257e-05
4.5801014e-05
4.6600973e-05
4.7343458e-05
4.8027643e-05
4.8652551e-05
4.9217015e-05
4.9719688e-05
5.0159159e-05
5.0534034e-05
5.0842856e-05
5.1083916e-05
5.1255129e-05
5.1354152e-05
5.1378539e-05
5.132675e-05
5.1196055e-05
5.0990074e-05
5.0695467e-05
5.0346533e-05
4.9908659e-05
4.9128621e-05
2.9271861e-05
2.8970489e-05
2.8658886e-05
2.8343252e-05
2.8025002e-05
2.7704395e-05
2.7381393e-05
2.7055866e-05
2.672761e-05
2.6396355e-05
2.6061766e-05
2.5723437e-05
2.5380888e-05
2.5033567e-05
2.4680892e-05
2.4322027e-05
2.3956321e-05
2.3583201e-05
2.3202169e-05
2.281283e-05
2.2414921e-05
2.2008348e-05
2.1593206e-05
2.1169786e-05
2.0738551e-05
2.0300093e-05
1.9855072e-05
1.9404154e-05
1.8947934e-05
1.848692e-05
1.8021545e-05
1.7552152e-05
1.7078987e-05
1.6602058e-05
1.6121058e-05
1.563551e-05
1.5145022e-05
1.4649338e-05
1.4147655e-05
1.3638516e-05
1.3119744e-05
1.2589079e-05
1.2043186e-05
1.1471922e-05
1.0853708e-05
1.0174119e-05
9.411751e-06
8.5504263e-06
7.5756234e-06
6.521305e-06
5.4588062e-06
4.4940442e-06
3.748351e-06
3.3296179e-06
3.4466897e-06
4.0496887e-06
5.2309244e-06
6.989719e-06
9.1460878e-06
1.1531509e-05
1.3952572e-05
1.6278555e-05
1.8480685e-05
2.059843e-05
2.2672381e-05
2.4708536e-05
2.6694089e-05
2.86234e-05
3.0499241e-05
3.2322051e-05
3.4088382e-05
3.5795188e-05
3.7440428e-05
3.9021737e-05
4.0536782e-05
4.1983858e-05
4.3361634e-05
4.4668987e-05
4.5905022e-05
4.7068987e-05
4.8160137e-05
4.9177634e-05
5.0120517e-05
5.0987701e-05
5.1777955e-05
5.2489921e-05
5.3122236e-05
5.367364e-05
5.4142883e-05
5.4528503e-05
5.4828654e-05
5.5041172e-05
5.516372e-05
5.5194883e-05
5.5132221e-05
5.497949e-05
5.4724538e-05
5.4399557e-05
5.398219e-05
5.3189539e-05
2.9731401e-05
2.9427112e-05
2.9112504e-05
2.8793863e-05
2.8472635e-05
2.8149111e-05
2.7823308e-05
2.7495177e-05
2.7164651e-05
2.6831655e-05
2.6496112e-05
2.6157937e-05
2.581704e-05
2.5473313e-05
2.5126638e-05
2.4776855e-05
2.4423779e-05
2.4067202e-05
2.37069e-05
2.334264e-05
2.2974184e-05
2.260131e-05
2.2223821e-05
2.1841567e-05
2.1454451e-05
2.1062435e-05
2.0665535e-05
2.0263815e-05
1.9857375e-05
1.9446337e-05
1.9030854e-05
1.8611111e-05
1.8187341e-05
1.7759814e-05
1.7328823e-05
1.6894702e-05
1.6457744e-05
1.6017858e-05
1.5575289e-05
1.5130283e-05
1.4682918e-05
1.4232935e-05
1.3780061e-05
1.3322914e-05
1.28576e-05
1.2378694e-05
1.1880299e-05
1.1357575e-05
1.0796616e-05
1.0180519e-05
9.4941155e-06
8.7193163e-06
7.8411263e-06
6.8601511e-06
5.8355624e-06
4.8492831e-06
4.0452906e-06
3.5926307e-06
3.7241885e-06
4.4355186e-06
5.8609407e-06
7.8949169e-06
1.0359455e-05
1.3024176e-05
1.5679799e-05
1.8231131e-05
2.0691091e-05
2.3100202e-05
2.54659e-05
2.7771538e-05
3.0007199e-05
3.2172635e-05
3.426586e-05
3.6281953e-05
3.8217411e-05
4.0070207e-05
4.1838279e-05
4.3519814e-05
4.511355e-05
4.6618409e-05
4.8033354e-05
4.9357357e-05
5.0589331e-05
5.1728117e-05
5.277248e-05
5.3721119e-05
5.4572785e-05
5.5326392e-05
5.5980929e-05
5.6535204e-05
5.6987631e-05
5.733624e-05
5.7578811e-05
5.7714014e-05
5.7739807e-05
5.7659868e-05
5.7464399e-05
5.7180381e-05
5.6806788e-05
5.6025081e-05
3.0227821e-05
2.9920118e-05
2.9601995e-05
2.927983e-05
2.8955092e-05
2.862808e-05
2.8298818e-05
2.7967264e-05
2.7633367e-05
2.7297075e-05
2.6958342e-05
2.6617134e-05
2.6273422e-05
2.5927189e-05
2.5578421e-05
2.5227106e-05
2.4873228e-05
2.4516762e-05
2.4157673e-05
2.379591e-05
2.343141e-05
2.306409e-05
2.2693862e-05
2.2320628e-05
2.1944288e-05
2.1564748e-05
2.1181917e-05
2.0795719e-05
2.0406088e-05
2.0012976e-05
1.9616355e-05
1.9216224e-05
1.8812616e-05
1.8405608e-05
1.7995324e-05
1.7581954e-05
1.7165733e-05
1.6746894e-05
1.6325714e-05
1.5902505e-05
1.5477603e-05
1.505126e-05
1.4623319e-05
1.4193665e-05
1.37618e-05
1.332675e-05
1.2887248e-05
1.2441722e-05
1.1987766e-05
1.1521614e-05
1.1038064e-05
1.0535204e-05
1.0009535e-05
9.4461182e-06
8.8343239e-06
8.1584108e-06
7.39153e-06
6.5227827e-06
5.5826476e-06
4.6689927e-06
3.9129132e-06
3.6679397e-06
4.0524705e-06
5.1925676e-06
7.1539725e-06
9.7155802e-06
1.2618326e-05
1.5581318e-05
1.845302e-05
2.1224908e-05
2.3933573e-05
2.6582853e-05
2.9152703e-05
3.1631812e-05
3.401865e-05
3.6310222e-05
3.8501865e-05
4.0590821e-05
4.2575465e-05
4.4453991e-05
4.6224832e-05
4.7886744e-05
4.943846e-05
5.0878714e-05
5.2206301e-05
5.3420029e-05
5.4518795e-05
5.5501714e-05
5.6368027e-05
5.7116821e-05
5.7746774e-05
5.8256113e-05
5.8642723e-05
5.8905286e-05
5.9042191e-05
5.9056782e-05
5.8942607e-05
5.871866e-05
5.8412801e-05
5.7668316e-05
3.0754544e-05
3.0442945e-05
3.0120805e-05
2.9794612e-05
2.9465858e-05
2.9134852e-05
2.8801619e-05
2.8466122e-05
2.8128312e-05
2.7788142e-05
2.7445569e-05
2.7100566e-05
2.6753112e-05
2.64032e-05
2.6050834e-05
2.5696022e-05
2.533878e-05
2.4979121e-05
2.4617059e-05
2.4252602e-05
2.3885746e-05
2.3516478e-05
2.3144772e-05
2.2770594e-05
2.2393894e-05
2.2014613e-05
2.1632684e-05
2.1248037e-05
2.0860598e-05
2.0470299e-05
2.0077079e-05
1.9680889e-05
1.92817e-05
1.8879503e-05
1.8474319e-05
1.8066211e-05
1.765528e-05
1.7241673e-05
1.6825574e-05
1.6407198e-05
1.5986774e-05
1.5564522e-05
1.5140573e-05
1.4714967e-05
1.4287626e-05
1.3858319e-05
1.342638e-05
1.2991239e-05
1.2552299e-05
1.210882e-05
1.1659836e-05
1.1204455e-05
1.0742055e-05
1.0271144e-05
9.7900709e-06
9.2957167e-06
8.7913285e-06
8.268535e-06
7.7141107e-06
7.1171457e-06
6.4384119e-06
5.6732221e-06
4.8386104e-06
4.0439555e-06
3.5622828e-06
3.785205e-06
4.8230485e-06
6.836783e-06
9.5767758e-06
1.2741376e-05
1.5986759e-05
1.9130312e-05
2.2159381e-05
2.5106888e-05
2.7969928e-05
3.0727376e-05
3.3370051e-05
3.5896828e-05
3.8304447e-05
4.0588781e-05
4.2747679e-05
4.477965e-05
4.6682893e-05
4.8455902e-05
5.0097524e-05
5.1606657e-05
5.2982336e-05
5.422389e-05
5.5330821e-05
5.6302485e-05
5.7137826e-05
5.7835262e-05
5.8392743e-05
5.8808847e-05
5.9082318e-05
5.9215832e-05
5.9207018e-05
5.9064495e-05
5.8850878e-05
5.8171658e-05
3.1305737e-05
3.0989793e-05
3.0663175e-05
3.0332487e-05
2.9999252e-05
2.9663783e-05
2.9326112e-05
2.8986204e-05
2.8644013e-05
2.8299491e-05
2.7952602e-05
2.7603316e-05
2.7251616e-05
2.6897496e-05
2.654096e-05
2.618202e-05
2.5820694e-05
2.5457003e-05
2.5090969e-05
2.4722608e-05
2.4351932e-05
2.3978943e-05
2.3603631e-05
2.3225978e-05
2.2845951e-05
2.2463506e-05
2.2078588e-05
2.1691133e-05
2.1301075e-05
2.0908346e-05
2.0512881e-05
2.0114628e-05
1.9713544e-05
1.93096e-05
1.8902789e-05
1.8493129e-05
1.8080668e-05
1.7665491e-05
1.7247717e-05
1.6827495e-05
1.6404986e-05
1.5980344e-05
1.5553687e-05
1.5125064e-05
1.4694436e-05
1.4261662e-05
1.3826473e-05
1.3388523e-05
1.2947452e-05
1.2502924e-05
1.2054652e-05
1.1602449e-05
1.114628e-05
1.0686273e-05
1.0222264e-05
9.7537037e-06
9.280921e-06
8.804522e-06
8.323637e-06
7.8346492e-06
7.3438364e-06
6.8496561e-06
6.3408597e-06
5.8027268e-06
5.1956143e-06
4.5133892e-06
3.8090623e-06
3.2850659e-06
3.5143066e-06
4.6361742e-06
6.8530524e-06
9.8686797e-06
1.3314074e-05
1.6800237e-05
2.0148327e-05
2.3360465e-05
2.646741e-05
2.9460245e-05
3.2319462e-05
3.5038837e-05
3.7617667e-05
4.0052681e-05
4.2340327e-05
4.4478967e-05
4.6467466e-05
4.8304538e-05
4.9989291e-05
5.1521305e-05
5.2900317e-05
5.4125924e-05
5.5197331e-05
5.6113129e-05
5.6871276e-05
5.7470073e-05
5.7908423e-05
5.818788e-05
5.8310576e-05
5.8272664e-05
5.817601e-05
5.759018e-05
3.187604e-05
3.1555359e-05
3.1223854e-05
3.0888262e-05
3.0550133e-05
3.0209793e-05
2.9867274e-05
2.9522546e-05
2.9175562e-05
2.882628e-05
2.8474663e-05
2.8120684e-05
2.7764324e-05
2.7405578e-05
2.7044449e-05
2.668095e-05
2.6315099e-05
2.5946918e-05
2.5576428e-05
2.520365e-05
2.4828596e-05
2.4451269e-05
2.4071664e-05
2.3689761e-05
2.3305529e-05
2.2918922e-05
2.2529881e-05
2.2138341e-05
2.1744227e-05
2.1347467e-05
2.094799e-05
2.0545735e-05
2.0140651e-05
1.9732701e-05
1.9321867e-05
1.8908152e-05
1.8491584e-05
1.8072223e-05
1.765016e-05
1.7225511e-05
1.679841e-05
1.6368986e-05
1.5937339e-05
1.5503518e-05
1.5067497e-05
1.4629158e-05
1.4188293e-05
1.3744622e-05
1.3297832e-05
1.2847626e-05
1.2393773e-05
1.1936155e-05
1.1474795e-05
1.1009886e-05
1.054177e-05
1.0070888e-05
9.5977951e-06
9.1231928e-06
8.6478924e-06
8.1725251e-06
7.6984751e-06
7.2241881e-06
6.749357e-06
6.2714947e-06
5.8045637e-06
5.3399372e-06
4.8775079e-06
4.3860245e-06
3.8429089e-06
3.2709287e-06
2.8517857e-06
3.2360391e-06
4.6134788e-06
7.1591172e-06
1.0506012e-05
1.4206121e-05
1.7861318e-05
2.133165e-05
2.4642352e-05
2.7820078e-05
3.0851931e-05
3.3721768e-05
3.6426063e-05
3.8964628e-05
4.1334833e-05
4.3534328e-05
4.5562537e-05
4.7419315e-05
4.9104429e-05
5.0617671e-05
5.195854e-05
5.3125767e-05
5.4117226e-05
5.4930735e-05
5.5565052e-05
5.6019997e-05
5.6302277e-05
5.6393606e-05
5.6438663e-05
5.5972823e-05
3.2460507e-05
3.213475e-05
3.1798012e-05
3.1457166e-05
3.1113796e-05
3.0768237e-05
3.0420526e-05
3.0070633e-05
2.9718515e-05
2.9364132e-05
2.9007446e-05
2.8648431e-05
2.828707e-05
2.7923357e-05
2.7557293e-05
2.718889e-05
2.6818166e-05
2.6445142e-05
2.606984e-05
2.5692279e-05
2.5312472e-05
2.4930422e-05
2.4546122e-05
2.415955e-05
2.3770672e-05
2.3379435e-05
2.2985776e-05
2.258962e-05
2.2190886e-05
2.178949e-05
2.1385352e-05
2.09784e-05
2.0568575e-05
2.0155829e-05
1.9740136e-05
1.9321488e-05
1.8899901e-05
1.8475422e-05
1.8048125e-05
1.7618112e-05
1.71855e-05
1.675041e-05
1.6312941e-05
1.5873149e-05
1.5431027e-05
1.4986482e-05
1.4539339e-05
1.408935e-05
1.3636228e-05
1.3179688e-05
1.2719499e-05
1.2255528e-05
1.1787772e-05
1.1316381e-05
1.0841658e-05
1.0364046e-05
9.8841176e-06
9.4025568e-06
8.9201607e-06
8.4378281e-06
7.9566007e-06
7.4775074e-06
7.0017964e-06
6.5303807e-06
6.0657436e-06
5.6091427e-06
5.1535799e-06
4.7087502e-06
4.2823826e-06
3.8700923e-06
3.4635651e-06
3.0338586e-06
2.5924037e-06
2.3793173e-06
3.0311449e-06
4.7845658e-06
7.7113709e-06
1.1368227e-05
1.5244805e-05
1.8975846e-05
2.2477776e-05
2.5794852e-05
2.8948519e-05
3.1925046e-05
3.471229e-05
3.7309453e-05
3.9717753e-05
4.1936049e-05
4.3963515e-05
4.5800438e-05
4.7446707e-05
4.8901046e-05
5.0161141e-05
5.1224154e-05
5.2088314e-05
5.2750938e-05
5.3222996e-05
5.3469688e-05
5.3681513e-05
5.3359783e-05
3.3054648e-05
3.2723535e-05
3.2381273e-05
3.2034883e-05
3.1685986e-05
3.1334924e-05
3.0981738e-05
3.0626401e-05
3.0268873e-05
2.9909112e-05
2.9547084e-05
2.9182763e-05
2.8816132e-05
2.8447181e-05
2.8075914e-05
2.770234e-05
2.7326474e-05
2.6948337e-05
2.656795e-05
2.618533e-05
2.5800489e-05
2.5413429e-05
2.502414e-05
2.4632596e-05
2.4238758e-05
2.3842569e-05
2.344396e-05
2.3042847e-05
2.2639142e-05
2.2232751e-05
2.1823587e-05
2.1411567e-05
2.0996624e-05
2.0578702e-05
2.0157764e-05
1.9733796e-05
1.9306804e-05
1.8876824e-05
1.8443919e-05
1.8008177e-05
1.7569706e-05
1.712862e-05
1.6685021e-05
1.6238974e-05
1.579049e-05
1.5339504e-05
1.4885873e-05
1.442938e-05
1.3969763e-05
1.3506753e-05
1.304012e-05
1.2569716e-05
1.209551e-05
1.1617612e-05
1.1136268e-05
1.0651865e-05
1.0164908e-05
9.6760174e-06
9.1859208e-06
8.695457e-06
8.2055916e-06
7.7174264e-06
7.2322383e-06
6.7514722e-06
6.2766998e-06
5.8098436e-06
5.3523509e-06
4.9061161e-06
4.4750993e-06
4.0566407e-06
3.6464917e-06
3.2665515e-06
2.905309e-06
2.5781146e-06
2.245115e-06
1.9247603e-06
1.9892957e-06
2.976125e-06
5.1480283e-06
8.4145116e-06
1.22831e-05
1.6222939e-05
1.9928601e-05
2.3368076e-05
2.6595636e-05
2.9630328e-05
3.2461022e-05
3.5079339e-05
3.7486843e-05
3.968607e-05
4.167639e-05
4.3455983e-05
4.5022584e-05
4.6372722e-05
4.7503634e-05
4.8409222e-05
4.9104071e-05
4.9534527e-05
4.9939394e-05
4.9783651e-05
3.3654504e-05
3.3317805e-05
3.2969784e-05
3.2617618e-05
3.2262962e-05
3.1906169e-05
3.1547285e-05
3.1186283e-05
3.0823126e-05
3.0457773e-05
3.0090192e-05
2.9720356e-05
2.9348247e-05
2.8973857e-05
2.8597185e-05
2.8218239e-05
2.7837034e-05
2.7453587e-05
2.7067918e-05
2.668004e-05
2.6289964e-05
2.5897687e-05
2.5503195e-05
2.5106459e-05
2.4707434e-05
2.4306057e-05
2.3902253e-05
2.3495931e-05
2.3086997e-05
2.267535e-05
2.2260895e-05
2.1843544e-05
2.1423221e-05
2.0999866e-05
2.0573436e-05
2.0143909e-05
1.9711287e-05
1.9275594e-05
1.8836884e-05
1.8395235e-05
1.7950746e-05
1.7503525e-05
1.7053673e-05
1.6601264e-05
1.6146326e-05
1.5688819e-05
1.5228627e-05
1.4765566e-05
1.4299398e-05
1.3829874e-05
1.3356768e-05
1.2879924e-05
1.2399291e-05
1.1914938e-05
1.1427069e-05
1.0936012e-05
1.044221e-05
9.9462177e-06
9.4486956e-06
8.950418e-06
8.4522906e-06
7.9553715e-06
7.460891e-06
6.970272e-06
6.4851297e-06
6.0072655e-06
5.5386569e-06
5.0813969e-06
4.6376685e-06
4.2096728e-06
3.7987091e-06
3.4078928e-06
3.0391817e-06
2.6822333e-06
2.3638217e-06
2.0557476e-06
1.8423913e-06
1.5748004e-06
1.3789079e-06
1.7548916e-06
3.0761767e-06
5.6109572e-06
9.0924254e-06
1.3029655e-05
1.6911312e-05
2.0495813e-05
2.3783681e-05
2.6832738e-05
2.9664645e-05
3.2272285e-05
3.4648431e-05
3.6793466e-05
3.8707433e-05
4.0385818e-05
4.1823984e-05
4.3011657e-05
4.3966323e-05
4.4612755e-05
4.5239959e-05
4.5271688e-05
3.4256691e-05
3.3914224e-05
3.3560259e-05
3.3202132e-05
3.2841537e-05
3.2478837e-05
3.2114081e-05
3.1747246e-05
3.1378294e-05
3.1007189e-05
3.0633896e-05
3.025839e-05
2.9880653e-05
2.9500674e-05
2.9118452e-05
2.8733994e-05
2.834731e-05
2.7958417e-05
2.756733e-05
2.717406e-05
2.6778612e-05
2.6380979e-05
2.5981141e-05
2.5579063e-05
2.5174693e-05
2.4767963e-05
2.4358789e-05
2.3947077e-05
2.3532725e-05
2.3115629e-05
2.2695688e-05
2.2272809e-05
2.1846915e-05
2.141794e-05
2.0985838e-05
2.0550583e-05
2.0112172e-05
1.9670625e-05
1.9225986e-05
1.8778326e-05
1.8327733e-05
1.7874311e-05
1.7418157e-05
1.6959354e-05
1.6497941e-05
1.6033898e-05
1.5567139e-05
1.5097504e-05
1.4624784e-05
1.4148748e-05
1.3669179e-05
1.3185917e-05
1.2698893e-05
1.2208149e-05
1.1713844e-05
1.1216256e-05
1.0715769e-05
1.0212875e-05
9.7081662e-06
9.2023518e-06
8.6962765e-06
8.1909466e-06
7.6875536e-06
7.1874946e-06
6.6923838e-06
6.2040474e-06
5.7244894e-06
5.2558669e-06
4.800423e-06
4.3604304e-06
3.9381737e-06
3.5356663e-06
3.1550986e-06
2.7970651e-06
2.4642604e-06
2.15772e-06
1.8712094e-06
1.6183503e-06
1.3962308e-06
1.2036332e-06
1.0502043e-06
1.0056369e-06
1.6618886e-06
3.2375559e-06
5.9774921e-06
9.5095423e-06
1.3366014e-05
1.7084333e-05
2.0470824e-05
2.353475e-05
2.6332355e-05
2.8889952e-05
3.1201813e-05
3.3255471e-05
3.5045509e-05
3.6559308e-05
3.7816772e-05
3.8717682e-05
3.9602235e-05
3.9846434e-05
3.485839e-05
3.4510017e-05
3.4149967e-05
3.3785742e-05
3.3419073e-05
3.3050336e-05
3.2679581e-05
3.230679e-05
3.1931924e-05
3.1554949e-05
3.1175832e-05
3.0794548e-05
3.0411076e-05
3.0025407e-05
2.9637538e-05
2.9247473e-05
2.8855222e-05
2.8460795e-05
2.8064205e-05
2.7665458e-05
2.7264553e-05
2.6861477e-05
2.6456202e-05
2.6048686e-05
2.5638869e-05
2.5226675e-05
2.4812014e-05
2.4394787e-05
2.3974885e-05
2.3552203e-05
2.3126636e-05
2.2698091e-05
2.2266486e-05
2.1831756e-05
2.1393854e-05
2.0952754e-05
2.0508448e-05
2.0060952e-05
1.9610307e-05
1.9156573e-05
1.8699833e-05
1.8240183e-05
1.777772e-05
1.7312527e-05
1.6844656e-05
1.6374104e-05
1.5900806e-05
1.5424631e-05
1.4945392e-05
1.4462878e-05
1.3976884e-05
1.348725e-05
1.2993893e-05
1.2496831e-05
1.1996187e-05
1.1492191e-05
1.0985175e-05
1.0475567e-05
9.9638934e-06
9.4507966e-06
8.9370566e-06
8.423622e-06
7.9116392e-06
7.4024759e-06
6.8977371e-06
6.3992641e-06
5.9090988e-06
5.4294537e-06
4.9626583e-06
4.5110832e-06
4.0770825e-06
3.6628949e-06
3.2705623e-06
2.9019457e-06
2.5583859e-06
2.2414351e-06
1.9502346e-06
1.6875468e-06
1.4476483e-06
1.2359606e-06
1.0517492e-06
9.0561683e-07
7.511119e-07
6.9300493e-07
7.8957312e-07
1.6129307e-06
3.2898263e-06
6.0195233e-06
9.4282794e-06
1.3069434e-05
1.6546121e-05
1.9680998e-05
2.246255e-05
2.4935401e-05
2.7127625e-05
2.9023778e-05
3.0638699e-05
3.184284e-05
3.3028624e-05
3.3520454e-05
3.5457311e-05
3.5102933e-05
3.4736699e-05
3.4366277e-05
3.3993441e-05
3.3618575e-05
3.3241735e-05
3.2862903e-05
3.2482044e-05
3.2099123e-05
3.1714109e-05
3.1326975e-05
3.0937703e-05
3.0546282e-05
3.0152707e-05
2.975698e-05
2.9359108e-05
2.8959099e-05
2.8556959e-05
2.815269e-05
2.7746282e-05
2.7337714e-05
2.6926951e-05
2.651394e-05
2.6098612e-05
2.5680884e-05
2.526066e-05
2.4837833e-05
2.4412293e-05
2.3983932e-05
2.3552643e-05
2.3118335e-05
2.2680925e-05
2.224035e-05
2.1796564e-05
2.1349541e-05
2.0899272e-05
2.0445772e-05
1.9989077e-05
1.9529242e-05
1.9066343e-05
1.860047e-05
1.8131715e-05
1.7660165e-05
1.7185878e-05
1.6708867e-05
1.6229086e-05
1.5746427e-05
1.5260728e-05
1.4771795e-05
1.4279437e-05
1.3783494e-05
1.3283877e-05
1.2780583e-05
1.2273703e-05
1.1763428e-05
1.1250038e-05
1.07339e-05
1.0215479e-05
9.6953477e-06
9.1742192e-06
8.6529802e-06
8.1327254e-06
7.6147861e-06
7.10075e-06
6.5924649e-06
6.0920032e-06
5.6016324e-06
5.1237587e-06
4.6608528e-06
4.2153716e-06
3.7896775e-06
3.385948e-06
3.0061182e-06
2.6517819e-06
2.3241729e-06
2.0240581e-06
1.7518721e-06
1.5072366e-06
1.2894033e-06
1.0989345e-06
9.2718669e-07
7.8442229e-07
6.646507e-07
5.670148e-07
4.9780758e-07
4.8142345e-07
6.5809474e-07
1.4761278e-06
3.0632826e-06
5.5539715e-06
8.6668828e-06
1.1957191e-05
1.5109468e-05
1.7921994e-05
2.0322494e-05
2.2365474e-05
2.393128e-05
2.5474722e-05
2.6273386e-05
3.6051619e-05
3.5691172e-05
3.5318689e-05
3.4942009e-05
3.4562947e-05
3.4181897e-05
3.3798921e-05
3.3413999e-05
3.3027101e-05
3.2638191e-05
3.2247239e-05
3.1854219e-05
3.1459114e-05
3.1061909e-05
3.0662601e-05
3.0261189e-05
2.9857676e-05
2.9452066e-05
2.904436e-05
2.8634552e-05
2.8222623e-05
2.7808543e-05
2.7392266e-05
2.6973729e-05
2.6552854e-05
2.6129549e-05
2.5703711e-05
2.527523e-05
2.4843993e-05
2.4409889e-05
2.3972815e-05
2.353268e-05
2.3089404e-05
2.2642926e-05
2.2193205e-05
2.1740213e-05
2.1283946e-05
2.0824417e-05
2.0361659e-05
1.9895722e-05
1.9426676e-05
1.8954604e-05
1.8479598e-05
1.8001743e-05
1.7521101e-05
1.7037699e-05
1.6551509e-05
1.6062442e-05
1.5570358e-05
1.5075082e-05
1.4576435e-05
1.4074263e-05
1.3568471e-05
1.3059039e-05
1.2546035e-05
1.202961e-05
1.1509998e-05
1.0987514e-05
1.0462557e-05
9.9356329e-06
9.4073869e-06
8.8786396e-06
8.3504287e-06
7.8240424e-06
7.3010439e-06
6.7832789e-06
6.272843e-06
5.772052e-06
5.2833839e-06
4.8094025e-06
4.3526741e-06
3.91568e-06
3.5007274e-06
3.1098674e-06
2.7448232e-06
2.4069223e-06
2.0970705e-06
1.8156892e-06
1.5627618e-06
1.3377325e-06
1.1398067e-06
9.6703058e-07
8.1842702e-07
6.9230696e-07
5.8303976e-07
4.9506994e-07
4.2506879e-07
3.6713569e-07
3.371327e-07
3.5230973e-07
5.406079e-07
1.1778625e-06
2.4956858e-06
4.5139526e-06
7.0905668e-06
9.809365e-06
1.2445225e-05
1.4610602e-05
1.6696198e-05
1.7959946e-05
3.6639862e-05
3.6273312e-05
3.5894547e-05
3.5511579e-05
3.5126263e-05
3.4739005e-05
3.4349868e-05
3.3958838e-05
3.3565883e-05
3.317097e-05
3.2774068e-05
3.2375154e-05
3.1974207e-05
3.1571217e-05
3.1166175e-05
3.0759079e-05
3.034993e-05
2.9938725e-05
2.9525458e-05
2.9110115e-05
2.8692667e-05
2.8273073e-05
2.7851275e-05
2.7427198e-05
2.7000756e-05
2.6571847e-05
2.6140363e-05
2.570619e-05
2.5269215e-05
2.4829327e-05
2.4386425e-05
2.3940421e-05
2.3491242e-05
2.3038829e-05
2.2583144e-05
2.2124165e-05
2.1661889e-05
2.1196328e-05
2.0727514e-05
2.0255494e-05
1.9780333e-05
1.9302108e-05
1.8820906e-05
1.8336811e-05
1.7849891e-05
1.7360181e-05
1.6867667e-05
1.637228e-05
1.5873899e-05
1.5372369e-05
1.4867521e-05
1.4359209e-05
1.3847335e-05
1.3331867e-05
1.2812851e-05
1.2290406e-05
1.1764726e-05
1.1236072e-05
1.0704785e-05
1.0171305e-05
9.6362061e-06
9.1002415e-06
8.5643874e-06
8.0298826e-06
7.4982588e-06
6.9713522e-06
6.4512738e-06
5.9403807e-06
5.4412171e-06
4.9564353e-06
4.4887078e-06
4.0406348e-06
3.6146492e-06
3.2129289e-06
2.837318e-06
2.48926e-06
2.1697503e-06
1.879302e-06
1.6179393e-06
1.3852041e-06
1.1801736e-06
1.0015508e-06
8.4762641e-07
7.1650689e-07
6.0579237e-07
5.1357664e-07
4.3620094e-07
3.7373448e-07
3.2440112e-07
2.871316e-07
2.5707811e-07
2.4241706e-07
2.6610905e-07
4.0446827e-07
7.7146509e-07
1.6420762e-06
2.9519419e-06
4.4802968e-06
6.5135407e-06
8.0457644e-06
3.7220893e-05
3.6848232e-05
3.646318e-05
3.607392e-05
3.5682349e-05
3.5288883e-05
3.4893589e-05
3.4496456e-05
3.4097451e-05
3.3696543e-05
3.3293704e-05