/*--------------------------------*- C++ -*----------------------------------*\
  =========                 |
  \\      /  F ield         | OpenFOAM: The Open Source CFD Toolbox
   \\    /   O peration     | Website:  https://openfoam.org
    \\  /    A nd           | Version:  12
     \\/     M anipulation  |
\*---------------------------------------------------------------------------*/
FoamFile
{
    format      ascii;
    class       volScalarField;
    location    "100";
    object      p;
}
// * * * * * * * * * * * * * * * * * * * * * * * * * * * * * * * * * * * * * //

dimensions      [0 2 -2 0 0 0 0];

internalField   nonuniform List<scalar> 
7480
(
0.0066898227
0.0067263626
0.0066922164
0.0066824159
0.0067052544
0.0067232338
0.006727872
0.0066998214
0.0066323726
0.0065456922
0.006432176
0.006291656
0.006129312
0.0059509806
0.0057626584
0.0055694959
0.0053780986
0.005188741
0.005004952
0.0048314541
0.0046675701
0.0045112497
0.0043668983
0.0042366473
0.0041203082
0.0040185558
0.0039318146
0.0038599651
0.0038021068
0.0037559242
0.003719774
0.0036908472
0.0036639559
0.0036352771
0.0036024388
0.0035647342
0.003522772
0.0034786867
0.0034345511
0.0033910827
0.0033483435
0.003306057
0.0032641394
0.003223564
0.0031848746
0.0031470561
0.0031092041
0.0030712572
0.0030339948
0.0029978374
0.0029619615
0.0029259467
0.0028903007
0.0028558082
0.0028224352
0.0027898031
0.0027582799
0.0027284425
0.0027002789
0.0026734287
0.0026482677
0.0026249283
0.0026029528
0.0025820083
0.0025620673
0.0025427198
0.0025230704
0.0025028625
0.0024815203
0.0024581237
0.0024324397
0.0024040984
0.0023725161
0.002337871
0.002300255
0.0022596087
0.0022164379
0.0021711438
0.0021238328
0.002074928
0.0020246984
0.0019731082
0.0019203717
0.001866601
0.0018118454
0.0017564559
0.0017007558
0.001645078
0.0015898921
0.0015354338
0.0014816046
0.001427949
0.0013735821
0.0013167081
0.0012568526
0.0011881549
0.001130665
0.0010171456
0.0013430345
-0.00048858061
0.0066113216
0.0066445719
0.0066113419
0.0066205557
0.0066529103
0.0066748511
0.0066711659
0.0066440542
0.0065992709
0.0065301043
0.0064329834
0.0063088538
0.0061619123
0.005997042
0.0058195012
0.0056343026
0.0054471726
0.0052599864
0.0050761299
0.0049010721
0.0047353163
0.004576813
0.0044287898
0.0042938058
0.0041730115
0.0040669288
0.003975718
0.0038992108
0.0038364177
0.0037848249
0.0037430044
0.0037088193
0.0036775903
0.0036457158
0.0036109276
0.0035723732
0.0035303566
0.0034867299
0.0034432022
0.0034001793
0.0033575722
0.0033150556
0.0032726732
0.0032315358
0.0031923132
0.00315403
0.0031157656
0.003077438
0.0030398294
0.0030033615
0.0029672009
0.0029309237
0.0028950318
0.0028603017
0.0028266941
0.0027938322
0.0027620883
0.0027320399
0.002703674
0.0026766312
0.0026512917
0.002627789
0.0026056658
0.0025845914
0.0025645393
0.0025450988
0.0025253736
0.0025051073
0.0024837214
0.0024602936
0.002434589
0.0024062344
0.0023746431
0.0023399916
0.0023023692
0.0022617151
0.002218535
0.0021732294
0.0021259051
0.0020769866
0.0020267432
0.0019751403
0.0019223933
0.0018686146
0.001813854
0.0017584628
0.0017027644
0.0016470923
0.0015919167
0.0015374743
0.001483668
0.0014300438
0.0013757186
0.0013188961
0.0012591076
0.0011904763
0.0011330317
0.0010199877
0.0013464831
-0.00048567835
0.0065516012
0.0065980589
0.006586751
0.0066000805
0.0066275278
0.0066423714
0.0066348491
0.0066089354
0.006562687
0.0064876882
0.0063850484
0.0062568073
0.0061068069
0.0059399268
0.0057615318
0.0055767441
0.0053911066
0.0052069232
0.005027351
0.004857313
0.0046972571
0.0045458064
0.0044047906
0.0042767
0.0041631892
0.0040643748
0.0039802654
0.0039103986
0.0038535227
0.0038074614
0.0037692508
0.0037358499
0.0037038781
0.0036701936
0.003632923
0.0035916293
0.0035468749
0.0035006096
0.0034546145
0.0034093945
0.0033650452
0.0033213777
0.003278458
0.0032371968
0.0031980772
0.0031599217
0.0031216386
0.0030830938
0.0030451693
0.0030083908
0.002971945
0.0029354069
0.002899279
0.0028643349
0.0028305284
0.0027974832
0.002765574
0.0027353727
0.0027068595
0.002679674
0.0026542018
0.0026305756
0.002608337
0.0025871584
0.0025670146
0.0025474948
0.002527702
0.0025073815
0.0024859526
0.0024624911
0.0024367621
0.0024083885
0.0023767815
0.0023421168
0.002304481
0.0022638123
0.0022206168
0.0021752941
0.0021279515
0.002079015
0.0020287543
0.0019771354
0.0019243748
0.0018705848
0.0018158155
0.0017604184
0.0017047167
0.0016490443
0.0015938724
0.0015394385
0.0014856474
0.0014320472
0.001377757
0.0013209804
0.0012612553
0.0011926833
0.0011353545
0.0010227913
0.0013494745
-0.00048254487
0.0064959085
0.0065490928
0.0065484173
0.006559724
0.0065826115
0.0065954469
0.0065888403
0.0065635971
0.0065172775
0.006444932
0.0063478191
0.0062271578
0.0060857755
0.0059278917
0.0057583243
0.0055817578
0.0054031175
0.0052248813
0.0050499515
0.0048827346
0.0047237207
0.0045725691
0.0044306421
0.0043005915
0.0041841408
0.0040815708
0.0039931381
0.0039187128
0.0038575677
0.0038083338
0.0037678097
0.0037328223
0.0037008487
0.0036687335
0.0036341335
0.0035961965
0.0035553153
0.0035124392
0.0034686636
0.0034247144
0.0033807098
0.0033365306
0.0032921864
0.0032486215
0.003206842
0.0031664045
0.0031266569
0.0030874144
0.003049335
0.0030126918
0.0029763889
0.0029398399
0.0029035724
0.0028684532
0.0028344737
0.00280126
0.0027691924
0.0027388419
0.002710186
0.0026828657
0.0026572723
0.0026335339
0.0026111892
0.0025899136
0.0025696829
0.0025500853
0.0025302221
0.0025098416
0.0024883603
0.0024648525
0.0024390842
0.0024106751
0.0023790342
0.0023443378
0.0023066701
0.0022659684
0.0022227401
0.0021773841
0.002130008
0.0020810396
0.0020307484
0.0019791009
0.0019263148
0.0018725016
0.0018177114
0.0017622961
0.0017065786
0.0016508932
0.0015957122
0.0015412743
0.001487486
0.0014338978
0.0013796308
0.0013228887
0.001263215
0.0011946927
0.0011374741
0.0010248984
0.0013518646
-0.00047962896
0.0064430238
0.0064997307
0.0065084061
0.0065213602
0.0065429912
0.006555122
0.0065484164
0.0065227896
0.0064768849
0.0064068844
0.006312767
0.0061954568
0.0060575849
0.0059031964
0.0057369352
0.0055633196
0.0053870058
0.0052108934
0.0050379191
0.0048722158
0.0047144755
0.0045651919
0.0044252932
0.0042972252
0.0041826253
0.0040818535
0.0039950772
0.0039220541
0.0038619683
0.0038132109
0.0037725969
0.0037369984
0.0037039131
0.0036703273
0.0036340753
0.0035945833
0.0035526033
0.0035090783
0.003465176
0.0034220428
0.0033800303
0.0033389826
0.0032985619
0.0032584802
0.0032186215
0.0031787397
0.0031385548
0.0030979408
0.0030578099
0.0030190639
0.0029811822
0.0029437524
0.0029071568
0.0028720595
0.0028381963
0.0028050139
0.0027728876
0.0027424459
0.0027136907
0.0026862631
0.0026605642
0.0026367215
0.0026142756
0.0025929074
0.0025725922
0.0025529166
0.0025329798
0.0025125345
0.0024909935
0.0024674293
0.00244161
0.002413152
0.0023814625
0.0023467192
0.0023090041
0.0022682541
0.0022249785
0.0021795754
0.0021321528
0.0020831404
0.0020328073
0.0019811203
0.0019282981
0.0018744512
0.0018196296
0.0017641859
0.0017084425
0.0016527345
0.0015975358
0.001543086
0.0014892935
0.0014357112
0.001381462
0.0013247497
0.001265121
0.0011966449
0.0011395093
0.0010267816
0.0013538702
-0.00047632655
0.0063929867
0.0064512669
0.0064676954
0.0064825732
0.0065024328
0.0065129384
0.0065055874
0.0064798829
0.006434762
0.0063668296
0.0062755328
0.0061619362
0.0060285653
0.0058791577
0.0057180381
0.0055494852
0.0053778729
0.0052062304
0.0050373421
0.0048751428
0.0047199522
0.0045731478
0.0044352468
0.0043085367
0.0041946488
0.0040940847
0.0040070133
0.0039331995
0.0038718615
0.0038214844
0.0037791576
0.0037419579
0.0037074725
0.0036728818
0.003636124
0.0035965827
0.0035548165
0.0035115724
0.0034677217
0.0034241395
0.0033811883
0.0033389098
0.0032973989
0.0032565696
0.0032164818
0.0031774803
0.0031394445
0.0031018915
0.0030645473
0.0030272695
0.0029897785
0.0029519128
0.0029141263
0.0028775506
0.0028424537
0.00280854
0.0027761266
0.0027456847
0.0027170029
0.0026895891
0.0026638529
0.0026399522
0.0026174356
0.0025959916
0.0025755987
0.002555846
0.0025358334
0.0025153195
0.0024937126
0.0024700841
0.0024442058
0.0024156901
0.0023839422
0.0023491424
0.0023113704
0.0022705622
0.0022272298
0.0021817705
0.0021342924
0.0020852276
0.0020348441
0.001983109
0.0019302422
0.0018763529
0.0018214911
0.0017660102
0.0017102321
0.0016544931
0.0015992688
0.0015447998
0.0014909962
0.0014374134
0.0013831756
0.0013264864
0.0012668942
0.0011984576
0.0011413753
0.0010285075
0.0013552866
-0.00047243942
0.0063452364
0.0064036634
0.0064260611
0.0064427822
0.0064611023
0.0064702724
0.0064626576
0.0064372335
0.0063929858
0.0063270367
0.0062386633
0.0061289012
0.00600004
0.0058554591
0.0056991717
0.005535245
0.0053678042
0.0051999363
0.0050343787
0.0048747009
0.0047216881
0.0045766708
0.0044403106
0.0043147369
0.0042015598
0.0041013472
0.0040142631
0.0039400961
0.0038780914
0.0038268038
0.0037835445
0.003745484
0.0037102189
0.0036750661
0.0036380149
0.0035983749
0.0035565871
0.0035133083
0.0034693386
0.0034255986
0.0033825946
0.003340422
0.0032990963
0.0032583687
0.0032181062
0.00317856
0.003139685
0.0031013768
0.0030634865
0.0030260346
0.0029893632
0.0029533836
0.0029179062
0.0028829842
0.0028485851
0.002814661
0.0027815464
0.0027501097
0.0027205763
0.0026926725
0.002666775
0.0026428905
0.002620398
0.0025989363
0.0025785043
0.002558702
0.0025386266
0.0025180482
0.0024963742
0.0024726774
0.0024467361
0.0024181577
0.0023863462
0.0023514856
0.0023136522
0.0022727813
0.0022293878
0.0021838675
0.0021363286
0.0020872059
0.002036766
0.0019849762
0.0019320579
0.0018781187
0.0018232089
0.001767683
0.0017118621
0.001656084
0.0016008259
0.0015463293
0.0014925062
0.0014389137
0.0013846772
0.0013280002
0.0012684305
0.0012000212
0.0011429587
0.0010299371
0.0013558861
-0.00046797875
0.0062994012
0.0063569563
0.0063837525
0.006402206
0.0064193272
0.0064273274
0.0064194715
0.006394324
0.0063509286
0.0062869084
0.0062014434
0.0060954342
0.0059709558
0.0058310938
0.005679587
0.0055202982
0.0053571216
0.0051931559
0.005031099
0.0048742199
0.0047236539
0.0045806756
0.0044461099
0.0043218996
0.00420961
0.004109865
0.0040228433
0.0039483586
0.0038856958
0.0038334659
0.0037891624
0.0037500662
0.0037138141
0.0036778673
0.0036402811
0.0036003283
0.003558362
0.0035149914
0.0034710034
0.0034273088
0.00338438
0.0033422588
0.0033009017
0.0032600609
0.0032196558
0.0031799891
0.0031410732
0.0031027822
0.0030648346
0.0030271413
0.0029900163
0.0029534923
0.0029175645
0.0028823411
0.0028482504
0.0028155724
0.0027841904
0.0027540956
0.0027251829
0.0026972776
0.0026708326
0.0026462437
0.0026232202
0.0026015018
0.0025810196
0.0025612312
0.002541143
0.0025205354
0.0024988225
0.002475074
0.0024490787
0.0024204427
0.0023885703
0.0023536511
0.0023157581
0.0022748254
0.0022313719
0.0021857909
0.0021381905
0.0020890081
0.0020385092
0.0019866611
0.0019336869
0.0018796927
0.0018247291
0.0017691519
0.0017132816
0.0016574571
0.0016021576
0.001547625
0.0014937727
0.0014401598
0.0013859121
0.001329233
0.0012696678
0.0012012696
0.0011441877
0.001030973
0.0013555016
-0.00046290101
0.0062551431
0.0063111251
0.0063409884
0.0063609448
0.0063771176
0.0063840497
0.006375965
0.006351158
0.0063086925
0.0062465942
0.0061640011
0.0060616694
0.0059414924
0.005806295
0.0056595468
0.005504897
0.0053460214
0.0051859912
0.0050274652
0.0048734657
0.0047253753
0.0045844691
0.0044516931
0.0043288368
0.0042174252
0.0041181377
0.0040311744
0.0039563729
0.0038930568
0.003839894
0.0037945482
0.0037544211
0.0037172051
0.0036804937
0.0036424126
0.0036022034
0.0035601273
0.0035167473
0.0034728146
0.0034291665
0.0033862195
0.0033440182
0.003302542
0.0032615977
0.0032211436
0.0031814512
0.0031425211
0.0031042019
0.0030661992
0.0030284571
0.0029912927
0.0029547494
0.0029187641
0.0028833693
0.0028489682
0.0028158924
0.0027841365
0.0027537659
0.0027250835
0.0026982503
0.0026730998
0.0026493843
0.0026267364
0.0026048345
0.0025838406
0.0025635682
0.0025432126
0.0025225338
0.0025008308
0.0024770803
0.0024510714
0.0024224141
0.0023905072
0.0023555481
0.002317609
0.0022766243
0.0022331181
0.002187482
0.0021398234
0.0020905838
0.0020400268
0.0019881199
0.0019350885
0.0018810369
0.0018260165
0.0017703843
0.0017144601
0.0016585837
0.0016032363
0.0015486596
0.0014947683
0.001441123
0.0013868497
0.0013301521
0.0012705709
0.0012021645
0.0011450202
0.0010315612
0.0013540066
-0.00045709825
0.0062121683
0.0062661184
0.0062979428
0.0063190903
0.0063345049
0.0063404815
0.0063321985
0.0063077932
0.0062663114
0.0062061031
0.0061263223
0.0060275922
0.0059116347
0.0057810324
0.0056389942
0.0054889562
0.0053343909
0.0051783143
0.0050233444
0.0048723024
0.0047267472
0.0045879776
0.0044570322
0.0043355802
0.0042251025
0.0041263229
0.0040394655
0.0039643907
0.0039004608
0.0038464045
0.003800045
0.0037589092
0.003720752
0.0036832869
0.0036447096
0.0036042345
0.0035620357
0.0035186275
0.0034747126
0.0034310585
0.0033880605
0.0033457854
0.0033042287
0.0032632303
0.0032227491
0.0031830064
0.0031440022
0.0031055966
0.0030675266
0.0030297501
0.0029925549
0.0029559856
0.002919978
0.0028845746
0.0028501644
0.0028170564
0.0027852107
0.0027546419
0.0027256434
0.002698471
0.0026729394
0.002649025
0.0026267961
0.0026059003
0.0025858424
0.0025660512
0.0025456965
0.0025246525
0.0025025509
0.0024785776
0.0024525179
0.0024238869
0.002392
0.0023570494
0.0023191082
0.0022781047
0.002234569
0.0021888942
0.0021411878
0.0020918978
0.0020412869
0.0019893232
0.0019362356
0.0018821269
0.0018270488
0.0017713603
0.0017153797
0.0016594478
0.001604047
0.0015494188
0.0014954784
0.0014417881
0.0013874737
0.0013307391
0.0012711193
0.0012026833
0.0011454303
0.0010316642
0.0013513485
-0.00045045012
0.0061702409
0.0062218711
0.0062547549
0.0062767444
0.0062915348
0.0062966668
0.0062882106
0.0062642475
0.006223789
0.0061654451
0.0060884223
0.0059932234
0.0058814035
0.0057553215
0.0056179391
0.0054724833
0.0053222342
0.0051701313
0.0050187471
0.0048707366
0.0047277778
0.0045912051
0.0044621314
0.0043421297
0.004232634
0.0041344027
0.0040476875
0.0039723734
0.0039078618
0.0038529446
0.0038055948
0.0037634657
0.0037243799
0.0036861623
0.003647079
0.0036063229
0.0035639887
0.0035205397
0.003476629
0.0034329656
0.0033899292
0.0033475998
0.003305977
0.0032649227
0.0032243965
0.0031845881
0.0031455054
0.0031070219
0.0030689004
0.0030310923
0.002993852
0.0029572373
0.0029212
0.0028857866
0.0028513594
0.0028182117
0.00278632
0.0027557094
0.0027266644
0.0026993988
0.0026736979
0.002649512
0.0026269047
0.0026056411
0.0025852725
0.002565575
0.0025459721
0.0025257849
0.0025041764
0.002480288
0.0024539624
0.0024250218
0.0023929764
0.0023580121
0.0023201166
0.0022791499
0.0022356337
0.002189963
0.0021422409
0.002092921
0.0020422695
0.0019902568
0.0019371173
0.0018829533
0.0018278182
0.0017720732
0.0017160348
0.0016600443
0.0016045854
0.0015498983
0.0014958986
0.0014421499
0.0013877772
0.0013309856
0.0012713023
0.0012028126
0.0011454023
0.0010312504
0.0013474142
-0.00044282025
0.0061291698
0.006178309
0.0062115316
0.0062340091
0.0062482549
0.0062526437
0.0062440372
0.0062205452
0.0061811429
0.0061246431
0.0060503227
0.0059585812
0.0058508136
0.0057291725
0.0055963872
0.0054554793
0.005309545
0.0051614314
0.0050136591
0.004868744
0.0047284397
0.0045941214
0.0044669611
0.0043484549
0.004239989
0.0041423478
0.0040558146
0.0039802995
0.0039152426
0.0038595013
0.0038111896
0.0037680864
0.0037280876
0.0036891233
0.0036495288
0.0036084816
0.0035660038
0.0035225065
0.0034785936
0.0034349208
0.0033918491
0.0033494662
0.0033077742
0.0032666567
0.0032260789
0.0031862053
0.0031470486
0.003108492
0.0030703183
0.0030324749
0.0029951891
0.0029585331
0.0029224691
0.0028870413
0.0028525854
0.0028193874
0.0027874484
0.002756796
0.0027276925
0.0027003351
0.0026745349
0.0026502417
0.0026275147
0.0026060858
0.0025854436
0.00256538
0.0025454196
0.0025249035
0.0025032858
0.0024800368
0.002454511
0.0024260524
0.0023941142
0.0023589437
0.0023208046
0.0022797299
0.0022362184
0.0021905909
0.0021428998
0.0020935912
0.0020429345
0.0019908993
0.0019377249
0.0018835162
0.0018283295
0.00177253
0.0017164335
0.0016603815
0.001604859
0.0015501046
0.0014960339
0.0014422112
0.0013877613
0.0013308901
0.0012711159
0.0012025453
0.0011449258
0.0010302868
0.0013421163
-0.00043405755
0.0060887985
0.0061353571
0.0061683531
0.0061909817
0.0062047161
0.0062084501
0.006199716
0.0061767145
0.0061383924
0.0060837169
0.0060120417
0.0059236815
0.0058198802
0.0057025983
0.005574347
0.0054379479
0.0052963198
0.0051522065
0.0050080695
0.0048663061
0.0047287132
0.0045967056
0.0044715015
0.0043545362
0.0042471482
0.0041501414
0.0040638323
0.0039881565
0.003922593
0.0038660666
0.0038168241
0.0037727684
0.0037318733
0.0036921694
0.0036520594
0.003610711
0.0035680805
0.0035245266
0.0034806044
0.0034369181
0.0033938101
0.0033513726
0.0033096111
0.0032684298
0.0032278
0.0031878631
0.003148634
0.0031100046
0.0030717772
0.0030338968
0.0029965665
0.0029598696
0.0029237759
0.00288833
0.0028538456
0.0028206007
0.0027886154
0.002757915
0.0027287418
0.0027012889
0.0026753912
0.0026509948
0.0026281401
0.0026065586
0.0025857578
0.0025655477
0.0025454182
0.0025246531
0.0025027019
0.0024791498
0.0024533573
0.0024249255
0.0023936073
0.0023591961
0.0023214977
0.0022805001
0.0022368015
0.0021909574
0.0021431698
0.0020938543
0.0020432163
0.0019911921
0.0019380157
0.0018837912
0.0018285749
0.001772735
0.0017165876
0.0016604755
0.0016048855
0.0015500551
0.0014958998
0.0014419854
0.001387436
0.001330459
0.0012705629
0.00120188
0.0011439965
0.0010287518
0.0013353692
-0.00042400497
0.0060489987
0.0060929437
0.0061252776
0.0061477518
0.0061609714
0.0061641237
0.0061552842
0.0061327847
0.0060955579
0.0060426863
0.0059735987
0.0058885424
0.0057886198
0.0056756129
0.0055518282
0.0054198934
0.0052825562
0.0051424492
0.0050019674
0.0048634053
0.0047285785
0.0045989357
0.0044757314
0.0043603523
0.0042540901
0.0041577642
0.0040717232
0.0039959285
0.0039298993
0.003872629
0.0038224892
0.0037775049
0.003735732
0.0036952967
0.0036546682
0.0036130093
0.0035702177
0.0035265993
0.0034826608
0.0034389568
0.0033958115
0.0033533199
0.0033114903
0.0032702457
0.0032295631
0.0031895633
0.0031502618
0.0031115599
0.0030732775
0.0030353588
0.0029979841
0.0029612453
0.00292512
0.0028896546
0.0028551416
0.00282185
0.002789815
0.0027590629
0.0027298198
0.0027022734
0.0026762764
0.0026517683
0.0026287734
0.0026070366
0.0025860914
0.002565723
0.0025454235
0.0025244977
0.0025024148
0.0024787386
0.002452759
0.0024240605
0.002392518
0.0023579327
0.0023203522
0.0022799571
0.0022369511
0.0021914582
0.0021436766
0.0020941568
0.0020433032
0.0019911696
0.0019379644
0.0018837361
0.0018285134
0.001772658
0.0017164816
0.0016603247
0.001604674
0.0015497658
0.001495516
0.0014414928
0.0013868204
0.001329709
0.0012696565
0.001200825
0.0011426182
0.0010267119
0.0013270259
-0.00041250741
0.0060096654
0.0060510034
0.0060823464
0.0061043994
0.0061170752
0.0061197023
0.0061107785
0.0060887864
0.0060526614
0.0060015716
0.0059350137
0.0058531822
0.0057570497
0.0056482309
0.005528841
0.0054013211
0.005268253
0.0051321528
0.0049953426
0.0048600251
0.004728016
0.00460079
0.0044796295
0.0043658813
0.0042607935
0.0041651966
0.004079469
0.004003599
0.0039371476
0.0038791766
0.0038281757
0.003782289
0.0037396584
0.0036985019
0.0036573537
0.0036153767
0.0035724157
0.0035287251
0.0034847633
0.0034410372
0.0033978535
0.0033553083
0.0033134121
0.0032721045
0.0032313677
0.0031913047
0.0031519311
0.0031131573
0.003074819
0.0030368607
0.0029994419
0.0029626606
0.0029265028
0.0028910163
0.0028564737
0.0028231344
0.0027910474
0.0027602417
0.0027309278
0.0027032856
0.0026771845
0.0026525601
0.0026294243
0.0026075326
0.0025864358
0.0025658965
0.0025454221
0.0025243416
0.0025021228
0.0024783133
0.0024522249
0.002423456
0.0023918683
0.0023571734
0.0023194022
0.0022788325
0.0022357313
0.0021904153
0.0021431802
0.002094233
0.0020436201
0.0019914187
0.0019379891
0.0018835473
0.0018282043
0.0017722978
0.0017160918
0.0016599003
0.0016042007
0.001549223
0.0014948798
0.0014407399
0.0013859276
0.0013286565
0.0012684144
0.0011993967
0.0011408014
0.0010243231
0.0013168866
-0.00039941121
0.0059707127
0.006009478
0.0060395871
0.0060609942
0.0060730816
0.0060752242
0.0060662349
0.0060447506
0.0060097264
0.0059603936
0.0058963071
0.0058176202
0.0057251876
0.0056204678
0.005505397
0.0053822376
0.0052534105
0.005121312
0.0049881858
0.0048561499
0.0047270064
0.0046022467
0.0044831739
0.004371101
0.0042672365
0.0041724178
0.0040870504
0.0040111509
0.0039443232
0.0038856972
0.0038338736
0.0037871136
0.0037436472
0.0037017813
0.0036601141
0.0036178122
0.0035746739
0.0035309033
0.0034869115
0.0034431591
0.0033999357
0.0033573373
0.0033153762
0.0032740059
0.0032332137
0.0031930876
0.0031536424
0.0031147974
0.0030764024
0.0030384034
0.0030009408
0.0029641165
0.002927925
0.0028924155
0.0028578419
0.0028244549
0.0027923142
0.0027614525
0.0027320651
0.0027043242
0.0026781159
0.0026533721
0.0026300928
0.0026080421
0.0025867866
0.0025660726
0.0025454238
0.0025241855
0.0025018191
0.0024778683
0.0024516735
0.0024228347
0.0023911917
0.0023564676
0.0023186938
0.0022781374
0.0022349743
0.0021894958
0.0021420947
0.0020930823
0.0020426603
0.0019909259
0.0019379275
0.0018836339
0.0018281846
0.0017720504
0.0017156258
0.0016592847
0.001603485
0.0015484168
0.0014939697
0.0014397041
0.0013847403
0.0013272921
0.0012668344
0.0011975988
0.0011385488
0.0010216936
0.0013047829
-0.00038455242
0.0059320703
0.0059683168
0.0059970182
0.0060175962
0.0060290433
0.0060307275
0.0060216885
0.0060007089
0.0059667773
0.0059191737
0.0058574995
0.0057818762
0.0056930518
0.0055923399
0.0054815088
0.0053626506
0.0052380302
0.0051099228
0.0049804883
0.0048517652
0.0047255308
0.0046032846
0.0044863428
0.0043759891
0.0042733971
0.0041794068
0.004094448
0.0040185669
0.003951411
0.0038921774
0.003839572
0.0037919702
0.003747692
0.0037051307
0.0036629467
0.0036203144
0.0035769916
0.0035331333
0.0034891048
0.0034453224
0.003402058
0.0033594064
0.003317382
0.0032759496
0.0032351013
0.003194912
0.0031553957
0.0031164806
0.0030780281
0.0030399871
0.0030024811
0.0029656131
0.0029293867
0.0028938528
0.002859247
0.0028258117
0.0027936157
0.002762695
0.0027332317
0.0027053898
0.0026790716
0.0026542045
0.0026307783
0.0026085638
0.0025871447
0.0025662536
0.0025454266
0.0025240241
0.0025015049
0.0024774131
0.0024511117
0.0024221938
0.0023904878
0.0023557342
0.0023179603
0.002277416
0.0022342723
0.0021888151
0.0021414321
0.0020923523
0.0020417609
0.001989858
0.001936792
0.0018826742
0.001827606
0.0017717845
0.0017154356
0.0016589557
0.0016029039
0.0015475678
0.0014928881
0.0014384195
0.0013832556
0.0013255936
0.0012648866
0.0011953984
0.0011358336
0.0010188398
0.0012905401
-0.00036776963
0.0058936813
0.0059274766
0.0059546512
0.005974256
0.00598501
0.0059862503
0.0059771735
0.0059566926
0.0059238397
0.0058779336
0.0058186122
0.0057459704
0.0056606615
0.0055638642
0.0054571899
0.0053425688
0.0052221151
0.0050979822
0.0049722424
0.0048468573
0.004723571
0.0046038827
0.0044891139
0.0043805233
0.004279253
0.004186142
0.0041016414
0.0040258287
0.003958395
0.0038986031
0.0038452594
0.0037968499
0.003751786
0.0037085449
0.0036658482
0.0036228816
0.0035793674
0.0035354143
0.0034913427
0.0034475267
0.0034042199
0.0033615153
0.0033194291
0.0032779354
0.0032370303
0.003196778
0.0031571914
0.0031182067
0.0030796964
0.0030416122
0.0030040632
0.0029671508
0.0029308886
0.0028953287
0.0028606893
0.002827205
0.0027949521
0.0027639698
0.0027344278
0.0027064831
0.0026800518
0.0026550574
0.0026314805
0.0026090983
0.002587511
0.0025664389
0.0025454292
0.0025238576
0.0025011823
0.0024769472
0.0024505345
0.0024215332
0.0023897649
0.0023549832
0.002317205
0.0022766649
0.0022335369
0.0021881055
0.0021407485
0.002091687
0.0020411031
0.0019891921
0.0019360339
0.0018817417
0.0018265078
0.001770608
0.001714378
0.0016581582
0.0016022886
0.0015469329
0.0014920408
0.0014372409
0.0013817048
0.0013236807
0.001262614
0.0011927882
0.0011326199
0.0010157499
0.0012739204
-0.00034893287
0.0058554995
0.0058869208
0.0059124935
0.005931016
0.0059410281
0.00594183
0.0059327233
0.0059127326
0.0058809396
0.0058366959
0.0057796665
0.0057099237
0.0056280362
0.0055350583
0.0054324548
0.0053220021
0.0052056694
0.0050854886
0.0049634413
0.0048414135
0.0047211098
0.0046040203
0.0044914654
0.0043846814
0.0042847817
0.0041926009
0.0041086101
0.0040329176
0.0039652584
0.0039049596
0.0038509234
0.0038017429
0.0037559214
0.0037120182
0.0036688149
0.0036255112
0.0035817997
0.0035377451
0.0034936241
0.0034497714
0.0034064209
0.0033636634
0.0033215168
0.0032799628
0.0032390005
0.0031986855
0.0031590294
0.0031199758
0.0030814074
0.003043279
0.0030056872
0.00296873
0.002932431
0.0028968435
0.0028621692
0.0028286351
0.0027963236
0.0027652773
0.0027356539
0.0027076043
0.0026810564
0.0026559308
0.0026321998
0.0026096456
0.0025878858
0.0025666282
0.0025454315
0.0025236863
0.0025008512
0.0024764693
0.0024499413
0.0024208543
0.0023890228
0.0023542108
0.0023164258
0.0022758903
0.0022327804
0.0021873739
0.0021400352
0.0020909859
0.0020404118
0.0019885071
0.0019353506
0.0018810489
0.0018257847
0.0017697747
0.0017133555
0.001656938
0.0016009248
0.0015455442
0.0014907167
0.0014359184
0.0013802206
0.0013218691
0.0012603432
0.0011900128
0.0011290586
0.0010125069
0.0012547945
-0.00032793161
0.0058174883
0.0058466195
0.0058705491
0.0058879115
0.0058971401
0.005897503
0.0058883703
0.0058688593
0.0058381032
0.0057954833
0.0057406841
0.0056737571
0.0055951961
0.0055059407
0.0054073189
0.0053009618
0.0051886987
0.0050724416
0.0049540795
0.0048354224
0.0047181307
0.0046036773
0.0044933759
0.0043884415
0.0042899604
0.0041987613
0.0041153329
0.0040398144
0.0039719839
0.0039112314
0.0038565506
0.0038066385
0.0037600898
0.0037155443
0.0036718423
0.0036282004
0.0035842865
0.0035401243
0.0034959479
0.0034520554
0.0034086602
0.0033658501
0.0033236444
0.003282031
0.0032410117
0.0032006345
0.00316091
0.0031217877
0.0030831612
0.0030449878
0.0030073534
0.0029703511
0.0029340143
0.0028983975
0.002863687
0.0028301022
0.0027977303
0.0027666176
0.0027369105
0.0027087536
0.0026820856
0.0026568251
0.0026329361
0.0026102061
0.002588269
0.0025668215
0.0025454336
0.0025235103
0.0025005112
0.0024759791
0.0024493323
0.0024201569
0.0023882602
0.0023534157
0.0023156228
0.0022750921
0.0022320003
0.0021866179
0.0021392975
0.0020902624
0.0020396979
0.0019877934
0.0019346306
0.0018803186
0.0018250408
0.0017690117
0.0017125524
0.001656057
0.0015998773
0.0015442301
0.0014890929
0.0014340003
0.0013780678
0.0013195336
0.0012577784
0.0011870933
0.0011254284
0.0010094045
0.0012335156
-0.00030462573
0.005779619
0.0058065483
0.0058288209
0.0058449718
0.0058533841
0.0058533042
0.005844146
0.0058251021
0.0057953569
0.0057543192
0.0057016869
0.0056374921
0.0055621617
0.0054765304
0.0053817985
0.0052794598
0.0051712099
0.0050588425
0.0049441524
0.004828874
0.0047146181
0.0046028345
0.0044948242
0.0043917812
0.0042947661
0.0042046003
0.0041217885
0.0040464993
0.0039785533
0.0039174022
0.003862127
0.0038115252
0.003764282
0.0037191159
0.0036749251
0.0036309456
0.0035868252
0.00354255
0.003498313
0.0034543775
0.0034109369
0.0033680746
0.0033258109
0.0032841392
0.0032430631
0.0032026244
0.0031628329
0.0031236423
0.0030849576
0.0030467386
0.0030090617
0.0029720144
0.0029356387
0.0028999908
0.0028652432
0.0028316064
0.0027991722
0.0027679906
0.0027381979
0.0027099311
0.0026831393
0.0026577404
0.0026336891
0.0026107798
0.0025886609
0.002567019
0.0025454356
0.0025233295
0.0025001622
0.0024754763
0.0024487072
0.0024194405
0.0023874766
0.0023525977
0.0023147958
0.0022742695
0.0022311953
0.0021858365
0.0021385348
0.0020895145
0.0020389597
0.0019870551
0.0019338863
0.0018795631
0.0018242655
0.0017682071
0.001711704
0.0016551443
0.001598871
0.0015430888
0.0014877543
0.0014323694
0.0013760365
0.0013170337
0.0012547892
0.001183624
0.0011213236
0.0010065048
0.0012104331
-0.00027936701
0.0057418697
0.005766688
0.0057873106
0.0058022213
0.0058097943
0.0058092665
0.0058000806
0.0057814896
0.0057527268
0.0057132267
0.0056626969
0.0056011505
0.0055289541
0.0054468469
0.0053559106
0.0052575096
0.0051532111
0.0050446936
0.0049336569
0.004821759
0.0047105579
0.0046014736
0.00449579
0.0043946787
0.0042991759
0.0042100954
0.0041279551
0.0040529519
0.0039849479
0.0039234549
0.0038676378
0.0038163907
0.0037684878
0.003722725
0.0036780575
0.0036337426
0.003589413
0.0035450198
0.0035007177
0.0034567362
0.0034132496
0.0033703357
0.0033280155
0.0032862864
0.0032451543
0.0032046549
0.0031647976
0.0031255394
0.0030867966
0.0030485317
0.0030108118
0.0029737198
0.0029373046
0.0029016238
0.0028668381
0.0028331477
0.0028006495
0.0027693967
0.0027395162
0.002711137
0.0026842176
0.0026586769
0.0026344591
0.0026113667
0.0025890614
0.0025672206
0.0025454373
0.0025231437
0.002499804
0.0024749609
0.0024480657
0.0024187047
0.0023866716
0.0023517564
0.0023139442
0.0022734218
0.0022303646
0.0021850292
0.0021377465
0.002088741
0.0020381955
0.0019862908
0.001933116
0.0018787811
0.0018234633
0.0017673745
0.0017108251
0.001654194
0.0015978158
0.0015418869
0.0014863569
0.0014307234
0.0013740865
0.0013147184
0.0012520229
0.0011803107
0.001117148
0.0010041573
0.0011862933
-0.00025319854
0.005704224
0.0057270239
0.00574602
0.0057596803
0.0057664009
0.0057654207
0.0057562028
0.0057380492
0.0057102382
0.0056722292
0.0056237363
0.0055647539
0.0054955947
0.0054169105
0.0053296731
0.0052351252
0.0051347118
0.0050299987
0.0049225912
0.0048140699
0.0047059368
0.0045995775
0.0044962532
0.0043971122
0.0043031675
0.004215224
0.0041338109
0.0040591513
0.0039911481
0.0039293719
0.0038730676
0.0038212219
0.0037726964
0.0037263629
0.0036812326
0.0036365866
0.003592046
0.0035475311
0.0035031601
0.0034591299
0.0034155968
0.0033726322
0.0033302568
0.0032884717
0.0032472845
0.0032067255
0.0031668034
0.0031274788
0.0030886782
0.0030503669
0.0030126036
0.0029754674
0.0029390119
0.0029032965
0.0028684716
0.0028347264
0.0028021622
0.002770836
0.0027408654
0.0027123712
0.0026853205
0.0026596344
0.0026352462
0.002611967
0.0025894705
0.0025674262
0.0025454387
0.0025229529
0.0024994364
0.0024744326
0.0024474076
0.0024179493
0.0023858448
0.0023508914