/*--------------------------------*- C++ -*----------------------------------*\
  =========                 |
  \\      /  F ield         | OpenFOAM: The Open Source CFD Toolbox
   \\    /   O peration     | Website:  https://openfoam.org
    \\  /    A nd           | Version:  12
     \\/     M anipulation  |
\*---------------------------------------------------------------------------*/
FoamFile
{
    format      ascii;
    class       volVectorField;
    location    "100";
    object      wallShearStress;
}
// * * * * * * * * * * * * * * * * * * * * * * * * * * * * * * * * * * * * * //

dimensions      [0 2 -2 0 0 0 0];

internalField   uniform (0 0 0);

boundaryField
{
    inlet
    {
        type            calculated;
        value           uniform (0 0 0);
    }
    top
    {
        type            calculated;
        value           uniform (0 0 0);
    }
    outlet
    {
        type            calculated;
        value           uniform (0 0 0);
    }
    slipsurface
    {
        type            calculated;
        value           uniform (0 0 0);
    }
    bottom
    {
        type            calculated;
        value           nonuniform List<vector> 
100
(
(-0.00059521972 -3.1997584e-07 -0)
(-0.0006918358 -4.3949547e-07 2.6570621e-23)
(-0.00080865923 -7.281768e-07 0)
(-0.0009407119 -1.1091656e-06 -0)
(-0.0010863985 -1.6010999e-06 3.2953909e-20)
(-0.0012436254 -2.1461734e-06 -4.2676797e-20)
(-0.001408952 -2.6811781e-06 3.4756098e-22)
(-0.0015775909 -3.6035181e-06 1.2413739e-19)
(-0.0017435727 -4.6983085e-06 0)
(-0.0019003629 -5.8979597e-06 3.6517927e-19)
(-0.002041327 -7.1434867e-06 0)
(-0.0021610321 -8.3578692e-06 -5.9617924e-19)
(-0.0022558336 -9.4557791e-06 0)
(-0.0023241687 -1.0357513e-05 1.1843874e-18)
(-0.002366409 -1.1001089e-05 0)
(-0.0023847905 -1.1361671e-05 1.3732727e-18)
(-0.0023815164 -1.1415693e-05 -3.9977029e-24)
(-0.0023649645 -1.1223188e-05 0)
(-0.0023293524 -1.0754494e-05 3.9748779e-19)
(-0.0022866142 -1.0107557e-05 3.6446777e-19)
(-0.0022379108 -9.3047907e-06 6.5748473e-19)
(-0.0021857505 -8.3735652e-06 0)
(-0.0021324889 -7.367631e-06 -4.4186545e-19)
(-0.0020800649 -6.3468204e-06 0)
(-0.0020300558 -5.3418125e-06 1.2830753e-19)
(-0.0019837425 -4.3839874e-06 0)
(-0.0019421053 -3.4944524e-06 -0)
(-0.0019057961 -2.700254e-06 0)
(-0.001875112 -2.0267978e-06 -0)
(-0.0018499199 -1.4922141e-06 -3.4882211e-20)
(-0.0018296345 -1.1081775e-06 0)
(-0.0018132605 -8.6847171e-07 6.2168996e-20)
(-0.0017994993 -7.5124117e-07 -5.4673556e-20)
(-0.0017869568 -7.2409038e-07 0)
(-0.0017745344 -7.4840623e-07 0)
(-0.0017616944 -7.8896585e-07 6.3965968e-21)
(-0.0017484439 -8.2059127e-07 0)
(-0.0017351119 -8.2946437e-07 0)
(-0.0017220788 -8.1213557e-07 0)
(-0.0017095973 -7.7312903e-07 -0)
(-0.0016977329 -7.2156053e-07 -0)
(-0.0016863887 -6.684756e-07 -0)
(-0.0016753791 -6.2261369e-07 -0)
(-0.0016645178 -5.8743888e-07 0)
(-0.0016536848 -5.6120994e-07 -0)
(-0.0016428493 -5.4010394e-07 -0)
(-0.0016320512 -5.2099655e-07 0)
(-0.0016213488 -5.0284399e-07 0)
(-0.0016107776 -4.8550273e-07 0)
(-0.0016003524 -4.6871288e-07 -0)
(-0.001590085 -4.5207565e-07 0)
(-0.0015799992 -4.3499715e-07 0)
(-0.0015701256 -4.1708754e-07 0)
(-0.0015604904 -3.9833505e-07 -0)
(-0.0015511101 -3.7906477e-07 0)
(-0.0015419938 -3.5963299e-07 0)
(-0.0015331465 -3.4022904e-07 0)
(-0.0015245692 -3.2097208e-07 0)
(-0.0015162585 -3.0210096e-07 0)
(-0.0015082023 -2.8398706e-07 -0)
(-0.0015003811 -2.6684637e-07 0)
(-0.00149277 -2.5085095e-07 0)
(-0.0014853382 -2.3626438e-07 0)
(-0.0014780475 -2.2332634e-07 0)
(-0.0014708546 -2.1212904e-07 0)
(-0.0014637147 -2.0266877e-07 0)
(-0.0014565793 -1.9511719e-07 0)
(-0.0014493974 -1.8943057e-07 0)
(-0.0014421208 -1.8548139e-07 -0)
(-0.0014347049 -1.8315803e-07 -0)
(-0.0014271094 -1.822066e-07 -0)
(-0.0014193022 -1.8234043e-07 0)
(-0.0014112582 -1.8330813e-07 0)
(-0.0014029592 -1.8478538e-07 0)
(-0.0013943951 -1.8648419e-07 0)
(-0.0013855614 -1.8820806e-07 0)
(-0.0013764568 -1.8976913e-07 0)
(-0.0013670821 -1.9106184e-07 0)
(-0.0013574373 -1.9209095e-07 0)
(-0.0013475192 -1.9288084e-07 0)
(-0.0013373206 -1.935106e-07 0)
(-0.0013268296 -1.9410469e-07 0)
(-0.0013160287 -1.9475913e-07 0)
(-0.0013048957 -1.9557361e-07 0)
(-0.0012934036 -1.9663504e-07 -0)
(-0.0012815212 -1.9798857e-07 0)
(-0.0012692122 -1.9968474e-07 -0)
(-0.0012564337 -2.0178054e-07 -0)
(-0.001243134 -2.0434016e-07 0)
(-0.0012292491 -2.074781e-07 0)
(-0.0012146993 -2.1135629e-07 0)
(-0.0011993864 -2.1614873e-07 0)
(-0.0011831955 -2.220591e-07 0)
(-0.0011659899 -2.2917062e-07 0)
(-0.0011476426 -2.3795739e-07 0)
(-0.001127918 -2.4743991e-07 0)
(-0.0011069779 -2.5668719e-07 0)
(-0.0010833501 -3.9463266e-07 -1.9169537e-22)
(-0.0010617926 -3.5701745e-07 1.1842974e-21)
(-0.0010180008 -4.160546e-07 9.0446272e-20)
)
;
    }
    frontandback
    {
        type            empty;
    }
}


// ************************************************************************* //
