/*--------------------------------*- C++ -*----------------------------------*\
  =========                 |
  \\      /  F ield         | OpenFOAM: The Open Source CFD Toolbox
   \\    /   O peration     | Website:  https://openfoam.org
    \\  /    A nd           | Version:  12
     \\/     M anipulation  |
\*---------------------------------------------------------------------------*/
FoamFile
{
    format      ascii;
    class       volScalarField;
    location    "100";
    object      yPlus;
}
// * * * * * * * * * * * * * * * * * * * * * * * * * * * * * * * * * * * * * //

dimensions      [];

internalField   uniform 0;

boundaryField
{
    inlet
    {
        type            calculated;
        value           uniform 0;
    }
    top
    {
        type            calculated;
        value           uniform 0;
    }
    outlet
    {
        type            calculated;
        value           uniform 0;
    }
    slipsurface
    {
        type            calculated;
        value           uniform 0;
    }
    bottom
    {
        type            calculated;
        value           nonuniform List<scalar> 
100
(
14.459452
17.493067
21.290206
25.740304
30.832446
36.535485
42.766683
49.383623
56.188179
62.940692
69.374165
75.245227
80.362137
84.603699
87.920993
90.34395
91.901616
92.916881
93.066864
92.858328
92.312622
91.518936
90.562591
89.518167
88.451009
87.418708
86.470837
85.646482
84.971847
84.45714
84.093414
83.851828
83.68707
83.546803
83.389368
83.196688
82.974143
82.739767
82.510979
82.296923
82.097401
81.905775
81.713344
81.512916
81.300672
81.076626
80.843848
80.60638
80.367343
80.128611
79.891437
79.657152
79.427144
79.202418
78.983442
78.770346
78.563112
78.361579
78.165419
77.974093
77.786874
77.602902
77.421197
77.240675
77.060189
76.878576
76.694656
76.507262
76.315344
76.117995
75.91445
75.704121
75.486586
75.261544
75.028819
74.788308
74.539916
74.283521
74.018928
73.745822
73.463773
73.172216
72.870451
72.557648
72.232839
71.894903
71.54251
71.174053
70.787553
70.380541
69.949966
69.492163
69.002923
68.477454
67.911034
67.296571
66.636321
65.890515
65.199092
63.789056
)
;
    }
    frontandback
    {
        type            empty;
    }
}


// ************************************************************************* //
