/*--------------------------------*- C++ -*----------------------------------*\
  =========                 |
  \\      /  F ield         | OpenFOAM: The Open Source CFD Toolbox
   \\    /   O peration     | Website:  https://openfoam.org
    \\  /    A nd           | Version:  12
     \\/     M anipulation  |
\*---------------------------------------------------------------------------*/
FoamFile
{
    format      ascii;
    class       volScalarField;
    location    "1700";
    object      k;
}
// * * * * * * * * * * * * * * * * * * * * * * * * * * * * * * * * * * * * * //

dimensions      [0 2 -2 0 0 0 0];

internalField   nonuniform List<scalar> 
7480
(
0.00019648839
0.00028484373
0.00041828914
0.00060648036
0.00086325949
0.0012024564
0.0016342517
0.002161217
0.0027748897
0.0034534007
0.0041622327
0.0048601763
0.005506098
0.0060658338
0.0065165832
0.0068504491
0.0070623859
0.0072079062
0.0072025072
0.0071605119
0.0070693911
0.00694354
0.0067964349
0.0066396035
0.0064826991
0.0063337539
0.0061993657
0.0060846369
0.0059931043
0.0059262298
0.0058826281
0.0058578218
0.0058448761
0.0058361368
0.0058253897
0.0058092226
0.0057870649
0.005760216
0.0057305096
0.0056993149
0.005667226
0.0056343053
0.005600527
0.0055660696
0.0055313152
0.0054966702
0.0054624022
0.0054286097
0.0053952978
0.005362461
0.0053301087
0.005298246
0.0052668744
0.0052359843
0.0052055615
0.0051755951
0.0051460762
0.0051169916
0.0050883276
0.0050600805
0.0050322382
0.0050047824
0.0049776982
0.0049509749
0.0049246027
0.0048985741
0.0048728813
0.0048475155
0.0048224685
0.0047977325
0.0047732991
0.0047491605
0.0047253101
0.0047017402
0.0046784439
0.0046554145
0.0046326461
0.0046101326
0.0045878683
0.0045658475
0.0045440647
0.0045225145
0.0045011916
0.0044800908
0.004459207
0.0044385351
0.00441807
0.0043978064
0.0043777396
0.0043578625
0.0043381717
0.0043186548
0.0042993163
0.0042801141
0.0042611023
0.0042420909
0.0042234073
0.0042039035
0.0041874676
0.0041571011
0.00014892867
0.00015158076
0.00015572182
0.00016171034
0.00017029897
0.00018272948
0.00020077297
0.00022668777
0.00026287624
0.0003118082
0.00037597495
0.00045599092
0.00055016943
0.00065501656
0.00076606798
0.00087928367
0.00099055218
0.0011023593
0.0012125505
0.0013285589
0.0014608633
0.0016301597
0.0018438688
0.0020819835
0.0023448657
0.0026359557
0.0029552269
0.0032991009
0.0036585125
0.0040168462
0.0043520553
0.0046422477
0.0048710671
0.0050339221
0.0051387745
0.0052010432
0.0052372949
0.0052602947
0.0052766794
0.0052880401
0.0052937822
0.0052935418
0.00528824
0.0052796798
0.0052695435
0.0052587609
0.0052475194
0.0052356754
0.0052231593
0.0052100652
0.0051965183
0.0051825795
0.0051682436
0.0051535088
0.005138404
0.0051229624
0.0051072018
0.0050911326
0.0050747823
0.0050582016
0.005041383
0.0050243265
0.0050070486
0.0049895715
0.0049719187
0.0049541106
0.0049361644
0.0049180968
0.0048999229
0.0048816564
0.004863311
0.0048449002
0.0048264349
0.0048079279
0.0047893916
0.0047708371
0.0047522743
0.0047337125
0.0047151602
0.0046966254
0.0046781154
0.0046596367
0.0046411954
0.004622797
0.0046044465
0.0045861483
0.0045679066
0.004549725
0.0045316068
0.0045135536
0.0044955682
0.0044776538
0.004459808
0.0044420361
0.0044243217
0.0044066859
0.0043890886
0.0043712804
0.0043553738
0.0043272734
0.00014769606
0.00014799237
0.00014842101
0.00014896725
0.00014962957
0.000150413
0.00015132427
0.00015236822
0.00015354103
0.00015483196
0.00015624451
0.00015778441
0.00015944543
0.00016121481
0.00016308278
0.00016505423
0.00016714987
0.00016947276
0.00017217334
0.00017558633
0.00018022008
0.00018738182
0.00019787235
0.00021765027
0.00025030679
0.00029901558
0.00036807158
0.00046266042
0.00059067781
0.00076424882
0.001011829
0.0013150109
0.0016606613
0.0020331687
0.0024125899
0.002775847
0.0031008628
0.0033723899
0.0035859462
0.0037472147
0.0038682804
0.0039625573
0.004040733
0.0041088278
0.0041689244
0.004221233
0.0042659258
0.0043039189
0.0043365673
0.0043650495
0.0043900549
0.0044119134
0.0044308643
0.00444719
0.0044611803
0.0044730669
0.0044830209
0.0044911895
0.0044977075
0.0045026824
0.0045062391
0.0045084842
0.0045095125
0.0045094105
0.004508258
0.004506128
0.0045030876
0.0044991987
0.0044945181
0.0044890987
0.0044829902
0.00447624
0.0044688919
0.0044609875
0.0044525666
0.0044436666
0.0044343223
0.0044245662
0.0044144289
0.0044039389
0.0043931231
0.0043820062
0.0043706115
0.0043589607
0.0043470741
0.0043349707
0.0043226684
0.0043101839
0.0042975327
0.0042847309
0.0042717906
0.0042587266
0.0042455438
0.0042322678
0.0042188732
0.0042054457
0.0041918452
0.0041781936
0.0041655766
0.0041435853
0.00014755674
0.00014761611
0.0001477056
0.00014781717
0.00014794446
0.0001480813
0.00014822109
0.00014835646
0.00014847861
0.00014857723
0.00014864214
0.00014866324
0.00014862951
0.00014852862
0.00014834765
0.00014807078
0.00014768348
0.00014717659
0.00014654745
0.00014579893
0.00014493631
0.00014399174
0.00014298151
0.00014202167
0.00014127069
0.00014100271
0.00014146724
0.00014306077
0.00014655749
0.0001529548
0.000165002
0.00018540997
0.0002234319
0.00028709031
0.00038402423
0.0005221347
0.00072076648
0.00098009838
0.0012782335
0.0015965159
0.0019150584
0.002213792
0.0024773048
0.0026986206
0.0028794743
0.0030276007
0.0031524898
0.0032617478
0.0033595736
0.0034475121
0.0035260995
0.0035960793
0.0036586126
0.0037148865
0.003765771
0.0038118214
0.0038534639
0.003891109
0.0039251412
0.0039558785
0.0039835909
0.0040085193
0.0040308821
0.0040508752
0.0040686731
0.0040844336
0.0040983001
0.0041104028
0.0041208606
0.0041297829
0.0041372709
0.004143419
0.0041483146
0.0041520391
0.0041546688
0.0041562753
0.0041569252
0.0041566808
0.0041556004
0.0041537384
0.0041511456
0.0041478694
0.004143954
0.0041394411
0.0041343693
0.0041287753
0.004122693
0.0041161549
0.0041091908
0.0041018304
0.0040940988
0.0040860243
0.0040776226
0.0040689338
0.004059938
0.0040507498
0.0040411955
0.004031596
0.0040223599
0.0040062002
0.00014752787
0.00014753563
0.00014755416
0.0001475805
0.00014761147
0.00014764376
0.00014767387
0.00014769816
0.00014771268
0.00014771317
0.0001476953
0.00014765478
0.00014758731
0.0001474884
0.00014735359
0.00014717873
0.00014695826
0.00014668575
0.00014635318
0.00014595619
0.0001454917
0.00014495935
0.00014435986
0.00014370037
0.00014299671
0.00014227487
0.00014156076
0.0001408848
0.00014027861
0.00013979607
0.00013945892
0.000139605
0.00014027943
0.00014215318
0.0001459629
0.00015274041
0.00016505095
0.00018614698
0.00022577386
0.00029220492
0.00039320463
0.00053976813
0.00074283074
0.00098392603
0.0012471385
0.0015151986
0.0017712563
0.0020029519
0.0022050093
0.0023787378
0.0025294236
0.0026629386
0.0027833962
0.0028928176
0.002992105
0.0030820699
0.0031637592
0.0032382329
0.0033063259
0.0033686448
0.0034256931
0.0034779382
0.0035258042
0.0035696578
0.0036098171
0.0036465666
0.0036801624
0.0037108346
0.0037387904
0.0037642187
0.0037872922
0.0038081693
0.0038269959
0.0038439063
0.0038590254
0.0038724688
0.0038843442
0.0038947518
0.0039037848
0.0039115301
0.0039180684
0.0039234752
0.0039278208
0.003931171
0.0039335872
0.0039351272
0.0039358448
0.003935791
0.0039350131
0.0039335568
0.0039314632
0.003928775
0.0039255221
0.0039217578
0.0039174746
0.0039128044
0.0039075637
0.0039022139
0.0038965816
0.0038864706
0.00014752306
0.00014751445
0.00014751002
0.00014750917
0.00014751059
0.00014751248
0.00014751289
0.00014750982
0.00014750117
0.00014748472
0.00014745823
0.00014741943
0.00014736611
0.00014729611
0.00014720705
0.00014709597
0.00014696109
0.00014680019
0.00014661016
0.00014638795
0.00014613085
0.0001458366
0.00014550337
0.00014513002
0.00014471674
0.00014426558
0.00014377993
0.0001432635
0.00014272258
0.00014217836
0.00014163934
0.00014113494
0.00014068023
0.00014034037
0.00014010152
0.00014018336
0.00014056411
0.00014148342
0.00014344124
0.00014720514
0.0001538004
0.00016525552
0.00018483034
0.000220831
0.00028137387
0.00037377773
0.00051111817
0.00069131016
0.00090132066
0.0011278149
0.0013561087
0.0015734893
0.0017721452
0.00194986
0.0021086489
0.0022520681
0.0023830142
0.0025030839
0.0026131374
0.0027139731
0.0028065125
0.002891636
0.0029700559
0.0030423472
0.0031090184
0.0031705349
0.0032273118
0.0032797133
0.0033280655
0.0033726641
0.0034137766
0.0034516463
0.0034864952
0.0035185265
0.0035479272
0.0035748698
0.0035995139
0.0036220072
0.0036424868
0.0036610798
0.0036779042
0.0036930699
0.0037066792
0.0037188276
0.0037296041
0.0037390921
0.0037473696
0.0037545098
0.0037605811
0.0037656485
0.0037697716
0.0037730103
0.0037754113
0.0037770424
0.0037779127
0.0037781675
0.003777624
0.003776865
0.003775145
0.0037715013
0.00014752711
0.00014751225
0.00014749859
0.0001474865
0.00014747569
0.00014746526
0.00014745406
0.00014744087
0.00014742443
0.00014740338
0.00014737634
0.00014734189
0.00014729867
0.00014724526
0.00014718032
0.00014710228
0.00014700977
0.00014690145
0.00014677579
0.00014663115
0.00014646585
0.00014627826
0.00014606686
0.00014583028
0.00014556742
0.0001452777
0.00014496106
0.00014461791
0.00014424891
0.00014385787
0.00014344828
0.00014302663
0.00014259473
0.0001421676
0.00014175412
0.00014138592
0.00014107345
0.0001408432
0.00014072445
0.00014082461
0.000141192
0.00014202176
0.00014352458
0.0001462871
0.00015121255
0.00015956455
0.00017384627
0.00019869111
0.00024201986
0.0003109991
0.000415237
0.00055891808
0.00073251248
0.00092584101
0.0011268154
0.0013240931
0.0015098535
0.0016808437
0.001837455
0.0019815501
0.0021147444
0.0022379738
0.0023518806
0.0024571645
0.002554583
0.002644822
0.0027284573
0.0028059944
0.0028778985
0.0029445938
0.0030064607
0.003063843
0.0031170545
0.0031663817
0.0032120871
0.0032544118
0.0032935783
0.0033297917
0.0033632417
0.0033941039
0.0034225412
0.0034487047
0.0034727351
0.0034947634
0.0035149115
0.0035332936
0.003550016
0.0035651786
0.0035788745
0.0035911918
0.003602212
0.0036120149
0.0036206671
0.0036282527
0.0036348008
0.0036404703
0.0036450831
0.0036493424
0.0036519022
0.0036552692
0.00014753485
0.00014751761
0.00014750011
0.00014748293
0.00014746628
0.00014744984
0.000147433
0.000147415
0.00014739503
0.00014737219
0.00014734553
0.00014731409
0.00014727691
0.000147233
0.00014718143
0.00014712117
0.00014705127
0.00014697078
0.00014687871
0.00014677402
0.00014665565
0.00014652248
0.00014637341
0.00014620735
0.0001460233
0.00014582037
0.00014559791
0.00014535548
0.00014509276
0.00014481022
0.0001445087
0.00014419011
0.00014385563
0.00014350882
0.00014315323
0.00014279673
0.00014244611
0.00014210766
0.00014179211
0.00014152117
0.00014131524
0.00014116991
0.00014119547
0.00014135197
0.00014179805
0.00014269007
0.00014424756
0.00014686988
0.00015141118
0.00015905651
0.00017191292
0.00019370019
0.00023143871
0.00029167401
0.00038379814
0.00050906642
0.00066143878
0.00083267541
0.001012596
0.0011915535
0.0013628167
0.0015234827
0.0016733876
0.0018133226
0.0019439555
0.0020657293
0.0021791081
0.0022846539
0.0023829365
0.0024744681
0.0025597117
0.0026391009
0.0027130386
0.0027818945
0.0028460088
0.0029056957
0.0029612456
0.0030129269
0.0030609879
0.0031056585
0.0031471524
0.0031856678
0.003221389
0.0032544878
0.0032851242
0.0033134474
0.0033395968
0.0033637031
0.0033858879
0.0034062662
0.0034249444
0.0034420257
0.0034575993
0.0034717686
0.0034845848
0.003496223
0.003506511
0.0035162799
0.003523536
0.0035345503
0.00014754478
0.00014752658
0.00014750758
0.00014748816
0.00014746868
0.00014744913
0.00014742925
0.00014740861
0.00014738668
0.00014736287
0.0001473365
0.00014730689
0.00014727331
0.00014723503
0.00014719135
0.00014714152
0.00014708483
0.00014702057
0.00014694801
0.00014686642
0.00014677505
0.00014667312
0.00014655982
0.00014643432
0.00014629582
0.00014614353
0.00014597676
0.00014579489
0.00014559741
0.000145384
0.0001451546
0.00014490959
0.00014464934
0.00014437489
0.00014408752
0.00014378979
0.00014348487
0.00014317596
0.0001428668
0.00014256401
0.00014227485
0.00014200161
0.00014177042
0.00014158638
0.00014144055
0.00014145031
0.00014155095
0.00014184317
0.00014245816
0.00014354699
0.00014536032
0.00014829526
0.00015323888
0.00016143117
0.00017506338
0.00019811473
0.00023672913
0.00029741145
0.00038817429
0.00050654974
0.00064832104
0.00080617202
0.00097107358
0.001135059
0.0012931168
0.0014432202
0.0015850256
0.0017186473
0.0018442225
0.0019619694
0.0020722397
0.0021754478
0.0022720018
0.0023622937
0.002446704
0.0025255964
0.0025993135
0.0026681768
0.0027324876
0.002792528
0.0028485613
0.0029008338
0.0029495753
0.0029950007
0.0030373105
0.0030766926
0.0031133224
0.0031473643
0.003178972
0.0032082903
0.0032354538
0.0032605915
0.0032838187
0.00330526
0.0033249918
0.0033432077
0.0033597417
0.0033755648
0.0033879776
0.0034073538
0.00014755654
0.00014753786
0.00014751827
0.00014749796
0.0001474772
0.0001474561
0.00014743458
0.00014741242
0.00014738931
0.00014736487
0.00014733861
0.00014731004
0.00014727861
0.00014724376
0.00014720493
0.00014716156
0.00014711308
0.00014705894
0.00014699857
0.00014693141
0.0001468569
0.00014677445
0.00014668344
0.00014658325
0.00014647324
0.00014635276
0.0001462212
0.00014607798
0.00014592256
0.00014575447
0.00014557335
0.00014537906
0.00014517151
0.00014495091
0.0001447176
0.00014447243
0.00014421671
0.00014395204
0.00014368021
0.00014340385
0.00014312654
0.00014285008
0.00014258187
0.00014232869
0.00014208521
0.00014188368
0.00014172526
0.00014159669
0.00014160028
0.00014168064
0.00014192967
0.00014242613
0.00014329402
0.00014473061
0.00014703561
0.00015074598
0.00015684194
0.00016682225
0.00018316946
0.00021082617
0.00025512937
0.0003239091
0.00041825184
0.00053666709
0.00067444069
0.00082408612
0.00097776734
0.0011295916
0.0012763509
0.0014167396
0.0015502691
0.0016767206
0.0017960654
0.0019084557
0.0020141489
0.0021134393
0.002206637
0.0022940597
0.0023760226
0.0024528318
0.0025247814
0.0025921525
0.0026552116
0.0027142113
0.0027693895
0.0028209707
0.0028691663
0.0029141748
0.0029561832
0.0029953672
0.0030318917
0.0030659137
0.0030975758
0.0031270269
0.0031543699
0.0031798198
0.0032032166
0.0032256844
0.0032437545
0.0032722759
0.00014757009
0.00014755106
0.0001475312
0.00014751055
0.00014748928
0.00014746747
0.00014744512
0.00014742214
0.00014739834
0.00014737348
0.00014734723
0.00014731923
0.00014728908
0.00014725633
0.00014722056
0.00014718131
0.00014713813
0.00014709058
0.0001470382
0.00014698053
0.00014691714
0.00014684755
0.0001467713
0.00014668786
0.00014659675
0.00014649742
0.00014638938
0.00014627211
0.0001461451
0.00014600792
0.00014586012
0.00014570138
0.00014553144
0.00014535015
0.00014515747
0.00014495356
0.00014473886
0.00014451406
0.00014428002
0.00014403792
0.00014378954
0.0001435362
0.00014328056
0.00014302664
0.00014277372
0.00014253041
0.00014230326
0.00014208602
0.00014190859
0.00014177009
0.00014166701
0.00014167496
0.00014175648
0.00014199508
0.00014245988
0.00014324201
0.00014451361
0.00014654172
0.00014969257
0.00015479552
0.00016302675
0.00017644889
0.000198623
0.00023433317
0.00029021319
0.00036910648
0.00047115637
0.00059347186
0.00072996784
0.00087344296
0.0010179172
0.0011596628
0.0012967692
0.0014282747
0.0015536516
0.0016726603
0.0017852841
0.0018916417
0.0019919223
0.002086357
0.002175202
0.0022587235
0.0023371897
0.002410865
0.002480007
0.0025448642
0.0026056744
0.0026626647
0.0027160509
0.0027660379
0.0028128191
0.0028565793
0.0028974888
0.0029357212
0.002971407
0.0030047846
0.0030356985
0.0030654405
0.0030897031
0.0031282137
0.0001475854
0.00014756607
0.00014754603
0.00014752523
0.00014750377
0.00014748168
0.00014745896
0.00014743558
0.00014741142
0.00014738632
0.00014736006
0.00014733238
0.00014730298
0.00014727154
0.0001472377
0.00014720113
0.00014716145
0.0001471183
0.0001470713
0.0001470201
0.00014696431
0.00014690357
0.00014683747
0.00014676563
0.0001466876
0.00014660297
0.00014651131
0.00014641218
0.00014630515
0.0001461898
0.00014606573
0.00014593257
0.00014578997
0.00014563768
0.00014547547
0.00014530321
0.00014512095
0.00014492886
0.0001447273
0.00014451676
0.00014429809
0.0001440721
0.00014383998
0.0001436038
0.00014336416
0.00014312383
0.00014288696
0.00014265244
0.00014242891
0.00014222121
0.00014202702
0.00014187083
0.0001417514
0.00014167414
0.00014169456
0.00014179744
0.00014205303
0.0001425275
0.0001432947
0.00014452285
0.00014644903
0.00014943356
0.000154148
0.00016164579
0.00017371889
0.00019335614
0.00022483152
0.00027400407
0.00034381202
0.0004354879
0.00054713409
0.00067362281
0.00080843574
0.00094590542
0.0010822363
0.0012152402
0.0013436656
0.0014667729
0.0015841713
0.0016957181
0.0018014251
0.0019013979
0.0019958018
0.0020848395
0.002168734
0.0022477186
0.0023220296
0.0023919015
0.0024575641
0.0025192401
0.0025771442
0.0026314831
0.0026824515
0.0027302453
0.002775021
0.0028170407
0.0028561505
0.0028938236
0.0029248405
0.002974234
0.00014760242
0.00014758285
0.00014756265
0.00014754176
0.0001475202
0.00014749801
0.00014747516
0.00014745161
0.00014742729
0.00014740209
0.00014737584
0.00014734836
0.00014731943
0.0001472888
0.00014725621
0.00014722138
0.00014718403
0.00014714386
0.00014710057
0.00014705384
0.00014700338
0.00014694887
0.00014688999
0.00014682639
0.00014675772
0.00014668363
0.00014660376
0.00014651773
0.00014642518
0.00014632573
0.00014621902
0.0001461047
0.00014598243
0.00014585188
0.00014571277
0.00014556486
0.000145408
0.0001452421
0.00014506721
0.00014488348
0.00014469125
0.00014449094
0.00014428311
0.00014406879
0.00014384865
0.00014362385
0.00014339659
0.0001431673
0.00014293892
0.00014271499
0.00014249537
0.00014228817
0.00014209725
0.00014192337
0.00014178654
0.00014168833
0.00014164264
0.00014168199
0.00014181636
0.00014211259
0.0001426231
0.00014343883
0.00014471264
0.00014667791
0.00014969293
0.00015438145
0.00016175323
0.00017349973
0.00019239751
0.00022244026
0.0002686064
0.0003339024
0.00041994809
0.00052510581
0.00064470255
0.00077282254
0.00090428437
0.0010354881
0.0011642041
0.0012890609
0.0014092163
0.0015241968
0.0016337812
0.0017379106
0.0018366315
0.0019300602
0.0020183577
0.0021017122
0.0021803278
0.0022544163
0.0023241918
0.0023898675
0.0024516503
0.0025097505
0.0025643438
0.0026157127
0.0026636993
0.0027099702
0.0027483147
0.0028095178
0.00014762109
0.00014760132
0.00014758099
0.00014756002
0.00014753841
0.00014751617
0.00014749327
0.00014746967
0.00014744531
0.00014742009
0.00014739389
0.00014736656
0.00014733794
0.00014730784
0.00014727606
0.00014724239
0.0001472066
0.00014716846
0.00014712773
0.00014708415
0.00014703747
0.00014698743
0.00014693375
0.00014687614
0.0001468143
0.00014674794
0.00014667675
0.00014660041
0.0001465186
0.00014643101
0.0001463373
0.00014623717
0.00014613027
0.0001460163
0.00014589496
0.00014576595
0.00014562903
0.00014548401
0.00014533076
0.00014516923
0.00014499947
0.00014482164
0.00014463597
0.00014444294
0.00014424299
0.0001440367
0.0001438252
0.00014360912
0.00014338972
0.00014316905
0.00014294775
0.0001427289
0.00014251559
0.00014230865
0.00014211541
0.00014193981
0.00014178691
0.00014167149
0.00014158566
0.00014159002
0.00014165457
0.00014184037
0.00014219121
0.00014277155
0.00014367984
0.0001450698
0.00014718164
0.00015039537
0.00015535005
0.00016308897
0.00017525169
0.00019466869
0.00022530813
0.00027111275
0.00033534684
0.00041934197
0.00052124139
0.00063650382
0.00075972223
0.00088626478
0.0010128668
0.0011374087
0.0012585279
0.0013753703
0.0014874376
0.0015944733
0.001696381
0.0017931721
0.001884931
0.0019717894
0.0020539101
0.0021314753
0.0022046765
0.0022737171
0.002338777
0.0024001478
0.0024576568
0.0025131719
0.0025594047
0.00263335
0.00014764132
0.00014762141
0.00014760098
0.00014757995
0.0001475583
0.00014753604
0.00014751312
0.00014748951
0.00014746515
0.00014743996
0.00014741383
0.00014738663
0.00014735824
0.00014732851
0.00014729728
0.00014726439
0.00014722967
0.00014719293
0.00014715398
0.00014711262
0.00014706864
0.00014702182
0.00014697193
0.00014691872
0.00014686195
0.00014680134
0.00014673665
0.0001466676
0.00014659391
0.00014651531
0.00014643151
0.00014634222
0.00014624716
0.00014614602
0.0001460385
0.00014592432
0.00014580319
0.00014567487
0.00014553913
0.00014539582
0.00014524485
0.00014508618
0.00014491985
0.00014474603
0.00014456494
0.00014437688
0.00014418238
0.00014398194
0.00014377621
0.00014356629
0.0001433529
0.00014313742
0.00014292178
0.00014270693
0.00014249593
0.00014229169
0.00014209667
0.00014191809
0.00014175359
0.00014162619
0.0001415325
0.00014148488
0.00014151299
0.00014162958
0.00014188108
0.00014231198
0.00014299608
0.00014404191
0.00014561865
0.00014799584
0.00015157089
0.00015706916
0.00016562498
0.00017900892
0.00020012306
0.00023267729
0.00028036542
0.00034620172
0.00043081842
0.00053180621
0.00064462617
0.00076434558
0.00088690486
0.0010094335
0.00113001
0.0012473705
0.0013607141
0.0014695629
0.0015736599
0.0016728984
0.001767275
0.0018568571
0.0019417592
0.0020221326
0.0020981265
0.0021700174
0.0022375954
0.0023029307
0.0023575624
0.0024451433
0.00014766303
0.00014764304
0.00014762254
0.00014760146
0.0001475798
0.00014755752
0.00014753461
0.00014751101
0.00014748668
0.00014746153
0.00014743547
0.0001474084
0.0001473802
0.00014735075
0.00014731992
0.00014728758
0.00014725361
0.00014721785
0.00014718016
0.00014714037
0.00014709833
0.00014705384
0.00014700672
0.00014695677
0.00014690376
0.00014684748
0.0001467877
0.00014672419
0.00014665671
0.00014658501
0.00014650886
0.00014642799
0.00014634214
0.00014625104
0.00014615441
0.00014605197
0.00014594343
0.00014582852
0.000145707
0.00014557864
0.00014544327
0.00014530074
0.00014515098
0.00014499397
0.00014482976
0.00014465847
0.00014448032
0.0001442956
0.00014410465
0.00014390808
0.00014370641
0.00014350037
0.0001432911
0.00014307939
0.00014286675
0.00014265502
0.0001424457
0.00014224255
0.00014204537
0.00014186314
0.0001416984
0.00014155579
0.00014144853
0.00014137435
0.00014137715
0.00014145024
0.00014163137
0.00014196151
0.00014249609
0.00014332384
0.00014456166
0.00014641149
0.00014918268
0.00015334629
0.00015972527
0.00016955573
0.00018494806
0.00020881767
0.00024475444
0.00029635925
0.00036590111
0.00045301441
0.0005546268
0.0006662211
0.00078337409
0.00090260635
0.0010214564
0.0011382475
0.0012518677
0.0013616081
0.0014670413
0.001567935
0.0016641924
0.0017558154
0.0018428507
0.001925507
0.0020034949
0.0020790715
0.0021425004
0.002244496
0.00014768615
0.00014766611
0.00014764557
0.00014762449
0.00014760283
0.00014758056
0.00014755767
0.00014753409
0.0001475098
0.0001474847
0.00014745873
0.00014743177
0.00014740374
0.00014737452
0.00014734401
0.00014731209
0.00014727866
0.00014724361
0.00014720683
0.00014716818
0.00014712753
0.00014708475
0.00014703968
0.00014699214
0.00014694195
0.00014688893
0.00014683288
0.00014677361
0.0001467109
0.00014664455
0.00014657434
0.00014650005
0.00014642144
0.00014633827
0.00014625028
0.0001461572
0.00014605877
0.00014595471
0.00014584477
0.00014572868
0.00014560624
0.00014547725
0.00014534155
0.00014519903
0.00014504962
0.00014489329
0.0001447301
0.00014456018
0.00014438367
0.00014420087
0.00014401211
0.00014381781
0.0001436186
0.00014341507
0.00014320805
0.00014299867
0.00014278791
0.00014257785
0.00014236899
0.00014216513
0.00014196901
0.00014178299
0.00014161366
0.0001414614
0.0001413439
0.00014126386
0.00014123388
0.00014127432
0.00014140624
0.00014166958
0.00014210331
0.00014277878
0.00014379828
0.00014530793
0.00014754936
0.00015087404
0.00015589109
0.0001635235
0.00017530522
0.00019356019
0.00022140515
0.00026243752
0.00031975853
0.00039454425
0.00048527472
0.00058830541
0.00069928892
0.00081437486
0.00093064754
0.0010460449
0.0011591551
0.001269041
0.0013751056
0.0014769932
0.0015744968
0.0016676488
0.0017559959
0.001841937
0.0019143438
0.0020312975
0.00014771058
0.00014769053
0.00014767
0.00014764893
0.0001476273
0.00014760507
0.00014758221
0.00014755868
0.00014753444
0.00014750941
0.00014748352
0.00014745669
0.00014742881
0.0001473998
0.00014736955
0.00014733798
0.00014730499
0.00014727049
0.00014723438
0.00014719658
0.00014715697
0.00014711545
0.00014707189
0.00014702615
0.00014697808
0.00014692752
0.00014687432
0.0001468183
0.00014675928
0.00014669708
0.00014663152
0.00014656239
0.0001464895
0.00014641262
0.00014633153
0.00014624597
0.00014615569
0.00014606043
0.00014595994
0.00014585396
0.00014574225
0.00014562459
0.00014550078
0.00014537064
0.00014523403
0.00014509085
0.00014494103
0.00014478457
0.00014462151
0.00014445194
0.00014427604
0.00014409402
0.00014390622
0.00014371303
0.00014351492
0.00014331258
0.00014310666
0.00014289835
0.00014268826
0.00014247818
0.00014227007
0.00014206548
0.00014186795
0.00014167842
0.00014150458
0.00014135043
0.00014122269
0.00014112999
0.00014107871
0.00014109944
0.00014119554
0.00014140848
0.00014177272
0.0001423455
0.00014321225
0.00014448931
0.00014637073
0.00014914069
0.0001532602
0.00015945882
0.00016892012
0.00018348803
0.00020579721
0.00023918728
0.00028704332
0.00035152361
0.00043243437
0.00052716636
0.00063176859
0.00074227135
0.00085543443
0.00096886739
0.0010808874
0.0011903486
0.0012964763
0.0013989012
0.0014968374
0.0015927209
0.0016738864
0.0018059034
0.00014773624
0.00014771622
0.00014769572
0.0001476747
0.00014765312
0.00014763095
0.00014760816
0.0001475847
0.00014756052
0.00014753558
0.0001475098
0.00014748309
0.00014745537
0.00014742656
0.00014739656
0.00014736529
0.00014733267
0.00014729862
0.00014726306
0.00014722592
0.00014718711
0.00014714655
0.00014710413
0.00014705975
0.00014701329
0.00014696461
0.00014691358
0.00014686006
0.0001468039
0.00014674494
0.00014668301
0.00014661796
0.0001465496
0.00014647773
0.00014640215
0.00014632264
0.00014623895
0.00014615085
0.0001460581
0.00014596044
0.00014585764
0.00014574945
0.00014563566
0.00014551605
0.00014539046
0.0001452587
0.00014512066
0.00014497624
0.00014482538
0.00014466808
0.00014450437
0.00014433433
0.00014415812
0.00014397595
0.0001437881
0.00014359495
0.00014339692
0.00014319471
0.00014298884
0.00014278024
0.00014257016
0.00014235971
0.0001421509
0.00014194474
0.00014174482
0.00014155429
0.00014137693
0.00014121774
0.00014108093
0.00014097993
0.00014091295
0.00014091832
0.00014098995
0.00014116584
0.00014147934
0.00014197747
0.00014273363
0.00014385024
0.00014548272
0.0001478665
0.00015137779
0.00015661522
0.00016453298
0.0001766297
0.00019514122
0.00022307544
0.00026380272
0.00032002281
0.00039253358
0.00047970904
0.00057815969
0.00068400034
0.0007938066
0.00090493994
0.0010154705
0.001124183
0.0012296223
0.0013340384
0.0014230257
0.0015694245
0.00014776304
0.00014774309
0.00014772266
0.00014770171
0.00014768021
0.00014765812
0.00014763541
0.00014761204
0.00014758797
0.00014756313
0.00014753747
0.0001475109
0.00014748336
0.00014745475
0.00014742499
0.00014739401
0.00014736173
0.00014732808
0.000147293
0.00014725641
0.00014721825
0.00014717845
0.00014713694
0.00014709362
0.00014704839
0.00014700116
0.00014695182
0.00014690023
0.00014684629
0.00014678985
0.00014673079
0.00014666895
0.00014660418
0.00014653631
0.00014646515
0.0001463905
0.00014631216
0.00014622989
0.00014614347
0.00014605267
0.00014595725
0.00014585697
0.00014575161
0.00014564094
0.00014552477
0.00014540288
0.00014527511
0.00014514132
0.00014500138
0.00014485521
0.00014470274
0.00014454397
0.00014437893
0.0001442077
0.00014403041
0.00014384726
0.0001436585
0.00014346453
0.0001432657
0.00014306257
0.00014285589
0.00014264642
0.00014243538
0.00014222362
0.000142013
0.00014180563
0.00014160388
0.00014141087
0.00014122913
0.00014106575
0.00014092188
0.00014081365
0.00014073992
0.00014072775
0.00014078227
0.00014093037
0.00014120484
0.00014164935
0.00014232637
0.0001433255
0.00014478119
0.00014689861
0.00014999592
0.00015457709
0.00016144158
0.0001718551
0.00018774427
0.00021180163
0.00024725285
0.00029704714
0.00036265748
0.00044327912
0.00053611675
0.00063750411
0.00074393322
0.00085272539
0.00096117886
0.0010709304
0.0011655133
0.0013242199
0.00014779091
0.00014777105
0.00014775072
0.00014772987
0.00014770847
0.00014768649
0.00014766389
0.00014764064
0.00014761668
0.00014759198
0.00014756646
0.00014754005
0.00014751269
0.0001474843
0.00014745479
0.0001474241
0.00014739215
0.00014735888
0.00014732423
0.00014728814
0.00014725055
0.0001472114
0.00014717063
0.00014712817
0.00014708394
0.00014703786
0.00014698983
0.00014693977
0.00014688758
0.00014683313
0.00014677632
0.00014671703
0.00014665511
0.00014659042
0.00014652281
0.00014645209
0.00014637807
0.00014630055
0.00014621932
0.00014613417
0.00014604486
0.00014595118
0.00014585289
0.00014574978
0.00014564163
0.00014552822
0.00014540936
0.00014528487
0.00014515459
0.00014501837
0.0001448761
0.0001447277
0.00014457311
0.00014441232
0.00014424535
0.00014407228
0.00014389323
0.00014370839
0.00014351801
0.00014332237
0.00014312195
0.00014291725
0.00014270899
0.00014249784
0.00014228485
0.00014207137
0.00014185895
0.00014164961
0.00014144502
0.00014124916
0.00014106348
0.00014089585
0.00014074847
0.00014063282
0.00014055475
0.00014052718
0.00014056703
0.00014069544
0.00014094183
0.00014134604
0.00014196468
0.00014287967
0.00014421178
0.0001461433
0.00014895328
0.00015308024
0.00015922071
0.00016847872
0.00018255156
0.00020386833
0.0002354734
0.00028039353
0.00034052581
0.00041569981
0.00050363367
0.0006010836
0.00070390043
0.00081261357
0.00090826825
0.0010747424
0.00014781975
0.00014780002
0.0001477798
0.00014775907
0.0001477378
0.00014771595
0.00014769349
0.00014767038
0.00014764657
0.00014762202
0.00014759667
0.00014757044
0.00014754329
0.00014751512
0.00014748588
0.00014745548
0.00014742387
0.00014739098
0.00014735675
0.00014732113
0.00014728406
0.0001472455
0.00014720538
0.00014716366
0.00014712026
0.00014707513
0.00014702819
0.00014697936
0.00014692856
0.00014687571
0.0001468207
0.00014676343
0.0001467038
0.00014664167
0.0001465769
0.00014650935
0.00014643884
0.00014636518
0.0001462882
0.00014620769
0.00014612344
0.00014603524
0.00014594288
0.00014584614
0.0001457448
0.00014563864
0.00014552746
0.00014541105
0.00014528924
0.00014516184
0.0001450287
0.00014488969
0.00014474469
0.00014459362
0.00014443644
0.00014427312
0.00014410368
0.0001439282
0.00014374679
0.00014355961
0.00014336691
0.00014316901
0.00014296634
0.00014275937
0.00014254873
0.00014233527