/*--------------------------------*- C++ -*----------------------------------*\
  =========                 |
  \\      /  F ield         | OpenFOAM: The Open Source CFD Toolbox
   \\    /   O peration     | Website:  https://openfoam.org
    \\  /    A nd           | Version:  12
     \\/     M anipulation  |
\*---------------------------------------------------------------------------*/
FoamFile
{
    format      ascii;
    class       volScalarField;
    location    "1700";
    object      p;
}
// * * * * * * * * * * * * * * * * * * * * * * * * * * * * * * * * * * * * * //

dimensions      [0 2 -2 0 0 0 0];

internalField   nonuniform List<scalar> 
7480
(
0.0060512843
0.0060835729
0.0060484359
0.0060381767
0.0060585679
0.0060735521
0.0060764345
0.006044156
0.0059725568
0.0058824786
0.005765842
0.0056227767
0.0054585489
0.005279293
0.0050889725
0.0048990446
0.0047068662
0.0045178782
0.0043345301
0.004162641
0.003998395
0.0038426538
0.0036988864
0.0035687542
0.0034521787
0.0033498303
0.0032622731
0.0031896368
0.0031312801
0.003085103
0.0030494471
0.0030208587
0.0029939028
0.0029650762
0.0029325389
0.0028962575
0.0028581445
0.0028202048
0.002782429
0.0027442512
0.0027053108
0.0026656156
0.0026260516
0.0025867627
0.0025472813
0.0025076919
0.0024684813
0.002429887
0.002391375
0.0023527172
0.0023141615
0.0022759886
0.0022379384
0.0021996886
0.0021615151
0.00212354
0.0020854526
0.0020471651
0.0020089228
0.0019706647
0.0019320837
0.0018934104
0.0018546342
0.0018154831
0.0017761334
0.0017365777
0.0016966113
0.0016563648
0.0016158123
0.0015748034
0.0015334199
0.0014916195
0.0014493645
0.0014066432
0.0013634107
0.001319681
0.0012754201
0.0012306042
0.0011852231
0.0011392655
0.0010927217
0.0010455849
0.00099785334
0.00094953005
0.00090062717
0.00085116369
0.00080118015
0.00075071771
0.00069988969
0.0006487402
0.00059763547
0.00054639705
0.00049652225
0.00044606257
0.00040233534
0.00035243576
0.00033471917
0.0002526934
0.00055630976
-0.00046559227
0.0059718826
0.0059990665
0.0059650477
0.0059754707
0.0060060769
0.0060247702
0.0060180706
0.0059886279
0.005941325
0.0058694924
0.0057696989
0.0056431399
0.0054942136
0.0053277816
0.0051501639
0.0049638808
0.0047768613
0.0045898084
0.004405957
0.0042324303
0.0040663045
0.0039081968
0.0037605745
0.003625779
0.0035048071
0.0033981349
0.0033061297
0.0032288509
0.0031654434
0.0031135518
0.0030718923
0.0030377933
0.003006366
0.0029744146
0.0029402193
0.0029034715
0.0028656388
0.0028282448
0.0027908623
0.0027527584
0.0027136358
0.0026736475
0.0026337879
0.0025942216
0.0025544714
0.0025146169
0.0024751383
0.0024362729
0.0023974927
0.0023585771
0.0023197734
0.0022813595
0.0022430732
0.002204594
0.0021662008
0.0021280147
0.0020897236
0.0020512407
0.0020128124
0.0019743759
0.0019356234
0.001896787
0.0018578552
0.0018185554
0.0017790645
0.0017393741
0.001699279
0.0016589104
0.0016182415
0.0015771215
0.0015356327
0.0014937318
0.0014513813
0.0014085691
0.00136525
0.001321438
0.0012770987
0.0012322083
0.0011867561
0.0011407309
0.0010941227
0.0010469246
0.00099913465
0.00095075573
0.00090179986
0.00085228591
0.00080225428
0.00075174605
0.00070087443
0.00064968342
0.00059853928
0.00054726328
0.0004973533
0.00044685966
0.00040310259
0.0003531731
0.00033541621
0.00025349508
0.00055716564
-0.00046492341
0.0059099071
0.0059491314
0.0059391713
0.0059548599
0.0059797837
0.0059909371
0.0059808401
0.0059532956
0.0059045064
0.0058265202
0.0057211074
0.0055904063
0.0054384074
0.0052701828
0.0050914278
0.0049055907
0.004720717
0.0045367734
0.0043574385
0.0041885244
0.0040286024
0.003877439
0.0037367038
0.0036088831
0.0034952788
0.0033960629
0.0033114649
0.0032412332
0.003184283
0.0031384136
0.0031006401
0.003067615
0.0030355856
0.0030015347
0.0029641888
0.0029235226
0.0028814303
0.0028401761
0.0027998618
0.0027598764
0.0027197962
0.0026795398
0.002639821
0.0026004703
0.0025607843
0.0025208179
0.0024811301
0.0024420247
0.0024030033
0.0023638636
0.002324851
0.0022862367
0.0022477543
0.0022090868
0.0021705176
0.0021321636
0.0020937089
0.0020550679
0.0020164887
0.0019779064
0.0019390118
0.0019000401
0.0018609777
0.0018215512
0.0017819396
0.0017421328
0.0017019253
0.0016614492
0.0016206768
0.0015794573
0.0015378732
0.0014958807
0.0014534424
0.0014105461
0.0013671464
0.0013232571
0.0012788438
0.0012338825
0.0011883623
0.0011422721
0.0010956016
0.0010483439
0.0010004968
0.00095206312
0.00090305487
0.00085349076
0.00080341114
0.00075285696
0.0007019414
0.00065070833
0.00059952411
0.00054820962
0.00049826353
0.00044773445
0.0004039467
0.00035398274
0.00033620676
0.00025436914
0.00055806459
-0.00046426444
0.0058526647
0.0058980827
0.0058997928
0.0059140817
0.0059344701
0.0059437241
0.0059348037
0.0059079038
0.0058591227
0.0057841067
0.0056847156
0.0055620331
0.0054189923
0.0052599474
0.0050899333
0.0049125923
0.0047345112
0.0045563082
0.0043815592
0.0042147562
0.0040561112
0.0039049907
0.0037631546
0.003633232
0.0035165573
0.0034134571
0.0033244026
0.0032494839
0.0031881889
0.0031391454
0.0030990327
0.0030648138
0.0030337588
0.0030024915
0.0029690855
0.0029331735
0.0028953395
0.002856377
0.0028166293
0.0027759534
0.002734113
0.00269138
0.0026491423
0.0026077855
0.0025668107
0.0025261702
0.0024862863
0.0024472388
0.0024082773
0.0023690953
0.0023299554
0.0022911749
0.0022525126
0.0022136662
0.0021749275
0.0021364075
0.0020977878
0.0020589881
0.0020202589
0.0019815313
0.001942495
0.001903389
0.001864197
0.0018246442
0.0017849122
0.0017449889
0.0017046682
0.0016640839
0.0016232069
0.0015818862
0.0015402051
0.0014981191
0.0014555909
0.0014126081
0.0013691252
0.0013251562
0.0012806663
0.0012356313
0.0011900406
0.0011438826
0.0010971471
0.0010498271
0.0010019202
0.00095342924
0.00090436606
0.00085474931
0.00080461925
0.00075401675
0.00070305493
0.00065177755
0.000600551
0.00054919583
0.00049921129
0.00044864457
0.00040482312
0.00035482165
0.00033702816
0.00025513477
0.00055894813
-0.00046367304
0.005797744
0.0058465076
0.0058572437
0.0058734397
0.0058927283
0.0059011619
0.0058920714
0.0058648144
0.0058167823
0.005744457
0.0056483709
0.0055293334
0.0053900752
0.0052347345
0.0050681391
0.0048939645
0.0047181071
0.0045421551
0.004369446
0.0042040218
0.0040470306
0.0038978173
0.0037580364
0.0036301136
0.0035153641
0.003414158
0.0033268451
0.0032534182
0.0031932261
0.0031446523
0.0031043397
0.0030693199
0.0030368542
0.0030036596
0.0029681957
0.0029308714
0.0028923626
0.0028533744
0.002814819
0.0027765836
0.0027380325
0.0026988429
0.0026589965
0.0026185418
0.0025775457
0.0025359557
0.0024945468
0.00245399
0.0024138734
0.0023739686
0.0023344931
0.0022956411
0.0022569811
0.0022180961
0.0021792723
0.0021406379
0.0021018885
0.002062958
0.0020241011
0.0019852438
0.0019460762
0.0019068458
0.0018675324
0.0018278597
0.0017880129
0.0017479777
0.0017075472
0.0016668574
0.0016258779
0.001584457
0.0015426794
0.0015004998
0.001457881
0.0014148106
0.0013712429
0.0013271922
0.0012826234
0.0012375123
0.0011918481
0.0011456195
0.0010988159
0.0010514303
0.0010034603
0.00095490875
0.00090578725
0.00085611445
0.00080593053
0.00075527629
0.0007042648
0.00065293972
0.00060166742
0.00055026825
0.00050024169
0.00044963408
0.00040577455
0.00035573196
0.0003379137
0.00025592668
0.00055986011
-0.00046297506
0.005745496
0.0057963774
0.0058143878
0.0058327043
0.0058507712
0.0058577525
0.0058479806
0.0058205686
0.0057733148
0.0057029782
0.0056096608
0.0054943578
0.0053596335
0.005209292
0.0050478238
0.0048788172
0.0047075907
0.0045361671
0.0043677084
0.0042055316
0.0040513861
0.003904634
0.0037668688
0.0036403353
0.0035263937
0.0034255315
0.0033380484
0.003263917
0.0032025426
0.0031524114
0.0031104794
0.0030739643
0.0030402555
0.0030063123
0.002970681
0.0029334741
0.0028949554
0.0028556542
0.0028163804
0.0027770301
0.0027373658
0.0026975062
0.0026573224
0.002617312
0.0025778998
0.0025387849
0.0024997547
0.0024606053
0.0024211114
0.0023811136
0.0023409304
0.0023011696
0.0022617053
0.0022222619
0.0021831451
0.0021444157
0.0021056336
0.0020666603
0.0020277407
0.0019888026
0.0019495424
0.0019102215
0.0018708137
0.001831042
0.0017910988
0.0017509678
0.001710441
0.0016696579
0.0016285863
0.0015870745
0.0015452085
0.001502942
0.0014602385
0.0014170855
0.0013734371
0.001329308
0.0012846628
0.0012394776
0.0011937416
0.0011474432
0.001100572
0.001053121
0.0010050877
0.00095647498
0.00090729438
0.00085756451
0.00080732552
0.00075661815
0.00070555544
0.00065418098
0.00060286109
0.00055141601
0.00050134517
0.00045069457
0.00040679358
0.0003567071
0.00033885823
0.00025677814
0.00056077849
-0.00046211877
0.0056956932
0.0057477496
0.0057713186
0.0057912243
0.0058080794
0.0058137711
0.0058035234
0.0057761647
0.0057296579
0.0056611877
0.0055707185
0.0054592506
0.0053290839
0.0051836688
0.0050271622
0.0048630539
0.0046961717
0.0045288002
0.0043638955
0.0042046156
0.0040527374
0.0039079777
0.0037719058
0.0036466408
0.0035335324
0.0034331082
0.0033456783
0.0032712159
0.0032091755
0.003158159
0.003115306
0.0030778778
0.0030433598
0.0030088845
0.0029729267
0.0029354421
0.0028966867
0.0028572228
0.0028178211
0.0027784327
0.0027388615
0.0026990318
0.0026587252
0.0026184071
0.0025784361
0.0025387869
0.0024992565
0.0024598307
0.0024208941
0.0023823414
0.0023439093
0.0023054139
0.0022666243
0.002227364
0.0021879506
0.0021487252
0.0021094526
0.0020701117
0.0020309975
0.0019919861
0.0019526853
0.0019133267
0.0018738695
0.0018340365
0.0017940317
0.0017538342
0.0017132354
0.00167238
0.0016312346
0.0015896475
0.0015477071
0.0015053661
0.0014625888
0.0014193629
0.0013756423
0.0013314423
0.0012867274
0.0012414737
0.0011956705
0.0011493065
0.0011023713
0.0010548577
0.0010067636
0.00095809155
0.00090885332
0.00085906748
0.00080877416
0.00075801412
0.00070690034
0.00065547642
0.00060410855
0.00055261704
0.00050250089
0.00045180642
0.00040786153
0.00035772932
0.00033984568
0.00025766875
0.00056166581
-0.00046109265
0.0056479592
0.0057002801
0.0057279456
0.0057490922
0.0057649829
0.0057696678
0.0057590921
0.0057318766
0.0056861604
0.0056195542
0.0055319068
0.00542414
0.0052983321
0.0051576353
0.0050059082
0.0048465313
0.0046839168
0.0045205218
0.0043591601
0.004202839
0.0040533581
0.0039107839
0.0037765913
0.0036527758
0.0035406635
0.0034408235
0.0033535829
0.0032789322
0.003216338
0.003164456
0.0031206165
0.0030821652
0.0030467047
0.0030115372
0.0029751104
0.0029373199
0.0028984057
0.0028588711
0.0028194007
0.0027799583
0.0027403315
0.0027004194
0.0026600735
0.0026197277
0.0025797235
0.0025400265
0.002500394
0.0024608333
0.0024216602
0.0023827932
0.0023440024
0.002305177
0.0022665837
0.0022282959
0.002190065
0.0021517056
0.0021130001
0.0020738588
0.0020346216
0.0019953329
0.001955741
0.0019161733
0.0018766122
0.0018367276
0.0017966929
0.0017564638
0.0017158254
0.0016749289
0.0016337376
0.0015920992
0.0015501052
0.001507708
0.0014648729
0.0014215881
0.0013778077
0.0013335479
0.0012887731
0.0012434597
0.0011975972
0.0011511743
0.0011041809
0.0010566101
0.0010084595
0.00095973207
0.0009104395
0.00086060046
0.00081025513
0.00075944429
0.00070828094
0.00065680869
0.00060539361
0.00055385617
0.00050369461
0.00045295625
0.00040896572
0.00035878664
0.00034086458
0.0002585828
0.0005624917
-0.00045987577
0.0056019653
0.0056537796
0.0056843299
0.0057064572
0.0057216068
0.0057254963
0.0057146961
0.0056877245
0.0056428906
0.0055781577
0.0054932837
0.0053891081
0.0052675273
0.0051314286
0.0049843895
0.0048296667
0.0046713151
0.0045118943
0.0043541098
0.0042008072
0.0040538152
0.0039134785
0.0037811989
0.0036588634
0.0035477756
0.003448544
0.0033615108
0.0032866794
0.0032235287
0.0031707748
0.0031259379
0.0030864791
0.0030500877
0.0030142127
0.0029773274
0.002939259
0.0029001911
0.002860558
0.0028209736
0.0027814143
0.0027416807
0.0027016927
0.0026613321
0.0026209846
0.0025809717
0.0025412523
0.0025016068
0.0024620466
0.0024228329
0.0023838779
0.0023449686
0.0023060336
0.0022673196
0.0022288851
0.0021903665
0.0021517279
0.0021132404
0.0020748563
0.0020363942
0.0019976615
0.0019584803
0.0019190509
0.0018794299
0.0018393783
0.001799177
0.0017588439
0.0017181509
0.001677228
0.0016360151
0.0015943516
0.0015523308
0.0015099023
0.0014670316
0.0014237074
0.0013798845
0.0013355802
0.0012907588
0.0012453976
0.0011994865
0.0011530143
0.0011059713
0.0010583506
0.0010101503
0.00096137324
0.00091203146
0.00086214369
0.0008117502
0.00076089188
0.00070968174
0.00065816352
0.00060670307
0.00055512123
0.00050491507
0.00045413364
0.00041009638
0.00035986994
0.00034190611
0.00025951106
0.00056322824
-0.00045843879
0.0055574241
0.0056081405
0.0056405574
0.0056633896
0.0056779446
0.0056812028
0.0056702811
0.0056436661
0.0055998132
0.0055369758
0.0054548549
0.0053542092
0.0052367705
0.0051051824
0.0049627568
0.0048126175
0.0046585082
0.0045030378
0.0043488213
0.004198557
0.0040540931
0.0039160028
0.0037856434
0.0036648029
0.0035547611
0.0034561598
0.0033693553
0.0032943628
0.0032306798
0.003177087
0.0031312812
0.0030908392
0.0030535336
0.0030169553
0.0029796099
0.0029412519
0.0029020113
0.0028622609
0.0028225506
0.0027828726
0.0027430438
0.0027029923
0.0026626115
0.0026222457
0.0025821971
0.0025424291
0.0025027485
0.0024631669
0.0024239219
0.0023849388
0.0023460211
0.0023070939
0.0022683564
0.0022298262
0.002191189
0.002152475
0.0021139246
0.0020754371
0.002036711
0.0019978471
0.0019590501
0.0019201507
0.0018809823
0.0018413656
0.0018014242
0.001761166
0.0017204083
0.0016793792
0.0016380854
0.0015963758
0.0015543331
0.0015118901
0.0014690051
0.001425664
0.0013818203
0.0013374913
0.0012926412
0.0012472479
0.0012013021
0.0011547931
0.0011077115
0.0010600509
0.0010118097
0.00096299104
0.0009136071
0.00086367684
0.0008132407
0.00076233972
0.000711087
0.00065952642
0.00060802363
0.00055639999
0.000506151
0.0004553282
0.00041124379
0.0003609702
0.00034296167
0.00026044495
0.00056384829
-0.00045674849
0.0055140899
0.0055632738
0.0055967089
0.0056199546
0.0056339993
0.0056367517
0.0056257987
0.0055996397
0.0055568558
0.0054959427
0.00541657
0.0053194135
0.0052060508
0.0050789004
0.004941024
0.0047954062
0.0046455166
0.0044939736
0.0043433126
0.0041961026
0.0040542003
0.0039183704
0.0037899426
0.0036706149
0.0035616424
0.0034636945
0.0033771418
0.0033020123
0.0032378259
0.0031834275
0.0031366777
0.0030952694
0.003057061
0.0030197788
0.0029819618
0.0029432992
0.0029038717
0.0028639948
0.0028241572
0.0027843618
0.0027444387
0.0027043195
0.0026639089
0.0026235166
0.0025834252
0.0025436087
0.0025038933
0.0024642861
0.0024250051
0.0023859855
0.0023470385
0.0023080865
0.0022693153
0.0022307486
0.0021921112
0.0021534075
0.0021148189
0.002076233
0.0020374186
0.0019985233
0.0019597134
0.0019206216
0.0018812421
0.0018417955
0.0018021887
0.0017622825
0.0017219042
0.001681161
0.001640003
0.0015982942
0.0015561929
0.0015136944
0.0014707783
0.0014274228
0.0013835707
0.0013392346
0.001294375
0.0012489685
0.0012030053
0.0011564751
0.001109369
0.0010616812
0.0010134104
0.00096456014
0.00091514308
0.00086517843
0.00081470687
0.00076376966
0.00071248001
0.00066088208
0.00060934122
0.00055767951
0.00050739047
0.00045652897
0.00041239776
0.00036207789
0.00034402228
0.00026137476
0.00056432746
-0.00045476733
0.0054717568
0.0055190985
0.0055528582
0.005576231
0.0055898014
0.0055921353
0.0055812171
0.0055555891
0.0055139434
0.005454978
0.0053783473
0.0052846443
0.005175301
0.0050525275
0.0049191491
0.0047780055
0.004632322
0.0044846949
0.0043375873
0.0041934535
0.0040541498
0.0039206004
0.0037941185
0.0036763215
0.0035684399
0.0034711668
0.0033848871
0.0033096427
0.003244979
0.0031898043
0.003142133
0.0030997747
0.0030606753
0.0030226884
0.0029843893
0.0029454102
0.0029057841
0.002865772
0.0028258032
0.0027858873
0.0027458665
0.0027056756
0.002665231
0.0026248101
0.002584676
0.0025448112
0.0025050587
0.0024654219
0.0024260991
0.0023870328
0.002348047
0.0023090678
0.0022702655
0.0022316661
0.0021930133
0.0021542874
0.0021156579
0.0020770416
0.0020382365
0.001999344
0.0019604633
0.0019212857
0.0018818817
0.001842444
0.0018026985
0.0017626108
0.0017223089
0.0016817697
0.0016408718
0.0015994895
0.001557661
0.001515305
0.0014724188
0.0014290375
0.0013851531
0.0013407992
0.0012959332
0.0012505246
0.0012045591
0.0011580243
0.00111091
0.0010632099
0.0010149232
0.00096605387
0.00091661484
0.00086662582
0.00081612782
0.00076516245
0.00071384308
0.00066221419
0.00061064083
0.00055894601
0.00050862081
0.00045772427
0.0004135474
0.00036318288
0.00034507839
0.00026228977
0.00056461676
-0.00045245332
0.0054302527
0.00547554
0.005509069
0.0055323006
0.0055453972
0.0055473681
0.0055365278
0.005511482
0.0054710218
0.0054140136
0.0053401086
0.0052498196
0.0051444413
0.0050259895
0.0048970656
0.0047603595
0.0046188757
0.004475164
0.0043316177
0.0041905883
0.0040539247
0.0039226818
0.0037981642
0.003681918
0.0035751502
0.0034785741
0.0033925892
0.0033172524
0.0032521373
0.0031962159
0.0031476468
0.0031043569
0.0030643796
0.0030256887
0.002986899
0.0029475928
0.0029077564
0.0028675991
0.0028274938
0.0027874537
0.0027473321
0.0027070669
0.0026665848
0.0026261331
0.0025859555
0.0025460413
0.0025062497
0.0024665812
0.002427215
0.0023881002
0.0023490737
0.0023100652
0.0022712276
0.0022325855
0.0021938995
0.0021551464
0.002116487
0.0020778474
0.0020390332
0.0020001178
0.0019611941
0.0019220071
0.0018826174
0.0018431405
0.0018033276
0.0017632144
0.0017229225
0.0016822621
0.001641224
0.0015998776
0.0015581864
0.00151605
0.0014734402
0.0014302966
0.0013865409
0.0013422222
0.0012973472
0.0012519242
0.0012059524
0.0011594178
0.0011123057
0.0010646069
0.0010163187
0.00096744431
0.00091799644
0.00086799504
0.00081748146
0.00076649769
0.00071515735
0.00066350538
0.00061190646
0.00056018472
0.00050982839
0.00045890152
0.00041468103
0.00036427423
0.00034611976
0.00026318008
0.0005646702
-0.00044976692
0.0053894343
0.0054325296
0.0054653924
0.0054882405
0.0055008401
0.0055024798
0.0054917431
0.005467311
0.0054280635
0.0053730068
0.0053017977
0.0052148743
0.0051134019
0.0049992146
0.004874702
0.0047424009
0.0046051133
0.004465323
0.0043253533
0.0041874624
0.004053485
0.0039245815
0.0038020526
0.0036873825
0.0035817555
0.0034859024
0.003400237
0.003324833
0.0032592948
0.003202658
0.0031532173
0.0031090159
0.0030681753
0.0030287831
0.0029894957
0.0029498518
0.0029097936
0.0028694812
0.002829234
0.002789066
0.0027488407
0.0027084988
0.0026679751
0.0026274897
0.0025872671
0.0025473025
0.0025074702
0.0024677682
0.0024283579
0.0023891942
0.0023501261
0.0023110861
0.0022722106
0.0022335227
0.0021948006
0.002156019
0.0021173256
0.0020786509
0.0020398097
0.0020008674
0.0019619169
0.0019227207
0.0018833207
0.0018438126
0.0018039816
0.001763871
0.0017235592
0.0016828535
0.0016417961
0.001600433
0.0015586306
0.0015164181
0.0014738165
0.0014307705
0.0013872258
0.0013431496
0.0012984647
0.0012531436
0.0012072037
0.0011606707
0.0011135564
0.0010658596
0.0010175764
0.0009687072
0.00091926271
0.00086926159
0.00081874464
0.00076775384
0.00071640288
0.00066473717
0.000613121
0.00056137983
0.00051099858
0.0004600472
0.00041578604
0.0003653401
0.00034713533
0.00026403308
0.00056444862
-0.00044665809
0.0053491824
0.005390005
0.0054218675
0.0054441203
0.0054561846
0.0054575085
0.0054468889
0.0054230872
0.0053850632
0.0053319394
0.0052633841
0.0051797672
0.0050821328
0.004972146
0.0048519967
0.0047240666
0.00459097
0.004455109
0.0043187354
0.0041840207
0.0040527792
0.0039262542
0.0038057452
0.0036926824
0.0035882286
0.003493129
0.0034078126
0.0033323706
0.0032664409
0.0032091226
0.0031588392
0.0031137489
0.0030720614
0.0030319724
0.0029921815
0.0029521905
0.0029118994
0.0028714222
0.0028310277
0.0027907282
0.0027503964
0.0027099747
0.0026694055
0.0026288833
0.0025886141
0.0025485982
0.0025087237
0.0024689864
0.002429531
0.0023903176
0.0023512067
0.0023121334
0.0022732188
0.0022344843
0.0021957255
0.0021569137
0.0021181831
0.0020794692
0.002040598
0.002001627
0.0019626438
0.0019234236
0.0018839988
0.0018444645
0.0018046223
0.0017645025
0.0017241738
0.0016834567
0.001642389
0.0016010099
0.0015591863
0.0015169687
0.001474307
0.0014311595
0.0013875686
0.0013435073
0.0012989369
0.0012538116
0.0012080728
0.0011616855
0.0011146465
0.0010669766
0.0010187012
0.00096983732
0.00092039994
0.00087040663
0.00081989633
0.00076890959
0.0007175591
0.00066589019
0.0006142664
0.00056251455
0.00051211579
0.00046114676
0.00041684885
0.00036636762
0.00034811318
0.00026483365
0.00056391556
-0.00044306718
0.0053093988
0.005347911
0.0053785234
0.0054000012
0.0054114839
0.0054124955
0.0054019978
0.0053788326
0.0053420311
0.0052908119
0.0052248583
0.0051444791
0.0050506062
0.0049447475
0.0048289055
0.0047053067
0.0045763899
0.0044444643
0.0043117066
0.0041802065
0.0040517521
0.003927649
0.0038091969
0.003697778
0.0035945349
0.0035002249
0.0034152918
0.0033398459
0.0032735603
0.0032155978
0.0031645038
0.0031185498
0.0030760339
0.0030352547
0.0029949566
0.0029546101
0.0029140759
0.0028734249
0.0028328777
0.0027924431
0.0027520019
0.0027114976
0.0026708788
0.0026303167
0.0025899993
0.002549931
0.0025100126
0.0024702382
0.0024307368
0.002391473
0.0023523181
0.0023132097
0.002274255
0.0022354734
0.0021966764
0.0021578328
0.0021190635
0.0020803095
0.0020414074
0.0020024061
0.0019633861
0.0019241374
0.0018846857
0.0018451215
0.0018052576
0.0017651159
0.0017247638
0.0016840343
0.0016429568
0.0016015668
0.0015597438
0.0015175123
0.0014748323
0.0014316811
0.0013880654
0.0013439295
0.0012992849
0.0012541284
0.0012084356
0.001162178
0.0011153141
0.0010678046
0.0010196364
0.00097082615
0.0009214108
0.00087142856
0.00082092776
0.00076995062
0.00071860868
0.00066694605
0.00061532445
0.00056357144
0.00051316359
0.0004621848
0.00041785503
0.00036734301
0.0003490405
0.00026556743
0.00056303366
-0.00043893846
0.0052700029
0.0053061988
0.0053353811
0.0053559362
0.0053667883
0.0053674828
0.0053571053
0.0053345748
0.0052989858
0.0052496365
0.0051862256
0.0051090084
0.005018813
0.0049170018
0.0048054023
0.0046860877
0.0045613317
0.0044333418
0.004304217
0.0041759676
0.0040503504
0.003928715
0.0038123602
0.0037026266
0.0036006363
0.0035071568
0.0034226463
0.0033472355
0.0032806339
0.0032220683
0.0031701993
0.0031234099
0.0030800867
0.0030386263
0.0029978189
0.0029571098
0.0029163235
0.0028754901
0.0028347852
0.0027942121
0.0027536587
0.0027130692
0.002672397
0.0026317919
0.0025914247
0.002551303
0.0025113391
0.0024715258
0.0024319773
0.0023926623
0.0023534622
0.0023143173
0.0022753213
0.0022364919
0.0021976555
0.0021587785
0.0021199696
0.0020811746
0.0020422403
0.002003207
0.001964149
0.0019248706
0.0018853909
0.0018457941
0.0018059041
0.0017657373
0.0017253577
0.0016846078
0.0016435112
0.0016021021
0.0015602668
0.0015180231
0.0014753393
0.001432191
0.0013885685
0.001344422
0.0012997552
0.0012545515
0.0012087997
0.0011624955
0.0011156309
0.0010681929
0.0010201583
0.00097149903
0.00092220591
0.00087229834
0.00082183448
0.00077087561
0.00071954582
0.0006678939
0.00061628088
0.00056453463
0.00051412585
0.00046314554
0.00041878953
0.00036825164
0.00034990378
0.00026621844
0.00056173998
-0.0004342117
0.0052309287
0.0052648269
0.0052924551
0.0053119705
0.0053221443
0.0053225112
0.0053122477
0.0052903437
0.0052559509
0.0052084317
0.0051475003
0.0050733646
0.0049867572
0.0048889065
0.0047814765
0.0046663911
0.0045457678
0.0044217072
0.0042962268
0.0041712599
0.0040485266
0.0039294045
0.0038151897
0.0037071852
0.0036064934
0.0035138892
0.0034298453
0.0033545131
0.0032876399
0.0032285158
0.0031759113
0.0031283181
0.0030842111
0.0030420809
0.0030007644
0.0029596874
0.0029186409
0.0028776174
0.0028367502
0.0027960358
0.0027553677
0.0027146903
0.0026739612
0.0026333102
0.0025928914
0.0025527153
0.0025127046
0.0024728506
0.0024332541
0.0023938871
0.0023546407
0.0023154577
0.0022764195
0.0022375415
0.0021986644
0.0021597526
0.0021209033
0.0020820664
0.0020430983
0.0020040318
0.0019649349
0.0019256257
0.0018861167
0.0018464859
0.0018065682
0.0017663751
0.0017259662
0.0016851924
0.0016440728
0.0016026399
0.0015607846
0.001518523
0.0014758255
0.0014326654
0.0013890336
0.0013448859
0.0013002189
0.0012550114
0.0012092467
0.0011629125
0.001116002
0.0010685164
0.0010204583
0.00097182967
0.0009226294
0.00087285081
0.00082250954
0.0007716377
0.00072035697
0.00066873023
0.00061713115
0.00056539561
0.00051499071
0.0004640151
0.00041963789
0.00036907867
0.00035068916
0.0002667691
0.00055997771
-0.00042882329
0.005192123
0.0052237599
0.0052497553
0.0052681426
0.0052775947
0.0052776203
0.0052674607
0.0052461704
0.0052129517
0.0051672194
0.0051087014
0.0050375635
0.0049544512
0.0048604688
0.0047571289
0.0046462105
0.0045296832
0.0044095376
0.0042877068
0.0041660482
0.0040462406
0.0039296755
0.0038176435
0.0037114132
0.0036120677
0.0035203871
0.0034368574
0.0033616514
0.0032945549
0.0032349206
0.0031816233
0.0031332612
0.0030883967
0.0030456107
0.0030037876
0.0029623389
0.0029210256
0.0028798051
0.0028387716
0.0027979132
0.0027571283
0.0027163609
0.0026755715
0.0026348718
0.0025944002
0.0025541688
0.0025141098
0.0024742135
0.002434568
0.0023951485
0.0023558548
0.0023166322
0.0022775507
0.0022386235
0.0021997045
0.0021607566
0.002121866
0.0020829862
0.0020439832
0.0020048824
0.0019657458
0.0019264044
0.0018868648
0.001847199
0.0018072525
0.0017670319
0.0017265924
0.0016857932
0.0016446492
0.0016031904
0.0015613128
0.0015190298
0.0014763124
0.0014331338
0.001389486
0.0013453267
0.0013006511
0.0012554391
0.0012096729
0.001163337
0.0011164204
0.0010689164
0.0010208247
0.00097215424
0.00092292254
0.00087314976
0.00082286843
0.00077210011
0.00072093265
0.00066939659
0.00061785328
0.00056614754
0.00051575364
0.00046478627
0.00042039004
0.00036981128
0.00035138372
0.00026720107
0.00055769327
-0.00042271003
0.0051535426
0.0051829686
0.0052072883
0.0052244849
0.0052331783
0.0052328472
0.005222779
0.0052020857
0.0051700145
0.0051260229
0.0050698501
0.0050016246
0.0049219121
0.0048317026
0.0047323679
0.0046255481
0.0045130722
0.0043968197
0.0042786368
0.0041603057
0.0040434597
0.003929492
0.0038196844
0.0037152738
0.0036173233
0.0035266163
0.0034436514
0.0033686227
0.0033013545
0.0032412617
0.0031873178
0.0031382246
0.0030926317
0.0030492064
0.0030068813
0.002965059
0.0029234735
0.0028820504
0.0028408471
0.0027998428
0.0027589392
0.0027180798
0.0026772273
0.0026364765
0.0025959508
0.0025556634
0.002515555
0.0024756149
0.0024359197
0.0023964471
0.0023571051
0.0023178415
0.0022787157
0.0022397389
0.0022007769
0.0021617916
0.0021228587
0.0020839354
0.0020448962
0.00200576
0.0019665829
0.0019272081
0.0018876369
0.0018479351
0.0018079588
0.0017677095
0.0017272383
0.0016864126
0.0016452429
0.0016037571
0.0015618557
0.0015195495
0.0014768102
0.0014336111
0.0013899438
0.001345767
0.0013010757
0.0012558506
0.0012100747
0.0011637327
0.0011168134
0.0010693081
0.0010212133
0.00097253174
0.00092327613
0.00087346896
0.00082315526
0.00077237887
0.00072124726
0.0006697909
0.00061834597
0.00056672712
0.00051638654
0.00046544875
0.00042104085
0.00037044219
0.00035197891
0.0002674977
0.00055483745
-0.000415814
0.0051151532
0.0051424294
0.0051650586
0.0051810244
0.00518893
0.0051882271
0.0051782361
0.0051581198
0.0051271659
0.0050848662
0.005030969
0.0049655693
0.0048891596
0.0048026248
0.0047072064
0.0046044113
0.0044959354
0.0043835468
0.0042690035
0.0041540122
0.0040401576
0.003928824
0.0038212804
0.0037187337
0.0036222271
0.0035325449
0.0034501974
0.0033753996
0.0033080144
0.0032475173
0.0031929761
0.0031431927
0.0030969029
0.0030528575
0.0030100376
0.0029678415
0.00292598
0.0028843494
0.0028429736
0.0028018218
0.0027607983
0.0027198455
0.0026789273
0.0026381233
0.0025975425
0.0025571987
0.0025170398
0.0024770547
0.0024373092
0.002397783
0.0023583921
0.0023190862
0.0022799153
0.0022408881
0.0022018822
0.0021628583
0.0021238825
0.0020849147
0.0020458382
0.0020066656
0.0019674472
0.001928038
0.0018884342
0.0018486957
0.0018086882
0.0017684093
0.0017279054
0.0016870521
0.0016458557
0.0016043417
0.0015624155
0.0015200849
0.0014773224
0.0014341015
0.0013904129
0.0013462166
0.0013015067
0.0012562646
0.0012104732
0.001164118
0.0011171881
0.0010696756
0.0010215769
0.00097289365
0.00092363584
0.00087382141
0.00082349054
0.00077268635
0.00072152411
0.00067005207
0.00061862527
0.00056706495
0.00051680203
0.00046593985
0.00042155923
0.00037095775
0.00035246932
0.00026764619
0.00055137585
-0.0004080914
0.0050769279
0.0051021232
0.0051230693
0.0051377838
0.0051448809
0.0051437924
0.0051338638
0.0051143024
0.0050844323
0.0050437737
0.0049920811
0.0049294195
0.0048562147
0.0047732546
0.00468166
0.0045828115
0.0044782779
0.0043697175
0.0042587988
0.0041471533
0.0040363135
0.0039276461
0.0038224035
0.0037217634
0.003626749
0.0035381433
0.003456467
0.0033819558
0.0033145105
0.003253666
0.0031985792
0.0031481493
0.0031011967
0.0030565527
0.0030132474
0.0029706793
0.0029285395
0.0028866979
0.0028451474
0.0028038471
0.0027627029
0.0027216555
0.0026806695
0.0026398105
0.0025991739
0.0025587734
0.0025185635
0.0024785324
0.0024387361
0.0023991562
0.0023597155
0.0023203663
0.0022811495
0.0022420717
0.0022030208
0.0021639573
0.0021249376
0.0020859249
0.0020468099
0.0020076
0.0019683396
0.0019288948
0.0018892574
0.0018494814
0.0018094419
0.0017691323
0.001728595
0.001687713
0.001646489
0.0016049459
0.0015629938
0.0015206377
0.001477851
0.0014346071
0.001390896
0.001346679
0.0013019492
0.0012566881
0.001210879
0.0011645073
0.0011175623
0.0010700366
0.001021927
0.00097323556
0.00092397267
0.00087415559
0.0008238225
0.00077301279
0.00072183714
0.00067034157
0.00061888521
0.00056730372
0.00051704172
0.00046621665
0.00042187352
0.00037129902
0.00035282466
0.00026762054
0.00054730552
-0.00039952916
0.005038846
0.0050620356
0.0050813228
0.0050947822
0.0051010586
0.0050995732
0.0050896919
0.0050706618
0.0050418398
0.0050027695
0.0049532096
0.0048931979
0.0048230992
0.0047436123
0.0046557462
0.004560762
0.0044601075
0.0043553336
0.0042480183
0.0041397179
0.0040319103
0.0039259368
0.0038230291
0.0037243364
0.0036308613
0.0035433837
0.0034624333
0.0033882659
0.0033208193
0.0032596861
0.0032041081
0.0031530777
0.0031054988
0.0030602802
0.0030165012
0.0029735649
0.0029311459
0.0028890907
0.0028473643
0.002805915
0.0027646496
0.002723507
0.0026824516
0.0026415362
0.0026008434