# Selection     : all 
# Volume        : 2.33333000e+00
# Time          	minp	location	cell	minnut	location	cell
0               	0.00000000e+00	-3.13296488e-01 1.00232707e-06 5.00000000e-01	0	0.00000000e+00	-3.13296488e-01 1.00232707e-06 5.00000000e-01	0
0.00011999      	5.28821369e-04	1.97852077e+00 9.42574530e-01 5.00000000e-01	13055	1.85406078e-51	1.72076995e+00 5.08654275e-06 5.00000000e-01	401
0.000263962     	2.88583067e-04	1.97852077e+00 9.42574530e-01 5.00000000e-01	13055	2.36630563e-53	1.84964536e+00 3.02191818e-06 5.00000000e-01	268
0.000436717     	1.52402024e-04	1.97852077e+00 9.42574530e-01 5.00000000e-01	13055	1.07737815e-50	1.37710220e+00 9.47509236e-06 5.00000000e-01	665
0.000644009     	1.09465174e-04	1.97852077e+00 9.42574530e-01 5.00000000e-01	13055	8.00094111e-50	1.80668689e+00 1.18644168e-05 5.00000000e-01	811
0.000892729     	9.55412193e-05	1.97852077e+00 9.42574530e-01 5.00000000e-01	13055	1.02350972e-52	1.63485302e+00 7.22696841e-06 5.00000000e-01	535
0.00119115      	8.61076417e-05	1.97852077e+00 9.42574530e-01 5.00000000e-01	13055	3.61539767e-52	1.76372842e+00 7.22696841e-06 5.00000000e-01	538
0.00154914      	7.62493196e-05	1.97852077e+00 9.42574530e-01 5.00000000e-01	13055	1.88102988e-53	1.63485302e+00 7.22696841e-06 5.00000000e-01	535
0.00197859      	6.65784711e-05	1.97852077e+00 9.42574530e-01 5.00000000e-01	13055	5.66015590e-51	1.76372842e+00 7.22696841e-06 5.00000000e-01	538
0.00249383      	5.79836961e-05	1.97852077e+00 9.42574530e-01 5.00000000e-01	13055	8.10498071e-52	1.59189455e+00 9.47509236e-06 5.00000000e-01	670
0.00311186      	5.07023593e-05	1.97852077e+00 9.42574530e-01 5.00000000e-01	13055	3.89115332e-52	1.59189455e+00 9.47509236e-06 5.00000000e-01	670
0.00385304      	4.45618197e-05	1.97852077e+00 9.42574530e-01 5.00000000e-01	13055	3.23859242e-53	1.76372842e+00 7.22696841e-06 5.00000000e-01	538
0.00474246      	3.92970108e-05	1.97852077e+00 9.42574530e-01 5.00000000e-01	13055	5.14834778e-52	1.54893608e+00 9.47509236e-06 5.00000000e-01	669
0.00580919      	3.47608734e-05	1.97852077e+00 9.42574530e-01 5.00000000e-01	13055	8.29014771e-52	1.76372842e+00 1.18644168e-05 5.00000000e-01	810
0.00708871      	3.08089783e-05	1.97852077e+00 9.42574530e-01 5.00000000e-01	13055	3.05538232e-51	1.76372842e+00 1.18644168e-05 5.00000000e-01	810
0.00838833      	3.08815152e-05	1.97852077e+00 9.42574530e-01 5.00000000e-01	13055	1.00214229e-50	1.50597761e+00 9.47509236e-06 5.00000000e-01	668
0.00966783      	3.14131057e-05	1.97852077e+00 9.42574530e-01 5.00000000e-01	13055	2.74766205e-52	1.63485302e+00 7.22696841e-06 5.00000000e-01	535
0.0109294       	3.14771215e-05	1.97852077e+00 9.42574530e-01 5.00000000e-01	13055	8.51459573e-52	1.63485302e+00 9.47509236e-06 5.00000000e-01	671
0.012172        	3.12805721e-05	1.97852077e+00 9.42574530e-01 5.00000000e-01	13055	1.95411209e-51	1.37710220e+00 7.22696841e-06 5.00000000e-01	529
0.013393        	3.10275100e-05	1.97852077e+00 9.42574530e-01 5.00000000e-01	13055	8.87920222e-51	1.54893608e+00 1.18644168e-05 5.00000000e-01	805
0.0145933       	3.07561916e-05	1.97852077e+00 9.42574530e-01 5.00000000e-01	13055	3.20908551e-50	1.72076995e+00 1.18644168e-05 5.00000000e-01	809
0.0157748       	3.04667689e-05	1.97852077e+00 9.42574530e-01 5.00000000e-01	13055	3.16970384e-51	1.50597761e+00 9.47509236e-06 5.00000000e-01	668
0.0169382       	3.01781793e-05	1.97852077e+00 9.42574530e-01 5.00000000e-01	13055	7.34301186e-52	1.72076995e+00 9.47509236e-06 5.00000000e-01	673
0.0180853       	2.98754463e-05	1.97852077e+00 9.42574530e-01 5.00000000e-01	13055	1.09929875e-51	1.37710220e+00 7.22696841e-06 5.00000000e-01	529
0.0192165       	2.95729073e-05	1.97852077e+00 9.42574530e-01 5.00000000e-01	13055	1.79736231e-51	1.72076995e+00 9.47509236e-06 5.00000000e-01	673
0.0203323       	2.92713639e-05	1.97852077e+00 9.42574530e-01 5.00000000e-01	13055	2.85012307e-50	1.37710220e+00 7.22696841e-06 5.00000000e-01	529
0.0214331       	2.89708534e-05	1.97852077e+00 9.42574530e-01 5.00000000e-01	13055	5.42735179e-51	1.72076995e+00 9.47509236e-06 5.00000000e-01	673
0.0225204       	2.83737388e-05	1.97852077e+00 4.10430912e-05 5.00000000e-01	1903	7.36807506e-51	1.72076995e+00 1.18644168e-05 5.00000000e-01	809
0.0235957       	2.79507492e-05	1.97852077e+00 4.10430912e-05 5.00000000e-01	1903	2.40011756e-51	1.72076995e+00 9.47509236e-06 5.00000000e-01	673
0.0246593       	2.76573038e-05	1.97852077e+00 4.67554375e-05 5.00000000e-01	2039	2.20814242e-51	1.76372842e+00 7.22696841e-06 5.00000000e-01	538
0.0257115       	2.73919031e-05	1.97852077e+00 4.67554375e-05 5.00000000e-01	2039	2.84420137e-51	1.72076995e+00 9.47509236e-06 5.00000000e-01	673
0.0267524       	2.71284180e-05	1.97852077e+00 5.31645463e-05 5.00000000e-01	2175	5.99613357e-51	1.37710220e+00 7.22696841e-06 5.00000000e-01	529
0.0277834       	2.68548133e-05	1.97852077e+00 5.31645463e-05 5.00000000e-01	2175	5.85965707e-51	1.37710220e+00 7.22696841e-06 5.00000000e-01	529
0.0288035       	2.65905214e-05	1.97852077e+00 6.03659281e-05 5.00000000e-01	2311	7.60625332e-51	1.50597761e+00 9.47509236e-06 5.00000000e-01	668
0.0298141       	2.63225744e-05	1.97852077e+00 6.03659281e-05 5.00000000e-01	2311	4.44855173e-51	1.72076995e+00 9.47509236e-06 5.00000000e-01	673
0.0308164       	2.60503095e-05	1.97852077e+00 6.03659281e-05 5.00000000e-01	2311	9.41378368e-51	1.72076995e+00 9.47509236e-06 5.00000000e-01	673
0.0318104       	2.57821354e-05	1.97852077e+00 6.84668997e-05 5.00000000e-01	2447	6.15274449e-50	1.72076995e+00 9.47509236e-06 5.00000000e-01	673
0.0327964       	2.55193368e-05	1.97852077e+00 6.84668997e-05 5.00000000e-01	2447	1.05373162e-49	1.50597761e+00 9.47509236e-06 5.00000000e-01	668
0.0337743       	2.52618795e-05	1.97852077e+00 6.84668997e-05 5.00000000e-01	2447	1.16327088e-49	1.54893608e+00 1.18644168e-05 5.00000000e-01	805
0.0347454       	2.50034428e-05	1.97852077e+00 6.84668997e-05 5.00000000e-01	2447	1.27731022e-49	1.50597761e+00 9.47509236e-06 5.00000000e-01	668
0.0357097       	2.47492288e-05	1.97852077e+00 7.75881842e-05 5.00000000e-01	2583	1.38833878e-49	1.72076995e+00 1.18644168e-05 5.00000000e-01	809
0.0366682       	2.44947287e-05	1.97852077e+00 7.75881842e-05 5.00000000e-01	2583	7.53578217e-50	1.72076995e+00 9.47509236e-06 5.00000000e-01	673
0.0376201       	2.42425438e-05	1.97852077e+00 9.42574530e-01 5.00000000e-01	13055	1.02609273e-49	1.72076995e+00 9.47509236e-06 5.00000000e-01	673
0.0385664       	2.39801269e-05	1.97852077e+00 9.42574530e-01 5.00000000e-01	13055	2.45475630e-49	1.72076995e+00 9.47509236e-06 5.00000000e-01	673
0.0395072       	2.37231574e-05	1.97852077e+00 9.42574530e-01 5.00000000e-01	13055	5.31645510e-50	1.50597761e+00 7.22696841e-06 5.00000000e-01	532
0.0404424       	2.34715970e-05	1.97852077e+00 9.42574530e-01 5.00000000e-01	13055	3.08052972e-50	1.72076995e+00 9.47509236e-06 5.00000000e-01	673
0.0413731       	2.32224618e-05	1.97852077e+00 9.42574530e-01 5.00000000e-01	13055	3.77182664e-50	1.72076995e+00 9.47509236e-06 5.00000000e-01	673
0.0422984       	2.29812417e-05	1.97852077e+00 9.42574530e-01 5.00000000e-01	13055	1.01680672e-49	1.72076995e+00 9.47509236e-06 5.00000000e-01	673
0.0432193       	1.56027541e-05	6.03404640e-03 1.00232707e-06 5.00000000e-01	25	9.24844227e-50	1.54893608e+00 1.18644168e-05 5.00000000e-01	805
0.0441358       	-1.09749803e-05	6.03404640e-03 1.00232707e-06 5.00000000e-01	25	2.12371775e-50	1.72076995e+00 9.47509236e-06 5.00000000e-01	673
0.0450478       	-3.54879903e-05	6.03404640e-03 1.00232707e-06 5.00000000e-01	25	1.79591551e-49	1.54893608e+00 1.18644168e-05 5.00000000e-01	805
0.0459564       	-5.84379117e-05	6.03404640e-03 1.00232707e-06 5.00000000e-01	25	4.98634369e-51	1.50597761e+00 7.22696841e-06 5.00000000e-01	532
0.0468608       	-7.92561371e-05	6.03404640e-03 1.00232707e-06 5.00000000e-01	25	5.73884844e-51	1.50597761e+00 7.22696841e-06 5.00000000e-01	532
0.0477616       	-9.88740471e-05	6.03404640e-03 1.00232707e-06 5.00000000e-01	25	3.04241692e-50	1.50597761e+00 7.22696841e-06 5.00000000e-01	532
0.0486591       	-1.16869466e-04	6.03404640e-03 1.00232707e-06 5.00000000e-01	25	6.55819840e-51	1.50597761e+00 7.22696841e-06 5.00000000e-01	532
0.0495533       	-1.33520985e-04	6.03404640e-03 1.00232707e-06 5.00000000e-01	25	1.91076207e-50	1.50597761e+00 7.22696841e-06 5.00000000e-01	532
0.050444        	-1.48963140e-04	6.03404640e-03 1.00232707e-06 5.00000000e-01	25	1.19078038e-50	1.76372842e+00 7.22696841e-06 5.00000000e-01	538
0.0513315       	-1.63287322e-04	6.03404640e-03 1.00232707e-06 5.00000000e-01	25	1.61556127e-51	1.76372842e+00 7.22696841e-06 5.00000000e-01	538
0.0522164       	-1.76648956e-04	6.03404640e-03 1.00232707e-06 5.00000000e-01	25	7.57357409e-51	1.63485302e+00 7.22696841e-06 5.00000000e-01	535
0.0530981       	-1.88750235e-04	6.03404640e-03 1.00232707e-06 5.00000000e-01	25	4.47937254e-51	1.67781148e+00 7.22696841e-06 5.00000000e-01	536
0.0539773       	-2.00138264e-04	6.03404640e-03 1.00232707e-06 5.00000000e-01	25	1.73876197e-51	1.76372842e+00 7.22696841e-06 5.00000000e-01	538
0.054854        	-2.10480498e-04	6.03404640e-03 1.00232707e-06 5.00000000e-01	25	1.47904589e-50	1.76372842e+00 7.22696841e-06 5.00000000e-01	538
0.0557275       	-2.20011350e-04	6.03404640e-03 1.00232707e-06 5.00000000e-01	25	1.48928168e-51	1.76372842e+00 7.22696841e-06 5.00000000e-01	538
0.0565986       	-2.28901528e-04	6.03404640e-03 1.00232707e-06 5.00000000e-01	25	1.18596959e-51	1.76372842e+00 7.22696841e-06 5.00000000e-01	538
0.0574673       	-2.36898751e-04	6.03404640e-03 1.00232707e-06 5.00000000e-01	25	1.31535622e-51	1.76372842e+00 7.22696841e-06 5.00000000e-01	538
0.0583336       	-2.44212876e-04	6.03404640e-03 1.00232707e-06 5.00000000e-01	25	1.64723002e-50	1.46301914e+00 7.22696841e-06 5.00000000e-01	531
0.0591983       	-2.50812440e-04	6.03404640e-03 1.00232707e-06 5.00000000e-01	25	2.59581236e-50	1.46301914e+00 7.22696841e-06 5.00000000e-01	531
0.0600607       	-2.56670150e-04	6.03404640e-03 1.00232707e-06 5.00000000e-01	25	3.52645245e-50	1.63485302e+00 7.22696841e-06 5.00000000e-01	535
0.0609206       	-2.62070968e-04	6.03404640e-03 1.00232707e-06 5.00000000e-01	25	9.36002894e-50	1.54893608e+00 7.22696841e-06 5.00000000e-01	533
0.061779        	-2.66815776e-04	6.03404640e-03 1.00232707e-06 5.00000000e-01	25	7.99644690e-50	1.54893608e+00 7.22696841e-06 5.00000000e-01	533
0.0626351       	-2.75284032e-04	1.00952164e-02 1.00232707e-06 5.00000000e-01	26	9.48143835e-51	1.54893608e+00 7.22696841e-06 5.00000000e-01	533
0.0634895       	-3.00355857e-04	1.00952164e-02 1.00232707e-06 5.00000000e-01	26	7.64199747e-51	1.67781148e+00 7.22696841e-06 5.00000000e-01	536
0.0643417       	-3.24052892e-04	1.00952164e-02 1.00232707e-06 5.00000000e-01	26	2.22976876e-50	1.54893608e+00 7.22696841e-06 5.00000000e-01	533
0.0651923       	-3.46882239e-04	1.00952164e-02 1.00232707e-06 5.00000000e-01	26	1.19702382e-50	1.54893608e+00 7.22696841e-06 5.00000000e-01	533
0.0660413       	-3.68620568e-04	1.00952164e-02 1.00232707e-06 5.00000000e-01	26	1.31980165e-50	1.54893608e+00 7.22696841e-06 5.00000000e-01	533
0.0668889       	-3.89345619e-04	1.00952164e-02 1.00232707e-06 5.00000000e-01	26	7.47198305e-51	1.67781148e+00 7.22696841e-06 5.00000000e-01	536
0.0677348       	-4.09109675e-04	1.00952164e-02 1.00232707e-06 5.00000000e-01	26	7.66973779e-51	1.67781148e+00 7.22696841e-06 5.00000000e-01	536
0.0685785       	-4.27776732e-04	1.00952164e-02 1.00232707e-06 5.00000000e-01	26	1.51065144e-50	1.67781148e+00 7.22696841e-06 5.00000000e-01	536
0.0694207       	-4.45654693e-04	1.00952164e-02 1.00232707e-06 5.00000000e-01	26	4.06997723e-50	1.67781148e+00 7.22696841e-06 5.00000000e-01	536
0.0702613       	-4.62573067e-04	1.00952164e-02 1.00232707e-06 5.00000000e-01	26	3.84094498e-50	1.67781148e+00 7.22696841e-06 5.00000000e-01	536
0.0711012       	-4.78739368e-04	1.00952164e-02 1.00232707e-06 5.00000000e-01	26	6.03237279e-50	1.63485302e+00 7.22696841e-06 5.00000000e-01	535
0.0719395       	-4.93969625e-04	1.00952164e-02 1.00232707e-06 5.00000000e-01	26	4.62619401e-50	1.67781148e+00 7.22696841e-06 5.00000000e-01	536
0.0727764       	-5.08452915e-04	1.00952164e-02 1.00232707e-06 5.00000000e-01	26	3.86376519e-50	1.63485302e+00 7.22696841e-06 5.00000000e-01	535
0.0736117       	-5.22155661e-04	1.00952164e-02 1.00232707e-06 5.00000000e-01	26	1.60160779e-50	1.54893608e+00 7.22696841e-06 5.00000000e-01	533
0.0744455       	-5.35105813e-04	1.00952164e-02 1.00232707e-06 5.00000000e-01	26	1.71950029e-50	1.63485302e+00 7.22696841e-06 5.00000000e-01	535
0.0752779       	-5.47321601e-04	1.00952164e-02 1.00232707e-06 5.00000000e-01	26	1.17809819e-50	1.67781148e+00 7.22696841e-06 5.00000000e-01	536
0.0761095       	-5.58887835e-04	1.00952164e-02 1.00232707e-06 5.00000000e-01	26	2.48164066e-50	1.54893608e+00 7.22696841e-06 5.00000000e-01	533
0.0769396       	-5.69748400e-04	1.00952164e-02 1.00232707e-06 5.00000000e-01	26	1.65595234e-50	1.54893608e+00 7.22696841e-06 5.00000000e-01	533
0.0777682       	-5.80014792e-04	1.00952164e-02 1.00232707e-06 5.00000000e-01	26	6.86402069e-50	1.54893608e+00 7.22696841e-06 5.00000000e-01	533
0.078596        	-5.89668887e-04	1.00952164e-02 1.00232707e-06 5.00000000e-01	26	8.32233565e-50	1.72076995e+00 7.22696841e-06 5.00000000e-01	537
0.0794224       	-5.98692567e-04	1.00952164e-02 1.00232707e-06 5.00000000e-01	26	2.45334527e-50	1.72076995e+00 7.22696841e-06 5.00000000e-01	537
0.080248        	-6.07203567e-04	1.00952164e-02 1.00232707e-06 5.00000000e-01	26	2.73843690e-49	1.33414374e+00 7.22696841e-06 5.00000000e-01	528
0.0810722       	-6.15159714e-04	1.00952164e-02 1.00232707e-06 5.00000000e-01	26	3.38522762e-49	1.33414374e+00 7.22696841e-06 5.00000000e-01	528
0.0818956       	-6.22637379e-04	1.00952164e-02 1.00232707e-06 5.00000000e-01	26	8.86009672e-50	1.33414374e+00 7.22696841e-06 5.00000000e-01	528
0.0827175       	-6.29602225e-04	1.00952164e-02 1.00232707e-06 5.00000000e-01	26	1.19797584e-49	1.33414374e+00 7.22696841e-06 5.00000000e-01	528
0.0835387       	-6.36131948e-04	1.00952164e-02 1.00232707e-06 5.00000000e-01	26	3.23741302e-49	1.33414374e+00 7.22696841e-06 5.00000000e-01	528
0.0843592       	-6.42208460e-04	1.00952164e-02 1.00232707e-06 5.00000000e-01	26	7.06711425e-49	1.54893608e+00 1.18644168e-05 5.00000000e-01	805
0.0851782       	-6.47937576e-04	1.00952164e-02 1.00232707e-06 5.00000000e-01	26	6.59806735e-49	1.33414374e+00 7.22696841e-06 5.00000000e-01	528
0.0859964       	-6.53260783e-04	1.00952164e-02 1.00232707e-06 5.00000000e-01	26	8.13927779e-49	1.33414374e+00 7.22696841e-06 5.00000000e-01	528
0.086814        	-6.58184827e-04	1.00952164e-02 1.00232707e-06 5.00000000e-01	26	9.58876635e-49	1.33414374e+00 7.22696841e-06 5.00000000e-01	528
0.08763         	-6.62835862e-04	1.00952164e-02 1.00232707e-06 5.00000000e-01	26	6.93767481e-49	1.54893608e+00 1.18644168e-05 5.00000000e-01	805
0.0884454       	-6.67106750e-04	1.00952164e-02 1.00232707e-06 5.00000000e-01	26	6.07243524e-49	1.54893608e+00 1.18644168e-05 5.00000000e-01	805
0.08926         	-6.70983986e-04	1.00952164e-02 1.00232707e-06 5.00000000e-01	26	5.74142064e-49	1.54893608e+00 1.18644168e-05 5.00000000e-01	805
0.0900739       	-6.74618050e-04	1.00952164e-02 1.00232707e-06 5.00000000e-01	26	5.59145352e-49	1.54893608e+00 1.18644168e-05 5.00000000e-01	805
0.0908871       	-6.77997826e-04	1.00952164e-02 1.00232707e-06 5.00000000e-01	26	7.23904692e-49	1.54893608e+00 1.18644168e-05 5.00000000e-01	805
0.0916995       	-6.81133655e-04	1.00952164e-02 1.00232707e-06 5.00000000e-01	26	3.02384928e-49	1.33414374e+00 7.22696841e-06 5.00000000e-01	528
0.0925105       	-6.84120762e-04	1.00952164e-02 1.00232707e-06 5.00000000e-01	26	5.18684519e-49	1.59189455e+00 1.18644168e-05 5.00000000e-01	806
0.0933207       	-6.86789570e-04	1.00952164e-02 1.00232707e-06 5.00000000e-01	26	3.82423366e-48	1.59189455e+00 1.44305481e-05 5.00000000e-01	942
0.0941303       	-6.89181267e-04	1.00952164e-02 1.00232707e-06 5.00000000e-01	26	7.02621605e-49	1.54893608e+00 1.18644168e-05 5.00000000e-01	805
0.0949391       	-6.91393166e-04	1.00952164e-02 1.00232707e-06 5.00000000e-01	26	1.13217763e-48	1.54893608e+00 1.18644168e-05 5.00000000e-01	805
0.0957472       	-6.93403632e-04	1.00952164e-02 1.00232707e-06 5.00000000e-01	26	1.07359187e-48	1.54893608e+00 1.18644168e-05 5.00000000e-01	805
0.0965545       	-6.95230167e-04	1.00952164e-02 1.00232707e-06 5.00000000e-01	26	1.07933921e-48	1.54893608e+00 1.18644168e-05 5.00000000e-01	805
0.0973612       	-6.96882449e-04	1.00952164e-02 1.00232707e-06 5.00000000e-01	26	6.76683562e-49	1.54893608e+00 1.18644168e-05 5.00000000e-01	805
0.0981671       	-6.98364966e-04	1.00952164e-02 1.00232707e-06 5.00000000e-01	26	7.48887865e-49	1.54893608e+00 1.18644168e-05 5.00000000e-01	805
0.0989723       	-6.99688144e-04	1.00952164e-02 1.00232707e-06 5.00000000e-01	26	6.57776279e-49	1.59189455e+00 1.18644168e-05 5.00000000e-01	806
0.0997775       	-7.00732959e-04	1.00952164e-02 1.00232707e-06 5.00000000e-01	26	2.25302271e-48	1.63485302e+00 1.44305481e-05 5.00000000e-01	943
0.100582        	-7.01768110e-04	1.00952164e-02 1.00232707e-06 5.00000000e-01	26	7.60003749e-49	1.59189455e+00 1.18644168e-05 5.00000000e-01	806
0.101386        	-7.02725344e-04	1.00952164e-02 1.00232707e-06 5.00000000e-01	26	4.69674210e-49	1.67781148e+00 1.18644168e-05 5.00000000e-01	808
0.102189        	-7.03530805e-04	1.00952164e-02 1.00232707e-06 5.00000000e-01	26	1.32830018e-48	1.67781148e+00 1.18644168e-05 5.00000000e-01	808
0.102991        	-7.04219489e-04	1.00952164e-02 1.00232707e-06 5.00000000e-01	26	1.12855625e-48	1.59189455e+00 1.18644168e-05 5.00000000e-01	806
0.103793        	-7.04788662e-04	1.00952164e-02 1.00232707e-06 5.00000000e-01	26	8.83904207e-49	1.54893608e+00 1.18644168e-05 5.00000000e-01	805
0.104594        	-7.05268860e-04	1.00952164e-02 1.00232707e-06 5.00000000e-01	26	6.71532279e-49	1.67781148e+00 1.18644168e-05 5.00000000e-01	808
0.105395        	-7.05521472e-04	1.00952164e-02 1.00232707e-06 5.00000000e-01	26	1.24913291e-48	1.67781148e+00 1.18644168e-05 5.00000000e-01	808
0.106195        	-7.05814718e-04	1.00952164e-02 1.00232707e-06 5.00000000e-01	26	1.56440580e-48	1.54893608e+00 1.18644168e-05 5.00000000e-01	805
0.106994        	-7.06074904e-04	1.00952164e-02 1.00232707e-06 5.00000000e-01	26	1.21357084e-48	1.54893608e+00 1.18644168e-05 5.00000000e-01	805
0.107793        	-7.06245310e-04	1.00952164e-02 1.00232707e-06 5.00000000e-01	26	1.29178749e-48	1.59189455e+00 1.18644168e-05 5.00000000e-01	806
0.108592        	-7.06180936e-04	1.00952164e-02 1.00232707e-06 5.00000000e-01	26	6.92912787e-49	1.59189455e+00 1.18644168e-05 5.00000000e-01	806
0.10939         	-7.06208339e-04	1.00952164e-02 1.00232707e-06 5.00000000e-01	26	8.77249608e-49	1.59189455e+00 1.18644168e-05 5.00000000e-01	806
0.110187        	-7.06231173e-04	1.00952164e-02 1.00232707e-06 5.00000000e-01	26	8.59085312e-49	1.59189455e+00 1.18644168e-05 5.00000000e-01	806
0.110984        	-7.06012184e-04	1.00952164e-02 1.00232707e-06 5.00000000e-01	26	9.24056254e-49	1.54893608e+00 1.18644168e-05 5.00000000e-01	805
0.111781        	-7.05908697e-04	1.00952164e-02 1.00232707e-06 5.00000000e-01	26	2.18542818e-48	1.63485302e+00 7.22696841e-06 5.00000000e-01	535
0.112577        	-7.05810286e-04	1.00952164e-02 1.00232707e-06 5.00000000e-01	26	1.76292471e-48	1.54893608e+00 1.18644168e-05 5.00000000e-01	805
0.113373        	-7.05490159e-04	1.00952164e-02 1.00232707e-06 5.00000000e-01	26	1.86654135e-48	1.54893608e+00 1.18644168e-05 5.00000000e-01	805
0.114168        	-7.05316752e-04	1.00952164e-02 1.00232707e-06 5.00000000e-01	26	2.09911674e-48	1.63485302e+00 7.22696841e-06 5.00000000e-01	535
0.114963        	-7.04988591e-04	1.00952164e-02 1.00232707e-06 5.00000000e-01	26	2.03017412e-48	1.63485302e+00 7.22696841e-06 5.00000000e-01	535
0.115758        	-7.04805715e-04	1.00952164e-02 1.00232707e-06 5.00000000e-01	26	1.69100586e-48	1.63485302e+00 7.22696841e-06 5.00000000e-01	535
0.116551        	-7.04645180e-04	1.00952164e-02 1.00232707e-06 5.00000000e-01	26	8.54468723e-49	1.59189455e+00 1.18644168e-05 5.00000000e-01	806
0.117345        	-7.04227246e-04	1.00952164e-02 1.00232707e-06 5.00000000e-01	26	1.00299949e-48	1.59189455e+00 1.18644168e-05 5.00000000e-01	806
0.118138        	-7.04004740e-04	1.00952164e-02 1.00232707e-06 5.00000000e-01	26	9.11552963e-49	1.59189455e+00 1.18644168e-05 5.00000000e-01	806
0.118931        	-7.03647926e-04	1.00952164e-02 1.00232707e-06 5.00000000e-01	26	1.14548504e-48	1.54893608e+00 1.18644168e-05 5.00000000e-01	805
0.119724        	-7.03473367e-04	1.00952164e-02 1.00232707e-06 5.00000000e-01	26	1.88175100e-48	1.54893608e+00 1.18644168e-05 5.00000000e-01	805
0.120516        	-7.03143607e-04	1.00952164e-02 1.00232707e-06 5.00000000e-01	26	1.52817388e-48	1.54893608e+00 1.18644168e-05 5.00000000e-01	805
0.121308        	-7.02990601e-04	1.00952164e-02 1.00232707e-06 5.00000000e-01	26	1.64283001e-48	1.54893608e+00 1.18644168e-05 5.00000000e-01	805
0.122099        	-7.02675562e-04	1.00952164e-02 1.00232707e-06 5.00000000e-01	26	1.94688112e-48	1.63485302e+00 7.22696841e-06 5.00000000e-01	535
0.12289         	-7.02548464e-04	1.00952164e-02 1.00232707e-06 5.00000000e-01	26	1.23927477e-48	1.63485302e+00 7.22696841e-06 5.00000000e-01	535
0.123681        	-7.02259857e-04	1.00952164e-02 1.00232707e-06 5.00000000e-01	26	1.16581836e-48	1.63485302e+00 7.22696841e-06 5.00000000e-01	535
0.124471        	-7.02166323e-04	1.00952164e-02 1.00232707e-06 5.00000000e-01	26	1.68162193e-48	1.59189455e+00 1.18644168e-05 5.00000000e-01	806
0.125261        	-7.01906975e-04	1.00952164e-02 1.00232707e-06 5.00000000e-01	26	1.71421895e-48	1.59189455e+00 1.18644168e-05 5.00000000e-01	806
0.126051        	-7.01842031e-04	1.00952164e-02 1.00232707e-06 5.00000000e-01	26	1.00120515e-48	1.59189455e+00 1.18644168e-05 5.00000000e-01	806
0.12684         	-7.01607888e-04	1.00952164e-02 1.00232707e-06 5.00000000e-01	26	1.02549277e-48	1.59189455e+00 1.18644168e-05 5.00000000e-01	806
0.12763         	-7.01347676e-04	1.00952164e-02 1.00232707e-06 5.00000000e-01	26	1.08556728e-48	1.59189455e+00 1.18644168e-05 5.00000000e-01	806
0.128419        	-7.01347316e-04	1.00952164e-02 1.00232707e-06 5.00000000e-01	26	2.03000307e-48	1.54893608e+00 1.18644168e-05 5.00000000e-01	805
0.129207        	-7.01149680e-04	1.00952164e-02 1.00232707e-06 5.00000000e-01	26	1.92415881e-48	1.54893608e+00 1.18644168e-05 5.00000000e-01	805
0.129995        	-7.01151218e-04	1.00952164e-02 1.00232707e-06 5.00000000e-01	26	1.40101258e-48	1.54893608e+00 1.18644168e-05 5.00000000e-01	805
0.130783        	-7.00971614e-04	1.00952164e-02 1.00232707e-06 5.00000000e-01	26	1.29718147e-48	1.54893608e+00 1.18644168e-05 5.00000000e-01	805
0.131571        	-7.00767161e-04	1.00952164e-02 1.00232707e-06 5.00000000e-01	26	3.14803828e-49	1.63485302e+00 7.22696841e-06 5.00000000e-01	535
0.132359        	-7.00826984e-04	1.00952164e-02 1.00232707e-06 5.00000000e-01	26	3.80993408e-48	1.59189455e+00 1.44305481e-05 5.00000000e-01	942
0.133146        	-7.00715551e-04	1.00952164e-02 1.00232707e-06 5.00000000e-01	26	4.90859844e-48	1.59189455e+00 1.44305481e-05 5.00000000e-01	942
0.133933        	-7.00815756e-04	1.00952164e-02 1.00232707e-06 5.00000000e-01	26	1.75790549e-48	1.63485302e+00 7.22696841e-06 5.00000000e-01	535
0.134719        	-7.00695120e-04	1.00952164e-02 1.00232707e-06 5.00000000e-01	26	4.95688704e-48	1.59189455e+00 1.44305481e-05 5.00000000e-01	942
0.135506        	-7.00555210e-04	1.00952164e-02 1.00232707e-06 5.00000000e-01	26	4.59621447e-48	1.59189455e+00 1.44305481e-05 5.00000000e-01	942
0.136292        	-7.00698735e-04	1.00952164e-02 1.00232707e-06 5.00000000e-01	26	5.46647905e-50	1.63485302e+00 7.22696841e-06 5.00000000e-01	535
0.137078        	-7.00624300e-04	1.00952164e-02 1.00232707e-06 5.00000000e-01	26	1.33324893e-48	1.63485302e+00 7.22696841e-06 5.00000000e-01	535
0.137864        	-7.00542160e-04	1.00952164e-02 1.00232707e-06 5.00000000e-01	26	5.44311787e-49	1.63485302e+00 7.22696841e-06 5.00000000e-01	535
0.138649        	-7.00745029e-04	1.00952164e-02 1.00232707e-06 5.00000000e-01	26	6.32438285e-50	1.63485302e+00 7.22696841e-06 5.00000000e-01	535
0.139434        	-7.00743485e-04	1.00952164e-02 1.00232707e-06 5.00000000e-01	26	2.37541322e-49	1.63485302e+00 7.22696841e-06 5.00000000e-01	535
0.140219        	-7.00724138e-04	1.00952164e-02 1.00232707e-06 5.00000000e-01	26	9.90146608e-49	1.63485302e+00 7.22696841e-06 5.00000000e-01	535
0.141004        	-7.00741192e-04	1.00952164e-02 1.00232707e-06 5.00000000e-01	26	1.28375743e-48	1.59189455e+00 1.18644168e-05 5.00000000e-01	806
0.141789        	-7.01050140e-04	1.00952164e-02 1.00232707e-06 5.00000000e-01	26	1.54558196e-48	1.59189455e+00 1.18644168e-05 5.00000000e-01	806
0.142573        	-7.01133658e-04	1.00952164e-02 1.00232707e-06 5.00000000e-01	26	9.38845098e-48	1.33414374e+00 1.18644168e-05 5.00000000e-01	800
0.143358        	-7.01223060e-04	1.00952164e-02 1.00232707e-06 5.00000000e-01	26	6.80063237e-48	1.33414374e+00 1.18644168e-05 5.00000000e-01	800
0.144142        	-7.01346468e-04	1.00952164e-02 1.00232707e-06 5.00000000e-01	26	3.72372866e-48	1.59189455e+00 1.18644168e-05 5.00000000e-01	806
0.144926        	-7.01763151e-04	1.00952164e-02 1.00232707e-06 5.00000000e-01	26	1.49677499e-48	1.59189455e+00 1.18644168e-05 5.00000000e-01	806
0.14571         	-7.01974608e-04	1.00952164e-02 1.00232707e-06 5.00000000e-01	26	2.20702527e-48	1.59189455e+00 1.18644168e-05 5.00000000e-01	806
0.146494        	-7.02162815e-04	1.00952164e-02 1.00232707e-06 5.00000000e-01	26	1.85964723e-48	1.59189455e+00 1.18644168e-05 5.00000000e-01	806
0.147277        	-7.02398126e-04	1.00952164e-02 1.00232707e-06 5.00000000e-01	26	1.68456145e-48	1.59189455e+00 1.18644168e-05 5.00000000e-01	806
0.14806         	-7.02937622e-04	1.00952164e-02 1.00232707e-06 5.00000000e-01	26	1.41216727e-48	1.59189455e+00 1.18644168e-05 5.00000000e-01	806
0.148843        	-7.03236756e-04	1.00952164e-02 1.00232707e-06 5.00000000e-01	26	1.35368641e-48	1.59189455e+00 1.18644168e-05 5.00000000e-01	806
0.149626        	-7.03541196e-04	1.00952164e-02 1.00232707e-06 5.00000000e-01	26	3.31396945e-48	1.59189455e+00 1.18644168e-05 5.00000000e-01	806
0.150409        	-7.03888990e-04	1.00952164e-02 1.00232707e-06 5.00000000e-01	26	3.73417822e-48	1.59189455e+00 1.18644168e-05 5.00000000e-01	806
0.151192        	-7.04305965e-04	1.00952164e-02 1.00232707e-06 5.00000000e-01	26	1.73632731e-48	1.59189455e+00 1.18644168e-05 5.00000000e-01	806
0.151975        	-7.05030219e-04	1.00952164e-02 1.00232707e-06 5.00000000e-01	26	1.44049732e-48	1.59189455e+00 1.18644168e-05 5.00000000e-01	806
0.152757        	-7.05551292e-04	1.00952164e-02 1.00232707e-06 5.00000000e-01	26	1.91561270e-48	1.59189455e+00 1.18644168e-05 5.00000000e-01	806
0.153539        	-7.06062134e-04	1.00952164e-02 1.00232707e-06 5.00000000e-01	26	2.20803775e-48	1.59189455e+00 1.18644168e-05 5.00000000e-01	806
0.154322        	-7.06635471e-04	1.00952164e-02 1.00232707e-06 5.00000000e-01	26	2.18347647e-48	1.59189455e+00 1.18644168e-05 5.00000000e-01	806
0.155104        	-7.07241837e-04	1.00952164e-02 1.00232707e-06 5.00000000e-01	26	2.41918158e-48	1.59189455e+00 1.18644168e-05 5.00000000e-01	806
0.155886        	-7.08140024e-04	1.00952164e-02 1.00232707e-06 5.00000000e-01	26	2.13186073e-48	1.59189455e+00 1.18644168e-05 5.00000000e-01	806
0.156667        	-7.08800782e-04	1.00952164e-02 1.00232707e-06 5.00000000e-01	26	5.16414928e-50	1.76372842e+00 1.00232707e-06 5.00000000e-01	130
0.157449        	-7.09418350e-04	1.00952164e-02 1.00232707e-06 5.00000000e-01	26	3.71829424e-48	1.59189455e+00 1.18644168e-05 5.00000000e-01	806
0.15823         	-7.10047008e-04	1.00952164e-02 1.00232707e-06 5.00000000e-01	26	4.16386659e-48	1.59189455e+00 1.18644168e-05 5.00000000e-01	806
0.159012        	-7.10688764e-04	1.00952164e-02 1.00232707e-06 5.00000000e-01	26	6.07739925e-48	1.59189455e+00 1.18644168e-05 5.00000000e-01	806
0.159794        	-7.11370266e-04	1.00952164e-02 1.00232707e-06 5.00000000e-01	26	6.04650274e-48	1.59189455e+00 1.18644168e-05 5.00000000e-01	806
0.160574        	-7.12349652e-04	1.00952164e-02 1.00232707e-06 5.00000000e-01	26	9.39915002e-48	1.59189455e+00 1.18644168e-05 5.00000000e-01	806
0.161355        	-7.13102515e-04	1.00952164e-02 1.00232707e-06 5.00000000e-01	26	1.30920391e-47	1.59189455e+00 1.18644168e-05 5.00000000e-01	806
0.162136        	-7.13802361e-04	1.00952164e-02 1.00232707e-06 5.00000000e-01	26	1.19150234e-47	1.59189455e+00 1.18644168e-05 5.00000000e-01	806
0.162917        	-7.14516073e-04	1.00952164e-02 1.00232707e-06 5.00000000e-01	26	1.24435680e-47	1.33414374e+00 1.18644168e-05 5.00000000e-01	800
0.163698        	-7.15214881e-04	1.00952164e-02 1.00232707e-06 5.00000000e-01	26	9.25668702e-48	1.33414374e+00 1.18644168e-05 5.00000000e-01	800
0.164479        	-7.15920239e-04	1.00952164e-02 1.00232707e-06 5.00000000e-01	26	7.63404286e-48	1.33414374e+00 1.18644168e-05 5.00000000e-01	800
0.16526         	-7.16632588e-04	1.00952164e-02 1.00232707e-06 5.00000000e-01	26	8.12576521e-48	1.33414374e+00 1.18644168e-05 5.00000000e-01	800
0.16604         	-7.17640375e-04	1.00952164e-02 1.00232707e-06 5.00000000e-01	26	4.74022291e-48	1.67781148e+00 9.47509236e-06 5.00000000e-01	672
0.16682         	-7.18390050e-04	1.00952164e-02 1.00232707e-06 5.00000000e-01	26	4.07393516e-48	1.67781148e+00 9.47509236e-06 5.00000000e-01	672
0.1676          	-7.19088490e-04	1.00952164e-02 1.00232707e-06 5.00000000e-01	26	3.56409445e-48	1.67781148e+00 9.47509236e-06 5.00000000e-01	672
0.16838         	-7.19766192e-04	1.00952164e-02 1.00232707e-06 5.00000000e-01	26	2.13924533e-48	1.67781148e+00 9.47509236e-06 5.00000000e-01	672
0.16916         	-7.20452228e-04	1.00952164e-02 1.00232707e-06 5.00000000e-01	26	1.16556740e-48	1.67781148e+00 9.47509236e-06 5.00000000e-01	672
0.16994         	-7.21149751e-04	1.00952164e-02 1.00232707e-06 5.00000000e-01	26	5.18578371e-49	1.67781148e+00 9.47509236e-06 5.00000000e-01	672