#      distance             U_x             U_y             U_z wallShearStr... wallShearStr... wallShearStr...               p         epsilon               k             nut
    0.001215373      0.64044835   3.8098838e-05  -2.4312728e-20               0               0               0   0.00024719749      0.13705222    0.0042647872   1.5757638e-05
   0.0020572852      0.69662562   6.0741377e-05  -5.5405459e-22               0               0               0   0.00024801142     0.067932246     0.004176784   2.5506295e-05
   0.0029273097      0.73279774   9.1405829e-05   2.9605623e-21               0               0               0   0.00024882909     0.043795481    0.0040266408   3.4971721e-05
   0.0038263852      0.76029394   0.00012582257   1.2542586e-20               0               0               0   0.00024967283     0.031986342    0.0038979717   4.3965294e-05
   0.0047554818      0.78289888   0.00016362984   2.5478064e-20               0               0               0   0.00025056606     0.024986529    0.0037754122     5.22731e-05
   0.0057156019      0.80240004   0.00020503532   1.8969487e-20               0               0               0   0.00025149756     0.020331955    0.0036517892   5.9769723e-05
   0.0067077814      0.81977914   0.00025024741   9.6115156e-21               0               0               0   0.00025245223     0.016988168    0.0035233936   6.6369883e-05
   0.0077330908      0.83563166   0.00029946809   1.0373134e-20               0               0               0   0.00025341941     0.014446538    0.0033879968   7.2008418e-05
   0.0087926364      0.85034483   0.00035293042  -8.1862498e-21               0               0               0   0.00025439118     0.012428055    0.0032440567   7.6631441e-05
   0.0098875613      0.86418321   0.00041090731  -4.7731793e-20               0               0               0   0.00025535817     0.010766874    0.0030903793   8.0192194e-05
    0.011019047      0.87733373    0.0004735453  -5.8348609e-20               0               0               0   0.00025630523    0.0093582002    0.0029259698   8.2649152e-05
    0.012188314      0.88993093   0.00054106905  -1.5419275e-20               0               0               0   0.00025721651    0.0081326312    0.0027499752    8.396541e-05
    0.013396624      0.90207152   0.00061387246   2.1518434e-20               0               0               0   0.00025808083    0.0070425806    0.0025616815   8.4109036e-05
    0.014645281      0.91382262   0.00069207318   1.3984766e-20               0               0               0   0.00025888855    0.0060547307    0.0023605546   8.3054434e-05
    0.015935632      0.92522598   0.00077567263  -5.9475331e-22               0               0               0   0.00025962669    0.0051457348    0.0021463299   8.0785134e-05
    0.017269069      0.93629871   0.00086467364   -2.649224e-21               0               0               0   0.00026027703    0.0042998361    0.0019191693   7.7298931e-05
    0.018647031      0.94703067   0.00095882677               0               0               0               0   0.00026081993    0.0035077623    0.0016799293   7.2617408e-05
    0.020071004      0.95737718    0.0010575024  -3.6705867e-21               0               0               0   0.00026123701    0.0027666267    0.0014306166   6.6804217e-05
    0.021542526      0.96724449    0.0011594489   -3.670587e-21               0               0               0   0.00026151136    0.0020807653    0.0011751775   6.0002172e-05
    0.023063183      0.97646312    0.0012623554   3.6971375e-21               0               0               0   0.00026162987    0.0014633854   0.00092085589   5.2512746e-05
    0.024634616      0.98474548    0.0013620513   2.7474692e-20               0               0               0    0.0002615814   0.00093788626   0.00068024195    4.496911e-05
    0.026258521      0.99165708    0.0014514521   4.7956634e-20               0               0               0   0.00026134233   0.00053377711   0.00047255004   3.8660932e-05
     0.02793665      0.99674149     0.001520949    3.128592e-20               0               0               0   0.00026085154   0.00026869344   0.00031819291    3.579989e-05
    0.029670814      0.99989055    0.0015654818   7.1068404e-21               0               0               0   0.00026004357   0.00012622832   0.00022409096   3.8897962e-05
    0.031462883       1.0015422    0.0015893067   5.8527348e-21               0               0               0   0.00025894131    6.214005e-05   0.00017680599    4.911641e-05
    0.033314791       1.0023412    0.0016008626  -4.6553806e-22               0               0               0   0.00025764581   3.5234408e-05   0.00015549433   6.5431584e-05
    0.035228536       1.0027415    0.0016065516  -6.3182743e-21               0               0               0    0.0002562402   2.3157176e-05    0.0001458038   8.5665116e-05
    0.037206184       1.0029616    0.0016094046  -2.2471374e-21               0               0               0    0.0002547688   1.6988594e-05   0.00014107905   0.00010782837
    0.039249867       1.0030943    0.0016108007  -2.0314725e-20               0               0               0   0.00025325358   1.3435544e-05   0.00013862181   0.00013056321
     0.04136179       1.0031802    0.0016113745  -3.6030409e-20               0               0               0   0.00025169513   1.1190857e-05   0.00013730354   0.00015303385
    0.043544233       1.0032387    0.0016114529  -1.7962821e-20               0               0               0   0.00025008524   9.6718498e-06   0.00013660837   0.00017475243
     0.04579955         1.00328    0.0016112095               0               0               0               0   0.00024841837   8.5891668e-06   0.00013627791   0.00019545469
    0.048130175       1.0033098    0.0016107362  -1.4770132e-20               0               0               0   0.00024669276   7.7857178e-06   0.00013617203   0.00021502034
    0.050538621       1.0033315     0.001610089  -2.7660208e-20               0               0               0   0.00024490742   7.1698554e-06   0.00013620949   0.00023342236
    0.053027488       1.0033471    0.0016093058  -1.2890076e-20               0               0               0   0.00024306137   6.6848967e-06   0.00013634068   0.00025069475
    0.055599461       1.0033582    0.0016084144  -1.2036466e-20               0               0               0   0.00024115388   6.2940635e-06   0.00013653393   0.00026691062
    0.058257315        1.003366    0.0016074353  -3.5944359e-20               0               0               0   0.00023918488   5.9725245e-06   0.00013676823   0.00028216684
    0.061003917       1.0033712    0.0016063839  -2.8111718e-20               0               0               0   0.00023715601   5.7029502e-06   0.00013702923   0.00029657383
    0.063842231       1.0033744    0.0016052673   7.5406569e-21               0               0               0   0.00023506979   5.4729078e-06   0.00013730689   0.00031024828
     0.06677532       1.0033761    0.0016040879   2.7652407e-20               0               0               0   0.00023292642   5.2732726e-06   0.00013759413   0.00032330803
    0.069806347       1.0033767    0.0016028471    2.747101e-20               0               0               0   0.00023072273   5.0972227e-06   0.00013788588   0.00033586842
    0.072938584       1.0033763    0.0016015377   1.6225356e-20               0               0               0   0.00022845257   4.9395843e-06    0.0001381785   0.00034803991
    0.076175409       1.0033751    0.0016001466    4.662272e-21               0               0               0   0.00022610871   4.7963909e-06   0.00013846944   0.00035992638
    0.079520315       1.0033732    0.0015986829               0               0               0               0   0.00022369286   4.6645793e-06   0.00013875692   0.00037162413
    0.082976911       1.0033709    0.0015971498   5.6228768e-21               0               0               0   0.00022122231   4.5417746e-06   0.00013903973   0.00038322141
    0.086548926       1.0033683    0.0015955439  -2.6528125e-21               0               0               0    0.0002187212   4.4261327e-06   0.00013931713    0.0003947983
    0.090240215       1.0033661    0.0015938205  -2.6272684e-21               0               0               0   0.00021619967   4.3162239e-06   0.00013958867   0.00040642688
     0.09405476       1.0033649    0.0015919328   2.3481231e-20               0               0               0   0.00021364368   4.2109434e-06    0.0001398542   0.00041817166
