#      distance           pMean         UMean_x         UMean_y         UMean_z         nutMean wallShearStr... wallShearStr... wallShearStr...
  3.0219182e-06   3.3123225e-05     0.010609067  -1.1100785e-11   5.6711175e-39   1.8617778e-34               0               0               0
  5.0865428e-06   3.3123225e-05     0.017757584  -2.6946341e-11  -1.9592879e-39   4.5065904e-35               0               0               0
  7.2269684e-06   3.3123224e-05     0.025060496  -5.1373985e-11    -6.17312e-39   6.9613532e-36               0               0               0
  9.4750924e-06   3.3123223e-05     0.032598199  -8.5714526e-11  -4.3778989e-39   6.9846346e-37               0               0               0
  1.1864417e-05   3.3123222e-05     0.040453399  -1.3185444e-10               0   7.2618736e-37               0               0               0
  1.4430548e-05   3.3123221e-05     0.048711646  -1.9237106e-10               0   1.1930163e-36               0               0               0
  1.7211727e-05   3.3123221e-05      0.05746207  -2.7061064e-10   1.4135447e-37   2.5569301e-36               0               0               0
  2.0249401e-05    3.312322e-05     0.066798224  -3.7081334e-10   1.2849168e-37   7.5352297e-36               0               0               0
  2.3588836e-05   3.3123219e-05     0.076818969  -4.9827498e-10   1.0963951e-37   3.0597281e-35               0               0               0
  2.7279799e-05   3.3123217e-05     0.087629332  -6.5952188e-10  -1.1588788e-38   1.7534308e-34               0               0               0
  3.1377293e-05   3.3123216e-05     0.099341269  -8.6248347e-10  -3.1861267e-37   1.3628451e-33               0               0               0
  3.5942381e-05   3.3123215e-05      0.11207427  -1.1166401e-09  -1.8452159e-37   1.3369112e-32               0               0               0
  4.1043091e-05   3.3123214e-05      0.12595575  -1.4331107e-09   1.5431096e-37   1.5951466e-31               0               0               0
  4.6755437e-05   3.3123213e-05      0.14112107  -1.8246313e-09   4.1293838e-37     2.32088e-30               0               0               0
  5.3164546e-05   3.3123212e-05      0.15771313  -2.3053605e-09   5.8239443e-38   4.1988472e-29               0               0               0
  6.0365928e-05   3.3123211e-05      0.17588149  -2.8904388e-09  -4.7806814e-37   9.3179309e-28               0               0               0
    6.84669e-05    3.312321e-05      0.19578064  -3.5952254e-09  -2.7768017e-37   6.5423279e-27               0               0               0
  7.7588184e-05    3.312321e-05      0.21756748   -4.434152e-09               0   1.5844525e-26               0               0               0
   8.786571e-05    3.312321e-05       0.2413977  -5.4191595e-09  -2.2769188e-37   1.5829401e-26               0               0               0
  9.9452634e-05   3.3123212e-05      0.26742076  -6.5577256e-09   6.5911817e-39   6.6735583e-27               0               0               0
  0.00011252163   3.3123214e-05      0.29577339  -7.8505414e-09   2.3428306e-37   1.2039146e-27               0               0               0
  0.00012726745   3.3123218e-05      0.32657118  -9.2889462e-09   1.9039348e-36   4.3049649e-28               0               0               0
  0.00014390985   3.3123224e-05      0.35989804  -1.0852289e-08   2.5602775e-38   7.5706624e-28               0               0               0
  0.00016269684   3.3123233e-05      0.39579345  -1.2505478e-08  -5.1075561e-38   1.4253309e-27               0               0               0
  0.00018390838   3.3123245e-05      0.43423726   -1.419712e-08   7.3284527e-38   2.2284172e-27               0               0               0
  0.00020786057   3.3123263e-05      0.47513233  -1.5858944e-08  -1.7539719e-36   4.7313603e-27               0               0               0
  0.00023491035   3.3123286e-05      0.51828538  -1.7407456e-08               0   2.0825122e-26               0               0               0
  0.00026546084   3.3123318e-05      0.56338712  -1.8749059e-08               0   7.6511928e-26               0               0               0
   0.0002999673   3.3123361e-05      0.60999344  -1.9789774e-08               0   2.8950562e-25               0               0               0
  0.00033894396   3.3123417e-05      0.65751048  -2.0449813e-08               0   1.0341038e-24               0               0               0
  0.00038297165    3.312349e-05      0.70518757  -2.0681426e-08               0   3.8428981e-24               0               0               0
  0.00043270649   3.3123585e-05      0.75212331  -2.0485433e-08               0   1.8725083e-23               0               0               0
  0.00048888965   3.3123705e-05      0.79729124  -1.9919011e-08               0   7.2759177e-23               0               0               0
  0.00055235838   3.3123856e-05      0.83959144  -1.9086693e-08               0   2.1607669e-22               0               0               0
   0.0006240585   3.3124042e-05      0.87793255   -1.811151e-08               0   5.2785103e-22               0               0               0
  0.00070505852    3.312427e-05      0.91134395  -1.7093706e-08               0   1.1271074e-21               0               0               0
  0.00079656552   3.3124543e-05       0.9391083  -1.6075227e-08               0   2.1979697e-21               0               0               0
  0.00089994316   3.3124868e-05      0.96089179  -1.5030647e-08               0   4.0271773e-21               0               0               0
    0.001016732   3.3125248e-05      0.97683563  -1.3890242e-08               0   7.0264289e-21               0               0               0
   0.0011486725   3.3125688e-05      0.98756662  -1.2577075e-08               0   1.1625069e-20               0               0               0
   0.0012977308   3.3126192e-05      0.99409674  -1.1032211e-08               0   1.7778318e-20               0               0               0
   0.0014661282   3.3126766e-05      0.99762043  -9.2182339e-09               0   2.4044937e-20               0               0               0
   0.0016563743   3.3127415e-05      0.99927034  -7.1105522e-09               0   2.7568898e-20               0               0               0
   0.0018713042   3.3128147e-05      0.99992527   -4.687979e-09               0   2.6650776e-20               0               0               0
   0.0021141207   3.3128971e-05       1.0001404  -1.9256085e-09               0   2.2631143e-20               0               0               0
   0.0023884425   3.3129899e-05       1.0001976   1.2099366e-09               0   1.7641043e-20               0               0               0
   0.0026983575   3.3130943e-05       1.0002096   4.7622947e-09               0   9.8495035e-21               0               0               0
   0.0030484842   3.3132116e-05       1.0002115    8.784802e-09   9.1385199e-37   2.3397785e-21               0               0               0
   0.0034440402   3.3133433e-05       1.0002118    1.333979e-08   1.3707613e-36   3.4798995e-23               0               0               0
   0.0038909203   3.3134911e-05       1.0002118   1.8498771e-08  -2.5949089e-37   2.6069342e-26               0               0               0
    0.004395784   3.3136568e-05       1.0002118   2.4343252e-08  -1.0745179e-36   1.2923841e-26               0               0               0
   0.0049661549   3.3138424e-05       1.0002118    3.096622e-08   5.9206969e-37    1.552968e-26               0               0               0
   0.0056105328   3.3140501e-05       1.0002118   3.8473669e-08   1.5567293e-36   1.8019125e-26               0               0               0
   0.0063385204   3.3142822e-05       1.0002118   4.6986663e-08  -4.2633229e-37   2.0754939e-26               0               0               0
   0.0071609664   3.3145412e-05       1.0002118   5.6643461e-08   -1.253003e-36    2.381019e-26               0               0               0
   0.0080901272   3.3148297e-05       1.0002118   6.7602005e-08  -2.2012871e-37   2.7242576e-26               0               0               0
   0.0091398493   3.3151506e-05       1.0002118   8.0043771e-08               0   3.1117377e-26               0               0               0
    0.010325776   3.3155067e-05       1.0002118   9.4175465e-08               0   3.5509468e-26               0               0               0
     0.01166558    3.315901e-05       1.0002118   1.1023435e-07               0   4.0504744e-26               0               0               0
    0.013179228   3.3163364e-05       1.0002118   1.2849159e-07               0   4.6202089e-26               0               0               0
    0.014889277   3.3168159e-05       1.0002118   1.4925973e-07               0   5.2716061e-26               0               0               0
    0.016821209    3.317342e-05       1.0002118   1.7289348e-07               0   6.0178695e-26               0               0               0
    0.019003816   3.3179173e-05       1.0002118    1.998044e-07               0   6.8744589e-26               0               0               0
    0.021469624   3.3185435e-05       1.0002118   2.3045517e-07               0   7.8590345e-26               0               0               0
    0.024255377   3.3192219e-05       1.0002118   2.6538709e-07               0   8.9925177e-26               0               0               0
    0.027402591   3.3199528e-05       1.0002118   3.0519818e-07               0   1.0298237e-25               0               0               0
    0.030958166   3.3207353e-05       1.0002118   3.5059917e-07   2.4417576e-36   1.1804308e-25               0               0               0
    0.034975088   3.3215669e-05       1.0002118   4.0235005e-07   2.7221959e-36   1.3540639e-25               0               0               0
    0.039513219   3.3224438e-05       1.0002117   4.6138019e-07  -1.8808926e-36   1.5544536e-25               0               0               0
    0.044640187   3.3233591e-05       1.0002117   5.2862988e-07  -2.1613309e-36   1.7852364e-25               0               0               0
    0.050432395   3.3243051e-05       1.0002117   6.0530733e-07   8.9537508e-37    2.051332e-25               0               0               0
    0.056976161   3.3252683e-05       1.0002117    6.925284e-07   5.5038365e-37   2.3567625e-25               0               0               0
    0.064369002    3.326237e-05       1.0002117   7.9185377e-07   4.3406468e-37   2.7082218e-25               0               0               0
    0.072721087   3.3271884e-05       1.0002116   9.0452386e-07   9.1404742e-37   3.1093584e-25               0               0               0
    0.082156882   3.3281078e-05       1.0002116   1.0325426e-06  -9.0526082e-37   3.5702919e-25               0               0               0
    0.092817002   3.3289593e-05       1.0002115   1.1771454e-06  -1.0402465e-36   4.0926317e-25               0               0               0
