/*--------------------------------*- C++ -*----------------------------------*\
  =========                 |
  \\      /  F ield         | OpenFOAM: The Open Source CFD Toolbox
   \\    /   O peration     | Website:  https://openfoam.org
    \\  /    A nd           | Version:  12
     \\/     M anipulation  |
\*---------------------------------------------------------------------------*/
FoamFile
{
    format      ascii;
    class       volScalarField;
    location    "1300";
    object      nut;
}
// * * * * * * * * * * * * * * * * * * * * * * * * * * * * * * * * * * * * * //

dimensions      [0 2 -1 0 0 0 0];

internalField   nonuniform List<scalar> 
7480
(
8.0706376e-08
4.2959417e-08
3.1055927e-08
2.8365113e-08
3.1793593e-06
5.3315206e-06
6.3337879e-06
6.9862252e-06
7.3991486e-06
7.6472352e-06
7.4892801e-06
7.2191671e-06
6.8978757e-06
6.5573707e-06
6.2181003e-06
5.8929833e-06
5.5904178e-06
5.3199002e-06
5.076151e-06
4.8644068e-06
4.6802271e-06
4.5209464e-06
4.385889e-06
4.2745428e-06
4.1860812e-06
4.1198774e-06
4.0748468e-06
4.0495e-06
4.0421304e-06
4.050858e-06
4.0736354e-06
4.1083614e-06
4.1529825e-06
4.2076969e-06
4.2711548e-06
4.3413161e-06
4.4158438e-06
4.4924244e-06
4.5696672e-06
4.6465603e-06
4.7219885e-06
4.7948409e-06
4.8642419e-06
4.9294782e-06
4.9899852e-06
5.0454382e-06
5.095323e-06
5.1412318e-06
5.1827852e-06
5.2192476e-06
5.2501809e-06
5.2754924e-06
5.2955026e-06
5.3109672e-06
5.3227063e-06
5.3315549e-06
5.3384534e-06
5.3439174e-06
5.3482269e-06
5.3514641e-06
5.353563e-06
5.3545978e-06
5.3548248e-06
5.3544401e-06
5.353493e-06
5.3520932e-06
5.3505454e-06
5.3488714e-06
5.3469214e-06
5.3446445e-06
5.3420078e-06
5.3389088e-06
5.3354289e-06
5.3316904e-06
5.3276742e-06
5.3234316e-06
5.3190416e-06
5.3143764e-06
5.3093862e-06
5.3041735e-06
5.2987034e-06
5.2930145e-06
5.2872141e-06
5.2812269e-06
5.2750194e-06
5.2686406e-06
5.2620778e-06
5.2553651e-06
5.2485153e-06
5.2415307e-06
5.2344172e-06
5.2271461e-06
5.2197398e-06
5.2122261e-06
5.2045231e-06
5.1967872e-06
5.1889218e-06
5.1803601e-06
5.1684849e-06
5.177648e-06
1.6699854e-07
1.6479329e-07
1.6275609e-07
1.6152442e-07
7.8951093e-07
2.0013875e-06
3.2198962e-06
4.1000301e-06
4.6101849e-06
4.8536521e-06
4.9291192e-06
4.9199715e-06
4.920183e-06
4.9671866e-06
5.0574373e-06
5.1935987e-06
5.3999634e-06
5.7433208e-06
5.8735882e-06
6.1611661e-06
6.4630917e-06
6.7818191e-06
7.1154721e-06
7.4620619e-06
7.8193497e-06
8.1875038e-06
8.5617769e-06
8.9378518e-06
9.3126938e-06
9.6839023e-06
1.0049766e-05
1.0409624e-05
1.0764464e-05
1.1116915e-05
1.1464036e-05
1.1800544e-05
1.2120633e-05
1.2422201e-05
1.2708327e-05
1.2978545e-05
1.3231805e-05
1.3467539e-05
1.3684982e-05
1.3883401e-05
1.4063307e-05
1.4225508e-05
1.4370895e-05
1.4499066e-05
1.4609984e-05
1.4704883e-05
1.4785576e-05
1.4854005e-05
1.4912225e-05
1.4962494e-05
1.5006617e-05
1.5046589e-05
1.508394e-05
1.5118213e-05
1.51494e-05
1.5177722e-05
1.5203399e-05
1.5226864e-05
1.5248597e-05
1.5268793e-05
1.5287429e-05
1.5304596e-05
1.5320515e-05
1.5334729e-05
1.5346925e-05
1.5357249e-05
1.5365895e-05
1.5372936e-05
1.5378678e-05
1.5383298e-05
1.5386596e-05
1.5388496e-05
1.5389009e-05
1.5388027e-05
1.5385762e-05
1.5382525e-05
1.5378326e-05
1.5373193e-05
1.5367087e-05
1.5359819e-05
1.5351511e-05
1.5342375e-05
1.5332505e-05
1.5321945e-05
1.5310581e-05
1.5298399e-05
1.5285477e-05
1.5271905e-05
1.5257798e-05
1.5243116e-05
1.5227657e-05
1.5211874e-05
1.5195192e-05
1.5177425e-05
1.5157292e-05
1.5154051e-05
1.6882484e-07
1.6856638e-07
1.6827204e-07
1.6795692e-07
1.7998493e-07
2.3387092e-07
3.7065953e-07
6.1993391e-07
9.7978147e-07
1.4139509e-06
1.8589971e-06
2.2551022e-06
2.5711047e-06
2.8048843e-06
2.9699765e-06
3.0862185e-06
3.1760199e-06
3.2763708e-06
3.4091544e-06
3.580108e-06
3.7897337e-06
4.0379168e-06
4.3259491e-06
4.6573352e-06
5.0374922e-06
5.4517183e-06
5.9086965e-06
6.4112595e-06
6.9626626e-06
7.5670011e-06
8.230157e-06
8.9619451e-06
9.7492049e-06
1.0441626e-05
1.1159265e-05
1.1897477e-05
1.2644669e-05
1.3391079e-05
1.4134017e-05
1.4867117e-05
1.5587662e-05
1.6292977e-05
1.6970482e-05
1.7614677e-05
1.8230896e-05
1.8817471e-05
1.9374726e-05
1.9795238e-05
2.0168139e-05
2.0510638e-05
2.0826908e-05
2.1119971e-05
2.1392648e-05
2.1648115e-05
2.188898e-05
2.211517e-05
2.2325479e-05
2.25211e-05
2.2704033e-05
2.2876255e-05
2.3039124e-05
2.3193652e-05
2.3340471e-05
2.3479937e-05
2.3612421e-05
2.3738158e-05
2.3856071e-05
2.396602e-05
2.4068709e-05
2.4165094e-05
2.425582e-05
2.4341183e-05
2.4421672e-05
2.4497584e-05
2.4568064e-05
2.4632973e-05
2.4692751e-05
2.4747798e-05
2.4798798e-05
2.4846218e-05
2.4890152e-05
2.4930324e-05
2.4966467e-05
2.4998649e-05
2.5027476e-05
2.5053392e-05
2.5076659e-05
2.5097154e-05
2.5114531e-05
2.5128978e-05
2.5140864e-05
2.5150501e-05
2.5158081e-05
2.5163289e-05
2.5166014e-05
2.5166778e-05
2.5165859e-05
2.5159422e-05
2.5161566e-05
2.5117346e-05
1.6885076e-07
1.6864752e-07
1.6843944e-07
1.6822679e-07
1.6818689e-07
1.6896545e-07
1.7200459e-07
1.7977431e-07
1.9582234e-07
2.2501307e-07
2.7252276e-07
3.4287907e-07
4.3898172e-07
5.6140364e-07
7.0817523e-07
8.7496226e-07
1.0557592e-06
1.2452592e-06
1.4385433e-06
1.6317082e-06
1.821894e-06
2.0080471e-06
2.1905289e-06
2.3709853e-06
2.5526734e-06
2.7515933e-06
2.9713597e-06
3.2171375e-06
3.4959507e-06
3.817083e-06
4.1928555e-06
4.6395278e-06
5.178845e-06
5.7987261e-06
6.5089549e-06
7.3171153e-06
8.2237719e-06
9.2227409e-06
1.0050047e-05
1.0924476e-05
1.1840018e-05
1.2791043e-05
1.3770382e-05
1.4770462e-05
1.5777442e-05
1.6778698e-05
1.7768364e-05
1.8737645e-05
1.9674056e-05
2.0577875e-05
2.144989e-05
2.2286474e-05
2.3084988e-05
2.3843565e-05
2.4564617e-05
2.519844e-05
2.5728799e-05
2.6229015e-05
2.6704193e-05
2.7157851e-05
2.7591653e-05
2.8006781e-05
2.8404367e-05
2.8785657e-05
2.9151719e-05
2.9502387e-05
2.9834794e-05
3.0149728e-05
3.0448943e-05
3.0734118e-05
3.1006319e-05
3.126611e-05
3.151434e-05
3.1751685e-05
3.1976778e-05
3.218959e-05
3.2391074e-05
3.2582024e-05
3.276339e-05
3.2935909e-05
3.3099885e-05
3.3254762e-05
3.3400411e-05
3.3537274e-05
3.3666265e-05
3.3788087e-05
3.3903188e-05
3.4011285e-05
3.4112038e-05
3.420595e-05
3.4293693e-05
3.4375778e-05
3.4452444e-05
3.4523254e-05
3.4588123e-05
3.4648262e-05
3.4703347e-05
3.475032e-05
3.479929e-05
3.4801192e-05
1.6885076e-07
1.6864867e-07
1.6844332e-07
1.682349e-07
1.6802587e-07
1.6782781e-07
1.6767381e-07
1.6763635e-07
1.6784752e-07
1.6852901e-07
1.7001454e-07
1.7277053e-07
1.774061e-07
1.8467788e-07
1.9549628e-07
2.1092196e-07
2.321616e-07
2.6057479e-07
2.976835e-07
3.4508995e-07
4.0435504e-07
4.7704417e-07
5.6471381e-07
6.6882392e-07
7.9075741e-07
9.3173282e-07
1.092064e-06
1.2712147e-06
1.4680388e-06
1.6811094e-06
1.9092147e-06
2.1522443e-06
2.4111868e-06
2.7049496e-06
3.0419351e-06
3.4341477e-06
3.8968472e-06
4.4487538e-06
5.1205149e-06
5.8939351e-06
6.7769951e-06
7.7760937e-06
8.8969108e-06
9.8758528e-06
1.0795304e-05
1.1789281e-05
1.2840799e-05
1.3945118e-05
1.5095346e-05
1.6281461e-05
1.7478966e-05
1.867172e-05
1.9852657e-05
2.1016873e-05
2.2173419e-05
2.3312177e-05
2.4420241e-05
2.5488741e-05
2.6511028e-05
2.7490737e-05
2.8432976e-05
2.9342981e-05
3.0222908e-05
3.1071433e-05
3.1885976e-05
3.2646634e-05
3.3284323e-05
3.3893916e-05
3.4478951e-05
3.5041329e-05
3.5582104e-05
3.6102125e-05
3.6602719e-05
3.7084784e-05
3.7545008e-05
3.7983563e-05
3.8402409e-05
3.8803e-05
3.9186607e-05
3.9554256e-05
3.9906561e-05
4.0242436e-05
4.0561917e-05
4.0865935e-05
4.1155728e-05
4.1432285e-05
4.1696284e-05
4.1947223e-05
4.218489e-05
4.2410191e-05
4.2624099e-05
4.2827342e-05
4.3020177e-05
4.3202065e-05
4.3373138e-05
4.3535237e-05
4.3687534e-05
4.3828033e-05
4.3962022e-05
4.4045735e-05
1.6885039e-07
1.6864838e-07
1.6844323e-07
1.68235e-07
1.6802378e-07
1.678098e-07
1.6759373e-07
1.6737731e-07
1.6716433e-07
1.6696205e-07
1.6678331e-07
1.6664911e-07
1.6659157e-07
1.6665727e-07
1.6691116e-07
1.6744072e-07
1.6836114e-07
1.6982194e-07
1.7201719e-07
1.7519441e-07
1.7965878e-07
1.8579159e-07
1.9407888e-07
2.0514151e-07
2.1980211e-07
2.3914133e-07
2.645254e-07
2.9767974e-07
3.4079815e-07
3.9665096e-07
4.6867083e-07
5.6113806e-07
6.7896717e-07
8.2761714e-07
1.0124085e-06
1.2381352e-06
1.5083038e-06
1.824004e-06
2.1824745e-06
2.5773937e-06
3.0272174e-06
3.5421197e-06
4.1404587e-06
4.8350333e-06
5.6785123e-06
6.6480268e-06
7.7517866e-06
8.990453e-06
1.0304252e-05
1.126007e-05
1.2309233e-05
1.3434648e-05
1.462767e-05
1.5880039e-05
1.7190222e-05
1.8535277e-05
1.9894819e-05
2.1254005e-05
2.2601481e-05
2.3964333e-05
2.5324603e-05
2.6671572e-05
2.7992514e-05
2.9278926e-05
3.0535211e-05
3.1763159e-05
3.2954114e-05
3.4104618e-05
3.5208636e-05
3.6268672e-05
3.7291094e-05
3.8282218e-05
3.9240191e-05
4.0165541e-05
4.0961389e-05
4.1697606e-05
4.2405884e-05
4.3088025e-05
4.374525e-05
4.4378754e-05
4.4989464e-05
4.5574375e-05
4.6133717e-05
4.6669412e-05
4.718321e-05
4.7676418e-05
4.8149946e-05
4.8602797e-05
4.9034852e-05
4.9447491e-05
4.9842026e-05
5.0219446e-05
5.0580003e-05
5.0923003e-05
5.1248949e-05
5.1560207e-05
5.185559e-05
5.2134214e-05
5.2396812e-05
5.2603555e-05
1.6885006e-07
1.6864801e-07
1.6844284e-07
1.6823461e-07
1.6802339e-07
1.6780921e-07
1.6759212e-07
1.6737217e-07
1.6714945e-07
1.6692418e-07
1.6669677e-07
1.6646795e-07
1.6623905e-07
1.6601217e-07
1.6579056e-07
1.6557904e-07
1.6538458e-07
1.6521697e-07
1.6508977e-07
1.6502143e-07
1.650362e-07
1.6516575e-07
1.6545164e-07
1.6594848e-07
1.667296e-07
1.6789435e-07
1.6957529e-07
1.7195137e-07
1.752684e-07
1.7986908e-07
1.862363e-07
1.9507347e-07
2.0741368e-07
2.2475822e-07
2.4928005e-07
2.8416265e-07
3.3407494e-07
4.0574273e-07
5.0860317e-07
6.540363e-07
8.5473515e-07
1.1225775e-06
1.4654959e-06
1.8801676e-06
2.3509119e-06
2.875457e-06
3.4691444e-06
4.1466869e-06
4.9422949e-06
5.8959541e-06
6.9898113e-06
8.2363886e-06
9.6366831e-06
1.1178601e-05
1.2324532e-05
1.344692e-05
1.4658179e-05
1.5950801e-05
1.7316329e-05
1.8759041e-05
2.0248253e-05
2.1757551e-05
2.3271067e-05
2.4794215e-05
2.6356625e-05
2.7930527e-05
2.9504318e-05
3.1053217e-05
3.2579334e-05
3.4081978e-05
3.556074e-05
3.7010511e-05
3.8419862e-05
3.9789283e-05
4.1112801e-05
4.239054e-05
4.361989e-05
4.4801158e-05
4.593978e-05
4.7041038e-05
4.810889e-05
4.904151e-05
4.9902294e-05
5.0731617e-05
5.1531435e-05
5.2303045e-05
5.3047492e-05
5.3762102e-05
5.4446786e-05
5.5103883e-05
5.5735201e-05
5.6342014e-05
5.6924399e-05
5.748119e-05
5.8013451e-05
5.8524e-05
5.9011542e-05
5.9476077e-05
5.991479e-05
6.0289618e-05
1.6884983e-07
1.6864772e-07
1.6844254e-07
1.6823432e-07
1.6802311e-07
1.6780897e-07
1.6759188e-07
1.6737187e-07
1.6714895e-07
1.6692315e-07
1.6669448e-07
1.66463e-07
1.6622876e-07
1.6599187e-07
1.6575247e-07
1.6551081e-07
1.6526724e-07
1.6502229e-07
1.6477674e-07
1.6453172e-07
1.6428878e-07
1.6405004e-07
1.638184e-07
1.6359778e-07
1.6339349e-07
1.6321282e-07
1.630656e-07
1.6296518e-07
1.6292997e-07
1.6298563e-07
1.6316834e-07
1.6353067e-07
1.6415041e-07
1.6514272e-07
1.6667972e-07
1.6902465e-07
1.725891e-07
1.7802708e-07
1.8641463e-07
1.9950831e-07
2.2011377e-07
2.5272963e-07
3.0450526e-07
3.8630941e-07
5.1350004e-07
7.050284e-07
9.8098528e-07
1.3564593e-06
1.8328346e-06
2.3843851e-06
3.0009768e-06
3.6957332e-06
4.486943e-06
5.4550404e-06
6.5844089e-06
7.870942e-06
9.3277501e-06
1.0952054e-05
1.2718796e-05
1.3969682e-05
1.5211763e-05
1.6548343e-05
1.7971242e-05
1.9480569e-05
2.1074115e-05
2.2713243e-05
2.437839e-05
2.6052292e-05
2.7805252e-05
2.9590962e-05
3.1386683e-05
3.3164224e-05
3.4929179e-05
3.6684025e-05
3.8432894e-05
4.0160687e-05
4.1847107e-05
4.3490159e-05
4.5095345e-05
4.6661261e-05
4.8182829e-05
4.9646077e-05
5.1051644e-05
5.2404979e-05
5.3707961e-05
5.4963888e-05
5.6181097e-05
5.7262718e-05
5.8254933e-05
5.9211832e-05
6.0135449e-05
6.1027075e-05
6.1886012e-05
6.2709664e-05
6.3500468e-05
6.4261708e-05
6.4992305e-05
6.5692462e-05
6.6357231e-05
6.6947941e-05
1.6884965e-07
1.686475e-07
1.6844231e-07
1.6823409e-07
1.6802289e-07
1.6780875e-07
1.6759166e-07
1.6737166e-07
1.6714874e-07
1.6692293e-07
1.6669425e-07
1.6646272e-07
1.6622836e-07
1.6599118e-07
1.6575123e-07
1.6550853e-07
1.6526311e-07
1.6501503e-07
1.6476436e-07
1.6451116e-07
1.6425557e-07
1.6399771e-07
1.637378e-07
1.634761e-07
1.6321298e-07
1.6294894e-07
1.6268467e-07
1.6242112e-07
1.6215956e-07
1.6190179e-07
1.6165034e-07
1.6140883e-07
1.6118259e-07
1.6097942e-07
1.608109e-07
1.6069456e-07
1.6065752e-07
1.6074255e-07
1.6101977e-07
1.6160587e-07
1.6269308e-07
1.6460508e-07
1.678968e-07
1.7353038e-07
1.8319458e-07
1.9982121e-07
2.2842884e-07
2.7748988e-07
3.6082046e-07
4.9869576e-07
7.1671059e-07
1.0415391e-06
1.4903143e-06
2.0606068e-06
2.7108004e-06
3.4479467e-06
4.2808404e-06
5.2756824e-06
6.4967741e-06
7.8844225e-06
9.4503665e-06
1.1198911e-05
1.3109578e-05
1.4942063e-05
1.6247382e-05
1.7652685e-05
1.9154147e-05
2.0750488e-05
2.2456687e-05
2.4230556e-05
2.6044086e-05
2.7873778e-05
2.9801111e-05
3.1785928e-05
3.379354e-05
3.5797528e-05
3.7807911e-05
3.982233e-05
4.1828322e-05
4.380588e-05
4.5743953e-05
4.7655381e-05
4.9536676e-05
5.1370122e-05
5.3147966e-05
5.4875114e-05
5.6556551e-05
5.8174206e-05
5.9722194e-05
6.1210668e-05
6.264615e-05
6.4032521e-05
6.5328717e-05
6.6469298e-05
6.7569408e-05
6.8632253e-05
6.9657197e-05
7.0643086e-05
7.1584387e-05
7.2440896e-05
1.6884954e-07
1.6864735e-07
1.6844214e-07
1.6823392e-07
1.6802272e-07
1.6780857e-07
1.6759149e-07
1.6737149e-07
1.6714858e-07
1.6692278e-07
1.666941e-07
1.6646257e-07
1.662282e-07
1.6599102e-07
1.6575105e-07
1.6550831e-07
1.6526283e-07
1.6501464e-07
1.6476377e-07
1.6451025e-07
1.6425411e-07
1.639954e-07
1.6373414e-07
1.6347039e-07
1.632042e-07
1.6293563e-07
1.6266475e-07
1.6239167e-07
1.6211648e-07
1.6183935e-07
1.6156046e-07
1.612801e-07
1.6099865e-07
1.6071664e-07
1.6043486e-07
1.6015449e-07
1.5987727e-07
1.5960594e-07
1.5934486e-07
1.5910125e-07
1.5888687e-07
1.587215e-07
1.5863902e-07
1.5869869e-07
1.5900654e-07
1.5975322e-07
1.6128127e-07
1.6421501e-07
1.6970601e-07
1.7988071e-07
1.9860464e-07
2.3279219e-07
2.9449044e-07
4.0396175e-07
5.8972016e-07
8.8595461e-07
1.3216635e-06
1.90454e-06
2.6007895e-06
3.4046096e-06
4.3139685e-06
5.4036221e-06
6.73659e-06
8.2944129e-06
1.0036361e-05
1.1969695e-05
1.4070244e-05
1.6297094e-05
1.7758256e-05
1.9267849e-05
2.0879183e-05
2.2594606e-05
2.4431405e-05
2.6347083e-05
2.8310512e-05
3.0315539e-05
3.2449614e-05
3.4652123e-05
3.6874967e-05
3.9105785e-05
4.1356653e-05
4.3621716e-05
4.5882241e-05
4.8115074e-05
5.0316029e-05
5.2486791e-05
5.4613367e-05
5.6694761e-05
5.8730403e-05
6.0712271e-05
6.2632956e-05
6.4494036e-05
6.629525e-05
6.8018018e-05
6.9670923e-05
7.1259259e-05
7.2806045e-05
7.4206523e-05
7.5472535e-05
7.6647621e-05
1.6884946e-07
1.6864724e-07
1.6844202e-07
1.682338e-07
1.680226e-07
1.6780845e-07
1.6759137e-07
1.6737137e-07
1.6714846e-07
1.6692266e-07
1.6669398e-07
1.6646245e-07
1.6622808e-07
1.659909e-07
1.6575093e-07
1.6550819e-07
1.6526272e-07
1.6501452e-07
1.6476365e-07
1.6451012e-07
1.6425396e-07
1.6399521e-07
1.637339e-07
1.6347006e-07
1.6320373e-07
1.6293495e-07
1.6266374e-07
1.6239016e-07
1.6211424e-07
1.6183603e-07
1.6155558e-07
1.6127295e-07
1.6098818e-07
1.6070137e-07
1.6041259e-07
1.6012197e-07
1.5982964e-07
1.5953582e-07
1.5924081e-07
1.5894509e-07
1.586494e-07
1.5835495e-07
1.5806377e-07
1.5777936e-07
1.5750798e-07
1.5726087e-07
1.5705841e-07
1.5693816e-07
1.5697042e-07
1.5728882e-07
1.5814744e-07
1.6002746e-07
1.638478e-07
1.7139716e-07
1.8609089e-07
2.1434751e-07
2.6794045e-07
3.676564e-07
5.4612354e-07
8.4521979e-07
1.3027712e-06
1.9313033e-06
2.6961105e-06
3.5946392e-06
4.6178521e-06
5.8781843e-06
7.3962738e-06
9.1864113e-06
1.117183e-05
1.334866e-05
1.5686241e-05
1.8144839e-05
1.9768789e-05
2.1414891e-05
2.3167512e-05
2.5035569e-05
2.7031792e-05
2.9111125e-05
3.1237281e-05
3.3469505e-05
3.5838371e-05
3.8260735e-05
4.070403e-05
4.3185366e-05
4.5702218e-05
4.8226523e-05
5.0726991e-05
5.320651e-05
5.5671695e-05
5.8100559e-05
6.0474715e-05
6.2795879e-05
6.5067593e-05
6.7288104e-05
6.9443968e-05
7.152854e-05
7.3561006e-05
7.5517329e-05
7.7320238e-05
7.9468521e-05
1.6884941e-07
1.6864718e-07
1.6844194e-07
1.6823372e-07
1.6802252e-07
1.6780837e-07
1.6759129e-07
1.6737129e-07
1.6714838e-07
1.6692257e-07
1.666939e-07
1.6646236e-07
1.66228e-07
1.6599081e-07
1.6575084e-07
1.655081e-07
1.6526262e-07
1.6501443e-07
1.6476355e-07
1.6451002e-07
1.6425386e-07
1.6399511e-07
1.6373379e-07
1.6346995e-07
1.6320361e-07
1.6293481e-07
1.6266359e-07
1.6238999e-07
1.6211404e-07
1.6183577e-07
1.6155524e-07
1.6127249e-07
1.6098755e-07
1.6070047e-07
1.6041129e-07
1.6012007e-07
1.5982686e-07
1.595317e-07
1.5923466e-07
1.5893581e-07
1.5863523e-07
1.5833305e-07
1.5802941e-07
1.5772456e-07
1.5741889e-07
1.571131e-07
1.5680836e-07
1.5650689e-07
1.5621274e-07
1.5593373e-07
1.5568489e-07
1.5549518e-07
1.5542091e-07
1.5557372e-07
1.561759e-07
1.5766781e-07
1.6092381e-07
1.6770382e-07
1.8154791e-07
2.0942784e-07
2.6465739e-07
3.7158979e-07
5.6947815e-07
9.1045634e-07
1.438134e-06
2.1587183e-06
3.0367816e-06
4.0709535e-06
5.2925628e-06
6.799146e-06
8.5916547e-06
1.0684792e-05
1.2979228e-05
1.5446527e-05
1.8057355e-05
2.0593869e-05
2.2318139e-05
2.4131251e-05
2.605673e-05
2.8120671e-05
3.0305137e-05
3.2562834e-05
3.4899819e-05
3.7412971e-05
4.0034077e-05
4.2687582e-05
4.5389369e-05
4.8149619e-05
5.0936436e-05
5.3715003e-05
5.6478191e-05
5.9223892e-05
6.1932394e-05
6.4598708e-05
6.7220646e-05
6.9780848e-05
7.2282205e-05
7.4736076e-05
7.7011358e-05
8.0059857e-05
1.6884939e-07
1.6864715e-07
1.684419e-07
1.6823367e-07
1.6802248e-07
1.6780833e-07
1.6759125e-07
1.6737124e-07
1.6714833e-07
1.6692253e-07
1.6669385e-07
1.6646231e-07
1.6622794e-07
1.6599076e-07
1.6575078e-07
1.6550804e-07
1.6526256e-07
1.6501437e-07
1.6476349e-07
1.6450995e-07
1.6425379e-07
1.6399503e-07
1.6373372e-07
1.6346987e-07
1.6320353e-07
1.6293473e-07
1.6266351e-07
1.623899e-07
1.6211394e-07
1.6183568e-07
1.6155514e-07
1.6127238e-07
1.6098743e-07
1.6070034e-07
1.6041115e-07
1.601199e-07
1.5982663e-07
1.595314e-07
1.5923425e-07
1.5893522e-07
1.5863437e-07
1.5833174e-07
1.5802739e-07
1.5772137e-07
1.5741374e-07
1.571046e-07
1.5679404e-07
1.5648223e-07
1.5616945e-07
1.5585616e-07
1.5554325e-07
1.552324e-07
1.5492692e-07
1.5463333e-07
1.543649e-07
1.5414835e-07
1.5403786e-07
1.5414477e-07
1.5470059e-07
1.5618538e-07
1.5959186e-07
1.6699714e-07
1.8273857e-07
2.1574417e-07
2.836078e-07
4.1914203e-07
6.7418525e-07
1.1130989e-06
1.7773103e-06
2.6392523e-06
3.6851756e-06
4.9206283e-06
6.4626658e-06
8.3071875e-06
1.0476582e-05
1.2944224e-05
1.5583802e-05
1.8372687e-05
2.1284665e-05
2.3556344e-05
2.5461379e-05
2.7471955e-05
2.9616788e-05
3.1910029e-05
3.4302369e-05
3.6763744e-05
3.9429373e-05
4.2249885e-05
4.5115446e-05
4.8049215e-05
5.1064445e-05
5.4114889e-05
5.7162104e-05
6.0206191e-05
6.3243634e-05
6.6241416e-05
6.9193511e-05
7.2116891e-05
7.4838986e-05
7.8508973e-05
1.688494e-07
1.6864714e-07
1.6844189e-07
1.6823366e-07
1.6802246e-07
1.6780831e-07
1.6759123e-07
1.6737123e-07
1.6714831e-07
1.6692251e-07
1.6669383e-07
1.6646229e-07
1.6622792e-07
1.6599073e-07
1.6575075e-07
1.6550801e-07
1.6526252e-07
1.6501433e-07
1.6476344e-07
1.645099e-07
1.6425374e-07
1.6399498e-07
1.6373366e-07
1.6346981e-07
1.6320346e-07
1.6293466e-07
1.6266344e-07
1.6238982e-07
1.6211387e-07
1.618356e-07
1.6155506e-07
1.612723e-07
1.6098735e-07
1.6070026e-07
1.6041106e-07
1.6011981e-07
1.5982654e-07
1.5953131e-07
1.5923415e-07
1.5893512e-07
1.5863425e-07
1.583316e-07
1.5802721e-07
1.5772112e-07
1.5741339e-07
1.5710406e-07
1.5679319e-07
1.5648082e-07
1.5616701e-07
1.5585183e-07
1.5553537e-07
1.5521777e-07
1.5489924e-07
1.545802e-07
1.5426142e-07
1.5394449e-07
1.536326e-07
1.5333238e-07
1.530578e-07
1.5283842e-07
1.5273664e-07
1.5288602e-07
1.5357558e-07
1.5543111e-07
1.5980291e-07
1.6964599e-07
1.9135524e-07
2.3854043e-07
3.3859947e-07
5.4053295e-07
9.1577778e-07
1.5331984e-06
2.396861e-06
3.4755957e-06
4.7532168e-06
6.3654903e-06
8.3160671e-06
1.0616556e-05
1.3257714e-05
1.6118758e-05
1.9119942e-05
2.2247607e-05
2.5123265e-05
2.717028e-05
2.9283351e-05
3.1530452e-05
3.3947067e-05
3.6480591e-05
3.9089754e-05
4.1932491e-05
4.4961523e-05
4.8052338e-05
5.1231854e-05
5.4507638e-05
5.7828035e-05
6.1155719e-05
6.4492347e-05
6.7835098e-05
7.0984115e-05
7.5133812e-05
1.6884942e-07
1.6864715e-07
1.684419e-07
1.6823367e-07
1.6802247e-07
1.6780832e-07
1.6759124e-07
1.6737123e-07
1.6714832e-07
1.6692251e-07
1.6669383e-07
1.6646229e-07
1.6622791e-07
1.6599073e-07
1.6575075e-07
1.65508e-07
1.6526251e-07
1.6501431e-07
1.6476342e-07
1.6450988e-07
1.6425371e-07
1.6399495e-07
1.6373362e-07
1.6346977e-07
1.6320342e-07
1.6293461e-07
1.6266338e-07
1.6238977e-07
1.6211381e-07
1.6183554e-07
1.61555e-07
1.6127223e-07
1.6098728e-07
1.6070019e-07
1.6041099e-07
1.6011974e-07
1.5982647e-07
1.5953124e-07
1.5923408e-07
1.5893504e-07
1.5863418e-07
1.5833152e-07
1.5802713e-07
1.5772104e-07
1.5741331e-07
1.5710397e-07
1.5679308e-07
1.5648068e-07
1.5616682e-07
1.5585154e-07
1.5553489e-07
1.5521693e-07
1.548977e-07
1.5457728e-07
1.5425573e-07
1.539332e-07
1.5360989e-07
1.5328622e-07
1.5296304e-07
1.5264209e-07
1.5232711e-07
1.5202618e-07
1.5175706e-07
1.5155891e-07
1.5151812e-07
1.5182849e-07
1.529277e-07
1.558045e-07
1.6269958e-07
1.786871e-07
2.1509524e-07
2.9633638e-07
4.7043841e-07
8.1433439e-07
1.4132759e-06
2.300117e-06
3.437209e-06
4.798171e-06
6.5261025e-06
8.6356736e-06
1.112529e-05
1.3978417e-05
1.70978e-05
2.0345851e-05
2.371362e-05
2.7057248e-05
2.9263404e-05
3.1496532e-05
3.387117e-05
3.6429626e-05
3.9114384e-05
4.1906759e-05
4.4961299e-05
4.8210366e-05
5.154396e-05
5.4992257e-05
5.8548949e-05
6.2165122e-05
6.5662558e-05
7.0149835e-05
1.6884945e-07
1.6864718e-07
1.6844193e-07
1.682337e-07
1.680225e-07
1.6780835e-07
1.6759127e-07
1.6737126e-07
1.6714835e-07
1.6692254e-07
1.6669385e-07
1.6646231e-07
1.6622793e-07
1.6599074e-07
1.6575076e-07
1.6550801e-07
1.6526252e-07
1.6501431e-07
1.6476342e-07
1.6450987e-07
1.642537e-07
1.6399493e-07
1.637336e-07
1.6346975e-07
1.6320339e-07
1.6293458e-07
1.6266335e-07
1.6238973e-07
1.6211377e-07
1.6183549e-07
1.6155495e-07
1.6127218e-07
1.6098723e-07
1.6070013e-07
1.6041093e-07
1.6011968e-07
1.5982641e-07
1.5953118e-07
1.5923402e-07
1.5893498e-07
1.5863411e-07
1.5833146e-07
1.5802706e-07
1.5772098e-07
1.5741324e-07
1.571039e-07
1.5679301e-07
1.5648061e-07
1.5616675e-07
1.5585146e-07
1.5553481e-07
1.5521683e-07
1.5489757e-07
1.5457707e-07
1.5425538e-07
1.5393255e-07
1.5360863e-07
1.5328368e-07
1.5295779e-07
1.5263109e-07
1.5230384e-07
1.5197654e-07
1.5165025e-07
1.5132733e-07
1.5101303e-07
1.5071927e-07
1.5047346e-07
1.503387e-07
1.5046131e-07
1.5118454e-07
1.5331609e-07
1.5875868e-07
1.720297e-07
2.0366837e-07
2.7739774e-07
4.4313173e-07
7.86055e-07
1.4065345e-06
2.3486642e-06
3.5785251e-06
5.0699924e-06
6.9757971e-06
9.3058763e-06
1.2048989e-05
1.5168769e-05
1.8577008e-05
2.2098939e-05
2.5730098e-05
2.9373304e-05
3.1741675e-05
3.4116893e-05
3.6649848e-05
3.9374783e-05
4.2226643e-05
4.5247944e-05
4.8551723e-05
5.2038498e-05
5.5654052e-05
5.9321647e-05
6.3877943e-05
1.6884949e-07
1.6864722e-07
1.6844197e-07
1.6823374e-07
1.6802255e-07
1.678084e-07
1.6759132e-07
1.6737131e-07
1.6714839e-07
1.6692258e-07
1.666939e-07
1.6646235e-07
1.6622797e-07
1.6599078e-07
1.6575079e-07
1.6550804e-07
1.6526254e-07
1.6501433e-07
1.6476344e-07
1.6450989e-07
1.6425371e-07
1.6399494e-07
1.637336e-07
1.6346974e-07
1.6320338e-07
1.6293457e-07
1.6266333e-07
1.6238971e-07
1.6211374e-07
1.6183546e-07
1.6155492e-07
1.6127215e-07
1.6098719e-07
1.6070009e-07
1.6041089e-07
1.6011963e-07
1.5982636e-07
1.5953113e-07
1.5923397e-07
1.5893493e-07
1.5863406e-07
1.583314e-07
1.5802701e-07
1.5772092e-07
1.5741319e-07
1.5710385e-07
1.5679296e-07
1.5648055e-07
1.5616669e-07
1.5585141e-07
1.5553475e-07
1.5521677e-07
1.548975e-07
1.54577e-07
1.5425531e-07
1.5393246e-07
1.5360851e-07
1.5328349e-07
1.5295746e-07
1.5263046e-07
1.5230254e-07
1.5197376e-07
1.5164423e-07
1.5131412e-07
1.5098376e-07
1.5065389e-07
1.5032616e-07
1.5000442e-07
1.4969772e-07
1.4942759e-07
1.4924578e-07
1.4927666e-07
1.4982415e-07
1.5163404e-07
1.5652794e-07
1.6901922e-07
2.0009019e-07
2.7546723e-07
4.5126681e-07
8.2629088e-07
1.5160779e-06
2.5578855e-06
3.9239849e-06
5.6106427e-06
7.7590376e-06
1.0384585e-05
1.3450238e-05
1.6890367e-05
2.061077e-05
2.4428517e-05
2.8345975e-05
3.2094756e-05
3.4626489e-05
3.7169699e-05
3.9894579e-05
4.2806358e-05
4.5845057e-05
4.9153569e-05
5.2733002e-05
5.6917814e-05
1.6884955e-07
1.6864728e-07
1.6844203e-07
1.682338e-07
1.6802261e-07
1.6780846e-07
1.6759138e-07
1.6737137e-07
1.6714845e-07
1.6692264e-07
1.6669395e-07
1.6646241e-07
1.6622803e-07
1.6599083e-07
1.6575084e-07
1.6550808e-07
1.6526258e-07
1.6501437e-07
1.6476347e-07
1.6450991e-07
1.6425373e-07
1.6399495e-07
1.6373362e-07
1.6346975e-07
1.6320339e-07
1.6293457e-07
1.6266333e-07
1.623897e-07
1.6211373e-07
1.6183545e-07
1.615549e-07
1.6127212e-07
1.6098716e-07
1.6070006e-07
1.6041086e-07
1.601196e-07
1.5982633e-07
1.5953109e-07
1.5923393e-07
1.5893489e-07
1.5863402e-07
1.5833136e-07
1.5802696e-07
1.5772087e-07
1.5741314e-07
1.571038e-07
1.5679291e-07
1.564805e-07
1.5616664e-07
1.5585135e-07
1.555347e-07
1.5521672e-07
1.5489745e-07
1.5457695e-07
1.5425525e-07
1.5393241e-07
1.5360845e-07
1.5328343e-07
1.5295739e-07
1.5263038e-07
1.5230242e-07
1.5197357e-07
1.5164387e-07
1.5131336e-07
1.509821e-07
1.5065017e-07
1.503177e-07
1.4998495e-07
1.4965247e-07
1.4932159e-07
1.4899548e-07
1.4868186e-07
1.4839988e-07
1.4819751e-07
1.4819453e-07
1.4869539e-07
1.5047806e-07
1.5551969e-07
1.6890718e-07
2.0351124e-07
2.905115e-07
4.9880761e-07
9.4831013e-07
1.766776e-06
2.9726903e-06
4.5237248e-06
6.4863929e-06
8.9602428e-06
1.195792e-05
1.5409816e-05
1.9214021e-05
2.3260976e-05
2.7390799e-05
3.1615618e-05
3.5258686e-05
3.794501e-05
4.0690196e-05
4.3628917e-05
4.6817691e-05
5.014441e-05
1.6884961e-07
1.6864735e-07
1.684421e-07
1.6823387e-07
1.6802268e-07
1.6780854e-07
1.6759146e-07
1.6737145e-07
1.6714853e-07
1.6692272e-07
1.6669403e-07
1.6646248e-07
1.6622809e-07
1.6599089e-07
1.657509e-07
1.6550814e-07
1.6526264e-07
1.6501442e-07
1.6476351e-07
1.6450995e-07
1.6425377e-07
1.6399499e-07
1.6373364e-07
1.6346977e-07
1.632034e-07
1.6293458e-07
1.6266333e-07
1.623897e-07
1.6211373e-07
1.6183544e-07
1.6155489e-07
1.6127211e-07
1.6098715e-07
1.6070004e-07
1.6041084e-07
1.6011958e-07
1.598263e-07
1.5953106e-07
1.592339e-07
1.5893486e-07
1.5863398e-07
1.5833133e-07
1.5802693e-07
1.5772084e-07
1.574131e-07
1.5710376e-07
1.5679287e-07
1.5648046e-07
1.561666e-07
1.5585131e-07
1.5553465e-07
1.5521667e-07
1.5489741e-07
1.545769e-07
1.542552e-07
1.5393236e-07
1.536084e-07
1.5328338e-07
1.5295734e-07
1.5263033e-07
1.5230237e-07
1.5197351e-07
1.516438e-07
1.5131327e-07
1.5098197e-07
1.5064993e-07
1.503172e-07
1.4998382e-07
1.4964987e-07
1.4931545e-07
1.4898079e-07
1.4864636e-07
1.4831335e-07
1.4798471e-07
1.4766794e-07
1.4738235e-07
1.4717829e-07
1.4718675e-07
1.4775382e-07
1.497996e-07
1.5575742e-07
1.7211883e-07
2.1588529e-07
3.2927658e-07
6.0420625e-07
1.1887461e-06
2.2038851e-06
3.6344452e-06
5.446123e-06
7.7883877e-06
1.0681496e-05
1.4126031e-05
1.8007475e-05
2.2208042e-05
2.6592111e-05
3.1049473e-05
3.5608014e-05
3.8893899e-05
4.188111e-05
4.4483608e-05
1.6884968e-07
1.6864742e-07
1.6844217e-07
1.6823395e-07
1.6802276e-07
1.6780862e-07
1.6759154e-07
1.6737153e-07
1.6714861e-07
1.669228e-07
1.6669411e-07
1.6646256e-07
1.6622817e-07
1.6599097e-07
1.6575097e-07
1.6550821e-07
1.652627e-07
1.6501448e-07
1.6476357e-07
1.6451001e-07
1.6425381e-07
1.6399503e-07
1.6373368e-07
1.634698e-07
1.6320343e-07
1.629346e-07
1.6266335e-07
1.6238972e-07
1.6211374e-07
1.6183545e-07
1.6155489e-07
1.6127211e-07
1.6098714e-07
1.6070004e-07
1.6041083e-07
1.6011956e-07
1.5982629e-07
1.5953104e-07
1.5923388e-07
1.5893483e-07
1.5863396e-07
1.583313e-07
1.580269e-07
1.5772081e-07
1.5741307e-07
1.5710373e-07
1.5679283e-07
1.5648043e-07
1.5616656e-07
1.5585127e-07
1.5553462e-07
1.5521663e-07
1.5489737e-07
1.5457686e-07
1.5425516e-07
1.5393231e-07
1.5360836e-07
1.5328334e-07
1.529573e-07
1.5263028e-07
1.5230232e-07
1.5197347e-07
1.5164375e-07
1.5131322e-07
1.5098192e-07
1.5064987e-07
1.5031713e-07
1.4998372e-07
1.4964969e-07
1.4931507e-07
1.4897992e-07
1.486443e-07
1.4830829e-07
1.4797212e-07
1.4763625e-07
1.4730187e-07
1.4697213e-07
1.4665527e-07
1.4637342e-07
1.461867e-07
1.4625787e-07
1.4703436e-07
1.4975355e-07
1.5782419e-07
1.8064341e-07
2.4345585e-07
4.0925344e-07
8.0707527e-07
1.6115313e-06
2.894507e-06
4.6082404e-06
6.8178955e-06
9.6267413e-06
1.3039792e-05
1.6996267e-05
2.133754e-05
2.5962329e-05
3.0677401e-05
3.5566648e-05
3.9579382e-05
1.6884976e-07
1.686475e-07
1.6844226e-07
1.6823404e-07
1.6802285e-07
1.6780871e-07
1.6759163e-07
1.6737163e-07
1.6714871e-07
1.6692289e-07
1.666942e-07
1.6646265e-07
1.6622826e-07
1.6599105e-07
1.6575105e-07
1.6550829e-07
1.6526278e-07
1.6501455e-07
1.6476364e-07
1.6451007e-07
1.6425387e-07
1.6399508e-07
1.6373373e-07
1.6346985e-07
1.6320347e-07
1.6293464e-07
1.6266338e-07
1.6238974e-07
1.6211376e-07
1.6183546e-07
1.6155491e-07
1.6127212e-07
1.6098715e-07
1.6070004e-07
1.6041083e-07
1.6011956e-07
1.5982628e-07
1.5953103e-07
1.5923386e-07
1.5893482e-07
1.5863394e-07
1.5833128e-07
1.5802688e-07
1.5772079e-07
1.5741305e-07
1.571037e-07
1.5679281e-07
1.564804e-07
1.5616653e-07
1.5585124e-07
1.5553459e-07
1.552166e-07
1.5489733e-07
1.5457683e-07
1.5425513e-07
1.5393228e-07
1.5360832e-07
1.532833e-07
1.5295726e-07
1.5263024e-07
1.5230228e-07
1.5197342e-07
1.5164371e-07
1.5131318e-07
1.5098187e-07
1.5064983e-07
1.5031708e-07
1.4998367e-07
1.4964964e-07
1.4931501e-07
1.4897983e-07
1.4864414e-07
1.4830797e-07
1.4797137e-07
1.4763438e-07
1.4729713e-07
1.4695981e-07
1.4662295e-07
1.4628793e-07
1.4595851e-07
1.4564505e-07
1.4537645e-07
1.452345e-07
1.4545004e-07
1.4668289e-07
1.5082526e-07
1.6330241e-07
1.9948602e-07
3.0117498e-07
5.6907434e-07
1.1819178e-06
2.3040846e-06
3.9321705e-06
6.0381322e-06
8.7804023e-06
1.2169316e-05
1.6195093e-05
2.0678912e-05
2.5593531e-05
3.0576622e-05
1.6884984e-07
1.6864759e-07
1.6844235e-07
1.6823413e-07
1.6802295e-07
1.6780882e-07
1.6759174e-07
1.6737173e-07
1.6714881e-07
1.66923e-07
1.666943e-07