/*--------------------------------*- C++ -*----------------------------------*\
  =========                 |
  \\      /  F ield         | OpenFOAM: The Open Source CFD Toolbox
   \\    /   O peration     | Website:  https://openfoam.org
    \\  /    A nd           | Version:  12
     \\/     M anipulation  |
\*---------------------------------------------------------------------------*/
FoamFile
{
    format      ascii;
    class       volVectorField;
    location    "1300";
    object      U;
}
// * * * * * * * * * * * * * * * * * * * * * * * * * * * * * * * * * * * * * //

dimensions      [0 1 -1 0 0 0 0];

internalField   nonuniform List<vector> 
7480
(
(0.98220904 0.0007586413 0)
(0.96968962 0.0014051556 0)
(0.95645703 0.0017644257 0)
(0.94235173 0.0020832347 0)
(0.92838038 0.0024870285 0)
(0.91490473 0.0027369482 0)
(0.90194806 0.0027658499 0)
(0.88949796 0.0027005385 0)
(0.8774616 0.00259139 0)
(0.86574396 0.0024402297 0)
(0.85414413 0.0022646783 0)
(0.84257374 0.0020999892 0)
(0.83100039 0.0019465639 0)
(0.81942881 0.0018024536 0)
(0.80788247 0.0016663007 0)
(0.79640354 0.0015358249 0)
(0.78506508 0.0014040912 0)
(0.77401745 0.0012734168 0)
(0.76314125 0.0011565677 0)
(0.75261092 0.0010459195 0)
(0.74249142 0.00093971946 0)
(0.7328378 0.00083816015 0)
(0.72370615 0.00074179172 0)
(0.71514466 0.00065149068 0)
(0.70719612 0.00056654144 0)
(0.69990034 0.00048709893 0)
(0.69326916 0.00041482094 0)
(0.68728825 0.00034953103 0)
(0.68193093 0.00029115531 0)
(0.67716102 0.00024064011 0)
(0.6729317 0.0001978479 0)
(0.66919286 0.00016160234 0)
(0.66590513 0.00013080694 0)
(0.6630254 0.00010538182 0)
(0.66049693 8.4487439e-05 0)
(0.65825739 6.8138251e-05 0)
(0.65624458 5.6641904e-05 0)
(0.65440137 4.9134917e-05 0)
(0.65269157 4.3643381e-05 0)
(0.65108833 4.0208561e-05 0)
(0.64955633 3.9271001e-05 0)
(0.64805907 4.002684e-05 0)
(0.64656895 4.1987791e-05 0)
(0.64506649 4.4629566e-05 0)
(0.64354222 4.7377515e-05 0)
(0.64198934 5.0370002e-05 0)
(0.64039769 5.4128923e-05 0)
(0.63874541 5.8514503e-05 0)
(0.63701635 6.2790485e-05 0)
(0.63520979 6.6427084e-05 0)
(0.6333327 6.9535189e-05 0)
(0.6313886 7.2224428e-05 0)
(0.62938041 7.4273417e-05 0)
(0.6273204 7.5281626e-05 0)
(0.62522928 7.5248236e-05 0)
(0.62312257 7.464756e-05 0)
(0.62100495 7.3721205e-05 0)
(0.61887759 7.2512739e-05 0)
(0.61674732 7.0959908e-05 0)
(0.61462205 6.9271597e-05 0)
(0.61250241 6.7661435e-05 0)
(0.61038933 6.588476e-05 0)
(0.60829083 6.3837084e-05 0)
(0.60621456 6.1707781e-05 0)
(0.60416014 5.9686099e-05 0)
(0.60212797 5.7561307e-05 0)
(0.60012268 5.5391351e-05 0)
(0.59814201 5.3471855e-05 0)
(0.59617912 5.172269e-05 0)
(0.5942334 4.9963493e-05 0)
(0.59230807 4.8242839e-05 0)
(0.59040084 4.6683425e-05 0)
(0.58851169 4.503198e-05 0)
(0.5866471 4.3326952e-05 0)
(0.58480517 4.1831024e-05 0)
(0.58298115 4.0359431e-05 0)
(0.58117719 3.8888579e-05 0)
(0.57939087 3.7611661e-05 0)
(0.57761881 3.6337386e-05 0)
(0.57586541 3.5007534e-05 0)
(0.57413118 3.3800393e-05 0)
(0.57241411 3.2591346e-05 0)
(0.57071655 3.1386357e-05 0)
(0.56903564 3.033326e-05 0)
(0.56736823 2.9289121e-05 0)
(0.56571659 2.8249339e-05 0)
(0.56408102 2.7265516e-05 0)
(0.56246185 2.628189e-05 0)
(0.56085814 2.5371835e-05 0)
(0.5592681 2.448885e-05 0)
(0.55769231 2.3631877e-05 0)
(0.55612942 2.2831863e-05 0)
(0.55458012 2.2029956e-05 0)
(0.55304248 2.1290277e-05 0)
(0.551519 2.0598764e-05 0)
(0.54998857 1.9977748e-05 0)
(0.54851952 1.9242515e-05 0)
(0.54692 4.9738006e-05 0)
(0.54552323 9.3708273e-05 0)
(0.54341135 9.108178e-05 0)
(0.99618865 0.002753601 0)
(0.99708431 0.0038400818 0)
(0.9977042 0.0042211941 0)
(0.9979455 0.0041340088 0)
(0.99736901 0.0039189126 0)
(0.99592602 0.0035812786 0)
(0.99368774 0.0032668804 0)
(0.99070381 0.0030104341 0)
(0.98706742 0.0028087856 0)
(0.9828678 0.0026618127 0)
(0.97828238 0.0025744648 0)
(0.97340502 0.0025236465 0)
(0.96827794 0.0024897608 0)
(0.9629137 0.0024604023 0)
(0.95731491 0.0024289034 0)
(0.95147612 0.0023906744 0)
(0.94539042 0.0023426204 0)
(0.93899334 0.0022848913 0)
(0.93239619 0.0022108921 0)
(0.925486 0.00211741 0)
(0.91838099 0.0020084119 0)
(0.91112563 0.0018877893 0)
(0.90375547 0.0017583123 0)
(0.89630571 0.0016233074 0)
(0.88882221 0.0014848071 0)
(0.88134621 0.0013470207 0)
(0.87391765 0.001214181 0)
(0.86657372 0.0010873157 0)
(0.85935423 0.00096789223 0)
(0.85230123 0.00085725217 0)
(0.84545439 0.00075643221 0)
(0.83885183 0.00066429977 0)
(0.83254104 0.00058311573 0)
(0.82647599 0.00051558588 0)
(0.82065394 0.00045845981 0)
(0.81508176 0.000409394 0)
(0.80976546 0.00036810388 0)
(0.80470886 0.00033413683 0)
(0.79990275 0.0003045264 0)
(0.79533493 0.00027918401 0)
(0.7909856 0.00025945942 0)
(0.7868313 0.00024397232 0)
(0.78285025 0.00023185665 0)
(0.77902477 0.00022198266 0)
(0.77534529 0.00021308787 0)
(0.77180031 0.00020548504 0)
(0.76838038 0.00020123246 0)
(0.76501056 0.00019991471 0)
(0.76167379 0.00019876875 0)
(0.75838045 0.00019631582 0)
(0.75514387 0.000193316 0)
(0.75196608 0.00019036967 0)
(0.74883942 0.00018714727 0)
(0.74575853 0.00018286571 0)
(0.74272841 0.00017764214 0)
(0.73974859 0.00017257695 0)
(0.73680323 0.00016780869 0)
(0.73388157 0.00016291612 0)
(0.73098508 0.00015757812 0)
(0.72812153 0.0001521772 0)
(0.72529341 0.00014707959 0)
(0.7225002 0.00014177552 0)
(0.71974583 0.00013614014 0)
(0.71703531 0.00013057733 0)
(0.71436714 0.0001253868 0)
(0.71173913 0.00012015256 0)
(0.70914966 0.00011504482 0)
(0.70659504 0.00011052841 0)
(0.70406987 0.0001063309 0)
(0.70157426 0.00010211449 0)
(0.69911296 9.8023219e-05 0)
(0.69668549 9.4280101e-05 0)
(0.69429015 9.0399356e-05 0)
(0.69193226 8.6523066e-05 0)
(0.68960969 8.3126755e-05 0)
(0.6873151 7.9812653e-05 0)
(0.68504913 7.6560267e-05 0)
(0.68281148 7.3693773e-05 0)
(0.68059918 7.0831087e-05 0)
(0.67841557 6.791784e-05 0)
(0.67626219 6.5275687e-05 0)
(0.67413563 6.2659392e-05 0)
(0.67203622 6.0107999e-05 0)
(0.6699618 5.7857594e-05 0)
(0.66790921 5.5628639e-05 0)
(0.66588033 5.3438615e-05 0)
(0.66387595 5.1371695e-05 0)
(0.66189573 4.9334093e-05 0)
(0.65993803 4.7457501e-05 0)
(0.65800047 4.5643555e-05 0)
(0.65608362 4.3895922e-05 0)
(0.65418653 4.2259932e-05 0)
(0.65230966 4.0644202e-05 0)
(0.6504499 3.9146041e-05 0)
(0.64861177 3.7795055e-05 0)
(0.64676605 3.6381559e-05 0)
(0.64499922 3.6109418e-05 0)
(0.64308356 6.9737303e-05 0)
(0.6414881 0.00011789075 0)
(0.63857065 9.8361135e-05 0)
(0.99630189 0.0026094172 0)
(0.99683335 0.0030889037 0)
(0.99745083 0.003048222 0)
(0.99788434 0.0029393075 0)
(0.99815386 0.0029171765 0)
(0.99847714 0.0029474267 0)
(0.99868544 0.0030103594 0)
(0.99877457 0.0030951907 0)
(0.99875002 0.0031646274 0)
(0.99860161 0.0032378553 0)
(0.99831926 0.0032795772 0)
(0.9978957 0.0032964763 0)
(0.99732105 0.0032913067 0)
(0.99658077 0.0032695338 0)
(0.99565942 0.0032317077 0)
(0.99453834 0.0031783675 0)
(0.99319506 0.0031113171 0)
(0.99157836 0.0030381068 0)
(0.989707 0.0029661689 0)
(0.98749492 0.0028873725 0)
(0.98490441 0.0027948236 0)
(0.98190264 0.002692762 0)
(0.97846595 0.002585273 0)
(0.9745714 0.0024721752 0)
(0.97022877 0.0023518266 0)
(0.96532849 0.002220776 0)
(0.95993995 0.0020841523 0)
(0.95413189 0.0019466825 0)
(0.94795183 0.0018106809 0)
(0.94145396 0.0016771786 0)
(0.93470082 0.0015473493 0)
(0.92776657 0.0014204166 0)
(0.92073411 0.0012965084 0)
(0.91369533 0.0011818001 0)
(0.90671447 0.0010788268 0)
(0.8998471 0.0009857429 0)
(0.8931412 0.00090154203 0)
(0.88664935 0.00082923904 0)
(0.88031997 0.0007661426 0)
(0.87417199 0.00070985045 0)
(0.86822787 0.00066130884 0)
(0.86250013 0.00061816547 0)
(0.85700191 0.00057967468 0)
(0.85173399 0.00054540405 0)
(0.84668332 0.00051391073 0)
(0.8418353 0.00048594619 0)
(0.83717208 0.00046294951 0)
(0.83268317 0.00044497624 0)
(0.82835477 0.00043002888 0)
(0.82417829 0.00041499059 0)
(0.82014585 0.00040021121 0)
(0.81624133 0.00038659099 0)
(0.81244387 0.00037371601 0)
(0.80873899 0.00036023144 0)
(0.80512716 0.00034630189 0)
(0.80159326 0.00033379805 0)
(0.79810908 0.0003224605 0)
(0.79467373 0.0003111121 0)
(0.79129159 0.00029919276 0)
(0.78796907 0.00028730278 0)
(0.78470669 0.0002760515 0)
(0.78150128 0.00026474397 0)
(0.77835319 0.00025320882 0)
(0.77526397 0.00024202307 0)
(0.77223035 0.00023162438 0)
(0.76924844 0.00022151722 0)
(0.76631005 0.00021189383 0)
(0.76341272 0.00020320927 0)
(0.76055428 0.00019503277 0)
(0.75773612 0.00018686727 0)
(0.75496294 0.00017892877 0)
(0.75223401 0.00017158174 0)
(0.74954664 0.00016413487 0)
(0.74690531 0.00015681023 0)
(0.74430552 0.00015033538 0)
(0.74173886 0.00014410939 0)
(0.73920653 0.00013803854 0)
(0.73670948 0.00013256193 0)
(0.73424522 0.00012714268 0)
(0.73181653 0.00012170053 0)
(0.72942488 0.00011670851 0)
(0.72706556 0.00011184545 0)
(0.72473762 0.00010715495 0)
(0.72243943 0.00010294688 0)
(0.72016841 9.8814128e-05 0)
(0.71792639 9.4770876e-05 0)
(0.71571422 9.0939156e-05 0)
(0.71353081 8.720658e-05 0)
(0.71137383 8.3760041e-05 0)
(0.70924084 8.0444037e-05 0)
(0.70713266 7.7252685e-05 0)
(0.70504854 7.4246047e-05 0)
(0.70298873 7.1314557e-05 0)
(0.70094942 6.856966e-05 0)
(0.69893525 6.6150777e-05 0)
(0.69691598 6.3476554e-05 0)
(0.69498034 6.2075304e-05 0)
(0.69289462 9.2319703e-05 0)
(0.69116294 0.00013979713 0)
(0.68793727 0.00010719582 0)
(0.99645241 0.0023664265 0)
(0.996901 0.0028574425 0)
(0.99746972 0.0030695206 0)
(0.99789609 0.0031891697 0)
(0.99818829 0.0032937935 0)
(0.99843565 0.0033741617 0)
(0.99865955 0.0033900553 0)
(0.99885526 0.0033762862 0)
(0.99902546 0.0033389332 0)
(0.99916554 0.0032855655 0)
(0.99932439 0.003232006 0)
(0.99945938 0.0031841179 0)
(0.99957181 0.0031430139 0)
(0.99966565 0.003101771 0)
(0.9997356 0.0030676604 0)
(0.99977799 0.0030364017 0)
(0.99978754 0.0030026855 0)
(0.99975561 0.0029705301 0)
(0.99967411 0.0029413538 0)
(0.99953271 0.0029087561 0)
(0.99931237 0.0028651457 0)
(0.99898766 0.0028121826 0)
(0.99853331 0.0027526996 0)
(0.99792036 0.0026879303 0)
(0.99712088 0.0026215652 0)
(0.99607043 0.0025585637 0)
(0.99471477 0.00249482 0)
(0.99300414 0.002425352 0)
(0.99089088 0.00235071 0)
(0.98833021 0.0022732944 0)
(0.98527455 0.0021920941 0)
(0.98170033 0.0021046632 0)
(0.97747795 0.0020116077 0)
(0.9726326 0.0019136334 0)
(0.96725633 0.0018104971 0)
(0.96141046 0.0017046138 0)
(0.95517312 0.0015975567 0)
(0.9486365 0.0014906522 0)
(0.9419418 0.0013860307 0)
(0.93518499 0.0012877656 0)
(0.92844618 0.0011987803 0)
(0.92178759 0.0011167746 0)
(0.91527679 0.0010432045 0)
(0.90889866 0.00097911738 0)
(0.90264653 0.00092037215 0)
(0.89655962 0.00086603553 0)
(0.89066013 0.000818641 0)
(0.88499831 0.00077754076 0)
(0.87959024 0.00073976745 0)
(0.87441505 0.00070331683 0)
(0.86944491 0.00066924285 0)
(0.86465341 0.00063888919 0)
(0.86001892 0.0006112897 0)
(0.85553231 0.00058407335 0)
(0.85119514 0.00055688244 0)
(0.84700079 0.0005321487 0)
(0.84293085 0.00051043584 0)
(0.83896456 0.00049021349 0)
(0.83509087 0.00046987662 0)
(0.83130993 0.00044980414 0)
(0.82761842 0.00043082871 0)
(0.82400886 0.00041215016 0)
(0.82047652 0.00039354846 0)
(0.81701871 0.00037570312 0)
(0.81363065 0.00035914785 0)
(0.81030568 0.00034347969 0)
(0.80702541 0.00032864649 0)
(0.80379768 0.00031486796 0)
(0.80062359 0.00030171069 0)
(0.79750407 0.00028862493 0)
(0.79444241 0.00027592071 0)
(0.79143655 0.00026412185 0)
(0.78848234 0.00025234206 0)
(0.78558336 0.00024092678 0)
(0.78273029 0.00023084013 0)
(0.77991522 0.00022116629 0)
(0.77714176 0.00021169925 0)
(0.77441189 0.00020302047 0)
(0.77172313 0.00019448999 0)
(0.76907751 0.00018599469 0)
(0.76647613 0.00017816933 0)
(0.7639119 0.00017064765 0)
(0.76138301 0.00016342611 0)
(0.75888893 0.00015685828 0)
(0.75642791 0.00015043382 0)
(0.75400169 0.00014416043 0)
(0.75161098 0.00013820662 0)
(0.74925345 0.00013245944 0)
(0.74692595 0.00012714141 0)
(0.74462642 0.00012203189 0)
(0.74235606 0.00011711057 0)
(0.7401143 0.00011245526 0)
(0.73790103 0.00010795571 0)
(0.73571154 0.00010372064 0)
(0.73355036 0.00010003205 0)
(0.73138775 9.5811364e-05 0)
(0.72931145 9.3225952e-05 0)
(0.72708833 0.00011870296 0)
(0.72523648 0.00016541733 0)
(0.7218023 0.00012575577 0)
(0.99663269 0.0022647371 0)
(0.9970138 0.002780168 0)
(0.997519 0.0030273173 0)
(0.99791462 0.0031113053 0)
(0.99818922 0.0031511484 0)
(0.99842076 0.0031542807 0)
(0.99863688 0.0031312023 0)
(0.99883216 0.0031071248 0)
(0.99900549 0.0030849618 0)
(0.99916202 0.0030721055 0)
(0.99930686 0.00306695 0)
(0.99944356 0.0030679376 0)
(0.99957606 0.0030686869 0)
(0.99970429 0.0030677471 0)
(0.99982727 0.0030607724 0)
(0.9999448 0.0030452647 0)
(1.0000572 0.0030232915 0)
(1.0001594 0.0029956867 0)
(1.0002684 0.0029644663 0)
(1.0003756 0.0029279316 0)
(1.000472 0.002881463 0)
(1.00055 0.0028271812 0)
(1.0006074 0.0027689384 0)
(1.0006396 0.0027082439 0)
(1.0006475 0.0026507151 0)
(1.0006276 0.0025980761 0)
(1.0005706 0.0025435607 0)
(1.0004609 0.0024859722 0)
(1.00028 0.0024286054 0)
(1.0000062 0.0023734733 0)
(0.99961017 0.0023203814 0)
(0.99905797 0.0022728477 0)
(0.99828289 0.0022308269 0)
(0.99721066 0.0021933061 0)
(0.99577041 0.0021537976 0)
(0.9938877 0.0021104871 0)
(0.9914926 0.002061864 0)
(0.98850467 0.0020095205 0)
(0.98495264 0.0019511166 0)
(0.98063465 0.0018827573 0)
(0.97569879 0.0018030838 0)
(0.9702282 0.0017159109 0)
(0.96431403 0.0016237162 0)
(0.95808796 0.0015302886 0)
(0.95168532 0.0014387082 0)
(0.94520409 0.0013516876 0)
(0.93872696 0.0012716906 0)
(0.93232725 0.0011974579 0)
(0.92607446 0.0011311112 0)
(0.91990954 0.0010704326 0)
(0.91387423 0.0010132543 0)
(0.90800871 0.00096050352 0)
(0.90233409 0.00091141149 0)
(0.89687086 0.0008638754 0)
(0.89161383 0.00081835422 0)
(0.88655218 0.0007775102 0)
(0.88167696 0.0007413104 0)
(0.87696319 0.00070770365 0)
(0.8723994 0.0006747436 0)
(0.86798636 0.00064284672 0)
(0.8637108 0.00061318902 0)
(0.85955331 0.00058487245 0)
(0.85550059 0.00055738572 0)
(0.85154749 0.00053118781 0)
(0.84769146 0.00050674069 0)
(0.84392771 0.00048346016 0)
(0.84025326 0.00046163599 0)
(0.83666107 0.00044163599 0)
(0.8331435 0.0004226011 0)
(0.82969825 0.00040377709 0)
(0.82632662 0.00038554491 0)
(0.82302431 0.00036861007 0)
(0.81978504 0.0003518825 0)
(0.81661144 0.00033591888 0)
(0.8134857 0.00032178759 0)
(0.81040562 0.00030811526 0)
(0.80737848 0.00029464793 0)
(0.80440596 0.00028218123 0)
(0.80148467 0.00027000403 0)
(0.79861556 0.00025796262 0)
(0.79579904 0.00024689665 0)
(0.79302392 0.00023639472 0)
(0.79028877 0.00022630412 0)
(0.78759525 0.00021700921 0)
(0.78494224 0.00020793817 0)
(0.78233101 0.00019909977 0)
(0.77976196 0.00019072429 0)
(0.77723064 0.00018270899 0)
(0.77473325 0.00017527722 0)
(0.7722687 0.00016813147 0)
(0.76983869 0.00016124201 0)
(0.76744262 0.00015471188 0)
(0.76507978 0.00014844442 0)
(0.7627442 0.00014253479 0)
(0.76044047 0.00013740758 0)
(0.75813986 0.00013144638 0)
(0.75592859 0.00012771952 0)
(0.75357438 0.00014900755 0)
(0.75160789 0.00019560981 0)
(0.74797956 0.00015062224 0)
(0.9968026 0.0021858574 0)
(0.99712345 0.0026677771 0)
(0.99756452 0.0029105221 0)
(0.99793109 0.0029997084 0)
(0.99819898 0.0030551751 0)
(0.99842792 0.0030979989 0)
(0.99864277 0.0031236856 0)
(0.99883722 0.0031381362 0)
(0.99900918 0.0031468742 0)
(0.99916316 0.0031466164 0)
(0.99930436 0.003143095 0)
(0.99943728 0.003136273 0)
(0.99956609 0.0031246959 0)
(0.99969164 0.0031063652 0)
(0.9998134 0.0030819838 0)
(0.99993136 0.0030525205 0)
(1.0000452 0.0030189847 0)
(1.0001544 0.0029817914 0)
(1.0002591 0.0029430664 0)
(1.0003618 0.0029024722 0)
(1.0004618 0.0028556223 0)
(1.0005552 0.0028028286 0)
(1.0006389 0.0027466796 0)
(1.0007124 0.0026883105 0)
(1.0007768 0.0026312418 0)
(1.0008324 0.0025766838 0)
(1.0008906 0.0025212538 0)
(1.0009432 0.0024653282 0)
(1.0009796 0.0024114174 0)
(1.0010027 0.0023611577 0)
(1.0010118 0.0023147497 0)
(1.0010063 0.002275034 0)
(1.0009841 0.0022449013 0)
(1.0009375 0.0022184866 0)
(1.0008509 0.0021917884 0)
(1.0007014 0.0021654355 0)
(1.000459 0.0021408128 0)
(1.0000805 0.0021161034 0)
(0.99951637 0.0020948376 0)
(0.99866326 0.0020788798 0)
(0.99743392 0.0020588043 0)
(0.99573668 0.0020306986 0)
(0.99347701 0.0019961107 0)
(0.99062252 0.0019561855 0)
(0.98712459 0.0019064 0)
(0.98286677 0.0018441172 0)
(0.97799163 0.0017703422 0)
(0.97260058 0.0016888926 0)
(0.96681293 0.0016021186 0)
(0.96079351 0.0015148837 0)
(0.9546432 0.0014316309 0)
(0.94845219 0.0013536682 0)
(0.94229269 0.0012796192 0)
(0.93624538 0.0012100487 0)
(0.93025612 0.0011455656 0)
(0.92434212 0.001085821 0)
(0.91855641 0.0010299189 0)
(0.91293825 0.00097685464 0)
(0.90752201 0.00092558886 0)
(0.90230285 0.00087740579 0)
(0.89725337 0.00083331885 0)
(0.89235001 0.00079209348 0)
(0.88758468 0.00075269101 0)
(0.88296267 0.00071521489 0)
(0.87848501 0.00068033688 0)
(0.87414 0.00064754468 0)
(0.86993314 0.00061695595 0)
(0.86584596 0.00058870789 0)
(0.86186844 0.00056190613 0)
(0.85799487 0.00053575217 0)
(0.85422055 0.00051072015 0)
(0.85053484 0.00048758945 0)
(0.84692979 0.00046495462 0)
(0.84340653 0.00044326088 0)
(0.83996245 0.00042388796 0)
(0.83658986 0.00040538645 0)
(0.83328697 0.00038730602 0)
(0.83005174 0.00037050371 0)
(0.82687946 0.00035416807 0)
(0.82376974 0.00033810696 0)
(0.82072181 0.0003234405 0)
(0.81771811 0.00030962463 0)
(0.81476126 0.00029625021 0)
(0.81185584 0.00028378234 0)
(0.80900011 0.00027164649 0)
(0.80619436 0.00025985641 0)
(0.80343842 0.00024873571 0)
(0.8007246 0.00023819039 0)
(0.79804925 0.00022837462 0)
(0.79541312 0.00021890711 0)
(0.79281816 0.00020977283 0)
(0.79026337 0.00020111352 0)
(0.78774705 0.00019286125 0)
(0.78526158 0.00018508027 0)
(0.78281226 0.00017832029 0)
(0.78037158 0.00017041575 0)
(0.77802383 0.00016549043 0)
(0.77553754 0.00018309872 0)
(0.77345451 0.0002305531 0)
(0.76963636 0.00017972161 0)
(0.99696024 0.0021165798 0)
(0.99723129 0.0025603075 0)
(0.99761633 0.0028101262 0)
(0.99795582 0.0029231692 0)
(0.99821604 0.0029969072 0)
(0.99843888 0.0030525367 0)
(0.99864734 0.0030805742 0)
(0.99883731 0.0030894494 0)
(0.99900657 0.0030867062 0)
(0.99915909 0.003078638 0)
(0.99929974 0.0030676096 0)
(0.99943265 0.0030545476 0)
(0.9995611 0.0030428094 0)
(0.99968612 0.003028616 0)
(0.99980732 0.0030117027 0)
(0.9999245 0.0029906213 0)
(1.0000372 0.0029656529 0)
(1.0001448 0.0029369395 0)
(1.0002479 0.0029059902 0)
(1.0003482 0.0028722474 0)
(1.0004459 0.002831676 0)
(1.0005376 0.0027840533 0)
(1.0006212 0.0027319033 0)
(1.0006957 0.0026767875 0)
(1.0007619 0.0026219181 0)
(1.000822 0.0025689104 0)
(1.0008778 0.002515594 0)
(1.0009277 0.0024621731 0)
(1.0009708 0.0024102866 0)
(1.0010069 0.0023611396 0)
(1.0010369 0.0023149632 0)
(1.0010617 0.0022743903 0)
(1.0010831 0.002240768 0)
(1.0011089 0.0022107513 0)
(1.0011353 0.0021823037 0)
(1.0011563 0.0021563106 0)
(1.0011712 0.0021337125 0)
(1.0011766 0.0021135813 0)
(1.00117 0.002101125 0)
(1.001147 0.0020952265 0)
(1.0010914 0.0020871371 0)
(1.0009748 0.0020765778 0)
(1.0007578 0.0020637293 0)
(1.0003904 0.002049391 0)
(0.99979804 0.0020367369 0)
(0.99886706 0.0020237077 0)
(0.99749482 0.0020037039 0)
(0.99558023 0.0019750406 0)
(0.99303575 0.001939236 0)
(0.98984542 0.0018951356 0)
(0.98588714 0.0018383341 0)
(0.98130969 0.001769388 0)
(0.97621753 0.0016917301 0)
(0.97074181 0.0016069121 0)
(0.96503055 0.0015213277 0)
(0.95917778 0.0014414189 0)
(0.95326053 0.0013666309 0)
(0.94734919 0.001294433 0)
(0.94153086 0.0012261519 0)
(0.93573697 0.0011633614 0)
(0.92999 0.0011044351 0)
(0.92434151 0.0010474017 0)
(0.91883663 0.00099190451 0)
(0.91350693 0.00093932498 0)
(0.90833603 0.00089093434 0)
(0.90330286 0.00084532126 0)
(0.89841082 0.00080255625 0)
(0.89366731 0.00076302876 0)
(0.88907967 0.00072578327 0)
(0.88463595 0.00069007063 0)
(0.88032189 0.00065646415 0)
(0.87612175 0.00062553165 0)
(0.87203249 0.00059542047 0)
(0.8680541 0.00056670059 0)
(0.86419452 0.0005409263 0)
(0.86043907 0.00051635998 0)
(0.85677844 0.00049252558 0)
(0.85320745 0.00047040518 0)
(0.84971826 0.00044907151 0)
(0.84630716 0.00042828255 0)
(0.84297023 0.00040919791 0)
(0.83970195 0.00039123375 0)
(0.83650153 0.00037396983 0)
(0.83336608 0.00035787315 0)
(0.83029076 0.00034226857 0)
(0.82727472 0.00032714637 0)
(0.82431699 0.00031297452 0)
(0.8214051 0.00029961782 0)
(0.81853778 0.00028708522 0)
(0.81571836 0.00027494465 0)
(0.81294806 0.00026323642 0)
(0.81022507 0.00025215661 0)
(0.80754615 0.00024168407 0)
(0.80490177 0.0002318115 0)
(0.80229912 0.00022318335 0)
(0.79971178 0.00021309542 0)
(0.79722174 0.0002067386 0)
(0.79459772 0.00022098968 0)
(0.79239194 0.00027017916 0)
(0.78838201 0.00021231145 0)
(0.99710681 0.0020587703 0)
(0.99733759 0.0024665294 0)
(0.99767347 0.0027195715 0)
(0.99798521 0.0028481252 0)
(0.99823492 0.0029293192 0)
(0.99845043 0.0029887359 0)
(0.9986524 0.0030223043 0)
(0.99883874 0.0030375886 0)
(0.99900649 0.003043693 0)
(0.99915847 0.0030450655 0)
(0.99929916 0.0030437209 0)
(0.99943219 0.0030417003 0)
(0.99956012 0.0030361574 0)
(0.99968417 0.0030275033 0)
(0.99980439 0.0030133312 0)
(0.99992058 0.0029940352 0)
(1.0000323 0.0029695663 0)
(1.0001391 0.0029404465 0)
(1.0002415 0.0029081017 0)
(1.0003409 0.0028723129 0)
(1.0004373 0.0028301061 0)
(1.0005281 0.0027813156 0)
(1.0006109 0.0027283612 0)
(1.0006851 0.002672987 0)
(1.000751 0.002617925 0)
(1.0008107 0.0025647131 0)
(1.0008656 0.0025116377 0)
(1.0009149 0.0024585053 0)
(1.0009578 0.0024066857 0)
(1.0009945 0.0023575221 0)
(1.0010256 0.0023115572 0)
(1.0010519 0.0022710864 0)
(1.0010763 0.0022372757 0)
(1.0011011 0.0022077799 0)
(1.0011265 0.0021805778 0)
(1.0011511 0.0021557227 0)
(1.0011742 0.0021336139 0)
(1.0011956 0.0021135359 0)
(1.0012159 0.0020992114 0)
(1.0012386 0.0020903494 0)
(1.0012673 0.0020800845 0)
(1.0013015 0.0020686228 0)
(1.0013274 0.0020574805 0)
(1.0013415 0.0020478465 0)
(1.0013415 0.0020434423 0)
(1.0013176 0.0020412986 0)
(1.0012448 0.0020362678 0)
(1.0010835 0.0020277679 0)
(1.0007775 0.0020163749 0)
(1.0002479 0.0020048846 0)
(0.99937253 0.0019909795 0)
(0.99804182 0.0019692904 0)
(0.99614775 0.0019377815 0)
(0.9936124 0.0018968794 0)
(0.99031415 0.0018479862 0)
(0.98632424 0.0017876491 0)
(0.98176985 0.0017185047 0)
(0.97676802 0.0016414703 0)
(0.97145052 0.0015590837 0)
(0.96593777 0.0014793795 0)
(0.96030265 0.0014056223 0)
(0.9546104 0.0013347725 0)
(0.94893332 0.0012653915 0)
(0.94330954 0.0012009574 0)
(0.93766712 0.0011413055 0)
(0.93205926 0.0010827442 0)
(0.92654799 0.0010256672 0)
(0.92118976 0.00097220327 0)
(0.91597991 0.00092228501 0)
(0.91090425 0.00087476519 0)
(0.9059605 0.00083030401 0)
(0.90115247 0.00078920107 0)
(0.89649104 0.00074941042 0)
(0.89197097 0.00071155754 0)
(0.88758478 0.00067734496 0)
(0.88332311 0.00064492363 0)
(0.87918858 0.00061371228 0)
(0.87517646 0.00058489386 0)
(0.87127265 0.00055741515 0)
(0.86746925 0.00053088476 0)
(0.8637607 0.0005064909 0)
(0.86015358 0.00048351099 0)
(0.85664276 0.00046147759 0)
(0.85321678 0.000440986 0)
(0.84986728 0.00042125049 0)
(0.84659165 0.00040222238 0)
(0.84338585 0.00038438099 0)
(0.84024554 0.00036759236 0)
(0.83716785 0.00035187662 0)
(0.83414971 0.00033670735 0)
(0.83118963 0.00032211025 0)
(0.82828474 0.00030833272 0)
(0.82542973 0.00029540785 0)
(0.82261318 0.00028318551 0)
(0.81984604 0.00027240553 0)
(0.81710209 0.00025986252 0)
(0.81446027 0.00025213506 0)
(0.81168981 0.00026281388 0)
(0.80935181 0.00031436937 0)
(0.80514431 0.00024825841 0)
(0.99724322 0.0020089877 0)
(0.9974413 0.0023826072 0)
(0.99773408 0.0026330578 0)
(0.99801838 0.0027724023 0)
(0.99825636 0.0028612557 0)
(0.99846468 0.0029274155 0)
(0.99866042 0.0029700984 0)
(0.99884272 0.0029937299 0)
(0.99900822 0.0030061414 0)
(0.99915882 0.0030116019 0)
(0.99929855 0.0030125243 0)
(0.99943076 0.0030098738 0)
(0.99955773 0.0030039726 0)
(0.99968071 0.0029935059 0)
(0.99979999 0.0029785392 0)
(0.99991532 0.0029589256 0)
(1.0000263 0.0029347559 0)
(1.0001327 0.0029065731 0)
(1.0002348 0.0028754129 0)
(1.0003336 0.0028410673 0)
(1.0004293 0.002801153 0)
(1.0005195 0.0027552519 0)
(1.0006021 0.002705322 0)
(1.0006764 0.0026530248 0)
(1.0007427 0.0026006254 0)
(1.0008028 0.002549532 0)
(1.0008578 0.002498489 0)
(1.0009074 0.0024472542 0)
(1.0009506 0.0023971461 0)
(1.0009877 0.0023495653 0)
(1.0010193 0.0023051579 0)
(1.0010463 0.002265818 0)
(1.001071 0.00223265 0)
(1.0010957 0.0022037169 0)
(1.0011209 0.0021769317 0)
(1.0011453 0.0021521488 0)
(1.0011687 0.0021299322 0)
(1.0011908 0.0021099269 0)
(1.0012122 0.002095252 0)
(1.0012367 0.0020860356 0)
(1.0012659 0.0020761738 0)
(1.0012969 0.0020653506 0)
(1.0013273 0.0020546624 0)
(1.0013561 0.0020450623 0)
(1.0013851 0.002039398 0)
(1.0014167 0.002035614 0)
(1.0014525 0.002029101 0)
(1.001494 0.0020209958 0)
(1.001521 0.0020129207 0)
(1.0015303 0.0020085516 0)
(1.0015135 0.0020056364 0)
(1.0014419 0.0019986503 0)
(1.0012691 0.0019867093 0)
(1.0009292 0.0019723532 0)
(1.0003086 0.0019578645 0)
(0.99928721 0.0019387143 0)
(0.99774965 0.0019114685 0)
(0.99560931 0.0018737223 0)
(0.99269951 0.0018265875 0)
(0.9890366 0.0017706036 0)
(0.98479671 0.0017070689 0)
(0.98010425 0.0016356431 0)
(0.97508146 0.0015580803 0)
(0.96983229 0.0014808244 0)
(0.96443527 0.0014087637 0)
(0.95894613 0.0013399863 0)
(0.95342522 0.001272219 0)
(0.94795107 0.0012094534 0)
(0.9424231 0.0011505138 0)
(0.93689413 0.0010921432 0)
(0.93143581 0.0010353915 0)
(0.92610794 0.00098214222 0)
(0.92090783 0.00093112739 0)
(0.9158273 0.00088259562 0)
(0.91086798 0.00083832939 0)
(0.90604211 0.00079615747 0)
(0.9013682 0.00075569834 0)
(0.89683851 0.00071856467 0)
(0.89243596 0.00068350056 0)
(0.88815765 0.00064982142 0)
(0.88400349 0.00061865433 0)
(0.87997157 0.00058920359 0)
(0.87605705 0.00056119206 0)
(0.87225214 0.00053526128 0)
(0.86854892 0.0005104653 0)
(0.86494161 0.00048674153 0)
(0.86142133 0.00046456187 0)
(0.8579927 0.00044368383 0)
(0.85465176 0.00042411988 0)
(0.85138754 0.00040534829 0)
(0.84819464 0.00038738054 0)
(0.84506841 0.0003704413 0)
(0.84200531 0.00035455575 0)
(0.83899951 0.00033956474 0)
(0.83605415 0.0003263395 0)
(0.8331407 0.00031107913 0)
(0.83033503 0.00030181147 0)
(0.82740582 0.00030884776 0)
(0.82492343 0.00036300653 0)
(0.82051038 0.00028768155 0)
(0.99737052 0.0019657474 0)
(0.99754188 0.0023076658 0)
(0.99779725 0.0025519106 0)
(0.99805531 0.0026993315 0)
(0.99828075 0.0027958723 0)
(0.99848152 0.0028682331 0)
(0.99867067 0.0029179085 0)
(0.9988482 0.0029475233 0)
(0.99901083 0.0029642546 0)
(0.99915971 0.0029731716 0)
(0.99929834 0.0029769712 0)
(0.99942974 0.0029769698 0)
(0.99955592 0.0029735092 0)
(0.99967806 0.0029660977 0)
(0.99979648 0.002954236 0)
(0.99991095 0.0029376369 0)
(1.0000212 0.00291639 0)
(1.000127 0.0028908998 0)
(1.0002285 0.0028619004 0)
(1.0003267 0.0028292453 0)
(1.0004215 0.0027911007 0)
(1.0005109 0.0027470071 0)
(1.0005932 0.0026986586 0)
(1.0006675 0.0026477678 0)
(1.0007341 0.0025963758 0)
(1.0007945 0.0025458628 0)
(1.0008498 0.0024954287 0)
(1.0008996 0.0024448714 0)
(1.0009434 0.002395392 0)
(1.0009811 0.002348339 0)
(1.0010135 0.0023044121 0)
(1.0010413 0.0022652261 0)
(1.0010668 0.0022318226 0)
(1.001092 0.0022026006 0)
(1.0011175 0.0021756275 0)
(1.0011422 0.0021507329 0)
(1.0011659 0.0021285145 0)
(1.0011884 0.0021087615 0)
(1.0012102 0.0020940012 0)
(1.0012346 0.002084399 0)
(1.0012632 0.0020745349 0)
(1.0012934 0.0020636779 0)
(1.0013234 0.0020528844 0)
(1.0013526 0.0020431419 0)
(1.0013823 0.0020369913 0)
(1.0014156 0.0020327218 0)
(1.0014526 0.0020261888 0)
(1.0014902 0.0020182276 0)
(1.0015263 0.0020103031 0)
(1.0015619 0.0020050702 0)
(1.0016009 0.0020005951 0)
(1.0016377 0.0019925325 0)
(1.0016873 0.0019815432 0)
(1.0017151 0.0019723138 0)
(1.0017189 0.0019661751 0)
(1.0016827 0.001958363 0)
(1.001566 0.0019462103 0)
(1.0013084 0.0019314247 0)
(1.0008017 0.0019156956 0)
(0.99991207 0.0018978164 0)
(0.998519 0.0018719854 0)
(0.99653075 0.0018360099 0)
(0.99378084 0.001789109 0)
(0.99021969 0.0017322933 0)
(0.9860911 0.0016710605 0)
(0.98154582 0.0016030509 0)
(0.97669086 0.0015298844 0)
(0.9716146 0.0014570459 0)
(0.96638575 0.0013881223 0)
(0.9610534 0.0013220047 0)
(0.95567324 0.0012571461 0)
(0.95031868 0.0011966137 0)
(0.94489348 0.0011380482 0)
(0.93945281 0.0010801103 0)
(0.93406944 0.0010252067 0)
(0.92879815 0.00097228468 0)
(0.92363951 0.00092169989 0)
(0.91859138 0.00087499717 0)
(0.91366183 0.00083073498 0)
(0.90887093 0.00078820567 0)
(0.90422442 0.00074881832 0)
(0.89970969 0.00071171366 0)
(0.89532406 0.00067648691 0)
(0.89107182 0.00064382624 0)
(0.88694781 0.00061281798 0)
(0.88294205 0.00058341373 0)
(0.879045 0.00055587431 0)
(0.87525908 0.0005298131 0)
(0.87158177 0.00050547956 0)
(0.86800233 0.00048235212 0)
(0.86451405 0.00046034678 0)
(0.86111016 0.00043966798 0)
(0.85778778 0.0004203051 0)
(0.85454727 0.00040203132 0)
(0.85138343 0.00038588072 0)
(0.84826453 0.00036751765 0)
(0.84526095 0.00035634623 0)
(0.84214898 0.00035947213 0)
(0.83950777 0.00041595924 0)
(0.83488035 0.00033086253 0)
(0.99748965 0.0019277179 0)
(0.99763902 0.0022406205 0)
(0.99786215 0.0024762646 0)
(0.99809558 0.002628925 0)
(0.99830787 0.0027319809 0)
(0.99850061 0.0028094201 0)
(0.99868294 0.0028647937 0)
(0.9988553 0.0029001037 0)
(0.99901474 0.0029217207 0)
(0.9991617 0.002934901 0)
(0.99929903 0.0029423443 0)
(0.99942942 0.0029452971 0)
(0.99955463 0.0029441554 0)
(0.99967574 0.002938628 0)
(0.99979309 0.0029282294 0)
(0.99990655 0.0029128441 0)
(1.0000159 0.0028926798 0)
(1.000121 0.0028681508 0)
(1.0002219 0.0028398821 0)
(1.0003194 0.0028078388 0)
(1.0004133 0.00277066 0)
(1.0005021 0.0027279177 0)
(1.000584 0.0026810599 0)
(1.0006583 0.0026317596 0)
(1.0007252 0.0025818294 0)
(1.000786 0.0025325425 0)
(1.0008415 0.0024834064 0)
(1.0008917 0.0024342305 0)
(1.0009359 0.0023860603 0)
(1.0009743 0.0023401778 0)
(1.0010074 0.0022973416 0)
(1.0010361 0.0022589547 0)
(1.0010624 0.0022259749 0)
(1.0010882 0.0021970947 0)
(1.001114 0.0021705571 0)
(1.0011392 0.0021461147 0)
(1.0011633 0.0021242981 0)
(1.0011862 0.0021050024 0)
(1.0012086 0.0020902724 0)
(1.0012334 0.0020803115 0)
(1.0012619 0.0020704256 0)
(1.0012921 0.0020596357 0)
(1.0013221 0.0020489826 0)
(1.0013514 0.0020394633 0)
(1.0013811 0.0020332589 0)