/*--------------------------------*- C++ -*----------------------------------*\
  =========                 |
  \\      /  F ield         | OpenFOAM: The Open Source CFD Toolbox
   \\    /   O peration     | Website:  https://openfoam.org
    \\  /    A nd           | Version:  12
     \\/     M anipulation  |
\*---------------------------------------------------------------------------*/
FoamFile
{
    format      ascii;
    class       volScalarField;
    location    "100";
    object      p;
}
// * * * * * * * * * * * * * * * * * * * * * * * * * * * * * * * * * * * * * //

dimensions      [0 2 -2 0 0 0 0];

internalField   nonuniform List<scalar> 
7480
(
0.0087336416
0.0076879627
0.006564563
0.006043032
0.0057069017
0.0054481276
0.0052410569
0.0050527944
0.0048906851
0.0047559883
0.0046399885
0.0045223902
0.0043993164
0.0042741136
0.0041489586
0.004025326
0.0039057331
0.0037982665
0.0036991182
0.0035946476
0.0034880567
0.0033900642
0.0033036208
0.0032282627
0.0031662345
0.0031127611
0.0030599615
0.0030122583
0.0029730339
0.0029405854
0.0029134102
0.0028924774
0.0028765156
0.0028577206
0.0028350604
0.0028130078
0.002792626
0.0027739969
0.0027586803
0.002739114
0.0027105275
0.0026797281
0.0026510493
0.0026243982
0.0025981526
0.0025671977
0.0025308824
0.0024941579
0.0024594254
0.0024260534
0.0023882437
0.0023450888
0.0023023012
0.0022641982
0.0022273654
0.0021862135
0.0021429722
0.0021020958
0.0020637557
0.0020232096
0.0019793522
0.0019374682
0.0018978553
0.0018565681
0.0018131547
0.0017722108
0.0017319488
0.0016884219
0.0016446806
0.001602731
0.0015594946
0.001513726
0.001470392
0.0014270987
0.0013800487
0.0013347002
0.001290075
0.001241675
0.0011942577
0.0011477165
0.0010979493
0.0010492248
0.0010008241
0.00094904465
0.00089815201
0.00084721852
0.00079436317
0.00074187131
0.00068809533
0.0006343928
0.00058025414
0.00052465571
0.00047033298
0.00041526802
0.00036288955
0.00030808429
0.00027520917
0.0001634835
0.00036175765
-0.00031389858
0.0082199303
0.0072953486
0.0064144294
0.0059982708
0.0057798709
0.0055799714
0.0053815233
0.0051873654
0.0050141166
0.0048585817
0.0047179201
0.0045825064
0.0044474886
0.004314387
0.0041841515
0.0040580708
0.0039390421
0.0038295251
0.0037276774
0.0036233145
0.0035166817
0.0034184416
0.0033316275
0.0032557613
0.0031933203
0.0031392233
0.0030854355
0.0030366268
0.0029961102
0.0029622439
0.0029336139
0.002911281
0.0028940005
0.00287397
0.0028502104
0.002827015
0.0028054407
0.0027857552
0.0027695916
0.0027491575
0.0027197219
0.0026882168
0.0026589233
0.0026317445
0.0026050365
0.0025736186
0.0025368927
0.002499884
0.0024649466
0.0024313655
0.0023933118
0.0023499244
0.0023069467
0.0022686808
0.0022316786
0.0021903566
0.0021469668
0.0021059516
0.0020674697
0.0020267679
0.0019827574
0.0019407372
0.0019009859
0.0018595534
0.0018160011
0.0017749338
0.0017345479
0.0016908983
0.0016470486
0.0016049964
0.0015616554
0.0015157872
0.0014723633
0.0014289767
0.0013818366
0.0013364101
0.0012917074
0.0012432319
0.0011957475
0.001149139
0.0010993053
0.0010505209
0.0010020612
0.0009502254
0.00089928211
0.00084829844
0.00079539458
0.0007428571
0.00068903734
0.00063529414
0.00058111624
0.00052548036
0.00047112258
0.00041602309
0.00036361577
0.00030877517
0.00027583612
0.00016477159
0.00036479445
-0.00031137708
0.0079143619
0.0072587199
0.0065311937
0.0060941966
0.0058453291
0.0056029537
0.0053693923
0.0051570645
0.0049751735
0.0048178593
0.0046778129
0.0045478751
0.004420203
0.0042946267
0.0041712786
0.0040515544
0.003938661
0.0038321836
0.0037314325
0.0036302569
0.0035275621
0.0034325784
0.0033485307
0.0032747884
0.0032138629
0.0031600152
0.0031058118
0.003056607
0.003015583
0.0029811253
0.0029519177
0.002929207
0.0029108777
0.0028891592
0.0028642539
0.0028401453
0.0028176309
0.0027971493
0.0027805383
0.0027595848
0.0027294948
0.002697436
0.002667581
0.0026399243
0.0026128197
0.0025809427
0.0025435157
0.002505811
0.0024705094
0.0024367057
0.0023984035
0.0023547865
0.002311647
0.0022732683
0.0022361294
0.002194635
0.0021511001
0.0021099628
0.0020713565
0.0020305047
0.0019863446
0.0019442058
0.001904333
0.0018627633
0.0018190782
0.0017779047
0.0017374048
0.0016936305
0.0016496743
0.0016075234
0.0015640762
0.001518105
0.0014745947
0.0014311138
0.0013838779
0.0013383735
0.0012935905
0.0012450326
0.0011974796
0.0011508007
0.001100894
0.0010520466
0.0010035234
0.00095162459
0.00090062709
0.00084958855
0.00079663075
0.00074404305
0.0006901738
0.00063638533
0.0005821633
0.00052648475
0.00047208751
0.00041694801
0.0003645076
0.00030962568
0.00027662401
0.00016695871
0.00037024123
-0.00030723969
0.0076952089
0.007177653
0.0065065074
0.0060541504
0.0057966447
0.0055663549
0.0053445624
0.0051485381
0.0049793566
0.0048314343
0.0046941954
0.0045651786
0.0044373262
0.0043103445
0.0041859775
0.0040652718
0.0039502509
0.0038410939
0.0037381094
0.0036366092
0.0035346586
0.0034398844
0.0033558391
0.0032819419
0.0032195366
0.0031635839
0.0031089995
0.0030603238
0.003019947
0.0029864832
0.0029585586
0.0029373972
0.0029197884
0.0028979912
0.0028733558
0.0028496727
0.0028274574
0.0028064401
0.0027890313
0.0027675237
0.0027368633
0.0027045005
0.0026743678
0.0026465271
0.0026193577
0.002587237
0.0025492057
0.0025109151
0.0024753938
0.0024415449
0.0024031051
0.0023593067
0.0023160438
0.0022776083
0.0022403158
0.0021984913
0.0021547054
0.0021134727
0.0020748058
0.002033854
0.0019895824
0.001947374
0.001907428
0.0018657573
0.0018219654
0.0017807084
0.001740107
0.0016962184
0.0016521685
0.0016099352
0.0015663928
0.001520326
0.0014767439
0.0014331803
0.0013858547
0.0013402822
0.0012954252
0.0012467868
0.0011991713
0.001152427
0.0011024494
0.0010535446
0.0010049614
0.00095300062
0.00090195213
0.00085086103
0.00079785085
0.00074521497
0.00069129708
0.00063746502
0.0005832
0.00052747938
0.00047304353
0.00041786424
0.00036538992
0.00031047109
0.00027741089
0.00016975413
0.00037724503
-0.00030234376
0.0074888668
0.0070592689
0.0064670461
0.006044605
0.0057957617
0.0055805287
0.0053628212
0.0051671431
0.0049954287
0.0048427057
0.0047003926
0.0045670404
0.0044369377
0.0043089025
0.0041853178
0.004066128
0.0039519381
0.00384353
0.003741284
0.0036413848
0.0035415344
0.003447865
0.0033641615
0.003290156
0.0032264427
0.0031693776
0.0031151426
0.0030666958
0.0030258767
0.0029918143
0.0029632324
0.0029408446
0.0029212726
0.0028985877
0.0028740873
0.0028509898
0.0028296642
0.0028092864
0.0027925494
0.0027719625
0.002741868
0.0027101675
0.0026801277
0.0026517227
0.002624212
0.0025918391
0.0025535244
0.0025151876
0.0024797653
0.002446049
0.002407567
0.0023635584
0.0023201307
0.0022816606
0.0022442697
0.0022021442
0.0021581254
0.0021168139
0.0020781125
0.0020370857
0.0019927216
0.0019504817
0.0019105032
0.001868755
0.0018248558
0.0017834597
0.0017427092
0.0016987216
0.0016546058
0.0016123187
0.0015687026
0.0015225568
0.0014789244
0.0014352879
0.0013878693
0.0013422343
0.0012973078
0.0012485886
0.0012009141
0.001154107
0.0011040589
0.0010551003
0.0010064584
0.00095443333
0.00090333352
0.00085218884
0.0007991251
0.00074644087
0.00069247296
0.0006385963
0.00058428677
0.00052852221
0.0004740463
0.00041882547
0.00036631425
0.00031136174
0.00027822713
0.00017295489
0.00038510656
-0.00029696308
0.0072978611
0.0069408157
0.0064308156
0.0060385741
0.0057883415
0.0055738601
0.0053572406
0.005161365
0.0049902351
0.0048379613
0.0046971579
0.0045651777
0.0044370761
0.0043114943
0.004190018
0.0040723881
0.0039591574
0.0038513615
0.0037492176
0.0036496621
0.0035507531
0.0034575264
0.0033737906
0.0032995521
0.0032350809
0.0031774549
0.0031232855
0.0030746059
0.0030330875
0.0029981683
0.0029686802
0.0029449472
0.0029237955
0.0029007012
0.0028762005
0.0028528761
0.0028311401
0.0028104043
0.0027926301
0.0027713899
0.0027415637
0.0027104742
0.002680931
0.0026529891
0.0026263623
0.0025948673
0.0025571335
0.0025193648
0.0024837747
0.0024495633
0.0024109015
0.0023667587
0.0023233533
0.0022850672
0.0022477842
0.0022056142
0.0021614955
0.0021200834
0.0020813457
0.0020402756
0.001995826
0.0019535447
0.0019135147
0.0018716738
0.0018276658
0.0017861442
0.0017452709
0.0017011994
0.001657031
0.0016147098
0.0015710432
0.0015248384
0.0014811782
0.0014374441
0.0013898864
0.0013441919
0.0012992142
0.001250427
0.0012027083
0.0011558513
0.0011057365
0.0010567243
0.001008025
0.00095593535
0.00090478591
0.0008535884
0.00080047155
0.00074774015
0.00069372146
0.0006397991
0.00058544333
0.00052963289
0.00047511584
0.00041985203
0.00036730069
0.00031231729
0.00027908233
0.00017644868
0.00039330897
-0.00029107104
0.0071232115
0.0068245716
0.0063861507
0.0060223279
0.005772691
0.0055620507
0.0053533706
0.0051619794
0.004993793
0.0048426848
0.0047026402
0.0045702412
0.004442387
0.0043173171
0.004196023
0.0040784617
0.0039653461
0.0038575805
0.0037552213
0.0036558993
0.0035580333
0.0034656016
0.0033821793
0.0033079908
0.0032430361
0.003184919
0.0031306569
0.00308167
0.0030395997
0.003004088
0.0029740036
0.0029493399
0.0029273518
0.0029040444
0.002879419
0.0028556956
0.0028334673
0.0028122054
0.0027932323
0.002771349
0.002741824
0.0027108046
0.0026811271
0.0026530548
0.0026260324
0.0025944114
0.0025570744
0.0025199822
0.0024847836
0.0024509967
0.0024130327
0.0023694537
0.0023266317
0.0022884318
0.0022506491
0.0022081446
0.0021639788
0.0021226659
0.0020841181
0.0020431284
0.0019986624
0.0019563371
0.0019162331
0.001874329
0.0018302804
0.0017887435
0.0017478134
0.0017036433
0.0016594211
0.0016170708
0.0015733567
0.0015270881
0.0014834012
0.001439568
0.0013918807
0.001346147
0.0013011316
0.0012522855
0.0012045394
0.0011576494
0.0011074511
0.0010583574
0.0010096007
0.00095745724
0.00090627059
0.00085503023
0.0008018651
0.00074908647
0.00069501696
0.00064105061
0.00058664954
0.00053079355
0.00047623645
0.0004209298
0.00036833592
0.0003133253
0.00027996423
0.00018016773
0.00040145795
-0.00028459377
0.006963193
0.0067106218
0.0063336684
0.005999917
0.0057557449
0.0055503568
0.0053492821
0.0051614141
0.0049941684
0.0048432607
0.0047031518
0.0045703392
0.0044428985
0.0043189966
0.0041987018
0.0040820958
0.0039699253
0.0038628809
0.0037609515
0.0036623363
0.003565743
0.0034742738
0.0033912246
0.0033170483
0.0032516025
0.0031929283
0.0031384657
0.0030891882
0.0030466152
0.0030104977
0.0029797422
0.0029541022
0.0029311936
0.0029074003
0.0028824376
0.002858298
0.0028356772
0.0028140569
0.0027943461
0.0027721211
0.0027429498
0.002712007
0.002682183
0.0026537574
0.0026260646
0.0025941759
0.0025570436
0.0025200184
0.0024847503
0.0024506787
0.0024127132
0.0023696442
0.0023276022
0.0022898955
0.0022522801
0.0022099867
0.0021662463
0.0021254327
0.0020868625
0.0020453082
0.0020006187
0.0019583655
0.0019184047
0.0018766155
0.0018326115
0.0017911225
0.0017501239
0.0017058785
0.0016616806
0.0016193369
0.0015755538
0.0015291947
0.0014854907
0.0014416098
0.0013938564
0.0013481031
0.0013030441
0.001254133
0.0012063659
0.0011594461
0.0011091587
0.0010599901
0.0010111877
0.0009589989
0.00090778531
0.00085651288
0.00080329068
0.00075044381
0.00069632041
0.00064231992
0.00058788248
0.00053198664
0.00047739075
0.00042204002
0.00036940315
0.00031437105
0.00028086171
0.00018406373
0.00040922227
-0.00027747807
0.0068160671
0.0066000794
0.0062758534
0.005972591
0.0057366468
0.0055362001
0.005341826
0.0051579623
0.0049924992
0.0048428577
0.0047037527
0.0045718178
0.0044451884
0.0043224719
0.0042031183
0.0040874076
0.0039759997
0.0038694532
0.0037677737
0.0036696149
0.0035739459
0.003483197
0.0034003621
0.0033260792
0.0032601344
0.0032009065
0.0031462105
0.0030966577
0.0030535883
0.0030168427
0.0029853937
0.0029588158
0.0029350043
0.0029107067
0.0028854556
0.0028609818
0.0028379974
0.0028160066
0.0027955752
0.0027729113
0.002743964
0.0027130539
0.002683132
0.0026544938
0.0026264168
0.0025945192
0.0025577117
0.0025207485
0.0024853213
0.0024507824
0.0024126611
0.0023698445
0.002327973
0.0022899731
0.0022520609
0.0022099476
0.0021668301
0.0021268195
0.002088563
0.0020468083
0.0020023059
0.0019604623
0.0019207783
0.0018786639
0.0018342257
0.0017927761
0.0017518785
0.0017077424
0.0016636624
0.0016213849
0.001577523
0.001531101
0.0014874625
0.0014435762
0.0013957459
0.0013499692
0.0013048829
0.0012559136
0.0012081281
0.0011611714
0.0011108167
0.0010616242
0.0010127937
0.00096055326
0.00090931042
0.00085800745
0.00080472659
0.00075181326
0.00069764128
0.00064361497
0.00058914898
0.00053321412
0.00047856347
0.00042315774
0.00037048288
0.00031544175
0.0002817681
0.00018809396
0.00041628935
-0.00026968541
0.0066800847
0.0064935346
0.0062141843
0.0059403865
0.005714625
0.005519514
0.0053318573
0.0051529782
0.004990114
0.0048420522
0.0047040393
0.0045728413
0.0044468327
0.0043248598
0.0042063489
0.0040915404
0.003980941
0.0038750054
0.0037737511
0.0036761712
0.003581462
0.0034915346
0.0034090572
0.0033347943
0.0032685117
0.0032088526
0.0031539617
0.0031041746
0.0030606446
0.003023291
0.0029911611
0.0029636888
0.0029389953
0.0029141724
0.0028886141
0.0028637834
0.0028403905
0.0028179852
0.0027968532
0.0027737413
0.0027449823
0.0027141387
0.0026841402
0.0026553012
0.0026268495
0.0025949089
0.0025583645
0.0025214442
0.0024859018
0.0024511107
0.0024130694
0.0023705917
0.0023288145
0.0022904785
0.0022522461
0.0022102237
0.0021672932
0.0021272135
0.002088507
0.0020466446
0.0020027088
0.0019616209
0.0019225033
0.0018801879
0.0018356117
0.0017944627
0.0017538625
0.0017095054
0.0016650312
0.0016227721
0.0015789922
0.0015326895
0.0014892029
0.0014453464
0.0013974238
0.001351673
0.0013066324
0.0012576186
0.001209804
0.001162815
0.0011124144
0.001063218
0.0010143615
0.00096206489
0.00091079749
0.00085946595
0.00080614159
0.00075319356
0.00069898609
0.00064493274
0.00059043472
0.00053445843
0.00047975198
0.00042429463
0.00037158414
0.0003165465
0.00028268778
0.0001922095
0.0004223317
-0.00026117586
0.0065538014
0.0063912631
0.0061498866
0.0059037786
0.0056897295
0.0055007057
0.0053197807
0.0051463414
0.0049864681
0.0048400985
0.0047032849
0.0045730201
0.0044478613
0.0043268593
0.0042094643
0.0040957613
0.0039861146
0.0038809035
0.0037801681
0.00368318
0.0035893492
0.0035001976
0.0034180721
0.0033438176
0.0032772187
0.0032171324
0.00316199
0.0031119259
0.0030679089
0.003029917
0.0029970714
0.0029687028
0.0029431208
0.0029177337
0.0028918334
0.0028666314
0.0028428211
0.0028199968
0.0027982129
0.0027746655
0.002746053
0.0027152775
0.0026851858
0.0026561285
0.0026273084
0.0025953024
0.0025589937
0.0025221272
0.0024864906
0.002451482
0.0024134823
0.0023713198
0.0023296344
0.0022910986
0.0022527687
0.0022109509
0.0021681388
0.0021278727
0.0020887723
0.002046908
0.0020032046
0.0019620895
0.001922617
0.0018800594
0.0018359684
0.0017955483
0.001755467
0.0017109288
0.0016662519
0.0016242018
0.0015806404
0.00153418
0.0014904159
0.0014465544
0.0013986821
0.0013531143
0.0013081705
0.0012591265
0.001211309
0.0011643544
0.001113947
0.0010647384
0.0010158503
0.00096351485
0.00091223999
0.00086087979
0.0008075157
0.00075454846
0.00070031438
0.00064623328
0.00059170042
0.00053568814
0.00048094957
0.00042545785
0.0003727067
0.00031767618
0.00028360926
0.00019636011
0.00042704496
-0.00025188705
0.0064360292
0.0062933096
0.0060839746
0.0058633752
0.0056620313
0.0054798397
0.005305603
0.00513784
0.0049813834
0.0048370187
0.0047016898
0.0045726544
0.0044485765
0.0043286638
0.0042124046
0.0040997702
0.0039910348
0.0038865317
0.0037863334
0.0036899383
0.0035969402
0.0035085607
0.0034268341
0.0033526377
0.0032857954
0.0032253387
0.0031699451
0.0031196079
0.0030751222
0.0030365052
0.0030029524
0.0029737255
0.0029472909
0.0029213397
0.0028950931
0.00286953
0.0028453069
0.002822058
0.0027996538
0.002775667
0.0027471455
0.0027164278
0.0026862326
0.0026569561
0.0026277932
0.0025957181
0.0025596314
0.0025228314
0.0024871052
0.0024518855
0.0024139094
0.0023720419
0.0023304542
0.0022917482
0.0022533081
0.0022116563
0.0021689575
0.0021285606
0.0020893185
0.0020475926
0.0020040329
0.0019627431
0.0019229139
0.001880322
0.0018364772
0.0017959598
0.0017555144
0.0017108932
0.0016667187
0.0016253384
0.0015820939
0.0015354809
0.0014915687
0.0014478227
0.0014000398
0.001354371
0.001309208
0.0012601727
0.0012125125
0.0011656858
0.0011152925
0.0010660838
0.0010172117
0.00096489271
0.000913621
0.00086222464
0.00080883705
0.00075586465
0.00070160297
0.00064749643
0.00059293659
0.00053689572
0.00048213337
0.00042661302
0.00037382067
0.00031879995
0.000284508
0.00020048765
0.00043010024
-0.00024184507
0.0063257574
0.0061995673
0.0060172516
0.005819797
0.0056316378
0.0054569485
0.0052894135
0.005127493
0.004974874
0.0048328592
0.0046992604
0.0045716586
0.0044488079
0.0043300509
0.0042149475
0.0041034137
0.0039956544
0.0038919563
0.0037924132
0.0036966959
0.0036045464
0.003516955
0.003435668
0.0033615628
0.0032945189
0.0032337195
0.0031780561
0.0031274294
0.0030824767
0.0030432368
0.0030089766
0.0029789146
0.0029516461
0.0029251126
0.0028984919
0.002872551
0.0028478954
0.0028241968
0.002801186
0.0027767525
0.0027482722
0.0027176049
0.0026873046
0.0026578117
0.0026283276
0.0025961744
0.0025602872
0.002523555
0.0024877384
0.0024523188
0.0024143619
0.0023727763
0.0023312949
0.0022924296
0.00225387
0.0022123664
0.0021697821
0.0021292762
0.0020899005
0.0020482574
0.0020048249
0.0019634185
0.0019234436
0.0018809914
0.001837266
0.0017964765
0.001755715
0.001711178
0.0016671597
0.0016256534
0.0015821036
0.0015356483
0.0014922925
0.0014489819
0.0014013364
0.0013555396
0.0013102352
0.0012612956
0.0012136942
0.0011666943
0.0011162009
0.0010671092
0.0010183701
0.00096609274
0.00091483466
0.00086344287
0.00081009155
0.00075712479
0.00070282277
0.00064870973
0.00059414074
0.00053807167
0.00048328551
0.00042774166
0.00037491255
0.00031990794
0.00028537183
0.00020452858
0.0004311482
-0.00023120278
0.0062221191
0.0061098488
0.0059503396
0.0057736463
0.0055987245
0.005432087
0.0052713179
0.0051153389
0.0049669027
0.0048275626
0.0046959198
0.004569941
0.0044484809
0.0043309932
0.0042171219
0.0041067605
0.0040000518
0.0038972352
0.00379842
0.0037034134
0.0036120825
0.0035252478
0.0034444037
0.0033704053
0.0033031943
0.0032420871
0.0031861563
0.003135243
0.0030898421
0.003049997
0.0030150401
0.0029841682
0.0029560854
0.0029289551
0.0029019355
0.0028756045
0.0028505068
0.0028263482
0.002802756
0.0027778843
0.0027494106
0.0027187908
0.0026883885
0.0026586832
0.002628897
0.0025966588
0.0025609499
0.002524288
0.002488385
0.0024527803
0.0024148385
0.0023735171
0.0023321434
0.0022931283
0.0022544504
0.0022130858
0.0021706197
0.0021300156
0.0020905006
0.0020489235
0.0020056219
0.0019641244
0.0019240145
0.0018816581
0.0018380193
0.001797028
0.0017561743
0.0017118275
0.0016678036
0.0016260212
0.0015822809
0.0015360025
0.0014926253
0.0014490822
0.0014014903
0.0013560262
0.0013111392
0.0012624308
0.0012148535
0.0011676713
0.0011171333
0.0010681809
0.0010193475
0.00096690417
0.00091573259
0.0008644707
0.00081118358
0.00075822748
0.00070391902
0.00064985832
0.00059529348
0.00053918828
0.00048439351
0.00042883647
0.00037596972
0.00032099047
0.00028619045
0.00020842812
0.00042997912
-0.00022010249
0.0061243704
0.0060239259
0.0058837058
0.0057254813
0.0055635177
0.005405324
0.0052514073
0.0051014206
0.0049574395
0.0048210851
0.004691632
0.0045674679
0.0044475674
0.0043314732
0.0042189126
0.0041097813
0.0040041765
0.0039022986
0.0038042722
0.0037100143
0.0036194964
0.0035334144
0.0034530439
0.0033791985
0.0033118781
0.003250515
0.0031943332
0.0031431387
0.0030973024
0.0030568614
0.0030212094
0.0029895412
0.0029606558
0.0029329131
0.0029054699
0.0028787374
0.0028531914
0.0028285658
0.0028044139
0.0027791105
0.002750607
0.0027200228
0.0026895152
0.002659596
0.0026295203
0.002597188
0.0025616342
0.0025250408
0.0024890536
0.0024532746
0.0024153412
0.002374265
0.0023330005
0.0022938482
0.0022550561
0.0022138201
0.0021714715
0.0021307768
0.0020911252
0.0020496097
0.0020064398
0.0019648601
0.001924608
0.0018823244
0.0018387729
0.0017976136
0.0017566702
0.0017124758
0.0016684299
0.0016264597
0.0015827563
0.001536636
0.0014930536
0.0014492793
0.0014017836
0.0013563027
0.0013112855
0.0012625931
0.0012152861
0.0011684297
0.0011181001
0.0010692901
0.0010202888
0.00096770989
0.00091669669
0.00086538573
0.00081193006
0.00075903452
0.00070483909
0.00065085598
0.00059630034
0.00054019506
0.00048544113
0.00042987758
0.0003769696
0.00032203613
0.00028695084
0.00021212686
0.00042657741
-0.00020863907
0.006031871
0.0059415539
0.005817692
0.0056758011
0.0055262757
0.005376748
0.0052297668
0.005085795
0.0049464777
0.0048133968
0.0046863665
0.0045642022
0.0044460221
0.0043314446
0.0042202765
0.0041124361
0.0040079933
0.0039071191
0.0038099509
0.0037164918
0.003626797
0.0035414704
0.0034615998
0.0033879452
0.0033205586
0.0032589752
0.0032025478
0.0031510668
0.0031047991
0.0030637688
0.003027426
0.0029949785
0.0029653089
0.0029369485
0.0029090657
0.0028819254
0.0028559287
0.0028308318
0.0028061384
0.0027804085
0.0027518404
0.0027212758
0.0026906597
0.0026605263
0.0026301734
0.0025977409
0.0025623218
0.0025257964
0.0024897298
0.0024537892
0.0024158615
0.0023750152
0.0023338637
0.0022945889
0.0022556872
0.0022145689
0.0021723362
0.0021315596
0.0020917764
0.0020503153
0.002007271
0.0019656146
0.0019252214
0.0018830036
0.0018395438
0.001798229
0.0017571824
0.0017131173
0.0016690583
0.0016269308
0.0015832611
0.0015372653
0.0014935124
0.0014496649
0.0014023298
0.001356724
0.001311516
0.0012628573
0.0012155273
0.0011685682
0.0011182863
0.001069736
0.0010209579
0.00096856504
0.0009177317
0.0008662583
0.00081265797
0.000759901
0.0007056632
0.00065154477
0.00059704465
0.00054104304
0.0004863477
0.00043078651
0.00037787484
0.00032302493
0.00028762795
0.00021556301
0.00042108624
-0.00019688429
0.0059440674
0.0058624857
0.0057525411
0.0056250398
0.0054872726
0.005346469
0.0052064811
0.0050685275
0.0049340269
0.0048044738
0.0046800925
0.0045601064
0.0044438007
0.0043308655
0.00422118
0.0041146986
0.0040114809
0.0039116766
0.0038154336
0.0037228215
0.0036339625
0.0035493927
0.0034700429
0.0033966141
0.003329203
0.003267437
0.0032107787
0.0031590162
0.0031123307
0.0030707283
0.003033709
0.0030005043
0.0029700717
0.0029410911
0.0029127521
0.0028851935
0.0028587399
0.0028331643
0.0028079412
0.0027817871
0.0027531209
0.002722558
0.0026918303
0.0026614838
0.0026308661
0.0025983289
0.0025630261
0.0025265679
0.0024904277
0.0024543375
0.0024164126
0.0023757806
0.0023347435
0.0022953582
0.0022563497
0.0022153364
0.0021732164
0.0021323657
0.0020924549
0.0020510395
0.002008114
0.0019663886
0.001925859
0.0018836992
0.0018403281
0.0017988654
0.0017577116
0.0017137682
0.0016697082
0.0016274306
0.0015837751
0.0015378879
0.0014939876
0.0014500749
0.0014028926
0.0013571743
0.001311871
0.0012633306
0.0012159122
0.0011688004
0.0011185537
0.0010699405
0.0010210503
0.00096878522
0.00091821896
0.00086687586
0.00081345544
0.0007608512
0.00070644269
0.00065221646
0.0005978258
0.00054178096
0.00048697963
0.00043147597
0.00037863635
0.00032387964
0.00028816446
0.00021869026
0.00041370025
-0.00018488932
0.00586048
0.0057864819
0.0056884197
0.0055735672
0.0054467838
0.0053146164
0.0051816373
0.0050496889
0.0049201103
0.0047943014
0.0046727829
0.0045551478
0.0044408646
0.0043296972
0.0042215898
0.0041165404
0.004014612
0.0039159426
0.0038206889
0.0037289724
0.0036409675
0.0035571617
0.0034783559
0.0034051911
0.0033377996
0.0032758913
0.003219022
0.0031669864
0.0031198965
0.0030777379
0.0030400548
0.0030061103
0.0029749307
0.0029453254
0.002916512
0.0028885226
0.0028616058
0.002835546
0.0028098049
0.002783232
0.0027544403
0.0027238625
0.0026930225
0.0026624663
0.0026315963
0.0025989516
0.002563747
0.0025273537
0.002491145
0.0024549155
0.0024169901
0.0023765558
0.0023356326
0.0022961482
0.002257036
0.0022161164
0.0021741058
0.0021331896
0.0020931562
0.0020517792
0.0020089674
0.0019671815
0.0019265209
0.0018844104
0.001841124
0.0017995234
0.0017582621
0.001714432
0.0016703758
0.001627951
0.0015843007
0.0015385209
0.0014944877
0.0014505029
0.0014034543
0.0013576316
0.0013122418
0.0012638281
0.0012163313
0.001169139
0.0011189895
0.0010702617
0.0010212477
0.00096903758
0.00091840591
0.00086696466
0.000813729
0.00076137188
0.00070703067
0.00065297703
0.00059867612
0.00054247723
0.00048760486
0.00043216676
0.00037925145
0.00032449807
0.00028851145
0.00022147997
0.00040454375
-0.0001726425
0.0057806918
0.0057133155
0.005625437
0.0055216917
0.0054050754
0.0052813347
0.0051553276
0.0050293539
0.004904763
0.0047828751
0.0046644159
0.0045492975
0.0044371788
0.0043279024
0.0042214715
0.0041179307
0.0040173581
0.0039198883
0.0038256873
0.0037349161
0.0036477902
0.0035647609
0.0034865236
0.0034136608
0.0033463325
0.0032843208
0.003227262
0.0031749632
0.0031274822
0.0030847838
0.0030464514
0.0030117856
0.0029798765
0.0029496463
0.0029203449
0.0028919153
0.0028645324
0.0028379869
0.0028117396
0.0027847536
0.0027558121
0.0027252014
0.0026942465
0.0026634824
0.0026323699
0.0025996133
0.002564488
0.0025281548
0.0024918823
0.0024555222
0.0024175929
0.0023773409
0.0023365307
0.002296959
0.0022577475
0.0022169115
0.0021750076
0.0021340346
0.0020938843
0.002052539
0.0020098352
0.0019679969
0.00192721
0.0018851397
0.001841934
0.0018002056
0.0017588364
0.001715109
0.0016710594
0.0016284927
0.0015848417
0.0015391654
0.0014950079
0.0014509458
0.0014040225
0.0013581071
0.0013126309
0.0012643287
0.001216755
0.0011694879
0.0011194492
0.0010706271
0.001021556
0.0009694329
0.00091868057
0.0008671574
0.00081394535
0.00076152139
0.00070715128
0.00065332824
0.00059919695
0.00054306925
0.0004883207
0.00043288754
0.00037982716
0.0003251348
0.00028879648
0.00022391364
0.00039372627
-0.00016001849
0.0057043397
0.0056427752
0.0055636585
0.005469667
0.0053623964
0.0052467785
0.0051276507
0.0050076003
0.0048880294
0.0047702006
0.0046549758
0.0045425306
0.0044327115
0.0043254456
0.0042207909
0.0041188386
0.0040196904
0.0039234855
0.0038303995
0.0037406243
0.0036544065
0.0035721708
0.0034945273
0.0034220044
0.0033547823
0.0032927063
0.0032354825
0.0031829339
0.003135077
0.003091858
0.0030528939
0.0030175264
0.002984906
0.0029540532
0.0029242523
0.0028953732
0.0028675208
0.0028404879
0.0028137431
0.002786348
0.0027572335
0.0027265702
0.0026954962
0.0026645259
0.0026331796
0.0026003076
0.0025652446
0.0025289668
0.002492636
0.002456155
0.00241822
0.0023781361
0.0023374384
0.0022977914
0.0022584859
0.0022177242
0.0021759233
0.0021349015
0.00209464
0.0020533197
0.0020107175
0.0019688336
0.0019279252
0.0018858865
0.0018427569
0.0018009102
0.0017594328
0.0017157975
0.0016717578
0.0016290556
0.001585398
0.0015398197
0.0014955464
0.0014514047
0.0014045989
0.0013585998
0.0013130354
0.0012648361
0.0012171936
0.0011698531
0.0011199138
0.0010709988
0.0010218724
0.0009698501
0.00091901024
0.00086746308
0.00081427759
0.00076174536
0.00070735173
0.00065349507
0.00059928182
0.00054327256
0.00048873857
0.00043338557
0.00038037714
0.000325838
0.00028903269
0.00022613109
0.00038184829
-0.00014694441
0.0056311062
0.005574666
0.005503118
0.0054176986
0.0053189743
0.0052111068
0.0050987115
0.0049845093
0.0048699613
0.0047562933
0.0046444536
0.0045348268
0.004427435
0.0043222943
0.004219515
0.0041192333
0.0040215796
0.0039267049
0.0038347957
0.0037460677
0.0036607911
0.0035793703
0.0035023478
0.003430203
0.0033631301
0.0033010295
0.0032436675
0.0031908858
0.0031426705
0.0030989512
0.003059375
0.003023326
0.0029900124
0.0029585408
0.0029282306
0.0028988929
0.002870568
0.0028430468
0.0028158126
0.0027880125
0.002758705
0.0027279699
0.0026967729
0.0026655995
0.0026340275
0.0026010378
0.0025660222
0.0025297946
0.0024934106
0.0024568179
0.0024188755
0.002378946
0.0023383585
0.002298647
0.0022592525
0.0022185554
0.0021768529
0.0021357897
0.0020954224
0.0020541204
0.0020116134
0.0019696903
0.0019286656
0.0018866503
0.0018435923
0.0018016368
0.0017600518
0.0017164983
0.0016724714
0.0016296406
0.0015859708
0.0015404844
0.0014961042
0.0014518815
0.0014051847
0.0013591095
0.0013134562
0.0012653523
0.0012176479
0.0011702332
0.0011203857
0.0010713843
0.0010222019
0.00097027243
0.0009193462
0.00086778475
0.00081463405
0.00076202919
0.00070766235
0.00065374248
0.00059944906
0.00054345328
0.00048885877
0.00043348552
0.00038063247
0.0003262905
0.00028910957
0.00022814818
0.00036967774
-0.00013393104
0.0055607137
0.0055088097
0.0054438262
0.0053659511
0.0052750129
0.0051744785
0.00506862
0.0049601653
0.0048506168
0.0047411779
0.0046328476
0.0045261704
0.0044213254
0.0043184188
0.0042176122
0.004119084
0.0040229964
0.0039295174
0.0038388459
0.0037512168
0.0036669176
0.0035863375
0.0035099648
0.0034382367
0.0033713564
0.0033092712
0.0032518003
0.003198805
0.0031502504
0.0031060528
0.0030658858
0.0030291764
0.0029951882
0.0029631033
0.0029322766
0.0029024727
0.0028736729
0.0028456641
0.0028179479
0.0027897467
0.0027602286
0.0027294032
0.0026980785
0.0026667048
0.0026349142
0.0026018046
0.0025668217
0.0025306378
0.0024942044
0.0024575089
0.0024195576
0.0023797688
0.0023392883
0.0022995228
0.0022600445
0.0022194034
0.0021777947
0.0021366972
0.0020962302
0.0020549409
0.0020125227
0.0019705668
0.0019294316
0.0018874326
0.0018444413
0.0018023861
0.0017606948
0.0017172132
0.0016732013
0.0016302484
0.001586561
0.0015411605
0.0014966819
0.0014523768
0.00140578
0.0013596361
0.0013138938
0.0012658777
0.001218117
0.0011706276
0.0011208653
0.001071784
0.001022544
0.00097070168
0.00091969504
0.00086811574
0.00081499342
0.00076231866
0.00070799538
0.00065402882
0.0005996949
0.00054372764
0.00048903923
0.00043362996
0.00038070748
0.00032638669
0.00028884692
0.00022975044
0.00035769379
-0.00012176817
0.0054929178
0.0054450441
0.0053857769
0.0053145542
0.0052306914
0.0051370478
0.00503749
0.0049346556
0.0048300591
0.0047248866
0.0046201637
0.0045165511
0.0044143628
0.0043137927
0.0042150527
0.0041183607
0.0040239114
0.0039318935
0.0038425201
0.003756042
0.0036727593
0.0035930491
0.0035173573
0.0034460849
0.0033794405
0.0033174113
0.0032598628
0.0032066763
0.0031578039
0.0031131515
0.0030724168
0.0030350694
0.0030004257
0.0029677352
0.0029363871
0.0029061104
0.0028768343
0.0028483392
0.0028201478
0.0027915491
0.0027618049
0.0027308705
0.0026994129
0.0026678413
0.0026358385
0.0026026072
0.0025676431
0.0025314964