/*--------------------------------*- C++ -*----------------------------------*\
  =========                 |
  \\      /  F ield         | OpenFOAM: The Open Source CFD Toolbox
   \\    /   O peration     | Website:  https://openfoam.org
    \\  /    A nd           | Version:  12
     \\/     M anipulation  |
\*---------------------------------------------------------------------------*/
FoamFile
{
    format      ascii;
    class       volVectorField;
    location    "100";
    object      U;
}
// * * * * * * * * * * * * * * * * * * * * * * * * * * * * * * * * * * * * * //

dimensions      [0 1 -1 0 0 0 0];

internalField   nonuniform List<vector> 
7480
(
(0.98220626 0.00076199323 0)
(0.96968539 0.0014069184 0)
(0.95645238 0.0017655753 0)
(0.94234702 0.0020841411 0)
(0.9283757 0.0024877278 0)
(0.91490018 0.0027375 0)
(0.90194354 0.0027662318 0)
(0.88949341 0.0027008199 0)
(0.87745714 0.0025915904 0)
(0.86573975 0.0024403408 0)
(0.85414015 0.0022647151 0)
(0.84256987 0.0020999833 0)
(0.83099661 0.0019465458 0)
(0.8194252 0.0018024372 0)
(0.80787913 0.0016662741 0)
(0.79640056 0.0015357873 0)
(0.78506238 0.0014040102 0)
(0.77401491 0.0012733304 0)
(0.76313881 0.0011565033 0)
(0.75260857 0.0010458897 0)
(0.74248922 0.00093971838 0)
(0.73283581 0.0008381746 0)
(0.72370435 0.00074180641 0)
(0.715143 0.00065149548 0)
(0.70719449 0.00056653866 0)
(0.69989866 0.000487098 0)
(0.69326741 0.00041483146 0)
(0.68728647 0.00034955294 0)
(0.68192919 0.00029118477 0)
(0.67715939 0.00024066824 0)
(0.67293025 0.00019786522 0)
(0.6691916 0.00016160465 0)
(0.66590407 0.0001307956 0)
(0.66302451 0.00010536272 0)
(0.6604962 8.4468237e-05 0)
(0.65825681 6.8124007e-05 0)
(0.65624414 5.6635401e-05 0)
(0.65440109 4.9135523e-05 0)
(0.65269147 4.3645911e-05 0)
(0.65108845 4.0206385e-05 0)
(0.64955667 3.9262374e-05 0)
(0.64805963 4.0010918e-05 0)
(0.64656972 4.1963634e-05 0)
(0.64506744 4.4600991e-05 0)
(0.64354332 4.7350174e-05 0)
(0.64199054 5.0347376e-05 0)
(0.64039897 5.4110487e-05 0)
(0.63874677 5.8498093e-05 0)
(0.63701778 6.2775728e-05 0)
(0.63521131 6.6415319e-05 0)
(0.63333428 6.9526648e-05 0)
(0.63139021 7.221526e-05 0)
(0.62938203 7.4260376e-05 0)
(0.62732202 7.5266108e-05 0)
(0.62523089 7.5234579e-05 0)
(0.62312412 7.4637642e-05 0)
(0.62100641 7.3713442e-05 0)
(0.61887893 7.2505838e-05 0)
(0.61674853 7.0955605e-05 0)
(0.61462311 6.9271341e-05 0)
(0.61250329 6.7663925e-05 0)
(0.61039 6.588696e-05 0)
(0.60829127 6.3838174e-05 0)
(0.60621477 6.1709431e-05 0)
(0.60416009 5.9689018e-05 0)
(0.60212764 5.756423e-05 0)
(0.60012207 5.5394179e-05 0)
(0.59814113 5.3476741e-05 0)
(0.59617795 5.173034e-05 0)
(0.59423192 4.997145e-05 0)
(0.5923063 4.82508e-05 0)
(0.59039879 4.669238e-05 0)
(0.58850937 4.5041449e-05 0)
(0.58664452 4.3335448e-05 0)
(0.58480236 4.1839027e-05 0)
(0.58297814 4.0367997e-05 0)
(0.58117401 3.8895948e-05 0)
(0.57938757 3.7617679e-05 0)
(0.57761543 3.634314e-05 0)
(0.57586196 3.5011551e-05 0)
(0.57412773 3.3802686e-05 0)
(0.57241071 3.2593027e-05 0)
(0.57071321 3.1386075e-05 0)
(0.56903241 3.0331373e-05 0)
(0.56736513 2.9286493e-05 0)
(0.56571364 2.8244955e-05 0)
(0.56407823 2.7260584e-05 0)
(0.56245919 2.6276678e-05 0)
(0.5608556 2.536591e-05 0)
(0.55926564 2.4483767e-05 0)
(0.55768983 2.3626905e-05 0)
(0.55612683 2.2827744e-05 0)
(0.5545773 2.2027363e-05 0)
(0.55303928 2.1288864e-05 0)
(0.55151522 2.0600178e-05 0)
(0.5499841 1.9961532e-05 0)
(0.54851467 1.8928467e-05 0)
(0.54691115 5.0182841e-05 0)
(0.54551369 9.4082517e-05 0)
(0.54339916 9.0519433e-05 0)
(0.99618563 0.0027482875 0)
(0.99708065 0.0038382861 0)
(0.99770029 0.0042197104 0)
(0.99794149 0.0041324542 0)
(0.99736495 0.0039176707 0)
(0.99592198 0.0035803941 0)
(0.99368367 0.0032660718 0)
(0.99069965 0.0030096737 0)
(0.98706321 0.0028082066 0)
(0.9828637 0.0026614342 0)
(0.97827843 0.0025741476 0)
(0.97340116 0.0025234016 0)
(0.96827412 0.0024895923 0)
(0.96290992 0.0024603093 0)
(0.95731123 0.0024288541 0)
(0.95147264 0.0023906593 0)
(0.94538714 0.0023426296 0)
(0.93899023 0.0022849171 0)
(0.93239318 0.0022109292 0)
(0.92548312 0.0021174569 0)
(0.91837829 0.0020084601 0)
(0.91112317 0.001887825 0)
(0.90375328 0.0017583429 0)
(0.89630382 0.0016233331 0)
(0.88882059 0.0014848288 0)
(0.88134482 0.0013470438 0)
(0.87391649 0.0012142027 0)
(0.86657277 0.0010873338 0)
(0.85935349 0.00096789973 0)
(0.85230074 0.00085724769 0)
(0.84545417 0.00075641593 0)
(0.83885189 0.00066427484 0)
(0.83254137 0.00058308677 0)
(0.82647658 0.00051555708 0)
(0.82065476 0.00045843394 0)
(0.81508281 0.0004093708 0)
(0.80976672 0.00036808193 0)
(0.80471035 0.0003341152 0)
(0.79990447 0.00030450369 0)
(0.79533689 0.00027915837 0)
(0.79098781 0.00025943193 0)
(0.78683376 0.0002439466 0)
(0.78285295 0.00023183341 0)
(0.77902769 0.0002219629 0)
(0.7753484 0.00021307325 0)
(0.77180358 0.00020547483 0)
(0.76838377 0.000201224 0)
(0.76501412 0.00019990553 0)
(0.76167748 0.00019876062 0)
(0.75838424 0.00019630961 0)
(0.75514772 0.00019331251 0)
(0.75196995 0.00019036879 0)
(0.74884329 0.00018714768 0)
(0.74576236 0.00018286731 0)
(0.74273218 0.00017764602 0)
(0.73975229 0.00017258409 0)
(0.73680681 0.00016781843 0)
(0.733885 0.00016292658 0)
(0.73098833 0.0001575893 0)
(0.72812456 0.00015219037 0)
(0.72529618 0.0001470949 0)
(0.72250268 0.00014179129 0)
(0.71974798 0.00013615586 0)
(0.71703713 0.00013059413 0)
(0.71436859 0.00012540486 0)
(0.71174021 0.00012017021 0)
(0.70915034 0.00011506127 0)
(0.70659534 0.00011054494 0)
(0.70406978 0.00010634833 0)
(0.70157375 0.00010213052 0)
(0.69911204 9.80379e-05 0)
(0.69668417 9.4294285e-05 0)
(0.69428845 9.0412675e-05 0)
(0.6919302 8.6534162e-05 0)
(0.68960732 8.3135866e-05 0)
(0.68731245 7.9821058e-05 0)
(0.68504623 7.6566238e-05 0)
(0.68280839 7.3697498e-05 0)
(0.68059595 7.0834176e-05 0)
(0.67841224 6.7918625e-05 0)
(0.67625882 6.5274351e-05 0)
(0.67413229 6.2657554e-05 0)
(0.67203293 6.0104345e-05 0)
(0.66995863 5.7853085e-05 0)
(0.66790618 5.5624509e-05 0)
(0.66587745 5.3433602e-05 0)
(0.66387325 5.1367288e-05 0)
(0.66189319 4.9330512e-05 0)
(0.65993564 4.7454504e-05 0)
(0.65799818 4.5643386e-05 0)
(0.65608135 4.3897567e-05 0)
(0.65418418 4.2264374e-05 0)
(0.65230712 4.0652348e-05 0)
(0.65044702 3.9157598e-05 0)
(0.64860836 3.781052e-05 0)
(0.64676207 3.6407754e-05 0)
(0.64499477 3.5151958e-05 0)
(0.64307517 6.9902321e-05 0)
(0.64147943 0.00011837319 0)
(0.63855853 9.9425724e-05 0)
(0.99629741 0.0026114735 0)
(0.99682812 0.0030900153 0)
(0.99744537 0.0030486889 0)
(0.99787904 0.0029395559 0)
(0.99814869 0.0029176151 0)
(0.99847211 0.002947712 0)
(0.99868061 0.0030103234 0)
(0.99876986 0.0030951891 0)
(0.99874542 0.0031645428 0)
(0.99859722 0.0032376089 0)
(0.99831512 0.0032794087 0)
(0.99789176 0.0032962627 0)
(0.99731724 0.0032910768 0)
(0.99657709 0.0032692567 0)
(0.99565592 0.0032314722 0)
(0.99453509 0.003178136 0)
(0.99319206 0.0031110919 0)
(0.99157558 0.0030378984 0)
(0.98970438 0.002965991 0)
(0.98749244 0.002887222 0)
(0.9849021 0.0027946857 0)
(0.98190054 0.0026926505 0)
(0.9784641 0.0025851583 0)
(0.97456982 0.0024720578 0)
(0.97022745 0.0023517126 0)
(0.96532745 0.0022206638 0)
(0.95993918 0.002084061 0)
(0.95413138 0.0019466114 0)
(0.9479516 0.0018106203 0)
(0.94145403 0.0016771166 0)
(0.93470122 0.001547283 0)
(0.92776728 0.0014203463 0)
(0.92073515 0.0012964377 0)
(0.91369667 0.0011817338 0)
(0.9067161 0.0010787698 0)
(0.89984899 0.00098569444 0)
(0.89314335 0.00090149998 0)
(0.88665174 0.00082920033 0)
(0.88032263 0.00076610382 0)
(0.87417492 0.00070980813 0)
(0.86823108 0.0006612639 0)
(0.8625036 0.00061812159 0)
(0.85700564 0.0005796323 0)
(0.85173797 0.00054536588 0)
(0.84668751 0.00051388055 0)
(0.84183968 0.00048592379 0)
(0.83717662 0.0004629335 0)
(0.83268781 0.00044496232 0)
(0.82835949 0.00043001627 0)
(0.82418307 0.00041498195 0)
(0.82015068 0.00040020676 0)
(0.81624617 0.00038658954 0)
(0.81244869 0.00037371573 0)
(0.80874376 0.00036023342 0)
(0.80513186 0.00034630695 0)
(0.8015979 0.00033380751 0)
(0.79811362 0.00032247468 0)
(0.79467809 0.00031112923 0)
(0.79129574 0.00029921291 0)
(0.78797298 0.00028732681 0)
(0.78471031 0.00027607906 0)
(0.78150458 0.0002647724 0)
(0.77835613 0.00025323725 0)
(0.77526654 0.00024205327 0)
(0.77223252 0.00023165638 0)
(0.7692502 0.00022154838 0)
(0.76631138 0.00021192372 0)
(0.76341363 0.00020324013 0)
(0.76055474 0.00019506522 0)
(0.75773611 0.00018689761 0)
(0.75496246 0.00017895716 0)
(0.75223308 0.00017160931 0)
(0.74954529 0.00016416069 0)
(0.74690354 0.00015683243 0)
(0.74430338 0.00015035452 0)
(0.7417364 0.00014412687 0)
(0.73920378 0.00013805178 0)
(0.73670649 0.00013257149 0)
(0.73424205 0.00012715059 0)
(0.73181322 0.00012170437 0)
(0.7294215 0.00011670877 0)
(0.72706216 0.00011184408 0)
(0.72473426 0.00010715016 0)
(0.72243616 0.00010294032 0)
(0.72016526 9.8807419e-05 0)
(0.71792338 9.4762593e-05 0)
(0.71571137 9.0931445e-05 0)
(0.7135281 8.7199694e-05 0)
(0.71137125 8.3754103e-05 0)
(0.70923836 8.0442215e-05 0)
(0.70713017 7.7253791e-05 0)
(0.70504597 7.4251536e-05 0)
(0.70298596 7.1325673e-05 0)
(0.70094628 6.8586376e-05 0)
(0.69893158 6.6173502e-05 0)
(0.6969117 6.3517743e-05 0)
(0.69497513 6.1412217e-05 0)
(0.69288644 9.2353725e-05 0)
(0.69115446 0.00014028517 0)
(0.68792508 0.00010842946 0)
(0.99644705 0.0023661402 0)
(0.99689553 0.0028575453 0)
(0.99746432 0.0030696409 0)
(0.99789084 0.0031894546 0)
(0.99818316 0.0032941925 0)
(0.99843058 0.0033745322 0)
(0.99865461 0.0033901959 0)
(0.99885047 0.0033764577 0)
(0.99902081 0.0033393078 0)
(0.99916105 0.003286073 0)
(0.99932004 0.0032324348 0)
(0.99945533 0.0031844485 0)
(0.99956794 0.0031432581 0)
(0.99966193 0.0031021809 0)
(0.99973209 0.0030678984 0)
(0.99977475 0.0030366362 0)
(0.99978456 0.0030028601 0)
(0.99975287 0.0029706703 0)
(0.99967159 0.00294148 0)
(0.99953038 0.0029088682 0)
(0.99931025 0.0028652306 0)
(0.99898578 0.0028122299 0)
(0.9985317 0.0027527201 0)
(0.99791902 0.0026879301 0)
(0.99711982 0.0026215572 0)
(0.99606963 0.0025585474 0)
(0.99471422 0.0024948011 0)
(0.99300385 0.0024253312 0)
(0.99089085 0.0023506658 0)
(0.98833048 0.0022732368 0)
(0.98527514 0.0021920259 0)
(0.98170124 0.0021045866 0)
(0.97747924 0.002011526 0)
(0.97263424 0.0019135567 0)
(0.96725832 0.0018104264 0)
(0.96141277 0.001704547 0)
(0.95517575 0.0015974938 0)
(0.94863943 0.0014905929 0)
(0.94194502 0.0013859712 0)
(0.9351885 0.001287703 0)
(0.92844998 0.0011987172 0)
(0.92179167 0.0011167135 0)
(0.91528114 0.0010431451 0)
(0.9089033 0.00097906299 0)
(0.90265142 0.00092032759 0)
(0.89656472 0.00086600147 0)
(0.89066541 0.00081861515 0)
(0.88500367 0.00077752007 0)
(0.87959568 0.00073975084 0)
(0.87442055 0.00070330553 0)
(0.86945046 0.00066923772 0)
(0.86465898 0.00063888948 0)
(0.86002447 0.00061129346 0)
(0.85553782 0.00058408007 0)
(0.85120059 0.00055689327 0)
(0.84700615 0.00053216522 0)
(0.84293609 0.00051045834 0)
(0.83896962 0.00049024066 0)
(0.8350957 0.00046990834 0)
(0.8313145 0.00044984084 0)
(0.8276227 0.00043087016 0)
(0.82401281 0.00041219395 0)
(0.8204801 0.00039359311 0)
(0.81702191 0.00037574987 0)
(0.81363343 0.00035919619 0)
(0.81030806 0.00034352732 0)
(0.80702735 0.0003286932 0)
(0.80379916 0.00031491565 0)
(0.8006246 0.00030176035 0)
(0.79750456 0.00028867218 0)
(0.7944424 0.00027596494 0)
(0.79143608 0.00026416413 0)
(0.7884814 0.00025238169 0)
(0.78558197 0.00024096102 0)
(0.78272851 0.00023086934 0)
(0.7799131 0.00022119283 0)
(0.7771393 0.00021171992 0)
(0.77440917 0.00020303562 0)
(0.7717202 0.00019450218 0)
(0.76907441 0.00018600115 0)
(0.76647292 0.00017817065 0)
(0.76390867 0.00017064632 0)
(0.76137979 0.00016342002 0)
(0.75888578 0.00015684943 0)
(0.75642487 0.00015042448 0)
(0.75399877 0.00014414914 0)
(0.7516082 0.00013819608 0)
(0.7492508 0.00013245013 0)
(0.74692342 0.00012713363 0)
(0.74462397 0.00012202975 0)
(0.7423536 0.00011711296 0)
(0.74011174 0.00011246389 0)
(0.73789825 0.00010797223 0)
(0.7357084 0.0001037453 0)
(0.73354667 0.00010006513 0)
(0.73138342 9.5873938e-05 0)
(0.72930604 9.2739662e-05 0)
(0.7270804 0.00011869997 0)
(0.72522817 0.00016589391 0)
(0.72179017 0.00012659961 0)
(0.99662736 0.0022645836 0)
(0.99700836 0.0027802284 0)
(0.99751361 0.003027345 0)
(0.99790938 0.0031113208 0)
(0.99818405 0.003151007 0)
(0.99841565 0.0031539705 0)
(0.99863193 0.0031308807 0)
(0.9988274 0.003106933 0)
(0.99900086 0.0030848789 0)
(0.99915751 0.0030719395 0)
(0.99930254 0.0030665934 0)
(0.99943946 0.0030674959 0)
(0.99957212 0.0030682572 0)
(0.99970051 0.0030673151 0)
(0.99982368 0.0030604145 0)
(0.99994143 0.003044935 0)
(1.0000541 0.0030229769 0)
(1.0001565 0.0029953804 0)
(1.0002657 0.0029641669 0)
(1.0003732 0.0029276333 0)
(1.0004698 0.0028811646 0)
(1.0005481 0.0028268913 0)
(1.0006058 0.002768662 0)
(1.0006383 0.0027079893 0)
(1.0006464 0.002650487 0)
(1.0006268 0.0025978714 0)
(1.00057 0.0025433807 0)
(1.0004605 0.0024858082 0)
(1.0002799 0.0024284437 0)
(1.0000063 0.002373308 0)
(0.9996106 0.0023202157 0)
(0.99905869 0.0022726824 0)
(0.9982839 0.0022306676 0)
(0.99721198 0.0021931579 0)
(0.99577204 0.0021536658 0)
(0.99388965 0.0021103656 0)
(0.99149488 0.0020617512 0)
(0.98850728 0.0020094149 0)
(0.98495561 0.0019510162 0)
(0.98063796 0.00188266 0)
(0.97570244 0.0018029935 0)
(0.97023218 0.0017158255 0)
(0.96431833 0.0016236353 0)
(0.95809257 0.001530215 0)
(0.95169021 0.0014386451 0)
(0.94520924 0.0013516363 0)
(0.93873233 0.0012716514 0)
(0.93233281 0.0011974285 0)
(0.92608019 0.0011310886 0)
(0.9199154 0.0010704169 0)
(0.91388019 0.0010132466 0)
(0.90801474 0.00096050414 0)
(0.90234014 0.00091141842 0)
(0.89687691 0.00086388599 0)
(0.89161986 0.00081836823 0)
(0.88655813 0.00077753138 0)
(0.88168279 0.00074134125 0)
(0.87696884 0.00070774169 0)
(0.87240483 0.00067478751 0)
(0.86799155 0.00064289689 0)
(0.86371571 0.00061324513 0)
(0.8595579 0.00058493214 0)
(0.85550482 0.00055744754 0)
(0.85155134 0.0005312521 0)
(0.84769489 0.00050680693 0)
(0.84393069 0.00048352604 0)
(0.84025577 0.00046170098 0)
(0.8366631 0.00044170174 0)
(0.83314502 0.00042266883 0)
(0.82969925 0.00040384233 0)
(0.8263271 0.00038560651 0)
(0.8230243 0.00036866854 0)
(0.81978454 0.00035193746 0)
(0.81661046 0.00033596663 0)
(0.81348433 0.00032182823 0)
(0.81040388 0.00030815231 0)
(0.80737638 0.00029467765 0)
(0.80440355 0.00028220338 0)
(0.80148203 0.00027002167 0)
(0.79861273 0.00025797287 0)
(0.79579608 0.00024689967 0)
(0.79302091 0.00023639372 0)
(0.79028575 0.00022629729 0)
(0.78759229 0.00021699852 0)
(0.78493936 0.00020792649 0)
(0.78232824 0.00019908572 0)
(0.77975931 0.00019071124 0)
(0.77722812 0.0001826977 0)
(0.77473084 0.00017526793 0)
(0.77226635 0.00016812914 0)
(0.76983632 0.0001612458 0)
(0.76744015 0.00015472391 0)
(0.76507709 0.00014846674 0)
(0.76274114 0.00014256775 0)
(0.76043687 0.00013745145 0)
(0.75813561 0.00013152904 0)
(0.75592327 0.00012732482 0)
(0.7535668 0.00014901739 0)
(0.75159987 0.00019608483 0)
(0.74796767 0.00015120063 0)
(0.9967973 0.0021857039 0)
(0.99711804 0.0026677738 0)
(0.99755911 0.0029105018 0)
(0.99792581 0.0029995752 0)
(0.99819378 0.003054927 0)
(0.99842282 0.0030978309 0)
(0.99863785 0.0031236406 0)
(0.99883248 0.003138141 0)
(0.99900454 0.0031467655 0)
(0.99915862 0.0031464376 0)
(0.9993 0.0031428107 0)
(0.99943315 0.0031359585 0)
(0.99956214 0.0031244371 0)
(0.99968785 0.0031062138 0)
(0.99980979 0.0030818622 0)
(0.99992796 0.0030524034 0)
(1.0000421 0.0030188378 0)
(1.0001515 0.0029816135 0)
(1.0002565 0.0029428601 0)
(1.0003593 0.0029022458 0)
(1.0004595 0.0028553989 0)
(1.0005532 0.0028026253 0)
(1.0006371 0.0027465006 0)
(1.0007109 0.0026881576 0)
(1.0007756 0.0026311098 0)
(1.0008314 0.00257656 0)
(1.0008898 0.0025211277 0)
(1.0009428 0.0024651894 0)
(1.0009794 0.0024112625 0)
(1.0010028 0.0023609929 0)
(1.0010121 0.0023145809 0)
(1.001007 0.002274866 0)
(1.0009849 0.002244738 0)
(1.0009387 0.0022183383 0)
(1.0008523 0.0021916549 0)
(1.000703 0.0021653069 0)
(1.0004609 0.0021406873 0)
(1.0000827 0.0021159781 0)
(0.99951879 0.0020947094 0)
(0.99866597 0.0020787477 0)
(0.99743693 0.002058676 0)
(0.99573999 0.002030577 0)
(0.99348064 0.0019959952 0)
(0.99062645 0.0019560825 0)
(0.98712887 0.0019063121 0)
(0.98287135 0.0018440425 0)
(0.97799649 0.0017702817 0)
(0.9726057 0.001688845 0)
(0.96681828 0.0016020809 0)
(0.96079908 0.0015148555 0)
(0.95464896 0.0014316138 0)
(0.94845811 0.0013536633 0)
(0.94229872 0.0012796239 0)
(0.9362515 0.0012100589 0)
(0.93026233 0.0011455806 0)
(0.92434835 0.0010858457 0)
(0.91856259 0.0010299566 0)
(0.91294431 0.00097690254 0)
(0.90752791 0.00092564348 0)
(0.90230856 0.00087746789 0)
(0.89725886 0.00083338951 0)
(0.89235521 0.0007921695 0)
(0.88758955 0.00075277055 0)
(0.88296717 0.00071529785 0)
(0.87848913 0.00068042177 0)
(0.87414363 0.00064762918 0)
(0.86993628 0.00061704038 0)
(0.86584859 0.00058879333 0)
(0.86187056 0.00056199293 0)
(0.85799646 0.00053583567 0)
(0.85422161 0.00051079983 0)
(0.85053538 0.00048766522 0)
(0.84692983 0.00046502577 0)
(0.84340607 0.00044332389 0)
(0.83996153 0.00042394216 0)
(0.83658852 0.00040543528 0)
(0.83328523 0.00038734578 0)
(0.83004968 0.00037053386 0)
(0.82687713 0.00035419207 0)
(0.82376718 0.00033812173 0)
(0.8207191 0.00032344569 0)
(0.81771534 0.00030962428 0)
(0.81475845 0.00029624281 0)
(0.81185306 0.00028376995 0)
(0.80899739 0.00027163253 0)
(0.80619172 0.00025983953 0)
(0.8034359 0.00024871958 0)
(0.80072219 0.00023817633 0)
(0.79804693 0.00022836332 0)
(0.79541086 0.00021890404 0)
(0.79281586 0.00020977733 0)
(0.79026097 0.00020112827 0)
(0.78774444 0.00019288874 0)
(0.78525861 0.00018512068 0)
(0.78280878 0.00017837403 0)
(0.78036743 0.00017051618 0)
(0.77801875 0.00016514858 0)
(0.77553035 0.00018312726 0)
(0.77344683 0.00023104152 0)
(0.76962483 0.00018017802 0)
(0.99695496 0.0021164288 0)
(0.9972259 0.002560254 0)
(0.9976109 0.002810038 0)
(0.99795052 0.0029230152 0)
(0.99821086 0.0029967702 0)
(0.99843382 0.0030525075 0)
(0.99864242 0.0030805501 0)
(0.99883254 0.003089294 0)
(0.99900191 0.0030864084 0)
(0.99915453 0.0030783274 0)
(0.99929537 0.0030673189 0)
(0.99942853 0.0030543431 0)
(0.99955718 0.0030426747 0)
(0.99968235 0.0030285395 0)
(0.99980371 0.0030115918 0)
(0.99992109 0.0029904495 0)
(1.000034 0.0029654132 0)
(1.0001419 0.0029366623 0)
(1.0002452 0.002905708 0)
(1.0003457 0.0028719912 0)
(1.0004436 0.0028314691 0)
(1.0005356 0.0027838958 0)
(1.0006194 0.0027317775 0)
(1.0006942 0.0026766745 0)
(1.0007606 0.0026218 0)
(1.000821 0.0025687758 0)
(1.000877 0.0025154341 0)
(1.0009272 0.0024619894 0)
(1.0009705 0.0024100943 0)
(1.0010069 0.0023609492 0)
(1.0010371 0.002314781 0)
(1.0010622 0.00227422 0)
(1.0010839 0.002240612 0)
(1.0011099 0.0022106093 0)
(1.0011366 0.0021821682 0)
(1.0011579 0.0021561754 0)
(1.001173 0.0021335741 0)
(1.0011786 0.0021134361 0)
(1.0011723 0.0021009726 0)
(1.0011495 0.0020950686 0)
(1.0010941 0.002086984 0)
(1.0009777 0.0020764341 0)
(1.000761 0.0020635948 0)
(1.0003938 0.00204927 0)
(0.99980166 0.0020366317 0)
(0.99887092 0.0020236145 0)
(0.99749894 0.0020036247 0)
(0.9955846 0.0019749729 0)
(0.99304035 0.0019391775 0)
(0.9898503 0.0018950889 0)
(0.98589226 0.0018383015 0)
(0.98131503 0.0017693695 0)
(0.97622305 0.0016917241 0)
(0.97074751 0.0016069158 0)
(0.96503641 0.0015213387 0)
(0.95918376 0.0014414407 0)
(0.95326658 0.0013666685 0)
(0.94735525 0.0012944847 0)
(0.94153688 0.0012262127 0)
(0.93574294 0.0011634312 0)
(0.92999583 0.0011045166 0)
(0.92434713 0.0010474919 0)
(0.91884198 0.00099199982 0)
(0.91351199 0.00093942481 0)
(0.90834074 0.00089103868 0)
(0.90330715 0.00084542688 0)
(0.89841464 0.00080266181 0)
(0.89367064 0.00076313569 0)
(0.8890825 0.00072589117 0)
(0.88463825 0.0006901738 0)
(0.88032366 0.00065656302 0)
(0.87612298 0.0006256263 0)
(0.8720332 0.00059550918 0)
(0.86805428 0.00056677946 0)
(0.86419418 0.00054099518 0)
(0.86043826 0.00051642231 0)
(0.85677719 0.00049257678 0)
(0.85320583 0.00047044491 0)
(0.84971633 0.00044910355 0)
(0.84630495 0.00042830327 0)
(0.84296782 0.00040920719 0)
(0.83969942 0.00039123585 0)
(0.83649891 0.00037396297 0)
(0.83336346 0.00035785998 0)
(0.83028818 0.0003422531 0)
(0.8272722 0.00032712736 0)
(0.82431456 0.00031295596 0)
(0.82140275 0.00029960148 0)
(0.81853551 0.00028707228 0)
(0.81571615 0.00027494136 0)
(0.81294581 0.00026324225 0)
(0.81022271 0.00025217422 0)
(0.80754359 0.00024171646 0)
(0.80489888 0.00023185947 0)
(0.80229574 0.00022324752 0)
(0.79970773 0.00021321567 0)
(0.79721641 0.00020686768 0)
(0.79459095 0.00022102813 0)
(0.79238462 0.00027069863 0)
(0.78837094 0.0002127183 0)
(0.99710154 0.0020586115 0)
(0.99733221 0.0024664253 0)
(0.99766804 0.0027194482 0)
(0.99797992 0.0028479834 0)
(0.99822975 0.0029291836 0)
(0.99844537 0.0029885937 0)
(0.99864745 0.0030220754 0)
(0.99883393 0.003037248 0)
(0.99900181 0.0030433375 0)
(0.99915393 0.0030448176 0)
(0.99929482 0.0030435989 0)
(0.99942809 0.0030415862 0)
(0.99955619 0.0030359707 0)
(0.99968038 0.0030272498 0)
(0.99980076 0.0030130192 0)
(0.99991714 0.0029936778 0)
(1.0000291 0.0029691916 0)
(1.0001362 0.0029400958 0)
(1.0002388 0.002907803 0)
(1.0003384 0.0028720755 0)
(1.000435 0.0028299191 0)
(1.000526 0.0027811484 0)
(1.0006091 0.0027281794 0)
(1.0006835 0.0026727709 0)
(1.0007497 0.0026176705 0)
(1.0008097 0.0025644291 0)
(1.0008648 0.0025113377 0)
(1.0009144 0.0024582074 0)
(1.0009575 0.002406408 0)
(1.0009944 0.0023572698 0)
(1.0010258 0.0023113289 0)
(1.0010524 0.0022708759 0)
(1.001077 0.0022370768 0)
(1.0011021 0.0022075818 0)
(1.0011277 0.0021803722 0)
(1.0011525 0.0021555115 0)
(1.0011759 0.0021333978 0)
(1.0011975 0.0021133159 0)
(1.0012181 0.0020989907 0)
(1.001241 0.0020901361 0)
(1.0012699 0.0020798863 0)
(1.0013044 0.0020684409 0)
(1.0013304 0.0020573153 0)
(1.0013448 0.0020477 0)
(1.001345 0.0020433131 0)
(1.0013212 0.0020411809 0)
(1.0012486 0.0020361654 0)
(1.0010875 0.0020276807 0)
(1.0007816 0.0020162981 0)
(1.0002521 0.0020048196 0)
(0.999377 0.0019909263 0)
(0.99804649 0.0019692493 0)
(0.99615261 0.001937754 0)
(0.99361745 0.0018968648 0)
(0.99031939 0.0018479846 0)
(0.98632963 0.0017876641 0)
(0.98177537 0.0017185377 0)
(0.97677364 0.0016415195 0)
(0.97145621 0.0015591458 0)
(0.96594351 0.001479452 0)
(0.96030838 0.0014057075 0)
(0.95461605 0.0013348706 0)
(0.94893885 0.0012654972 0)
(0.94331492 0.00120107 0)
(0.93767227 0.0011414262 0)
(0.93206409 0.0010828687 0)
(0.92655243 0.0010257924 0)
(0.92119379 0.00097232971 0)
(0.91598351 0.00092241367 0)
(0.91090735 0.00087488945 0)
(0.90596307 0.00083042361 0)
(0.9011545 0.00078931634 0)
(0.89649253 0.00074951866 0)
(0.89197192 0.00071165475 0)
(0.88758518 0.00067743138 0)
(0.88332299 0.00064500179 0)
(0.87918797 0.00061377671 0)
(0.87517542 0.00058494488 0)
(0.87127123 0.00055745697 0)
(0.86746748 0.00053091288 0)
(0.86375868 0.00050650528 0)
(0.86015136 0.00048351671 0)
(0.8566404 0.00046147269 0)
(0.85321436 0.00044097323 0)
(0.84986485 0.00042123461 0)
(0.84658923 0.00040220215 0)
(0.8433835 0.00038436114 0)
(0.84024324 0.00036757473 0)
(0.83716561 0.00035186249 0)
(0.83414751 0.00033670416 0)
(0.83118738 0.00032211771 0)
(0.82828239 0.0003083533 0)
(0.82542721 0.00029544513 0)
(0.82261034 0.000283241 0)
(0.81984275 0.00027248054 0)
(0.81709814 0.00025999873 0)
(0.81445524 0.00025227438 0)
(0.81168342 0.00026286781 0)
(0.80934487 0.00031492946 0)
(0.80513377 0.00024865198 0)
(0.99723796 0.002008814 0)
(0.99743593 0.0023824642 0)
(0.99772865 0.0026329068 0)
(0.99801308 0.0027722341 0)
(0.99825118 0.0028610572 0)
(0.9984596 0.00292718 0)
(0.99865545 0.0029698323 0)
(0.99883792 0.0029934612 0)
(0.99900357 0.0030059174 0)
(0.99915431 0.0030114492 0)
(0.99929421 0.0030123747 0)
(0.99942663 0.0030096044 0)
(0.99955377 0.0030035708 0)
(0.9996769 0.0029930632 0)
(0.99979634 0.0029781164 0)
(0.99991188 0.0029585644 0)
(1.0000231 0.0029344575 0)
(1.0001298 0.0029063261 0)
(1.0002321 0.0028751968 0)
(1.0003311 0.0028408565 0)
(1.000427 0.0028009224 0)
(1.0005174 0.0027549807 0)
(1.0006003 0.0027050023 0)
(1.0006748 0.0026526684 0)
(1.0007414 0.0026002564 0)
(1.0008017 0.0025491768 0)
(1.000857 0.0024981654 0)
(1.0009068 0.0024469709 0)
(1.0009503 0.0023969028 0)
(1.0009877 0.0023493491 0)
(1.0010195 0.002304953 0)
(1.0010468 0.002265609 0)
(1.0010717 0.0022324277 0)
(1.0010967 0.0022034764 0)
(1.0011221 0.0021766763 0)
(1.0011467 0.0021518898 0)
(1.0011704 0.0021296781 0)
(1.0011927 0.0021096846 0)
(1.0012144 0.0020950276 0)
(1.0012391 0.0020858353 0)
(1.0012685 0.0020759944 0)
(1.0012997 0.0020651872 0)
(1.0013303 0.0020545152 0)
(1.0013592 0.0020449289 0)
(1.0013884 0.0020392763 0)
(1.0014202 0.0020355039 0)
(1.0014562 0.0020290013 0)
(1.0014979 0.0020209038 0)
(1.0015251 0.0020128363 0)
(1.0015344 0.0020084772 0)
(1.0015178 0.0020055725 0)
(1.0014463 0.0019985999 0)
(1.0012736 0.0019866734 0)
(1.0009338 0.0019723279 0)
(1.0003133 0.0019578554 0)
(0.99929203 0.0019387271 0)
(0.99775459 0.0019114964 0)
(0.99561437 0.0018737635 0)
(0.99270469 0.001826643 0)
(0.98904184 0.0017706731 0)
(0.98480199 0.0017071545 0)
(0.98010956 0.0016357432 0)
(0.97508677 0.0015581899 0)
(0.96983757 0.0014809437 0)
(0.96444046 0.0014088926 0)
(0.95895116 0.0013401228 0)
(0.95343003 0.0012723586 0)
(0.94795565 0.0012095951 0)
(0.94242738 0.0011506607 0)
(0.93689799 0.0010922876 0)
(0.93143919 0.0010355318 0)
(0.92611084 0.00098227763 0)
(0.92091022 0.00093125586 0)
(0.91582915 0.00088271355 0)
(0.91086925 0.00083843579 0)
(0.90604284 0.00079625431 0)
(0.90136838 0.00075577902 0)
(0.89683819 0.00071862959 0)
(0.89243518 0.00068355442 0)
(0.88815646 0.00064985887 0)
(0.88400197 0.00061867571 0)
(0.87996977 0.00058921505 0)
(0.87605503 0.00056119061 0)
(0.87224999 0.00053525015 0)
(0.86854669 0.0005104503 0)
(0.86493933 0.00048672119 0)
(0.86141906 0.00046454124 0)
(0.85799044 0.00044366529 0)
(0.85464953 0.00042410506 0)
(0.85138533 0.0004053454 0)
(0.84819239 0.00038738949 0)
(0.84506606 0.00037046508 0)
(0.84200278 0.00035459831 0)
(0.83899669 0.00033962752 0)
(0.83605092 0.00032642498 0)
(0.83313684 0.00031123059 0)
(0.83033023 0.00030196672 0)
(0.82739979 0.00030891771 0)
(0.82491687 0.00036361459 0)
(0.82050046 0.00028808548 0)
(0.99736527 0.0019655557 0)
(0.99753652 0.0023074885 0)
(0.99779182 0.0025517254 0)
(0.99805001 0.0026991227 0)
(0.99827557 0.0027956295 0)
(0.99847644 0.0028679704 0)
(0.99866572 0.0029176516 0)
(0.9988434 0.002947266 0)
(0.99900618 0.0029639758 0)
(0.99915519 0.002972866 0)
(0.99929397 0.0029766162 0)
(0.99942557 0.0029765361 0)
(0.99955195 0.0029730404 0)
(0.99967426 0.0029656807 0)
(0.99979285 0.002953912 0)
(0.99990753 0.0029373907 0)
(1.000018 0.0029161611 0)
(1.000124 0.002890638 0)
(1.0002258 0.0028615822 0)
(1.0003242 0.0028288706 0)
(1.0004191 0.0027906866 0)
(1.0005088 0.0027465763 0)
(1.0005914 0.0026982343 0)
(1.0006659 0.0026473731 0)
(1.0007328 0.0025960276 0)
(1.0007934 0.0025455664 0)
(1.000849 0.0024951753 0)
(1.0008991 0.0024446439 0)
(1.0009431 0.0023951719 0)
(1.000981 0.0023481072 0)
(1.0010136 0.0023041562 0)
(1.0010418 0.0022649421 0)
(1.0010675 0.0022315172 0)
(1.001093 0.0022022857 0)
(1.0011187 0.0021753188 0)
(1.0011437 0.0021504463 0)
(1.0011676 0.0021282575 0)
(1.0011903 0.0021085358 0)
(1.0012123 0.0020938037 0)
(1.001237 0.002084224 0)
(1.0012657 0.0020743717 0)
(1.0012962 0.0020635187 0)
(1.0013264 0.0020527283 0)
(1.0013557 0.002042989 0)
(1.0013856 0.0020368445 0)
(1.0014191 0.0020325854 0)
(1.0014563 0.0020260616 0)
(1.001494 0.0020181103 0)
(1.0015302 0.0020102004 0)
(1.001566 0.0020049842 0)
(1.0016051 0.0020005263 0)
(1.0016419 0.0019924778 0)
(1.0016917 0.0019815024 0)
(1.0017196 0.0019722877 0)
(1.0017234 0.0019661661 0)
(1.0016873 0.0019583732 0)
(1.0015706 0.0019462366 0)
(1.0013131 0.0019314632 0)
(1.0008065 0.0019157482 0)
(0.99991687 0.001897888 0)
(0.99852384 0.0018720744 0)
(0.99653564 0.0018361058 0)
(0.99378578 0.0017892139 0)
(0.9902246 0.0017324108 0)
(0.98609599 0.0016711917 0)
(0.98155068 0.001603195 0)
(0.97669566 0.0015300334 0)
(0.9716193 0.0014571987 0)
(0.96639029 0.0013882803 0)
(0.96105771 0.0013221633 0)
(0.95567724 0.0012573021 0)
(0.95032236 0.001196766 0)
(0.94489676 0.0011381961 0)
(0.9394556 0.0010802485 0)
(0.93407169 0.0010253332 0)
(0.92879987 0.00097240171 0)
(0.92364065 0.00092180009 0)
(0.91859195 0.00087507999 0)
(0.91366187 0.0008308047 0)
(0.90887049 0.00078825615 0)
(0.90422357 0.0007488501 0)
(0.89970845 0.00071173334 0)
(0.89532251 0.00067649105 0)
(0.89107004 0.0006438186 0)
(0.88694586 0.00061280538 0)
(0.88293995 0.00058339445 0)
(0.87904284 0.00055585404 0)
(0.87525687 0.0005297949 0)
(0.87157955 0.00050546476 0)
(0.8680001 0.00048234982 0)
(0.86451178 0.00046035729 0)
(0.86110781 0.0004396945 0)
(0.85778526 0.00042035225 0)
(0.8545445 0.0004021008 0)
(0.8513803 0.00038597589 0)
(0.84826085 0.00036768265 0)
(0.84525649 0.00035651861 0)
(0.84214331 0.00035955851 0)
(0.8395016 0.00041661566 0)
(0.83487109 0.00033129739 0)
(0.9974844 0.0019275055 0)
(0.99763367 0.00224041 0)
(0.99785672 0.0024760426 0)
(0.99809027 0.0026286784 0)
(0.99830268 0.0027317067 0)
(0.99849553 0.0028091309 0)
(0.99867798 0.0028645022 0)
(0.9988505 0.0028997869 0)
(0.99901008 0.0029213565 0)
(0.99915717 0.0029345127 0)
(0.99929466 0.0029419633 0)
(0.99942525 0.0029449194 0)
(0.99955067 0.0029437831 0)
(0.99967195 0.0029382883 0)
(0.99978947 0.0029279194 0)
(0.99990313 0.0029125273 0)
(1.0000127 0.0028923071 0)
(1.000118 0.0028677068 0)
(1.0002192 0.0028393891 0)
(1.0003169 0.002807338 0)
(1.000411 0.0027701919 0)
(1.0005 0.0027275054 0)
(1.0005822 0.0026807058 0)
(1.0006567 0.0026314533 0)
(1.0007239 0.0025815533 0)
(1.0007849 0.0025322758 0)
(1.0008407 0.0024831278 0)
(1.0008911 0.0024339253 0)
(1.0009356 0.0023857246 0)
(1.0009742 0.0023398138 0)
(1.0010076 0.002296959 0)
(1.0010365 0.002258568 0)
(1.0010631 0.0022256017 0)
(1.0010891 0.0021967491 0)
(1.0011152 0.0021702481 0)
(1.0011406 0.0021458452 0)
(1.0011649 0.0021240618 0)
(1.0011881 0.0021047884 0)
(1.0012108 0.0020900684 0)
(1.0012357 0.0020801078 0)
(1.0012644 0.0020702145 0)
(1.0012948 0.0020594164 0)
(1.0013251 0.0020487609 0)
(1.0013545 0.0020392469 0)
(1.0013844 0.0020330559 0)
(1.0014175 0.0020287243 0)