/*--------------------------------*- C++ -*----------------------------------*\
  =========                 |
  \\      /  F ield         | OpenFOAM: The Open Source CFD Toolbox
   \\    /   O peration     | Website:  https://openfoam.org
    \\  /    A nd           | Version:  12
     \\/     M anipulation  |
\*---------------------------------------------------------------------------*/
FoamFile
{
    format      ascii;
    class       volScalarField;
    location    "100";
    object      yPlus;
}
// * * * * * * * * * * * * * * * * * * * * * * * * * * * * * * * * * * * * * //

dimensions      [];

internalField   uniform 0;

boundaryField
{
    inlet
    {
        type            calculated;
        value           uniform 0;
    }
    top
    {
        type            calculated;
        value           uniform 0;
    }
    outlet
    {
        type            calculated;
        value           uniform 0;
    }
    slipsurface
    {
        type            calculated;
        value           uniform 0;
    }
    bottom
    {
        type            calculated;
        value           nonuniform List<scalar> 
100
(
115.8527
114.57369
113.22
111.77487
110.34122
108.95623
107.62245
106.33883
105.09603
103.88438
102.68316
101.48323
100.28122
99.077588
97.874763
96.677124
95.492297
94.336062
93.196014
92.090538
91.026611
90.0102
89.047403
88.143513
87.303268
86.531111
85.828528
85.194214
84.62553
84.118797
83.669175
83.271444
82.921501
82.614831
82.345448
82.106753
81.892148
81.695567
81.513162
81.342083
81.178565
81.018714
80.859584
80.699092
80.536224
80.370251
80.200085
80.023388
79.838425
79.645113
79.444187
79.236016
79.020906
78.800165
78.576008
78.350091
78.122916
77.894608
77.665898
77.437637
77.209891
76.982759
76.757106
76.53376
76.312677
76.093905
75.877945
75.66456
75.453011
75.243233
75.035582
74.82981
74.625916
74.424603
74.225671
74.028607
73.833646
73.640531
73.448896
73.259217
73.071556
72.885695
72.701887
72.519828
72.339174
72.160172
71.982857
71.80726
71.633285
71.460732
71.289663
71.119931
70.951609
70.784486
70.61883
70.452354
70.292538
70.118083
69.966002
69.7358
)
;
    }
    frontandback
    {
        type            empty;
    }
}


// ************************************************************************* //
