/*--------------------------------*- C++ -*----------------------------------*\
  =========                 |
  \\      /  F ield         | OpenFOAM: The Open Source CFD Toolbox
   \\    /   O peration     | Website:  https://openfoam.org
    \\  /    A nd           | Version:  12
     \\/     M anipulation  |
\*---------------------------------------------------------------------------*/
FoamFile
{
    format      ascii;
    class       volScalarField;
    location    "900";
    object      epsilon;
}
// * * * * * * * * * * * * * * * * * * * * * * * * * * * * * * * * * * * * * //

dimensions      [0 2 -3 0 0 0 0];

internalField   nonuniform List<scalar> 
13056
(
0.0025090282
0.0021903072
0.0020395024
0.0019834745
0.0019565847
0.0019395795
0.0019275479
0.0019187199
0.0019121217
0.0019071321
0.0019033417
0.0019004753
0.0018983438
0.0018968154
0.0018957982
0.0018952278
0.0018950679
0.0018952978
0.0018959126
0.0018972176
0.0018972973
0.0019095038
0.0018636562
0.0030948678
66.638314
82.270113
76.232116
70.218074
65.745002
62.10791
59.010747
56.354255
54.063355
52.065276
50.301061
48.727719
47.314428
46.03567
44.868789
43.797142
42.808205
41.89086
41.036144
40.236618
39.485951
38.778874
38.110749
37.477831
36.876884
36.304886
35.759466
35.238447
34.739666
34.261349
33.801973
33.360021
32.934096
32.523117
32.126102
31.742009
31.369923
31.009121
30.658926
30.318588
29.987426
29.664938
29.350659
29.044043
28.744569
28.451868
28.165592
27.885361
27.610788
27.341515
27.077292
26.817869
26.562948
26.31223
26.065479
25.822502
25.5831
25.347036
25.114071
24.884037
24.656782
24.432132
24.209894
23.989871
23.771933
23.55595
23.341765
23.12921
22.918119
22.708378
22.499869
22.292436
22.085919
21.880185
21.675118
21.470586
21.266431
21.062497
20.858661
20.654793
20.450726
20.24629
20.04134
19.835728
19.629265
19.421757
19.213033
19.002879
18.791134
18.582051
18.382087
18.192891
18.013512
17.843133
17.681018
17.526498
17.378969
17.237898
17.102809
16.973266
16.848869
16.729248
16.614072
16.503013
16.395804
16.29202
16.191637
16.093396
15.998962
15.901995
15.81745
15.678929
0.0025074383
0.0021888151
0.0020379995
0.0019819443
0.0019550412
0.0019380293
0.0019259932
0.0019171618
0.0019105609
0.0019055691
0.0019017769
0.001898909
0.0018967763
0.0018952469
0.0018942287
0.0018936576
0.0018934971
0.0018937264
0.0018943408
0.001895645
0.001895721
0.0019079614
0.0018619271
0.0030860649
38.262657
44.491983
40.712922
37.280189
34.775306
32.759391
31.054265
29.598857
28.348601
27.261635
26.304489
25.452926
24.689648
24.000364
23.372448
22.796685
22.266135
21.77464
21.317264
20.889914
20.489108
20.111957
19.755921
19.418948
19.099269
18.795232
18.505544
18.229017
17.964476
17.710957
17.467632
17.23368
17.008346
16.791042
16.581238
16.37837
16.181944
15.991571
15.806884
15.62748
15.452992
15.28315
15.117704
14.95636
14.79884
14.644944
14.494486
14.347262
14.203066
14.061706
13.923047
13.786956
13.653275
13.521843
13.392535
13.265248
13.139875
13.016291
12.894368
12.774019
12.65516
12.537701
12.421538
12.306569
12.192724
12.079934
11.968116
11.857182
11.747045
11.637644
11.528917
11.420783
11.313157
11.20597
11.099161
10.992661
10.886388
10.78026
10.674214
10.568181
10.462075
10.355807
10.249304
10.142486
10.035258
9.9275189
9.8191806
9.7101324
9.6002917
9.4918644
9.3881963
9.2901373
9.1971912
9.1089307
9.0249713
8.9449631
8.8685917
8.7955791
8.7256766
8.658657
8.5943117
8.532448
8.4728939
8.4154784
8.3600623
8.306425
8.2545539
8.2037962
8.1550153
8.1049268
8.0612703
7.9897537
0.0025017861
0.0021832699
0.0020322842
0.0019761001
0.0019491333
0.0019320842
0.0019200219
0.0019111705
0.0019045538
0.0018995492
0.0018957465
0.0018928696
0.0018907294
0.0018891933
0.0018881692
0.0018875927
0.0018874271
0.0018876517
0.0018882611
0.0018895604
0.0018896262
0.0019019109
0.0018555667
0.0030714039
35.465201
37.162564
33.232894
30.128966
27.932721
26.193056
24.736058
23.500849
22.445353
21.5317
20.730124
20.019289
19.384085
18.812028
18.292142
17.816506
17.379147
16.974755
16.599112
16.248725
15.920626
15.612356
15.32176
15.047096
14.786865
14.53967
14.304419
14.080108
13.86575
13.660535
13.463771
13.274769
13.092899
12.91767
12.748639
12.585336
12.42735
12.274356
12.126049
11.982096
11.842192
11.706115
11.573655
11.444572
11.318634
11.195678
11.075549
10.95808
10.843101
10.730456
10.620033
10.511722
10.405393
10.300918
10.198191
10.09713
9.9976468
9.8996398
9.8030058
9.7076727
9.6135739
9.5206346
9.4287726
9.3379042
9.2479738
9.1589257
9.0706931
8.9832047
8.8963919
8.8102061
8.7245972
8.6395005
8.5548494
8.4705887
8.3866705
8.30304
8.2196325
8.136384
8.0532445
7.9701609
7.8870657
7.80389
7.7205761
7.6370636
7.5532774
7.4691401
7.3845841
7.2995241
7.2138975
7.1294238
7.0487047
6.9723952
6.9001033
6.8314909
6.7662539
6.7041163
6.64483
6.5881758
6.5339577
6.4819969
6.4321292
6.3842033
6.3380837
6.2936364
6.250752
6.209258
6.1691443
6.1299019
6.0922051
6.0534956
6.0197855
5.9645843
0.0024919506
0.0021735617
0.0020222446
0.0019658275
0.0019387447
0.0019216271
0.0019095163
0.0019006276
0.0018939816
0.0018889532
0.0018851309
0.0018822376
0.0018800831
0.0018785346
0.0018774995
0.0018769128
0.0018767376
0.0018769529
0.0018775526
0.0018788425
0.0018788913
0.0018912192
0.0018444641
0.0030511579
35.923767
34.675272
30.428422
27.401952
25.314552
23.680914
22.321652
21.17367
20.195297
19.350119
18.609809
17.954206
17.369129
16.842835
16.364995
15.928224
15.526952
15.156206
14.812063
14.491274
14.191076
13.90919
13.64361
13.392724
13.15514
12.929561
12.714975
12.510457
12.31509
12.128128
11.948933
11.77687
11.611355
11.45194
11.298214
11.149745
11.006152
10.867141
10.732428
10.601707
10.474699
10.351199
10.231016
10.113926
9.9997207
9.8882479
9.7793667
9.6729228
9.5687609
9.4667379
9.3667522
9.268703
9.172471
9.0779378
8.9850092
8.8936087
8.8036557
8.7150576
8.6277206
8.5415789
8.4565716
8.3726305
8.2896809
8.2076468
8.1264775
8.0461225
7.9665209
7.8876082
7.8093222
7.7316191
7.6544531
7.5777659
7.5014973
7.4255977
7.3500237
7.2747258
7.1996459
7.1247266
7.0499229
6.975187
6.9004585
6.8256759
6.7507874
6.6757389
6.6004637
6.5248928
6.4489658
6.3726071
6.2957614
6.2199722
6.1475713
6.0791434
6.0143349
5.9528404
5.8943852
5.8387202
5.7856217
5.7348919
5.6863541
5.6398471
5.5952229
5.5523452
5.5110921
5.4713427
5.4329985
5.3959043
5.3600515
5.324981
5.2913038
5.256712
5.226613
5.1773381
0.0024777496
0.0021595238
0.0020077112
0.0019509513
0.0019236974
0.0019064784
0.0018942956
0.0018853518
0.0018786621
0.0018735986
0.0018697471
0.0018668293
0.0018646537
0.0018630867
0.0018620348
0.0018614328
0.0018612431
0.0018614444
0.0018620293
0.0018633052
0.0018633298
0.0018756917
0.0018284348
0.0030243886
35.856291
32.921075
28.484995
25.539413
23.551613
22.011369
20.736232
19.662035
18.747968
17.959201
17.268839
16.657836
16.112871
15.622901
15.178192
14.771831
14.398608
14.053855
13.733902
13.435715
13.156712
12.894762
12.647995
12.414902
12.194188
11.98464
11.785315
11.595349
11.413889
11.24024
11.073809
10.914004
10.760282
10.612226
10.469456
10.331567
10.198207
10.069099
9.9439841
9.822574
9.7046111
9.5899046
9.4782766
9.3695202
9.26344
9.1598958
9.0587566
8.9598789
8.8631185
8.7683424
8.6754564
8.5843668
8.4949626
8.4071338
8.3207931
8.2358694
8.1522877
8.0699621
7.9888053
7.9087562
7.8297585
7.7517485
7.6746568
7.5984129
7.5229698
7.4482803
7.3742878
7.3009324
7.2281565
7.1559191
7.0841776
7.0128777
6.9419636
6.8713892
6.801114
6.7310919
6.6612687
6.5915913
6.5220177
6.4525033
6.3829918
6.3134261
6.243758
6.173937
6.103901
6.0335858
5.9629354
5.891879
5.8203657
5.7498321
5.6824478
5.6187573
5.5584328
5.5011905
5.4467751
5.394955
5.3455225
5.298294
5.2531051
5.2098059
5.1682589
5.1283376
5.0899285
5.0529192
5.0172181
4.9826804
4.9492991
4.9166435
4.8852907
4.8530717
4.8250554
4.7791922
0.0024589518
0.0021409457
0.0019884693
0.0019312501
0.0019037661
0.0018864104
0.0018741306
0.0018651125
0.001858364
0.0018532528
0.0018493621
0.001846411
0.0018442069
0.0018426147
0.0018415403
0.0018409174
0.0018407079
0.0018408901
0.0018414547
0.0018427113
0.0018427039
0.0018550913
0.0018072312
0.0029898927
34.903764
31.25797
26.748653
23.898719
22.012871
20.564829
19.371364
18.368147
17.515551
16.780465
16.137471
15.568637
15.061482
14.60566
14.192037
13.814152
13.467143
13.146641
12.849222
12.572059
12.312741
12.069284
11.839943
11.623315
11.418191
11.223441
11.038187
10.861626
10.692964
10.531553
10.376844
10.228287
10.085375
9.9477235
9.8149772
9.6867608
9.5627458
9.442677
9.3263123
9.2133848
9.1036547
8.9969451
8.893091
8.7919
8.6931906
8.5968326
8.5027044
8.4106729
8.320604
8.232374
8.1458957
8.061082
7.9778295
7.8960363
7.815621
7.7365178
7.6586568
7.581958
7.5063405
7.4317474
7.3581263
7.2854179
7.2135576
7.1424799
7.072141
7.0024967
6.9334946
6.8650785
6.797195
6.7298058
6.6628711
6.5963402
6.5301609
6.4642902
6.3986904
6.3333181
6.2681227
6.2030547
6.1380745
6.0731403
6.0081995
5.9431986
5.8780922
5.8128329
5.7473624
5.6816207
5.6155548
5.5490985
5.4822039
5.4162151
5.353162
5.2935553
5.2370901
5.1835023
5.1325537
5.0840286
5.0377335
4.9934972
4.9511667
4.9106019
4.8716749
4.8342675
4.7982739
4.763589
4.7301275
4.6977537
4.6664619
4.6358459
4.6064539
4.5762356
4.5499717
4.5069759
0.0024352926
0.0021175894
0.0019642775
0.0019064739
0.0018786953
0.0018611647
0.0018487608
0.0018396476
0.0018328239
0.0018276518
0.0018237107
0.0018207171
0.0018184762
0.0018168517
0.0018157481
0.0018150983
0.0018148632
0.0018150205
0.0018155589
0.0018167904
0.0018167428
0.0018291469
0.0017805704
0.0029464032
33.258296
29.609608
25.109774
22.36276
20.577953
19.219339
18.104312
17.168933
16.37491
15.690872
15.092867
14.564046
14.092725
13.669237
13.285038
12.934091
12.611867
12.314288
12.038163
11.780861
11.540136
11.314142
11.101257
10.900172
10.709765
10.528985
10.357014
10.193107
10.036526
9.8866689
9.7430259
9.6050875
9.4723832
9.3445541
9.2212726
9.1021895
8.9869999
8.8754672
8.7673671
8.6624517
8.5604986
8.4613438
8.3648342
8.2707915
8.1790471
8.0894801
8.001978
7.9164174
7.8326737
7.7506321
7.6702117
7.5913318
7.5138965
7.4378108
7.3629996
7.2894016
7.2169519
7.1455763
7.0751995
7.0057688
6.9372355
6.8695444
6.8026353
6.7364476
6.6709403
6.6060726
6.5417952
6.4780562
6.4148057
6.3520082
6.2896262
6.2276126
6.1659188
6.1045047
6.0433349
5.9823688
5.9215592
5.8608599
5.8002338
5.7396415
5.6790339
5.6183609
5.5575801
5.4966467
5.435506
5.3741019
5.3123846
5.2502917
5.1877784
5.1261011
5.0671571
5.011425
4.9586217
4.9085013
4.8608423
4.8154437
4.7721255
4.7307284
4.6911099
4.6531395
4.6166981
4.5816754
4.5479731
4.5154931
4.4841557
4.453834
4.4245236
4.3958419
4.3683083
4.3399884
4.315384
4.275103
0.0024064923
0.0020892097
0.0019348876
0.0018763643
0.0018482207
0.0018304733
0.0018179159
0.0018086849
0.001801768
0.0017965204
0.0017925167
0.0017894702
0.0017871837
0.0017855189
0.0017843789
0.0017836955
0.0017834283
0.0017835545
0.0017840598
0.0017852598
0.0017851628
0.0017975749
0.0017481564
0.0028926385
31.136644
27.980287
23.54874
20.906784
19.219799
17.946654
16.906139
16.035014
15.296367
14.660536
14.104991
13.613915
13.176376
12.783356
12.426878
12.101307
11.802425
11.526435
11.270363
11.031763
10.808547
10.599
10.401612
10.215167
10.038623
9.8710023
9.7115464
9.5595635
9.4143683
9.2754024
9.142193
9.0142679
8.8911904
8.7726277
8.6582763
8.5478124
8.4409532
8.3374794
8.2371834
8.1398356
8.0452295
7.9532133
7.8636451
7.7763598
7.6912011
7.6080567
7.5268227
7.4473847
7.369627
7.2934435
7.2187591
7.1454989
7.073574
7.0028964
6.9333964
6.8650172
6.7976987
6.7313718
6.6659669
6.6014349
6.5377308
6.4748032
6.4125962
6.3510537
6.2901375
6.2298096
6.1700243
6.1107331
6.05189
5.9934616
5.9354132
5.8777008
5.8202791
5.7631109
5.7061631
5.6493978
5.5927709
5.5362393
5.4797684
5.4233214
5.3668522
5.3103141
5.2536674
5.1968701
5.139871
5.0826176
5.0250631
4.9671491
4.9088336
4.8512888
4.7962852
4.7442705
4.6949816
4.6481905
4.6036912
4.5612968
4.52084
4.4821727
4.4451625
4.4096881
4.3756384
4.3429113
4.3114149
4.2810581
4.2517666
4.2234219
4.1960204
4.1692032
4.1434603
4.1169722
4.0939662
4.0563005
0.002372277
0.0020555759
0.0019000684
0.0018406789
0.0018120924
0.0017940823
0.0017813388
0.0017719653
0.0017649353
0.0017595961
0.0017555164
0.0017524056
0.0017500636
0.0017483496
0.0017471652
0.0017464407
0.0017461342
0.0017462222
0.001746687
0.0017478481
0.0017476919
0.0017601027
0.001709706
0.0028273396
28.702991
26.380032
22.06093
19.523271
17.929772
16.737695
15.76759
14.957068
14.270592
13.680144
13.164555
12.708987
12.303217
11.93884
11.608421
11.306703
11.029758
10.774058
10.536833
10.315811
10.109053
9.9149635
9.7321429
9.5594612
9.3959504
9.2407048
9.0930186
8.9522511
8.8177674
8.6890493
8.5656586
8.4471584
8.3331438
8.223306
8.1173643
8.015019
7.9160078
7.8201279
7.727187
7.6369727
7.5492938
7.4640096
7.3809887
7.3000786
7.2211342
7.1440517
7.0687349
6.995078
6.9229738
6.852324
6.7830591
6.7151098
6.6483937
6.5828293
6.518352
6.4549094
6.3924455
6.3308966
6.2701978
6.210304
6.1511733
6.0927581
6.0350066
5.9778665
5.9213026
5.8652796
5.8097551
5.754684
5.7000236
5.645743
5.5918097
5.5381829
5.4848204
5.4316877
5.378754
5.3259839
5.2733362
5.220771
5.1682561
5.1157568
5.0632303
5.010633
4.9579279
4.9050756
4.8520283
4.7987369
4.7451577
4.6912361
4.6369326
4.5833393
4.5321054
4.4836484
4.4377247
4.3941227
4.3526511
4.3131366
4.2754236
4.2393751
4.2048677
4.1717891
4.140036
4.1095134
4.0801362
4.0518195
4.0244944
3.9980502
3.9724843
3.9474604
3.9234395
3.8987151
3.8772455
3.8420947
0.0023324003
0.0020164957
0.0018596306
0.0017992169
0.0017701015
0.0017517777
0.0017388124
0.0017292689
0.0017221042
0.0017166554
0.001712485
0.0017092973
0.0017068886
0.0017051157
0.0017038779
0.0017031039
0.00170275
0.0017027917
0.0017032076
0.0017043216
0.0017040955
0.0017164948
0.0016649785
0.0027493304
26.077306
24.81477
20.644091
18.208357
16.703508
15.588008
14.684275
13.930817
13.293425
12.745654
12.267629
11.845441
11.469525
11.132057
10.82612
10.546808
10.290471
10.05383
9.8343106
9.6298012
9.4385029
9.2589367
9.0898033
8.9300537
8.7787907
8.6351751
8.4985515
8.3683272
8.2439144
8.1248326
8.0106763
7.9010413
7.7955526
7.6939242
7.5958964
7.5011922
7.4095688
7.3208385
7.2348237
7.151328
7.0701745
6.9912328
6.9143817
6.83948
6.7663936
6.6950264
6.6252895
6.5570851
6.490314
6.4248854
6.3607348
6.2977983
6.2359996
6.175263
6.1155293
6.0567497
5.9988726
5.9418386
5.885588
5.8300789
5.7752727
5.7211252
5.6675883
5.6146137
5.5621688
5.510221
5.4587308
5.4076562
5.356958
5.3066074
5.2565742
5.2068205
5.157307
5.108002
5.0588767
5.0098981
4.9610279
4.9122291
4.8634717
4.8147234
4.7659441
4.7170936
4.6681371
4.619038
4.5697516
4.5202323
4.4704393
4.4203214
4.3698419
4.3200163
4.272378
4.2273161
4.1846049
4.1440483
4.1054692
4.0687066
4.0336166
4.000072
3.9679586
3.9371721
3.9076167
3.8792043
3.851856
3.8254929
3.8000512
3.7754277
3.7516205
3.7283154
3.7059447
3.6829119
3.6629142
3.6301732
0.002286667
0.0019718405
0.0018134543
0.0017518465
0.0017221071
0.0017034133
0.001690187
0.0016804434
0.0016731197
0.0016675419
0.0016632641
0.0016599854
0.0016574978
0.001655655
0.0016543538
0.0016535208
0.0016531104
0.001653097
0.0016534545
0.001654512
0.0016542046
0.0016665802
0.0016138079
0.0026576078
23.350007
23.28657
19.296214
16.959351
15.538105
14.494737
13.653471
12.953693
12.362454
11.854796
11.412075
11.021253
10.673383
10.36119
10.078249
9.8199839
9.5830015
9.3642619
9.1613721
8.972373
8.7955974
8.6296737
8.4733987
8.3257991
8.1860439
8.0533567
7.9271297
7.8068148
7.6918688
7.5818466
7.4763729
7.3750745
7.2776047
7.1836983
7.0931156
7.0056008
6.9209296
6.8389283
6.759433
6.6822624
6.6072532
6.5342845
6.4632444
6.3940027
6.3264354
6.2604537
6.1959756
6.1329107
6.0711673
6.0106616
5.9513342
5.8931257
5.8359657
5.7797844
5.7245269
5.6701485
5.6166011
5.56383
5.5117798
5.460412
5.409691
5.3595757
5.3100217
5.2609843
5.2124333
5.1643387
5.1166638
5.0693698
5.0224203
4.9757888
4.9294472
4.8833603
4.8374917
4.7918121
4.7462949
4.7009092
4.6556195
4.6103916
4.5651976
4.5200073
4.4747837
4.4294892
4.3840916
4.3385568
4.2928431
4.2469081
4.2007139
4.1542128
4.1073704
4.0611295
4.0169138
3.9750844
3.9354328
3.8977778
3.8619552
3.8278161
3.7952272
3.7640708
3.7342413
3.705642
3.6781842
3.6517863
3.6263752
3.6018778
3.578235
3.5553508
3.533224
3.5115615
3.4907676
3.4693526
3.450761
3.4203224
0.0022349555
0.0019215707
0.0017615162
0.0016985337
0.0016680656
0.0016489398
0.0016354093
0.0016254324
0.0016179234
0.0016121947
0.0016077916
0.0016044062
0.0016018261
0.0015999011
0.0015985252
0.0015976227
0.0015971456
0.001597067
0.0015973556
0.001598346
0.001597945
0.0016102818
0.0015561379
0.0025514601
20.593577
21.794408
18.015346
15.77426
14.431494
13.455895
12.673339
12.024008
11.476132
11.006155
10.596592
10.235229
9.913697
9.6252356
9.3638853
9.1253819
8.9065714
8.7046399
8.5173644
8.3429291
8.1797905
8.0266782
7.8824789
7.7462905
7.6173443
7.4949227
7.3784628
7.2674582
7.1614078
7.0598996
6.9625868
6.8691248
6.7791936
6.6925478
6.6089659
6.5282126
6.4500805
6.3744092
6.3010476
6.2298287
6.1606018
6.0932549
6.0276849
5.9637719
5.9014014
5.8404913
5.7809662
5.7227426
5.6657359
5.609869
5.5550867
5.5013344
5.4485473
5.3966605
5.3456239
5.2953961
5.2459325
5.1971829
5.1490958
5.1016361
5.0547707
5.0084617
4.9626679
4.9173483
4.8724749
4.8280201
4.7839498
4.7402282
4.6968216
4.6537056
4.6108543
4.568235
4.5258138
4.4835639
4.4414607
4.3994754
4.3575751
4.3157282
4.2739088
4.2320891
4.1902344
4.1483099
4.106286
4.0641308
4.0218057
3.9792712
3.9364922
3.8934242
3.8500352
3.807199
3.7662348
3.7274775
3.6907345
3.6558385
3.6226377
3.5909945
3.5607855
3.5319022
3.504247
3.4777303
3.4522701
3.427791
3.4042254
3.3815058
3.3595772
3.3383509
3.3178258
3.2977294
3.2784386
3.258567
3.2413153
3.2130713
0.0021772401
0.0018657598
0.0017039166
0.0016393706
0.0016080594
0.0015884336
0.0015745518
0.0015643056
0.0015565823
0.001550679
0.0015461303
0.0015426212
0.0015399334
0.0015379127
0.0015364496
0.0015354659
0.0015349107
0.0015347557
0.0015349638
0.001535875
0.0015353678
0.0015476453
0.001492059
0.0024306071
17.870096
20.334749
16.799547
14.651611
13.38221
12.470103
11.742625
11.140641
10.633462
10.198843
9.8203942
9.4866743
9.189853
8.9236543
8.6825588
8.4625939
8.2608308
8.0746677
7.9020414
7.7412702
7.5909268
7.4498358
7.316968
7.1914886
7.0726868
6.9599006
6.8526091
6.7503451
6.6526468
6.5591334
6.4694845
6.3833828
6.3005329
6.2207079
6.1437037
6.0693037
5.9973169
5.9275953
5.8599994
5.7943758
5.7305855
5.6685251
5.6080997
5.5491988
5.4917169
5.4355783
5.3807137
5.3270462
5.2744976
5.2229971
5.1724938
5.1229374
5.074268
5.026426
4.9793652
4.9330475
4.8874318
4.8424716
4.7981197
4.7543436
4.7111131
4.6683929
4.6261452
4.584332
4.5429277
4.5019069
4.4612379
4.4208876
4.3808253
4.3410282
4.3014725
4.2621279
4.2229631
4.1839533
4.1450761
4.1063045
4.0676081
4.0289577
3.9903296
3.9516979
3.9130303
3.8742948
3.835464
3.7965083
3.7573917
3.7180779
3.6785343
3.6387195
3.5986037
3.5589955
3.5211148
3.4852717
3.4512885
3.4190109
3.3882989
3.3590254
3.3310766
3.3043524
3.2787627
3.2542249
3.2306631
3.2080078
3.1861967
3.1651672
3.1448687
3.1252189
3.1062171
3.0876105
3.0697495
3.0513468
3.0353694
3.0092125
0.0021136101
0.0018046158
0.0016409044
0.0015746014
0.001542324
0.0015221245
0.0015078406
0.0014972862
0.0014893173
0.0014832134
0.0014784975
0.0014748459
0.0014720338
0.0014699025
0.0014683386
0.0014672607
0.0014666149
0.001466371
0.0014664856
0.0014673045
0.0014666782
0.001478868
0.0014218465
0.0022953468
15.232212
18.903201
15.646749
13.590284
12.389206
11.536395
10.860477
10.30285
9.8338056
9.4323178
9.0830217
8.7752032
8.5015343
8.256192
8.0340719
7.8314753
7.6456831
7.4742934
7.3153927
7.1674246
7.0290708
6.8992448
6.7769967
6.6615539
6.5522606
6.4485066
6.3498103
6.2557413
6.1658747
6.0798587
5.9973978
5.9181998
5.8419929
5.7685672
5.697735
5.6292971
5.5630779
5.4989407
5.4367574
5.376387
5.3177016
5.2606057
5.2050119
5.150819
5.0979295
5.0462739
4.9957886
4.9464026
4.8980441
4.850648
4.8041674
4.758556
4.7137589
4.6697207
4.6263994
4.58376
4.5417645
4.5003701
4.4595332
4.4192241
4.3794152
4.3400738
4.301165
4.2626538
4.2245169
4.1867308
4.1492664
4.1120929
4.0751822
4.0385134
4.0020646
3.9658076
3.9297135
3.8937598
3.8579257
3.8221862
3.7865132
3.7508799
3.7152644
3.6796427
3.643985
3.6082617
3.5724475
3.5365151
3.5004312
3.464162
3.4276777
3.3909398
3.3539204
3.3173664
3.2824042
3.2493198
3.2179497
3.1881519
3.1597975
3.1327692
3.1069621
3.0822843
3.0586527
3.035991
3.0142293
2.9933037
2.9731565
2.9537302
2.9349782
2.9168243
2.899268
2.8820753
2.865571
2.8485631
2.8337947
2.8096182
0.0020442849
0.0017384971
0.0015728965
0.0015046456
0.0014712715
0.0014504198
0.0014356799
0.0014247759
0.0014165281
0.0014101963
0.0014052898
0.0014014753
0.0013985212
0.0013962632
0.0013945835
0.0013933973
0.0013926472
0.001392301
0.0013923082
0.00139302
0.0013922622
0.0014043235
0.0013459964
0.002146693
12.729217
17.491955
14.554542
12.589317
11.451681
10.654053
10.026275
9.5101162
9.0767349
8.7062307
8.3841989
8.100605
7.848589
7.6227501
7.4183746
7.2320204
7.0611641
6.9035907
6.7575271
6.621534
6.494395
6.3751068
6.2627933
6.1567407
6.056344
5.9610419
5.8703893
5.7839904
5.7014543
5.622457
5.5467257
5.4739921
5.404006
5.3365737
5.2715224
5.2086696
5.1478539
5.0889493
5.031838
4.9763909
4.9224903
4.8700482
4.8189843
4.7692056
4.7206226
4.6731714
4.6267937
4.5814241
4.5369967
4.4934517
4.450746
4.4088372
4.3676745
4.3272072
4.2873969
4.2482113
4.2096155
4.1715701
4.1340349
4.096983
4.0603889
4.0242226
3.9884517
3.9530444
3.9179791
3.8832343
3.8487832
3.8145974
3.7806512
3.7469253
3.7133996
3.6800482
3.6468442
3.6137672
3.5807981
3.5479137
3.5150881
3.4822967
3.4495194
3.4167339
3.3839128
3.3510287
3.3180586
3.2849771
3.2517533
3.2183563
3.1847585
3.1509242
3.1168276
3.0831572
3.0509509
3.0204722
2.9915708
2.9641162
2.9379898
2.9130837
2.8893015
2.8665586
2.8447786
2.8238913
2.8038324
2.784543
2.7659703
2.7480611
2.7307725
2.7140343
2.6978463
2.6819921
2.6667721
2.6510853
2.6374613
2.6151591
0.0019696234
0.0016679219
0.0015004905
0.0014301128
0.0013955079
0.0013739221
0.0013586705
0.0013473744
0.0013388132
0.0013322245
0.001327103
0.0013231045
0.0013199895
0.0013175876
0.0013157763
0.0013144668
0.0013135977
0.0013131347
0.0013130198
0.0013136084
0.0013127082
0.0013245825
0.0012652576
0.0019864727
10.404069
16.092925
13.519934
11.647716
10.568917
9.8224546
9.2394934
8.762005
8.3618989
8.0203061
7.7237157
7.4627283
7.2309186
7.0232787
6.8354606
6.664263
6.5073442
6.3626641
6.2285806
6.1037639
5.9870925
5.8776405
5.7746009
5.6773148
5.5852245
5.4978142
5.4146733
5.3354376
5.2597486
5.1873078
5.1178636
5.0511698
4.9869968
4.9251657
4.8655175
4.8078856
4.7521215
4.6981092
4.6457408
4.5948979
4.5454725
4.4973836
4.4505574
4.4049089
4.3603556
4.316839
4.2743058
4.2326958
4.1919485
4.1520093
4.1128384
4.074397
4.0366385
3.9995161
3.962995
3.9270454
3.8916353
3.8567285
3.8222881
3.7882895
3.7547094
3.7215201
3.688692
3.6561956
3.6240115
3.59212
3.5604962
3.529114
3.4979499
3.4669865
3.436205
3.4055816
3.3750916
3.3447164
3.3144385
3.2842365
3.2540863
3.2239657
3.193856
3.1637368
3.1335828
3.1033689
3.0730738
3.0426742
3.0121415
2.9814475
2.9505665
2.9194659
2.8881215
2.8571668
2.8275565
2.7995329
2.7729579
2.7477117
2.7236856
2.7007803
2.6789074
2.6579893
2.6379558
2.6187424
2.60029
2.5825445
2.5654575
2.5489801
2.5330728
2.517671
2.5027745
2.4881842
2.4741766
2.4597377
2.4471942
2.4266614
0.0018901254
0.0015935662
0.0014244651
0.0013518087
0.0013158406
0.0012934384
0.0012776195
0.0012658887
0.0012569795
0.0012501051
0.0012447437
0.0012405395
0.0012372443
0.0012346809
0.0012327215
0.0012312731
0.0012302699
0.0012296751
0.0012294227
0.0012298711
0.0012288199
0.001240424
0.0011806553
0.0018173565
8.2859071
14.702642
12.539032
10.764265
9.7401391
9.0409456
8.4995774
8.0580546
7.6889186
7.3742377
7.10133
6.8613878
6.6483892
6.4576899
6.285284
6.1281953
5.9842508
5.8515732
5.7286431
5.6142318
5.5073067
5.4070137
5.3126103
5.2234884
5.1391346
5.0590755
4.9829322
4.9103704
4.8410613
4.7747303
4.7111457
4.6500815
4.5913274
4.5347182
4.4801081
4.4273445
4.3762916
4.3268427
4.2788984
4.2323509
4.1871013
4.1430745
4.1002032
4.0584096
4.017618
3.9777748
3.938831
3.9007318
3.8634214
3.82685
3.7909811
3.7557789
3.7212011
3.6872044
3.6537573
3.6208324
3.5884003
3.5564278
3.5248811
3.4937377
3.4629764
3.4325717
3.4024965
3.3727237
3.3432356
3.3140142
3.2850366
3.2562789
3.2277196
3.1993426
3.171131
3.1430627
3.115115
3.087271
3.0595148
3.0318265
3.004184
2.9765669
2.9489584
2.9213394
2.8936868
2.8659774
2.8381919
2.8103088
2.7823018
2.7541448
2.7258146
2.6972808
2.668521
2.6401173
2.6129459
2.5872293
2.5628406
2.5396703
2.5176187
2.4965947
2.4765172
2.4573153
2.4389246
2.4212858
2.4043449
2.3880521
2.3723631
2.3572331
2.3426259
2.328482
2.3148014
2.301401
2.2885349
2.2752715
2.2637453
2.2448783
0.0018064263
0.0015162478
0.0013457681
0.0012707259
0.0012332722
0.0012099752
0.0011935363
0.0011813308
0.0011720409
0.0011648529
0.0011592276
0.0011547966
0.0011513022
0.00114856
0.0011464362
0.0011448333
0.0011436809
0.0011429391
0.0011425341
0.0011428248
0.0011416181
0.0011528364
0.0010935027
0.0016428057
6.3974656
13.31866
11.606709
9.937353
8.9644014
8.3087422
7.8058546
7.3976903
7.0573053
6.767612
6.5166937
6.2962932
6.1007621
5.925792
5.7676952
5.623706
5.4918079
5.3702745
5.2577006
5.1529519
5.0550776
4.9632909
4.8769086
4.7953702
4.7182033
4.6449737
4.5753324
4.5089721
4.4455922
4.3849398
4.3268018
4.2709712
4.2172553
4.1655018
4.1155768
4.0673413
4.0206707
3.9754669
3.931639
3.8890884
3.8477246
3.8074786
3.7682885
3.7300836
3.6927943
3.6563715
3.6207705
3.585941
3.551832
3.518398
3.4856054
3.4534218
3.421808
3.3907246
3.3601427
3.3300376
3.300382
3.2711457
3.2422975
3.2138172
3.1856853
3.1578785
3.1303718
3.1031405
3.0761685
3.0494393
3.0229321
2.9966246
2.9704975
2.9445361
2.9187247
2.8930432
2.8674707
2.8419918
2.8165921
2.7912532
2.7659548
2.7406784
2.7154085
2.6901278
2.6648147
2.6394483
2.6140109
2.5884827
2.5628394
2.5370574
2.5111152
2.4849849
2.4586459
2.4326317
2.4077453
2.3841903
2.3618505
2.340626
2.3204253
2.3011652
2.2827713
2.2651788
2.2483288
2.2321671
2.216644
2.2017142
2.187337
2.1734714
2.1600842
2.147121
2.1345816
2.1222982
2.1105036
2.0983442
2.0877732
2.0704697
0.0017192925
0.0014368797
0.0012654859
0.0011880192
0.0011489781
0.0011247175
0.0011076134
0.0010948988
0.0010851996
0.0010776735
0.0010717629
0.0010670858
0.0010633747
0.0010604374
0.0010581341
0.001056362
0.0010550459
0.0010541428
0.0010535709
0.0010536864
0.0010523255
0.0010630039
0.0010053972
0.0014668962
4.7553304
11.939633
10.716605
9.1648293
8.240497
7.6248602
7.15747
6.7801644
6.4664038
6.1998535
5.9693008
5.7669995
5.587647
5.4272434
5.2823964
5.1505373
5.0297943
4.9185803
4.8155968
4.7197964
4.6303045
4.5463962
4.4674436
4.3929302
4.3224213
4.2555195
4.1919029
4.1312896
4.0734047
4.0180159
3.964927
3.9139484
3.8649039
3.8176532
3.7720734
3.7280377
3.6854323
3.6441669
3.6041583
3.5653167
3.5275593
3.4908225
3.4550497
3.4201764
3.386139
3.3528924
3.3203959
3.2886034
3.2574682
3.226949
3.1970149
3.1676361
3.1387771
3.1104015
3.0824832
3.0549995
3.0279256
3.0012337
2.9748953
2.948892
2.9232062
2.8978164
2.8726997
2.8478336
2.8232033
2.7987941
2.7745867
2.7505606
2.7266983
2.7029865
2.6794108
2.6559528
2.6325931
2.6093181
2.5861145
2.5629654
2.5398522
2.5167581
2.493669
2.4705688
2.447438
2.4242572
2.4010106
2.3776798
2.3542427
2.3306775
2.3069647
2.2830788
2.2590005
2.2352181
2.2124663
2.1909309
2.1705059
2.1510998
2.1326292
2.1150179
2.098198
2.0821104
2.0667012
2.0519208
2.0377239
2.024069
2.0109189
1.9982362
1.9859906
1.9741321
1.9626607
1.9514229
1.9406312
1.9295056
1.9198289
1.9039887
0.0016295876
0.0013564435
0.0011847962
0.0011049602
0.001064265
0.0010389894
0.0010211869
0.0010079383
0.00099780879
0.00098992599
0.00098371307
0.00097877456
0.00097483239
0.00097168653
0.00096919062
0.00096723671
0.00096574442
0.00096466731
0.00096391632
0.00096384012
0.00096233381
0.00097227756
0.00091820014
0.0012939694
3.370543
10.564057
9.8621085
8.4439004
7.5668881
6.988069
6.5533464
6.20452
5.9153582
5.6701931
5.458457
5.2728778
5.1084726
4.9615248
4.8289151
4.7082592
4.5978185
4.4961347
4.4020083
4.3144725
4.2327227
4.1560914
4.0840018
4.015978
3.9516204
3.8905651
3.8325156
3.7772135
3.7244073
3.6738837
3.6254622
3.5789694
3.5342443
3.4911575
3.4495962
3.4094452
3.3706004
3.3329787
3.296504
3.2610945
3.2266747
3.193186
3.1605766
3.1287877
3.0977614
3.067456
3.0378346
3.008855
2.9804747
2.952656
2.9253704
2.8985908
2.8722848
2.8464191
2.82097
2.7959167
2.7712366
2.7469042
2.7228936
2.6991879
2.6757712
2.6526238
2.6297248
2.6070537
2.584597
2.5623412
2.5402688
2.5183609
2.4966018
2.4749793
2.4534802
2.4320876
2.410784
2.3895568
2.3683941
2.3472803
2.3261985
2.3051332
2.2840717
2.2629995
2.2418983
2.2207508
2.1995423
2.1782562
2.1568722
2.1353703
2.113733
2.0919366
2.0699635
2.0482597
2.0274962
2.0078423
1.9892012
1.9714896
1.9546314
1.9385569
1.9232043
1.9085195
1.8944537
1.8809614
1.8680012
1.8555352
1.8435297
1.8319504
1.8207697
1.8099419
1.7994669
1.7892048
1.779349
1.7691886
1.7603468
1.745872
0.0015382388
0.0012759388
0.0011049049
0.001022874
0.000980509
0.00095419346
0.00093567793
0.0009218849
0.00091131518
0.00090306587
0.00089654102
0.00089133151
0.00088714892
0.00088378522
0.00088108752
0.00087894257
0.0008772648
0.00087600409
0.0008750649
0.00087478277
0.00087314805
0.00088213314
0.00083376975
0.0011283397
2.2511249
9.190596
9.0360233
7.7709951
6.941649
6.3968641
5.992166
5.6695746
5.4030975
5.1776541
4.9832664
4.8131023
4.6624754
4.5279282
4.4065931
4.2962582
4.1953081
4.102403
4.0164352
3.9365123
3.8618943
3.7919665
3.7261994
3.6641545
3.6054645
3.5497965
3.4968773
3.4464699
3.3983447
3.3523058
3.3081871
3.2658301
3.2250877
3.1858407
3.1479857
3.1114178
3.0760421
3.0417821
3.008568
2.9763258
2.9449863
2.9144956
2.8848063
2.8558651
2.8276189
2.8000297
2.7730635
2.7466822
2.7208468
2.6955229
2.6706844
2.6463068
2.6223603
2.5988145
2.575648
2.5528418
2.530375
2.5082247
2.4863669
2.4647865
2.443469
2.4223963
2.4015494
2.3809095
2.3604645