/*--------------------------------*- C++ -*----------------------------------*\
  =========                 |
  \\      /  F ield         | OpenFOAM: The Open Source CFD Toolbox
   \\    /   O peration     | Website:  https://openfoam.org
    \\  /    A nd           | Version:  12
     \\/     M anipulation  |
\*---------------------------------------------------------------------------*/
FoamFile
{
    format      ascii;
    class       volScalarField;
    location    "900";
    object      k;
}
// * * * * * * * * * * * * * * * * * * * * * * * * * * * * * * * * * * * * * //

dimensions      [0 2 -2 0 0 0 0];

internalField   nonuniform List<scalar> 
7480
(
0.00064906924
0.0016620216
0.0030083791
0.00443219
0.0057258716
0.0067710189
0.0075298869
0.008019927
0.0082874503
0.0083866411
0.0083671514
0.008268951
0.0081217235
0.0079463152
0.0077567876
0.007562418
0.0073694687
0.0071824689
0.0070046376
0.0068384936
0.0066861884
0.0065496467
0.0064305147
0.0063300241
0.0062488387
0.0061865916
0.0061410262
0.0061087323
0.0060850214
0.0060648381
0.0060440472
0.0060202542
0.0059928464
0.005962579
0.0059306429
0.0058979801
0.0058649853
0.0058316055
0.0057976316
0.0057629788
0.0057278073
0.0056924446
0.0056572293
0.0056223795
0.0055879709
0.0055540062
0.0055204853
0.0054874246
0.0054548429
0.0054227492
0.00539114
0.0053600023
0.0053293222
0.0052990921
0.0052693051
0.0052399482
0.0052110062
0.0051824697
0.0051543347
0.0051265868
0.0050992124
0.0050721997
0.0050455377
0.0050192174
0.0049932318
0.0049675734
0.0049422345
0.004917208
0.0048924861
0.0048680614
0.0048439268
0.0048200753
0.0047964998
0.0047731939
0.0047501511
0.0047273653
0.0047048305
0.0046825407
0.0046604902
0.0046386737
0.0046170855
0.0045957206
0.0045745739
0.0045536402
0.0045329148
0.0045123926
0.0044920689
0.0044719386
0.0044519969
0.0044322374
0.0044126564
0.0043932409
0.0043739966
0.0043548757
0.0043359474
0.0043169751
0.0042983996
0.004278847
0.0042624218
0.0042319732
0.0001538063
0.00017341763
0.00021522909
0.00028630273
0.00039160572
0.00052195953
0.0006631225
0.00080275527
0.00093238617
0.0010477685
0.0011487033
0.0012381615
0.0013210292
0.0014037976
0.00149483
0.0016043718
0.0017493312
0.0019377221
0.0021483837
0.0023807378
0.0026379822
0.0029220778
0.0032314739
0.0035623087
0.0039057213
0.0042467583
0.0045669686
0.0048476802
0.0050734444
0.0052380999
0.0053461215
0.005409448
0.0054428726
0.0054595341
0.0054681514
0.0054724405
0.0054727351
0.0054683052
0.0054589979
0.0054458061
0.0054304203
0.0054143758
0.0053985584
0.005383093
0.0053677305
0.0053522569
0.0053366383
0.0053209322
0.0053051593
0.0052892724
0.0052732086
0.0052569401
0.0052404718
0.0052238085
0.0052069419
0.0051898647
0.0051725829
0.0051551113
0.0051374429
0.0051196236
0.0051016544
0.0050835399
0.0050652942
0.0050469347
0.0050284776
0.0050099374
0.0049913272
0.0049726582
0.0049539409
0.0049351859
0.0049164027
0.0048976007
0.0048787887
0.0048599752
0.0048411682
0.0048223747
0.0048036019
0.0047848559
0.0047661427
0.0047474677
0.004728836
0.0047102522
0.0046917206
0.004673245
0.004654829
0.0046364758
0.0046181882
0.0045999689
0.0045818198
0.0045637428
0.0045457388
0.0045278092
0.0045099516
0.0044921674
0.0044744446
0.0044567911
0.0044391841
0.0044213437
0.0044053943
0.0043772439
0.000146812
0.00014797178
0.00014951634
0.00015132378
0.00015340551
0.00015572105
0.00015817998
0.00016068992
0.00016317331
0.00016557018
0.00016785885
0.00017008082
0.00017235164
0.00017487746
0.00017801242
0.00018224219
0.00018863557
0.00019782254
0.00021455092
0.00024157226
0.00028119061
0.00033613754
0.00041026957
0.00050804881
0.0006368616
0.0008070193
0.0010456701
0.0013345643
0.0016634328
0.0020202252
0.0023887238
0.002749873
0.0030836886
0.003373681
0.003610547
0.0037941439
0.0039317804
0.0040349708
0.00411547
0.0041823714
0.0042408196
0.0042926508
0.0043380163
0.0043769393
0.0044100533
0.0044384766
0.0044633143
0.0044852866
0.004504713
0.0045217329
0.0045365019
0.0045492299
0.0045601172
0.0045693086
0.0045769075
0.0045830095
0.0045877137
0.0045911142
0.0045932867
0.0045942829
0.0045941896
0.0045930864
0.0045910421
0.0045881195
0.0045843769
0.0045798685
0.0045746441
0.0045687498
0.0045622286
0.004555121
0.0045474651
0.0045392971
0.004530651
0.004521559
0.0045120515
0.004502157
0.0044919026
0.0044813135
0.0044704136
0.0044592253
0.0044477698
0.004436067
0.0044241356
0.0044119932
0.0043996563
0.0043871405
0.0043744604
0.0043616297
0.0043486612
0.0043355673
0.0043223582
0.0043090468
0.0042956364
0.0042821506
0.0042685622
0.004254954
0.0042411772
0.0042273589
0.0042145964
0.0041923728
0.00014626917
0.000146488
0.00014673335
0.00014696624
0.00014717112
0.0001473365
0.00014744868
0.00014749368
0.00014745574
0.00014732164
0.00014708025
0.00014672137
0.00014623753
0.00014563273
0.00014491337
0.00014408912
0.00014318661
0.00014222559
0.00014127344
0.00014050884
0.00013983484
0.00013997661
0.0001406909
0.00014256802
0.00014620548
0.0001524765
0.00016373936
0.00018213133
0.00021502346
0.00026924347
0.00035101636
0.00046726358
0.00062617682
0.00084922359
0.001117876
0.0014156551
0.0017267996
0.0020339877
0.0023200916
0.0025722372
0.0027846504
0.0029588728
0.0031016449
0.0032215638
0.0033260617
0.003419724
0.0035044946
0.0035809289
0.0036494424
0.003710854
0.0037662304
0.0038165027
0.0038622826
0.0039039516
0.0039418286
0.00397624
0.0040074941
0.0040358488
0.0040615168
0.0040846796
0.0041055142
0.0041241871
0.0041408485
0.0041556353
0.0041686732
0.0041800773
0.004189953
0.0041983973
0.0042055003
0.0042113454
0.0042160104
0.004219568
0.0042220864
0.0042236293
0.0042242568
0.0042240248
0.0042229862
0.0042211904
0.004218684
0.0042155107
0.0042117116
0.0042073255
0.0042023887
0.0041969356
0.0041909984
0.0041846075
0.0041777914
0.0041705773
0.0041629904
0.0041550553
0.0041467933
0.0041382288
0.0041293746
0.0041202677
0.0041108837
0.0041013385
0.0040914404
0.0040815224
0.0040720197
0.0040554402
0.00014616184
0.00014622946
0.00014629986
0.00014635895
0.00014640016
0.0001464193
0.00014641229
0.00014637564
0.00014630575
0.0001461987
0.00014605118
0.00014586027
0.00014562197
0.00014532815
0.00014497533
0.00014456173
0.00014408724
0.00014355272
0.00014296316
0.00014233105
0.00014166385
0.00014099524
0.0001403421
0.00013972847
0.00013917351
0.00013873228
0.0001383739
0.00013846212
0.00013893101
0.00014030608
0.00014310841
0.0001481268
0.00015660813
0.0001713622
0.0001968374
0.00024158163
0.00031239626
0.00041596451
0.00056194914
0.00076017996
0.00099374259
0.001248495
0.0015095496
0.0017617811
0.0019931886
0.0021974429
0.0023740668
0.0025269087
0.0026614872
0.0027825114
0.002892776
0.0029934972
0.0030852904
0.0031688813
0.0032452084
0.0033151745
0.0033794642
0.0034385715
0.0034929137
0.0035428825
0.0035888374
0.0036310926
0.0036699232
0.0037055779
0.0037382839
0.003768247
0.003795653
0.0038206716
0.0038434586
0.003864157
0.003882899
0.0038998067
0.0039149938
0.0039285658
0.0039406212
0.0039512518
0.0039605434
0.0039685762
0.0039754255
0.0039811616
0.0039858506
0.0039895547
0.003992332
0.0039942374
0.0039953221
0.0039956348
0.003995221
0.0039941236
0.0039923832
0.0039900383
0.0039871239
0.0039836773
0.0039797232
0.0039753109
0.0039704262
0.0039652027
0.0039594372
0.0039535986
0.0039475629
0.0039368195
0.00014612517
0.00014615039
0.00014617156
0.00014618336
0.00014618488
0.00014617497
0.00014615176
0.00014611338
0.00014605812
0.0001459843
0.00014589012
0.00014577295
0.00014563222
0.00014546569
0.00014527094
0.00014504576
0.00014478833
0.00014449711
0.00014417105
0.00014380998
0.00014341456
0.00014298627
0.00014252863
0.00014204346
0.0001415395
0.00014103197
0.00014052411
0.00014004307
0.00013959713
0.00013922657
0.00013896569
0.00013887487
0.0001390183
0.00013952044
0.0001406191
0.00014281035
0.00014677504
0.00015345543
0.00016469534
0.00018338958
0.00021672562
0.00027180863
0.00035527616
0.0004757055
0.00064038572
0.00083623037
0.0010521307
0.0012753829
0.0014936132
0.0016973755
0.0018819545
0.0020471713
0.0021957109
0.0023308571
0.0024549844
0.0025693243
0.0026745552
0.0027713627
0.0028605633
0.0029429391
0.0030191168
0.0030895947
0.0031548155
0.0032151921
0.0032710984
0.003322864
0.0033707833
0.0034151249
0.0034561333
0.0034940312
0.0035290223
0.003561294
0.0035910189
0.0036183567
0.0036434552
0.0036664517
0.0036874738
0.0037066406
0.003724063
0.0037398446
0.0037540826
0.0037668678
0.0037782851
0.0037884143
0.0037973304
0.0038051037
0.0038118002
0.0038174822
0.0038222083
0.0038260341
0.0038290106
0.0038311898
0.0038326117
0.0038333378
0.003833369
0.0038328511
0.003831582
0.003830144
0.0038278663
0.0038233502
0.00014611548
0.00014612251
0.00014612291
0.00014611501
0.00014610038
0.00014607935
0.00014605085
0.00014601354
0.00014596628
0.00014590802
0.00014583774
0.00014575418
0.00014565638
0.00014554328
0.0001454137
0.00014526633
0.00014509987
0.00014491308
0.00014470479
0.000144474
0.00014421998
0.00014394219
0.00014364069
0.00014331551
0.00014296757
0.00014259978
0.00014221442
0.00014181588
0.00014140813
0.00014099632
0.00014059186
0.00014021309
0.00013987106
0.0001395829
0.0001393742
0.00013927493
0.00013937367
0.00013972243
0.00014048703
0.00014184771
0.00014428139
0.00014853206
0.00015561202
0.0001674207
0.00018681169
0.00022092073
0.0002762302
0.00035882849
0.00048007421
0.00063336328
0.00081104375
0.0010033627
0.0011994799
0.0013898348
0.0015682899
0.0017326529
0.0018836582
0.0020231085
0.0021524876
0.0022726296
0.0023840786
0.0024874313
0.0025833635
0.002672505
0.0027553825
0.0028324518
0.0029041336
0.0029708175
0.0030328551
0.0030905637
0.0031442337
0.0031941318
0.0032405029
0.0032835721
0.0033235476
0.0033606219
0.0033949735
0.0034267684
0.0034561607
0.0034832945
0.0035083039
0.0035313144
0.0035524432
0.0035718001
0.003589488
0.0036056033
0.0036202366
0.003633473
0.0036453925
0.0036560709
0.0036655781
0.0036739838
0.0036813451
0.0036877382
0.0036931817
0.0036978329
0.003701496
0.0037048644
0.0037066932
0.0037089183
0.00014611787
0.00014611526
0.00014610547
0.0001460878
0.00014606459
0.00014603705
0.00014600489
0.0001459673
0.00014592348
0.00014587265
0.00014581405
0.00014574688
0.00014567035
0.00014558372
0.0001454862
0.00014537694
0.00014525508
0.0001451197
0.00014496992
0.00014480484
0.00014462367
0.00014442568
0.0001442103
0.00014397707
0.00014372571
0.00014345647
0.00014316986
0.00014286693
0.00014254903
0.00014221772
0.00014187572
0.00014152799
0.00014117975
0.00014083448
0.00014050049
0.00014018948
0.00013991669
0.00013969975
0.0001395344
0.00013951333
0.00013960551
0.00013992645
0.00014060181
0.00014182451
0.00014380731
0.00014718745
0.00015288474
0.00016220394
0.00017761954
0.00020384706
0.00024712035
0.00031332397
0.00041205273
0.00054035776
0.00069292342
0.00086202346
0.0010383798
0.0012133637
0.0013809653
0.0015385313
0.0016858891
0.0018238068
0.0019529557
0.0020737432
0.0021865503
0.0022918602
0.0023901953
0.002482034
0.0025678014
0.0026478945
0.0027226875
0.0027925266
0.0028577298
0.0029185916
0.0029753852
0.0030283639
0.0030777627
0.0031238001
0.0031666797
0.003206591
0.0032437108
0.0032782043
0.0033102259
0.00333992
0.0033674218
0.0033928582
0.003416348
0.003438003
0.003457928
0.003476222
0.0034929772
0.0035082834
0.0035222178
0.0035348733
0.003546289
0.003556635
0.0035657234
0.0035743656
0.0035806972
0.0035902685
0.00014612831
0.00014611918
0.00014610362
0.0001460808
0.00014605279
0.00014602109
0.000145986
0.00014594725
0.00014590439
0.00014585687
0.00014580412
0.00014574552
0.00014568044
0.00014560828
0.00014552845
0.00014544031
0.00014534322
0.0001452365
0.00014511947
0.00014499143
0.0001448517
0.00014469961
0.00014453455
0.00014435595
0.00014416332
0.0001439563
0.00014373473
0.00014349864
0.00014324829
0.00014298411
0.00014270683
0.0001424179
0.00014211941
0.00014181329
0.00014150221
0.00014119007
0.00014088196
0.00014058432
0.00014029792
0.00014004528
0.00013982754
0.00013966418
0.00013955547
0.00013959062
0.00013974178
0.000140114
0.00014084754
0.0001421019
0.00014412886
0.00014744761
0.00015293892
0.00016184481
0.00017643755
0.00020088448
0.00024078144
0.00030208652
0.00039217081
0.00050846303
0.00064705196
0.000801285
0.00096294106
0.001124515
0.0012809576
0.0014300078
0.0015711928
0.0017046238
0.0018304296
0.0019487594
0.0020598848
0.0021641707
0.0022619948
0.002353716
0.0024396822
0.0025202312
0.0025956839
0.0026663425
0.0027324916
0.0027943988
0.0028523151
0.002906476
0.002957102
0.0030044002
0.0030485644
0.0030897765
0.003128207
0.0031640162
0.0031973544
0.0032283629
0.0032571745
0.0032839144
0.0033086996
0.0033316429
0.0033528442
0.0033724153
0.0033904182
0.003407038
0.0034220949
0.00343653
0.0034478036
0.0034654024
0.00014614478
0.00014613074
0.00014611138
0.00014608569
0.00014605508
0.00014602091
0.00014598374
0.00014594368
0.0001459006
0.00014585425
0.00014580422
0.00014575006
0.00014569127
0.00014562738
0.00014555787
0.00014548225
0.0001454
0.00014531057
0.00014521343
0.000145108
0.00014499373
0.00014487006
0.00014473642
0.00014459229
0.00014443716
0.00014427056
0.0001440921
0.0001439015
0.00014369857
0.00014348327
0.00014325565
0.00014301604
0.00014276512
0.00014250375
0.00014223302
0.00014195446
0.00014167013
0.00014138297
0.00014109426
0.00014081011
0.00014053392
0.00014027211
0.00014002612
0.00013981744
0.00013965372
0.00013951619
0.00013952066
0.00013960347
0.00013986121
0.0001403718
0.00014126775
0.00014273919
0.00014506939
0.00014881516
0.00015489763
0.00016472055
0.00018057827
0.00020704127
0.00024906699
0.00031342025
0.00040279253
0.00051566064
0.00064809066
0.00079354778
0.00094464234
0.0010952518
0.0012416824
0.0013823085
0.0015165432
0.001644127
0.0017649499
0.0018790731
0.001986694
0.0020880682
0.0021834697
0.0022731837
0.0023574999
0.0024367031
0.0025110696
0.002580865
0.0026463432
0.0027077458
0.0027653016
0.0028192275
0.0028697284
0.0029169975
0.0029612174
0.0030025602
0.003041188
0.0030772539
0.0031109018
0.0031422693
0.0031714812
0.0031986703
0.0032239233
0.003247443
0.0032690566
0.003289849
0.0033065431
0.0033329183
0.00014616678
0.00014614875
0.0001461265
0.00014609894
0.00014606691
0.00014603141
0.00014599298
0.00014595191
0.00014590831
0.00014586213
0.00014581318
0.00014576117
0.00014570574
0.00014564653
0.00014558312
0.0001455151
0.00014544203
0.00014536348
0.00014527898
0.00014518806
0.00014509026
0.0001449851
0.0001448721
0.00014475079
0.00014462068
0.00014448134
0.00014433232
0.00014417326
0.00014400382
0.00014382372
0.00014363278
0.0001434309
0.00014321815
0.00014299477
0.00014276114
0.00014251785
0.00014226576
0.00014200616
0.00014174004
0.00014146955
0.00014119676
0.00014092464
0.00014065455
0.00014039236
0.000140145
0.00013990634
0.00013970618
0.00013954215
0.00013942745
0.00013938387
0.00013944009
0.00013964914
0.00014006616
0.00014078935
0.00014197716
0.00014387155
0.00014680184
0.00015150198
0.00015902642
0.00017113154
0.00019082208
0.00022257731
0.00027192202
0.00034353261
0.00043765627
0.00055249321
0.00068321407
0.00082319512
0.00096615774
0.001107716
0.0012454681
0.0013782323
0.0015053667
0.0016265119
0.0017415405
0.0018504967
0.0019535183
0.0020507929
0.0021425408
0.0022290004
0.0023104174
0.0023870376
0.0024591035
0.0025268512
0.0025905085
0.0026502944
0.0027064181
0.0027590789
0.0028084664
0.0028547606
0.0028981319
0.002938743
0.0029767444
0.0030122909
0.0030454949
0.003076579
0.0031053762
0.0031331292
0.0031557572
0.0031917183
0.00014619398
0.00014617269
0.00014614806
0.00014611907
0.00014608613
0.00014604992
0.00014601085
0.00014596921
0.0001459252
0.00014587891
0.0001458303
0.00014577923
0.0001457255
0.00014566884
0.00014560895
0.0001455455
0.00014547814
0.00014540649
0.00014533018
0.0001452488
0.00014516195
0.00014506922
0.00014497021
0.00014486449
0.00014475163
0.00014463124
0.0001445029
0.00014436621
0.00014422081
0.00014406635
0.00014390253
0.00014372909
0.00014354585
0.00014335273
0.00014314975
0.00014293702
0.00014271484
0.00014248371
0.00014224417
0.0001419971
0.00014174356
0.00014148504
0.00014122265
0.00014095839
0.00014069597
0.00014043444
0.00014018176
0.00013994189
0.00013971885
0.00013952236
0.00013936097
0.00013924915
0.00013920417
0.00013925372
0.00013943978
0.00013982325
0.00014047289
0.00014152956
0.00014320189
0.00014579919
0.00014985319
0.00015627393
0.00016650007
0.00018287523
0.00020928453
0.00025058214
0.00031138249
0.00039318168
0.00049552428
0.00061478097
0.00074512847
0.00088057838
0.0010165929
0.0011503905
0.0012804006
0.0014056906
0.0015257038
0.0016401649
0.0017489943
0.0018522311
0.001949988
0.0020424264
0.002129738
0.002212131
0.002289822
0.0023630299
0.0024319721
0.0024968617
0.0025579057
0.0026153039
0.0026692481
0.0027199233
0.0027675028
0.0028121627
0.0028540404
0.0028933788
0.0029300143
0.0029653612
0.0029944646
0.0030408724
0.00014622597
0.00014620205
0.00014617545
0.00014614526
0.00014611165
0.00014607502
0.00014603566
0.00014599379
0.00014594962
0.00014590328
0.0001458548
0.00014580416
0.00014575127
0.00014569597
0.00014563806
0.00014557729
0.00014551341
0.00014544611
0.00014537507
0.00014529997
0.00014522046
0.00014513619
0.00014504679
0.00014495192
0.00014485118
0.00014474422
0.00014463066
0.00014451013
0.00014438226
0.0001442467
0.00014410312
0.00014395118
0.00014379062
0.00014362119
0.00014344272
0.00014325511
0.00014305834
0.0001428525
0.0001426378
0.00014241457
0.00014218328
0.00014194464
0.00014169937
0.00014144834
0.00014119333
0.00014093477
0.00014067519
0.00014041729
0.00014016337
0.00013991736
0.00013968349
0.00013946732
0.00013927829
0.00013912467
0.00013901865
0.00013898497
0.00013903968
0.00013922552
0.00013960351
0.00014024752
0.00014127336
0.00014287777
0.00014535619
0.00014916365
0.00015513451
0.000164569
0.0001795457
0.00020348105
0.00024092121
0.00029580201
0.00037039514
0.00046486083
0.00057619695
0.00069916459
0.00082820821
0.00095895405
0.0010885416
0.0012152157
0.0013378752
0.0014558413
0.0015687407
0.0016764078
0.0017788097
0.0018760019
0.0019680995
0.0020552555
0.0021376468
0.0022154644
0.0022889058
0.002358171
0.0024234587
0.0024849646
0.0025428775
0.0025973888
0.0026486565
0.0026969419
0.0027420801
0.0027856699
0.002821806
0.002879559
0.00014626221
0.00014623623
0.00014620804
0.00014617687
0.00014614272
0.00014610582
0.00014606635
0.00014602448
0.00014598036
0.00014593411
0.0001458858
0.00014583547
0.00014578307
0.00014572854
0.00014567176
0.00014561257
0.00014555079
0.00014548618
0.00014541851
0.00014534751
0.00014527288
0.00014519434
0.00014511157
0.00014502427
0.00014493211
0.00014483475
0.00014473186
0.00014462311
0.00014450816
0.00014438666
0.00014425828
0.00014412268
0.00014397955
0.0001438286
0.00014366954
0.00014350217
0.0001433263
0.00014314183
0.00014294873
0.00014274703
0.00014253688
0.00014231856
0.00014209242
0.00014185888
0.00014161875
0.00014137257
0.00014112135
0.00014086651
0.0001406095
0.00014035224
0.000140097
0.00013984646
0.00013960485
0.0001393766
0.00013916708
0.0001389875
0.00013884473
0.00013874223
0.00013872903
0.00013880693
0.00013901465
0.00013941888
0.00014009611
0.00014115809
0.00014279716
0.00014531224
0.00014915409
0.0001551206
0.00016448575
0.00017926604
0.00020263926
0.00023883188
0.00029130783
0.00036264556
0.00045301385
0.00055956068
0.00067739643
0.0008014193
0.00092758229
0.0010531393
0.0011763124
0.0012959465
0.001411316
0.0015220002
0.0016277847
0.0017285933
0.0018244443
0.0019154201
0.0020016457
0.0020832739
0.0021604751
0.00223343
0.0023023229
0.0023673459
0.0024286663
0.0024865566
0.0025408416
0.0025933144
0.0026370369
0.0027070491
0.00014630218
0.00014627464
0.00014624521
0.00014621325
0.00014617869
0.00014614162
0.00014610216
0.00014606041
0.00014601648
0.00014597047
0.00014592245
0.00014587245
0.00014582048
0.0001457665
0.00014571047
0.00014565228
0.00014559181
0.0001455289
0.00014546338
0.00014539503
0.00014532364
0.00014524896
0.00014517073
0.0001450887
0.00014500258
0.00014491208
0.00014481691
0.00014471678
0.00014461136
0.00014450035
0.00014438343
0.00014426028
0.00014413057
0.00014399399
0.00014385024
0.00014369904
0.00014354013
0.00014337331
0.00014319839
0.00014301527
0.00014282388
0.00014262425
0.00014241648
0.00014220072
0.00014197731
0.00014174658
0.00014150898
0.00014126524
0.00014101619
0.00014076286
0.00014050653
0.00014024867
0.00013999139
0.00013973716
0.00013948873
0.00013925102
0.00013902882
0.00013882455
0.00013865455
0.00013852695
0.00013844125
0.00013845427
0.00013856344
0.00013881621
0.00013927223
0.00014001878
0.00014117697
0.0001429466
0.00014563749
0.00014974309
0.00015607774
0.0001659349
0.0001814291
0.00020574715
0.00024257664
0.00029537271
0.00036649173
0.0004556931
0.00055991766
0.00067448724
0.00079475252
0.00091707408
0.0010389306
0.0011586328
0.0012750626
0.0013875094
0.001495548
0.0015989493
0.0016976187
0.0017915552
0.0018808225
0.0019655278
0.0020458076
0.0021218223
0.0021937238
0.0022617782
0.002325783
0.0023877298
0.0024395575
0.0025227216
0.00014634543
0.00014631671
0.00014628633
0.00014625379
0.00014621894
0.0001461818
0.00014614243
0.00014610089
0.00014605725
0.00014601159
0.00014596396
0.00014591439
0.00014586288
0.00014580944
0.00014575403
0.00014569659
0.00014563705
0.0001455753
0.00014551121
0.00014544464
0.00014537541
0.00014530334
0.00014522823
0.00014514985
0.00014506798
0.00014498236
0.00014489276
0.0001447989
0.00014470051
0.00014459732
0.00014448903
0.00014437533
0.00014425593
0.00014413052
0.00014399879
0.00014386043
0.00014371517
0.00014356273
0.00014340288
0.00014323539
0.00014306011
0.00014287691
0.00014268571
0.00014248651
0.00014227936
0.00014206439
0.0001418418
0.00014161189
0.00014137509
0.00014113196
0.00014088321
0.00014062968
0.00014037249
0.00014011305
0.00013985293
0.00013959452
0.00013934078
0.00013909344
0.00013885874
0.00013864296
0.00013844801
0.0001382915
0.0001381807
0.00013813124
0.00013816754
0.00013832183
0.00013863713
0.00013917746
0.00014003734
0.0001413569
0.00014335686
0.00014637052
0.00015095378
0.00015802684
0.00016895869
0.00018607935
0.00021248387
0.00025171449
0.00030710628
0.00038037536
0.00047055418
0.00057422029
0.00068687153
0.00080433318
0.00092341331
0.0010418731
0.0011581833
0.0012713248
0.0013806443
0.0014857451
0.0015864093
0.001682544
0.0017741448
0.0018612715
0.0019440091
0.0020225794
0.0020967209
0.0021686159
0.0022289838
0.0023261099
0.00014639151
0.00014636193
0.00014633087
0.00014629792
0.00014626289
0.00014622577
0.00014618657
0.00014614531
0.00014610205
0.00014605682
0.00014600966
0.00014596059
0.00014590963
0.00014585677
0.00014580198
0.00014574524
0.00014568648
0.00014562564
0.00014556263
0.00014549735
0.00014542965
0.00014535942
0.00014528648
0.00014521067
0.0001451318
0.00014504967
0.00014496407
0.00014487478
0.00014478156
0.00014468417
0.00014458234
0.00014447582
0.00014436431
0.00014424753
0.00014412518
0.00014399697
0.0001438626
0.00014372178
0.00014357425
0.00014341974
0.00014325802
0.00014308888
0.00014291216
0.0001427277
0.00014253544
0.00014233533
0.00014212739
0.0001419117
0.00014168844
0.00014145785
0.0001412203
0.00014097623
0.00014072626
0.00014047116
0.00014021187
0.00013994966
0.00013968624
0.00013942293
0.00013916246
0.00013890862
0.00013866323
0.00013843331
0.00013822494
0.0001380457
0.00013790505
0.00013781688
0.00013780161
0.00013788481
0.00013810258
0.00013850439
0.00013916485
0.00014018994
0.00014174248
0.0001440856
0.00014759897
0.00015294671
0.00016112592
0.00017381112
0.00019344666
0.0002232207
0.0002666569
0.00032658311
0.00040376696
0.0004963379
0.00060052634
0.00071207822
0.00082733375
0.00094355758
0.0010588184
0.0011717884
0.0012815818
0.0013876286
0.0014895833
0.0015872601
0.0016805701
0.0017696131
0.0018540067
0.0019360944
0.0020052689
0.0021169869
0.00014644005
0.00014640988
0.00014637834
0.00014634512
0.00014631003
0.00014627302
0.00014623405
0.00014619313
0.00014615029
0.00014610556
0.00014605894
0.00014601046
0.00014596011
0.00014590789
0.00014585378
0.00014579776
0.00014573977
0.00014567977
0.00014561769
0.00014555345
0.00014548696
0.00014541812
0.0001453468
0.00014527287
0.00014519619
0.00014511659
0.00014503391
0.00014494796
0.00014485856
0.00014476548
0.0001446685
0.00014456739
0.0001444619
0.00014435176
0.0001442367
0.00014411645
0.00014399071
0.00014385921
0.00014372167
0.0001435778
0.00014342734
0.00014327004
0.00014310567
0.00014293402
0.00014275492
0.00014256823
0.00014237384
0.00014217169
0.00014196179
0.00014174418
0.00014151899
0.00014128644
0.00014104681
0.00014080051
0.00014054806
0.00014029016
0.00014002778
0.00013976183
0.0001394937
0.0001392255
0.00013895877
0.00013869669
0.000138443
0.00013820203
0.00013797877
0.00013778129
0.00013761757
0.00013749986
0.00013744521
0.0001374764
0.00013762326
0.00013792726
0.00013844713
0.00013927279
0.00014052771
0.00014241693
0.00014523626
0.00014947925
0.00015590941
0.00016577357
0.00018100459
0.00020430047
0.00023900088
0.00028838957
0.00035441154
0.00043663196
0.00053230044
0.0006374699
0.00074827084
0.00086158409
0.00097511802
0.0010872539
0.0011968826
0.0013032671
0.0014059221
0.0015046657
0.0015988723
0.0016909738
0.0017689099
0.0018955068
0.0001464907
0.00014646014
0.00014642831
0.00014639495
0.00014635989
0.00014632305
0.00014628437
0.00014624386
0.00014620149
0.0001461573
0.00014611128
0.00014606343
0.00014601376
0.00014596225
0.00014590887
0.00014585361
0.00014579643
0.00014573727
0.0001456761
0.00014561283
0.0001455474
0.00014547974
0.00014540974
0.0001453373
0.00014526231
0.00014518465
0.00014510417
0.00014502074
0.0001449342
0.00014484436
0.00014475104
0.00014465404
0.00014455313
0.0001444481
0.0001443387
0.00014422466
0.00014410573
0.00014398164
0.00014385212
0.00014371688
0.00014357567
0.0001434282
0.00014327423
0.0001431135
0.00014294578
0.00014277088
0.00014258861
0.00014239882
0.00014220139
0.00014199625
0.00014178338
0.0001415628
0.00014133461
0.00014109898
0.00014085616
0.00014060651
0.00014035053
0.00014008882
0.00013982213
0.00013955162
0.0001392784
0.00013900412
0.00013873096
0.00013846155
0.00013819883
0.00013794713
0.00013771111
0.00013749755
0.00013731476
0.00013717347
0.00013708798
0.00013707926
0.00013717222
0.00013740393
0.0001378234
0.00013850568
0.00013955431
0.00014113006
0.00014347589
0.00014697808
0.00015224699
0.00016026648
0.00017257269
0.00019143635
0.00021987712
0.00026124234
0.00031815421
0.0003913043
0.00047898924
0.00057780522
0.00068390838
0.00079393631
0.00090530545
0.0010161433
0.0011251227
0.0012314549
0.0013340266
0.0014351995
0.0015212933
0.0016624386
0.00014654314
0.00014651236
0.00014648037
0.00014644699
0.00014641205
0.00014637544
0.00014633711
0.00014629703
0.00014625519
0.00014621158
0.00014616619
0.00014611903
0.00014607008
0.00014601932
0.00014596674
0.00014591229
0.00014585596
0.00014579769
0.00014573743
0.00014567513
0.00014561073
0.00014554416
0.00014547535
0.00014540421
0.00014533065
0.00014525457
0.00014517588
0.00014509443
0.00014501012
0.00014492279
0.0001448323
0.00014473846
0.0001446411
0.00014454002
0.00014443501
0.00014432583
0.00014421226
0.00014409405
0.00014397093
0.00014384267
0.00014370897
0.00014356959
0.00014342426
0.0001432727
0.00014311468
0.00014294995
0.00014277827
0.00014259945
0.00014241329
0.00014221964
0.00014201837
0.00014180939
0.00014159267
0.00014136821
0.00014113607
0.0001408964
0.00014064942
0.00014039546
0.00014013492
0.00013986844
0.0001395967
0.00013932066
0.00013904156
0.00013876101
0.00013848083
0.0001382035
0.00013793189
0.00013766978
0.00013742195
0.00013719425
0.00013699513
0.00013683389
0.00013672326
0.00013668265
0.00013673429
0.00013691065
0.00013725559
0.000137832
0.00013873032
0.00014008541
0.00014210113
0.00014509643
0.00014957865
0.00015634911
0.00016667493
0.0001824844
0.00020646943
0.00024185459
0.0002915891
0.00035715293
0.00043775836
0.00053062948
0.00063211555
0.00073874987
0.00084772072
0.00095706258
0.0010647115
0.0011726367
0.0012652856
0.001419559
0.00014659708
0.00014656621
0.0001465342
0.00014650088
0.00014646612
0.00014642981
0.00014639187
0.00014635227
0.00014631098
0.00014626798
0.00014622327
0.00014617682
0.00014612862
0.00014607866
0.0001460269
0.00014597332
0.00014591788
0.00014586053
0.00014580123
0.00014573992
0.00014567656
0.00014561108
0.00014554342
0.0001454735
0.00014540125
0.00014532659
0.00014524942
0.00014516966
0.0001450872
0.00014500192
0.0001449137
0.00014482239
0.00014472784
0.00014462988
0.00014452833
0.00014442299
0.00014431366
0.00014420012
0.00014408214
0.00014395947
0.00014383188
0.0001436991
0.00014356089
0.00014341697
0.00014326709
0.00014311099
0.00014294843
0.00014277916
0.00014260295
0.0001424196
0.00014222891
0.00014203072
0.00014182489
0.00014161132
0.00014138995
0.00014116078
0.00014092385
0.00014067929
0.00014042728
0.00014016811
0.0001399022
0.00013963006
0.00013935241
0.00013907021
0.00013878458
0.00013849701
0.00013820929
0.00013792367
0.00013764302
0.0001373708
0.00013711179
0.00013687148
0.0001366576
0.00013647892
0.00013634747
0.0001362806
0.00013629948
0.00013643251
0.00013671971
0.00013721694
0.00013800433
0.00013920003
0.00014098317
0.00014362717
0.0001475627
0.00015347158
0.00016243679
0.00017612921
0.00019695294
0.00022794591
0.0002721719
0.00033161809
0.00040621967
0.0004938078
0.0005909906
0.00069443529
0.00080056989
0.00091045084
0.0010062645
0.0011703203
0.00014665225
0.00014662141
0.00014658946
0.0001465563
0.00014652178
0.00014648581
0.0001464483
0.0001464092
0.00014636849
0.00014632613
0.00014628211
0.00014623641
0.000146189
0.00014613985
0.00014608896
0.00014603627
0.00014598175
0.00014592536
0.00014586705
0.00014580677
0.00014574448
0.0001456801
0.00014561359
0.00014554488
0.00014547389
0.00014540057
0.00014532483
0.0001452466
0.00014516578
0.00014508228
0.00014499599
0.0001449068
0.00014481457
0.00014471916
0.00014462043
0.0001445182
0.00014441229
0.00014430251
0.00014418866
0.00014407053
0.00014394788
0.0001438205
0.00014368813
0.00014355053
0.00014340744
0.00014325862
0.0001431038
0.00014294273
0.00014277517
0.00014260087
0.00014241961
0.00014223117
0.00014203535
0.00014183198
0.00014162093
0.00014140208
0.00014117535
0.00014094074
0.00014069825
0.00014044801
0.00014019017
0.00013992501
0.00013965289
0.00013937437
0.0001390901
0.00013880099
0.00013850813
0.00013821292
0.00013791712
0.00013762285