/*--------------------------------*- C++ -*----------------------------------*\
  =========                 |
  \\      /  F ield         | OpenFOAM: The Open Source CFD Toolbox
   \\    /   O peration     | Website:  https://openfoam.org
    \\  /    A nd           | Version:  12
     \\/     M anipulation  |
\*---------------------------------------------------------------------------*/
FoamFile
{
    format      ascii;
    class       volScalarField;
    location    "900";
    object      nut;
}
// * * * * * * * * * * * * * * * * * * * * * * * * * * * * * * * * * * * * * //

dimensions      [0 2 -1 0 0 0 0];

internalField   nonuniform List<scalar> 
13056
(
4.3416037e-07
2.6534023e-07
2.2886533e-07
2.1407459e-07
2.0565586e-07
2.0006025e-07
1.9608418e-07
1.9314524e-07
1.9090671e-07
1.8915983e-07
1.8776952e-07
1.8664505e-07
1.8572344e-07
1.8495974e-07
1.8432113e-07
1.8378302e-07
1.8332755e-07
1.8293866e-07
1.8261733e-07
1.8229758e-07
1.8229425e-07
1.8101556e-07
1.8571656e-07
1.1522365e-07
3.7833179e-11
4.6708871e-11
4.3280674e-11
3.9865916e-11
3.7326238e-11
3.5261391e-11
3.3503256e-11
3.1995394e-11
3.0695123e-11
2.9561093e-11
2.855982e-11
2.766689e-11
2.6864799e-11
2.6139058e-11
2.5476805e-11
2.4868595e-11
2.4307321e-11
2.3786672e-11
2.330156e-11
2.2847763e-11
2.242169e-11
2.202035e-11
2.1641113e-11
2.1281852e-11
2.0940732e-11
2.0616037e-11
2.0306423e-11
2.0010656e-11
1.9727507e-11
1.9455971e-11
1.9195183e-11
1.8944281e-11
1.8702474e-11
1.8469147e-11
1.8243744e-11
1.8025672e-11
1.7814414e-11
1.760956e-11
1.7410724e-11
1.7217481e-11
1.7029447e-11
1.6846334e-11
1.6667879e-11
1.6493773e-11
1.632372e-11
1.6157509e-11
1.5994946e-11
1.5835812e-11
1.5679889e-11
1.5526973e-11
1.5376923e-11
1.5229597e-11
1.5084825e-11
1.4942437e-11
1.48023e-11
1.4664306e-11
1.4528339e-11
1.4394267e-11
1.4261951e-11
1.41313e-11
1.4002225e-11
1.3874628e-11
1.3748398e-11
1.3623425e-11
1.3499635e-11
1.3376954e-11
1.3255292e-11
1.3134554e-11
1.3014647e-11
1.2895505e-11
1.2777061e-11
1.2659227e-11
1.2541912e-11
1.242504e-11
1.2308547e-11
1.2192356e-11
1.2076377e-11
1.1960522e-11
1.1844723e-11
1.1728903e-11
1.161297e-11
1.1496826e-11
1.1380389e-11
1.1263574e-11
1.1146275e-11
1.1028381e-11
1.0909796e-11
1.0790397e-11
1.0670092e-11
1.05513e-11
1.0437688e-11
1.0330194e-11
1.0228278e-11
1.0131476e-11
1.0039368e-11
9.9515755e-12
9.8677547e-12
9.7876034e-12
9.7108508e-12
9.6372491e-12
9.5665707e-12
9.4986055e-12
9.4331658e-12
9.3700653e-12
9.3091516e-12
9.2501834e-12
9.193147e-12
9.137327e-12
9.0836696e-12
9.0285707e-12
8.9805262e-12
8.9018136e-12
4.3452179e-07
2.6552404e-07
2.2897243e-07
2.1414962e-07
2.05712e-07
2.0010369e-07
1.961185e-07
1.9317274e-07
1.9092896e-07
1.8917793e-07
1.8778429e-07
1.8665709e-07
1.8573324e-07
1.8496764e-07
1.8432743e-07
1.8378794e-07
1.8333126e-07
1.8294132e-07
1.8261906e-07
1.8229844e-07
1.8229501e-07
1.8101091e-07
1.8573327e-07
1.1542958e-07
7.8081463e-09
1.0123408e-08
9.5238801e-09
8.8507292e-09
8.336836e-09
7.9127041e-09
7.5477803e-09
7.232296e-09
6.9584574e-09
6.7183053e-09
6.5052548e-09
6.3144558e-09
6.1424098e-09
5.9862033e-09
5.843224e-09
5.7115397e-09
5.5896975e-09
5.4764021e-09
5.3706023e-09
5.2714235e-09
5.1781203e-09
5.0900703e-09
5.0067239e-09
4.9276367e-09
4.8524246e-09
4.7807274e-09
4.7122631e-09
4.6467719e-09
4.5839938e-09
4.5237158e-09
4.4657543e-09
4.4099259e-09
4.3560617e-09
4.3040306e-09
4.2537141e-09
4.2049856e-09
4.1577339e-09
4.1118715e-09
4.0673157e-09
4.0239751e-09
3.9817662e-09
3.9406274e-09
3.9005024e-09
3.8613237e-09
3.8230269e-09
3.785567e-09
3.7489017e-09
3.7129835e-09
3.6777647e-09
3.6432009e-09
3.6092612e-09
3.575915e-09
3.543125e-09
3.5108537e-09
3.479072e-09
3.4477563e-09
3.4168812e-09
3.3864173e-09
3.3563342e-09
3.3266114e-09
3.2972297e-09
3.2681672e-09
3.2393994e-09
3.2109012e-09
3.1826565e-09
3.1546492e-09
3.1268588e-09
3.0992639e-09
3.0718434e-09
3.044583e-09
3.0174675e-09
2.9904768e-09
2.9635902e-09
2.9367906e-09
2.9100634e-09
2.8833912e-09
2.8567533e-09
2.8301296e-09
2.8035042e-09
2.7768601e-09
2.7501753e-09
2.7234274e-09
2.6965977e-09
2.6696664e-09
2.6426087e-09
2.6153987e-09
2.5880142e-09
2.5604264e-09
2.5326138e-09
2.5051353e-09
2.4788413e-09
2.4539504e-09
2.4303396e-09
2.4079032e-09
2.3865457e-09
2.36618e-09
2.346728e-09
2.3281204e-09
2.3102952e-09
2.2931957e-09
2.2767698e-09
2.2609691e-09
2.2457507e-09
2.2310717e-09
2.2168971e-09
2.2031712e-09
2.1898911e-09
2.1768908e-09
2.16439e-09
2.1515512e-09
2.14035e-09
2.1219945e-09
4.3572557e-07
2.6609982e-07
2.2931344e-07
2.1439276e-07
2.0589679e-07
2.0024906e-07
1.9623554e-07
1.9326858e-07
1.9100847e-07
1.8924458e-07
1.8784059e-07
1.8670494e-07
1.8577409e-07
1.8500262e-07
1.8435741e-07
1.8381363e-07
1.8335323e-07
1.8296e-07
1.8263486e-07
1.8231136e-07
1.8230699e-07
1.8101046e-07
1.8577963e-07
1.1555522e-07
3.9011803e-08
5.4439249e-08
5.2781512e-08
4.9992852e-08
4.7722651e-08
4.5781988e-08
4.407184e-08
4.2566458e-08
4.1240265e-08
4.0062461e-08
3.9006089e-08
3.8050772e-08
3.7181589e-08
3.6385987e-08
3.5652444e-08
3.4972251e-08
3.4338895e-08
3.3746529e-08
3.3190318e-08
3.2666221e-08
3.2170777e-08
3.1701077e-08
3.1254531e-08
3.0829047e-08
3.0422811e-08
3.0034104e-08
2.9661587e-08
2.9304016e-08
2.8960125e-08
2.8628879e-08
2.8309381e-08
2.8000727e-08
2.7702079e-08
2.741279e-08
2.7132276e-08
2.6859906e-08
2.659512e-08
2.6337482e-08
2.6086581e-08
2.5841949e-08
2.560316e-08
2.5369903e-08
2.5141894e-08
2.4918786e-08
2.4700241e-08
2.4486032e-08
2.4275943e-08
2.4069726e-08
2.386713e-08
2.366792e-08
2.3471938e-08
2.3279024e-08
2.308898e-08
2.2901604e-08
2.2716742e-08
2.2534269e-08
2.235405e-08
2.2175926e-08
2.1999727e-08
2.1825346e-08
2.1652678e-08
2.1481602e-08
2.1311983e-08
2.114368e-08
2.0976603e-08
2.0810664e-08
2.0645748e-08
2.048173e-08
2.0318491e-08
2.0155949e-08
1.9994017e-08
1.9832577e-08
1.9671507e-08
1.9510709e-08
1.9350094e-08
1.9189559e-08
1.902898e-08
1.8868235e-08
1.8707228e-08
1.8545854e-08
1.8383978e-08
1.8221462e-08
1.805819e-08
1.7894036e-08
1.7728845e-08
1.7562454e-08
1.7394719e-08
1.7225459e-08
1.7054532e-08
1.6885373e-08
1.6723242e-08
1.6569525e-08
1.6423497e-08
1.6284536e-08
1.6152079e-08
1.602561e-08
1.5904665e-08
1.5788833e-08
1.5677745e-08
1.5571062e-08
1.5468473e-08
1.5369687e-08
1.5274447e-08
1.5182495e-08
1.509362e-08
1.5007482e-08
1.4924065e-08
1.4842342e-08
1.4763681e-08
1.4682857e-08
1.4612239e-08
1.4496408e-08
4.3781421e-07
2.670916e-07
2.2990375e-07
2.1481554e-07
2.0621945e-07
2.0050402e-07
1.9644181e-07
1.9343842e-07
1.9115025e-07
1.8936424e-07
1.8794247e-07
1.867923e-07
1.8584941e-07
1.8506784e-07
1.8441405e-07
1.8386289e-07
1.8339608e-07
1.8299717e-07
1.826671e-07
1.8233855e-07
1.8233238e-07
1.8101708e-07
1.8585853e-07
1.1559225e-07
8.4510332e-08
1.2537544e-07
1.2497834e-07
1.2048702e-07
1.1647489e-07
1.1289471e-07
1.0965605e-07
1.0675256e-07
1.0415717e-07
1.0182384e-07
9.9708926e-08
9.7778217e-08
9.6006021e-08
9.4370756e-08
9.2852239e-08
9.143463e-08
9.0106192e-08
8.8856447e-08
8.7676458e-08
8.6558737e-08
8.5496864e-08
8.4485388e-08
8.3519438e-08
8.2595069e-08
8.1708862e-08
8.0857554e-08
8.00386e-08
7.9249624e-08
7.848817e-08
7.7752222e-08
7.7040023e-08
7.6349791e-08
7.5679865e-08
7.5028962e-08
7.4395934e-08
7.3779519e-08
7.3178598e-08
7.2592297e-08
7.2019792e-08
7.1460136e-08
7.0912449e-08
7.03761e-08
6.985052e-08
6.9334991e-08
6.8828801e-08
6.8331488e-08
6.7842613e-08
6.7361653e-08
6.6888077e-08
6.6421385e-08
6.5961246e-08
6.5507331e-08
6.5059213e-08
6.4616448e-08
6.4178708e-08
6.3745726e-08
6.3317214e-08
6.2892815e-08
6.2472153e-08
6.205499e-08
6.16411e-08
6.1230211e-08
6.0822013e-08
6.0416181e-08
6.0012517e-08
5.9610816e-08
5.9210812e-08
5.8812212e-08
5.8414731e-08
5.8018178e-08
5.7622345e-08
5.722695e-08
5.6831691e-08
5.6436327e-08
5.6040644e-08
5.5644382e-08
5.5247232e-08
5.4848882e-08
5.4449089e-08
5.4047585e-08
5.3644021e-08
5.3238036e-08
5.2829325e-08
5.2417559e-08
5.2002324e-08
5.1583184e-08
5.1159756e-08
5.0731547e-08
5.0298158e-08
4.9868298e-08
4.9455411e-08
4.9063142e-08
4.8689756e-08
4.8333766e-08
4.7993823e-08
4.7668685e-08
4.7357226e-08
4.7058453e-08
4.6771472e-08
4.6495456e-08
4.6229644e-08
4.5973325e-08
4.572587e-08
4.548664e-08
4.5255117e-08
4.5030443e-08
4.4812597e-08
4.4598944e-08
4.4392998e-08
4.4181294e-08
4.3995907e-08
4.3691415e-08
4.4085636e-07
2.6853868e-07
2.3076886e-07
2.1543729e-07
2.066956e-07
2.0088163e-07
1.9674852e-07
1.9369208e-07
1.9136305e-07
1.8954481e-07
1.8809715e-07
1.8692582e-07
1.8596538e-07
1.8516908e-07
1.8450278e-07
1.8394086e-07
1.834647e-07
1.8305752e-07
1.8272021e-07
1.8238429e-07
1.8237532e-07
1.8103511e-07
1.8597622e-07
1.1557028e-07
1.3243361e-07
2.0615193e-07
2.0981319e-07
2.0480107e-07
1.9970221e-07
1.9492954e-07
1.9050321e-07
1.8647421e-07
1.8283217e-07
1.7952829e-07
1.7651123e-07
1.7373876e-07
1.7117799e-07
1.6880167e-07
1.6658422e-07
1.6450451e-07
1.6254699e-07
1.6069809e-07
1.5894578e-07
1.5727995e-07
1.5569199e-07
1.5417449e-07
1.5272085e-07
1.5132568e-07
1.4998434e-07
1.4869238e-07
1.474463e-07
1.4624286e-07
1.4507863e-07
1.439508e-07
1.4285691e-07
1.4179443e-07
1.4076104e-07
1.397549e-07
1.3877439e-07
1.3781774e-07
1.3688335e-07
1.3596997e-07
1.3507644e-07
1.3420138e-07
1.3334352e-07
1.3250195e-07
1.3167586e-07
1.3086419e-07
1.300659e-07
1.2928033e-07
1.2850683e-07
1.2774463e-07
1.2699295e-07
1.2625104e-07
1.2551841e-07
1.2479458e-07
1.2407891e-07
1.2337072e-07
1.2266952e-07
1.2197491e-07
1.2128646e-07
1.2060362e-07
1.199258e-07
1.1925264e-07
1.185838e-07
1.1791884e-07
1.172573e-07
1.1659864e-07
1.1594256e-07
1.1528875e-07
1.1463676e-07
1.1398613e-07
1.1333639e-07
1.1268725e-07
1.1203835e-07
1.1138924e-07
1.1073941e-07
1.1008846e-07
1.0943603e-07
1.087817e-07
1.0812493e-07
1.0746519e-07
1.0680207e-07
1.061351e-07
1.0546369e-07
1.047872e-07
1.0410511e-07
1.0341683e-07
1.0272163e-07
1.0201875e-07
1.013075e-07
1.00587e-07
9.9856523e-08
9.9130725e-08
9.8432408e-08
9.7767889e-08
9.7134365e-08
9.6529448e-08
9.5950967e-08
9.5396908e-08
9.4865443e-08
9.435496e-08
9.3864006e-08
9.3391233e-08
9.2935394e-08
9.2495324e-08
9.2069991e-08
9.1658344e-08
9.125953e-08
9.0872115e-08
9.0496074e-08
9.012696e-08
8.9770683e-08
8.9404422e-08
8.9082928e-08
8.8554265e-08
4.4494746e-07
2.7049681e-07
2.3194541e-07
2.1628604e-07
2.0734801e-07
2.0140107e-07
1.9717228e-07
1.9404421e-07
1.9165999e-07
1.8979822e-07
1.8831556e-07
1.8711563e-07
1.8613149e-07
1.8531528e-07
1.8463205e-07
1.8405558e-07
1.8356676e-07
1.8314837e-07
1.8280128e-07
1.8245534e-07
1.8244245e-07
1.8107033e-07
1.8614205e-07
1.1552605e-07
1.7863109e-07
2.9008617e-07
3.0013941e-07
2.956266e-07
2.8998937e-07
2.8439638e-07
2.790705e-07
2.74153e-07
2.6966448e-07
2.6556255e-07
2.6179474e-07
2.58315e-07
2.550857e-07
2.5207628e-07
2.4925818e-07
2.4660632e-07
2.4410236e-07
2.4173076e-07
2.3947714e-07
2.3732942e-07
2.3527735e-07
2.3331203e-07
2.3142552e-07
2.2961135e-07
2.2786388e-07
2.261778e-07
2.2454887e-07
2.2297313e-07
2.2144641e-07
2.1996526e-07
2.1852658e-07
2.1712728e-07
2.1576446e-07
2.1443584e-07
2.1313939e-07
2.1187292e-07
2.1063445e-07
2.094224e-07
2.082353e-07
2.0707145e-07
2.0592923e-07
2.0480749e-07
2.0370519e-07
2.0262101e-07
2.0155361e-07
2.0050215e-07
1.9946582e-07
1.9844362e-07
1.9743455e-07
1.9643764e-07
1.9545227e-07
1.9447781e-07
1.9351344e-07
1.9255828e-07
1.9161168e-07
1.9067313e-07
1.8974205e-07
1.8881774e-07
1.8789941e-07
1.8698659e-07
1.8607883e-07
1.8517555e-07
1.8427613e-07
1.8337984e-07
1.8248628e-07
1.8159504e-07
1.8070552e-07
1.7981708e-07
1.7892909e-07
1.7804113e-07
1.7715275e-07
1.762633e-07
1.7537208e-07
1.7447855e-07
1.735822e-07
1.7268243e-07
1.7177851e-07
1.7086968e-07
1.6995536e-07
1.690349e-07
1.6810745e-07
1.671721e-07
1.6622811e-07
1.6527466e-07
1.6431067e-07
1.6333506e-07
1.6234684e-07
1.6134473e-07
1.6032766e-07
1.5931601e-07
1.5834167e-07
1.5741357e-07
1.5652791e-07
1.5568146e-07
1.5487127e-07
1.5409462e-07
1.5334902e-07
1.5263226e-07
1.5194238e-07
1.5127753e-07
1.5063601e-07
1.5001622e-07
1.4941674e-07
1.4883615e-07
1.4827326e-07
1.477261e-07
1.4719462e-07
1.4667268e-07
1.4616837e-07
1.4565012e-07
1.4519421e-07
1.4444391e-07
4.5021095e-07
2.7303996e-07
2.334828e-07
2.1739989e-07
2.082079e-07
2.0208887e-07
1.9773616e-07
1.945153e-07
1.9205955e-07
1.9014136e-07
1.8861332e-07
1.873763e-07
1.8636139e-07
1.8551935e-07
1.8481415e-07
1.8421878e-07
1.8371352e-07
1.8328056e-07
1.8292074e-07
1.8256178e-07
1.8254362e-07
1.8113153e-07
1.8636961e-07
1.1549829e-07
2.2216059e-07
3.7554758e-07
3.9415484e-07
3.9106321e-07
3.8532811e-07
3.7918471e-07
3.7315328e-07
3.6749961e-07
3.6228928e-07
3.5749412e-07
3.5306577e-07
3.4895775e-07
3.4512944e-07
3.4154859e-07
3.3818542e-07
3.3501185e-07
3.320074e-07
3.2915534e-07
3.2643944e-07
3.2384603e-07
3.2136361e-07
3.1898205e-07
3.1669235e-07
3.1448714e-07
3.1235999e-07
3.1030489e-07
3.0831699e-07
3.0639171e-07
3.0452428e-07
3.0271067e-07
3.0094725e-07
2.9923038e-07
2.9755671e-07
2.9592351e-07
2.9432841e-07
2.9276887e-07
2.9124256e-07
2.897476e-07
2.8828225e-07
2.8684452e-07
2.8543247e-07
2.8404471e-07
2.8268004e-07
2.8133687e-07
2.8001359e-07
2.7870919e-07
2.7742272e-07
2.7615298e-07
2.7489875e-07
2.7365886e-07
2.7243256e-07
2.7121911e-07
2.7001751e-07
2.6882667e-07
2.6764582e-07
2.6647433e-07
2.6531152e-07
2.641565e-07
2.630083e-07
2.6186636e-07
2.6073013e-07
2.595989e-07
2.5847187e-07
2.5734816e-07
2.5622728e-07
2.551087e-07
2.5399169e-07
2.5287546e-07
2.5175919e-07
2.5064238e-07
2.4952444e-07
2.4840458e-07
2.4728189e-07
2.4615569e-07
2.4502536e-07
2.4389011e-07
2.42749e-07
2.416011e-07
2.4044564e-07
2.392818e-07
2.3810848e-07
2.3692452e-07
2.3572895e-07
2.3452072e-07
2.3329846e-07
2.3206074e-07
2.3080627e-07
2.2953342e-07
2.2824073e-07
2.2695414e-07
2.2571426e-07
2.2453256e-07
2.2340427e-07
2.2232535e-07
2.2129213e-07
2.2030118e-07
2.1934937e-07
2.1843395e-07
2.1755244e-07
2.1670252e-07
2.1588205e-07
2.1508901e-07
2.1432163e-07
2.1357809e-07
2.1285692e-07
2.1215562e-07
2.1147411e-07
2.1080468e-07
2.1015732e-07
2.0949253e-07
2.0890651e-07
2.0794157e-07
4.5680004e-07
2.7626278e-07
2.3544542e-07
2.1882898e-07
2.0931672e-07
2.0298047e-07
1.9847126e-07
1.9513315e-07
1.9258698e-07
1.9059743e-07
1.8901199e-07
1.8772802e-07
1.8667418e-07
1.8579941e-07
1.8506639e-07
1.8444706e-07
1.8392095e-07
1.8346951e-07
1.8309353e-07
1.8271802e-07
1.82693e-07
1.8123153e-07
1.8667775e-07
1.1552906e-07
2.6286189e-07
4.6242088e-07
4.91835e-07
4.9113358e-07
4.8572026e-07
4.7925559e-07
4.7266655e-07
4.6638342e-07
4.6053259e-07
4.5510817e-07
4.5007111e-07
4.4537764e-07
4.4098585e-07
4.3686319e-07
4.3298013e-07
4.2930641e-07
4.2581995e-07
4.2250344e-07
4.193392e-07
4.1631224e-07
4.1341011e-07
4.1062167e-07
4.0793704e-07
4.0534808e-07
4.0284771e-07
4.0042935e-07
3.9808761e-07
3.9581739e-07
3.9361337e-07
3.9147102e-07
3.8938618e-07
3.8735474e-07
3.8537291e-07
3.8343756e-07
3.8154599e-07
3.7969532e-07
3.7788293e-07
3.7610665e-07
3.7436447e-07
3.7265413e-07
3.7097341e-07
3.6932067e-07
3.6769453e-07
3.6609318e-07
3.6451473e-07
3.6295804e-07
3.6142199e-07
3.599052e-07
3.5840622e-07
3.5692373e-07
3.5545681e-07
3.5400463e-07
3.52566e-07
3.5113965e-07
3.4972468e-07
3.4832036e-07
3.4692587e-07
3.4554018e-07
3.4416212e-07
3.4279105e-07
3.414263e-07
3.4006706e-07
3.3871235e-07
3.3736114e-07
3.3601284e-07
3.3466682e-07
3.3332222e-07
3.3197806e-07
3.3063339e-07
3.2928759e-07
3.2793999e-07
3.2658959e-07
3.2523531e-07
3.2387634e-07
3.2251192e-07
3.2114111e-07
3.1976276e-07
3.1837572e-07
3.1697908e-07
3.1557185e-07
3.1415266e-07
3.1272012e-07
3.1127305e-07
3.0981014e-07
3.0832973e-07
3.0683006e-07
3.0530956e-07
3.0376621e-07
3.0219821e-07
3.0063698e-07
2.9913193e-07
2.9769704e-07
2.9632654e-07
2.9501559e-07
2.9375979e-07
2.92555e-07
2.9139746e-07
2.9028386e-07
2.892112e-07
2.8817669e-07
2.8717774e-07
2.8621191e-07
2.8527708e-07
2.8437105e-07
2.8349203e-07
2.8263701e-07
2.8180585e-07
2.8098938e-07
2.8019929e-07
2.7938857e-07
2.7867257e-07
2.7749317e-07
4.6490033e-07
2.8028401e-07
2.3791575e-07
2.2063826e-07
2.107286e-07
2.0412254e-07
1.994188e-07
1.9593486e-07
1.9327617e-07
1.9119778e-07
1.8954083e-07
1.8819837e-07
1.8709599e-07
1.8618042e-07
1.8541268e-07
1.8476345e-07
1.842113e-07
1.8373676e-07
1.8334056e-07
1.8294436e-07
1.8291054e-07
1.8138862e-07
1.8709211e-07
1.1566601e-07
3.0068448e-07
5.5094498e-07
5.9368334e-07
5.9649571e-07
5.9186646e-07
5.8531311e-07
5.7830335e-07
5.7148108e-07
5.6505278e-07
5.5904413e-07
5.5343112e-07
5.4817625e-07
5.4323817e-07
5.3858545e-07
5.3419027e-07
5.3002105e-07
5.2605463e-07
5.2227371e-07
5.1865954e-07
5.1519611e-07
5.1187025e-07
5.0866998e-07
5.0558474e-07
5.0260574e-07
4.9972535e-07
4.9693652e-07
4.9423342e-07
4.9161048e-07
4.8906189e-07
4.8658267e-07
4.8416815e-07
4.8181374e-07
4.7951527e-07
4.7726922e-07
4.7507254e-07
4.7292208e-07
4.7081493e-07
4.6874862e-07
4.6672089e-07
4.6472921e-07
4.6277109e-07
4.6084466e-07
4.5894835e-07
4.5708013e-07
4.5523783e-07
4.5342017e-07
4.5162589e-07
4.498534e-07
4.4810105e-07
4.4636733e-07
4.446512e-07
4.429517e-07
4.4126748e-07
4.3959705e-07
4.3793941e-07
4.362937e-07
4.34659e-07
4.330341e-07
4.3141765e-07
4.298089e-07
4.2820711e-07
4.2661132e-07
4.2502041e-07
4.2343314e-07
4.2184884e-07
4.2026682e-07
4.1868603e-07
4.1710535e-07
4.1552366e-07
4.1394022e-07
4.1235427e-07
4.1076463e-07
4.0917004e-07
4.0756952e-07
4.0596221e-07
4.0434698e-07
4.0272248e-07
4.0108736e-07
3.9944054e-07
3.9778085e-07
3.9610668e-07
3.9441636e-07
3.927085e-07
3.9098156e-07
3.8923356e-07
3.8746239e-07
3.8566621e-07
3.838426e-07
3.8198939e-07
3.8014371e-07
3.7836405e-07
3.7666702e-07
3.7504582e-07
3.7349475e-07
3.7200864e-07
3.7058264e-07
3.6921229e-07
3.6789372e-07
3.666234e-07
3.6539803e-07
3.6421456e-07
3.6307012e-07
3.6196219e-07
3.608882e-07
3.5984603e-07
3.5883216e-07
3.5784634e-07
3.5687796e-07
3.559403e-07
3.5497902e-07
3.5412854e-07
3.527272e-07
4.7473323e-07
2.8525085e-07
2.4099856e-07
2.2291104e-07
2.1251366e-07
2.0557604e-07
2.0063302e-07
1.9696955e-07
1.9417225e-07
1.9198436e-07
1.9023924e-07
1.8882462e-07
1.8766232e-07
1.8669636e-07
1.8588572e-07
1.8519952e-07
1.8461516e-07
1.8411203e-07
1.8369077e-07
1.8326895e-07
1.8322395e-07
1.8162845e-07
1.8764705e-07
1.1596679e-07
3.3549469e-07
6.4133331e-07
7.0031581e-07
7.0801156e-07
7.0472183e-07
6.9834777e-07
6.9106671e-07
6.8379832e-07
6.7685335e-07
6.7030036e-07
6.6413726e-07
6.5833706e-07
6.5286127e-07
6.4768118e-07
6.4277232e-07
6.3810276e-07
6.3364887e-07
6.2939405e-07
6.2531886e-07
6.2140657e-07
6.1764358e-07
6.140173e-07
6.1051662e-07
6.0713225e-07
6.038561e-07
6.0068082e-07
5.9760018e-07
5.9460821e-07
5.9169866e-07
5.8886614e-07
5.8610547e-07
5.8341162e-07
5.8078007e-07
5.7820688e-07
5.7568871e-07
5.7322212e-07
5.7080392e-07
5.6843138e-07
5.6610196e-07
5.6381288e-07
5.6156138e-07
5.5934533e-07
5.5716301e-07
5.5501214e-07
5.5289029e-07
5.5079602e-07
5.4872794e-07
5.4668424e-07
5.4466307e-07
5.4266273e-07
5.4068204e-07
5.3871992e-07
5.3677484e-07
5.348451e-07
5.3292959e-07
5.3102733e-07
5.2913727e-07
5.2725803e-07
5.2538806e-07
5.2352654e-07
5.216726e-07
5.1982515e-07
5.179829e-07
5.1614444e-07
5.14309e-07
5.1247578e-07
5.106436e-07
5.0881114e-07
5.0697711e-07
5.051407e-07
5.0330099e-07
5.0145664e-07
4.9960617e-07
4.9774847e-07
4.9588254e-07
4.9400708e-07
4.9212051e-07
4.9022125e-07
4.8830808e-07
4.8637962e-07
4.84434e-07
4.8246928e-07
4.8048383e-07
4.7847589e-07
4.764431e-07
4.7438304e-07
4.7229353e-07
4.7017175e-07
4.6801513e-07
4.6586688e-07
4.6379518e-07
4.6181941e-07
4.5993166e-07
4.5812532e-07
4.5639443e-07
4.5473332e-07
4.5313685e-07
4.5160051e-07
4.5012019e-07
4.4869208e-07
4.4731261e-07
4.4597846e-07
4.4468669e-07
4.4343433e-07
4.4221891e-07
4.4103634e-07
4.398863e-07
4.3875666e-07
4.3766226e-07
4.3654132e-07
4.3554791e-07
4.3391065e-07
4.8656033e-07
2.9134445e-07
2.4482628e-07
2.2575391e-07
2.147624e-07
2.0742025e-07
2.0218493e-07
1.9830196e-07
1.9533505e-07
1.9301307e-07
1.9115992e-07
1.8965682e-07
1.8842104e-07
1.8739323e-07
1.8652991e-07
1.8579829e-07
1.8517431e-07
1.84636e-07
1.8418386e-07
1.837305e-07
1.8367137e-07
1.8198667e-07
1.8838821e-07
1.1650252e-07
3.670224e-07
7.3361015e-07
8.1233216e-07
8.2659002e-07
8.2533816e-07
8.1947541e-07
8.121045e-07
8.0450056e-07
7.9710944e-07
7.9005688e-07
7.8337119e-07
7.7704124e-07
7.7103428e-07
7.6532631e-07
7.5989812e-07
7.5471868e-07
7.4976465e-07
7.4502087e-07
7.4046778e-07
7.3608826e-07
7.3186863e-07
7.277959e-07
7.2385863e-07
7.2004722e-07
7.1635324e-07
7.1276915e-07
7.0928845e-07
7.059048e-07
7.026116e-07
6.9940308e-07
6.9627358e-07
6.9321764e-07
6.9023041e-07
6.8730758e-07
6.8444545e-07
6.8164036e-07
6.7888887e-07
6.7618795e-07
6.7353481e-07
6.7092641e-07
6.6835972e-07
6.6583237e-07
6.6334245e-07
6.6088744e-07
6.5846464e-07
6.5607247e-07
6.5370941e-07
6.5137339e-07
6.4906236e-07
6.4677445e-07
6.445083e-07
6.4226274e-07
6.4003603e-07
6.3782625e-07
6.3563219e-07
6.3345274e-07
6.312867e-07
6.2913254e-07
6.2698847e-07
6.2485357e-07
6.2272691e-07
6.2060722e-07
6.1849303e-07
6.1638272e-07
6.1427546e-07
6.1217034e-07
6.10066e-07
6.0796092e-07
6.0585366e-07
6.0374327e-07
6.0162873e-07
5.995085e-07
5.9738086e-07
5.9524456e-07
5.9309847e-07
5.9094107e-07
5.8877056e-07
5.8658513e-07
5.8438337e-07
5.8216371e-07
5.7992399e-07
5.7766195e-07
5.7537575e-07
5.7306335e-07
5.7072203e-07
5.6834898e-07
5.6594171e-07
5.6349694e-07
5.6101166e-07
5.5853566e-07
5.5614765e-07
5.5387001e-07
5.5169361e-07
5.4961088e-07
5.4761495e-07
5.4569933e-07
5.4385807e-07
5.4208599e-07
5.4037838e-07
5.3873084e-07
5.3713925e-07
5.3559978e-07
5.3410907e-07
5.3266369e-07
5.3126078e-07
5.2989569e-07
5.2856793e-07
5.2726386e-07
5.2599981e-07
5.2470633e-07
5.2355818e-07
5.2166536e-07
5.0068875e-07
2.9878674e-07
2.4956611e-07
2.2930294e-07
2.1759151e-07
2.097582e-07
2.0416747e-07
2.0001729e-07
1.968437e-07
1.943582e-07
1.923732e-07
1.9076205e-07
1.8943645e-07
1.8833302e-07
1.8740523e-07
1.8661799e-07
1.8594546e-07
1.8536399e-07
1.8487393e-07
1.8438189e-07
1.8430494e-07
1.8251239e-07
1.8937583e-07
1.1735997e-07
3.9481743e-07
8.275757e-07
9.3023224e-07
9.5311654e-07
9.5480029e-07
9.4987595e-07
9.4264842e-07
9.3485133e-07
9.2710548e-07
9.1961197e-07
9.1244028e-07
9.0560195e-07
8.9907377e-07
8.9283892e-07
8.8688581e-07
8.8118591e-07
8.7571717e-07
8.704668e-07
8.654158e-07
8.6054714e-07
8.5584743e-07
8.5130364e-07
8.4690427e-07
8.4263956e-07
8.3850094e-07
8.3448087e-07
8.3057267e-07
8.2676974e-07
8.2306519e-07
8.1945293e-07
8.1592686e-07
8.124811e-07
8.091105e-07
8.0581038e-07
8.0257675e-07
7.9940568e-07
7.9629354e-07
7.9323702e-07
7.9023304e-07
7.8727833e-07
7.843696e-07
7.8150421e-07
7.7868007e-07
7.7589443e-07
7.731443e-07
7.7042795e-07
7.6774372e-07
7.650893e-07
7.6246243e-07
7.5986103e-07
7.5728361e-07
7.5472883e-07
7.521948e-07
7.4967933e-07
7.471811e-07
7.4469888e-07
7.4223132e-07
7.3977669e-07
7.3733298e-07
7.3489919e-07
7.3247427e-07
7.3005676e-07
7.2764503e-07
7.2523726e-07
7.2283248e-07
7.204297e-07
7.1802737e-07
7.1562376e-07
7.1321725e-07
7.1080676e-07
7.0839115e-07
7.0596865e-07
7.0353729e-07
7.0109569e-07
6.9864255e-07
6.9617614e-07
6.9369439e-07
6.9119525e-07
6.8867712e-07
6.861382e-07
6.8357602e-07
6.80988e-07
6.7837204e-07
6.7572581e-07
6.7304618e-07
6.7032993e-07
6.6757422e-07
6.6477528e-07
6.6192962e-07
6.5909424e-07
6.5635937e-07
6.5375074e-07
6.5125786e-07
6.4887209e-07
6.465856e-07
6.4439095e-07
6.4228134e-07
6.4025085e-07
6.382941e-07
6.3640603e-07
6.3458194e-07
6.3281742e-07
6.3110865e-07
6.2945171e-07
6.2784332e-07
6.2627818e-07
6.2475563e-07
6.2326042e-07
6.2181039e-07
6.2032805e-07
6.1901021e-07
6.1683707e-07
5.1747752e-07
3.0784863e-07
2.5542902e-07
2.3373191e-07
2.2115147e-07
2.1272381e-07
2.0670219e-07
2.022276e-07
1.9880279e-07
1.9611832e-07
1.9397275e-07
1.9222991e-07
1.9079477e-07
1.8959903e-07
1.885925e-07
1.8773724e-07
1.8700532e-07
1.8637098e-07
1.8583441e-07
1.8529498e-07
1.8519561e-07
1.8327297e-07
1.9068896e-07
1.1864552e-07
4.1829538e-07
9.2270656e-07
1.0543707e-06
1.0884068e-06
1.0941919e-06
1.0907652e-06
1.0839889e-06
1.076189e-06
1.0682128e-06
1.0603605e-06
1.0527563e-06
1.0454432e-06
1.0384126e-06
1.0316581e-06
1.0251785e-06
1.0189501e-06
1.0129532e-06
1.0071787e-06
1.001609e-06
9.9622788e-07
9.9102269e-07
9.8598078e-07
9.8109092e-07
9.7634349e-07
9.7173e-07
9.6724311e-07
9.6287615e-07
9.5862236e-07
9.5447465e-07
9.5042673e-07
9.4647205e-07
9.4260435e-07
9.3881827e-07
9.3510877e-07
9.3147154e-07
9.2790249e-07
9.2439776e-07
9.209538e-07
9.1756726e-07
9.1423462e-07
9.1095233e-07
9.0771752e-07
9.0452788e-07
9.0138043e-07
8.9827189e-07
8.952004e-07
8.9216414e-07
8.8916056e-07
8.8618716e-07
8.8324167e-07
8.8032243e-07
8.7742798e-07
8.7455619e-07
8.7170466e-07
8.6887192e-07
8.6605663e-07
8.6325724e-07
8.6047186e-07
8.5769822e-07
8.5493522e-07
8.5218169e-07
8.49436e-07
8.4669631e-07
8.4396057e-07
8.4122771e-07
8.3849662e-07
8.3576555e-07
8.3303255e-07
8.3029579e-07
8.2755406e-07
8.2480609e-07
8.2204985e-07
8.1928311e-07
8.1650433e-07
8.1371203e-07
8.1090426e-07
8.0807867e-07
8.0523291e-07
8.0236518e-07
7.9947345e-07
7.9655488e-07
7.9360656e-07
7.906261e-07
7.8761084e-07
7.8455723e-07
7.8146157e-07
7.7832063e-07
7.7513012e-07
7.7188599e-07
7.6865322e-07
7.6553483e-07
7.625602e-07
7.5971738e-07
7.5699653e-07
7.5438876e-07
7.5188559e-07
7.4947927e-07
7.4716306e-07
7.4493084e-07
7.4277683e-07
7.4069566e-07
7.3868233e-07
7.3673246e-07
7.3484161e-07
7.3300602e-07
7.312197e-07
7.2948179e-07
7.277753e-07
7.2611961e-07
7.2442872e-07
7.2292323e-07
7.2043989e-07
5.3734494e-07
3.1886068e-07
2.6267996e-07
2.3926275e-07
2.2563643e-07
2.1649118e-07
2.0994815e-07
2.0508029e-07
2.0135051e-07
1.9842421e-07
1.9608327e-07
1.9418006e-07
1.9261139e-07
1.9130302e-07
1.9020034e-07
1.8926198e-07
1.8845738e-07
1.8775831e-07
1.8716468e-07
1.8656723e-07
1.8643957e-07
1.8436033e-07
1.924309e-07
1.204902e-07
4.3676715e-07
1.0180736e-06
1.1849218e-06
1.2331608e-06
1.2445663e-06
1.2433753e-06
1.2374608e-06
1.2299155e-06
1.2218812e-06
1.2137869e-06
1.2058297e-06
1.1980953e-06
1.1905963e-06
1.1833408e-06
1.1763419e-06
1.1695831e-06
1.1630491e-06
1.1567361e-06
1.1506288e-06
1.1447127e-06
1.1389766e-06
1.1334088e-06
1.1279988e-06
1.1227374e-06
1.1176166e-06
1.1126296e-06
1.1077698e-06
1.1030305e-06
1.0984046e-06
1.0938856e-06
1.0894666e-06
1.0851411e-06
1.0809036e-06
1.0767486e-06
1.0726716e-06
1.0686684e-06
1.064735e-06
1.0608675e-06
1.0570623e-06
1.0533157e-06
1.049624e-06
1.0459839e-06
1.042393e-06
1.038848e-06
1.0353455e-06
1.0318833e-06
1.0284596e-06
1.0250715e-06
1.0217163e-06
1.0183915e-06
1.0150952e-06
1.011826e-06
1.0085813e-06
1.0053586e-06
1.0021563e-06
9.9897292e-07
9.9580667e-07
9.9265548e-07
9.8951682e-07
9.8638947e-07
9.8327216e-07
9.8016306e-07
9.770601e-07
9.7396098e-07
9.7086453e-07
9.6776951e-07
9.6467397e-07
9.6157568e-07
9.584726e-07
9.5536339e-07
9.522466e-07
9.4911997e-07
9.4598095e-07
9.4282783e-07
9.3965895e-07
9.3647209e-07
9.3326458e-07
9.3003378e-07
9.2677767e-07
9.2349392e-07
9.2017934e-07
9.168306e-07
9.1344503e-07
9.1001958e-07
9.0655022e-07
9.0303277e-07
8.9946355e-07
8.9583766e-07
8.9215046e-07
8.8847579e-07
8.8493086e-07
8.8154919e-07
8.7831717e-07
8.7522365e-07
8.7225855e-07
8.6941223e-07
8.666759e-07
8.640419e-07
8.6150328e-07
8.5905348e-07
8.5668638e-07
8.5439629e-07
8.5217825e-07
8.5002722e-07
8.4793892e-07
8.459066e-07
8.4392912e-07
8.4198772e-07
8.4010321e-07
8.3818067e-07
8.3646643e-07
8.3363782e-07
5.6077682e-07
3.3222528e-07
2.7165046e-07
2.4617886e-07
2.3129702e-07
2.2128692e-07
2.1411364e-07
2.0876942e-07
2.0466957e-07
2.014494e-07
1.9887074e-07
1.9677218e-07
1.9504069e-07
1.9359486e-07
1.923747e-07
1.9133469e-07
1.9044112e-07
1.8966271e-07
1.8899903e-07
1.8833045e-07
1.8816704e-07
1.8589978e-07
1.9473606e-07
1.2305666e-07
4.4923365e-07
1.1124825e-06
1.3218508e-06
1.3879058e-06
1.4069114e-06
1.408932e-06
1.4044281e-06
1.397487e-06
1.3896323e-06
1.381462e-06
1.3732687e-06
1.3651956e-06
1.3572852e-06
1.3495654e-06
1.3420684e-06
1.3347885e-06
1.3277173e-06
1.3208577e-06
1.3141989e-06
1.3077287e-06
1.3014387e-06
1.2953187e-06
1.2893594e-06
1.2835529e-06
1.2778917e-06
1.2723699e-06
1.2669815e-06
1.26172e-06
1.2565784e-06
1.2515503e-06
1.2466286e-06
1.2418063e-06
1.237078e-06
1.232438e-06
1.2278816e-06
1.2234042e-06
1.219002e-06
1.2146709e-06
1.210407e-06
1.2062063e-06
1.202065e-06
1.1979795e-06
1.1939472e-06
1.1899647e-06
1.1860281e-06
1.1821353e-06
1.1782842e-06
1.1744716e-06
1.1706946e-06
1.1669506e-06
1.1632375e-06
1.1595535e-06
1.1558962e-06
1.1522625e-06
1.1486508e-06
1.1450594e-06
1.1414863e-06
1.1379294e-06
1.1343857e-06
1.1308539e-06
1.1273326e-06
1.1238198e-06
1.1203132e-06
1.1168103e-06
1.1133096e-06
1.1098098e-06
1.1063089e-06
1.1028041e-06
1.0992934e-06
1.0957751e-06
1.0922477e-06
1.0887086e-06
1.0851549e-06
1.0815847e-06
1.0779962e-06
1.0743869e-06
1.0707537e-06
1.0670936e-06
1.0634045e-06
1.0596836e-06
1.0559273e-06
1.0521319e-06
1.0482944e-06
1.0444113e-06
1.040478e-06
1.0364899e-06
1.0324427e-06
1.0283308e-06
1.0241491e-06
1.019981e-06
1.0159599e-06
1.0121237e-06
1.0084571e-06
1.0049474e-06
1.0015833e-06
9.9835377e-07
9.9524888e-07
9.9225997e-07
9.8937917e-07
9.8659901e-07
9.8391256e-07
9.8131336e-07
9.7879579e-07
9.7635416e-07
9.739836e-07
9.7167652e-07
9.6943145e-07
9.6722774e-07
9.6508762e-07
9.629067e-07
9.6095935e-07
9.5774483e-07
5.8833559e-07
3.4842899e-07
2.8275542e-07
2.5484178e-07
2.3845673e-07
2.2740594e-07
2.1947157e-07
2.1355053e-07
2.0900164e-07
2.0542422e-07
2.0255615e-07
2.0021943e-07
1.9828921e-07
1.9667541e-07
1.9531153e-07
1.9414702e-07
1.9314435e-07
1.9226853e-07
1.9151871e-07
1.9076282e-07
1.9055404e-07
1.8806188e-07
1.9777852e-07
1.2654889e-07
4.5439412e-07
1.204301e-06
1.4648783e-06
1.5529235e-06
1.5821023e-06
1.5886239e-06
1.586264e-06
1.5803994e-06
1.5730511e-06
1.565038e-06
1.5567773e-06
1.548489e-06
1.5402568e-06
1.532136e-06
1.5241833e-06
1.5164088e-06
1.5088138e-06
1.501411e-06
1.4941955e-06
1.4871594e-06
1.4802978e-06
1.4736033e-06
1.4670687e-06
1.4606877e-06
1.454454e-06
1.4483634e-06
1.4424105e-06
1.4365895e-06
1.4308936e-06
1.4253168e-06
1.4198517e-06
1.4144915e-06
1.4092306e-06
1.4040632e-06
1.3989844e-06
1.3939898e-06
1.3890754e-06
1.3842371e-06
1.3794705e-06
1.3747718e-06
1.3701367e-06
1.3655617e-06
1.3610438e-06
1.3565794e-06
1.3521643e-06
1.3477964e-06
1.3434733e-06
1.3391918e-06