/*--------------------------------*- C++ -*----------------------------------*\
  =========                 |
  \\      /  F ield         | OpenFOAM: The Open Source CFD Toolbox
   \\    /   O peration     | Website:  https://openfoam.org
    \\  /    A nd           | Version:  12
     \\/     M anipulation  |
\*---------------------------------------------------------------------------*/
FoamFile
{
    format      ascii;
    class       volScalarField;
    location    "900";
    object      p;
}
// * * * * * * * * * * * * * * * * * * * * * * * * * * * * * * * * * * * * * //

dimensions      [0 2 -2 0 0 0 0];

internalField   nonuniform List<scalar> 
7480
(
0.0087607231
0.0080220837
0.0068984243
0.0063247709
0.0060172522
0.005736811
0.0054712865
0.0052443314
0.0050470257
0.0048689887
0.0047035431
0.0045485337
0.0044044515
0.0042659951
0.0041334931
0.0040053968
0.0038815768
0.0037647173
0.0036558664
0.0035544887
0.0034613015
0.0033771224
0.0033027276
0.0032389044
0.003186006
0.0031429745
0.0031096932
0.0030844862
0.0030630112
0.0030421655
0.003019439
0.0029937334
0.0029649855
0.002935067
0.0029048489
0.0028733262
0.0028404891
0.0028061558
0.0027705049
0.0027345435
0.0026984516
0.0026617703
0.0026247176
0.0025875681
0.0025508435
0.0025143672
0.0024776494
0.0024407011
0.0024040689
0.0023677815
0.0023312652
0.0022945388
0.0022579718
0.0022215636
0.0021848871
0.0021479957
0.0021111273
0.0020742036
0.0020369218
0.0019994687
0.0019618886
0.0019239656
0.0018857297
0.0018472588
0.001808425
0.0017691963
0.0017296434
0.0016896554
0.0016492214
0.0016083746
0.001567015
0.0015251612
0.0014827901
0.0014398661
0.0013963872
0.0013523064
0.0013076235
0.0012623135
0.0012163579
0.0011697447
0.0011224621
0.0010745008
0.001025856
0.00097652812
0.00092652532
0.00087586368
0.00082457761
0.00077270751
0.00072035209
0.00066756859
0.00061467268
0.00056156371
0.00050954688
0.00045699145
0.00041059188
0.00035814721
0.00033746746
0.00025980909
0.00054450055
-0.00044295242
0.0082801042
0.0076161257
0.0067830966
0.006323867
0.0060678062
0.0058194668
0.0055717754
0.0053503613
0.0051546807
0.0049732147
0.0048024179
0.004641135
0.0044908982
0.0043466547
0.004208947
0.0040767511
0.0039496465
0.0038286435
0.0037150687
0.0036095726
0.0035125368
0.0034244716
0.0033460873
0.0032780374
0.0032203292
0.0031717206
0.0031324642
0.0031016286
0.003075381
0.0030509402
0.0030260492
0.0029995139
0.0029708796
0.0029416154
0.0029121452
0.0028810978
0.0028484013
0.0028139748
0.0027781372
0.0027419883
0.002705718
0.0026688576
0.0026316204
0.0025942673
0.0025573234
0.0025206178
0.0024836694
0.0024464939
0.002409638
0.0023731275
0.0023363892
0.0022994468
0.0022626717
0.0022260624
0.0021891902
0.0021521107
0.0021150623
0.0020779655
0.0020405174
0.0020029061
0.0019651742
0.0019271058
0.0018887312
0.0018501279
0.0018111676
0.0017718179
0.0017321498
0.0016920515
0.0016515123
0.0016105652
0.0015691098
0.0015271646
0.0014847063
0.0014416991
0.0013981409
0.0013539844
0.0013092293
0.0012638503
0.001217829
0.0011711531
0.0011238105
0.0010757921
0.0010270927
0.00097771278
0.00092766027
0.00087695118
0.00082561982
0.0007737065
0.00072130985
0.00066848701
0.00061555369
0.00056240899
0.00051035866
0.00045777076
0.00041134282
0.00035886889
0.00033815079
0.00026059353
0.00054534121
-0.00044229234
0.0080002506
0.0075258591
0.0068474645
0.0063729836
0.0060745867
0.0057992996
0.0055341693
0.0053004109
0.0050972146
0.0049121928
0.0047411083
0.0045824081
0.0044347107
0.0042954371
0.0041632116
0.0040371928
0.003916854
0.0038024869
0.0036955745
0.0035972131
0.0035076026
0.0034270706
0.0033561035
0.0032950976
0.0032439626
0.0032015938
0.0031663971
0.0031366399
0.0031098089
0.0030831817
0.0030548829
0.0030241403
0.0029907514
0.0029567829
0.0029233991
0.0028895583
0.0028551267
0.0028198697
0.002783861
0.0027479337
0.0027119516
0.0026752191
0.0026379212
0.0026003856
0.0025632198
0.0025262873
0.0024891219
0.0024517456
0.0024147018
0.0023780056
0.0023410829
0.0023039661
0.0022670262
0.0022302575
0.0021932276
0.0021559957
0.0021188009
0.0020815621
0.0020439749
0.0020062305
0.0019683701
0.0019301769
0.0018916826
0.0018529642
0.0018138926
0.0017744359
0.0017346649
0.0016944673
0.0016538329
0.0016127941
0.0015712505
0.0015292207
0.0014866811
0.0014435957
0.0013999626
0.0013557341
0.0013109099
0.0012654647
0.0012193797
0.0011726428
0.0011252417
0.0010771671
0.0010284139
0.00097898234
0.0009288803
0.00087812371
0.00082674683
0.00077478985
0.00072235139
0.00066948848
0.0006165169
0.00056333544
0.00051125055
0.00045862867
0.00041217145
0.00035966393
0.00033892746
0.00026145497
0.00054622682
-0.00044163504
0.0077611243
0.007366717
0.0067678898
0.0063160833
0.0060260728
0.0057702916
0.0055246853
0.0053069666
0.0051155943
0.0049394616
0.0047744401
0.00462007
0.0044731383
0.0043346899
0.0042019206
0.0040745041
0.0039521168
0.0038350851
0.0037249597
0.0036228411
0.003528982
0.0034438293
0.0033680313
0.0033022745
0.003246952
0.003201661
0.0031642967
0.0031333199
0.0031073039
0.003083221
0.0030587152
0.003032485
0.0030041283
0.0029737879
0.0029417117
0.0029079516
0.0028724034
0.0028350334
0.0027962807
0.0027576419
0.002719515
0.0026813878
0.0026433438
0.0026055646
0.0025684706
0.0025316736
0.0024945409
0.0024570793
0.0024198922
0.002383025
0.0023459195
0.0023086299
0.002271526
0.0022345945
0.0021974015
0.002160014
0.002122672
0.0020852905
0.0020475625
0.0020096834
0.0019716933
0.0019333739
0.0018947583
0.0018559232
0.0018167382
0.0017771721
0.001737296
0.0016969965
0.0016562638
0.0016151305
0.0015734955
0.001531378
0.0014887537
0.001445587
0.0014018755
0.0013575717
0.0013126752
0.0012671604
0.0012210085
0.0011742074
0.0011267446
0.0010786108
0.0010298008
0.00098031464
0.00093016023
0.0008793534
0.00082792831
0.00077592509
0.00072344231
0.00067053689
0.00061752465
0.00056430409
0.00051218221
0.00045952411
0.00041303446
0.00036049073
0.0003397366
0.00026221289
0.00054709917
-0.00044104041
0.007542028
0.0072041964
0.0066916432
0.0062871851
0.0060103706
0.0057639881
0.0055230416
0.0053064448
0.0051133042
0.0049349021
0.0047676105
0.0046110531
0.0044629437
0.0043238798
0.004191134
0.0040643288
0.0039431474
0.0038278273
0.0037196358
0.0036195158
0.0035277625
0.0034447987
0.0033711381
0.0033072814
0.0032534282
0.0032089391
0.003171621
0.0031399731
0.0031124946
0.0030862401
0.0030592151
0.0030307278
0.0030011599
0.0029701725
0.0029382256
0.0029061659
0.0028734145
0.0028395818
0.0028045451
0.0027683768
0.0027311784
0.0026930676
0.0026541238
0.0026147703
0.0025759916
0.002537816
0.0024997715
0.0024618061
0.0024244645
0.0023876211
0.0023505263
0.0023131871
0.0022759927
0.0022389437
0.0022016168
0.0021640987
0.0021266293
0.0020891184
0.002051259
0.0020132548
0.001975143
0.0019367035
0.0018979717
0.0018590242
0.0018197291
0.0017800561
0.0017400767
0.0016996761
0.0016588456
0.0016176177
0.0015758905
0.0015336839
0.0014909735
0.0014477233
0.0014039313
0.0013595495
0.0013145778
0.0012689903
0.0012227685
0.0011758998
0.001128372
0.0010801755
0.0010313051
0.00098176087
0.00093155056
0.00088068994
0.00082921313
0.00077716018
0.00072462961
0.00067167824
0.0006186219
0.00056535891
0.00051319644
0.00046049891
0.00041397238
0.00036138938
0.00034060961
0.00026299494
0.00054799974
-0.00044033846
0.0073451295
0.0070595721
0.0066225294
0.0062557261
0.0059855922
0.0057437501
0.005509374
0.0052973286
0.0051072772
0.0049318384
0.0047674028
0.004613435
0.0044678964
0.0043306964
0.0041996719
0.004074345
0.0039544779
0.0038402869
0.0037328527
0.0036330749
0.003541354
0.0034581714
0.0033839925
0.0033192399
0.0032640873
0.0032179803
0.0031790613
0.0031458861
0.0031170081
0.0030897727
0.0030622935
0.0030338225
0.0030042883
0.002973086
0.002940655
0.0029076697
0.0028736046
0.0028385565
0.0028028195
0.0027662724
0.0027294599
0.00269291
0.0026563738
0.0026197137
0.0025828018
0.0025454524
0.0025075941
0.0024690952
0.0024307948
0.0023930082
0.002355177
0.0023173453
0.0022799275
0.0022428285
0.0022054796
0.0021679199
0.0021303876
0.0020927953
0.002054842
0.0020167458
0.0019785394
0.0019400006
0.0019011704
0.0018621265
0.001822735
0.0017829672
0.0017428951
0.0017024028
0.0016614826
0.0016201672
0.001578354
0.0015360636
0.0014932712
0.0014499412
0.0014060715
0.0013616139
0.0013165687
0.0012709098
0.0012246186
0.0011776828
0.0011300898
0.0010818303
0.0010328989
0.00098329567
0.00093302835
0.00088211266
0.00083058267
0.00077847841
0.00072589832
0.00067289919
0.00061979678
0.00056648936
0.00051428396
0.0004615449
0.00041497797
0.00036235345
0.0003415413
0.00026383528
0.00054890701
-0.00043947821
0.0071666569
0.006925865
0.0065529852
0.0062194646
0.0059579697
0.0057226998
0.0054962455
0.0052893883
0.0051025815
0.0049296149
0.0047672472
0.0046148058
0.0044705407
0.0043341289
0.0042039082
0.0040793341
0.0039602378
0.0038468262
0.0037400439
0.0036407548
0.0035493893
0.0034663956
0.0033922125
0.0033272293
0.0032715666
0.003224759
0.0031851367
0.0031511759
0.0031214466
0.0030935064
0.0030654874
0.003036537
0.003006499
0.0029749279
0.0029422545
0.0029090804
0.0028750078
0.0028401087
0.0028044408
0.0027677957
0.0027306951
0.0026935729
0.0026563711
0.0026191998
0.0025818767
0.0025447132
0.0025079676
0.0024713642
0.0024347213
0.0023978504
0.0023605687
0.0023227216
0.002284863
0.0022472153
0.0022093713
0.0021714473
0.0021337306
0.002096075
0.0020580869
0.0020199555
0.0019817013
0.0019431023
0.0019042088
0.0018650989
0.001825636
0.0017857944
0.0017456484
0.0017050805
0.0016640851
0.001622695
0.0015808069
0.0015384428
0.0014955775
0.0014521754
0.001408235
0.0013637078
0.0013185942
0.0012728684
0.0012265117
0.0011795119
0.0011318565
0.0010835361
0.0010345454
0.00098488453
0.00093456118
0.00088359108
0.00083200829
0.00077985283
0.0007272231
0.00067417588
0.00062102682
0.00056767425
0.00051542473
0.00046264316
0.0004160332
0.00036336583
0.00034251606
0.00026471438
0.00054978443
-0.00043844821
0.0070030883
0.0067991027
0.0064810351
0.0061794631
0.0059292436
0.0057017119
0.0054830101
0.0052811896
0.0050974528
0.0049268114
0.004766355
0.0046153768
0.0044724097
0.0043369929
0.0042077732
0.0040841717
0.0039660501
0.0038536036
0.0037476546
0.0036490095
0.0035581077
0.003475378
0.0034012449
0.0033360666
0.0032799322
0.0032323871
0.0031918957
0.0031569612
0.0031261944
0.0030973508
0.0030686159
0.0030391093
0.0030086526
0.0029768579
0.0029440464
0.0029107389
0.0028765964
0.0028416179
0.0028058403
0.0027691441
0.002732017
0.002694866
0.0026576715
0.0026204494
0.0025830161
0.00254567
0.0025085837
0.0024716871
0.0024345984
0.0023974506
0.0023606796
0.0023240522
0.0022873861
0.0022504999
0.0022131977
0.0021754143
0.0021375219
0.0020995588
0.0020612603
0.002022901
0.0019845317
0.0019458807
0.001906958
0.001867819
0.0018283191
0.0017884357
0.0017482451
0.0017076269
0.0016665779
0.0016251322
0.0015831859
0.0015407629
0.0014978377
0.0014543753
0.0014103746
0.0013657869
0.0013206134
0.001274828
0.0012284122
0.0011813541
0.0011336412
0.0010852642
0.001036218
0.00098650257
0.00093612585
0.00088510356
0.00083346978
0.00078126457
0.0007285863
0.0006754918
0.00062229653
0.00056889908
0.00051660512
0.00046378089
0.00041712589
0.00036441506
0.00034352278
0.0002656168
0.0005506024
-0.00043722785
0.0068526965
0.0066787021
0.0064070905
0.0061356888
0.0058983358
0.0056793504
0.0054685483
0.0052720928
0.0050917266
0.0049236251
0.0047652372
0.0046158725
0.0044743078
0.0043399997
0.0042118277
0.0040892283
0.0039720842
0.0038605843
0.0037554474
0.0036574217
0.003566954
0.0034844625
0.0034103541
0.0033449548
0.0032883247
0.003240018
0.0031986359
0.003162739
0.0031309689
0.0031012371
0.0030718011
0.0030417741
0.0030109273
0.002978886
0.0029458867
0.002912387
0.0028780971
0.0028429924
0.0028071299
0.0027704243
0.0027333033
0.0026961525
0.0026589553
0.0026217092
0.0025842791
0.0025469174
0.0025097806
0.0024727767
0.0024355644
0.0023983345
0.0023614174
0.002324629
0.0022876089
0.0022504368
0.0022134578
0.0021765046
0.002139421
0.0021020243
0.0020641487
0.0020259301
0.0019874948
0.0019486631
0.0019095524
0.0018702876
0.001830724
0.0017908104
0.0017505991
0.0017099576
0.0016688824
0.0016274073
0.0015854264
0.0015429653
0.0014999985
0.0014564921
0.0014124455
0.0013678101
0.0013225881
0.0012767532
0.0012302876
0.0011831792
0.0011354161
0.001086989
0.0010378929
0.00098812794
0.00093770221
0.0008866315
0.00083494999
0.00078269779
0.0007299733
0.00067683344
0.00062359346
0.00057015232
0.00051781445
0.00046494819
0.00041824673
0.00036549248
0.00034455295
0.00026653351
0.00055133376
-0.00043578815
0.0067138973
0.0065643635
0.0063318156
0.0060882737
0.005864701
0.0056549884
0.0054524102
0.0052617751
0.0050851935
0.0049199203
0.0047638031
0.0046162061
0.0044761289
0.004343007
0.0042159165
0.0040943371
0.0039781702
0.0038676014
0.0037632636
0.0036658506
0.0035758124
0.0034935565
0.0034194705
0.0033538508
0.0032967331
0.0032476851
0.0032054329
0.0031685952
0.0031358426
0.0031052304
0.003075093
0.0030445366
0.0030132813
0.0029809647
0.002947757
0.0029140579
0.0028796202
0.0028444053
0.0028084714
0.002771747
0.0027346115
0.0026974305
0.0026601936
0.0026229056
0.0025854606
0.0025480812
0.0025109197
0.0024738882
0.0024366856
0.0023994645
0.0023624978
0.0023255926
0.002288453
0.002251223
0.0022141731
0.0021770964
0.0021397264
0.0021021735
0.0020646538
0.0020270045
0.0019890778
0.001950695
0.0019118787
0.0018727176
0.0018330992
0.0017930697
0.0017527565
0.0017120541
0.0016709507
0.0016294602
0.0015874649
0.0015449884
0.0015020028
0.0014584734
0.0014143998
0.0013697338
0.0013244782
0.0012786074
0.0012321039
0.0011849562
0.0011371525
0.0010886839
0.0010395456
0.00098973811
0.0009392695
0.00088815581
0.00083643135
0.00078413635
0.00073136926
0.00067818715
0.00062490503
0.00057142241
0.00051904202
0.0004661352
0.00041938651
0.00036658957
0.00034559829
0.00026745619
0.00055195155
-0.00043409624
0.0065851804
0.0064557146
0.0062558828
0.0060377289
0.0058283868
0.0056284889
0.0054343822
0.0052499536
0.0050775568
0.0049154164
0.0047617994
0.0046161546
0.0044776901
0.0043458687
0.0042199347
0.0040994273
0.0039842668
0.0038746394
0.0037711082
0.0036743163
0.0035847135
0.0035026967
0.0034286349
0.0033627984
0.0033052034
0.0032554327
0.0032123234
0.0031745543
0.0031408302
0.0031093395
0.0030784933
0.0030473933
0.003015716
0.0029831093
0.0029496852
0.0029157849
0.0028811968
0.0028458697
0.0028098566
0.0027731004
0.002735941
0.0026987219
0.0026614457
0.0026241209
0.0025866571
0.0025492544
0.0025120569
0.0024749866
0.0024377628
0.0024005147
0.0023635065
0.0023265668
0.0022894367
0.0022522162
0.0022151146
0.0021779323
0.0021404715
0.0021028839
0.0020653359
0.0020275129
0.0019893521
0.00195104
0.0019125649
0.0018737989
0.0018345583
0.0017948566
0.0017547315
0.0017140599
0.0016729032
0.0016313448
0.001589302
0.0015468035
0.0015038075
0.0014602706
0.0014161891
0.0013715119
0.0013262414
0.0012803516
0.0012338255
0.0011866521
0.00113882
0.001090321
0.0010411505
0.00099130929
0.00094080581
0.0008896563
0.00083789527
0.00078556314
0.00073275844
0.00067953848
0.00062621795
0.0005726971
0.00052027657
0.00046733155
0.00042053551
0.00036769736
0.00034665017
0.00026837548
0.00055243003
-0.00043211523
0.0064652639
0.0063523797
0.0061799001
0.0059846617
0.0057896192
0.0055998721
0.0054143806
0.0052364603
0.0050686116
0.0049099027
0.0047590258
0.0046155383
0.0044788415
0.0043484598
0.0042237839
0.004104422
0.0039903173
0.0038816591
0.0037789548
0.0036828019
0.0035936468
0.0035118772
0.0034378448
0.0033717975
0.0033137362
0.0032632597
0.0032193051
0.0031806145
0.0031459313
0.0031135661
0.0030820054
0.0030503516
0.0030182429
0.0029853337
0.0029516828
0.0029175759
0.0028828305
0.0028473851
0.0028112869
0.0027744929
0.0027373066
0.0027000489
0.0026627332
0.0026253698
0.0025878822
0.0025504505
0.0025132097
0.0024760909
0.0024388385
0.0024015656
0.0023645188
0.0023275452
0.002290399
0.0022531509
0.0022160027
0.0021787902
0.0021413387
0.002103752
0.0020661358
0.0020282235
0.0019900207
0.0019517031
0.0019131339
0.001874174
0.0018348976
0.0017953824
0.0017555316
0.0017151704
0.001674321
0.0016329729
0.0015910037
0.0015484914
0.0015054559
0.001461889
0.0014177939
0.0013731119
0.0013278396
0.0012819469
0.001235415
0.0011882321
0.0011403867
0.0010918708
0.0010426803
0.0009928164
0.00094228797
0.00089111159
0.00083932203
0.00078695998
0.00073412411
0.00068087201
0.00062751804
0.00057396338
0.00052150608
0.00046852618
0.00042168342
0.00036880628
0.00034769943
0.00026928113
0.00055272421
-0.00042980393
0.0063530731
0.0062539821
0.0061043606
0.0059296432
0.0057486672
0.0055692346
0.0053924234
0.0052212382
0.0050582539
0.0049032529
0.004755347
0.0046142216
0.0044794566
0.0043506612
0.004227357
0.0041092267
0.0039962401
0.0038885923
0.0037867466
0.0036912601
0.0036025737
0.0035210671
0.0034470762
0.0033808295
0.0033223169
0.0032711547
0.0032263704
0.0031867718
0.0031511443
0.0031179108
0.0030856326
0.0030534166
0.0030208676
0.0029876429
0.0029537542
0.0029194346
0.0028845251
0.0028489563
0.002812769
0.0027759321
0.0027387153
0.002701417
0.0026640599
0.0026266558
0.0025891416
0.0025516788
0.0025143932
0.0024772245
0.0024399413
0.0024026413
0.0023655502
0.0023285307
0.0022913518
0.002254075
0.0022168914
0.0021796525
0.0021421882
0.0021045745
0.0020669129
0.0020289851
0.0019907933
0.0019524488
0.0019138102
0.0018747997
0.0018355263
0.0017959441
0.0017559352
0.0017155307
0.0016747783
0.0016336142
0.0015919136
0.0015496759
0.0015068348
0.0014633517
0.0014192635
0.0013745619
0.0013292749
0.0012833772
0.0012368463
0.0011896655
0.0011418209
0.0010933027
0.0010441063
0.00099423289
0.00094369146
0.00089249902
0.00084069069
0.00078830754
0.0007354484
0.00068217126
0.0006287901
0.00057520723
0.00052271764
0.00046970716
0.00042281914
0.00036990602
0.00034873621
0.0002701632
0.00055279113
-0.00042712171
0.0062476962
0.0061601485
0.0060296435
0.0058731844
0.0057058133
0.0055367137
0.0053685829
0.0052042917
0.0050464392
0.0048953956
0.0047506756
0.0046121079
0.004479438
0.004352375
0.0042305606
0.004113754
0.0040019558
0.0038953687
0.0037944221
0.0036996375
0.003611449
0.0035302287
0.0034562984
0.0033898701
0.0033309266
0.0032791028
0.0032335088
0.0031930191
0.0031564642
0.0031223712
0.0030893742
0.003056589
0.0030235915
0.0029900392
0.0029559023
0.0029213641
0.0028862843
0.0028505875
0.0028143071
0.0027774215
0.0027401701
0.002702829
0.0026654285
0.0026279822
0.0025904389
0.0025529435
0.0025156125
0.0024783936
0.0024410777
0.0024037479
0.0023666101
0.0023295418
0.002292328
0.0022550215
0.0022177977
0.0021805198
0.0021430249
0.0021053811
0.0020676888
0.0020297456
0.0019915407
0.0019531659
0.0019144994
0.0018754854
0.0018362044
0.0017965774
0.0017565247
0.0017161251
0.0016753012
0.0016340038
0.0015922749
0.0015500947
0.0015073987
0.0014641535
0.0014203053
0.0013757673
0.0013305534
0.00128467
0.0012381338
0.0011909497
0.0011431073
0.0010945943
0.0010454029
0.00099553253
0.00094499096
0.00089379478
0.00084197911
0.00078958528
0.0007367123
0.00068341864
0.00063001785
0.00057641359
0.0005238973
0.00047086161
0.00042393062
0.00037098535
0.00034974987
0.00027100952
0.00055259231
-0.00042401884
0.0061483553
0.0060705206
0.005956031
0.0058157349
0.0056613398
0.0055024649
0.005342956
0.0051856561
0.0050331553
0.004886292
0.0047449565
0.0046091312
0.0044787155
0.0043535275
0.004233321
0.0041179327
0.0040073967
0.0039019263
0.0038019248
0.0037078831
0.0036202275
0.0035393227
0.0034654781
0.003398892
0.0033395429
0.0032870856
0.0032407061
0.0031993458
0.003161883
0.0031269414
0.0030932266
0.0030598669
0.0030264136
0.002992523
0.002958128
0.0029233657
0.0028881099
0.0028522803
0.0028159028
0.0027789631
0.0027416729
0.0027042867
0.002666841
0.0026293512
0.0025917767
0.002554247
0.0025168698
0.0024796001
0.0024422494
0.0024048879
0.0023677028
0.0023305851
0.0022933354
0.002255997
0.0022187299
0.0021814092
0.0021438812
0.0021062062
0.0020684773
0.0020305047
0.001992272
0.0019538675
0.0019151819
0.0018761566
0.001836858
0.0017972111
0.0017571467
0.0017167349
0.001675886
0.0016345656
0.0015928233
0.0015505611
0.0015077716
0.0014644978
0.0014206938
0.0013763065
0.0013313051
0.0012856189
0.0012392114
0.0011920855
0.0011442597
0.0010957503
0.0010465634
0.00099670001
0.00094616628
0.00089497677
0.00084316514
0.00079077195
0.00073789583
0.00068459551
0.00063118397
0.00057756636
0.00052503012
0.00047197562
0.00042500486
0.00037203207
0.00035072887
0.00027180575
0.00055209006
-0.00042043727
0.0060543848
0.0059847621
0.005883725
0.0057576827
0.0056155208
0.0054666523
0.0053156524
0.0051653855
0.0050184097
0.0048759228
0.0047381542
0.0046052448
0.0044772374
0.0043540627
0.0042355809
0.0041217056
0.0040125075
0.0039082125
0.0038092054
0.003715951
0.003628867
0.0035483112
0.0034745822
0.0034078666
0.0033481417
0.0032950831
0.0032479461
0.0032057389
0.0031673901
0.0031316134
0.0030971843
0.0030632465
0.0030293314
0.0029950929
0.0029604307
0.002925439
0.0028900019
0.0028540352
0.0028175565
0.0027805576
0.0027432246
0.0027057911
0.0026682986
0.002630764
0.0025931561
0.0025555904
0.0025181663
0.0024808453
0.0024434581
0.0024060632
0.0023688302
0.0023316624
0.0022943752
0.0022570032
0.0022196916
0.0021823274
0.0021447655
0.0021070574
0.0020692883
0.0020312823
0.0019930195
0.0019545827
0.0019158694
0.0018768194
0.0018374942
0.0017978272
0.0017577508
0.0017173235
0.0016764679
0.0016351395
0.0015933765
0.0015510973
0.0015083067
0.00146499
0.001421097
0.0013766471
0.0013316277
0.0012860099
0.0012397542
0.0011928127
0.001145143
0.0010967302
0.0010475874
0.0009977407
0.00094721596
0.00089603547
0.00084423351
0.00079184928
0.0007389798
0.00068568297
0.00063227043
0.00057864859
0.00052610022
0.00047303435
0.00042602794
0.000373033
0.00035166079
0.00027253784
0.00055124465
-0.00041632054
0.0059652129
0.0059025629
0.0058128622
0.0056993578
0.0055686168
0.0054294446
0.0052867904
0.0051435466
0.0050022232
0.0048642811
0.004730245
0.0046004137
0.0044749627
0.0043539354
0.0042372935
0.0041250257
0.0040172419
0.0039141831
0.0038162217
0.0037238009
0.0036373297
0.0035571597
0.0034835796
0.0034167666
0.0033566991
0.0033030742
0.0032552114
0.0032121843
0.0031729739
0.0031363781
0.0031012402
0.0030667225
0.0030323411
0.0029977461
0.0029628085
0.0029275825
0.0028919592
0.0028558512
0.0028192678
0.0027822047
0.0027448252
0.0027073422
0.0026698014
0.0026322209
0.0025945775
0.0025569744
0.0025195027
0.0024821299
0.0024447046
0.0024072747
0.0023699933
0.0023327748
0.0022954487
0.0022580416
0.0022206848
0.0021832762
0.0021456791
0.0021079363
0.0020701258
0.0020320854
0.0019937917
0.0019553202
0.0019165752
0.0018774972
0.0018381426
0.0017984495
0.001758351
0.0017179002
0.0016770266
0.0016356845
0.0015939083
0.0015516267
0.0015088343
0.0014655019
0.0014215968
0.0013771263
0.0013320496
0.0012863659
0.0012400669
0.001193137
0.0011455555
0.0010972895
0.001048302
0.00099857437
0.00094811846
0.00089697029
0.0008451842
0.00079281155
0.00073995288
0.0006866661
0.00063326071
0.00057964351
0.00052709133
0.00047402229
0.00042698517
0.00037397408
0.00035253239
0.00027319016
0.00054999562
-0.0004116074
0.0058803457
0.0058236392
0.0057435278
0.0056410353
0.0055208714
0.0053910112
0.0052564938
0.0051202167
0.0049846281
0.0048513694
0.0047212134
0.0045946101
0.0044718572
0.004353107
0.004238418
0.0041278519
0.0040215597
0.0039197994
0.0038229366
0.0037313973
0.0036455821
0.0035658366
0.0034924413
0.0034255661
0.0033651922
0.0033110388
0.0032624846
0.0032186676
0.003178622
0.0031412254
0.0031053864
0.0030702891
0.0030354379
0.0030004793
0.0029652588
0.002929794
0.0028939801
0.0028577267
0.0028210351
0.0027839033
0.0027464736
0.0027089393
0.0026713489
0.0026337213
0.0025960406
0.0025583988
0.002520879
0.0024834542
0.0024459892
0.002408523
0.0023711927
0.0023339229
0.0022965565
0.0022591129
0.0022217105
0.0021842566
0.0021466228
0.0021088441
0.0020709916
0.0020329156
0.0019945898
0.0019560823
0.0019173044
0.0018781974
0.0018388119
0.0017990897
0.0017589657
0.001718488
0.0016775901
0.0016362271
0.0015944311
0.0015521343
0.0015093273
0.0014659856
0.0014220798
0.0013776058
0.0013325218
0.0012868209
0.0012404864
0.0011935058
0.0011458752
0.0010975896
0.0010486418
0.00099901785
0.00094869841
0.00089767511
0.00084597455
0.00079364862
0.00074081342
0.00068754102
0.0006341463
0.00058053888
0.00052798922
0.00047492442
0.00042786171
0.00037484064
0.00035332991
0.00027374551
0.00054828634
-0.00040623268
0.0057993549
0.0057477337
0.005675767
0.0055829412
0.0054725088
0.0053515204
0.00522489
0.0050954808
0.0049656664
0.0048371992
0.0047110513
0.0045878122
0.004467891
0.0043515428
0.0042389173
0.0041301466
0.0040254237
0.0039250259
0.0038293162
0.0037387077
0.0036535931
0.003574313
0.0035011407
0.0034342408
0.0033735991
0.0033189571
0.0032697485
0.003225174
0.0031843221
0.0031461449
0.0031096148
0.0030739398
0.0030386167
0.0030032884
0.0029677783
0.0029320706
0.002896062
0.0028596598
0.0028228567
0.0027856519
0.0027481687
0.0027105813
0.0026729399
0.0026352644
0.0025975449
0.0025598631
0.0025222949
0.0024848178
0.0024473119
0.002409808
0.0023724284
0.0023351069
0.002297699
0.0022602178
0.002222769
0.0021852691
0.0021475974
0.0021097819
0.0020718866
0.002033774
0.0019954148
0.0019568705
0.0019180586
0.0018789216
0.001839504
0.0017997516
0.0017596007
0.0017190946
0.0016781705
0.0016367839
0.0015949638
0.0015526453
0.001509818
0.0014664597
0.0014225405
0.0013780552
0.0013329658
0.0012872622
0.0012409241
0.0011939346
0.001146282
0.0010979586
0.0010489662
0.00099931018
0.00094899971
0.00089804291
0.00084645292
0.0007942454
0.00074150301
0.00068828757
0.00063492209
0.00058133108
0.00052878711
0.00047573048
0.00042864513
0.00037561876
0.00035403976
0.0002741856
0.00054606158
-0.00040013027
0.0057218671
0.0056746139
0.0056095948
0.0055252576
0.0054237317
0.0053111359
0.0051921081
0.0050694306
0.0049453889
0.0048217899
0.0046997574
0.0045800038
0.0044630385
0.0043492111
0.0042387565
0.0041318741
0.0040287987
0.0039298287
0.0038353283
0.0037457011
0.0036613334
0.0035825613
0.0035096523
0.0034427675
0.0033818986
0.0033268099
0.0032769863
0.0032316891
0.0031900615
0.0031511261
0.0031139169
0.0030776679
0.0030418721
0.0030061694
0.0029703637
0.0029344095
0.0028982026
0.002861648
0.0028247304
0.0027874486
0.0027499086
0.0027122664
0.002674573
0.0026368489
0.0025990892
0.0025613663
0.0025237494
0.00248622
0.0024486721
0.0024111294
0.0023737001
0.0023363265
0.0022988762
0.0022613562
0.0022238605
0.0021863139
0.0021486033
0.0021107499
0.0020728112
0.0020346609
0.0019962674
0.0019576855
0.0019188388
0.0018796706
0.0018402201
0.0018004364
0.0017602577
0.0017197222
0.0016787708
0.0016373592
0.0015955134
0.0015531714
0.0015103216
0.0014669423
0.0014230037
0.0013785005
0.0013333966
0.0012876816
0.0012413358
0.0011943421
0.0011466865
0.0010983584
0.0010493526
0.00099966968
0.00094932192
0.00089833068
0.00084673253
0.00079456373
0.00074190605
0.00068879556
0.0006355213
0.00058199176
0.00052947595
0.00047643596
0.00042932958
0.00037629894
0.00035465105
0.00027449271
0.00054326795
-0.0003932369
0.0056475556
0.0056040697
0.0055450039
0.0054681283
0.0053747209
0.0052700151
0.0051582769
0.005042162
0.0049238544
0.0048051692
0.004687337
0.0045711743
0.0044572782
0.0043460834
0.0042379032
0.0041330001
0.0040316505
0.0039341744
0.0038409409
0.0037523472
0.0036687743
0.0035905545
0.0035179512
0.0034511233
0.00339007
0.0033345784
0.0032841812
0.0032381983
0.0031958274
0.0031561583
0.0031182839
0.0030814666
0.0030451988
0.0030091179
0.0029730117
0.0029368076
0.002900399
0.0028636889
0.0028266539
0.0027892914
0.0027516915
0.002713993
0.0026762467
0.0026384734
0.0026006721
0.0025629074
0.0025252416
0.00248766
0.002450069
0.0024124864
0.0023750074
0.0023375816
0.0023000877
0.0022625279
0.0022249849
0.002187391
0.0021496405
0.0021117483
0.0020737657
0.0020355768
0.0019971481
0.0019585278
0.0019196454
0.0018804452
0.0018409609
0.0018011451
0.0017609377
0.0017203719
0.0016793921
0.0016379547
0.0015960821
0.0015537155
0.001510842
0.0014674401
0.0014234802
0.0013789564
0.0013338337
0.0012881014
0.0012417404
0.0011947343
0.0011470698
0.0010987361
0.001049727
0.0010000406
0.00094968434
0.00089867411
0.00084704599
0.00079484439
0.00074216946
0.00068907816
0.00063586532
0.00058242396
0.00052998748
0.00047700725
0.00042990274
0.00037687483
0.0003551586
0.00027465312
0.00053986181
-0.00038549928
0.0055761336
0.0055359118
0.005481971
0.0054116648
0.0053256351
0.0052283073
0.0051235235
0.0050137744
0.004901128
0.0047873716
0.0046738021
0.0045613185
0.004450593
0.0043421343
0.004236327
0.0041334918
0.0040339455
0.0039380304
0.0038461224
0.0037586157
0.0036758871
0.0035982658
0.0035260125
0.0034592855
0.0033980925
0.0033422435
0.0032913163
0.0032446867
0.003201607
0.0031612304
0.0031227071
0.0030853289
0.0030485911
0.0030121298
0.0029757189
0.002939262
0.0029026489
0.0028657803
0.0028286251
0.0027911783
0.0027535156
0.0027157594
0.0026779593
0.0026401361
0.0026022924
0.0025644851
0.0025267704
0.0024891366
0.0024515019
0.0024138785
0.0023763496
0.0023388714
0.0023013332
0.0022637325
0.0022261419
0.0021885002
0.0021507088
0.0021127771
0.00207475
0.0020365217
0.0019980568
0.0019593976
0.0019204787
0.0018812456
0.0018417269
0.0018018782
0.0017616411
0.0017210443
0.0016800355
0.0016385712
0.0015966711
0.0015542791
0.0015113808
0.0014679552
0.001423973
0.0013794274
0.0013342843
0.0012885324
0.0012421531
0.0011951301
0.0011474504
0.0010991039
0.0010500847
0.0010003916
0.00095003118
0.00089901749
0.00084738294
0.00079516717
0.00074246773
0.00068934612
0.0006361104
0.00058267392
0.00053027472
0.00047736377
0.00043030016
0.00037730997
0.00035554861
0.00027465077
0.00053582816
-0.00037688742
0.0055073487
0.0054699693
0.0054204616
0.005355951
0.0052766118
0.0051861517
0.0050879719
0.0049843685
0.0048772803
0.0047684388
0.0046591712
0.0045504372
0.00444297
0.0043373419
0.0042339998
0.0041333181
0.0040356512
0.0039413642
0.0038508415
0.0037644763
0.0036826427
0.003605668
0.0035338109
0.0034672309
0.0034059448
0.0033497858
0.0032983739
0.0032511389
0.0032073867
0.0031663309
0.003127177
0.0030892474
0.0030520433
0.0030152005
0.0029784819
0.0029417698
0.0029049497
0.0028679199
0.0028306419
0.0027931075
0.0027553792
0.0027175639
0.0026797092
0.0026418357