/*--------------------------------*- C++ -*----------------------------------*\
  =========                 |
  \\      /  F ield         | OpenFOAM: The Open Source CFD Toolbox
   \\    /   O peration     | Website:  https://openfoam.org
    \\  /    A nd           | Version:  12
     \\/     M anipulation  |
\*---------------------------------------------------------------------------*/
FoamFile
{
    format      ascii;
    class       surfaceScalarField;
    location    "900";
    object      phi;
}
// * * * * * * * * * * * * * * * * * * * * * * * * * * * * * * * * * * * * * //

dimensions      [0 3 -1 0 0 0 0];

internalField   nonuniform List<scalar> 
25880
(
2.004627e-06
2.7123545e-11
2.0045562e-06
7.0872369e-11
2.0044611e-06
9.5025863e-11
2.0043533e-06
1.078435e-10
2.004232e-06
1.2132026e-10
2.0040966e-06
1.353414e-10
2.0039466e-06
1.5006326e-10
2.0037805e-06
1.661053e-10
2.0035965e-06
1.839761e-10
2.0033923e-06
2.0415225e-10
2.0031651e-06
2.272022e-10
2.0029112e-06
2.5396262e-10
2.0026257e-06
2.8546598e-10
2.002302e-06
3.2368889e-10
2.0019317e-06
3.7033728e-10
2.0014998e-06
4.3184914e-10
2.0009918e-06
5.0802054e-10
2.0003615e-06
6.3028016e-10
1.9995975e-06
7.6402774e-10
1.998486e-06
1.1114965e-09
1.9971139e-06
1.372083e-09
1.9935245e-06
3.5894188e-09
1.9910849e-06
2.439616e-09
1.0350331e-06
9.5605179e-07
6.8976833e-08
9.6605625e-07
5.7346704e-08
1.1630129e-08
5.3430542e-08
3.9161621e-09
5.077423e-08
2.6563121e-09
4.8780384e-08
1.9938459e-09
4.7134914e-08
1.6454698e-09
4.57246e-08
1.4103141e-09
4.4503062e-08
1.2215385e-09
4.343468e-08
1.0683823e-09
4.2488471e-08
9.4620892e-10
4.1641094e-08
8.4737625e-10
4.0876371e-08
7.6472325e-10
4.0181773e-08
6.9459812e-10
3.9545717e-08
6.3605562e-10
3.8958983e-08
5.8673475e-10
3.8415127e-08
5.4385506e-10
3.7908554e-08
5.0657359e-10
3.7434465e-08
4.7408922e-10
3.6989073e-08
4.4539157e-10
3.656912e-08
4.1995357e-10
3.6171858e-08
3.9726191e-10
3.5794921e-08
3.7693658e-10
3.5436299e-08
3.5862175e-10
3.5094343e-08
3.4195609e-10
3.4767519e-08
3.268238e-10
3.4454529e-08
3.1299003e-10
3.4154307e-08
3.0022258e-10
3.3865773e-08
2.885341e-10
3.3587958e-08
2.7781426e-10
3.3320084e-08
2.678743e-10
3.3061398e-08
2.5868583e-10
3.2811158e-08
2.5024046e-10
3.256876e-08
2.4239817e-10
3.2333712e-08
2.3504745e-10
3.2105496e-08
2.2821611e-10
3.1883608e-08
2.2188858e-10
3.1667651e-08
2.159565e-10
3.1457287e-08
2.1036406e-10
3.1252141e-08
2.0514555e-10
3.1051839e-08
2.0030228e-10
3.0856089e-08
1.9575039e-10
3.0664654e-08
1.9143454e-10
3.0477267e-08
1.8738704e-10
3.0293638e-08
1.8362929e-10
3.0113542e-08
1.8009604e-10
2.9936806e-08
1.7673631e-10
2.9763234e-08
1.7357194e-10
2.9592614e-08
1.7062001e-10
2.9424746e-08
1.6786712e-10
2.9259478e-08
1.6526881e-10
2.9096678e-08
1.627996e-10
2.8936194e-08
1.6048371e-10
2.8777855e-08
1.5833895e-10
2.8621519e-08
1.5633672e-10
2.8467075e-08
1.5444405e-10
2.8314412e-08
1.5266259e-10
2.8163404e-08
1.5100837e-10
2.8013911e-08
1.4949291e-10
2.7865822e-08
1.4808901e-10
2.7719051e-08
1.4677084e-10
2.75735e-08
1.4555122e-10
2.7429056e-08
1.4444392e-10
2.7285602e-08
1.4345336e-10
2.7143046e-08
1.425566e-10
2.700131e-08
1.4173547e-10
2.6860304e-08
1.41006e-10
2.6719922e-08
1.4038234e-10
2.6580061e-08
1.3986152e-10
2.6440635e-08
1.394255e-10
2.6301569e-08
1.3906601e-10
2.616277e-08
1.3879948e-10
2.602413e-08
1.3863972e-10
2.5885554e-08
1.3857555e-10
2.5746961e-08
1.3859364e-10
2.5608259e-08
1.3870145e-10
2.5469345e-08
1.3891445e-10
2.5330108e-08
1.3923671e-10
2.5190451e-08
1.3965726e-10
2.5050277e-08
1.4017338e-10
2.4909475e-08
1.4080255e-10
2.4767918e-08
1.4155707e-10
2.4625488e-08
1.4242932e-10
2.4482071e-08
1.4341739e-10
2.4337531e-08
1.4454031e-10
2.4191718e-08
1.4581235e-10
2.4044489e-08
1.4722898e-10
2.3895687e-08
1.4880296e-10
2.3745153e-08
1.5053363e-10
2.3592624e-08
1.5252855e-10
2.3444299e-08
1.4832583e-10
2.3303485e-08
1.4081304e-10
2.316956e-08
1.3392517e-10
2.3041967e-08
1.2759285e-10
2.292021e-08
1.2175729e-10
2.2803834e-08
1.1637638e-10
2.2692426e-08
1.1140738e-10
2.2585621e-08
1.0680567e-10
2.2483088e-08
1.0253262e-10
2.2384529e-08
9.8559445e-11
2.2289666e-08
9.4862663e-11
2.2198245e-08
9.1420942e-11
2.2110033e-08
8.8212045e-11
2.2024807e-08
8.5225884e-11
2.1942365e-08
8.2441768e-11
2.1862462e-08
7.9903584e-11
2.178495e-08
7.7512043e-11
2.1709329e-08
7.5620913e-11
2.1635816e-08
7.3512913e-11
2.1562497e-08
7.3319158e-11
2.1492765e-08
6.9731336e-11
2.1407425e-08
8.5340865e-11
5.3526524e-11
2.0345005e-06
5.4725993e-11
2.0344283e-06
1.430529e-10
2.0343314e-06
1.9187118e-10
2.0342215e-06
2.1778132e-10
2.0340978e-06
2.4499838e-10
2.0339599e-06
2.7330498e-10
2.0338069e-06
3.0301916e-10
2.0336376e-06
3.3539113e-10
2.0334501e-06
3.7144727e-10
2.0332421e-06
4.1214903e-10
2.0330107e-06
4.5864278e-10
2.0327521e-06
5.1261551e-10
2.0324614e-06
5.7614867e-10
2.0321318e-06
6.532273e-10
2.0317549e-06
7.4728988e-10
2.0313154e-06
8.7131513e-10
2.0307985e-06
1.0248897e-09
2.0301575e-06
1.2713643e-09
2.0293805e-06
1.5409953e-09
2.0282506e-06
2.2413545e-09
2.0268561e-06
2.7666271e-09
2.0232099e-06
7.2355603e-09
2.0207234e-06
4.9261183e-09
1.1264028e-06
1.8503724e-06
2.0558204e-07
1.886877e-06
1.726544e-07
4.4557778e-08
1.6103363e-07
1.5536933e-08
1.5317679e-07
1.0513153e-08
1.4727459e-07
7.8960398e-09
1.4239895e-07
6.5211089e-09
1.3821554e-07
5.5937233e-09
1.3458813e-07
4.8489491e-09
1.3141247e-07
4.2440486e-09
1.2859757e-07
3.7611009e-09
1.2607478e-07
3.3701704e-09
1.2379643e-07
3.0430708e-09
1.2172564e-07
2.7653932e-09
1.198283e-07
2.5333972e-09
1.1807715e-07
2.3378791e-09
1.1645314e-07
2.1678701e-09
1.1493975e-07
2.0199593e-09
1.135228e-07
1.8910429e-09
1.1219106e-07
1.7771273e-09
1.109349e-07
1.6761122e-09
1.0974618e-07
1.5859826e-09
1.0861789e-07
1.5052285e-09
1.0754407e-07
1.4324435e-09
1.0651982e-07
1.3662032e-09
1.0554061e-07
1.306036e-09
1.0460258e-07
1.2510229e-09
1.0370255e-07
1.200244e-09
1.0283735e-07
1.1537409e-09
1.0200407e-07
1.111087e-09
1.0120042e-07
1.0715331e-09
1.0042414e-07
1.0349615e-09
9.9673039e-08
1.001342e-09
9.8945315e-08
9.7012213e-10
9.8239505e-08
9.4085688e-10
9.7554068e-08
9.1365326e-10
9.6887503e-08
8.8845393e-10
9.623863e-08
8.648294e-10
9.5606439e-08
8.4255527e-10
9.4989817e-08
8.2176724e-10
9.4387646e-08
8.0247334e-10
9.3799055e-08
7.8434134e-10
9.3223341e-08
7.6714861e-10
9.2659705e-08
7.510232e-10
9.2107282e-08
7.3605196e-10
9.1565401e-08
7.2197682e-10
9.1033544e-08
7.0859344e-10
9.0511129e-08
6.9598692e-10
8.9997522e-08
6.8422743e-10
8.9492127e-08
6.7326242e-10
8.899448e-08
6.6291514e-10
8.8504198e-08
6.530818e-10
8.8020822e-08
6.4385989e-10
8.754384e-08
6.3532074e-10
8.7072825e-08
6.2735188e-10
8.6607448e-08
6.1982113e-10
8.6147378e-08
6.1273298e-10
8.5692232e-08
6.0615359e-10
8.5241596e-08
6.0012876e-10
8.4795135e-08
5.9455087e-10
8.435259e-08
5.8931586e-10
8.3913667e-08
5.844741e-10
8.3478029e-08
5.8008191e-10
8.3045325e-08
5.7615729e-10
8.2615272e-08
5.7260907e-10
8.2187645e-08
5.6936329e-10
8.1762166e-08
5.6648444e-10
8.1338519e-08
5.6402941e-10
8.0916393e-08
5.6198746e-10
8.0495532e-08
5.6028625e-10
8.0075707e-08
5.5889121e-10
7.9656637e-08
5.5786935e-10
7.9238001e-08
5.5727622e-10
7.8819509e-08
5.5706759e-10
7.8400913e-08
5.5718954e-10
7.7981943e-08
5.5767173e-10
7.756228e-08
5.5857669e-10
7.7141595e-08
5.5992162e-10
7.671959e-08
5.6166245e-10
7.6295976e-08
5.6378733e-10
7.5870412e-08
5.6636732e-10
7.5442516e-08
5.6945243e-10
7.5011933e-08
5.7301213e-10
7.4578313e-08
5.7703823e-10
7.4141245e-08
5.8160766e-10
7.3700279e-08
5.8677865e-10
7.3254975e-08
5.9253295e-10
7.2804856e-08
5.9892151e-10
7.2349448e-08
6.0594241e-10
7.1887947e-08
6.1402906e-10
7.1439109e-08
5.971639e-10
7.1012957e-08
5.6696532e-10
7.0607606e-08
5.3927622e-10
7.0221381e-08
5.1381799e-10
6.9852784e-08
4.9035415e-10
6.9500444e-08
4.6871625e-10
6.9163118e-08
4.4873326e-10
6.8839698e-08
4.3022585e-10
6.8529192e-08
4.130386e-10
6.8230695e-08
3.9705629e-10
6.7943373e-08
3.8218474e-10
6.7666455e-08
3.6833854e-10
6.7399239e-08
3.5542818e-10
6.7141052e-08
3.4341309e-10
6.6891283e-08
3.3221028e-10
6.664919e-08
3.2199695e-10
6.641433e-08
3.1237235e-10
6.6185186e-08
3.0476484e-10
6.5962424e-08
2.9627522e-10
6.5740227e-08
2.9551544e-10
6.5528976e-08
2.8098298e-10
6.5269976e-08
3.4434077e-10
2.152328e-10
2.0946926e-06
8.323971e-11
2.0946179e-06
2.1769131e-10
2.0945177e-06
2.9210214e-10
2.0944039e-06
3.3160196e-10
2.0942758e-06
3.7304782e-10
2.094133e-06
4.1613443e-10
2.0939747e-06
4.6135045e-10
2.0937995e-06
5.1059827e-10
2.0936055e-06
5.6543947e-10
2.0933903e-06
6.2733633e-10
2.0931509e-06
6.9803146e-10
2.0928834e-06
7.8008887e-10
2.0925829e-06
8.7667145e-10
2.0922423e-06
9.9383521e-10
2.0918528e-06
1.1368036e-09
2.0913988e-06
1.3252995e-09
2.090865e-06
1.558687e-09
2.0902031e-06
1.9332275e-09
2.0894012e-06
2.3429225e-09
2.0882356e-06
3.4070002e-09
2.0867973e-06
4.204837e-09
2.0830387e-06
1.0994162e-08
2.0804713e-06
7.4935842e-09
1.2305429e-06
2.7003008e-06
3.3797678e-07
2.7794431e-06
2.8443377e-07
9.810079e-08
2.6578605e-07
3.4184655e-08
2.5337449e-07
2.2924707e-08
2.4405975e-07
1.7210788e-08
2.3635914e-07
1.4221714e-08
2.2974205e-07
1.2210811e-08
2.2399444e-07
1.0596558e-08
2.1895402e-07
9.2844673e-09
2.1447899e-07
8.2361357e-09
2.1046222e-07
7.3869393e-09
2.0682955e-07
6.675746e-09
2.035235e-07
6.0714404e-09
2.0049068e-07
5.5662161e-09
1.9768832e-07
5.1402423e-09
1.9508657e-07
4.7696183e-09
1.9265958e-07
4.4469506e-09
1.9038501e-07
4.1656052e-09
1.8824526e-07
3.9168787e-09
1.8622516e-07
3.6962116e-09
1.843119e-07
3.4992457e-09
1.8249443e-07
3.3226981e-09
1.8076336e-07
3.1635146e-09
1.7911097e-07
3.0185943e-09
1.7753009e-07
2.8869111e-09
1.7601464e-07
2.7664724e-09
1.7455962e-07
2.655265e-09
1.7315998e-07
2.5533884e-09
1.7181114e-07
2.4599264e-09
1.7050944e-07
2.3732338e-09
1.6925134e-07
2.2930559e-09
1.6803334e-07
2.2193403e-09
1.6685259e-07
2.1508759e-09
1.6570676e-07
2.0866823e-09
1.6459342e-07
2.0270001e-09
1.6351016e-07
1.9717127e-09
1.6245511e-07
1.9198739e-09
1.6142668e-07
1.8709882e-09
1.6042309e-07
1.8253606e-09
1.5944255e-07
1.7830153e-09
1.5848367e-07
1.7432194e-09
1.5754534e-07
1.7054798e-09
1.5662628e-07
1.6700833e-09
1.557251e-07
1.6372263e-09
1.5484074e-07
1.6063398e-09
1.5397236e-07
1.5769702e-09
1.5311904e-07
1.5493069e-09
1.5227976e-07
1.5235099e-09
1.5145356e-07
1.4994644e-09
1.5063969e-07
1.4767792e-09
1.4983755e-07
1.4552227e-09
1.490464e-07
1.4350144e-09
1.482654e-07
1.4163142e-09
1.4749388e-07
1.398874e-09
1.467313e-07
1.3823999e-09
1.4597714e-07
1.3669011e-09
1.4523076e-07
1.3525283e-09
1.4449151e-07
1.339384e-09
1.4375883e-07
1.3272296e-09
1.4303231e-07
1.315833e-09
1.4231148e-07
1.305307e-09
1.4159578e-07
1.2957792e-09
1.4088465e-07
1.2872905e-09
1.4017762e-07
1.2796382e-09
1.3947432e-07
1.2726568e-09
1.3877432e-07
1.2664916e-09
1.3807708e-07
1.2612705e-09
1.3738209e-07
1.2569708e-09
1.3668895e-07
1.2534313e-09
1.3599726e-07
1.2505739e-09
1.3530658e-07
1.2485505e-09
1.3461637e-07
1.2474861e-09
1.3392616e-07
1.2472824e-09
1.3323553e-07
1.2478187e-09
1.3254404e-07
1.2491623e-09
1.3185116e-07
1.2514543e-09
1.3115635e-07
1.2547344e-09
1.3045911e-07
1.258904e-09
1.2975896e-07
1.2639368e-09
1.2905533e-07
1.2699937e-09
1.283476e-07
1.277188e-09
1.2763516e-07
1.2854517e-09
1.2691743e-07
1.2947669e-09
1.2619373e-07
1.3053077e-09
1.254633e-07
1.3172065e-09
1.2472541e-07
1.3304229e-09
1.2397926e-07
1.3450721e-09
1.2322405e-07
1.3611519e-09
1.2245844e-07
1.3796357e-09
1.2171356e-07
1.3420478e-09
1.2100606e-07
1.2744605e-09
1.2033287e-07
1.2124737e-09
1.1969122e-07
1.1554656e-09
1.1907866e-07
1.1029096e-09
1.1849295e-07
1.0544324e-09
1.1793203e-07
1.0096535e-09
1.1739408e-07
9.6817229e-10
1.1687748e-07
9.296417e-10
1.1638073e-07
8.9380561e-10
1.1590246e-07
8.6045436e-10
1.154414e-07
8.2939772e-10
1.1499639e-07
8.0043557e-10
1.1456633e-07
7.7347797e-10
1.141502e-07
7.4833972e-10
1.1374677e-07
7.2542169e-10
1.1335532e-07
7.0382076e-10
1.1297333e-07
6.8676153e-10
1.1260191e-07
6.6769681e-10
1.1223135e-07
6.6607579e-10
1.1187903e-07
6.3329773e-10
1.1144671e-07
7.7665944e-10
4.8467266e-10
2.1861003e-06
1.1311635e-10
2.186022e-06
2.959943e-10
2.1859168e-06
3.9736862e-10
2.1857972e-06
4.5119312e-10
2.1856626e-06
5.0759411e-10
2.1855126e-06
5.6619766e-10
2.1853463e-06
6.2767602e-10
2.1851622e-06
6.9461579e-10
2.1849585e-06
7.6913986e-10
2.1847326e-06
8.5323514e-10
2.1844814e-06
9.4926818e-10
2.1842008e-06
1.0607202e-09
2.1838856e-06
1.1918845e-09
2.1835284e-06
1.3509823e-09
2.1831201e-06
1.5451015e-09
2.1826444e-06
1.8010156e-09
2.1820852e-06
2.1178483e-09
2.1813922e-06
2.6262614e-09
2.1805528e-06
3.1823331e-09
2.1793333e-06
4.6264789e-09
2.1778293e-06
5.7088372e-09
2.1739011e-06
1.4922373e-08
2.1712124e-06
1.0182277e-08
1.3477075e-06
3.5238057e-06
4.6438354e-07
3.6627671e-06
3.8938035e-07
1.7310398e-07
3.6427376e-07
5.9291242e-08
3.4799018e-07
3.9208291e-08
3.3583251e-07
2.9368452e-08
3.2579816e-07
2.4256063e-08
3.1717672e-07
2.0832253e-08
3.096837e-07
1.8089579e-08
3.0310717e-07
1.5861002e-08
2.972629e-07
1.40804e-08
2.9201209e-07
1.2637746e-08
2.8725904e-07
1.1428798e-08
2.8292963e-07
1.0400854e-08
2.789546e-07
9.5412476e-09
2.7527848e-07
8.8163603e-09
2.7186277e-07
8.1853318e-09
2.6867398e-07
7.6357317e-09
2.6568316e-07
7.1564244e-09
2.6286751e-07
6.7325362e-09
2.6020737e-07
6.356345e-09
2.5768615e-07
6.0204694e-09
2.5528952e-07
5.719333e-09
2.5300528e-07
5.4477507e-09
2.5082344e-07
5.2004384e-09
2.4873468e-07
4.9756664e-09
2.467311e-07
4.7700474e-09
2.4480624e-07
4.5801339e-09
2.429535e-07
4.4061221e-09
2.4116696e-07
4.2464666e-09
2.3944186e-07
4.0983403e-09
2.3777359e-07
3.96132e-09
2.3615759e-07
3.8353415e-09
2.3459014e-07
3.7183253e-09
2.3306824e-07
3.6085846e-09
2.3158869e-07
3.50655e-09
2.3014837e-07
3.4120347e-09
2.2874483e-07
3.3234058e-09
2.2737601e-07
3.2398118e-09
2.2603958e-07
3.1617924e-09
2.247332e-07
3.0893979e-09
2.2345505e-07
3.021363e-09
2.222037e-07
2.9568373e-09
2.2097745e-07
2.8963252e-09
2.1977451e-07
2.8401732e-09
2.1859345e-07
2.7873978e-09
2.174332e-07
2.7372143e-09
2.1629256e-07
2.689955e-09
2.1517016e-07
2.6459045e-09
2.1406476e-07
2.6048654e-09
2.1297538e-07
2.5661599e-09
2.1190122e-07
2.5293879e-09
2.1084129e-07
2.4949357e-09
2.0979452e-07
2.4630837e-09
2.0876e-07
2.4334019e-09
2.0773702e-07
2.4053796e-09
2.0672488e-07
2.3790358e-09
2.0572277e-07
2.3546374e-09
2.0472979e-07
2.3323628e-09
2.0374523e-07
2.311798e-09
2.0276852e-07
2.2925391e-09
2.0179904e-07
2.274786e-09
2.0083606e-07
2.258764e-09
1.998788e-07
2.2445444e-09
1.9892666e-07
2.2317751e-09
1.9797915e-07
2.2201679e-09
1.9703567e-07
2.2099797e-09
1.960955e-07
2.2014352e-09
1.9515798e-07
2.1944955e-09
1.9422253e-07
2.1888798e-09
1.9328865e-07
2.1844532e-09
1.9235571e-07
2.1814843e-09
1.9142301e-07
2.1801926e-09
1.9048988e-07
2.1804063e-09
1.8955579e-07
2.1819153e-09
1.8862011e-07
2.1848409e-09
1.8768213e-07
2.1894317e-09
1.8674111e-07
2.1957575e-09
1.8579637e-07
2.2036472e-09
1.8484724e-07
2.213057e-09
1.8389297e-07
2.2242714e-09
1.8293266e-07
2.2374905e-09
1.8196552e-07
2.2525965e-09
1.8099073e-07
2.2695602e-09
1.8000734e-07
2.2886906e-09
1.7901433e-07
2.310222e-09
1.7801067e-07
2.3340855e-09
1.7699525e-07
2.3604867e-09
1.7596698e-07
2.3894257e-09
1.74924e-07
2.4226093e-09
1.7390873e-07
2.3573167e-09
1.7294394e-07
2.2392566e-09
1.7202547e-07
2.1309429e-09
1.7114964e-07
2.031293e-09
1.7031316e-07
1.939395e-09
1.6951298e-07
1.8546047e-09
1.6874638e-07
1.7762616e-09
1.6801088e-07
1.7036677e-09
1.673043e-07
1.6362189e-09
1.6662464e-07
1.5734717e-09
1.6597003e-07
1.5150623e-09
1.6533877e-07
1.46066e-09
1.6472929e-07
1.4099162e-09
1.6414009e-07
1.3626764e-09
1.6356981e-07
1.3186178e-09
1.6301678e-07
1.2784515e-09
1.6248002e-07
1.2405849e-09
1.6195606e-07
1.2107185e-09
1.6144648e-07
1.1772764e-09
1.6093791e-07
1.1746464e-09
1.6045429e-07
1.1169151e-09
1.5986057e-07
1.3703772e-09
8.5444905e-10
2.310086e-06
1.4483556e-10
2.3100027e-06
3.7925083e-10
2.3098906e-06
5.0944182e-10
2.3097632e-06
5.7858573e-10
2.3096199e-06
6.5092474e-10
2.3094601e-06
7.2604225e-10
2.3092829e-06
8.0481182e-10
2.309087e-06
8.905476e-10
2.3088702e-06
9.8596915e-10
2.3086298e-06
1.0936203e-09
2.3083625e-06
1.216529e-09
2.3080641e-06
1.3591482e-09
2.307729e-06
1.5269678e-09
2.3073495e-06
1.7305022e-09
2.3069158e-06
1.978811e-09
2.3064107e-06
2.3061337e-09
2.3058172e-06
2.7113297e-09
2.305082e-06
3.3614783e-09
2.3041918e-06
4.0724786e-09
2.3028995e-06
5.9188365e-09
2.3013064e-06
7.3019363e-09
2.2971485e-06
1.9080201e-08
2.2942959e-06
1.3034864e-08
1.4820746e-06
4.336027e-06
5.9107346e-07
4.5537682e-06
4.9258313e-07
2.7159432e-07
4.6080779e-07
9.1066578e-08
4.4076261e-07
5.9253476e-08
4.2591211e-07
4.4218949e-08
4.1369742e-07
3.6470756e-08
4.0321888e-07
3.1310792e-08
3.9411741e-07
2.7191053e-08
3.8613094e-07
2.3847469e-08
3.7903382e-07
2.1177519e-08
3.7265668e-07
1.9014885e-08
3.6688329e-07
1.7202194e-08
3.6162374e-07
1.5660395e-08
3.5679376e-07
1.4371228e-08
3.5232591e-07
1.3284213e-08
3.4817359e-07
1.2337652e-08
3.442962e-07
1.1513123e-08
3.4065855e-07
1.0794073e-08
3.3723304e-07
1.0158052e-08
3.3399586e-07
9.593521e-09
3.3092689e-07
9.0894394e-09
3.2800877e-07
8.6374492e-09
3.2522674e-07
8.2297883e-09
3.2256866e-07
7.8585162e-09
3.2002326e-07
7.5210625e-09
3.1758096e-07
7.212347e-09
3.1523393e-07
6.9271672e-09
3.129742e-07
6.665852e-09
3.1079457e-07
6.4260968e-09
3.0868928e-07
6.2036245e-09
3.0665279e-07
5.9978147e-09
3.0467953e-07
5.8086046e-09
3.02765e-07
5.6328502e-09
3.0090559e-07
5.4680002e-09
2.9909741e-07
5.3147313e-09
2.9733666e-07
5.172776e-09
2.9562041e-07
5.0396553e-09
2.9394614e-07
4.9140841e-09
2.9231104e-07
4.7968996e-09
2.9071225e-07
4.6881873e-09
2.8914758e-07
4.5860255e-09
2.8761529e-07
4.4891289e-09
2.8611334e-07
4.3982755e-09
2.8463952e-07
4.3139981e-09
2.8319211e-07
4.2348028e-09
2.8176983e-07
4.159499e-09
2.8037118e-07
4.0885987e-09
2.7899454e-07
4.0225437e-09
2.7763838e-07
3.9610334e-09
2.763015e-07
3.9030376e-09
2.7498293e-07
3.8479516e-09
2.736815e-07
3.7963713e-09
2.7239586e-07
3.7487254e-09
2.711249e-07
3.7043581e-09
2.6986779e-07
3.6624926e-09
2.6862366e-07
3.6231639e-09
2.6739151e-07
3.5867843e-09
2.6617025e-07
3.5536249e-09
2.6495899e-07
3.5230541e-09
2.6375708e-07
3.4944579e-09
2.6256372e-07
3.4681468e-09
2.6137801e-07
3.4444681e-09
2.6019903e-07
3.4235296e-09
2.5902601e-07
3.4047938e-09
2.5785835e-07
3.3878236e-09
2.5669532e-07
3.3730161e-09
2.5553603e-07
3.3607165e-09
2.5437967e-07
3.3508643e-09
2.5322551e-07
3.3430313e-09
2.5207295e-07
3.337015e-09
2.5092121e-07
3.3332306e-09
2.4976938e-07
3.3320143e-09
2.4861669e-07
3.3331022e-09
2.4746243e-07
3.3361744e-09
2.4630585e-07
3.3414234e-09
2.4514605e-07
3.3492318e-09
2.439821e-07
3.3597049e-09
2.4281316e-07
3.3725829e-09
2.4163842e-07
3.3878037e-09
2.4045688e-07
3.4058067e-09
2.3926747e-07
3.4268995e-09
2.3806917e-07
3.4509029e-09
2.3686095e-07
3.4777771e-09
2.3564164e-07
3.5080012e-09
2.3440992e-07
3.541936e-09
2.3316453e-07
3.5794786e-09
2.3190407e-07
3.6209508e-09
2.3062714e-07
3.6663575e-09
2.2933143e-07
3.7183135e-09
2.2806964e-07
3.6191079e-09
2.268701e-07
3.438793e-09
2.2572773e-07
3.2733138e-09
2.2463801e-07
3.1210195e-09
2.2359687e-07
2.9805316e-09
2.226006e-07
2.8508766e-09
2.2164581e-07
2.7310507e-09
2.2072949e-07
2.6199893e-09
2.1984893e-07
2.5167732e-09
2.1900167e-07
2.4207308e-09
2.1818543e-07
2.3313097e-09
2.1739808e-07
2.2480071e-09
2.166377e-07
2.1702912e-09
2.1590245e-07
2.0979308e-09
2.1519063e-07
2.030434e-09
2.1450018e-07
1.9689035e-09
2.1382988e-07
1.9108823e-09
2.1317542e-07
1.8651849e-09
2.1253879e-07
1.8139077e-09
2.1190321e-07
1.8102222e-09
2.1129872e-07
1.7214011e-09
2.1055648e-07
2.1126223e-09
1.3165653e-09
2.4684971e-06
1.7891449e-10
2.4684075e-06
4.688602e-10
2.4682867e-06
6.3025613e-10
2.4681492e-06
7.1600351e-10
2.4679946e-06
8.0554539e-10
2.4678222e-06
8.9845791e-10
2.4676312e-06
9.9583931e-10
2.4674199e-06
1.1017871e-09
2.4671863e-06
1.2196628e-09
2.4669273e-06
1.3526087e-09
2.4666394e-06
1.5043621e-09
2.4663182e-06
1.6804172e-09
2.4659576e-06
1.8875458e-09
2.4655494e-06
2.1387184e-09
2.4650831e-06
2.4451043e-09
2.4645403e-06
2.8489392e-09
2.4639028e-06
3.3487883e-09
2.4631136e-06
4.1507264e-09
2.4621585e-06
5.0275907e-09
2.4607728e-06
7.3044659e-09
2.4590657e-06
9.0090394e-09
2.4546144e-06
2.3531495e-08
2.4515521e-06
1.6097227e-08
1.6389129e-06
5.1486663e-06
7.2613842e-07
5.4665427e-06
6.0116249e-07
3.9657024e-07
5.6190566e-07
1.303234e-07
5.3777815e-07
8.3380986e-08
5.200581e-07
6.1938999e-08
5.0554316e-07
5.0985698e-08
4.9311783e-07
4.3736125e-08
4.8233764e-07
3.7971246e-08
4.7288477e-07
3.330034e-08
4.6448843e-07
2.9573855e-08
4.5694622e-07
2.6557097e-08
4.5011979e-07
2.4028619e-08
4.4390238e-07
2.1877812e-08
4.3819363e-07
2.0079972e-08
4.3291339e-07
1.8564453e-08
4.2800648e-07
1.7244562e-08
4.2342474e-07
1.6094866e-08
4.191264e-07
1.5092416e-08
4.1507877e-07
1.420568e-08
4.1125368e-07
1.3418606e-08
4.0762731e-07
1.2715816e-08
4.041791e-07
1.2085656e-08
4.0089157e-07
1.1517316e-08
3.9775038e-07
1.0999704e-08
3.9474219e-07
1.0529259e-08
3.9185564e-07
1.0098896e-08
3.8908149e-07
9.7013187e-09
3.8641032e-07
9.337022e-09
3.8383361e-07
9.0028052e-09
3.8134457e-07
8.6926599e-09
3.7893665e-07
8.4057358e-09
3.7660327e-07
8.1419853e-09
3.7433913e-07
7.8969959e-09
3.7213994e-07
7.6671875e-09
3.7000113e-07
7.4535402e-09
3.6791821e-07
7.2556946e-09
3.6588771e-07
7.0701592e-09
3.6390666e-07
6.8951349e-09
3.6197173e-07
6.7318215e-09
3.6007958e-07
6.5803469e-09
3.582276e-07
6.4380055e-09
3.5641373e-07
6.3029981e-09
3.5463557e-07
6.1764336e-09
3.528905e-07
6.0590661e-09
3.5117651e-07
5.9487934e-09
3.4949207e-07
5.8439424e-09
3.4783542e-07
5.7452427e-09
3.4620464e-07
5.6533255e-09
3.4459791e-07
5.5677659e-09
3.4301383e-07
5.4871126e-09
3.4145126e-07
5.4105218e-09
3.3990879e-07
5.3388416e-09
3.3838484e-07
5.2726771e-09
3.368781e-07
5.2111005e-09
3.3538757e-07
5.1530184e-09
3.3391225e-07
5.0984902e-09
3.3245093e-07
5.0481026e-09
3.3100232e-07
5.0022351e-09
3.2956538e-07
4.9599955e-09
3.2813931e-07
4.9205204e-09
3.267232e-07
4.8842564e-09
3.2531597e-07
4.8516969e-09
3.2391651e-07
4.8229903e-09
3.2252393e-07
4.7973782e-09
3.2113751e-07
4.774248e-09
3.1975635e-07
4.7541667e-09
3.1837945e-07
4.737623e-09
3.1700578e-07
4.7245282e-09
3.1563454e-07
4.7142785e-09
3.1426496e-07
4.7065948e-09
3.1289612e-07
4.7020682e-09
3.1152696e-07
4.7011732e-09
3.1015653e-07
4.7035341e-09
3.08784e-07
4.7087011e-09
3.0740847e-07
4.7169564e-09
3.0602886e-07
4.7288421e-09
3.0464406e-07
4.7445035e-09
3.0325307e-07
4.7635755e-09
3.0185489e-07
4.7859779e-09
3.0044836e-07
4.8123366e-09
2.9903218e-07
4.8430852e-09
2.9760511e-07
4.8779719e-09
2.9616594e-07
4.9169474e-09
2.9471324e-07
4.960696e-09
2.9324545e-07
5.0097282e-09
2.9176103e-07
5.0639013e-09
2.902583e-07
5.1236796e-09
2.8873558e-07
5.1890743e-09
2.8719012e-07
5.2637786e-09
2.8568475e-07
5.1244788e-09
2.8425331e-07
4.8702304e-09
2.8288978e-07
4.6368444e-09
2.815888e-07
4.421994e-09
2.8034558e-07
4.2237539e-09
2.7915569e-07
4.040765e-09
2.7801513e-07
3.8716152e-09
2.7692032e-07
3.7148039e-09
2.7586805e-07
3.5690396e-09
2.748554e-07
3.4333826e-09
2.7387965e-07
3.3070574e-09
2.729383e-07
3.1893569e-09
2.7202906e-07
3.0795322e-09
2.7114973e-07
2.9772633e-09
2.702983e-07
2.8818582e-09
2.6947231e-07
2.7948927e-09
2.6867033e-07
2.7128695e-09
2.6788715e-07
2.6483572e-09
2.6712525e-07
2.5758157e-09
2.6636441e-07
2.5710575e-09
2.6564073e-07
2.4450815e-09
2.6475215e-07
3.0012025e-09
1.8696642e-09
2.6636944e-06
2.1591821e-10
2.6635969e-06
5.6636358e-10
2.6634652e-06
7.6195658e-10
2.6633153e-06
8.6591986e-10
2.6631466e-06
9.7424458e-10
2.6629585e-06
1.0865483e-09
2.6627501e-06
1.2041842e-09
2.6625198e-06
1.3321028e-09
2.6622651e-06
1.4743639e-09
2.661983e-06
1.6347599e-09
2.6616695e-06
1.8177967e-09
2.6613198e-06
2.0300962e-09
2.6609276e-06
2.2798166e-09
2.6604837e-06
2.5825866e-09
2.659977e-06
2.951855e-09
2.6593874e-06
3.4385092e-09
2.6586954e-06
4.0407825e-09
2.6578392e-06
5.0069268e-09
2.6568036e-06
6.0631593e-09
2.6553026e-06
8.8054862e-09
2.6534545e-06
1.0857097e-08
2.648641e-06
2.8344994e-08
2.6453189e-06
1.9419414e-08
1.823309e-06
5.9706761e-06
8.7668051e-07
6.4131712e-06
7.2119423e-07
5.5205652e-07
6.7318917e-07
1.7832846e-07
6.443821e-07
1.1218806e-07
6.2341747e-07
8.2903628e-08
6.0631978e-07
6.8083394e-08
5.9171783e-07
5.8338076e-08
5.7906605e-07
5.0623028e-08
5.6798189e-07
4.4384493e-08
5.5814295e-07
3.9412803e-08
5.4930914e-07
3.5390902e-08
5.41317e-07
3.2020761e-08
5.3404062e-07
2.9154192e-08
5.2736156e-07
2.6759028e-08
5.211853e-07
2.4740718e-08
5.1544698e-07
2.2982883e-08
5.1008993e-07
2.1451909e-08
5.0506501e-07
2.0117341e-08
5.0033381e-07
1.8936874e-08
4.9586328e-07
1.7889142e-08
4.9162541e-07
1.6953685e-08
4.8759611e-07
1.6114957e-08
4.8375484e-07
1.5358582e-08
4.8008479e-07
1.4669756e-08
4.7657029e-07
1.4043762e-08
4.7319802e-07
1.3471159e-08
4.6995716e-07
1.2942182e-08
4.6683666e-07
1.2457518e-08
4.6382655e-07
1.201292e-08
4.6091887e-07
1.1600336e-08
4.5810596e-07
1.1218645e-08
4.5538012e-07
1.0867829e-08
4.5273513e-07
1.0541984e-08
4.5016601e-07
1.0236315e-08
4.4766738e-07
9.9521703e-09
4.4523399e-07
9.689084e-09
4.4286178e-07
9.4423683e-09
4.4054729e-07
9.2096209e-09
4.3828664e-07
8.992475e-09
4.3607588e-07
8.7911082e-09
4.3391199e-07
8.6018904e-09
4.3179257e-07
8.4224221e-09
4.297148e-07
8.254205e-09
4.2767561e-07
8.0982523e-09
4.2567266e-07
7.9517459e-09
4.2370415e-07
7.8124463e-09
4.2176805e-07
7.681341e-09
4.1986209e-07
7.559287e-09
4.1798415e-07
7.4457099e-09
4.161326e-07
7.3386629e-09
4.143061e-07
7.2370252e-09
4.1250299e-07
7.1419441e-09
4.1072144e-07
7.0542306e-09
4.0895991e-07
6.972634e-09
4.0721724e-07
6.8956893e-09
4.0549224e-07
6.8234893e-09
4.0378351e-07
6.7568277e-09
4.0208954e-07
6.6962078e-09
4.004091e-07
6.6404293e-09
3.9874129e-07
6.5883376e-09
3.97085e-07
6.5405428e-09
3.9543899e-07
6.4977109e-09
3.9380194e-07
6.4600345e-09
3.9217283e-07
6.4264946e-09
3.905508e-07
6.3962755e-09
3.8893482e-07
6.3701461e-09
3.8732368e-07
6.3487638e-09
3.857162e-07
6.3320028e-09
3.8411143e-07
6.3190532e-09
3.8250847e-07
6.3095505e-09
3.8090625e-07
6.3042931e-09
3.7930351e-07
6.3039168e-09
3.7769913e-07
6.3079116e-09
3.7609215e-07
6.3156761e-09
3.7448151e-07
6.3276028e-09
3.7286593e-07
6.3444217e-09
3.7124411e-07
6.3663201e-09
3.6961488e-07
6.3928099e-09
3.6797706e-07
6.4237946e-09
3.6632928e-07
6.4601194e-09
3.6467e-07
6.5023632e-09
3.6299778e-07
6.5501887e-09
3.6131119e-07
6.6035391e-09
3.5960854e-07
6.6633412e-09
3.5788799e-07
6.7302788e-09
3.5614773e-07
6.8041628e-09
3.5438578e-07
6.8856281e-09
3.5260016e-07
6.9746933e-09
3.5078763e-07
7.0763106e-09
3.4902189e-07
6.8902215e-09
3.4734264e-07
6.5494795e-09
3.4574285e-07
6.2366386e-09
3.4421626e-07
5.9485777e-09
3.4275728e-07
5.6827405e-09
3.4136072e-07
5.43732e-09
3.4002191e-07
5.210426e-09
3.3873667e-07
5.000046e-09
3.3750125e-07
4.8044544e-09
3.3631224e-07
4.6224004e-09
3.3516644e-07
4.4528487e-09
3.3406095e-07
4.2948522e-09
3.3299307e-07
4.1474082e-09
3.3196024e-07
4.0100957e-09
3.3096011e-07
3.8819883e-09
3.2998978e-07
3.765223e-09
3.2904758e-07
3.6550723e-09
3.2812739e-07
3.5685481e-09
3.2723214e-07
3.4710595e-09
3.2633799e-07
3.4652142e-09
3.2548746e-07
3.2956054e-09
3.244433e-07
4.0453693e-09
2.5195101e-09
2.8985867e-06
2.5647135e-10
2.8984796e-06
6.7347967e-10
2.8983346e-06
9.0695364e-10
2.8981694e-06
1.0311239e-09
2.8979835e-06
1.1601689e-09
2.8977762e-06
1.2938145e-09
2.8975467e-06
1.4337082e-09
2.8972931e-06
1.5857379e-09
2.8970127e-06
1.7547311e-09
2.8967023e-06
1.9451926e-09
2.8963576e-06
2.1624691e-09
2.8959733e-06
2.4144144e-09
2.8955424e-06
2.7107002e-09
2.8950551e-06
3.0698569e-09
2.8944991e-06
3.5078178e-09
2.8938527e-06
4.0849133e-09
2.8930945e-06
4.7989983e-09
2.8921571e-06
5.9443413e-09
2.891024e-06
7.1962431e-09
2.8893833e-06
1.0446162e-08
2.8873648e-06
1.2875602e-08
2.8821144e-06
3.3595466e-08
2.8784771e-06
2.3056684e-08
2.0403123e-06
6.8088408e-06
1.049099e-06
7.4043846e-06
8.5795845e-07
7.4319704e-07
7.9949766e-07
2.3678926e-07
7.6518078e-07
1.4650494e-07
7.4044227e-07
1.0764213e-07
7.2035803e-07
8.8167638e-08
7.0324764e-07
7.5448461e-08
6.8844352e-07
6.5427151e-08
6.7548634e-07
5.7341671e-08
6.6399317e-07
5.0905974e-08
6.5367994e-07
4.5704129e-08
6.4435384e-07
4.1346863e-08
6.3586673e-07
3.7641305e-08
6.280792e-07
3.4546555e-08
6.2088007e-07
3.1939844e-08
6.1419329e-07
2.9669669e-08
6.0795235e-07
2.7692847e-08
6.0209955e-07
2.597014e-08
5.9658992e-07
2.4446504e-08
5.9138472e-07
2.3094339e-08
5.8645119e-07
2.1887217e-08
5.8176112e-07
2.0805034e-08
5.7729046e-07
1.9829241e-08
5.7301953e-07
1.8940682e-08
5.6893001e-07
1.8133283e-08
5.6500632e-07
1.7394849e-08
5.612358e-07
1.6712707e-08
5.5760554e-07
1.608777e-08
5.5410389e-07
1.5514569e-08
5.5072158e-07
1.4982649e-08
5.4744965e-07
1.4490571e-08
5.4427912e-07
1.4038364e-08
5.4120273e-07
1.3618371e-08
5.3821467e-07
1.3224378e-08
5.3530868e-07
1.2858166e-08
5.3247861e-07
1.2519149e-08
5.2971975e-07
1.2201233e-08
5.2702806e-07
1.190131e-08
5.24399e-07
1.1621526e-08
5.21828e-07
1.1362117e-08
5.1931152e-07
1.1118368e-08
5.1684676e-07
1.0887181e-08
5.1443044e-07
1.067052e-08
5.12059e-07
1.0469699e-08
5.0972968e-07
1.0281063e-08
5.0744042e-07
1.010171e-08
5.0518883e-07
9.9329312e-09
5.0297226e-07
9.7758499e-09
5.0078826e-07
9.6297138e-09
4.9863493e-07
9.4919953e-09
4.965107e-07
9.3612547e-09
4.9441365e-07
9.2389911e-09
4.9234163e-07
9.126255e-09
4.9029285e-07
9.021414e-09
4.8826597e-07
8.9225683e-09
4.862596e-07
8.8298569e-09
4.8427211e-07
8.7443157e-09
4.8230173e-07
8.666589e-09
4.8034705e-07
8.5951147e-09
4.7840698e-07
8.5283985e-09
4.7648028e-07
8.4672468e-09
4.7456546e-07
8.4125276e-09
4.7266102e-07
8.3644807e-09
4.7076573e-07
8.3217819e-09
4.6887862e-07
8.2833808e-09
4.6699849e-07
8.2502853e-09
4.651239e-07
8.2233493e-09
4.632535e-07
8.2023992e-09
4.6138617e-07
8.1863844e-09
4.5952088e-07
8.1748454e-09
4.5765635e-07
8.168824e-09
4.5579112e-07
8.1691425e-09
4.539239e-07
8.17513e-09
4.5205357e-07
8.1860091e-09
4.5017886e-07
8.2023073e-09
4.4829831e-07
8.2249737e-09
4.4641039e-07
8.2542388e-09
4.4451373e-07
8.2894714e-09
4.4260697e-07
8.3305614e-09
4.4068847e-07
8.3786102e-09
4.3875648e-07
8.4343625e-09
4.3680928e-07
8.4973807e-09
4.3484522e-07
8.567603e-09