/*--------------------------------*- C++ -*----------------------------------*\
  =========                 |
  \\      /  F ield         | OpenFOAM: The Open Source CFD Toolbox
   \\    /   O peration     | Website:  https://openfoam.org
    \\  /    A nd           | Version:  12
     \\/     M anipulation  |
\*---------------------------------------------------------------------------*/
FoamFile
{
    format      ascii;
    class       surfaceScalarField;
    location    "900";
    object      phi;
}
// * * * * * * * * * * * * * * * * * * * * * * * * * * * * * * * * * * * * * //

dimensions      [0 3 -1 0 0 0 0];

internalField   nonuniform List<scalar> 
14782
(
0.00078663986
7.0678386e-06
-0.0007937077
0.00077713039
9.5094629e-06
0.00076669254
1.0437854e-05
0.00075599548
1.0697056e-05
0.00074515731
1.0838173e-05
0.0007342772
1.0880116e-05
0.00072343142
1.0845771e-05
0.00071266804
1.0763387e-05
0.00070201315
1.0654883e-05
0.00069149115
1.0522005e-05
0.0006811217
1.0369453e-05
0.00067092251
1.0199184e-05
0.00066091746
1.0005057e-05
0.00065112756
9.7898957e-06
0.00064158492
9.5426449e-06
0.00063233204
9.2528745e-06
0.00062343067
8.9013665e-06
0.00061495034
8.4803327e-06
0.00060695024
8.000099e-06
0.00059948112
7.469126e-06
0.00059258742
6.8937013e-06
0.00058630377
6.283641e-06
0.00058065429
5.6494811e-06
0.00057564803
5.0062644e-06
0.00057126799
4.3800394e-06
0.00056746477
3.8032178e-06
0.00056416454
3.3002313e-06
0.00056127479
2.8897542e-06
0.00055869144
2.583351e-06
0.00055631718
2.3742572e-06
0.00055407376
2.2434134e-06
0.000551908
2.1657682e-06
0.00054978762
2.1203777e-06
0.00054769685
2.0907687e-06
0.00054562753
2.0693246e-06
0.00054357046
2.0570676e-06
0.00054151587
2.0545899e-06
0.00053945437
2.0614953e-06
0.00053738042
2.0739542e-06
0.00053529572
2.0846989e-06
0.00053320733
2.0883847e-06
0.0005311236
2.0837351e-06
0.00052905161
2.0719863e-06
0.00052699515
2.0564644e-06
0.00052495653
2.0386206e-06
0.00052293759
2.0189348e-06
0.00052093999
1.9975999e-06
0.00051896508
1.9749169e-06
0.00051701428
1.9507993e-06
0.00051508871
1.9255677e-06
0.00051318836
1.9003504e-06
0.00051131289
1.8754719e-06
0.0005094623
1.8505891e-06
0.00050763682
1.8254768e-06
0.00050583603
1.8007887e-06
0.00050405932
1.7767157e-06
0.0005023063
1.7530195e-06
0.00050057667
1.7296304e-06
0.00049886968
1.7069837e-06
0.00049718488
1.6848055e-06
0.00049552184
1.6630431e-06
0.00049387989
1.6419489e-06
0.00049225845
1.6214388e-06
0.00049065713
1.6013192e-06
0.00048907543
1.5816993e-06
0.00048751282
1.5626058e-06
0.00048596894
1.5438825e-06
0.00048444327
1.525667e-06
0.00048293533
1.5079435e-06
0.00048144472
1.4906111e-06
0.00047997094
1.4737839e-06
0.00047851355
1.4573822e-06
0.00047707214
1.4414106e-06
0.00047564627
1.4258738e-06
0.00047423555
1.4107209e-06
0.00047283956
1.3959865e-06
0.00047145793
1.3816277e-06
0.00047009029
1.3676466e-06
0.00046873625
1.3540321e-06
0.00046739548
1.3407725e-06
0.00046606762
1.3278587e-06
0.00046475234
1.3152814e-06
0.00046344931
1.3030332e-06
0.0004621582
1.2911083e-06
0.0004608787
1.2795028e-06
0.00045961048
1.2682174e-06
0.00045835323
1.2572528e-06
0.0004571066
1.2466265e-06
0.00045587026
1.23634e-06
0.00045464379
1.2264748e-06
0.00045342681
1.2169801e-06
0.00045221857
1.2082373e-06
0.00045101882
1.1997508e-06
0.00044982526
1.1935611e-06
0.00044863928
1.1859745e-06
0.00044744996
1.1893245e-06
0.0004462703
1.1796535e-06
0.00044502041
1.2498976e-06
0.00044394951
1.0708943e-06
1.5750018e-06
0.00082505356
6.7937639e-06
-0.00082477949
0.00082528923
9.2737893e-06
0.00082520521
1.0521874e-05
0.00082478681
1.1115457e-05
0.00082397989
1.1645092e-05
0.00082274437
1.2115643e-05
0.00082107155
1.2518584e-05
0.00081895292
1.2882023e-05
0.00081638453
1.3223271e-05
0.0008133645
1.3542035e-05
0.00080989487
1.3839079e-05
0.00080597567
1.4118382e-05
0.00080161276
1.4367971e-05
0.0007968057
1.4596953e-05
0.00079155714
1.4791212e-05
0.00078586466
1.4945353e-05
0.0007797324
1.5033627e-05
0.00077319847
1.5014257e-05
0.0007663196
1.4878969e-05
0.00075915123
1.4637499e-05
0.0007517597
1.4285226e-05
0.0007442264
1.3816943e-05
0.00073664325
1.3232632e-05
0.0007291103
1.2539218e-05
0.00072173832
1.1752018e-05
0.00071465045
1.0891092e-05
0.00070796802
9.9826562e-06
0.00070177527
9.0825035e-06
0.00069610161
8.2570134e-06
0.00069092694
7.5489288e-06
0.00068619475
6.9755972e-06
0.00068182768
6.5328421e-06
0.00067774353
6.2045319e-06
0.00067387446
5.9598311e-06
0.00067017361
5.770179e-06
0.00066661142
5.6192548e-06
0.00066317204
5.493976e-06
0.0006598455
5.3880323e-06
0.0006566223
5.2971477e-06
0.00065349219
5.2148129e-06
0.00065044361
5.1369671e-06
0.00064746446
5.0628818e-06
0.00064454474
4.9917037e-06
0.00064167774
4.9234678e-06
0.00063886081
4.8555494e-06
0.00063609348
4.7862619e-06
0.00063337517
4.7159102e-06
0.00063070421
4.6458837e-06
0.00062807878
4.5762267e-06
0.00062549763
4.5067155e-06
0.00062295962
4.4383624e-06
0.00062046377
4.3713266e-06
0.00061800929
4.3050604e-06
0.00061559551
4.2392659e-06
0.00061322126
4.1750382e-06
0.00061088536
4.1126127e-06
0.0006085869
4.0514796e-06
0.0006063251
3.9914253e-06
0.00060409878
3.9333106e-06
0.00060190683
3.8767499e-06
0.00059974842
3.8214591e-06
0.00059762257
3.7677946e-06
0.00059552836
3.7156536e-06
0.00059346496
3.664716e-06
0.00059143151
3.6151532e-06
0.0005894271
3.5670086e-06
0.00058745099
3.5199963e-06
0.00058550233
3.4743215e-06
0.00058358033
3.4299503e-06
0.00058168424
3.3866939e-06
0.0005798133
3.3447247e-06
0.00057796678
3.3039043e-06
0.00057614397
3.2642234e-06
0.00057434417
3.2256762e-06
0.00057256672
3.1881646e-06
0.00057081098
3.151732e-06
0.00056907631
3.1162971e-06
0.00056736211
3.0818489e-06
0.00056566778
3.0483578e-06
0.00056399276
3.0157933e-06
0.00056233649
2.984129e-06
0.00056069843
2.9533389e-06
0.00055907806
2.9234012e-06
0.00055747487
2.8942977e-06
0.00055588836
2.8660151e-06
0.00055431803
2.8385478e-06
0.00055276339
2.8118969e-06
0.00055122393
2.7860844e-06
0.00054969913
2.7611375e-06
0.00054818845
2.7371551e-06
0.00054669123
2.7142044e-06
0.00054520681
2.6926535e-06
0.00054373403
2.6725358e-06
0.00054227209
2.6555004e-06
0.00054081776
2.6403e-06
0.00053936982
2.637265e-06
0.00053791506
2.6344164e-06
0.00053646482
2.7001377e-06
0.00053488467
2.6510385e-06
3.0659914e-06
0.00085283421
6.5021293e-06
-0.00085254258
0.00085326927
8.8387295e-06
0.00085364305
1.0148095e-05
0.00085393425
1.0824257e-05
0.00085418209
1.1397248e-05
0.000854378
1.1919734e-05
0.00085453045
1.2366142e-05
0.00085464229
1.2770181e-05
0.00085471305
1.3152514e-05
0.00085473706
1.3518018e-05
0.00085470871
1.3867428e-05
0.00085461936
1.4207735e-05
0.00085445874
1.4528591e-05
0.00085421282
1.4842869e-05
0.00085386332
1.5140719e-05
0.0008533872
1.5421466e-05
0.00085274226
1.5678573e-05
0.00085185274
1.5903775e-05
0.00085063728
1.6094425e-05
0.00084902388
1.6250905e-05
0.00084693691
1.6372189e-05
0.00084429589
1.6457964e-05
0.0008410201
1.6508427e-05
0.0008370344
1.6524913e-05
0.00083227818
1.650824e-05
0.00082670869
1.6460584e-05
0.00082035982
1.633153e-05
0.00081335769
1.6084626e-05
0.00080588185
1.573286e-05
0.00079816153
1.5269244e-05
0.00079044089
1.4696238e-05
0.00078294452
1.4029211e-05
0.00077585426
1.329479e-05
0.00076928621
1.252789e-05
0.00076326573
1.179065e-05
0.00075774332
1.1141671e-05
0.00075263422
1.0603075e-05
0.0007478466
1.017565e-05
0.00074330329
9.8404621e-06
0.00073895322
9.5648812e-06
0.00073476749
9.3226928e-06
0.00073073
9.1003748e-06
0.00072682981
8.8918982e-06
0.00072305601
8.6972583e-06
0.00071939737
8.514197e-06
0.00071584239
8.3412422e-06
0.00071238018
8.1781126e-06
0.0007090016
8.0244717e-06
0.00070570038
7.8774437e-06
0.00070247269
7.7344101e-06
0.0006993152
7.5958454e-06
0.00069622447
7.4620609e-06
0.00069319712
7.3324088e-06
0.00069023032
7.2060704e-06
0.00068732145
7.0839053e-06
0.00068446825
6.9658144e-06
0.00068166877
6.8509606e-06
0.00067892122
6.7389657e-06
0.00067622361
6.6309264e-06
0.00067357413
6.526233e-06
0.00067097124
6.4243444e-06
0.00066841337
6.3256695e-06
0.00066589897
6.2300478e-06
0.0006634267
6.1369909e-06
0.00066099518
6.0466733e-06
0.00065860307
5.9591197e-06
0.00065624916
5.8739002e-06
0.00065393224
5.7912421e-06
0.00065165112
5.7110693e-06
0.00064940472
5.6330927e-06
0.00064719194
5.5575094e-06
0.00064501173
5.4841149e-06
0.00064286308
5.412869e-06
0.00064074502
5.3437398e-06
0.00063865661
5.2765747e-06
0.00063659693
5.2114087e-06
0.00063456511
5.148116e-06
0.0006325603
5.08666e-06
0.00063058168
5.0269838e-06
0.00062862844
4.9690289e-06
0.00062669983
4.9127437e-06
0.00062479509
4.858077e-06
0.0006229135
4.8049852e-06
0.00062105437
4.7534305e-06
0.000619217
4.7033837e-06
0.00061740072
4.6548266e-06
0.00061560486
4.6077566e-06
0.00061382876
4.5621919e-06
0.0006120717
4.5181911e-06
0.00061033301
4.4758472e-06
0.00060861182
4.4353992e-06
0.00060690739
4.3970744e-06
0.00060521816
4.3617744e-06
0.00060354368
4.3299762e-06
0.00060187909
4.3048861e-06
0.00060022621
4.2901485e-06
0.00059856239
4.2982361e-06
0.00059693263
4.3299019e-06
0.00059504822
4.5354472e-06
4.6264376e-06
0.00088138244
6.2805946e-06
-0.0008811609
0.00088179323
8.4279427e-06
0.00088218144
9.7598819e-06
0.00088248663
1.0519067e-05
0.000882747
1.113688e-05
0.00088297039
1.1696337e-05
0.00088316339
1.2173145e-05
0.00088333406
1.2599513e-05
0.00088348826
1.2998316e-05
0.00088362791
1.3378363e-05
0.00088375459
1.3740748e-05
0.00088387129
1.4091038e-05
0.00088397628
1.44236e-05
0.00088407166
1.4747494e-05
0.00088415596
1.5056412e-05
0.00088422837
1.5349061e-05
0.00088428671
1.5620235e-05
0.00088432692
1.5863561e-05
0.00088434375
1.6077591e-05
0.00088433083
1.626383e-05
0.00088427941
1.6423609e-05
0.00088417762
1.6559758e-05
0.00088400969
1.6676348e-05
0.0008837543
1.6780309e-05
0.00088337995
1.6882593e-05
0.00088284134
1.6999187e-05
0.00088203577
1.71371e-05
0.00088081863
1.7301773e-05
0.0008790503
1.7501188e-05
0.0008765894
1.7730144e-05
0.00087331047
1.7975167e-05
0.00086912663
1.8213048e-05
0.00086400468
1.8416743e-05
0.00085802617
1.8506396e-05
0.00085139704
1.8419784e-05
0.00084437609
1.8162616e-05
0.00083723819
1.7740979e-05
0.00083023373
1.7180113e-05
0.00082355488
1.6519307e-05
0.00081730552
1.5814246e-05
0.00081149344
1.5134771e-05
0.0008060644
1.4529408e-05
0.00080094157
1.4014729e-05
0.00079605562
1.3583216e-05
0.0007913607
1.3209115e-05
0.00078683211
1.2869833e-05
0.00078245681
1.2553406e-05
0.00077822498
1.2256304e-05
0.00077412654
1.1975887e-05
0.00077015065
1.1710298e-05
0.00076628621
1.1460284e-05
0.00076252341
1.122486e-05
0.00075885475
1.1001069e-05
0.0007552748
1.0786026e-05
0.0007517788
1.0579903e-05
0.00074836224
1.0382374e-05
0.00074502096
1.019224e-05
0.00074175132
1.0008602e-05
0.00073854995
9.8322997e-06
0.00073541396
9.6622246e-06
0.00073234073
9.4975691e-06
0.00072932766
9.3387413e-06
0.00072637232
9.1853941e-06
0.00072347256
9.0367515e-06
0.00072062632
8.8929101e-06
0.00071783162
8.7538185e-06
0.00071508667
8.6188509e-06
0.00071238971
8.4882001e-06
0.00070973908
8.3617051e-06
0.00070713322
8.2389436e-06
0.00070457063
8.1201004e-06
0.00070204987
8.0048795e-06
0.00069956955
7.8931852e-06
0.00069712836
7.7849373e-06
0.00069472502
7.6799122e-06
0.00069235831
7.5781173e-06
0.00069002706
7.4793687e-06
0.00068773013
7.3835896e-06
0.00068546643
7.2906825e-06
0.00068323491
7.2005499e-06
0.00068103455
7.1131031e-06
0.00067886437
7.0282561e-06
0.00067672342
6.9459338e-06
0.00067461078
6.8660701e-06
0.00067252555
6.7886114e-06
0.00067046686
6.7135191e-06
0.00066843384
6.6407803e-06
0.00066642563
6.5704019e-06
0.00066444135
6.5024725e-06
0.00066248013
6.4370658e-06
0.00066054091
6.3746137e-06
0.00065862284
6.3151459e-06
0.00065672403
6.2605814e-06
0.00065484413
6.209884e-06
0.00065297739
6.1716236e-06
0.00065112699
6.1405486e-06
0.0006492651
6.1601235e-06
0.00064745664
6.138361e-06
0.00064531261
6.6794831e-06
6.2963087e-06
0.00091091027
6.1079912e-06
-0.00091073767
0.00091126582
8.0723909e-06
0.00091163023
9.39547e-06
0.00091193145
1.0217853e-05
0.00091219078
1.0877551e-05
0.00091242144
1.1465673e-05
0.00091262515
1.1969434e-05
0.00091280837
1.24163e-05
0.00091297548
1.2831202e-05
0.00091312958
1.3224264e-05
0.00091327241
1.3597918e-05
0.00091340603
1.3957417e-05
0.00091353
1.429963e-05
0.00091364682
1.4630673e-05
0.00091375652
1.4946715e-05
0.0009138599
1.5245679e-05
0.00091395676
1.5523371e-05
0.00091404585
1.5774472e-05
0.00091412602
1.5997424e-05
0.0009141964
1.619345e-05
0.00091425584
1.6364169e-05
0.00091430267
1.6512927e-05
0.00091433483
1.6644188e-05
0.00091435029
1.6764852e-05
0.00091434711
1.6885767e-05
0.0009143241
1.7022203e-05
0.00091427751
1.718369e-05
0.0009142006
1.7378678e-05
0.00091408384
1.7617946e-05
0.00091391165
1.7902331e-05
0.00091366042
1.8226404e-05
0.00091329169
1.8581776e-05
0.00091274476
1.8963668e-05
0.00091189169
1.9359476e-05
0.00091055408
1.9757384e-05
0.00090856407
2.0152635e-05
0.00090577331
2.0531735e-05
0.00090207693
2.0876493e-05
0.00089745014
2.1146101e-05
0.00089200177
2.1262614e-05
0.00088595407
2.1182471e-05
0.0008795719
2.0911578e-05
0.0008731191
2.0467529e-05
0.00086681386
1.9888456e-05
0.00086078803
1.9234944e-05
0.00085507818
1.8579683e-05
0.00084965833
1.7973257e-05
0.00084447777
1.7436858e-05
0.00083949174
1.6961916e-05
0.00083467247
1.652957e-05
0.00083000542
1.6127332e-05
0.00082548194
1.5748341e-05
0.00082109406
1.5388956e-05
0.00081683282
1.5047259e-05
0.00081268857
1.4724156e-05
0.00080865248
1.4418464e-05
0.00080471754
1.4127174e-05
0.00080087827
1.3847881e-05
0.0007971296
1.3580962e-05
0.00079346697
1.332486e-05
0.00078988615
1.3078385e-05
0.00078638322
1.2841671e-05
0.00078295466
1.2613956e-05
0.00077959735
1.2394068e-05
0.00077630829
1.2181962e-05
0.00077308469
1.197742e-05
0.00076992402
1.1779524e-05
0.00076682386
1.1588361e-05
0.00076378193
1.1403631e-05
0.00076079615
1.1224729e-05
0.00075786447
1.1051779e-05
0.00075498499
1.0884357e-05
0.0007521559
1.0722278e-05
0.00074937545
1.0565384e-05
0.00074664201
1.0413356e-05
0.00074395397
1.0266151e-05
0.00074130984
1.0123506e-05
0.00073870814
9.9852876e-06
0.00073614748
9.8513404e-06
0.00073362652
9.7215132e-06
0.00073114395
9.5956668e-06
0.00072869854
9.4736679e-06
0.00072628908
9.3553986e-06
0.00072391439
9.2407537e-06
0.00072157336
9.1296455e-06
0.00071926487
9.0220056e-06
0.00071698785
8.917803e-06
0.00071474123
8.8170249e-06
0.00071252391
8.7197846e-06
0.00071033485
8.6261276e-06
0.00070817278
8.5366848e-06
0.00070603667
8.4512591e-06
0.00070392439
8.3728593e-06
0.00070183551
8.2987623e-06
0.00069976374
8.2433988e-06
0.00069771297
8.1913196e-06
0.00069565172
8.2213647e-06
0.00069365993
8.1301551e-06
0.00069126816
9.071258e-06
8.0947661e-06
0.00094143204
5.9696088e-06
-0.00094129366
0.00094173921
7.7652268e-06
0.00094207636
9.0583187e-06
0.00094237139
9.9228199e-06
0.00094263051
1.0618428e-05
0.00094286413
1.123206e-05
0.00094307324
1.1760325e-05
0.00094326213
1.2227404e-05
0.00094343475
1.2658581e-05
0.00094359421
1.3064807e-05
0.00094374249
1.3449643e-05
0.00094388178
1.3818124e-05
0.00094401241
1.4169003e-05
0.00094413628
1.4506795e-05
0.0009442538
1.4829202e-05
0.00094436551
1.5133962e-05
0.00094447139
1.5417501e-05
0.00094457063
1.5675229e-05
0.00094466245
1.5905598e-05
0.0009447461
1.61098e-05
0.00094482075
1.6289521e-05
0.00094488593
1.6447751e-05
0.00094494116
1.658896e-05
0.00094498587
1.6720139e-05
0.00094502007
1.685157e-05
0.00094504461
1.6997663e-05
0.00094505984
1.7168452e-05
0.00094506627
1.7372257e-05
0.00094506488
1.7619333e-05
0.00094505552
1.7911686e-05
0.00094503684
1.8245084e-05
0.00094500595
1.8612673e-05
0.00094495904
1.9010579e-05
0.00094488793
1.9430586e-05
0.00094477793
1.9867381e-05
0.00094460864
2.0321919e-05
0.00094435002
2.0790356e-05
0.00094395662
2.1269896e-05
0.00094334586
2.1756865e-05
0.00094236967
2.2238803e-05
0.00094084778
2.2704356e-05
0.00093861534
2.3144017e-05
0.0009355419
2.3540971e-05
0.00093157346
2.3856895e-05
0.00092678919
2.4019219e-05
0.00092138251
2.3986365e-05
0.00091559478
2.3760983e-05
0.00090967334
2.3358293e-05
0.00090381661
2.2818652e-05
0.00089813656
2.2209617e-05
0.00089266553
2.1598365e-05
0.00088738938
2.1024486e-05
0.00088228143
2.0496911e-05
0.00087732161
2.0007084e-05
0.0008724993
1.9546457e-05
0.00086780908
1.9108693e-05
0.00086324599
1.8690263e-05
0.00085880372
1.829015e-05
0.00085447488
1.7909798e-05
0.00085025281
1.7546929e-05
0.00084613205
1.7199145e-05
0.0008421078
1.6865922e-05
0.00083817561
1.6546152e-05
0.0008343313
1.6238369e-05
0.00083057096
1.5942307e-05
0.00082689095
1.5657427e-05
0.00082328804
1.5382436e-05
0.00081975912
1.511728e-05
0.00081630128
1.4861471e-05
0.00081291185
1.4614164e-05
0.00080958825
1.4375379e-05
0.00080632808
1.4144524e-05
0.00080312906
1.3921295e-05
0.00079998902
1.3705425e-05
0.00079690591
1.3496473e-05
0.00079387774
1.329432e-05
0.00079090263
1.3098608e-05
0.0007879788
1.2909122e-05
0.0007851045
1.2725636e-05
0.00078227809
1.2547928e-05
0.00077949796
1.2375795e-05
0.00077676259
1.2209042e-05
0.00077407049
1.2047497e-05
0.00077142024
1.1891006e-05
0.00076881045
1.1739435e-05
0.00076623977
1.1592678e-05
0.0007637069
1.1450675e-05
0.00076121054
1.1313386e-05
0.00075874938
1.1180944e-05
0.00075632215
1.1053356e-05
0.00075392739
1.0931453e-05
0.00075156385
1.0814795e-05
0.00074922919
1.0707517e-05
0.00074692284
1.0605113e-05
0.00074463806
1.052818e-05
0.0007423792
1.045018e-05
0.00074011178
1.0488789e-05
0.00073792861
1.0313319e-05
0.00073528846
1.1711414e-05
1.0036059e-05
0.00097297753
5.854814e-06
-0.00097286274
0.00097324659
7.4961747e-06
0.00097355646
8.7484444e-06
0.00097384094
9.6383423e-06
0.00097409736
1.0362006e-05
0.00097433196
1.0997462e-05
0.00097454474
1.1547541e-05
0.00097473822
1.2033925e-05
0.00097491577
1.2481027e-05
0.0009750802
1.2900381e-05
0.00097523346
1.3296388e-05
0.00097537754
1.3674041e-05
0.00097551311
1.4033433e-05
0.00097564174
1.4378165e-05
0.00097576403
1.4706913e-05
0.00097588045
1.5017543e-05
0.00097599098
1.5306968e-05
0.00097609498
1.5571231e-05
0.00097619176
1.5808818e-05
0.00097628078
1.6020776e-05
0.00097636147
1.620883e-05
0.00097643335
1.6375872e-05
0.000976496
1.6526309e-05
0.00097654916
1.6666979e-05
0.00097659292
1.6807808e-05
0.00097662842
1.696217e-05
0.00097665681
1.714006e-05
0.00097667929
1.7349771e-05
0.00097669774
1.7600887e-05
0.00097671343
1.7895994e-05
0.00097672693
1.8231582e-05
0.00097673811
1.8601502e-05
0.00097674671
1.9001974e-05
0.00097675141
1.9425885e-05
0.00097675014
1.9868658e-05
0.00097674057
2.033149e-05
0.00097671904
2.0811879e-05
0.00097668087
2.1308063e-05
0.00097661922
2.1818516e-05
0.00097652053
2.2337496e-05
0.00097636297
2.2861921e-05
0.00097611528
2.33917e-05
0.00097573092
2.3925328e-05
0.00097512697
2.4460849e-05
0.00097415933
2.4986856e-05
0.000972654
2.5491702e-05
0.00097045252
2.5962464e-05
0.0009674297
2.6381105e-05
0.00096356635
2.6682003e-05
0.00095897357
2.6802405e-05
0.00095383996
2.6731967e-05
0.00094839502
2.6469428e-05
0.00094285104
2.6040895e-05
0.0009373533
2.5504818e-05
0.00093197086
2.4928897e-05
0.00092672003
2.4359522e-05
0.00092159515
2.3815146e-05
0.00091658887
2.329643e-05
0.00091169815
2.2800517e-05
0.00090692249
2.2322589e-05
0.0009022604
2.1861239e-05
0.0008977082
2.1418119e-05
0.00089326133
2.099302e-05
0.00088891557
2.058413e-05
0.0008846671
2.0190776e-05
0.00088051228
1.9812244e-05
0.00087644762
1.9447096e-05
0.00087246967
1.9095238e-05
0.00086857516
1.8755981e-05
0.00086476108
1.8428238e-05
0.00086102451
1.811195e-05
0.00085736267
1.7806362e-05
0.00085377292
1.7511043e-05
0.00085025274
1.7225609e-05
0.00084679973
1.6949487e-05
0.00084341157
1.6682478e-05
0.00084008606
1.6424113e-05
0.00083682109
1.6174092e-05
0.00083361463
1.5932104e-05
0.00083046471
1.5697848e-05
0.00082736945
1.5471049e-05
0.00082432705
1.5251442e-05
0.00082133576
1.5038792e-05
0.00081839388
1.4832886e-05
0.00081549977
1.4633539e-05
0.00081265185
1.4440596e-05
0.00080984857
1.4253964e-05
0.00080708838
1.4073568e-05
0.00080436977
1.3899553e-05
0.00080169125
1.3731883e-05
0.00079905111
1.3571588e-05
0.00079644793
1.3417974e-05
0.00079387913
1.3276321e-05
0.00079134396
1.3140285e-05
0.0007888353
1.3036842e-05
0.0007863578
1.2927671e-05
0.00078387427
1.2972323e-05
0.00078148948
1.2698109e-05
0.00077859395
1.4606945e-05
1.2132964e-05
0.0010055836
5.757572e-06
-0.0010054864
0.0010058201
7.2597026e-06
0.0010061036
8.464944e-06
0.0010063748
9.3671489e-06
0.0010066259
1.0110875e-05
0.0010068596
1.0763829e-05
0.0010070744
1.1332745e-05
0.0010072714
1.1836932e-05
0.0010074531
1.2299235e-05
0.0010076221
1.2731414e-05
0.00100778
1.3138488e-05
0.0010079286
1.3525446e-05
0.0010080687
1.3893347e-05
0.0010082016
1.4245229e-05
0.0010083281
1.4580441e-05
0.0010084485
1.4897108e-05
0.0010085629
1.5192569e-05
0.0010086707
1.546343e-05
0.0010087713
1.570826e-05
0.0010088641
1.5927959e-05
0.0010089487
1.6124245e-05
0.0010090246
1.6299955e-05
0.0010090915
1.6459433e-05
0.0010091491
1.6609321e-05
0.0010091978
1.6759112e-05
0.0010092387
1.6921326e-05
0.0010092729
1.7105847e-05
0.0010093018
1.7320853e-05
0.0010093274
1.7575331e-05
0.0010093512
1.7872183e-05
0.0010093742
1.8208533e-05
0.0010093968
1.8578901e-05
0.0010094192
1.8979597e-05
0.0010094409
1.9404234e-05
0.0010094611
1.9848461e-05
0.0010094794
2.0313135e-05
0.0010094951
2.0796225e-05
0.0010095071
2.1296042e-05
0.0010095144
2.1811245e-05
0.0010095146
2.2337247e-05
0.0010095045
2.2872009e-05
0.0010094797
2.3416512e-05
0.0010094342
2.397087e-05
0.0010093593
2.4535745e-05
0.0010092383
2.5107817e-05
0.0010090447
2.5685304e-05
0.0010087394
2.6267752e-05
0.0010082651
2.6855393e-05
0.001007509
2.7438181e-05
0.0010063098
2.8001605e-05
0.0010045082
2.8533561e-05
0.0010019611
2.9016517e-05
0.00099861006
2.9391911e-05
0.00099451695
2.9597927e-05
0.00098983102
2.9614825e-05
0.00098475733
2.9433208e-05
0.00097949759
2.9074886e-05
0.00097419918
2.8594843e-05
0.00096894341
2.8056292e-05
0.00096376265
2.7503347e-05
0.00095866644
2.6957447e-05
0.00095365909
2.6425467e-05
0.00094874546
2.590665e-05
0.00094392955
2.5400049e-05
0.00093921252
2.4907797e-05
0.00093459333
2.4431436e-05
0.00093007015
2.3970279e-05
0.0009256409
2.3524485e-05
0.00092130336
2.3093522e-05
0.00091705514
2.2676461e-05
0.00091289366
2.2273434e-05
0.00090881635
2.1883663e-05
0.0009048207
2.1506697e-05
0.00090090418
2.114213e-05
0.00089706434
2.0789327e-05
0.00089329876
2.0448055e-05
0.00088960511
2.0117767e-05
0.0008859811
1.9798105e-05
0.0008824245
1.9488694e-05
0.00087893318
1.9189169e-05
0.00087550504
1.8899188e-05
0.00087213806
1.8618427e-05
0.00086883026
1.8346591e-05
0.00086557974
1.8083409e-05
0.00086238463
1.7828646e-05
0.00085924313
1.7582099e-05
0.00085615345
1.7343639e-05
0.00085311387
1.7113155e-05
0.00085012262
1.6890802e-05
0.000847178
1.6676499e-05
0.00084427812
1.6471473e-05
0.00084142132
1.6274775e-05
0.0008386048
1.6092839e-05
0.00083582763
1.5917454e-05
0.00083308234
1.5782129e-05
0.00083037382
1.5636189e-05
0.00082766226
1.5683887e-05
0.000825064
1.5296368e-05
0.00082190237
1.7768572e-05
1.4397983e-05
0.0010392839
5.6738248e-06
-0.0010392001
0.0010394921
7.051466e-06
0.001039751
8.2060644e-06
0.0010400079
9.1102271e-06
0.0010402519
9.8668946e-06
0.0010404827
1.0533069e-05
0.0010406977
1.1117709e-05
0.0010408968
1.1637776e-05
0.0010410819
1.2114176e-05
0.0010412547
1.2558586e-05
0.0010414168
1.2976427e-05
0.0010415696
1.3372648e-05
0.0010417139
1.3749002e-05
0.001041851
1.4108164e-05
0.0010419815
1.4449965e-05
0.0010421057
1.4772836e-05
0.0010422238
1.5074496e-05
0.0010423352
1.5352054e-05
0.0010424393
1.5604196e-05
0.0010425355
1.5831702e-05
0.0010426235
1.603626e-05
0.0010427028
1.6220655e-05
0.0010427731
1.6389152e-05
0.0010428342
1.6548194e-05
0.0010428865
1.6706832e-05
0.001042931
1.6876811e-05
0.001042969
1.7067849e-05
0.0010430019
1.7287979e-05
0.0010430315
1.7545661e-05
0.0010430597
1.7844039e-05
0.0010430874
1.8180822e-05
0.0010431152
1.8551128e-05
0.0010431434
1.8951406e-05
0.0010431717
1.9375882e-05
0.0010431998
1.982038e-05
0.0010432275
2.0285386e-05
0.0010432546
2.0769126e-05
0.0010432808
2.1269906e-05
0.0010433056
2.1786395e-05
0.0010433284
2.2314517e-05
0.001043348
2.2852418e-05
0.0010433633
2.3401158e-05
0.001043373
2.3961135e-05
0.0010433756
2.4533184e-05
0.0010433681
2.5115302e-05
0.0010433463
2.5707156e-05
0.0010433039
2.631011e-05
0.0010432332
2.6926093e-05
0.0010431196
2.7551757e-05
0.0010429377
2.8183501e-05
0.0010426498
2.8821469e-05
0.0010422015
2.9464872e-05
0.0010414896
3.0103816e-05
0.001040365
3.0722517e-05
0.0010386724
3.1307435e-05
0.0010362721
3.1833439e-05
0.0010331047
3.2242274e-05
0.0010292195
3.2480084e-05
0.0010247514
3.2524447e-05
0.0010198893
3.2365394e-05
0.0010148164
3.2030311e-05
0.001009666
3.1575954e-05
0.0010045143
3.1058327e-05
0.00099939792
3.0516403e-05
0.00099433508
2.9970641e-05
0.00098933857
2.9427938e-05
0.00098441865
2.8890203e-05
0.00097958179
2.8361349e-05
0.00097483112
2.7844184e-05
0.00097016792
2.7339665e-05
0.00096559239
2.6848968e-05
0.00096110409
2.6371958e-05
0.00095670202
2.5908771e-05
0.00095238473
2.5459415e-05
0.00094815058
2.502348e-05
0.00094399771
2.4600921e-05
0.00093992419
2.4191292e-05
0.00093592798
2.3794312e-05
0.00093200703
2.3409641e-05
0.00092815928
2.3036928e-05
0.00092438263
2.2675832e-05
0.00092067504
2.2326013e-05
0.00091703448
2.1987156e-05
0.00091345893
2.1658963e-05
0.0009099464
2.1341169e-05
0.00090649496
2.1033542e-05
0.00090310267
2.0735932e-05
0.00089976762
2.0448202e-05
0.0008964879
2.0170523e-05
0.00089326162
1.990278e-05
0.00089008669
1.9646399e-05
0.00088696128
1.9400185e-05
0.00088388239
1.917173e-05
0.00088084889
1.8950956e-05
0.000877853
1.8778017e-05
0.00087489979
1.8589394e-05
0.00087194692
1.8636759e-05
0.00086912218
1.8121115e-05
0.00086568134
2.120941e-05
1.6843814e-05
0.001074111
5.6002022e-06
-0.0010740374
0.0010742954
6.8670827e-06
0.0010745321
7.9693966e-06
0.0010747749
8.8673972e-06
0.0010750108
9.6309588e-06
0.0010752374
1.030648e-05
0.0010754513
1.0903842e-05
0.0010756513
1.1437717e-05
0.0010758386
1.1926884e-05
0.0010760145
1.2382701e-05
0.0010761801
1.2810812e-05
0.0010763367
1.3216074e-05
0.001076485
1.3600721e-05
0.001076626
1.3967187e-05
0.0010767603
1.4315649e-05
0.0010768883
1.4644846e-05
0.0010770099
1.4952841e-05
0.0010771248
1.5237189e-05
0.0010772323
1.5496714e-05
0.0010773319
1.5732103e-05
0.0010774231
1.5945005e-05
0.0010775056
1.6138143e-05
0.0010775791
1.63157e-05
0.0010776434
1.6483903e-05
0.0010776988
1.665138e-05
0.0010777465
1.6829159e-05
0.0010777876
1.7026735e-05
0.0010778236
1.7251986e-05
0.0010778563
1.7512908e-05
0.0010778875
1.7812831e-05
0.0010779184
1.8150004e-05
0.0010779494
1.8520112e-05
0.001077981
1.8919775e-05
0.0010780131
1.9343764e-05
0.0010780454
1.9788092e-05
0.0010780779
2.0252909e-05
0.0010781104
2.073661e-05
0.0010781428
2.1237491e-05
0.001078175
2.1754207e-05
0.0010782065
2.2283058e-05
0.0010782367
2.2822241e-05
0.0010782651
2.3372699e-05
0.0010782913
2.3934912e-05
0.0010783148
2.4509678e-05
0.0010783347
2.5095401e-05
0.0010783499
2.5692044e-05
0.0010783587
2.630129e-05
0.0010783595
2.6925231e-05
0.0010783496
2.7561651e-05
0.0010783244
2.8208776e-05
0.001078277
2.8868831e-05
0.0010781987
2.9543178e-05
0.0010780737
3.0228809e-05
0.0010778747
3.0921567e-05
0.0010775613
3.1620779e-05
0.0010770713
3.2323499e-05
0.001076296
3.3017559e-05
0.0010750902
3.3685861e-05
0.0010733014
3.4313229e-05
0.0010708102
3.4856577e-05
0.0010675817
3.5258818e-05
0.001063677
3.5480629e-05
0.0010592396
3.5495766e-05
0.0010544484
3.5307658e-05
0.001049462
3.4957031e-05
0.0010443905
3.449936e-05
0.0010392974
3.3983375e-05
0.0010342173
3.3441374e-05
0.0010291734
3.2888158e-05
0.0010241826
3.2330473e-05
0.0010192568
3.1774742e-05
0.0010144035
3.1225217e-05
0.0010096273
3.0684984e-05
0.0010049309
3.0155833e-05
0.0010003158
2.9638583e-05
0.00099578252
2.9134198e-05
0.00099133088
2.8642926e-05
0.00098696021
2.8164988e-05
0.00098266944
2.7700411e-05
0.00097845725
2.7249113e-05
0.00097432214
2.6810949e-05
0.00097026243
2.6385717e-05
0.00096627639
2.5973202e-05
0.00096236217
2.5573174e-05
0.00095851793
2.5185414e-05
0.00095474175
2.4809721e-05
0.00095103171
2.444597e-05
0.00094738588
2.4094038e-05
0.00094380226
2.3754145e-05
0.00094027887
2.3426167e-05
0.00093681352
2.3111748e-05
0.00093340424
2.280947e-05
0.00093004787
2.2528095e-05
0.00092674313
2.2255697e-05
0.00092348198
2.2039166e-05
0.00092026966
2.1801714e-05
0.00091706133
2.1845089e-05
0.00091399626
2.1186189e-05
0.00091026154
2.4944129e-05
1.9483508e-05
0.0011101002
5.5341867e-06
-0.0011100342
0.0011102646
6.7026832e-06
0.0011104815
7.752478e-06
0.0011107109
8.6379559e-06
0.0011109386
9.4032643e-06
0.0011111604
1.0084688e-05
0.0011113723
1.0692003e-05
0.0011115723
1.1237663e-05
0.001111761
1.1738218e-05
0.0011119392
1.2204512e-05
0.0011121077
1.2642273e-05
0.0011122676
1.3056218e-05
0.0011124194
1.34489e-05
0.001112564
1.3822589e-05
0.0011127019
1.4177712e-05
0.0011128335
1.4513296e-05
0.0011129586
1.4827714e-05
0.0011130769
1.5118918e-05
0.0011131877
1.5385875e-05
0.0011132906
1.5629206e-05
0.0011133851
1.5850514e-05
0.0011134708
1.6052461e-05
0.0011135474
1.6239128e-05
0.0011136147
1.6416528e-05
0.0011136732
1.6592872e-05
0.0011137239
1.6778528e-05
0.0011137679
1.6982722e-05
0.0011138067
1.7213166e-05
0.0011138422
1.7477447e-05
0.001113876
1.777903e-05
0.0011139093
1.8116669e-05
0.0011139428
1.8486585e-05
0.001113977
1.8885603e-05
0.0011140118
1.9308983e-05
0.0011140469
1.9752942e-05
0.0011140825
2.0217346e-05
0.0011141184
2.0700707e-05
0.0011141546
2.1201323e-05
0.0011141909
2.1717835e-05
0.0011142271
2.2246864e-05
0.0011142627
2.2786638e-05
0.0011142975
2.3337948e-05
0.0011143311
2.3901273e-05
0.0011143635
2.4477338e-05
0.0011143941
2.5064799e-05
0.0011144224
2.566368e-05
0.0011144481
2.6275666e-05
0.0011144705
2.6902798e-05
0.0011144888
2.7543334e-05
0.0011145016
2.8195973e-05
0.0011145072
2.8863244e-05
0.0011145035
2.9546921e-05
0.001114487
3.0245235e-05
0.0011144524
3.0956183e-05
0.0011143917
3.1681483e-05
0.0011142936
3.2421567e-05
0.0011141382
3.3172956e-05
0.0011138927
3.3931445e-05
0.0011135098
3.4696101e-05
0.0011129082
3.5458147e-05
0.0011119651
3.6201916e-05
0.0011105346
3.6911139e-05
0.0011084772
3.7553171e-05
0.0011057099