/*--------------------------------*- C++ -*----------------------------------*\
  =========                 |
  \\      /  F ield         | OpenFOAM: The Open Source CFD Toolbox
   \\    /   O peration     | Website:  https://openfoam.org
    \\  /    A nd           | Version:  12
     \\/     M anipulation  |
\*---------------------------------------------------------------------------*/
FoamFile
{
    format      ascii;
    class       volVectorField;
    location    "900";
    object      U;
}
// * * * * * * * * * * * * * * * * * * * * * * * * * * * * * * * * * * * * * //

dimensions      [0 1 -1 0 0 0 0];

internalField   nonuniform List<vector> 
13056
(
(1 3.3823689e-10 3.7772784e-24)
(0.99997455 1.0024588e-09 0)
(0.99993047 1.5249983e-09 0)
(0.99988013 1.9633681e-09 0)
(0.99982327 2.5050009e-09 0)
(0.99975951 3.1680199e-09 0)
(0.99968867 3.9798777e-09 0)
(0.99961024 4.9877048e-09 0)
(0.99952343 6.2487485e-09 0)
(0.99942721 7.833884e-09 0)
(0.99932032 9.8346352e-09 0)
(0.99920116 1.2376196e-08 0)
(0.99906763 1.5623e-08 0)
(0.9989171 1.9832177e-08 0)
(0.99874554 2.5302764e-08 0)
(0.99854853 3.274262e-08 0)
(0.99831585 4.2487893e-08 0)
(0.99804268 5.772402e-08 0)
(0.99768912 7.595656e-08 0)
(0.99728059 1.1872704e-07 0)
(0.99658624 1.5560942e-07 0)
(0.99590686 4.2647837e-07 0)
(0.99303428 2.9927481e-07 -1.4828962e-20)
(0.99343026 0.00012009124 2.0233418e-16)
(0.038992765 0.00012421042 0)
(0.029781276 1.1654348e-07 -3.5457843e-20)
(0.027423563 4.3580142e-08 0)
(0.025876804 3.5602189e-08 0)
(0.024774644 2.7567273e-08 0)
(0.023888465 2.3069163e-08 0)
(0.023133519 1.9883373e-08 0)
(0.02248183 1.7238904e-08 0)
(0.021915128 1.5063348e-08 0)
(0.021416189 1.3309425e-08 0)
(0.020971329 1.1878203e-08 0)
(0.020570963 1.0673358e-08 0)
(0.020208537 9.6454414e-09 0)
(0.019878096 8.7836918e-09 0)
(0.019574065 8.0516372e-09 0)
(0.019292821 7.4103342e-09 0)
(0.019031546 6.8514406e-09 0)
(0.018787493 6.360757e-09 0)
(0.018558619 5.9246933e-09 0)
(0.018343187 5.5362952e-09 0)
(0.018139688 5.1874494e-09 0)
(0.017946888 4.8731865e-09 0)
(0.017763662 4.5884001e-09 0)
(0.017589133 4.3276401e-09 0)
(0.017422528 4.0897068e-09 0)
(0.017263094 3.870769e-09 0)
(0.01711029 3.6676176e-09 0)
(0.01696359 3.4806182e-09 0)
(0.016822445 3.3077323e-09 0)
(0.016686438 3.1464839e-09 0)
(0.016555208 2.9965579e-09 0)
(0.016428366 2.8575098e-09 0)
(0.016305561 2.7273607e-09 0)
(0.016186542 2.6047273e-09 0)
(0.016071068 2.4898812e-09 0)
(0.015958864 2.3822967e-09 0)
(0.015849702 2.2806029e-09 0)
(0.015743414 2.1841775e-09 0)
(0.015639831 2.0932938e-09 0)
(0.015538749 2.0077377e-09 0)
(0.015439996 1.9264897e-09 0)
(0.015343455 1.8489664e-09 0)
(0.015249007 1.775405e-09 0)
(0.015156503 1.7058881e-09 0)
(0.015065803 1.6396113e-09 0)
(0.014976823 1.5760259e-09 0)
(0.014889475 1.515358e-09 0)
(0.014803651 1.4576385e-09 0)
(0.014719247 1.4026153e-09 0)
(0.014636169 1.3498074e-09 0)
(0.014554356 1.2990187e-09 0)
(0.01447374 1.2503638e-09 0)
(0.014394237 1.2039347e-09 0)
(0.014315761 1.1593648e-09 0)
(0.014238254 1.1163516e-09 0)
(0.014161665 1.0749463e-09 0)
(0.014085934 1.035161e-09 0)
(0.014010995 9.9703199e-10 0)
(0.013936775 9.6027362e-10 0)
(0.013863235 9.246814e-10 0)
(0.01379033 8.9034153e-10 0)
(0.013718005 8.572786e-10 0)
(0.013646203 8.2545773e-10 0)
(0.013574866 7.9467672e-10 0)
(0.013503957 7.6481662e-10 0)
(0.013433437 7.3594079e-10 0)
(0.013363255 7.0809065e-10 0)
(0.013293356 6.8117669e-10 0)
(0.013223691 6.5506755e-10 0)
(0.013154225 6.2972251e-10 0)
(0.013084917 6.0517297e-10 0)
(0.013015715 5.8144739e-10 0)
(0.012946564 5.5843924e-10 0)
(0.012877424 5.3606435e-10 0)
(0.012808252 5.1434028e-10 0)
(0.012739001 4.9329154e-10 0)
(0.012669614 4.7287882e-10 0)
(0.012600038 4.5302974e-10 0)
(0.012530228 4.3371936e-10 0)
(0.012460133 4.1496952e-10 0)
(0.01238969 3.9677466e-10 0)
(0.012318837 3.7907454e-10 0)
(0.012247519 3.6184007e-10 0)
(0.012175675 3.4509053e-10 0)
(0.012103229 3.2881766e-10 0)
(0.012030108 3.1297351e-10 0)
(0.011956241 2.9755831e-10 0)
(0.01188154 2.8253726e-10 0)
(0.011805937 2.6806229e-10 0)
(0.011730952 2.5448685e-10 0)
(0.011658917 2.4196827e-10 0)
(0.011590466 2.3046623e-10 0)
(0.011525303 2.1987138e-10 0)
(0.011463169 2.1009169e-10 0)
(0.011403828 2.0106196e-10 0)
(0.011347063 1.9271197e-10 0)
(0.011292679 1.8496731e-10 0)
(0.011240505 1.7776691e-10 0)
(0.011190385 1.710646e-10 0)
(0.011142174 1.6482339e-10 0)
(0.011095742 1.5900687e-10 0)
(0.011050966 1.5357841e-10 0)
(0.011007735 1.4852353e-10 0)
(0.010965938 1.4380881e-10 0)
(0.010925485 1.3951102e-10 0)
(0.010886219 1.3546721e-10 0)
(0.010848153 1.3227053e-10 0)
(0.010810773 1.2874891e-10 0)
(0.010774814 1.2843428e-10 0)
(0.010737615 6.0074356e-10 0)
(0.010705293 1.477341e-10 1.8300484e-22)
(0.010652248 4.6274628e-10 0)
(1 1.0208866e-09 0)
(0.99997448 3.0282792e-09 0)
(0.99993023 4.6083579e-09 0)
(0.99987967 5.9338245e-09 0)
(0.99982256 7.5707779e-09 0)
(0.99975851 9.5742397e-09 0)
(0.99968736 1.2027127e-08 0)
(0.9996086 1.50717e-08 0)
(0.99952143 1.8880745e-08 0)
(0.99942483 2.3668156e-08 0)
(0.99931753 2.971011e-08 0)
(0.99919794 3.7384344e-08 0)
(0.99906395 4.7186944e-08 0)
(0.99891294 5.9893616e-08 0)
(0.99874085 7.6406344e-08 0)
(0.99854329 9.8860406e-08 0)
(0.99831 1.2826914e-07 0)
(0.99803618 1.7424068e-07 0)
(0.99768188 2.2924895e-07 0)
(0.99727256 3.5825989e-07 0)
(0.99657717 4.6948157e-07 0)
(0.99589698 1.2864465e-06 0)
(0.9930215 9.0309242e-07 5.2930146e-20)
(0.99341481 0.00035414191 -6.8940625e-20)
(0.11367973 0.00035969936 0)
(0.088303209 5.6183338e-06 0)
(0.081393901 1.9563564e-06 0)
(0.07688825 1.329721e-06 0)
(0.073674749 9.9166042e-07 0)
(0.071088713 8.1192e-07 0)
(0.068883335 6.8985491e-07 0)
(0.066977461 5.920345e-07 0)
(0.065318418 5.128557e-07 0)
(0.063856455 4.4971407e-07 0)
(0.062551919 3.9863464e-07 0)
(0.061376998 3.5599023e-07 0)
(0.060312684 3.1987922e-07 0)
(0.059341706 2.8968708e-07 0)
(0.058447852 2.641985e-07 0)
(0.057620555 2.4205316e-07 0)
(0.056851622 2.2278082e-07 0)
(0.056133054 2.0595562e-07 0)
(0.055458892 1.9107665e-07 0)
(0.054824071 1.778639e-07 0)
(0.054224188 1.6605546e-07 0)
(0.053655644 1.5545348e-07 0)
(0.05311515 1.4587784e-07 0)
(0.052600143 1.3715388e-07 0)
(0.05210837 1.2920992e-07 0)
(0.051637626 1.2193169e-07 0)
(0.051186328 1.152105e-07 0)
(0.050752941 1.0903403e-07 0)
(0.05033586 1.0334484e-07 0)
(0.049933861 9.8058888e-08 0)
(0.049545886 9.3153362e-08 0)
(0.049170799 8.8613223e-08 0)
(0.048807566 8.4378102e-08 0)
(0.048455457 8.0400248e-08 0)
(0.048113762 7.6680784e-08 0)
(0.047781675 7.3206243e-08 0)
(0.047458529 6.9933524e-08 0)
(0.047143831 6.6838432e-08 0)
(0.04683708 6.3925976e-08 0)
(0.046537685 6.1190441e-08 0)
(0.046245136 5.8600654e-08 0)
(0.045959088 5.6135545e-08 0)
(0.045679195 5.3800425e-08 0)
(0.045405017 5.1596869e-08 0)
(0.045136145 4.9502199e-08 0)
(0.044872327 4.7498981e-08 0)
(0.044613306 4.5590032e-08 0)
(0.044358768 4.3776526e-08 0)
(0.044108402 4.2051577e-08 0)
(0.043861934 4.0401048e-08 0)
(0.043619183 3.881628e-08 0)
(0.043379953 3.7300792e-08 0)
(0.043143987 3.5856095e-08 0)
(0.04291104 3.4473109e-08 0)
(0.042680938 3.3142436e-08 0)
(0.042453529 3.1862619e-08 0)
(0.042228642 3.0635174e-08 0)
(0.042006071 2.9460325e-08 0)
(0.041785613 2.8330682e-08 0)
(0.041567143 2.7239698e-08 0)
(0.041350532 2.6188355e-08 0)
(0.04113562 2.5177577e-08 0)
(0.040922234 2.4206403e-08 0)
(0.040710201 2.326935e-08 0)
(0.040499418 2.2362163e-08 0)
(0.040289765 2.1486236e-08 0)
(0.04008109 2.0642361e-08 0)
(0.039873233 1.9828654e-08 0)
(0.039666048 1.9041242e-08 0)
(0.039459429 1.8277916e-08 0)
(0.039253256 1.7539814e-08 0)
(0.039047373 1.6827451e-08 0)
(0.038841619 1.6138199e-08 0)
(0.03863587 1.5469432e-08 0)
(0.038430007 1.4821037e-08 0)
(0.038223882 1.4193629e-08 0)
(0.038017328 1.3586472e-08 0)
(0.037810188 1.2997393e-08 0)
(0.037602326 1.2425188e-08 0)
(0.037393591 1.1870473e-08 0)
(0.037183798 1.13332e-08 0)
(0.036972758 1.0811662e-08 0)
(0.036760307 1.0304747e-08 0)
(0.036546262 9.8128726e-09 0)
(0.036330403 9.3359301e-09 0)
(0.036112503 8.8725363e-09 0)
(0.035892355 8.4224415e-09 0)
(0.035669694 7.9846043e-09 0)
(0.035444316 7.5634637e-09 0)
(0.035220752 7.1692398e-09 0)
(0.035005961 6.8064048e-09 0)
(0.034801832 6.4737376e-09 0)
(0.034607489 6.1678948e-09 0)
(0.034422162 5.8860336e-09 0)
(0.034245147 5.6261214e-09 0)
(0.034075801 5.3860996e-09 0)
(0.033913546 5.163814e-09 0)
(0.03375787 4.9573976e-09 0)
(0.03360831 4.7654618e-09 0)
(0.033464439 4.5868742e-09 0)
(0.033325864 4.4206063e-09 0)
(0.033192221 4.265583e-09 0)
(0.033063183 4.1213162e-09 0)
(0.032938415 3.9868082e-09 0)
(0.032817653 3.8641804e-09 0)
(0.03270043 3.7486349e-09 0)
(0.032586779 3.657272e-09 0)
(0.032475173 3.5554148e-09 0)
(0.032367803 3.546122e-09 0)
(0.032256734 3.3866039e-09 0)
(0.032160209 4.129849e-09 -2.7759269e-22)
(0.032001789 2.5973955e-09 1.8208242e-23)
(1 1.7210154e-09 0)
(0.9999744 5.1072402e-09 0)
(0.99992993 7.7749101e-09 0)
(0.99987909 1.0012584e-08 0)
(0.99982166 1.2774798e-08 0)
(0.99975726 1.6154829e-08 0)
(0.99968571 2.0292509e-08 0)
(0.99960653 2.5427573e-08 0)
(0.99951891 3.185118e-08 0)
(0.99942183 3.9923721e-08 0)
(0.99931402 5.0110461e-08 0)
(0.99919389 6.3047708e-08 0)
(0.99905933 7.9571036e-08 0)
(0.99890771 1.0098695e-07 0)
(0.99873498 1.2881437e-07 0)
(0.99853671 1.6664939e-07 0)
(0.99830267 2.1619753e-07 0)
(0.99802804 2.9363868e-07 0)
(0.99767282 3.8629553e-07 0)
(0.99726254 6.0355566e-07 0)
(0.99656586 7.9084236e-07 0)
(0.99588466 2.1664284e-06 0)
(0.99300576 1.523154e-06 -2.8011332e-20)
(0.99339604 0.00057171733 7.0517633e-54)
(0.18132517 0.00058469004 -9.1957634e-54)
(0.14119991 1.6435123e-05 0)
(0.1303283 5.7152627e-06 0)
(0.12341023 3.8312584e-06 0)
(0.11848519 2.853425e-06 0)
(0.11452046 2.3360619e-06 0)
(0.11113503 1.9858463e-06 0)
(0.10820434 1.7055056e-06 0)
(0.10564875 1.4784953e-06 0)
(0.10339301 1.2973642e-06 0)
(0.10137701 1.1507498e-06 0)
(0.099558662 1.0282546e-06 0)
(0.097909281 9.2444646e-07 0)
(0.096402667 8.3759817e-07 0)
(0.095014072 7.6425078e-07 0)
(0.093727436 7.0049406e-07 0)
(0.092530318 6.4497283e-07 0)
(0.091410496 5.9648423e-07 0)
(0.090358877 5.5358679e-07 0)
(0.089367734 5.1547547e-07 0)
(0.088430332 4.8140264e-07 0)
(0.08754117 4.5079919e-07 0)
(0.086695208 4.2314857e-07 0)
(0.085888522 3.9794991e-07 0)
(0.085117665 3.7499531e-07 0)
(0.084379249 3.5395849e-07 0)
(0.08367085 3.3452623e-07 0)
(0.082990117 3.1666239e-07 0)
(0.082334577 3.0020397e-07 0)
(0.081702347 2.8490821e-07 0)
(0.081091806 2.7070888e-07 0)
(0.080501202 2.575639e-07 0)
(0.079928936 2.4529946e-07 0)
(0.079373887 2.3377721e-07 0)
(0.078834964 2.2300042e-07 0)
(0.078310919 2.1293123e-07 0)
(0.077800718 2.0344501e-07 0)
(0.077303607 1.9447152e-07 0)
(0.07681881 1.8602554e-07 0)
(0.076345409 1.7809116e-07 0)
(0.075882616 1.7057824e-07 0)
(0.075429897 1.634255e-07 0)
(0.074986718 1.5664852e-07 0)
(0.074552393 1.502522e-07 0)
(0.074126286 1.4417106e-07 0)
(0.073708009 1.3835438e-07 0)
(0.073297162 1.3281024e-07 0)
(0.072893257 1.2754247e-07 0)
(0.072495809 1.2253119e-07 0)
(0.072104388 1.1773545e-07 0)
(0.071718716 1.1312989e-07 0)
(0.071338486 1.0872499e-07 0)
(0.070963299 1.0452519e-07 0)
(0.070592765 1.005043e-07 0)
(0.070226617 9.6634965e-08 0)
(0.069864618 9.2912793e-08 0)
(0.069506496 8.9342506e-08 0)
(0.069151933 8.5924731e-08 0)
(0.068800603 8.2638079e-08 0)
(0.068452314 7.9463435e-08 0)
(0.068106862 7.6403656e-08 0)
(0.067763995 7.346158e-08 0)
(0.06742344 7.0634441e-08 0)
(0.067084924 6.7906319e-08 0)
(0.066748282 6.5264749e-08 0)
(0.066413326 6.2713862e-08 0)
(0.066079814 6.0256011e-08 0)
(0.065747491 5.7885784e-08 0)
(0.065416126 5.5591893e-08 0)
(0.06508555 5.3367817e-08 0)
(0.064755572 5.1216998e-08 0)
(0.064425941 4.914095e-08 0)
(0.064096402 4.7132038e-08 0)
(0.063766755 4.5182578e-08 0)
(0.063436807 4.3292265e-08 0)
(0.063106324 4.1462927e-08 0)
(0.062775036 3.9692455e-08 0)
(0.062442688 3.7974507e-08 0)
(0.062109065 3.6305541e-08 0)
(0.061773921 3.4687406e-08 0)
(0.061436955 3.3119996e-08 0)
(0.061097864 3.1598317e-08 0)
(0.060756381 3.0119111e-08 0)
(0.060412211 2.8683631e-08 0)
(0.060064993 2.7291588e-08 0)
(0.059714363 2.5938933e-08 0)
(0.059359982 2.4624932e-08 0)
(0.059001418 2.334657e-08 0)
(0.058638339 2.2116801e-08 0)
(0.058278044 2.0965497e-08 0)
(0.057931756 1.990578e-08 0)
(0.057602541 1.8934104e-08 0)
(0.057289 1.8040685e-08 0)
(0.056989908 1.7217235e-08 0)
(0.056704143 1.6457842e-08 0)
(0.056430677 1.5756515e-08 0)
(0.056168587 1.510696e-08 0)
(0.055917056 1.4503723e-08 0)
(0.055675344 1.3942766e-08 0)
(0.055442769 1.3420788e-08 0)
(0.055218702 1.2934795e-08 0)
(0.055002559 1.2481641e-08 0)
(0.054793817 1.2059903e-08 0)
(0.054591941 1.1666673e-08 0)
(0.054396505 1.1308174e-08 0)
(0.054206758 1.0970336e-08 0)
(0.054022758 1.0703316e-08 0)
(0.053842033 1.0405297e-08 0)
(0.053668137 1.0378763e-08 0)
(0.053488215 9.8485463e-09 0)
(0.053331826 1.2097148e-08 0)
(0.053075107 7.5405019e-09 0)
(1 2.4495337e-09 7.7492853e-24)
(0.99997429 7.272996e-09 0)
(0.99992956 1.1077022e-08 0)
(0.99987839 1.4267682e-08 0)
(0.99982056 1.8204002e-08 0)
(0.99975572 2.3019635e-08 0)
(0.99968371 2.891371e-08 0)
(0.99960401 3.6227323e-08 0)
(0.99951584 4.5374703e-08 0)
(0.99941818 5.68685e-08 0)
(0.99930975 7.1370449e-08 0)
(0.99918895 8.9785454e-08 0)
(0.99905369 1.1330164e-07 0)
(0.99890133 1.437767e-07 0)
(0.99872781 1.8336991e-07 0)
(0.9985287 2.3719403e-07 0)
(0.99829375 3.0767174e-07 0)
(0.99801813 4.1780549e-07 0)
(0.9976618 5.4956351e-07 0)
(0.99725036 8.5844333e-07 0)
(0.99655211 1.124664e-06 0)
(0.99586971 3.0799572e-06 0)
(0.99298682 2.168004e-06 0)
(0.99337366 0.00077984554 -3.6751283e-54)
(0.23942233 0.00080633198 4.084268e-54)
(0.18519825 3.2537423e-05 0)
(0.17097184 1.1175953e-05 0)
(0.16225039 7.3939647e-06 0)
(0.15608421 5.4992379e-06 0)
(0.15113261 4.5029894e-06 0)
(0.14690698 3.83116e-06 0)
(0.14324738 3.2939581e-06 0)
(0.14005371 2.8587211e-06 0)
(0.13723223 2.5112145e-06 0)
(0.1347082 2.2297161e-06 0)
(0.13242946 1.9942693e-06 0)
(0.13036067 1.7945183e-06 0)
(0.12846935 1.6272844e-06 0)
(0.12672465 1.4859663e-06 0)
(0.12510673 1.3630216e-06 0)
(0.12360019 1.2558734e-06 0)
(0.12218982 1.1622447e-06 0)
(0.12086434 1.0793557e-06 0)
(0.11961418 1.005666e-06 0)
(0.11843095 9.3974609e-07 0)
(0.11730784 8.8050343e-07 0)
(0.11623857 8.2694692e-07 0)
(0.11521827 7.7811224e-07 0)
(0.11424265 7.3360204e-07 0)
(0.1133075 6.9278977e-07 0)
(0.1124098 6.5506931e-07 0)
(0.11154663 6.2037534e-07 0)
(0.11071491 5.8839676e-07 0)
(0.10991229 5.586619e-07 0)
(0.10913676 5.3104458e-07 0)
(0.10838614 5.0546756e-07 0)
(0.10765841 4.8159339e-07 0)
(0.1069522 4.591528e-07 0)
(0.10626614 4.3815487e-07 0)
(0.10559866 4.1852839e-07 0)
(0.10494848 4.0003019e-07 0)
(0.10431465 3.8252352e-07 0)
(0.10369622 3.6603947e-07 0)
(0.10309202 3.5054858e-07 0)
(0.10250107 3.3587472e-07 0)
(0.10192271 3.2189819e-07 0)
(0.10135626 3.0865087e-07 0)
(0.10080086 2.9614359e-07 0)
(0.10025572 2.8424831e-07 0)
(0.099720346 2.7286569e-07 0)
(0.099194241 2.620122e-07 0)
(0.098676789 2.5169643e-07 0)
(0.098167377 2.4187981e-07 0)
(0.097665466 2.3248204e-07 0)
(0.097170706 2.2345341e-07 0)
(0.096682711 2.1481529e-07 0)
(0.096200975 2.0657686e-07 0)
(0.095725006 1.9868688e-07 0)
(0.095254465 1.9109155e-07 0)
(0.094789056 1.8378243e-07 0)
(0.094328431 1.7676947e-07 0)
(0.093872187 1.7005409e-07 0)
(0.093419908 1.6359427e-07 0)
(0.092971352 1.5735238e-07 0)
(0.092526259 1.5133434e-07 0)
(0.092084308 1.4554609e-07 0)
(0.091645148 1.3998235e-07 0)
(0.091208431 1.3461175e-07 0)
(0.090773945 1.2940972e-07 0)
(0.090341452 1.243847e-07 0)
(0.089910636 1.1954152e-07 0)
(0.089481172 1.1486963e-07 0)
(0.089052761 1.1034675e-07 0)
(0.088625185 1.0596001e-07 0)
(0.088198197 1.0171648e-07 0)
(0.087771472 9.7619288e-08 0)
(0.087344677 9.3653347e-08 0)
(0.086917555 8.9803472e-08 0)
(0.086489855 8.6069209e-08 0)
(0.086061267 8.2454302e-08 0)
(0.085631442 7.8954643e-08 0)
(0.085200046 7.5557689e-08 0)
(0.084766795 7.2256465e-08 0)
(0.084331369 6.9054771e-08 0)
(0.083893371 6.595247e-08 0)
(0.0834524 6.2939671e-08 0)
(0.083008108 6.0009943e-08 0)
(0.082560103 5.7165873e-08 0)
(0.082107909 5.4406954e-08 0)
(0.081651043 5.1725152e-08 0)
(0.081189056 4.9119054e-08 0)
(0.080721377 4.6582716e-08 0)
(0.080247562 4.414195e-08 0)
(0.079777135 4.1856268e-08 0)
(0.079324764 3.9751806e-08 0)
(0.078894483 3.7821534e-08 0)
(0.078484494 3.6046107e-08 0)
(0.078093225 3.4409158e-08 0)
(0.077719229 3.2899122e-08 0)
(0.07736118 3.150417e-08 0)
(0.077017891 3.0211839e-08 0)
(0.076688306 2.9011332e-08 0)
(0.076371472 2.7894697e-08 0)
(0.076066508 2.6855422e-08 0)
(0.075772599 2.5887593e-08 0)
(0.075488992 2.4984977e-08 0)
(0.07521501 2.414479e-08 0)
(0.074949959 2.3361272e-08 0)
(0.074693286 2.2646959e-08 0)
(0.074444014 2.1973654e-08 0)
(0.074202224 2.144211e-08 0)
(0.073964666 2.0847751e-08 0)
(0.073736036 2.079832e-08 0)
(0.073499382 1.9769005e-08 0)
(0.073293664 2.4256847e-08 0)
(0.072955889 1.5125845e-08 0)
(1 3.2180059e-09 0)
(0.99997417 9.5606602e-09 0)
(0.99992913 1.4569194e-08 0)
(0.99987755 1.876988e-08 0)
(0.99981925 2.3948742e-08 0)
(0.99975389 3.0282739e-08 0)
(0.9996813 3.8033649e-08 0)
(0.99960098 4.7649403e-08 0)
(0.99951215 5.9673918e-08 0)
(0.99941379 7.4780233e-08 0)
(0.99930461 9.3836963e-08 0)
(0.99918303 1.1803177e-07 0)
(0.99904694 1.4892378e-07 0)
(0.99889369 1.889507e-07 0)
(0.99871922 2.4094525e-07 0)
(0.99851911 3.1161588e-07 0)
(0.99828306 4.0413794e-07 0)
(0.99800628 5.4869099e-07 0)
(0.99764862 7.2160246e-07 0)
(0.99723579 1.126868e-06 0)
(0.99653571 1.4760501e-06 0)
(0.99585187 4.0409375e-06 0)
(0.99296437 2.8477201e-06 0)
(0.99334737 0.00098344733 0)
(0.28961322 0.0010272875 0)
(0.2218339 5.4010182e-05 0)
(0.20455262 1.8156919e-05 0)
(0.19435171 1.1826754e-05 0)
(0.18721001 8.7698259e-06 0)
(0.18150041 7.174937e-06 0)
(0.1766383 6.1048472e-06 0)
(0.17243106 5.251352e-06 0)
(0.16876071 4.5602463e-06 0)
(0.16551839 4.0085067e-06 0)
(0.16261767 3.5615075e-06 0)
(0.15999845 3.1874192e-06 0)
(0.15762027 2.8698389e-06 0)
(0.15544576 2.6038947e-06 0)
(0.15343934 2.3791147e-06 0)
(0.15157827 2.1834471e-06 0)
(0.14984494 2.0128455e-06 0)
(0.14822182 1.8637288e-06 0)
(0.146696 1.7316584e-06 0)
(0.14525649 1.6141975e-06 0)
(0.14389368 1.5090821e-06 0)
(0.14259976 1.4145787e-06 0)
(0.14136753 1.3291153e-06 0)
(0.1401914 1.2511568e-06 0)
(0.13906646 1.1800769e-06 0)
(0.13798787 1.1148799e-06 0)
(0.13695218 1.0545971e-06 0)
(0.13595604 9.9913157e-07 0)
(0.13499592 9.4799142e-07 0)
(0.13406912 9.0042034e-07 0)
(0.13317335 8.5622038e-07 0)
(0.13230609 8.1527443e-07 0)
(0.13146505 7.7704153e-07 0)
(0.13064864 7.4108985e-07 0)
(0.1298553 7.0743867e-07 0)
(0.12908324 6.7597694e-07 0)
(0.12833096 6.4631312e-07 0)
(0.12759741 6.1822827e-07 0)
(0.12688148 5.9177602e-07 0)
(0.12618182 5.6691101e-07 0)
(0.12549732 5.4334946e-07 0)
(0.12482721 5.2089916e-07 0)
(0.12417073 4.9961386e-07 0)
(0.12352688 4.7951257e-07 0)
(0.12289474 4.6038888e-07 0)
(0.12227376 4.4208273e-07 0)
(0.12166336 4.24622e-07 0)
(0.12106284 4.0802209e-07 0)
(0.12047149 3.9222109e-07 0)
(0.11988868 3.7708935e-07 0)
(0.11931403 3.6254697e-07 0)
(0.11874707 3.4862975e-07 0)
(0.11818724 3.3535319e-07 0)
(0.11763395 3.2263444e-07 0)
(0.11708682 3.1038654e-07 0)
(0.11654551 2.9859649e-07 0)
(0.11600962 2.8728124e-07 0)
(0.11547868 2.7644332e-07 0)
(0.1149522 2.6601473e-07 0)
(0.11442991 2.5593455e-07 0)
(0.11391151 2.4621302e-07 0)
(0.11339662 2.368603e-07 0)
(0.11288484 2.2786791e-07 0)
(0.11237576 2.1918502e-07 0)
(0.11186914 2.1077189e-07 0)
(0.11136469 2.0264272e-07 0)
(0.11086205 1.9480564e-07 0)
(0.11036084 1.8724358e-07 0)
(0.10986071 1.7992038e-07 0)
(0.10936141 1.7281533e-07 0)
(0.10886264 1.659403e-07 0)
(0.10836403 1.5930052e-07 0)
(0.10786518 1.5287143e-07 0)
(0.10736579 1.466284e-07 0)
(0.10686557 1.40571e-07 0)
(0.10636415 1.3470552e-07 0)
(0.10586111 1.2902527e-07 0)
(0.10535608 1.2350987e-07 0)
(0.1048487 1.1814812e-07 0)
(0.1043386 1.129464e-07 0)
(0.10382531 1.0790455e-07 0)
(0.10330835 1.0300647e-07 0)
(0.10278732 9.8241753e-08 0)
(0.10226174 9.36148e-08 0)
(0.10173105 8.9124834e-08 0)
(0.10119467 8.4758753e-08 0)
(0.10065208 8.0514362e-08 0)
(0.10010258 7.6382001e-08 0)
(0.099545657 7.2403898e-08 0)
(0.09899249 6.8677493e-08 0)
(0.098460342 6.5245532e-08 0)
(0.097953984 6.2096483e-08 0)
(0.097471327 5.9198901e-08 0)
(0.097010545 5.6526381e-08 0)
(0.096569956 5.4060294e-08 0)
(0.096148016 5.1781476e-08 0)
(0.095743341 4.9669654e-08 0)
(0.095354705 4.7707296e-08 0)
(0.094980995 4.5881552e-08 0)
(0.094621184 4.4181878e-08 0)
(0.094274323 4.2598681e-08 0)
(0.093939533 4.1121826e-08 0)
(0.093616024 3.9746862e-08 0)
(0.093302982 3.8464417e-08 0)
(0.092999764 3.7295293e-08 0)
(0.092705218 3.6193e-08 0)
(0.09241945 3.5324094e-08 0)
(0.092138607 3.435034e-08 0)
(0.091868287 3.4276454e-08 0)
(0.091588341 3.259363e-08 0)
(0.091345015 3.9995184e-08 -2.5208082e-22)
(0.090945428 2.4931037e-08 1.6562464e-23)
(1 4.0388683e-09 0)
(0.99997403 1.2008267e-08 0)
(0.99992862 1.8310882e-08 0)
(0.99987656 2.3596602e-08 0)
(0.99981771 3.0107932e-08 0)
(0.99975172 3.8068997e-08 0)
(0.99967845 4.780863e-08 0)
(0.9995974 5.9888779e-08 0)
(0.99950779 7.4991719e-08 0)
(0.9994086 9.396154e-08 0)
(0.99929854 1.1788739e-07 0)
(0.99917602 1.4825822e-07 0)
(0.99903894 1.8702839e-07 0)
(0.99888464 2.3725335e-07 0)
(0.99870905 3.0248268e-07 0)
(0.99850775 3.9112399e-07 0)
(0.99827043 5.0715199e-07 0)
(0.99799227 6.8838766e-07 0)
(0.99763306 9.0514326e-07 0)
(0.9972186 1.4130397e-06 0)
(0.99651635 1.8504353e-06 0)
(0.99583085 5.0641065e-06 0)
(0.99293807 3.5732261e-06 0)
(0.99331679 0.0011859158 0)
(0.33438121 0.0012513028 0)
(0.25360412 8.1686379e-05 0)
(0.23337383 2.6839142e-05 0)
(0.22183235 1.7189067e-05 0)
(0.21383942 1.2692247e-05 0)
(0.20748202 1.0366268e-05 0)
(0.20208311 8.8147791e-06 0)
(0.19741786 7.581731e-06 0)
(0.19335133 6.5846577e-06 0)
(0.18976102 5.7891955e-06 0)
(0.18655012 5.1449669e-06 0)
(0.18365157 4.6057554e-06 0)
(0.18102042 4.1478872e-06 0)
(0.17861511 3.7645168e-06 0)
(0.17639594 3.4405178e-06 0)
(0.17433771 3.1584044e-06 0)
(0.17242092 2.9124006e-06 0)
(0.17062606 2.6973774e-06 0)
(0.16893883 2.5068994e-06 0)
(0.16734705 2.3374643e-06 -3.5388325e-33)
(0.16584007 2.1858158e-06 0)
(0.16440925 2.0494563e-06 0)
(0.16304659 1.926124e-06 0)
(0.16174592 1.8136029e-06 0)
(0.16050181 1.7109958e-06 0)
(0.15930887 1.6168677e-06 0)
(0.1581633 1.5298156e-06 0)
(0.1570614 1.449707e-06 0)
(0.15599925 1.3758356e-06 0)
(0.15497387 1.3071038e-06 0)
(0.15398274 1.2432293e-06 0)
(0.15302307 1.1840501e-06 0)
(0.15209231 1.1287817e-06 0)
(0.15118873 1.0767979e-06 0)
(0.15031059 1.0281325e-06 0)
(0.14945592 9.8262765e-07 0)
(0.14862306 9.3971355e-07 0)
(0.14781084 8.9907353e-07 0)
(0.14701804 8.6078975e-07 0)
(0.14624318 8.2479824e-07 0)
(0.14548502 7.9068603e-07 0)
(0.14474271 7.5817483e-07 0)
(0.14401542 7.2734549e-07 0)
(0.14330204 6.9822711e-07 0)
(0.14260155 6.7051932e-07 0)
(0.14191335 6.4398958e-07 0)
(0.14123679 6.1868006e-07 0)
(0.1405711 5.9461487e-07 0)
(0.13991549 5.7170396e-07 0)
(0.13926928 5.4975858e-07 0)
(0.13863202 5.2866317e-07 0)
(0.13800322 5.0847134e-07 0)
(0.13738224 4.8920616e-07 0)
(0.13676844 4.7074672e-07 0)
(0.1361614 4.5296643e-07 0)
(0.13556073 4.3584739e-07 0)
(0.13496599 4.1941518e-07 0)
(0.13437666 4.0367356e-07 0)
(0.13379221 3.8852325e-07 0)
(0.13321233 3.7387563e-07 0)
(0.13263668 3.5974649e-07 0)
(0.13206486 3.4615118e-07 0)
(0.13149639 3.3307724e-07 0)
(0.13093085 3.204505e-07 0)
(0.13036795 3.0821321e-07 0)
(0.12980738 2.9638674e-07 0)
(0.12924874 2.8498323e-07 0)
(0.1286916 2.7397763e-07 0)
(0.12813557 2.6331719e-07 0)
(0.12758038 2.5297199e-07 0)
(0.12702568 2.4295983e-07 0)
(0.12647107 2.3328841e-07 0)
(0.12591609 2.2392172e-07 0)
(0.12536043 2.1482382e-07 0)
(0.12480374 2.059946e-07 0)
(0.12424561 1.9744339e-07 0)
(0.12368559 1.8916031e-07 0)
(0.12312323 1.811156e-07 0)
(0.12255815 1.7329312e-07 0)
(0.12198994 1.6570242e-07 0)
(0.12141806 1.5834326e-07 0)
(0.12084198 1.5119204e-07 0)
(0.12026124 1.4423372e-07 0)
(0.11967531 1.3747492e-07 0)
(0.11908355 1.309145e-07 0)
(0.11848532 1.2453326e-07 0)
(0.11788002 1.1832814e-07 0)
(0.11726688 1.1228502e-07 0)
(0.11664529 1.0646577e-07 0)
(0.11602777 1.0101355e-07 0)
(0.11543356 9.5991129e-08 0)
(0.11486802 9.1381386e-08 0)
(0.11432883 8.7138351e-08 0)
(0.11381397 8.3223809e-08 0)
(0.11332157 7.9610764e-08 0)
(0.11284992 7.6271293e-08 0)
(0.11239749 7.3175759e-08 0)
(0.11196291 7.0298604e-08 0)
(0.11154494 6.7621183e-08 0)
(0.11114246 6.5128151e-08 0)
(0.1107544 6.2805521e-08 0)
(0.11037978 6.0638485e-08 0)
(0.11001773 5.8620664e-08 0)
(0.10966734 5.673837e-08 0)
(0.10932791 5.5022514e-08 0)
(0.10899813 5.340436e-08 0)
(0.10867814 5.2130709e-08 0)
(0.1083636 5.0700202e-08 0)
(0.10806085 5.0601565e-08 0)
(0.10774716 4.8121084e-08 0)
(0.10747459 5.9062011e-08 0)
(0.10702694 3.6800498e-08 -7.9578652e-24)
(1 4.9256199e-09 0)
(0.99997387 1.4657426e-08 0)
(0.99992803 2.2367576e-08 0)
(0.99987541 2.8833384e-08 0)
(0.9998159 3.6790905e-08 0)
(0.99974918 4.6516379e-08 0)
(0.99967511 5.8411259e-08 0)
(0.99959321 7.3160533e-08 0)
(0.99950268 9.1595739e-08 0)
(0.9994025 1.1474541e-07 0)
(0.99929141 1.4393634e-07 0)
(0.9991678 1.809821e-07 0)
(0.99902955 2.2826258e-07 0)
(0.99887403 2.8949839e-07 0)
(0.99869714 3.6901034e-07 0)
(0.99849445 4.77035e-07 0)
(0.99825563 6.1840486e-07 0)
(0.99797587 8.3916439e-07 0)
(0.99761485 1.1031412e-06 0)
(0.9971985 1.7215e-06 0)
(0.99649375 2.2537467e-06 0)
(0.99580631 6.1651733e-06 0)
(0.99290754 4.3563022e-06 0)
(0.99328152 0.0013897482 0)
(0.37556859 0.001482783 0)
(0.28228509 0.00011585179 0)
(0.25911147 3.7503967e-05 0)
(0.24628237 2.361178e-05 0)
(0.23749806 1.734806e-05 0)
(0.2305488 1.4137818e-05 0)
(0.22466475 1.2009926e-05 0)
(0.21958838 1.0325733e-05 0)
(0.21516799 8.9662862e-06 0)
(0.21126814 7.8827728e-06 0)
(0.20778228 7.0057862e-06 0)
(0.20463683 6.2718577e-06 0)
(0.20178273 5.6486406e-06 0)
(0.19917451 5.1269888e-06 0)
(0.19676871 4.6862387e-06 0)
(0.1945379 4.3024292e-06 0)
(0.19246083 3.9677604e-06 0)
(0.19051621 3.6752802e-06 0)
(0.18868844 3.4161765e-06 0)
(0.1869643 3.1856916e-06 3.1898107e-33)
(0.18533219 2.9793994e-06 0)
(0.1837827 2.7939008e-06 0)
(0.18230716 2.6261221e-06 0)
(0.18089882 2.4730443e-06 0)
(0.1795518 2.3334514e-06 0)
(0.17826024 2.2053913e-06 0)
(0.17701999 2.0869468e-06 0)
(0.17582707 1.9779441e-06 0)
(0.17467718 1.877425e-06 0)
(0.17356712 1.7838882e-06 0)
(0.17249413 1.6969522e-06 0)
(0.17145521 1.6164043e-06 0)
(0.17044758 1.5411725e-06 0)
(0.16946936 1.470401e-06 0)
(0.16851868 1.4041426e-06 0)
(0.16759337 1.3421848e-06 0)
(0.16669167 1.2837467e-06 0)
(0.16581229 1.2283966e-06 0)
(0.16495392 1.1762516e-06 0)
(0.16411495 1.127226e-06 0)
(0.16329403 1.080754e-06 0)
(0.16249025 1.0364564e-06 0)
(0.1617027 9.944468e-07 0)
(0.16093019 9.5476611e-07 0)
(0.16017161 9.1700311e-07 0)
(0.1594263 8.8083993e-07 0)
(0.15869357 8.4633605e-07 0)
(0.15797258 8.1352625e-07 0)
(0.15726248 7.8228704e-07 0)
(0.15656252 7.5235991e-07 0)
(0.15587222 7.235878e-07 0)
(0.15519106 6.9604566e-07 0)
(0.15451833 6.6976549e-07 0)
(0.15385334 6.4458114e-07 0)
(0.15319563 6.2031937e-07 0)
(0.15254479 5.969571e-07 0)
(0.15190035 5.7453027e-07 0)
(0.15126172 5.5304382e-07 0)
(0.15062834 5.3236148e-07 0)
(0.14999987 5.1236213e-07 0)
(0.14937595 4.9306849e-07 0)
(0.14875613 4.7450211e-07 0)
(0.14813991 4.5664561e-07 0)
(0.14752681 4.3939725e-07 0)
(0.14691654 4.2267829e-07 0)
(0.14630875 4.0651875e-07 0)
(0.145703 3.9093551e-07 0)
(0.14509883 3.7589391e-07 0)
(0.14449582 3.6132164e-07 0)
(0.14389366 3.4717824e-07 0)
(0.14329199 3.3348852e-07 0)
(0.14269036 3.2026309e-07 0)
(0.14208829 3.0745226e-07 0)
(0.14148541 2.9500682e-07 0)
(0.14088136 2.8292732e-07 0)
(0.14027569 2.7122667e-07 0)
(0.13966791 2.5989103e-07 0)
(0.13905753 2.488796e-07 0)
(0.13844415 2.3817062e-07 0)
(0.13782729 2.277774e-07 0)
(0.13720638 2.1769949e-07 0)
(0.13658084 2.0790447e-07 0)
(0.13595017 1.9837192e-07 0)
(0.13531378 1.8911113e-07 0)
(0.13467099 1.8012044e-07 0)
(0.13402109 1.7137347e-07 0)
(0.13336343 1.6286624e-07 0)
(0.13269715 1.545793e-07 0)
(0.13202162 1.4659754e-07 0)
(0.13135041 1.3911811e-07 0)
(0.13070446 1.3222746e-07 0)
(0.13008959 1.2590161e-07 0)
(0.12950329 1.2007749e-07 0)
(0.12894339 1.1470316e-07 0)
(0.12840785 1.0974191e-07 0)
(0.12789482 1.0515551e-07 0)
(0.12740263 1.0090329e-07 0)
(0.12692982 9.6950306e-08 0)
(0.12647505 9.3271156e-08 0)
(0.12603708 8.9844878e-08 0)
(0.12561476 8.6652316e-08 0)
(0.12520704 8.3673179e-08 0)
(0.12481297 8.0898876e-08 0)
(0.12443156 7.831066e-08 0)
(0.12406204 7.5951487e-08 0)
(0.12370301 7.3726185e-08 0)
(0.12335461 7.1977026e-08 0)
(0.12301211 7.0008327e-08 0)
(0.12268245 6.9884573e-08 0)
(0.12234074 6.646243e-08 -2.5254073e-23)
(0.12204391 8.1582243e-08 0)
(0.12155646 5.0816722e-08 0)
(1 5.8930945e-09 0)
(0.99997368 1.7554252e-08 0)
(0.99992735 2.6812377e-08 0)
(0.99987407 3.4576013e-08 0)
(0.9998138 4.4120176e-08 0)
(0.99974623 5.5779444e-08 0)
(0.99967123 7.0034747e-08 0)
(0.99958832 8.7705167e-08 0)
(0.99949672 1.0978484e-07 0)
(0.99939541 1.3750311e-07 0)
(0.99928311 1.7244538e-07 0)
(0.99915823 2.1677823e-07 0)
(0.99901863 2.7334415e-07 0)
(0.99886168 3.4658669e-07 0)
(0.99868328 4.416642e-07 0)
(0.99847899 5.7080048e-07 0)
(0.99823843 7.3975683e-07 0)
(0.99795682 1.0035106e-06 0)
(0.9975937 1.3188321e-06 0)
(0.99717517 2.0572038e-06 0)
(0.99646753 2.6923783e-06 0)
(0.99577787 7.3612014e-06 0)
(0.99287235 5.2098515e-06 0)
(0.99324114 0.0015968662 -9.6833712e-54)
(0.41440598 0.0017243668 6.6582091e-54)
(0.30902298 0.00015855055 -6.7608726e-20)
(0.28284514 5.0514361e-05 0)
(0.26873381 3.1269288e-05 0)
(0.25918491 2.2847415e-05 0)
(0.25167273 1.8572877e-05 0)
(0.24533167 1.5758118e-05 0)
(0.23987027 1.3540226e-05 0)
(0.23511985 1.175364e-05 0)
(0.23093227 1.0331292e-05 0)
(0.22719153 9.180921e-06 0)
(0.22381778 8.2184889e-06 0)
(0.22075794 7.40134e-06 0)
(0.21796288 6.7176398e-06 0)
(0.21538555 6.1401786e-06 0)
(0.21299636 5.6373255e-06 0)
(0.21077244 5.1989145e-06 0)
(0.20869078 4.8158564e-06 0)
(0.2067346 4.4765274e-06 0)
(0.20488966 4.1746951e-06 0)