/*--------------------------------*- C++ -*----------------------------------*\
  =========                 |
  \\      /  F ield         | OpenFOAM: The Open Source CFD Toolbox
   \\    /   O peration     | Website:  https://openfoam.org
    \\  /    A nd           | Version:  12
     \\/     M anipulation  |
\*---------------------------------------------------------------------------*/
FoamFile
{
    format      ascii;
    class       volVectorField;
    location    "900";
    object      U;
}
// * * * * * * * * * * * * * * * * * * * * * * * * * * * * * * * * * * * * * //

dimensions      [0 1 -1 0 0 0 0];

internalField   nonuniform List<vector> 
7480
(
(0.98702228 0.00065595242 8.6308527e-17)
(0.97576742 0.0015212352 0)
(0.96332404 0.0021440962 0)
(0.95013432 0.0025445114 0)
(0.93660098 0.0028127067 0)
(0.92300033 0.0029781243 0)
(0.90943354 0.0030584673 0)
(0.89594399 0.0030612145 0)
(0.8825719 0.0030220576 0)
(0.86935179 0.0029351153 0)
(0.85631149 0.002814767 0)
(0.8434732 0.0026707242 0)
(0.83086147 0.0025092135 0)
(0.81850367 0.0023345184 0)
(0.80643241 0.002149847 0)
(0.79469106 0.0019567532 0)
(0.78334345 0.0017555302 0)
(0.77248263 0.0015505319 0)
(0.76218701 0.00134754 0)
(0.75252464 0.0011490261 0)
(0.74355564 0.00095563343 0)
(0.73533027 0.00077022125 0)
(0.72788442 0.00059678304 0)
(0.72124237 0.00043973258 0)
(0.71540225 0.00030306592 0)
(0.71032151 0.00019294511 0)
(0.70592091 0.00011421559 0)
(0.70209435 6.7261518e-05 0)
(0.69871464 4.8028889e-05 0)
(0.69565114 4.9690728e-05 0)
(0.69279129 6.3617068e-05 0)
(0.69005331 8.1373216e-05 0)
(0.68738614 9.6961563e-05 0)
(0.68476227 0.00010719831 0)
(0.68216913 0.00011174075 0)
(0.67959745 0.00011265566 0)
(0.67703521 0.00011253548 0)
(0.67446929 0.00011311805 0)
(0.67188949 0.00011484226 0)
(0.66929311 0.00011691379 0)
(0.66668649 0.00011839812 0)
(0.66408055 0.00011877491 0)
(0.66148595 0.0001179177 0)
(0.65890936 0.00011608912 0)
(0.65635392 0.00011362115 0)
(0.65382173 0.00011077855 0)
(0.65131514 0.00010770834 0)
(0.64883624 0.00010448205 0)
(0.64638669 0.00010113278 0)
(0.64396802 9.7715926e-05 0)
(0.64158101 9.432733e-05 0)
(0.63922538 9.1019299e-05 0)
(0.63690072 8.7791657e-05 0)
(0.63460721 8.4631589e-05 0)
(0.63234489 8.156623e-05 0)
(0.6301131 7.8611017e-05 0)
(0.62791104 7.5757439e-05 0)
(0.62573835 7.3000038e-05 0)
(0.62359439 7.0352589e-05 0)
(0.62147844 6.7800802e-05 0)
(0.61938987 6.5338814e-05 0)
(0.61732805 6.2974844e-05 0)
(0.61529219 6.0704697e-05 0)
(0.61328163 5.8516977e-05 0)
(0.61129587 5.6410819e-05 0)
(0.60933428 5.4384916e-05 0)
(0.60739626 5.2431634e-05 0)
(0.60548129 5.0552366e-05 0)
(0.60358874 4.8745053e-05 0)
(0.60171806 4.7004178e-05 0)
(0.59986868 4.5330475e-05 0)
(0.59804004 4.3719884e-05 0)
(0.59623158 4.217003e-05 0)
(0.59444278 4.0678962e-05 0)
(0.59267312 3.9243312e-05 0)
(0.5909221 3.7861915e-05 0)
(0.58918922 3.6531956e-05 0)
(0.58747402 3.5251576e-05 0)
(0.58577604 3.4018827e-05 0)
(0.58409481 3.2831781e-05 0)
(0.58242991 3.168863e-05 0)
(0.58078091 3.0587647e-05 0)
(0.5791474 2.9527208e-05 0)
(0.57752896 2.8505789e-05 0)
(0.5759252 2.752196e-05 0)
(0.57433573 2.6574434e-05 0)
(0.57276013 2.566197e-05 0)
(0.571198 2.4783674e-05 0)
(0.56964895 2.3938397e-05 0)
(0.56811241 2.3126378e-05 0)
(0.56658813 2.2345685e-05 0)
(0.56507486 2.1601318e-05 0)
(0.56357339 2.0884561e-05 0)
(0.56207876 2.0225333e-05 0)
(0.56059875 1.9566752e-05 0)
(0.55910808 1.9112822e-05 0)
(0.55765413 1.7934558e-05 -5.9589782e-21)
(0.5561005 3.1182221e-05 7.7298004e-20)
(0.55481556 1.8072181e-05 -2.4832766e-19)
(0.55239847 3.2889928e-05 -4.2215485e-18)
(0.99605949 0.0023925139 0)
(0.99640346 0.0034436874 0)
(0.99666981 0.0037540381 0)
(0.99642774 0.003642325 0)
(0.99565747 0.003470764 0)
(0.99440703 0.0032831846 0)
(0.99265509 0.0030956811 0)
(0.99036774 0.0029265065 0)
(0.98753342 0.0027769204 0)
(0.98415347 0.0026499455 0)
(0.98023036 0.0025441752 0)
(0.9757645 0.0024542353 0)
(0.9707587 0.0023798486 0)
(0.96521712 0.0023148055 0)
(0.95914111 0.002255779 0)
(0.95253248 0.0021997717 0)
(0.94538395 0.0021390369 0)
(0.93771383 0.0020612112 0)
(0.92959667 0.0019666952 0)
(0.92109421 0.0018623202 0)
(0.9122788 0.0017494238 0)
(0.90323871 0.0016279194 0)
(0.89408261 0.0014977184 0)
(0.88492403 0.0013590288 0)
(0.8758913 0.0012136398 0)
(0.86712266 0.0010623202 0)
(0.85877946 0.00091276677 0)
(0.85099257 0.00077514976 0)
(0.84383173 0.00065455587 0)
(0.83729876 0.00055609202 0)
(0.83134215 0.00048258925 0)
(0.82587674 0.00043326849 0)
(0.82080005 0.00040487955 0)
(0.81601747 0.00039155149 0)
(0.81145941 0.00038584321 0)
(0.80708145 0.00038153537 0)
(0.80285834 0.000375236 0)
(0.79877665 0.00036585974 0)
(0.79482584 0.00035374462 0)
(0.79099406 0.00033973244 0)
(0.78726775 0.00032496892 0)
(0.78363228 0.00031060745 0)
(0.78007366 0.00029722236 0)
(0.7765815 0.00028487923 0)
(0.77315038 0.00027325049 0)
(0.76977902 0.00026207771 0)
(0.76646747 0.00025127158 0)
(0.76321449 0.0002408286 0)
(0.76001753 0.00023071664 0)
(0.75687451 0.00022093788 0)
(0.75378417 0.00021155671 0)
(0.75074539 0.00020256655 0)
(0.74775702 0.00019392399 0)
(0.74481818 0.00018560349 0)
(0.74192784 0.00017764977 0)
(0.73908455 0.00017006339 0)
(0.73628693 0.00016280788 0)
(0.73353402 0.00015585966 0)
(0.73082478 0.00014924518 0)
(0.72815766 0.00014293432 0)
(0.72553146 0.00013690126 0)
(0.72294519 0.00013114969 0)
(0.72039768 0.00012566388 0)
(0.71788784 0.00012042012 0)
(0.71541469 0.00011541461 0)
(0.71297715 0.00011063884 0)
(0.7105742 0.00010607294 0)
(0.70820492 0.00010171499 0)
(0.70586829 9.7555075e-05 0)
(0.70356338 9.3578589e-05 0)
(0.7012893 8.9783098e-05 0)
(0.69904513 8.6156665e-05 0)
(0.69683001 8.2691714e-05 0)
(0.69464309 7.938123e-05 0)
(0.69248354 7.6215911e-05 0)
(0.69035059 7.3190752e-05 0)
(0.68824345 7.0297689e-05 0)
(0.68616138 6.7530847e-05 0)
(0.68410367 6.4884188e-05 0)
(0.6820696 6.2351919e-05 0)
(0.68005849 5.9928628e-05 0)
(0.6780697 5.7609175e-05 0)
(0.67610257 5.5388739e-05 0)
(0.67415649 5.3262798e-05 0)
(0.67223085 5.1227123e-05 0)
(0.67032504 4.9277826e-05 0)
(0.66843847 4.741126e-05 0)
(0.66657053 4.5624363e-05 0)
(0.66472064 4.3914035e-05 0)
(0.66288806 4.2278932e-05 0)
(0.66107235 4.0715871e-05 0)
(0.65927203 3.9229337e-05 0)
(0.65748777 3.7810862e-05 0)
(0.65571417 3.6493007e-05 0)
(0.65395928 3.5223197e-05 0)
(0.65219615 3.4200894e-05 0)
(0.65047474 3.3171853e-05 6.0038599e-21)
(0.64864924 3.4407346e-05 0)
(0.647117 2.9979707e-05 0)
(0.64430277 3.7899615e-05 0)
(0.99633697 0.002136883 0)
(0.99678375 0.0027554541 0)
(0.99734746 0.0029516939 0)
(0.99777159 0.0030216996 0)
(0.99806553 0.0031145625 0)
(0.99830712 0.0032202118 0)
(0.99851214 0.0033185601 0)
(0.99866994 0.0034032352 0)
(0.99877646 0.0034742176 0)
(0.99883175 0.0035295023 0)
(0.99883082 0.0035665171 0)
(0.99876443 0.0035905894 0)
(0.99862118 0.0035894938 0)
(0.99838722 0.0035779747 0)
(0.99804459 0.0035499973 0)
(0.99756823 0.0035069056 0)
(0.9969291 0.00344806 0)
(0.99605698 0.0033733535 0)
(0.99484516 0.0032831653 0)
(0.99321016 0.0031772124 0)
(0.99106663 0.0030557982 0)
(0.98832347 0.002920254 0)
(0.98488363 0.0027726351 0)
(0.98065563 0.0026162796 0)
(0.97555552 0.0024558202 0)
(0.96952562 0.0022977474 0)
(0.96252401 0.0021326821 0)
(0.95467463 0.0019581821 0)
(0.94614866 0.0017880913 0)
(0.93719555 0.0016250912 0)
(0.92810251 0.0014691097 0)
(0.91915312 0.0013198002 0)
(0.91058738 0.0011760853 0)
(0.90259095 0.0010442728 0)
(0.89524728 0.00093256526 0)
(0.8885293 0.00084301927 0)
(0.88234863 0.00077557429 0)
(0.87659486 0.00072786538 0)
(0.87116386 0.00069527334 0)
(0.8659804 0.00067126898 0)
(0.86100025 0.00064975004 0)
(0.85620015 0.00062703087 0)
(0.85156645 0.00060224822 0)
(0.84708703 0.00057612377 0)
(0.84274881 0.0005495706 0)
(0.83853817 0.00052355243 0)
(0.83444184 0.00049881472 0)
(0.83044786 0.00047563897 0)
(0.82654705 0.00045378919 0)
(0.82273382 0.0004330085 0)
(0.81900453 0.00041326538 0)
(0.8153554 0.00039449543 0)
(0.8117822 0.00037660497 0)
(0.80828117 0.0003595301 0)
(0.80484923 0.00034329771 0)
(0.80148363 0.00032786793 0)
(0.79818186 0.00031316559 0)
(0.79494176 0.00029914462 0)
(0.79176121 0.00028582891 0)
(0.78863788 0.00027316023 0)
(0.78556981 0.00026109022 0)
(0.78255527 0.00024961106 0)
(0.77959241 0.00023868873 0)
(0.7766795 0.00022827851 0)
(0.77381501 0.00021836568 0)
(0.77099733 0.00020892933 0)
(0.76822496 0.00019993213 0)
(0.76549652 0.00019136363 0)
(0.76281057 0.00018320207 0)
(0.76016581 0.00017541936 0)
(0.75756095 0.00016800561 0)
(0.75499475 0.00016093755 0)
(0.75246601 0.00015419859 0)
(0.74997356 0.00014777318 0)
(0.74751628 0.00014164284 0)
(0.74509311 0.00013579559 0)
(0.74270298 0.00013021532 0)
(0.7403449 0.00012488933 0)
(0.73801788 0.00011980492 0)
(0.73572098 0.00011494999 0)
(0.73345328 0.0001103132 0)
(0.73121391 0.00010588383 0)
(0.72900201 0.00010165178 0)
(0.72681674 9.7607628e-05 0)
(0.7246573 9.3742536e-05 0)
(0.72252288 9.0048325e-05 0)
(0.72041272 8.6517437e-05 0)
(0.71832601 8.3143121e-05 0)
(0.71626201 7.9919354e-05 0)
(0.7142198 7.68415e-05 0)
(0.71219876 7.3905991e-05 0)
(0.71019726 7.1112502e-05 0)
(0.7082158 6.8462611e-05 0)
(0.70624878 6.5970879e-05 0)
(0.7043041 6.3642272e-05 0)
(0.70235449 6.1601323e-05 0)
(0.70045009 5.9838429e-05 4.1688887e-21)
(0.69844205 5.8573192e-05 0)
(0.69674383 5.8040345e-05 0)
(0.69366103 6.0570779e-05 -2.8441761e-20)
(0.99646127 0.0020350762 0)
(0.99685898 0.0026539478 0)
(0.99738264 0.0029834613 0)
(0.99780173 0.0031359967 0)
(0.99810634 0.0032297596 0)
(0.99836546 0.0032864259 0)
(0.99860035 0.0032976518 0)
(0.99880686 0.0032859254 0)
(0.99898872 0.0032597147 0)
(0.99915332 0.0032249091 0)
(0.99930326 0.0031847293 0)
(0.99944045 0.0031404987 0)
(0.99956572 0.003097517 0)
(0.99967889 0.0030544596 0)
(0.99978046 0.0030118449 0)
(0.99986937 0.0029697688 0)
(0.9999438 0.0029275066 0)
(1.0000007 0.0028843083 0)
(1.0000346 0.0028401193 0)
(1.0000386 0.00279561 0)
(1.0000047 0.0027514456 0)
(0.99992148 0.0027079186 0)
(0.9997735 0.0026653641 0)
(0.99954052 0.0026240668 0)
(0.99919443 0.0025835474 0)
(0.99869203 0.0025427307 0)
(0.9979728 0.0025005777 0)
(0.99686415 0.0024553157 0)
(0.9952123 0.002402602 0)
(0.99285386 0.002339269 0)
(0.98963319 0.0022644748 0)
(0.9854228 0.002179109 0)
(0.98015465 0.0020883943 0)
(0.97382263 0.001982781 0)
(0.96662028 0.0018590111 0)
(0.95882089 0.0017294235 0)
(0.95073706 0.0015978756 0)
(0.94267771 0.0014668316 0)
(0.93489942 0.0013393416 0)
(0.9275798 0.0012231942 0)
(0.92077358 0.0011239394 0)
(0.91444195 0.0010422386 0)
(0.90850091 0.00097698859 0)
(0.90286041 0.00092523359 0)
(0.89745435 0.00088204311 0)
(0.89224519 0.00084275558 0)
(0.88721483 0.00080457095 0)
(0.88235223 0.00076691316 0)
(0.87764642 0.00072993089 0)
(0.87308531 0.00069409831 0)
(0.86865623 0.00066009984 0)
(0.86434707 0.00062817992 0)
(0.86014785 0.00059813717 0)
(0.85605149 0.00056971801 0)
(0.85205263 0.00054286031 0)
(0.84814615 0.00051745659 0)
(0.84432696 0.00049337344 0)
(0.84059065 0.0004705174 0)
(0.83693331 0.00044888249 0)
(0.83335144 0.00042835903 0)
(0.82984194 0.00040885926 0)
(0.8264019 0.00039035662 0)
(0.82302844 0.00037279141 0)
(0.81971895 0.00035608928 0)
(0.81647112 0.0003402165 0)
(0.81328265 0.00032513384 0)
(0.81015139 0.00031078144 0)
(0.80707537 0.00029713466 0)
(0.80405263 0.00028415573 0)
(0.80108136 0.00027179941 0)
(0.79815985 0.00026004448 0)
(0.79528642 0.00024885355 0)
(0.79245948 0.00023819811 0)
(0.7896775 0.00022805147 0)
(0.78693901 0.00021838371 0)
(0.78424263 0.00020917361 0)
(0.78158697 0.00020039515 0)
(0.77897075 0.00019202684 0)
(0.77639271 0.00018404763 0)
(0.77385163 0.00017643756 0)
(0.77134634 0.00016917786 0)
(0.76887571 0.00016225082 0)
(0.76643867 0.00015563983 0)
(0.76403414 0.00014932932 0)
(0.7616611 0.00014330477 0)
(0.75931855 0.00013755264 0)
(0.75700551 0.00013206055 0)
(0.754721 0.00012681711 0)
(0.75246407 0.00012181273 0)
(0.75023364 0.00011703837 0)
(0.74802891 0.00011249042 0)
(0.74584808 0.00010816094 0)
(0.74369147 0.00010406681 0)
(0.7415534 0.00010019122 0)
(0.73944139 9.6629306e-05 0)
(0.73732842 9.3353162e-05 0)
(0.73526389 9.0812519e-05 3.3410206e-21)
(0.73309815 8.8099241e-05 0)
(0.73125714 9.1527634e-05 0)
(0.72794279 8.679135e-05 2.2978318e-20)
(0.99661003 0.0019750898 0)
(0.99693528 0.0025529858 0)
(0.99739099 0.0028788057 0)
(0.99777581 0.0030233662 0)
(0.99807124 0.0031088022 0)
(0.99832925 0.0031674136 0)
(0.99856662 0.003202231 0)
(0.99877905 0.003220525 0)
(0.99896911 0.0032300075 0)
(0.99914338 0.0032335121 0)
(0.9993054 0.0032310834 0)
(0.99945629 0.0032243463 0)
(0.99959696 0.0032118645 0)
(0.99972834 0.0031943927 0)
(0.99985188 0.0031715676 0)
(0.99996829 0.0031430698 0)
(1.0000779 0.0031082746 0)
(1.0001799 0.0030664251 0)
(1.0002728 0.0030176111 0)
(1.0003554 0.0029625112 0)
(1.0004267 0.0029019692 0)
(1.0004853 0.0028372947 0)
(1.0005289 0.0027695709 0)
(1.0005555 0.0027000917 0)
(1.0005627 0.0026311166 0)
(1.0005486 0.0025653589 0)
(1.0005118 0.0025051907 0)
(1.0004462 0.0024524026 0)
(1.0003433 0.002408847 0)
(1.0001896 0.0023752138 0)
(0.99996496 0.0023504305 0)
(0.99963788 0.0023319606 0)
(0.99915585 0.002314289 0)
(0.99843707 0.0022934375 0)
(0.99728212 0.0022657403 0)
(0.99550061 0.0022260689 0)
(0.99291459 0.0021725005 0)
(0.98937838 0.0021067161 0)
(0.98480912 0.0020297565 0)
(0.97923715 0.0019348603 0)
(0.97287301 0.0018244659 0)
(0.96599357 0.0017079795 0)
(0.9589019 0.0015891334 0)
(0.95187198 0.0014717382 0)
(0.94510673 0.0013629893 0)
(0.93868943 0.0012672135 0)
(0.93261541 0.0011849595 0)
(0.92683198 0.0011156518 0)
(0.9212811 0.0010566975 0)
(0.91592275 0.001004221 0)
(0.91073622 0.00095529453 0)
(0.90571097 0.00090866484 0)
(0.90083867 0.00086387525 0)
(0.89611003 0.00082097781 0)
(0.89151458 0.00078038763 0)
(0.88704188 0.00074221928 0)
(0.88268311 0.00070626837 0)
(0.87843167 0.00067231655 0)
(0.87428204 0.00064029282 0)
(0.87022896 0.00061002118 0)
(0.86626754 0.0005813649 0)
(0.86239338 0.00055425985 0)
(0.85860239 0.00052859846 0)
(0.85489097 0.0005042619 0)
(0.85125582 0.00048118746 0)
(0.84769375 0.00045930784 0)
(0.84420183 0.00043853128 0)
(0.84077741 0.00041881102 0)
(0.8374179 0.00040008686 0)
(0.83412091 0.00038229087 0)
(0.8308842 0.00036538524 0)
(0.82770561 0.0003493141 0)
(0.82458312 0.00033403302 0)
(0.82151477 0.0003195006 0)
(0.81849872 0.00030567236 0)
(0.8155332 0.00029251481 0)
(0.81261651 0.0002799894 0)
(0.80974704 0.00026806341 0)
(0.80692321 0.00025670522 0)
(0.80414353 0.00024588487 0)
(0.80140656 0.00023557431 0)
(0.7987109 0.00022574705 0)
(0.79605521 0.00021637835 0)
(0.7934382 0.00020744498 0)
(0.79085862 0.00019892531 0)
(0.78831524 0.00019079916 0)
(0.78580687 0.00018304809 0)
(0.78333233 0.00017565493 0)
(0.78089048 0.00016860556 0)
(0.77848005 0.00016188542 0)
(0.77610006 0.00015549037 0)
(0.77374856 0.00014940316 0)
(0.77142564 0.0001436575 0)
(0.76912557 0.00013819943 0)
(0.76685549 0.00013322696 0)
(0.76458875 0.00012852474 0)
(0.76237383 0.0001251316 2.8874089e-21)
(0.76006071 0.00012050234 3.7335367e-20)
(0.75808739 0.00012892961 0)
(0.75455843 0.00011457434 0)
(0.99675601 0.0019269266 0)
(0.99702079 0.0024507057 0)
(0.99741273 0.0027706884 0)
(0.99776583 0.0029335594 0)
(0.99805217 0.0030376539 0)
(0.99830607 0.003112609 0)
(0.99854032 0.0031585132 0)
(0.99875137 0.0031832961 0)
(0.99894141 0.0031950359 0)
(0.99911599 0.0031969801 0)
(0.99927832 0.0031908534 0)
(0.99943018 0.0031782761 0)
(0.99957278 0.00315922 0)
(0.99970715 0.0031355742 0)
(0.99983465 0.0031072736 0)
(0.99995588 0.0030742962 0)
(1.0000711 0.0030363724 0)
(1.0001798 0.0029930713 0)
(1.0002812 0.0029447077 0)
(1.0003743 0.0028921112 0)
(1.0004582 0.002836011 0)
(1.0005322 0.0027772112 0)
(1.0005961 0.0027168089 0)
(1.0006491 0.0026562669 0)
(1.0006908 0.0025972554 0)
(1.0007217 0.0025422435 0)
(1.0007425 0.0024924183 0)
(1.0007538 0.002448138 0)
(1.0007562 0.0024102477 0)
(1.0007505 0.0023781797 0)
(1.000736 0.0023504805 0)
(1.0007106 0.0023253885 0)
(1.0006705 0.0023025141 0)
(1.0006107 0.0022817919 0)
(1.0005193 0.0022629576 0)
(1.0003773 0.0022465022 0)
(1.0001595 0.0022325267 0)
(0.99982777 0.0022197326 0)
(0.99932384 0.0022047556 0)
(0.99852968 0.0021848949 0)
(0.99724907 0.0021565913 0)
(0.99529662 0.0021159875 0)
(0.99250842 0.0020629272 0)
(0.9887732 0.001997161 0)
(0.98408952 0.001913552 0)
(0.97862903 0.0018154599 0)
(0.97263086 0.0017111207 0)
(0.96636723 0.0016035704 0)
(0.9600901 0.0014988727 0)
(0.95396607 0.0014026634 0)
(0.9480638 0.0013160368 0)
(0.9423825 0.00123977 0)
(0.93689273 0.0011728967 0)
(0.93156719 0.0011128336 0)
(0.92639069 0.001057279 0)
(0.92135639 0.0010049414 0)
(0.91645963 0.00095516377 0)
(0.91169448 0.0009078325 0)
(0.90705335 0.0008631521 0)
(0.90252844 0.00082104391 0)
(0.89811333 0.00078131122 0)
(0.89380282 0.00074382415 0)
(0.88959208 0.00070841762 0)
(0.88547649 0.00067492541 0)
(0.88145178 0.00064324692 0)
(0.87751394 0.00061327322 0)
(0.87365936 0.00058486913 0)
(0.86988471 0.00055795771 0)
(0.86618679 0.00053244898 0)
(0.86256265 0.00050824494 0)
(0.85900953 0.00048528486 0)
(0.8555248 0.00046348904 0)
(0.85210598 0.00044279246 0)
(0.84875072 0.00042313479 0)
(0.84545678 0.00040445321 0)
(0.84222203 0.0003866986 0)
(0.83904443 0.00036981684 0)
(0.83592204 0.0003537612 0)
(0.83285299 0.00033848691 0)
(0.82983549 0.00032395173 0)
(0.82686782 0.00031011612 0)
(0.82394833 0.0002969429 0)
(0.82107541 0.00028439729 0)
(0.81824754 0.00027244673 0)
(0.81546323 0.00026106092 0)
(0.81272103 0.00025021153 0)
(0.81001955 0.00023987275 0)
(0.80735738 0.00023002033 0)
(0.80473321 0.00022063448 0)
(0.80214555 0.000211694 0)
(0.79959326 0.00020319335 0)
(0.79707422 0.00019510472 0)
(0.7945883 0.00018747882 0)
(0.79212975 0.00018022136 0)
(0.78970527 0.00017363942 0)
(0.78728862 0.00016731075 0)
(0.78492746 0.00016293377 0)
(0.78247115 0.0001558761 0)
(0.78037041 0.00017030846 5.440508e-20)
(0.77663442 0.00014436657 0)
(0.99689432 0.0018862478 0)
(0.99711514 0.0023603369 0)
(0.99745186 0.0026723685 0)
(0.99777297 0.0028495213 0)
(0.99804654 0.0029663633 0)
(0.9982933 0.0030499235 0)
(0.99852244 0.003102738 0)
(0.9987308 0.0031333191 0)
(0.99891978 0.0031497962 0)
(0.99909393 0.0031560829 0)
(0.99925612 0.0031538864 0)
(0.99940805 0.0031450506 0)
(0.999551 0.003130034 0)
(0.99968602 0.0031102465 0)
(0.9998143 0.0030856536 0)
(0.99993647 0.0030561922 0)
(1.0000527 0.0030216123 0)
(1.0001628 0.0029815539 0)
(1.0002658 0.0029362342 0)
(1.0003611 0.0028863339 0)
(1.0004481 0.0028325777 0)
(1.0005263 0.0027758537 0)
(1.0005953 0.0027172344 0)
(1.0006546 0.0026580724 0)
(1.0007042 0.0026000919 0)
(1.0007444 0.0025452408 0)
(1.0007768 0.0024946639 0)
(1.0008025 0.0024492845 0)
(1.000823 0.0024100921 0)
(1.0008401 0.0023769663 0)
(1.0008549 0.0023489284 0)
(1.0008676 0.0023248123 0)
(1.0008778 0.0023040428 0)
(1.000885 0.0022854344 0)
(1.0008873 0.0022680484 0)
(1.0008825 0.0022518537 0)
(1.0008674 0.0022362866 0)
(1.0008381 0.0022207547 0)
(1.000789 0.0022053107 0)
(1.0007112 0.0021898985 0)
(1.000586 0.0021743449 0)
(1.0003873 0.002158893 0)
(1.0000767 0.0021431423 0)
(0.9995971 0.0021254037 0)
(0.99883452 0.0021039711 0)
(0.99760699 0.0020756566 0)
(0.99573994 0.0020367831 0)
(0.99308326 0.0019878966 0)
(0.98953139 0.0019229939 0)
(0.98515313 0.00184091 0)
(0.98010875 0.0017503909 0)
(0.97462541 0.0016545763 0)
(0.96894693 0.0015587554 0)
(0.96326355 0.0014679365 0)
(0.95768118 0.0013836431 0)
(0.9522347 0.0013071876 0)
(0.94692215 0.0012383129 0)
(0.94173359 0.0011754586 0)
(0.93666387 0.0011170453 0)
(0.93171228 0.0010619853 0)
(0.92687836 0.0010097373 0)
(0.92215938 0.00096026508 0)
(0.91755067 0.00091353351 0)
(0.91304752 0.00086938912 0)
(0.90864591 0.00082769076 0)
(0.90434209 0.00078828604 0)
(0.9001324 0.00075100054 0)
(0.89601326 0.00071572657 0)
(0.89198121 0.00068233885 0)
(0.88803306 0.00065070316 0)
(0.88416578 0.0006207311 0)
(0.88037645 0.00059231466 0)
(0.87666228 0.00056536346 0)
(0.87302064 0.00053979387 0)
(0.86944902 0.00051552096 0)
(0.86594499 0.0004924766 0)
(0.86250625 0.00047058793 0)
(0.85913059 0.00044979139 0)
(0.85581588 0.00043002648 0)
(0.85256009 0.00041123632 0)
(0.84936124 0.00039336767 0)
(0.84621745 0.0003763706 0)
(0.84312689 0.00036019844 0)
(0.84008781 0.00034480753 0)
(0.8370985 0.00033015723 0)
(0.83415731 0.00031620959 0)
(0.83126263 0.00030292993 0)
(0.82841287 0.00029028566 0)
(0.82560652 0.00027825005 0)
(0.82284193 0.00026679411 0)
(0.82011773 0.00025590991 0)
(0.81743169 0.00024555796 0)
(0.81478346 0.00023580557 0)
(0.81216721 0.00022651603 0)
(0.80958931 0.0002181092 0)
(0.80702383 0.00020994156 0)
(0.80451777 0.00020442417 0)
(0.80191949 0.0001945666 0)
(0.79969331 0.0002158271 5.0947532e-20)
(0.79575315 0.00017654569 0)
(0.99703119 0.0018526655 0)
(0.9972167 0.0022822512 0)
(0.99750586 0.0025832728 0)
(0.99779546 0.0027685104 0)
(0.99805338 0.0028943493 0)
(0.99829058 0.0029852235 0)
(0.99851297 0.0030453407 0)
(0.99871741 0.0030825719 0)
(0.99890435 0.0031046665 0)
(0.99907736 0.0031156588 0)
(0.9992389 0.00311752 0)
(0.99939048 0.0031121088 0)
(0.99953329 0.0031001286 0)
(0.99966832 0.0030827988 0)
(0.99979668 0.003060324 0)
(0.99991897 0.003032729 0)
(1.0000354 0.0029998828 0)
(1.0001456 0.0029615498 0)
(1.0002491 0.0029179541 0)
(1.000345 0.0028697577 0)
(1.000433 0.0028177109 0)
(1.0005127 0.0027627004 0)
(1.0005835 0.0027057719 0)
(1.0006452 0.0026482384 0)
(1.0006978 0.0025917302 0)
(1.0007418 0.0025381603 0)
(1.0007787 0.002488802 0)
(1.0008096 0.0024445571 0)
(1.0008361 0.0024063011 0)
(1.0008601 0.0023738811 0)
(1.0008831 0.0023464175 0)
(1.0009057 0.002322808 0)
(1.000928 0.0023022365 0)
(1.0009499 0.0022835744 0)
(1.0009708 0.0022661285 0)
(1.0009901 0.0022499009 0)
(1.0010071 0.0022345101 0)
(1.0010211 0.0022197462 0)
(1.001031 0.0022055323 0)
(1.0010353 0.0021913019 0)
(1.0010313 0.0021767671 0)
(1.0010152 0.0021620295 0)
(1.0009819 0.0021470019 0)
(1.0009246 0.002131826 0)
(1.0008327 0.0021163383 0)
(1.0006839 0.0021002116 0)
(1.0004475 0.0020835258 0)
(1.0000765 0.0020653643 0)
(0.99950369 0.0020452825 0)
(0.99857129 0.0020213258 0)
(0.99711774 0.0019893036 0)
(0.99498813 0.0019483629 0)
(0.99205419 0.0018930335 0)
(0.98833046 0.0018218631 0)
(0.98392642 0.0017416477 0)
(0.97902978 0.0016556674 0)
(0.97386025 0.0015687655 0)
(0.96859733 0.0014847172 0)
(0.96335261 0.0014052826 0)
(0.95817516 0.001331815 0)
(0.95307944 0.0012642274 0)
(0.94806962 0.0012016079 0)
(0.94315024 0.0011428815 0)
(0.9383264 0.0010872906 0)
(0.93360079 0.0010345764 0)
(0.92897308 0.00098465836 0)
(0.9244415 0.0009374079 0)
(0.92000412 0.0008927089 0)
(0.91565882 0.00085040921 0)
(0.9114033 0.00081034955 0)
(0.90723506 0.00077242052 0)
(0.90315154 0.00073648674 0)
(0.89915021 0.00070243195 0)
(0.89522857 0.00067014812 0)
(0.89138415 0.00063952646 0)
(0.88761453 0.00061047765 0)
(0.88391737 0.00058290775 0)
(0.88029035 0.00055673421 0)
(0.87673126 0.00053187872 0)
(0.87323792 0.00050826773 0)
(0.86980824 0.00048583243 0)
(0.86644018 0.00046450835 0)
(0.86313175 0.00044423524 0)
(0.85988103 0.00042495672 0)
(0.85668616 0.00040662027 0)
(0.85354532 0.00038917683 0)
(0.85045673 0.00037258154 0)
(0.84741865 0.00035679212 0)
(0.84442937 0.00034177371 0)
(0.84148711 0.00032748837 0)
(0.83859033 0.00031392476 0)
(0.83573664 0.00030103062 0)
(0.83292552 0.00028888925 0)
(0.8301511 0.0002773199 0)
(0.82741937 0.00026685767 0)
(0.8247047 0.00025662575 0)
(0.82205362 0.00024979766 0)
(0.8193131 0.00023678699 -1.5209135e-20)
(0.81696184 0.00026563549 0)
(0.81281779 0.00021132261 -8.2806551e-21)
(0.99716563 0.0018240994 0)
(0.99732226 0.0022138364 0)
(0.99757079 0.0025020218 0)
(0.99783077 0.0026914137 0)
(0.99807177 0.0028240049 0)
(0.99829769 0.002921177 0)
(0.99851179 0.002987911 0)
(0.99871089 0.0030313164 0)
(0.99889462 0.003058696 0)
(0.9990656 0.0030741557 0)
(0.99922582 0.0030798563 0)
(0.99937654 0.0030776921 0)
(0.99951881 0.0030685906 0)
(0.99965353 0.0030537079 0)
(0.99978166 0.0030334205 0)
(0.99990376 0.0030078283 0)
(1.00002 0.0029768929 0)
(1.0001302 0.0029404839 0)
(1.0002337 0.0028988405 0)
(1.0003298 0.0028525987 0)
(1.0004183 0.0028025008 0)
(1.0004986 0.0027494144 0)
(1.0005703 0.0026943698 0)
(1.0006334 0.0026386505 0)
(1.0006876 0.0025838219 0)
(1.0007337 0.0025316987 0)
(1.0007729 0.0024835454 0)
(1.0008065 0.0024402208 0)
(1.0008361 0.0024025393 0)
(1.0008634 0.0023704446 0)
(1.0008899 0.0023431474 0)
(1.0009164 0.0023195924 0)
(1.0009432 0.0022990046 0)
(1.0009704 0.0022804026 0)
(1.0009976 0.0022631283 0)
(1.0010244 0.0022471342 0)
(1.0010508 0.0022320937 0)
(1.0010764 0.0022177456 0)
(1.001101 0.0022038639 0)
(1.001124 0.0021899302 0)
(1.0011446 0.0021757444 0)
(1.0011616 0.0021614092 0)
(1.001174 0.0021469264 0)
(1.0011802 0.0021324131 0)
(1.0011787 0.0021176685 0)
(1.0011657 0.0021026733 0)
(1.0011365 0.0020875727 0)
(1.0010841 0.0020725706 0)
(1.0010003 0.0020574862 0)
(1.0008654 0.0020416674 0)
(1.0006501 0.0020249292 0)
(1.000311 0.0020067261 0)
(0.99978674 0.0019869656 0)
(0.99893982 0.0019640739 0)
(0.99762153 0.0019345224 0)
(0.99568211 0.0018961192 0)
(0.99300403 0.0018441641 0)
(0.98959242 0.0017788419 0)
(0.985538 0.0017051109 0)
(0.98101036 0.0016265714 0)
(0.97620301 0.001547242 0)
(0.97127302 0.0014694877 0)
(0.96631825 0.0013953724 0)
(0.96138675 0.0013259492 0)
(0.95650003 0.0012611997 0)
(0.95167143 0.0012004005 0)
(0.94691224 0.0011428452 0)
(0.94223067 0.0010882063 0)
(0.93763097 0.0010363411 0)
(0.93311489 0.00098713762 0)
(0.928683 0.00094050131 0)
(0.92433518 0.00089628709 0)
(0.9200707 0.00085436981 0)
(0.91588833 0.00081462939 0)
(0.91178655 0.00077693963 0)
(0.90776368 0.00074119381 0)
(0.90381789 0.00070727921 0)
(0.89994725 0.00067509519 0)
(0.89614981 0.00064454559 0)
(0.89242358 0.00061553972 0)
(0.88876656 0.00058799252 0)
(0.88517678 0.00056182409 0)
(0.88165226 0.00053695962 0)
(0.87819107 0.00051332896 0)
(0.87479128 0.00049086667 0)
(0.87145103 0.00046951149 0)
(0.86816844 0.00044920726 0)
(0.86494166 0.00042990094 0)
(0.86176891 0.00041154853 0)
(0.85864827 0.00039410208 0)
(0.85557809 0.00037754588 0)
(0.85255587 0.00036181401 0)
(0.84958093 0.00034700497 0)
(0.84664736 0.00033289281 0)
(0.84376087 0.0003201295 0)
(0.84089605 0.00030759446 0)
(0.83809911 0.00029927181 1.1650892e-21)
(0.83521532 0.00028273958 0)
(0.83273848 0.00031992254 4.8109686e-20)
(0.82838947 0.00024888646 0)
(0.99729434 0.0017991575 0)
(0.99742792 0.0021534198 0)
(0.99764232 0.0024278407 0)
(0.99787544 0.0026186064 0)
(0.99809953 0.0027560522 0)
(0.99831345 0.002858318 0)
(0.99851828 0.0029307104 0)
(0.99871091 0.0029796583 0)
(0.99889038 0.0030119539 0)
(0.99905843 0.003031692 0)
(0.99921661 0.0030411491 0)
(0.99936591 0.0030422391 0)
(0.99950718 0.0030360567 0)
(0.99964121 0.0030237203 0)
(0.99976882 0.00300572 0)
(0.99989049 0.0029822317 0)
(1.0000064 0.0029533002 0)
(1.0001163 0.0029188896 0)
(1.0002196 0.0028792585 0)
(1.0003158 0.0028350181 0)
(1.0004044 0.0027868993 0)
(1.0004852 0.0027357562 0)
(1.0005576 0.0026826055 0)
(1.0006215 0.0026286981 0)
(1.0006769 0.0025755355 0)
(1.0007245 0.0025248278 0)
(1.0007653 0.0024778231 0)
(1.0008007 0.0024353777 0)
(1.0008322 0.002398266 0)
(1.0008614 0.0023664893 0)
(1.00089 0.0023393467 0)
(1.0009186 0.00231587 0)
(1.0009476 0.0022953211 0)
(1.0009772 0.0022767967 0)
(1.0010072 0.0022596467 0)
(1.0010373 0.0022437697 0)
(1.0010675 0.002228856 0)
(1.0010977 0.0022146244 0)
(1.0011277 0.0022008506 0)
(1.0011574 0.0021870913 0)
(1.0011861 0.0021731569 0)
(1.0012135 0.0021591342 0)
(1.001239 0.0021450648 0)
(1.0012621 0.0021310092 0)
(1.0012825 0.0021167798 0)
(1.0012991 0.0021023716 0)
(1.0013105 0.0020879095 0)
(1.0013154 0.0020735542 0)
(1.0013119 0.0020590271 0)
(1.0012968 0.0020441678 0)
(1.0012648 0.0020292724 0)
(1.0012085 0.0020145242 0)
(1.0011188 0.0019997229 0)
(1.0009755 0.0019842062 0)
(1.000748 0.0019676018 0)
(1.0003917 0.0019494997 0)
(0.99983477 0.0019296716 0)
(0.99894687 0.0019063385 0)
(0.99758849 0.0018768338 0)
(0.99561562 0.001837031 0)
(0.99295165 0.0017843802 0)
(0.98960963 0.0017216615 0)
(0.98569153 0.0016520779 0)
(0.98136267 0.0015790924 0)
(0.97678994 0.0015053346 0)
(0.97210064 0.0014331081 0)
(0.96737122 0.0013641101 0)
(0.96264207 0.0012990273 0)
(0.95793744 0.0012375763 0)
(0.95327554 0.0011792494 0)
(0.94866981 0.0011237613 0)
(0.94412885 0.0010709572 0)
(0.93965786 0.0010207566 0)
(0.93526002 0.00097306694 0)
(0.93093725 0.00092777061 0)
(0.92669043 0.000884765 0)
(0.92251963 0.00084393479 0)
(0.91842442 0.00080517198 0)
(0.91440396 0.00076836966 0)
(0.91045712 0.00073342481 0)
(0.90658258 0.00070023913 0)
(0.90277884 0.00066871906 0)
(0.89904433 0.00063877625 0)
(0.89537736 0.00061032729 0)
(0.89177622 0.00058329392 0)
(0.88823916 0.00055760255 0)
(0.8847644 0.00053318543 0)
(0.88135014 0.00050997827 0)
(0.87799459 0.00048792732 0)
(0.87469582 0.00046697409 0)
(0.87145215 0.00044709775 0)
(0.86826102 0.00042821813 0)
(0.86512168 0.00041044817 0)
(0.8620282 0.00039351605 0)
(0.85898608 0.00037819166 0)
(0.8559701 0.00036310148 0)
(0.85302634 0.00035308702 0)
(0.84999805 0.00033264984 0)
(0.84739481 0.0003789216 0)
(0.84283915 0.00028943905 0)
(0.99741586 0.0017769673 0)
(0.99753103 0.0020997237 0)
(0.99771694 0.0023599624 0)
(0.99792613 0.0025498782 0)
(0.998134 0.0026904989 0)
(0.99833594 0.0027967632 0)
(0.99853122 0.0028739752 0)
(0.99871678 0.0029279018 0)
(0.99889124 0.0029647633 0)
(0.99905564 0.0029885734 0)
(0.99921112 0.0030016744 0)
(0.99935843 0.0030059809 0)
(0.99949823 0.003002704 0)
(0.99963119 0.0029929384 0)
(0.99975794 0.0029772583 0)
(0.99987892 0.0029559156 0)
(0.99999422 0.0029290303 0)
(1.0001036 0.0028966507 0)
(1.0002067 0.0028590579 0)
(1.0003028 0.0028168434 0)
(1.0003915 0.0027707271 0)
(1.0004725 0.0027215503 0)
(1.0005454 0.0026703128 0)
(1.00061 0.0026182314 0)
(1.0006664 0.0025667454 0)
(1.0007151 0.0025174701 0)
(1.0007573 0.0024716353 0)
(1.0007941 0.0024300968 0)
(1.000827 0.0023935907 0)
(1.0008577 0.0023621632 0)
(1.0008877 0.0023352016 0)
(1.0009176 0.002311823 0)
(1.0009479 0.0022913196 0)
(1.0009789 0.0022728502 0)
(1.0010104 0.0022557832 0)
(1.0010422 0.0022399806 0)