/*--------------------------------*- C++ -*----------------------------------*\
  =========                 |
  \\      /  F ield         | OpenFOAM: The Open Source CFD Toolbox
   \\    /   O peration     | Website:  https://openfoam.org
    \\  /    A nd           | Version:  12
     \\/     M anipulation  |
\*---------------------------------------------------------------------------*/
FoamFile
{
    format      ascii;
    class       volScalarField;
    location    "700";
    object      k;
}
// * * * * * * * * * * * * * * * * * * * * * * * * * * * * * * * * * * * * * //

dimensions      [0 2 -2 0 0 0 0];

internalField   nonuniform List<scalar> 
7480
(
2.5767556e-07
2.5144899e-07
2.4540512e-07
2.4026337e-07
2.3663781e-07
2.3501178e-07
2.3596444e-07
2.3863916e-07
2.4349336e-07
2.4938014e-07
2.6123912e-07
2.5540196e-07
5.4445833e-05
0.0014637029
0.0037592719
0.005828005
0.007254572
0.0080448226
0.0084667856
0.0084516807
0.0083613976
0.0081940193
0.0079883555
0.0077712229
0.0075516234
0.0073340157
0.0071224717
0.0069225018
0.0067395067
0.006570863
0.0064163248
0.0062764189
0.0061513464
0.0060406814
0.0059434184
0.0058582223
0.0057835048
0.0057177835
0.0056600562
0.0056095695
0.0055653291
0.0055261661
0.0054910539
0.0054589754
0.0054294904
0.0054013039
0.0053741525
0.0053475962
0.0053212044
0.005294695
0.0052677614
0.0052400391
0.0052112922
0.0051815139
0.0051508758
0.0051196112
0.005087945
0.0050561051
0.005024294
0.0049926437
0.0049612175
0.0049300473
0.0048991748
0.0048686718
0.0048386082
0.0048090209
0.0047799456
0.0047514079
0.0047233766
0.0046957749
0.0046685459
0.0046416814
0.0046151944
0.0045890913
0.004563392
0.0045381193
0.0045132482
0.0044887236
0.0044645109
0.0044406096
0.0044170302
0.0043937913
0.0043709069
0.0043483516
0.0043260809
0.0043040805
0.0042823494
0.004260902
0.0042397531
0.0042188783
0.0041982422
0.0041778338
0.0041576595
0.0041377078
0.0041180014
0.0040983505
0.0040791415
0.0040588402
0.004041663
0.004010279
2.58793e-07
2.5722619e-07
2.5560562e-07
2.5392479e-07
2.5217923e-07
2.5037136e-07
2.4850832e-07
2.4662005e-07
2.446167e-07
2.4292029e-07
2.397227e-07
2.6149839e-07
1.5008462e-08
1.3672873e-05
8.4769258e-05
0.00028309745
0.00060077864
0.00096821657
0.0013222357
0.0016039341
0.0018119397
0.0019677097
0.0020990583
0.0022247835
0.0023815046
0.0025548689
0.0027520358
0.0030001951
0.0032669409
0.0035413618
0.0038140572
0.0040763348
0.0043204727
0.0045405964
0.0047330509
0.004896891
0.0050317593
0.0051411644
0.005231974
0.005307995
0.0053686098
0.005414391
0.0054472855
0.005467814
0.0054799906
0.0054781616
0.0054708125
0.0054571439
0.0054380918
0.0054145917
0.0053872753
0.005356626
0.0053237853
0.0052901532
0.0052568586
0.0052245059
0.0051933829
0.0051636374
0.0051348591
0.0051067677
0.0050793035
0.0050525017
0.0050263705
0.0050009025
0.0049760928
0.00495191
0.0049283357
0.0049051189
0.0048818961
0.004858526
0.0048351011
0.0048117791
0.0047886811
0.004765875
0.0047434276
0.0047212751
0.0046992161
0.0046771425
0.0046551082
0.0046332335
0.0046116015
0.0045902833
0.0045692232
0.0045482767
0.0045273842
0.0045065998
0.0044860021
0.0044656734
0.0044455768
0.0044256075
0.0044057284
0.0043859782
0.0043664294
0.0043470916
0.0043278957
0.004308783
0.0042898001
0.004270568
0.0042534661
0.0042233097
2.5908476e-07
2.5754018e-07
2.5597245e-07
2.5437239e-07
2.5273773e-07
2.5106817e-07
2.49362e-07
2.4762548e-07
2.4583089e-07
2.4408407e-07
2.4191827e-07
2.4139601e-07
2.3376641e-07
2.512221e-07
6.1714962e-07
2.9120772e-06
1.1562758e-05
3.0136206e-05
6.054351e-05
0.00010198705
0.00015165903
0.00020609821
0.00026259094
0.00031909719
0.00037810658
0.00044150865
0.00051135451
0.00059418788
0.00069356263
0.00081642668
0.00097688593
0.0011593613
0.0013578536
0.0015706225
0.0017963987
0.002033138
0.002279156
0.0025332429
0.0027859331
0.0030295941
0.0032580738
0.0034643109
0.0036443807
0.0038001794
0.0039354674
0.0040541195
0.0041555585
0.0042395701
0.004307534
0.0043616288
0.0043997451
0.0044265413
0.0044458173
0.0044597224
0.0044692832
0.0044751286
0.0044781602
0.0044792899
0.0044790426
0.0044775519
0.0044750015
0.0044715845
0.0044674332
0.0044627139
0.00445756
0.004452012
0.0044460865
0.0044394484
0.0044318411
0.0044233734
0.0044142585
0.0044046496
0.004394653
0.0043843522
0.0043738512
0.0043630278
0.0043516597
0.0043397483
0.0043274492
0.0043149153
0.0043022328
0.0042894977
0.0042766058
0.0042634045
0.004249892
0.0042361812
0.0042223767
0.0042085846
0.0041947302
0.0041806978
0.0041664878
0.0041521793
0.0041378744
0.0041235779
0.0041091929
0.0040947216
0.0040801259
0.0040654547
0.0040520277
0.0040284682
2.6424032e-07
2.6265356e-07
2.6104178e-07
2.5939705e-07
2.5771764e-07
2.5600318e-07
2.5425363e-07
2.5246911e-07
2.5064966e-07
2.4879539e-07
2.469076e-07
2.4498207e-07
2.4302159e-07
2.4116891e-07
2.385522e-07
2.3977891e-07
2.5465917e-07
3.3326456e-07
6.5587678e-07
1.4917395e-06
3.0762788e-06
5.5583373e-06
9.0292627e-06
1.3555658e-05
1.9244937e-05
2.6363726e-05
3.5247819e-05
4.644601e-05
6.0700341e-05
7.8976422e-05
0.0001029917
0.00013472908
0.00017724344
0.00023289898
0.00030441203
0.00039529225
0.00051109099
0.00065831102
0.00082620974
0.0010118399
0.0012181018
0.0014460698
0.0016916007
0.0019404952
0.0021845051
0.0024178938
0.0026349635
0.0028300144
0.0030037978
0.0031569133
0.0032906067
0.0034085542
0.0035087436
0.0035930268
0.0036636828
0.0037230104
0.0037737741
0.0038175889
0.0038539083
0.0038845367
0.0039107954
0.0039336757
0.0039539168
0.0039719993
0.0039880968
0.0040023098
0.0040147566
0.0040255043
0.0040345465
0.0040420118
0.0040480601
0.004052825
0.0040564479
0.004059057
0.0040607773
0.0040614695
0.0040610031
0.0040595175
0.0040572086
0.0040542154
0.0040506204
0.004046542
0.0040418344
0.0040363876
0.0040302852
0.0040236805
0.0040166803
0.0040094006
0.0040017248
0.0039935592
0.0039849585
0.0039760331
0.0039668989
0.0039575417
0.0039478552
0.0039378921
0.0039275941
0.0039172325
0.0039074181
0.0038900053
2.6816117e-07
2.6655434e-07
2.6492315e-07
2.6325897e-07
2.6155979e-07
2.5982517e-07
2.5805508e-07
2.5624957e-07
2.5440882e-07
2.5253259e-07
2.5062228e-07
2.486731e-07
2.4670036e-07
2.4466371e-07
2.4257712e-07
2.4046728e-07
2.3839399e-07
2.3635306e-07
2.3453767e-07
2.3359334e-07
2.3500587e-07
2.4170934e-07
2.5897187e-07
2.9553275e-07
3.6454982e-07
4.8432343e-07
6.7885843e-07
9.8034779e-07
1.4339831e-06
2.1033206e-06
3.0868813e-06
4.536279e-06
6.6901365e-06
9.9410293e-06
1.4899441e-05
2.2457107e-05
3.4024138e-05
5.1412658e-05
7.8309843e-05
0.0001181928
0.00017459399
0.00025241266
0.00035858075
0.00050114773
0.00066911913
0.00085609636
0.0010627016
0.0012895977
0.0015225361
0.0017537352
0.0019762066
0.0021845469
0.0023730351
0.0025424218
0.0026935809
0.0028282242
0.0029500486
0.0030568518
0.0031490788
0.0032287557
0.0032983991
0.0033602623
0.0034156924
0.0034652713
0.0035094884
0.0035490946
0.003584898
0.0036167217
0.0036448884
0.0036700741
0.0036926547
0.003712936
0.0037311657
0.0037475104
0.0037620918
0.0037749691
0.0037861833
0.0037958706
0.0038041879
0.0038112601
0.0038171932
0.0038221269
0.0038259221
0.0038285662
0.0038302132
0.00383102
0.0038310835
0.0038305241
0.0038291955
0.0038270641
0.0038242421
0.0038208551
0.0038170201
0.0038126974
0.0038077924
0.0038024103
0.0037964934
0.003790454
0.0037842995
0.0037729784
2.6853672e-07
2.6693405e-07
2.6530801e-07
2.6364954e-07
2.6195651e-07
2.6022842e-07
2.5846525e-07
2.5666707e-07
2.5483405e-07
2.5296641e-07
2.5106447e-07
2.4912863e-07
2.4715998e-07
2.4515878e-07
2.4312774e-07
2.4106337e-07
2.3893631e-07
2.367701e-07
2.3458642e-07
2.3239543e-07
2.3019581e-07
2.2799708e-07
2.2579677e-07
2.2361447e-07
2.2149163e-07
2.1949874e-07
2.1775889e-07
2.1648527e-07
2.1601611e-07
2.1691411e-07
2.2016707e-07
2.2757112e-07
2.4256937e-07
2.7184933e-07
3.2877645e-07
4.3860711e-07
6.5220044e-07
1.0559412e-06
1.8265161e-06
3.2717675e-06
5.9031805e-06
1.0596037e-05
1.8987411e-05
3.34201e-05
5.9038386e-05
0.00010059597
0.00016257944
0.00025145647
0.00037506461
0.00052843136
0.0007046976
0.00089823661
0.0011107313
0.0013296923
0.0015447442
0.0017495188
0.001940411
0.002114056
0.0022728932
0.0024176298
0.0025494259
0.0026688866
0.0027748975
0.0028690278
0.0029531541
0.003029214
0.0030983251
0.0031604781
0.0032159055
0.0032655834
0.0033105025
0.003351311
0.0033883605
0.0034219539
0.0034524679
0.0034798745
0.0035044324
0.0035266141
0.0035466606
0.0035647579
0.0035810739
0.0035957578
0.0036088479
0.003620397
0.0036305447
0.0036394237
0.0036471328
0.0036538001
0.0036593052
0.0036636979
0.0036671215
0.0036696973
0.0036715358
0.0036725834
0.0036727851
0.0036722948
0.0036710566
0.0036695801
0.00366731
0.003662358
2.6802635e-07
2.6642744e-07
2.6480517e-07
2.6315057e-07
2.6146148e-07
2.5973746e-07
2.5797845e-07
2.5618455e-07
2.5435592e-07
2.5249278e-07
2.5059546e-07
2.4866442e-07
2.4670043e-07
2.447047e-07
2.4267822e-07
2.4062156e-07
2.3853433e-07
2.3641629e-07
2.3426717e-07
2.3208599e-07
2.2986404e-07
2.2759652e-07
2.2529861e-07
2.2297605e-07
2.2063304e-07
2.1827698e-07
2.1591236e-07
2.1353357e-07
2.1114304e-07
2.0875297e-07
2.0636029e-07
2.0396453e-07
2.0157582e-07
1.9921508e-07
1.9692603e-07
1.9478814e-07
1.929962e-07
1.9194592e-07
1.9253036e-07
1.9684537e-07
2.1034634e-07
2.4599307e-07
3.4070659e-07
5.7406736e-07
1.1577765e-06
2.5311218e-06
5.422769e-06
1.1280845e-05
2.2442035e-05
4.3906707e-05
8.178969e-05
0.00014088729
0.00022823319
0.00035148452
0.0005012655
0.0006730716
0.00086052986
0.0010640865
0.0012698371
0.0014677999
0.0016537556
0.0018257719
0.001983259
0.0021306921
0.0022675521
0.0023945147
0.0025091222
0.0026122234
0.0027051094
0.0027893918
0.0028660282
0.0029354529
0.0029981753
0.0030549977
0.0031068163
0.0031538672
0.0031963592
0.00323484
0.0032698435
0.0033017592
0.0033308632
0.0033574115
0.0033812937
0.0034028741
0.0034224681
0.003440239
0.0034563243
0.0034708657
0.0034839082
0.0034955137
0.0035058082
0.0035149033
0.0035229071
0.003529792
0.0035355637
0.0035404035
0.0035442474
0.0035476852
0.0035496112
0.0035514832
2.6795655e-07
2.6635702e-07
2.6473395e-07
2.6307842e-07
2.6138833e-07
2.5966321e-07
2.5790302e-07
2.5610786e-07
2.5427788e-07
2.5241329e-07
2.5051435e-07
2.4858141e-07
2.4661499e-07
2.446157e-07
2.4258411e-07
2.4052073e-07
2.3842619e-07
2.3630117e-07
2.3414631e-07
2.3196214e-07
2.2974906e-07
2.2750722e-07
2.2523704e-07
2.2293907e-07
2.2061388e-07
2.1826194e-07
2.1588352e-07
2.1347775e-07
2.1104342e-07
2.0857283e-07
2.06075e-07
2.0355883e-07
2.0102799e-07
1.984858e-07
1.9593571e-07
1.9338811e-07
1.9084302e-07
1.8829657e-07
1.8575863e-07
1.8324173e-07
1.8074544e-07
1.7829792e-07
1.759931e-07
1.740593e-07
1.7320047e-07
1.7567076e-07
1.8773228e-07
2.3114068e-07
3.6714267e-07
7.7804221e-07
1.9441609e-06
4.6698374e-06
1.0688482e-05
2.2643307e-05
4.721585e-05
9.055396e-05
0.00015752629
0.00025886937
0.00039127518
0.00054743147
0.00072178767
0.00090944405
0.0011063285
0.0012962921
0.0014750021
0.0016418453
0.0017962813
0.0019426973
0.0020805475
0.0022094948
0.0023267301
0.002433089
0.0025299691
0.0026186626
0.0026999216
0.0027737927
0.0028406041
0.0029011905
0.0029563424
0.0030065668
0.0030523098
0.0030940984
0.0031320503
0.0031665268
0.0031979436
0.0032266361
0.0032528676
0.0032768547
0.0032984955
0.0033181416
0.0033360224
0.0033522698
0.0033670031
0.003380308
0.0033922301
0.0034029289
0.0034123274
0.0034211044
0.0034276083
0.00343689
2.6809504e-07
2.6649445e-07
2.6487028e-07
2.632136e-07
2.6152231e-07
2.5979596e-07
2.580345e-07
2.5623802e-07
2.5440669e-07
2.5254069e-07
2.5064028e-07
2.4870578e-07
2.4673765e-07
2.4473639e-07
2.4270255e-07
2.4063661e-07
2.3853911e-07
2.3641069e-07
2.34252e-07
2.320637e-07
2.2984648e-07
2.2760111e-07
2.2532835e-07
2.2302894e-07
2.2070368e-07
2.1835333e-07
2.1597866e-07
2.1358045e-07
2.1115951e-07
2.0871641e-07
2.0625184e-07
2.0376675e-07
2.0126218e-07
1.9873924e-07
1.9619893e-07
1.9364224e-07
1.9106947e-07
1.8847978e-07
1.858671e-07
1.8322794e-07
1.8057996e-07
1.7793089e-07
1.7528785e-07
1.7267362e-07
1.7007051e-07
1.6750279e-07
1.6497467e-07
1.6251655e-07
1.602831e-07
1.5869357e-07
1.5989626e-07
1.6928921e-07
2.1369117e-07
3.6147559e-07
8.9125806e-07
2.4345825e-06
6.2168688e-06
1.4523465e-05
3.2963281e-05
6.8566286e-05
0.0001272962
0.00021747049
0.0003421568
0.00049094203
0.00065805901
0.00083684944
0.0010245013
0.0012063166
0.0013772157
0.0015374533
0.0016870459
0.0018300652
0.0019656781
0.0020927297
0.0022092037
0.0023159218
0.0024139111
0.002503857
0.0025860341
0.0026607971
0.0027288944
0.0027911785
0.0028479154
0.002899434
0.0029463086
0.0029891014
0.0030282246
0.003064041
0.0030965828
0.0031262405
0.0031533569
0.003178174
0.0032008989
0.0032215506
0.0032403076
0.0032574523
0.003272923
0.0032875234
0.0032990605
0.0033164512
2.6823965e-07
2.6663826e-07
2.6501328e-07
2.6335579e-07
2.6166366e-07
2.5993645e-07
2.5817412e-07
2.5637677e-07
2.5454454e-07
2.5267765e-07
2.5077635e-07
2.4884096e-07
2.4687193e-07
2.4486978e-07
2.4283505e-07
2.4076827e-07
2.3866995e-07
2.3654071e-07
2.3438117e-07
2.3219197e-07
2.2997378e-07
2.2772728e-07
2.2545322e-07
2.2315237e-07
2.2082555e-07
2.1847363e-07
2.1609751e-07
2.136981e-07
2.1127638e-07
2.088334e-07
2.0637021e-07
2.0388785e-07
2.0138738e-07
1.9886985e-07
1.9633636e-07
1.9378799e-07
1.9122582e-07
1.8865092e-07
1.8606427e-07
1.8346652e-07
1.8085867e-07
1.7824189e-07
1.7561722e-07
1.7298505e-07
1.7034581e-07
1.6767986e-07
1.6500045e-07
1.6232512e-07
1.5967433e-07
1.5705929e-07
1.5448083e-07
1.5195691e-07
1.4953118e-07
1.4730945e-07
1.4611093e-07
1.4852554e-07
1.6732641e-07
2.4214708e-07
5.5580392e-07
1.645567e-06
4.7049819e-06
1.1751701e-05
2.8620394e-05
6.290637e-05
0.00012109327
0.00021238284
0.0003366676
0.00048496707
0.00065027559
0.00082509499
0.0010053948
0.0011779226
0.001339741
0.0014921431
0.0016359583
0.0017746258
0.0019065955
0.0020295507
0.0021427691
0.0022470593
0.0023433164
0.002431937
0.0025129491
0.0025867949
0.0026542216
0.0027157592
0.0027718643
0.0028231343
0.0028698521
0.0029124056
0.0029512438
0.0029867836
0.0030193818
0.0030491282
0.0030762483
0.0031011239
0.0031237761
0.0031451903
0.0031623507
0.0031886486
2.6839657e-07
2.6679424e-07
2.651683e-07
2.6350982e-07
2.6181669e-07
2.6008845e-07
2.5832506e-07
2.5652663e-07
2.5469331e-07
2.5282531e-07
2.5092287e-07
2.4898633e-07
2.4701611e-07
2.450127e-07
2.4297666e-07
2.4090852e-07
2.3880883e-07
2.3667818e-07
2.3451722e-07
2.3232659e-07
2.3010695e-07
2.27859e-07
2.2558347e-07
2.2328115e-07
2.2095284e-07
2.185994e-07
2.1622171e-07
2.1382071e-07
2.1139735e-07
2.0895263e-07
2.0648761e-07
2.0400335e-07
2.0150095e-07
1.9898155e-07
1.9644631e-07
1.9389642e-07
1.9133311e-07
1.8875761e-07
1.8617121e-07
1.8357524e-07
1.80971e-07
1.7835972e-07
1.7574264e-07
1.7312085e-07
1.704956e-07
1.6786743e-07
1.6523694e-07
1.6260512e-07
1.5997254e-07
1.5734066e-07
1.5469721e-07
1.5203212e-07
1.4937225e-07
1.4675484e-07
1.4417753e-07
1.4165339e-07
1.3920806e-07
1.3688085e-07
1.3511656e-07
1.3553965e-07
1.4763348e-07
2.0434967e-07
4.6894518e-07
1.4992309e-06
4.6527595e-06
1.2167918e-05
3.1343115e-05
6.9895304e-05
0.00013569386
0.00023574448
0.0003677463
0.00052118185
0.00068806472
0.00086046891
0.0010327217
0.0011943876
0.0013468215
0.0014913087
0.001630094
0.0017633571
0.0018895484
0.002006599
0.00211502
0.002215534
0.0023083559
0.0023934224
0.0024711958
0.0025424879
0.0026076639
0.0026670434
0.0027211822
0.0027706412
0.0028159051
0.0028572217
0.0028948977
0.0029294036
0.0029608745
0.0029905491
0.003014636
0.0030514769
2.6858891e-07
2.6698539e-07
2.6535824e-07
2.6369852e-07
2.6200411e-07
2.6027456e-07
2.5850983e-07
2.5671003e-07
2.5487531e-07
2.5300588e-07
2.5110199e-07
2.4916396e-07
2.4719219e-07
2.4518716e-07
2.431494e-07
2.4107947e-07
2.3897791e-07
2.3684533e-07
2.3468237e-07
2.324897e-07
2.3026797e-07
2.2801789e-07
2.2574021e-07
2.2343571e-07
2.211052e-07
2.1874954e-07
2.1636963e-07
2.1396639e-07
2.1154079e-07
2.0909382e-07
2.0662652e-07
2.0413996e-07
2.0163525e-07
1.991135e-07
1.9657588e-07
1.9402358e-07
1.9145782e-07
1.8887984e-07
1.862909e-07
1.8369229e-07
1.8108533e-07
1.7847133e-07
1.7585162e-07
1.7322756e-07
1.7060046e-07
1.6797177e-07
1.6534287e-07
1.6271506e-07
1.6008951e-07
1.5746733e-07
1.5484933e-07
1.5223566e-07
1.4962671e-07
1.4702339e-07
1.4442698e-07
1.4181403e-07
1.3919264e-07
1.3659409e-07
1.3405835e-07
1.3156389e-07
1.2916227e-07
1.2685216e-07
1.250586e-07
1.2506524e-07
1.3804866e-07
2.0590141e-07
5.3663183e-07
1.8846576e-06
5.9384548e-06
1.6508746e-05
4.2698019e-05
9.2457685e-05
0.00017653806
0.00029252336
0.00043707849
0.00059766432
0.00076469619
0.00093200969
0.0010922161
0.0012432591
0.0013870046
0.0015243584
0.0016573836
0.0017846667
0.0019033934
0.0020138278
0.0021165445
0.0022117785
0.0022993834
0.0023796584
0.0024532503
0.0025205647
0.002582074
0.0026382543
0.0026895105
0.0027363486
0.0027790148
0.0028190472
0.0028518142
0.0029016117
2.688001e-07
2.6719532e-07
2.6556689e-07
2.6390585e-07
2.6221009e-07
2.6047916e-07
2.5871303e-07
2.569118e-07
2.5507562e-07
2.5320471e-07
2.5129931e-07
2.4935974e-07
2.473864e-07
2.4537976e-07
2.4334033e-07
2.4126867e-07
2.3916534e-07
2.3703095e-07
2.3486612e-07
2.3267152e-07
2.3044783e-07
2.2819576e-07
2.2591603e-07
2.2360945e-07
2.2127683e-07
2.1891903e-07
2.1653694e-07
2.141315e-07
2.1170367e-07
2.0925446e-07
2.0678489e-07
2.0429605e-07
2.0178904e-07
1.9926498e-07
1.9672503e-07
1.9417039e-07
1.9160228e-07
1.8902192e-07
1.8643059e-07
1.8382956e-07
1.8122014e-07
1.7860363e-07
1.7598135e-07
1.7335466e-07
1.7072488e-07
1.6809337e-07
1.6546147e-07
1.6283056e-07
1.6020197e-07
1.5757705e-07
1.5495715e-07
1.523437e-07
1.4973801e-07
1.4714106e-07
1.4455397e-07
1.4197698e-07
1.3940996e-07
1.3685343e-07
1.3430828e-07
1.3176704e-07
1.292045e-07
1.2666232e-07
1.2419209e-07
1.2176583e-07
1.1943224e-07
1.1724931e-07
1.1555177e-07
1.1725109e-07
1.3946606e-07
2.6512552e-07
8.6289434e-07
3.2613848e-06
9.9201947e-06
2.8807629e-05
6.9240731e-05
0.00014200082
0.00024907284
0.00038594642
0.00054250395
0.00070624448
0.00086889733
0.001026275
0.0011746274
0.0013163223
0.0014515164
0.0015832308
0.0017098352
0.0018286537
0.00193963
0.0020431808
0.002139345
0.0022278782
0.0023092004
0.0023838858
0.0024522275
0.0025147047
0.0025716301
0.0026247987
0.0026685509
0.0027346748
2.6900539e-07
2.6739942e-07
2.6576978e-07
2.6410751e-07
2.6241049e-07
2.6067828e-07
2.5891084e-07
2.5710827e-07
2.5527074e-07
2.5339846e-07
2.5149167e-07
2.495507e-07
2.4757595e-07
2.4556786e-07
2.4352697e-07
2.4145381e-07
2.3934897e-07
2.3721303e-07
2.3504662e-07
2.3285042e-07
2.3062509e-07
2.2837134e-07
2.2608992e-07
2.2378161e-07
2.2144723e-07
2.1908765e-07
2.1670375e-07
2.1429647e-07
2.1186679e-07
2.0941569e-07
2.0694422e-07
2.0445346e-07
2.0194449e-07
1.9941847e-07
1.9687654e-07
1.9431991e-07
1.9174978e-07
1.891674e-07
1.8657402e-07
1.8397095e-07
1.8135946e-07
1.7874087e-07
1.7611651e-07
1.7348772e-07
1.7085582e-07
1.6822216e-07
1.6558809e-07
1.6295495e-07
1.6032406e-07
1.5769676e-07
1.5507438e-07
1.5245822e-07
1.4984961e-07
1.4724984e-07
1.4466015e-07
1.4208189e-07
1.3951635e-07
1.3696465e-07
1.3442755e-07
1.3190588e-07
1.2939881e-07
1.2690659e-07
1.2442961e-07
1.2196382e-07
1.1947696e-07
1.1701747e-07
1.1462771e-07
1.1231e-07
1.1006797e-07
1.0814315e-07
1.0692588e-07
1.1533194e-07
1.7372312e-07
5.2092156e-07
2.0659534e-06
7.0083643e-06
2.2403139e-05
5.8091073e-05
0.00012580289
0.000229211
0.00036234543
0.00051728229
0.00067844445
0.00083670943
0.00099006454
0.0011348765
0.0012736005
0.0014064195
0.0015360483
0.0016610229
0.0017786735
0.0018888588
0.0019919125
0.0020876658
0.0021759436
0.0022572177
0.0023316606
0.0024011435
0.0024586005
0.0025452685
2.6919754e-07
2.6759046e-07
2.6595969e-07
2.6429628e-07
2.6259809e-07
2.6086469e-07
2.5909603e-07
2.5729223e-07
2.5545345e-07
2.535799e-07
2.5167183e-07
2.4972957e-07
2.4775351e-07
2.4574409e-07
2.4370185e-07
2.4162732e-07
2.3952107e-07
2.3738371e-07
2.3521587e-07
2.3301819e-07
2.3079136e-07
2.2853609e-07
2.2625312e-07
2.2394324e-07
2.2160727e-07
2.1924607e-07
2.1686054e-07
2.1445162e-07
2.1202026e-07
2.0956748e-07
2.0709431e-07
2.0460183e-07
2.0209114e-07
1.9956338e-07
1.970197e-07
1.944613e-07
1.9188939e-07
1.8930522e-07
1.8671006e-07
1.8410518e-07
1.8149188e-07
1.7887148e-07
1.762453e-07
1.7361468e-07
1.7098096e-07
1.6834547e-07
1.6570957e-07
1.6307459e-07
1.6044187e-07
1.5781274e-07
1.551885e-07
1.5257048e-07
1.4995995e-07
1.473582e-07
1.4476646e-07
1.4218599e-07
1.3961799e-07
1.3706369e-07
1.3452424e-07
1.3200079e-07
1.2949461e-07
1.2700678e-07
1.2453784e-07
1.2208855e-07
1.1965802e-07
1.1724514e-07
1.1485399e-07
1.124623e-07
1.1006474e-07
1.0772008e-07
1.0543517e-07
1.0323873e-07
1.0125484e-07
9.9481771e-08
1.0306785e-07
1.3834768e-07
3.9011824e-07
1.5940247e-06
5.8595338e-06
2.0353674e-05
5.5252009e-05
0.00012379337
0.00022850014
0.00036216226
0.00051719943
0.00067596581
0.00082971286
0.00097793395
0.0011187352
0.0012540817
0.001384096
0.0015113327
0.001633985
0.0017495095
0.0018579811
0.0019596067
0.0020537143
0.0021421171
0.0022158334
0.0023275167
2.6937708e-07
2.6776896e-07
2.6613715e-07
2.6447266e-07
2.6277339e-07
2.6103887e-07
2.5926908e-07
2.5746413e-07
2.5562417e-07
2.5374943e-07
2.5184017e-07
2.498967e-07
2.4791941e-07
2.4590876e-07
2.4386524e-07
2.4178942e-07
2.3968186e-07
2.3754315e-07
2.3537393e-07
2.3317485e-07
2.3094659e-07
2.2868986e-07
2.2640542e-07
2.2409404e-07
2.2175655e-07
2.1939382e-07
2.1700674e-07
2.1459624e-07
2.1216329e-07
2.0970891e-07
2.0723413e-07
2.0474002e-07
2.0222769e-07
1.9969827e-07
1.9715294e-07
1.9459287e-07
1.9201929e-07
1.8943344e-07
1.8683659e-07
1.8423002e-07
1.8161502e-07
1.7899293e-07
1.7636505e-07
1.7373273e-07
1.710973e-07
1.6846011e-07
1.6582251e-07
1.6318583e-07
1.6055141e-07
1.5792059e-07
1.5529467e-07
1.5267496e-07
1.5006277e-07
1.4745934e-07
1.4486595e-07
1.4228381e-07
1.3971413e-07
1.3715808e-07
1.3461683e-07
1.3209148e-07
1.2958315e-07
1.2709293e-07
1.2462187e-07
1.2217095e-07
1.1974136e-07
1.1733392e-07
1.1494932e-07
1.1258724e-07
1.1024724e-07
1.0792674e-07
1.0563412e-07
1.0331622e-07
1.0102273e-07
9.880551e-08
9.6672353e-08
9.4703679e-08
9.2875964e-08
9.4912654e-08
1.230686e-07
3.5607648e-07
1.5200731e-06
5.8913529e-06
2.1760626e-05
5.9905235e-05
0.00013504507
0.00024534474
0.00038296935
0.00053805068
0.0006935082
0.00084221844
0.00098548379
0.001122094
0.0012537299
0.001381036
0.001505519
0.0016251519
0.0017377101
0.001845484
0.0019365674
0.0020765399
2.6954498e-07
2.6793591e-07
2.6630311e-07
2.6463763e-07
2.6293733e-07
2.6120178e-07
2.5943093e-07
2.576249e-07
2.5578385e-07
2.5390801e-07
2.5199763e-07
2.5005304e-07
2.4807461e-07
2.4606279e-07
2.4401809e-07
2.4194106e-07
2.3983225e-07
2.3769228e-07
2.3552176e-07
2.3332136e-07
2.3109175e-07
2.2883365e-07
2.265478e-07
2.24235e-07
2.2189608e-07
2.1953188e-07
2.1714332e-07
2.1473133e-07
2.1229688e-07
2.0984097e-07
2.0736466e-07
2.04869e-07
2.0235511e-07
1.9982413e-07
1.9727721e-07
1.9471556e-07
1.9214039e-07
1.8955295e-07
1.8695449e-07
1.8434631e-07
1.8172971e-07
1.79106e-07
1.7647651e-07
1.7384257e-07
1.7120552e-07
1.6856672e-07
1.659275e-07
1.6328921e-07
1.6065318e-07
1.5802074e-07
1.5539322e-07
1.5277192e-07
1.5015813e-07
1.4755312e-07
1.4495815e-07
1.4237444e-07
1.398032e-07
1.3724561e-07
1.3470282e-07
1.3217595e-07
1.2966608e-07
1.2717427e-07
1.2470155e-07
1.222489e-07
1.198173e-07
1.174077e-07
1.1502097e-07
1.1265804e-07
1.1031994e-07
1.0800702e-07
1.0572008e-07
1.0345808e-07
1.0121698e-07
9.9008011e-08
9.6784095e-08
9.4567857e-08
9.2435961e-08
9.0368814e-08
8.8478299e-08
8.6643981e-08
8.8779678e-08
1.1936662e-07
3.9956298e-07
1.8033238e-06
7.2488785e-06
2.7034304e-05
7.3539833e-05
0.00015910857
0.00027864772
0.00042192372
0.00057681176
0.00072753336
0.00087069308
0.001008761
0.001141269
0.0012692324
0.0013936605
0.0015172433
0.0016231868
0.0017911575
2.6970204e-07
2.6809206e-07
2.6645836e-07
2.6479194e-07
2.630907e-07
2.6135417e-07
2.5958234e-07
2.577753e-07
2.5593324e-07
2.5405637e-07
2.5214495e-07
2.501993e-07
2.4821981e-07
2.4620691e-07
2.4416111e-07
2.4208294e-07
2.3997298e-07
2.3783182e-07
2.3566008e-07
2.3345843e-07
2.3122755e-07
2.2896815e-07
2.2668099e-07
2.2436685e-07
2.2202656e-07
2.1966099e-07
2.1727104e-07
2.1485764e-07
2.1242176e-07
2.0996441e-07
2.0748665e-07
2.0498953e-07
2.0247417e-07
1.999417e-07
1.973933e-07
1.9483015e-07
1.9225348e-07
1.8966453e-07
1.8706456e-07
1.8445487e-07
1.8183675e-07
1.7921152e-07
1.765805e-07
1.7394503e-07
1.7130646e-07
1.6866613e-07
1.6602539e-07
1.6338557e-07
1.6074802e-07
1.5811406e-07
1.5548502e-07
1.5286221e-07
1.5024691e-07
1.476404e-07
1.4504393e-07
1.4245874e-07
1.3988602e-07
1.3732696e-07
1.347827e-07
1.3225438e-07
1.2974307e-07
1.2724984e-07
1.2477571e-07
1.2232166e-07
1.1988864e-07
1.1747757e-07
1.1508932e-07
1.1272473e-07
1.1038462e-07
1.0806982e-07
1.0578094e-07
1.0351904e-07
1.0128456e-07
9.9078165e-08
9.6898948e-08
9.4743054e-08
9.2618553e-08
9.0495708e-08
8.8367042e-08
8.6322767e-08
8.4343935e-08
8.2550554e-08
8.082523e-08
8.4626924e-08
1.312695e-07
5.5787215e-07
2.622769e-06
1.1325355e-05
3.8702499e-05
9.9370626e-05
0.00019887466
0.00032899146
0.00047696212
0.00062915448
0.00077409266
0.00091224986
0.0010450459
0.0011756869
0.0012884296
0.001477735
2.6984898e-07
2.6823815e-07
2.666036e-07
2.6493631e-07
2.6323418e-07
2.6149675e-07
2.5972399e-07
2.5791603e-07
2.5607302e-07
2.5419519e-07
2.522828e-07
2.5033617e-07
2.4835569e-07
2.4634178e-07
2.4429495e-07
2.4221572e-07
2.4010467e-07
2.379624e-07
2.3578952e-07
2.335867e-07
2.3135462e-07
2.29094e-07
2.268056e-07
2.2449019e-07
2.2214862e-07
2.1978175e-07
2.1739048e-07
2.1497574e-07
2.1253852e-07
2.1007982e-07
2.0760068e-07
2.0510219e-07
2.0258544e-07
2.0005158e-07
1.9750177e-07
1.9493721e-07
1.9235912e-07
1.8976875e-07
1.8716736e-07
1.8455624e-07
1.8193669e-07
1.7931002e-07
1.7667757e-07
1.7404067e-07
1.7140066e-07
1.687589e-07
1.6611672e-07
1.6347546e-07
1.6083648e-07
1.582011e-07
1.5557063e-07
1.529464e-07
1.5032968e-07
1.4772175e-07
1.4512388e-07
1.4253728e-07
1.3996317e-07
1.3740272e-07
1.3485709e-07
1.3232739e-07
1.2981473e-07
1.2732015e-07
1.2484468e-07
1.223893e-07
1.1995497e-07
1.1754261e-07
1.1515308e-07
1.1278721e-07
1.1044581e-07
1.0812962e-07
1.0583937e-07
1.0357572e-07
1.013394e-07
9.9130919e-08
9.6951099e-08
9.4800511e-08
9.2679349e-08
9.0587556e-08
8.8520161e-08
8.6486531e-08
8.4453099e-08
8.2419927e-08
8.0459515e-08
7.8613976e-08
7.6841784e-08
7.5760645e-08
8.4345249e-08
1.9164541e-07
9.8997863e-07
4.5241867e-06
1.9577019e-05
6.0369979e-05
0.00014026901
0.00025597633
0.00039607005
0.00054599461
0.0006920982
0.0008329988
0.00095392024
0.0011533358
2.6998646e-07
2.6837485e-07
2.667395e-07
2.650714e-07
2.6336844e-07
2.6163017e-07
2.5985656e-07
2.5804772e-07
2.5620383e-07
2.543251e-07
2.5241181e-07
2.5046427e-07
2.4848286e-07
2.4646801e-07
2.4442021e-07
2.4234e-07
2.4022793e-07
2.3808461e-07
2.3591067e-07
2.3370674e-07
2.3147354e-07
2.2921177e-07
2.2692219e-07
2.246056e-07
2.2226282e-07
2.1989472e-07
2.175022e-07
2.1508621e-07
2.1264772e-07
2.1018773e-07
2.077073e-07
2.052075e-07
2.0268945e-07
2.0015427e-07
1.9760314e-07
1.9503725e-07
1.9245783e-07
1.8986611e-07
1.8726338e-07
1.8465092e-07
1.8203002e-07
1.79402e-07
1.767682e-07
1.7412995e-07
1.7148859e-07
1.6884547e-07
1.6620194e-07
1.6355934e-07
1.6091901e-07
1.5828228e-07
1.5565047e-07
1.530249e-07
1.5040685e-07
1.4779759e-07
1.451984e-07
1.4261048e-07
1.4003506e-07
1.3747331e-07
1.3492638e-07
1.323954e-07
1.2988145e-07
1.273856e-07
1.2490887e-07
1.2245225e-07
1.2001669e-07
1.176031e-07
1.1521235e-07
1.1284529e-07
1.105027e-07
1.0818535e-07
1.0589394e-07
1.0362915e-07
1.013916e-07
9.9181886e-08
9.7000554e-08
9.4848182e-08
9.2725197e-08
9.0632202e-08
8.8569729e-08
8.6537891e-08
8.4536646e-08
8.2559626e-08
8.0621929e-08
7.866079e-08
7.6745137e-08
7.4852314e-08
7.3266219e-08
7.109396e-08
7.2134985e-08
9.56969e-08
3.8234659e-07
2.1076479e-06
9.7287665e-06
3.639697e-05
9.8698043e-05
0.00019972729
0.00033038118
0.00047886193
0.00061296825
0.00082798637
2.7011513e-07
2.6850279e-07
2.668667e-07
2.6519785e-07
2.6349412e-07
2.6175506e-07
2.5998065e-07
2.58171e-07
2.5632628e-07
2.5444672e-07
2.5253259e-07
2.505842e-07
2.4860192e-07
2.465862e-07
2.445375e-07
2.4245636e-07
2.4034335e-07
2.3819905e-07
2.3602409e-07
2.3381914e-07
2.3158487e-07
2.2932202e-07
2.2703134e-07
2.2471362e-07
2.223697e-07
2.2000044e-07
2.1760675e-07
2.1518957e-07
2.1274988e-07
2.1028868e-07
2.0780703e-07
2.05306e-07
2.027867e-07
2.0025028e-07
1.976979e-07
1.9513075e-07
1.9255007e-07
1.899571e-07
1.873531e-07
1.8473937e-07
1.8211719e-07
1.7948791e-07
1.7685283e-07
1.7421331e-07
1.7157068e-07
1.6892629e-07
1.6628148e-07
1.6363761e-07
1.6099601e-07
1.5835802e-07
1.5572495e-07
1.5309812e-07
1.5047881e-07
1.4786831e-07
1.4526787e-07
1.4267871e-07
1.4010206e-07
1.3753908e-07
1.3499093e-07
1.3245874e-07
1.2994359e-07
1.2744655e-07
1.2496864e-07
1.2251084e-07
1.2007412e-07
1.1765937e-07
1.1526749e-07
1.128993e-07
1.105556e-07
1.0823714e-07
1.0594464e-07
1.0367878e-07
1.0144017e-07
9.9229413e-08
9.704705e-08
9.4893585e-08
9.2769484e-08
9.0675164e-08
8.8611088e-08
8.657753e-08
8.4575072e-08
8.2603853e-08
8.0664712e-08
7.8755079e-08
7.6871998e-08
7.5027187e-08
7.3137391e-08
7.1323407e-08
6.9584271e-08
6.7962863e-08
6.6632749e-08
7.3161767e-08
1.6656405e-07
9.7773104e-07
4.9371141e-06
2.2229339e-05
6.8813624e-05
0.00016007187
0.00026703753
0.0004915935
2.7023556e-07
2.6862253e-07
2.6698575e-07
2.6531619e-07
2.6361174e-07
2.6187195e-07
2.600968e-07
2.5828639e-07
2.5644091e-07
2.5456057e-07
2.5264565e-07
2.5069647e-07
2.4871339e-07
2.4669685e-07
2.4464731e-07
2.4256531e-07
2.4045141e-07
2.3830619e-07
2.3613029e-07
2.3392437e-07
2.3168911e-07
2.2942524e-07
2.2713352e-07
2.2481474e-07
2.2246975e-07
2.200994e-07
2.177046e-07
2.152863e-07
2.1284547e-07
2.1038313e-07
2.0790033e-07
2.0539814e-07
2.0287768e-07
2.0034008e-07
1.9778652e-07
1.9521819e-07
1.9263632e-07
1.9004216e-07
1.8743697e-07
1.8482204e-07
1.8219867e-07
1.7956819e-07
1.7693191e-07
1.7429119e-07
1.7164736e-07
1.6900177e-07
1.6635577e-07
1.637107e-07
1.6106791e-07
1.5842873e-07
1.5579447e-07
1.5316645e-07
1.5054597e-07
1.4793429e-07
1.4533267e-07
1.4274235e-07
1.4016454e-07
1.3760041e-07
1.3505111e-07
1.3251778e-07