/*--------------------------------*- C++ -*----------------------------------*\
  =========                 |
  \\      /  F ield         | OpenFOAM: The Open Source CFD Toolbox
   \\    /   O peration     | Website:  https://openfoam.org
    \\  /    A nd           | Version:  12
     \\/     M anipulation  |
\*---------------------------------------------------------------------------*/
FoamFile
{
    format      ascii;
    class       volScalarField;
    location    "700";
    object      nut;
}
// * * * * * * * * * * * * * * * * * * * * * * * * * * * * * * * * * * * * * //

dimensions      [0 2 -1 0 0 0 0];

internalField   nonuniform List<scalar> 
13056
(
1.929319e-07
1.7313029e-07
1.6008621e-07
1.4822218e-07
1.431121e-07
1.4034074e-07
1.3854229e-07
1.372882e-07
1.3638281e-07
1.3570726e-07
1.3518815e-07
1.3478011e-07
1.3445387e-07
1.3418956e-07
1.3397307e-07
1.3379407e-07
1.3364482e-07
1.3351933e-07
1.3341376e-07
1.3332083e-07
1.332485e-07
1.3317878e-07
1.3304717e-07
1.016378e-07
1.5042677e-16
1.0491594e-15
1.948904e-15
2.1850375e-15
2.1251336e-15
2.0017703e-15
1.8898483e-15
1.7953609e-15
1.7136547e-15
1.6422076e-15
1.5793294e-15
1.5234526e-15
1.4719375e-15
1.4247537e-15
1.3814952e-15
1.3418288e-15
1.3053696e-15
1.2716373e-15
1.2402951e-15
1.2110933e-15
1.1837268e-15
1.1580264e-15
1.1338213e-15
1.1109729e-15
1.089365e-15
1.0688571e-15
1.0493861e-15
1.0308377e-15
1.0131114e-15
9.9617386e-16
9.7995025e-16
9.6436635e-16
9.4939773e-16
9.3499289e-16
9.2108937e-16
9.0766746e-16
8.9469966e-16
8.8214016e-16
8.6995888e-16
8.5814667e-16
8.4660831e-16
8.3533373e-16
8.2435235e-16
8.1365773e-16
8.03229e-16
7.9304397e-16
7.8309254e-16
7.7336514e-16
7.6384296e-16
7.5450934e-16
7.4535825e-16
7.3638377e-16
7.2756969e-16
7.1890337e-16
7.1037941e-16
7.019964e-16
6.9374294e-16
6.8560457e-16
6.7757503e-16
6.6965716e-16
6.6184387e-16
6.5411948e-16
6.4647787e-16
6.3892106e-16
6.3144699e-16
6.240445e-16
6.1670392e-16
6.0942416e-16
6.0220833e-16
5.9504715e-16
5.8792734e-16
5.8084602e-16
5.7380926e-16
5.668099e-16
5.5982746e-16
5.528636e-16
5.4592589e-16
5.3900765e-16
5.3209471e-16
5.2518268e-16
5.1827743e-16
5.1136948e-16
5.0444357e-16
4.9749987e-16
4.9053942e-16
4.8354909e-16
4.765192e-16
4.6945328e-16
4.623409e-16
4.5531899e-16
4.4861692e-16
4.4228159e-16
4.3623556e-16
4.3049971e-16
4.2505576e-16
4.1987636e-16
4.1493494e-16
4.1021467e-16
4.0570462e-16
4.0138873e-16
3.9724794e-16
3.9326835e-16
3.8944261e-16
3.8576291e-16
3.8221809e-16
3.7879263e-16
3.7548059e-16
3.7225427e-16
3.6915218e-16
3.6599676e-16
3.6319377e-16
3.5865843e-16
1.9293131e-07
1.7312786e-07
1.6009016e-07
1.4822168e-07
1.4310903e-07
1.4033619e-07
1.3853665e-07
1.3728169e-07
1.3637563e-07
1.3569956e-07
1.3518003e-07
1.3477165e-07
1.3444513e-07
1.3418059e-07
1.3396391e-07
1.3378475e-07
1.3363535e-07
1.3350973e-07
1.3340405e-07
1.3331107e-07
1.3323867e-07
1.3316865e-07
1.3303714e-07
1.0326085e-07
8.2195816e-15
1.841215e-13
3.420367e-13
3.8347918e-13
3.7296723e-13
3.513183e-13
3.3167705e-13
3.1509528e-13
3.0075638e-13
2.882178e-13
2.7718296e-13
2.6737677e-13
2.5833601e-13
2.5005534e-13
2.4246353e-13
2.3550212e-13
2.2910353e-13
2.2318352e-13
2.1768294e-13
2.1255801e-13
2.0775514e-13
2.0324468e-13
1.9899665e-13
1.9498669e-13
1.9119445e-13
1.8759527e-13
1.8417805e-13
1.8092275e-13
1.7781172e-13
1.7483911e-13
1.719918e-13
1.6925676e-13
1.6662971e-13
1.6410159e-13
1.6166146e-13
1.5930585e-13
1.5702993e-13
1.5482568e-13
1.526878e-13
1.5061469e-13
1.4858964e-13
1.4661089e-13
1.4468359e-13
1.4280662e-13
1.4097631e-13
1.3918877e-13
1.3744223e-13
1.3573501e-13
1.340638e-13
1.3242569e-13
1.3081961e-13
1.2924452e-13
1.2769759e-13
1.2617658e-13
1.2468057e-13
1.2320928e-13
1.2176074e-13
1.2033239e-13
1.1892314e-13
1.1753349e-13
1.161622e-13
1.148065e-13
1.1346534e-13
1.1213905e-13
1.1082729e-13
1.0952809e-13
1.0823976e-13
1.0696209e-13
1.0569565e-13
1.044388e-13
1.0318921e-13
1.0194637e-13
1.0071135e-13
9.9482901e-14
9.8257417e-14
9.7035192e-14
9.5817557e-14
9.4603338e-14
9.3390049e-14
9.2176919e-14
9.0964979e-14
8.9752564e-14
8.8536996e-14
8.7318305e-14
8.6096673e-14
8.4869797e-14
8.3635976e-14
8.2395833e-14
8.1147533e-14
7.9915111e-14
7.8738824e-14
7.7626904e-14
7.6565758e-14
7.5559052e-14
7.4603576e-14
7.3694532e-14
7.2827256e-14
7.1998794e-14
7.1207228e-14
7.0449739e-14
6.9722981e-14
6.9024516e-14
6.8353054e-14
6.7707222e-14
6.7085065e-14
6.6483856e-14
6.5902551e-14
6.5336293e-14
6.479184e-14
6.4238024e-14
6.3746065e-14
6.2950058e-14
1.9292904e-07
1.7312218e-07
1.6010569e-07
1.4822173e-07
1.4310069e-07
1.4032307e-07
1.3851999e-07
1.3726226e-07
1.3635406e-07
1.3567629e-07
1.3515544e-07
1.3474598e-07
1.3441858e-07
1.341533e-07
1.33936e-07
1.337563e-07
1.3360645e-07
1.3348042e-07
1.3337437e-07
1.3328112e-07
1.3320845e-07
1.331379e-07
1.3300644e-07
1.0506648e-07
1.1493644e-13
3.9307168e-12
7.3022164e-12
8.1869187e-12
7.962752e-12
7.5008622e-12
7.0817745e-12
6.7279418e-12
6.4219475e-12
6.1543573e-12
5.9188482e-12
5.7095534e-12
5.5165874e-12
5.3398391e-12
5.1777901e-12
5.0291932e-12
4.8926074e-12
4.7662344e-12
4.6488127e-12
4.5394081e-12
4.4368768e-12
4.3405864e-12
4.249897e-12
4.1642889e-12
4.0833278e-12
4.0064873e-12
3.9335307e-12
3.8640302e-12
3.7976092e-12
3.7341429e-12
3.6733512e-12
3.6149558e-12
3.5588655e-12
3.5048872e-12
3.452787e-12
3.402491e-12
3.3538963e-12
3.3068312e-12
3.261183e-12
3.2169176e-12
3.173678e-12
3.1314264e-12
3.0902734e-12
3.0501948e-12
3.0111122e-12
2.9729427e-12
2.9356483e-12
2.8991933e-12
2.8635071e-12
2.8285274e-12
2.7942315e-12
2.7605974e-12
2.7275641e-12
2.6950844e-12
2.6631381e-12
2.6317198e-12
2.6007868e-12
2.5702851e-12
2.540191e-12
2.5105153e-12
2.4812314e-12
2.4522806e-12
2.4236398e-12
2.3953167e-12
2.3673036e-12
2.3395586e-12
2.3120455e-12
2.2847602e-12
2.2577144e-12
2.2308733e-12
2.2041871e-12
2.177645e-12
2.1512698e-12
2.1250347e-12
2.0988628e-12
2.0727605e-12
2.046756e-12
2.0208244e-12
1.9949125e-12
1.9690039e-12
1.9431206e-12
1.917227e-12
1.891266e-12
1.8652381e-12
1.8391473e-12
1.8129444e-12
1.786593e-12
1.7601065e-12
1.7334457e-12
1.7071238e-12
1.6820007e-12
1.6582523e-12
1.6355882e-12
1.6140867e-12
1.5936793e-12
1.5742636e-12
1.5557399e-12
1.5380452e-12
1.5211384e-12
1.5049595e-12
1.4894368e-12
1.4745185e-12
1.4601768e-12
1.4463825e-12
1.4330939e-12
1.4202526e-12
1.4078365e-12
1.3957417e-12
1.3841126e-12
1.3722836e-12
1.3617757e-12
1.3447735e-12
1.9292505e-07
1.7311293e-07
1.6013329e-07
1.4822245e-07
1.4308692e-07
1.4030109e-07
1.3849187e-07
1.3722941e-07
1.363175e-07
1.3563683e-07
1.3511367e-07
1.3470236e-07
1.3437344e-07
1.341069e-07
1.3388853e-07
1.3370792e-07
1.3355726e-07
1.3343053e-07
1.3332386e-07
1.3323008e-07
1.3315693e-07
1.3308557e-07
1.3295427e-07
1.0688357e-07
7.6102998e-13
3.1598783e-11
5.8707079e-11
6.581803e-11
6.4024598e-11
6.0321329e-11
5.6960094e-11
5.4121362e-11
5.166571e-11
4.951775e-11
4.7626946e-11
4.5946329e-11
4.4396567e-11
4.2976865e-11
4.1675081e-11
4.0481236e-11
3.9383783e-11
3.8368298e-11
3.7424662e-11
3.6545385e-11
3.5721289e-11
3.4947303e-11
3.421829e-11
3.3530083e-11
3.2879195e-11
3.2261402e-11
3.1674806e-11
3.111597e-11
3.058187e-11
3.0071507e-11
2.9582631e-11
2.9113006e-11
2.8661901e-11
2.8227765e-11
2.7808719e-11
2.740417e-11
2.7013291e-11
2.6634704e-11
2.6267502e-11
2.5911412e-11
2.5563562e-11
2.5223649e-11
2.4892565e-11
2.4570115e-11
2.425567e-11
2.3948562e-11
2.3648488e-11
2.335516e-11
2.3068011e-11
2.2786539e-11
2.2510563e-11
2.2239905e-11
2.1974076e-11
2.1712696e-11
2.1455602e-11
2.1202752e-11
2.0953802e-11
2.0708317e-11
2.0466108e-11
2.0227261e-11
1.9991562e-11
1.9758539e-11
1.9528006e-11
1.9300026e-11
1.9074537e-11
1.8851201e-11
1.8629727e-11
1.8410082e-11
1.8192361e-11
1.7976283e-11
1.7761449e-11
1.7547769e-11
1.733543e-11
1.7124214e-11
1.6913503e-11
1.6703347e-11
1.6493976e-11
1.6285186e-11
1.6076552e-11
1.586794e-11
1.5659527e-11
1.5451027e-11
1.524198e-11
1.5032391e-11
1.4822291e-11
1.4611284e-11
1.4399076e-11
1.4185776e-11
1.3971068e-11
1.3759084e-11
1.3556752e-11
1.3365486e-11
1.318295e-11
1.3009774e-11
1.2845408e-11
1.2689026e-11
1.2539826e-11
1.2397301e-11
1.2261122e-11
1.2130802e-11
1.2005768e-11
1.18856e-11
1.1770075e-11
1.1658959e-11
1.1551914e-11
1.1448472e-11
1.1348454e-11
1.1251024e-11
1.1157343e-11
1.1062052e-11
1.0977402e-11
1.0840434e-11
1.9291926e-07
1.7309961e-07
1.6017378e-07
1.4822407e-07
1.4306756e-07
1.4026983e-07
1.3845168e-07
1.3718236e-07
1.3626507e-07
1.3558019e-07
1.3505369e-07
1.3463969e-07
1.3430857e-07
1.3404019e-07
1.3382026e-07
1.3363831e-07
1.334865e-07
1.3335875e-07
1.3325116e-07
1.331566e-07
1.3308275e-07
1.330102e-07
1.3287942e-07
1.0867733e-07
3.2817588e-12
1.5317178e-10
2.8466637e-10
3.1913583e-10
3.1056155e-10
2.9274345e-10
2.7655517e-10
2.6287171e-10
2.5102507e-10
2.4065592e-10
2.3152325e-10
2.2340201e-10
2.1590948e-10
2.0904318e-10
2.0274509e-10
1.969675e-10
1.9165495e-10
1.8673791e-10
1.8216768e-10
1.7790823e-10
1.7391526e-10
1.7016436e-10
1.6663078e-10
1.632944e-10
1.6013844e-10
1.571425e-10
1.5429741e-10
1.5158659e-10
1.4899542e-10
1.4651909e-10
1.4414672e-10
1.4186752e-10
1.3967794e-10
1.375705e-10
1.3553609e-10
1.3357187e-10
1.3167383e-10
1.298353e-10
1.280519e-10
1.2632231e-10
1.2463258e-10
1.2298124e-10
1.2137267e-10
1.1980591e-10
1.1827792e-10
1.1678547e-10
1.153271e-10
1.139014e-10
1.1250563e-10
1.1113736e-10
1.097957e-10
1.0847982e-10
1.0718732e-10
1.0591636e-10
1.0466616e-10
1.0343652e-10
1.0222577e-10
1.0103179e-10
9.9853672e-11
9.8691833e-11
9.7545238e-11
9.6411591e-11
9.5289991e-11
9.418074e-11
9.3083546e-11
9.1996765e-11
9.0918981e-11
8.9850035e-11
8.8790389e-11
8.7738684e-11
8.6692965e-11
8.5652812e-11
8.461912e-11
8.359084e-11
8.256496e-11
8.1541724e-11
8.0522248e-11
7.950555e-11
7.8489548e-11
7.7473595e-11
7.6458555e-11
7.5443035e-11
7.442479e-11
7.3403842e-11
7.2380346e-11
7.1352371e-11
7.0318488e-11
6.9279219e-11
6.8233024e-11
6.7200047e-11
6.6214037e-11
6.5281906e-11
6.439226e-11
6.3548194e-11
6.2747026e-11
6.1984742e-11
6.1257435e-11
6.0562637e-11
5.9898743e-11
5.9263395e-11
5.8653791e-11
5.8067888e-11
5.7504608e-11
5.6962804e-11
5.6440837e-11
5.5936423e-11
5.5448688e-11
5.4973559e-11
5.4516704e-11
5.4051988e-11
5.3639151e-11
5.2971131e-11
1.9291159e-07
1.7308152e-07
1.6022828e-07
1.4822699e-07
1.430425e-07
1.4022876e-07
1.3839866e-07
1.3712015e-07
1.3619565e-07
1.3550511e-07
1.3497413e-07
1.3455651e-07
1.3422243e-07
1.3395158e-07
1.3372957e-07
1.3354583e-07
1.3339246e-07
1.3326334e-07
1.3315453e-07
1.3305889e-07
1.329841e-07
1.3290994e-07
1.327802e-07
1.1043832e-07
1.0755866e-11
5.4827556e-10
1.0197992e-09
1.1433038e-09
1.1135713e-09
1.050841e-09
9.9372124e-10
9.4534909e-10
9.0339431e-10
8.6661772e-10
8.3418773e-10
8.0531936e-10
7.7865721e-10
7.5420296e-10
7.3175583e-10
7.1115019e-10
6.9219147e-10
6.7463411e-10
6.5830645e-10
6.430816e-10
6.2880259e-10
6.1538346e-10
6.0273666e-10
5.9079107e-10
5.7948735e-10
5.6875304e-10
5.5855591e-10
5.4883695e-10
5.3954418e-10
5.3066071e-10
5.2214783e-10
5.139671e-10
5.0610608e-10
4.9853804e-10
4.9123055e-10
4.8417358e-10
4.7735284e-10
4.7074448e-10
4.6433297e-10
4.5811368e-10
4.520363e-10
4.4609576e-10
4.4030795e-10
4.3466959e-10
4.2916972e-10
4.2379679e-10
4.1854564e-10
4.134113e-10
4.0838387e-10
4.0345466e-10
3.9862057e-10
3.9387859e-10
3.8922018e-10
3.8463866e-10
3.8013129e-10
3.756974e-10
3.7133099e-10
3.6702441e-10
3.6277442e-10
3.5858257e-10
3.5444515e-10
3.5035387e-10
3.463055e-10
3.4230115e-10
3.383398e-10
3.3441551e-10
3.3052318e-10
3.2666225e-10
3.2283441e-10
3.1903475e-10
3.1525622e-10
3.1149729e-10
3.0776123e-10
3.0404425e-10
3.0033546e-10
2.9663574e-10
2.9294913e-10
2.892721e-10
2.8559709e-10
2.8192177e-10
2.7824928e-10
2.7457457e-10
2.708895e-10
2.6719416e-10
2.634891e-10
2.5976732e-10
2.5602364e-10
2.5225993e-10
2.4847062e-10
2.4472866e-10
2.4115635e-10
2.3777879e-10
2.3455473e-10
2.3149547e-10
2.2859138e-10
2.2582793e-10
2.2319102e-10
2.2067172e-10
2.1826426e-10
2.159601e-10
2.1374911e-10
2.1162392e-10
2.0958061e-10
2.0761506e-10
2.0572133e-10
2.0389116e-10
2.0212138e-10
2.0039723e-10
1.9873928e-10
1.9705275e-10
1.9555435e-10
1.9312957e-10
1.9290194e-07
1.7305772e-07
1.6029824e-07
1.4823182e-07
1.430117e-07
1.401773e-07
1.3833194e-07
1.3704165e-07
1.361079e-07
1.3541008e-07
1.3487335e-07
1.3445109e-07
1.341132e-07
1.3383918e-07
1.3361447e-07
1.3342843e-07
1.3327306e-07
1.3314218e-07
1.3303179e-07
1.3293477e-07
1.3285877e-07
1.327825e-07
1.3265462e-07
1.1216043e-07
2.8950436e-11
1.5958341e-09
2.9731574e-09
3.3340067e-09
3.2528023e-09
3.075939e-09
2.9141954e-09
2.7767421e-09
2.6571184e-09
2.5519664e-09
2.459032e-09
2.3761421e-09
2.2994299e-09
2.2289583e-09
2.1641803e-09
2.1046419e-09
2.0497986e-09
1.9989535e-09
1.9516218e-09
1.9074459e-09
1.8659775e-09
1.8269743e-09
1.7901875e-09
1.7554147e-09
1.7224876e-09
1.6911984e-09
1.6614564e-09
1.6330919e-09
1.6059557e-09
1.5800003e-09
1.5551145e-09
1.5311876e-09
1.5081845e-09
1.4860281e-09
1.4646247e-09
1.4439461e-09
1.4239509e-09
1.4045701e-09
1.3857592e-09
1.3675052e-09
1.3496597e-09
1.3322087e-09
1.3152003e-09
1.2986251e-09
1.2824512e-09
1.266645e-09
1.2511921e-09
1.2360779e-09
1.2212736e-09
1.2067537e-09
1.1925097e-09
1.1785328e-09
1.164798e-09
1.1512858e-09
1.1379884e-09
1.124904e-09
1.1120151e-09
1.099299e-09
1.0867465e-09
1.0743623e-09
1.0621356e-09
1.0500419e-09
1.0380718e-09
1.0262286e-09
1.0145095e-09
1.002897e-09
9.9137601e-10
9.799449e-10
9.6860884e-10
9.5735336e-10
9.4615754e-10
9.3501688e-10
9.2394116e-10
9.129192e-10
9.0191867e-10
8.9094217e-10
8.8000178e-10
8.6908702e-10
8.5817545e-10
8.4726009e-10
8.363503e-10
8.2543108e-10
8.1447822e-10
8.0349188e-10
7.9247374e-10
7.8140293e-10
7.7026393e-10
7.590623e-10
7.4778136e-10
7.3663828e-10
7.2599754e-10
7.1593426e-10
7.0632554e-10
6.9720588e-10
6.885468e-10
6.8030536e-10
6.7243968e-10
6.6492336e-10
6.5773935e-10
6.508624e-10
6.442624e-10
6.3791741e-10
6.3181595e-10
6.2594577e-10
6.2028927e-10
6.1482182e-10
6.0953405e-10
6.0438198e-10
5.9942698e-10
5.9438633e-10
5.8990708e-10
5.8265738e-10
1.9289021e-07
1.7302701e-07
1.6038541e-07
1.4823941e-07
1.4297523e-07
1.4011496e-07
1.3825063e-07
1.3694565e-07
1.3600034e-07
1.3529344e-07
1.347495e-07
1.3432144e-07
1.3397878e-07
1.3370079e-07
1.3347272e-07
1.332838e-07
1.3312592e-07
1.3299283e-07
1.3288047e-07
1.327817e-07
1.3270419e-07
1.3262524e-07
1.3250046e-07
1.1383376e-07
6.6741578e-11
3.9603222e-09
7.3993077e-09
8.3039505e-09
8.1246267e-09
7.7089465e-09
7.3259672e-09
6.9986394e-09
6.7121715e-09
6.4591963e-09
6.2347755e-09
6.0339623e-09
5.8474751e-09
5.6757057e-09
5.5174485e-09
5.3716903e-09
5.2371679e-09
5.1122257e-09
4.9957212e-09
4.8868152e-09
4.7844323e-09
4.6880037e-09
4.5969365e-09
4.5107484e-09
4.4290402e-09
4.3513105e-09
4.2773458e-09
4.206735e-09
4.1391163e-09
4.07438e-09
4.0122553e-09
3.952473e-09
3.8949515e-09
3.8395019e-09
3.7858952e-09
3.7340654e-09
3.6839115e-09
3.6352635e-09
3.5880137e-09
3.5421327e-09
3.4972438e-09
3.4533156e-09
3.4104747e-09
3.3686997e-09
3.3279108e-09
3.2880254e-09
3.2490091e-09
3.2108269e-09
3.1734061e-09
3.1366837e-09
3.1006397e-09
3.0652534e-09
3.0304617e-09
2.9962156e-09
2.9624965e-09
2.9293014e-09
2.896586e-09
2.8642932e-09
2.8323998e-09
2.8009193e-09
2.7698244e-09
2.7390531e-09
2.7085814e-09
2.6784189e-09
2.6485589e-09
2.6189568e-09
2.5895742e-09
2.5604074e-09
2.5314702e-09
2.5027257e-09
2.4741206e-09
2.4456433e-09
2.4173193e-09
2.3891203e-09
2.3609633e-09
2.332855e-09
2.3048266e-09
2.2768512e-09
2.2488713e-09
2.2208689e-09
2.1928679e-09
2.1648299e-09
2.1366925e-09
2.1084559e-09
2.0801242e-09
2.0516438e-09
2.0229741e-09
1.9941293e-09
1.9650662e-09
1.936344e-09
1.9089036e-09
1.8829402e-09
1.8581369e-09
1.8345861e-09
1.8122159e-09
1.7909166e-09
1.7705811e-09
1.751142e-09
1.7325562e-09
1.7147592e-09
1.6976736e-09
1.6812433e-09
1.6654391e-09
1.6502298e-09
1.6355702e-09
1.6213971e-09
1.6076862e-09
1.5943243e-09
1.5814701e-09
1.5683925e-09
1.5567673e-09
1.5379465e-09
1.9287632e-07
1.7298788e-07
1.6049188e-07
1.4825099e-07
1.4293341e-07
1.4004139e-07
1.3815387e-07
1.3683091e-07
1.3587144e-07
1.351534e-07
1.3460062e-07
1.3416543e-07
1.3381691e-07
1.3353403e-07
1.3330183e-07
1.3310936e-07
1.3294841e-07
1.328126e-07
1.3269782e-07
1.3259688e-07
1.3251753e-07
1.3243519e-07
1.3231539e-07
1.1544101e-07
1.3513901e-10
8.5751222e-09
1.6093812e-08
1.8096974e-08
1.7780365e-08
1.6952649e-08
1.6181173e-08
1.5516332e-08
1.4929683e-08
1.44081e-08
1.3942847e-08
1.3524565e-08
1.3134111e-08
1.2773074e-08
1.2439316e-08
1.2130987e-08
1.1845627e-08
1.1579881e-08
1.133147e-08
1.1098728e-08
1.0879447e-08
1.0672499e-08
1.0476683e-08
1.0291017e-08
1.0114699e-08
9.9466881e-09
9.7865631e-09
9.6334664e-09
9.4866442e-09
9.3458846e-09
9.2106212e-09
9.0802897e-09
8.9547309e-09
8.8335462e-09
8.716251e-09
8.6027176e-09
8.4927319e-09
8.3859309e-09
8.282093e-09
8.1811627e-09
8.0822967e-09
7.9854382e-09
7.8908875e-09
7.7986035e-09
7.7084127e-09
7.6201383e-09
7.5337125e-09
7.4490618e-09
7.3660267e-09
7.284471e-09
7.2043559e-09
7.1256399e-09
7.0481841e-09
6.9718799e-09
6.8966904e-09
6.8226136e-09
6.749551e-09
6.6773761e-09
6.6060391e-09
6.5355734e-09
6.4659203e-09
6.3969409e-09
6.3285814e-09
6.2608663e-09
6.193783e-09
6.1272311e-09
6.0611244e-09
5.995456e-09
5.9302585e-09
5.8654497e-09
5.8009087e-09
5.7366098e-09
5.672612e-09
5.6088521e-09
5.5451414e-09
5.481495e-09
5.4179845e-09
5.3545493e-09
5.291058e-09
5.227469e-09
5.1638376e-09
5.100076e-09
5.0360409e-09
4.9717319e-09
4.9071587e-09
4.8421973e-09
4.7767543e-09
4.7108609e-09
4.6444166e-09
4.5787005e-09
4.5158687e-09
4.4563739e-09
4.3994901e-09
4.3454424e-09
4.2940713e-09
4.2451297e-09
4.1983754e-09
4.1536569e-09
4.1108785e-09
4.0698944e-09
4.0305292e-09
3.9926557e-09
3.9562084e-09
3.9211176e-09
3.8872807e-09
3.854553e-09
3.8228799e-09
3.7920017e-09
3.7622841e-09
3.7320453e-09
3.70515e-09
3.6615866e-09
1.9286019e-07
1.7293849e-07
1.6062003e-07
1.4826823e-07
1.4288691e-07
1.3995647e-07
1.3804099e-07
1.3669632e-07
1.3571971e-07
1.3498819e-07
1.3442468e-07
1.3398083e-07
1.336252e-07
1.3333639e-07
1.3309917e-07
1.329024e-07
1.3273771e-07
1.325986e-07
1.3248088e-07
1.323773e-07
1.3229573e-07
1.3220915e-07
1.3209715e-07
1.1695434e-07
2.4445865e-10
1.6399796e-08
3.0998357e-08
3.4998864e-08
3.4577905e-08
3.3169612e-08
3.1834598e-08
3.0671684e-08
2.9634329e-08
2.8703735e-08
2.7867684e-08
2.7111428e-08
2.6400509e-08
2.5739832e-08
2.5126426e-08
2.455757e-08
2.4029198e-08
2.3535453e-08
2.307244e-08
2.2637352e-08
2.2226263e-08
2.1837276e-08
2.1468292e-08
2.1117599e-08
2.0783813e-08
2.0465067e-08
2.0160654e-08
1.9869021e-08
1.9588805e-08
1.9319668e-08
1.9060577e-08
1.8810507e-08
1.8569198e-08
1.8335914e-08
1.8109764e-08
1.7890543e-08
1.7677853e-08
1.7471017e-08
1.7269643e-08
1.7073647e-08
1.6881338e-08
1.6692642e-08
1.6508206e-08
1.6327966e-08
1.6151588e-08
1.5978742e-08
1.5809316e-08
1.5643177e-08
1.5480015e-08
1.5319571e-08
1.5161784e-08
1.5006584e-08
1.4853698e-08
1.4702916e-08
1.4554174e-08
1.4407482e-08
1.4262645e-08
1.4119414e-08
1.3977695e-08
1.3837565e-08
1.369891e-08
1.3561455e-08
1.3425093e-08
1.3289879e-08
1.3155795e-08
1.302264e-08
1.289024e-08
1.2758585e-08
1.2627746e-08
1.2497558e-08
1.2367777e-08
1.2238352e-08
1.2109406e-08
1.1980812e-08
1.1852187e-08
1.172356e-08
1.1595079e-08
1.1466622e-08
1.1337919e-08
1.1208885e-08
1.1079631e-08
1.0949979e-08
1.0819634e-08
1.0688591e-08
1.0556869e-08
1.0424213e-08
1.0290426e-08
1.0155568e-08
1.001943e-08
9.8846311e-09
9.7556054e-09
9.6332979e-09
9.5162125e-09
9.404855e-09
9.2989142e-09
9.1978947e-09
9.1013074e-09
9.0088498e-09
8.920334e-09
8.8354674e-09
8.7538937e-09
8.6753556e-09
8.5997236e-09
8.5268591e-09
8.4565543e-09
8.3885128e-09
8.3226243e-09
8.2583553e-09
8.1964626e-09
8.1334715e-09
8.0773977e-09
7.9865099e-09
1.9284178e-07
1.7287659e-07
1.6077254e-07
1.4829336e-07
1.4283692e-07
1.398605e-07
1.3791163e-07
1.3654097e-07
1.3554385e-07
1.3479613e-07
1.3421975e-07
1.3376549e-07
1.3340131e-07
1.3310537e-07
1.3286211e-07
1.3266016e-07
1.3249096e-07
1.3234789e-07
1.3222663e-07
1.3211987e-07
1.3203563e-07
1.319438e-07
1.3184372e-07
1.1833163e-07
3.8572009e-10
2.7974947e-08
5.3483883e-08
6.0834763e-08
6.05116e-08
5.8442902e-08
5.6432868e-08
5.4658952e-08
5.3055274e-08
5.1600883e-08
5.0283102e-08
4.9082538e-08
4.7943927e-08
4.6879566e-08
4.5886512e-08
4.4961606e-08
4.4099071e-08
4.328993e-08
4.2528422e-08
4.1810462e-08
4.1129917e-08
4.0484047e-08
3.9869662e-08
3.928415e-08
3.8725444e-08
3.81906e-08
3.7678612e-08
3.7186992e-08
3.6713585e-08
3.6257942e-08
3.5818405e-08
3.5393335e-08
3.4982384e-08
3.4584346e-08
3.4197777e-08
3.3822411e-08
3.3457595e-08
3.3102204e-08
3.2755641e-08
3.2417816e-08
3.2085652e-08
3.1759098e-08
3.1439432e-08
3.1126582e-08
3.0819969e-08
3.0519047e-08
3.0223671e-08
2.9933629e-08
2.9648379e-08
2.9367483e-08
2.9090868e-08
2.8818438e-08
2.8549714e-08
2.8284323e-08
2.8022182e-08
2.776333e-08
2.750743e-08
2.7254034e-08
2.700299e-08
2.6754454e-08
2.6508236e-08
2.626384e-08
2.6021076e-08
2.5780059e-08
2.5540769e-08
2.5302844e-08
2.5065971e-08
2.4830138e-08
2.4595482e-08
2.436171e-08
2.4128378e-08
2.3895391e-08
2.3662981e-08
2.3430923e-08
2.3198514e-08
2.2965806e-08
2.2733069e-08
2.2500083e-08
2.226635e-08
2.2031708e-08
2.1796362e-08
2.1559985e-08
2.1322024e-08
2.1082466e-08
2.0841341e-08
2.0598172e-08
2.0352583e-08
2.0104679e-08
1.9854061e-08
1.9605544e-08
1.9367331e-08
1.9141198e-08
1.8924354e-08
1.8717854e-08
1.8521163e-08
1.8333393e-08
1.8153662e-08
1.7981431e-08
1.7816373e-08
1.7657965e-08
1.7505559e-08
1.7358688e-08
1.7217124e-08
1.7080624e-08
1.6948811e-08
1.6821139e-08
1.6697408e-08
1.6576635e-08
1.6460229e-08
1.634173e-08
1.6236122e-08
1.6064787e-08
1.9282111e-07
1.727995e-07
1.6095232e-07
1.4832937e-07
1.4278532e-07
1.3975437e-07
1.3776589e-07
1.3636438e-07
1.3534286e-07
1.3457587e-07
1.3398412e-07
1.3351744e-07
1.3314305e-07
1.3283857e-07
1.325881e-07
1.3237995e-07
1.3220537e-07
1.3205756e-07
1.3193206e-07
1.3182148e-07
1.3173409e-07
1.3163575e-07
1.3155366e-07
1.1955549e-07
5.5226339e-10
4.1668569e-08
8.3792252e-08
9.6463048e-08
9.671466e-08
9.4060681e-08
9.1380751e-08
8.8977367e-08
8.6769068e-08
8.474026e-08
8.2884081e-08
8.1179553e-08
7.9545303e-08
7.8007903e-08
7.6566226e-08
7.5217651e-08
7.3954962e-08
7.2765781e-08
7.1642549e-08
7.0580035e-08
6.9569624e-08
6.8607861e-08
6.769041e-08
6.6813714e-08
6.5975043e-08
6.5170225e-08
6.4398014e-08
6.3654823e-08
6.2937598e-08
6.2245852e-08
6.1577181e-08
6.0929243e-08
6.0301653e-08
5.9692621e-08
5.9100045e-08
5.8523669e-08
5.7962507e-08
5.7414876e-08
5.6879985e-08
5.6357782e-08
5.584309e-08
5.5335986e-08
5.4838812e-08
5.435152e-08
5.3873195e-08
5.3403025e-08
5.2940867e-08
5.2486426e-08
5.2038835e-08
5.1597427e-08
5.1162148e-08
5.0732887e-08
5.0308887e-08
4.9889543e-08
4.9474767e-08
4.9064675e-08
4.8658725e-08
4.8256193e-08
4.7856853e-08
4.7460996e-08
4.7068332e-08
4.6678057e-08
4.6289857e-08
4.5903947e-08
4.5520321e-08
4.5138387e-08
4.4757629e-08
4.4378036e-08
4.3999855e-08
4.362261e-08
4.3245567e-08
4.2868567e-08
4.2492006e-08
4.2115521e-08
4.1737949e-08
4.1359363e-08
4.0980215e-08
4.0600145e-08
4.0218318e-08
3.9834454e-08
3.9448894e-08
3.9061089e-08
3.8670111e-08
3.8275916e-08
3.7878551e-08
3.7477206e-08
3.7071231e-08
3.666078e-08
3.6245167e-08
3.5832361e-08
3.5436036e-08
3.5059188e-08
3.4697063e-08
3.4351711e-08
3.4022313e-08
3.3707444e-08
3.3405673e-08
3.3116137e-08
3.2838337e-08
3.2571428e-08
3.2314349e-08
3.2066342e-08
3.1827051e-08
3.1596091e-08
3.1372848e-08
3.1156419e-08
3.0946478e-08
3.0741394e-08
3.0543524e-08
3.0342068e-08
3.0162266e-08
2.9870248e-08
1.9279824e-07
1.7270407e-07
1.6116246e-07
1.4838013e-07
1.4273492e-07
1.3963973e-07
1.3760458e-07
1.3616667e-07
1.3511632e-07
1.3432648e-07
1.3371651e-07
1.3323507e-07
1.3284854e-07
1.3253392e-07
1.3227486e-07
1.3205934e-07
1.3187836e-07
1.317249e-07
1.3159437e-07
1.3147924e-07
1.3138812e-07
1.3128178e-07
1.3122648e-07
1.2067362e-07
7.5692889e-10
5.6148122e-08
1.1826999e-07
1.4162554e-07
1.4348e-07
1.4050842e-07
1.3729732e-07
1.3435352e-07
1.3159128e-07
1.2901218e-07
1.2662509e-07
1.2441312e-07
1.2226243e-07
1.2022522e-07
1.1830498e-07
1.1650116e-07
1.1480572e-07
1.1320292e-07
1.1168377e-07
1.1024228e-07
1.0886728e-07
1.075549e-07
1.0629975e-07
1.050974e-07
1.0394457e-07
1.0283582e-07
1.0176978e-07
1.0074167e-07
9.9747519e-08
9.8786918e-08
9.7856633e-08
9.6953595e-08
9.6077475e-08
9.5225797e-08
9.4395752e-08
9.3587204e-08
9.2798765e-08
9.2028096e-08
9.1274275e-08
9.0537371e-08
8.9809094e-08
8.9089871e-08
8.8383749e-08
8.7690764e-08
8.7009568e-08
8.6339046e-08
8.5679129e-08
8.5029438e-08
8.4388693e-08
8.3755948e-08
8.313122e-08
8.2514416e-08
8.190442e-08
8.1300329e-08
8.0702076e-08
8.0109914e-08
7.9523042e-08
7.8940375e-08
7.8361607e-08
7.7787226e-08
7.7216831e-08
7.6649219e-08
7.6083908e-08
7.5521264e-08
7.4961317e-08
7.4403175e-08
7.3846057e-08
7.3289962e-08
7.2735284e-08
7.2181325e-08
7.1626967e-08
7.1071965e-08
7.0516933e-08
6.9961344e-08
6.940343e-08
6.8843283e-08
6.8281593e-08
6.7717822e-08
6.7150692e-08
6.6579757e-08
6.6005535e-08
6.5427193e-08
6.4843297e-08
6.4253752e-08
6.3658621e-08
6.3056654e-08
6.2446825e-08
6.1829336e-08
6.120311e-08
6.0580122e-08
5.9981075e-08
5.9410514e-08
5.8860923e-08
5.8336032e-08
5.7834718e-08
5.7354903e-08
5.689447e-08
5.6452167e-08
5.60273e-08
5.5618635e-08
5.5224591e-08
5.4844047e-08
5.4476496e-08
5.4121395e-08
5.3777831e-08
5.3444449e-08
5.3120757e-08
5.2804315e-08
5.2498676e-08
5.218753e-08
5.1909363e-08
5.14571e-08
1.9277332e-07
1.7258665e-07
1.6140605e-07
1.4845063e-07
1.4268974e-07
1.3951936e-07
1.3742948e-07
1.3594885e-07
1.3486457e-07
1.340478e-07
1.334163e-07
1.329174e-07
1.3251649e-07
1.3218986e-07
1.3192062e-07
1.3169637e-07
1.315078e-07
1.3134765e-07
1.3121114e-07
1.3109061e-07
1.3099509e-07
1.3087897e-07
1.3086317e-07
1.2170559e-07
1.0015582e-09
7.2489895e-08
1.5623193e-07
1.9157318e-07
1.9739736e-07
1.9529963e-07
1.9241634e-07
1.896392e-07
1.8689216e-07
1.8422394e-07
1.8169074e-07
1.7930075e-07
1.7665452e-07
1.7412653e-07
1.7173022e-07
1.6946932e-07
1.6733606e-07
1.6531165e-07
1.6338633e-07
1.6155398e-07
1.5980098e-07
1.5812354e-07
1.565154e-07
1.5497144e-07
1.5348803e-07
1.5205849e-07
1.5068157e-07
1.4935117e-07
1.4806246e-07
1.4681529e-07
1.4560553e-07
1.4442941e-07
1.4328679e-07
1.4217439e-07
1.4108869e-07
1.4002984e-07
1.3899597e-07
1.3798399e-07
1.3699296e-07
1.3602318e-07
1.3506167e-07
1.3410963e-07
1.3317383e-07
1.3225449e-07
1.3134973e-07
1.3045808e-07
1.2957966e-07
1.2871402e-07
1.2785937e-07
1.2701444e-07
1.2617937e-07
1.2535416e-07
1.2453725e-07
1.2372735e-07
1.2292446e-07
1.2212905e-07
1.2134001e-07
1.205558e-07
1.1977604e-07
1.1900148e-07
1.1823161e-07
1.1746474e-07
1.1670017e-07
1.1593847e-07
1.1517976e-07
1.1442277e-07
1.1366638e-07
1.1291062e-07
1.1215609e-07
1.1140182e-07
1.1064622e-07
1.0988894e-07
1.0913089e-07
1.0837133e-07
1.0760778e-07
1.0684034e-07
1.0606998e-07
1.0529598e-07
1.0451651e-07
1.0373092e-07
1.0293994e-07
1.0214241e-07
1.0133628e-07
1.0052137e-07
9.9697779e-08
9.8863723e-08
9.8017701e-08
9.7159972e-08
9.6288979e-08
9.5421323e-08
9.4585919e-08
9.3789017e-08
9.3019299e-08
9.2283256e-08
9.157948e-08
9.0905152e-08
9.0257368e-08
8.9634439e-08
8.9035475e-08
8.8458806e-08
8.7902247e-08
8.7364258e-08
8.6844174e-08
8.6341285e-08
8.5854337e-08
8.5381448e-08
8.492193e-08
8.4472436e-08
8.4037847e-08
8.3595646e-08
8.3199601e-08
8.2555087e-08
1.9274661e-07
1.7244315e-07
1.6168596e-07
1.4854715e-07
1.4265529e-07
1.3939744e-07
1.3724368e-07
1.357131e-07
1.3458907e-07
1.3374067e-07
1.3308382e-07
1.3256434e-07
1.3214646e-07
1.3180564e-07
1.3152438e-07
1.312898e-07
1.3109225e-07
1.3092419e-07
1.3078062e-07
1.3065368e-07
1.3055298e-07
1.3042506e-07
1.3046694e-07
1.2262724e-07
1.2878939e-09
9.0585111e-08
1.9881283e-07
2.4976818e-07
2.6080146e-07
2.5970813e-07
2.5699314e-07
2.5416984e-07
2.5121661e-07
2.4823722e-07
2.4533954e-07
2.4255933e-07
2.3972776e-07
2.3697855e-07
2.3434717e-07
2.3184763e-07
2.2947581e-07
2.2721187e-07
2.2504788e-07
2.2297998e-07
2.2099364e-07
2.1908671e-07
2.1725317e-07
2.1548797e-07
2.1378809e-07
2.1214629e-07
2.10562e-07
2.090281e-07
2.075395e-07
2.0609679e-07
2.0469505e-07
2.0333026e-07
2.0200288e-07
2.0070874e-07
1.9944388e-07
1.9820931e-07
1.9700252e-07
1.958196e-07
1.9466012e-07
1.9352505e-07
1.9234636e-07
1.9114689e-07
1.899667e-07
1.8880636e-07
1.8766327e-07
1.8653562e-07
1.8542383e-07
1.8432744e-07
1.83244e-07
1.8217186e-07
1.8111142e-07
1.800628e-07
1.7902394e-07
1.7799306e-07
1.7697026e-07
1.7595636e-07
1.7494989e-07
1.7394873e-07
1.7295242e-07
1.719621e-07
1.7097715e-07
1.6999529e-07
1.6901555e-07
1.6803877e-07
1.6706521e-07
1.6609317e-07
1.6512112e-07
1.6414912e-07
1.6317804e-07
1.6220663e-07
1.6123274e-07
1.6025587e-07
1.592773e-07
1.5829611e-07
1.5730894e-07
1.5631589e-07
1.5531832e-07
1.5431527e-07
1.533043e-07
1.522845e-07
1.5125688e-07
1.502199e-07
1.4917081e-07
1.4810933e-07
1.4703562e-07
1.4594729e-07
1.4484228e-07
1.4372093e-07
1.4258114e-07
1.4144455e-07
1.4034914e-07
1.3930276e-07
1.3828873e-07
1.3731812e-07
1.3638926e-07
1.3549854e-07
1.3464219e-07
1.3381802e-07
1.3302498e-07
1.3226091e-07
1.3152295e-07
1.3080912e-07
1.3011856e-07
1.2945042e-07
1.2880306e-07
1.2817402e-07
1.2756238e-07
1.2696387e-07
1.2638468e-07
1.2579592e-07
1.2526762e-07
1.2440731e-07
1.9271845e-07
1.7226905e-07
1.6200444e-07
1.4867749e-07
1.42639e-07
1.3927996e-07
1.3705197e-07
1.3546323e-07
1.3429281e-07
1.3340736e-07
1.3272074e-07
1.3217706e-07
1.317392e-07
1.3138166e-07
1.3108621e-07
1.3083945e-07
1.3063131e-07
1.3045391e-07
1.3030201e-07
1.3016751e-07
1.3006068e-07
1.2991879e-07
1.3004416e-07
1.2340878e-07
1.6184166e-09
1.1112085e-07
2.4485298e-07
3.1620934e-07
3.3523693e-07
3.3621224e-07
3.3412674e-07
3.3153038e-07
3.2854505e-07
3.2536001e-07
3.2215691e-07
3.1901437e-07
3.1582373e-07
3.1267889e-07
3.0963831e-07
3.0672878e-07
3.039514e-07
3.0128525e-07
2.9872416e-07
2.9626671e-07
2.9389712e-07
2.9161473e-07
2.8941353e-07
2.8728862e-07
2.8523749e-07
2.8325193e-07
2.8133228e-07
2.7946994e-07
2.7765917e-07
2.7590155e-07
2.7419106e-07
2.7252307e-07
2.708988e-07
2.6931302e-07
2.6776091e-07
2.6624441e-07
2.6476042e-07
2.6330388e-07
2.6187468e-07
2.6047456e-07
2.5907766e-07
2.5768646e-07
2.5631615e-07
2.5496827e-07
2.5363922e-07
2.5232675e-07
2.5103211e-07