/*--------------------------------*- C++ -*----------------------------------*\
  =========                 |
  \\      /  F ield         | OpenFOAM: The Open Source CFD Toolbox
   \\    /   O peration     | Website:  https://openfoam.org
    \\  /    A nd           | Version:  12
     \\/     M anipulation  |
\*---------------------------------------------------------------------------*/
FoamFile
{
    format      ascii;
    class       volScalarField;
    location    "700";
    object      nut;
}
// * * * * * * * * * * * * * * * * * * * * * * * * * * * * * * * * * * * * * //

dimensions      [0 2 -1 0 0 0 0];

internalField   nonuniform List<scalar> 
7480
(
2.5853278e-09
2.522855e-09
2.4622152e-09
2.4106266e-09
2.3742504e-09
2.3579361e-09
2.1242295e-09
1.8326706e-09
1.6240001e-09
1.4638035e-09
1.3668809e-09
1.1927784e-09
2.3461519e-07
3.4423312e-06
5.5166766e-06
6.8688751e-06
7.6635775e-06
8.0701925e-06
8.2791345e-06
8.2717462e-06
8.2274471e-06
8.1446824e-06
7.8464444e-06
7.2033644e-06
6.6522455e-06
6.1829578e-06
5.7889816e-06
5.4744298e-06
5.2181071e-06
5.0088414e-06
4.8409679e-06
4.7109124e-06
4.6151076e-06
4.5497028e-06
4.510625e-06
4.4938574e-06
4.4952753e-06
4.5104965e-06
4.5385743e-06
4.5789954e-06
4.6297138e-06
4.688137e-06
4.7517799e-06
4.81875e-06
4.8885328e-06
4.9581388e-06
5.0266735e-06
5.0930063e-06
5.1557703e-06
5.2136876e-06
5.2684937e-06
5.3186951e-06
5.3626081e-06
5.3993084e-06
5.4287101e-06
5.4513905e-06
5.4682215e-06
5.4802536e-06
5.4893729e-06
5.4966725e-06
5.5024502e-06
5.5067073e-06
5.509537e-06
5.511166e-06
5.5118214e-06
5.5116766e-06
5.5108693e-06
5.5097404e-06
5.5085801e-06
5.5073326e-06
5.5057736e-06
5.5037502e-06
5.5012154e-06
5.4981863e-06
5.494721e-06
5.4909821e-06
5.4871085e-06
5.4830723e-06
5.4787583e-06
5.474098e-06
5.4690963e-06
5.463798e-06
5.4583309e-06
5.4527596e-06
5.4470323e-06
5.4410859e-06
5.4348876e-06
5.4284648e-06
5.4219237e-06
5.4152954e-06
5.4085329e-06
5.4015952e-06
5.3944725e-06
5.3871992e-06
5.379856e-06
5.372226e-06
5.3647553e-06
5.3555708e-06
5.349172e-06
5.3333632e-06
1.0464609e-08
1.0383969e-08
1.0292801e-08
1.0196495e-08
1.009635e-08
9.9928365e-09
9.8865735e-09
9.7787451e-09
9.666189e-09
9.5629605e-09
9.4093909e-09
1.0178426e-08
5.9303869e-10
4.9215167e-07
2.1703903e-06
4.1965012e-06
5.195991e-06
5.405562e-06
5.2525428e-06
5.0695194e-06
4.9868746e-06
4.9853909e-06
5.05258e-06
5.1776437e-06
5.4308206e-06
5.7898026e-06
6.2646294e-06
6.9049767e-06
7.2468958e-06
7.6261126e-06
8.0296146e-06
8.4449008e-06
8.862324e-06
9.2745861e-06
9.6765453e-06
1.0066096e-05
1.0439594e-05
1.0799806e-05
1.11557e-05
1.1510188e-05
1.185613e-05
1.2188126e-05
1.2504113e-05
1.2804478e-05
1.309564e-05
1.3357316e-05
1.3604928e-05
1.3831286e-05
1.4035483e-05
1.4218409e-05
1.4379192e-05
1.4516234e-05
1.4630875e-05
1.4725892e-05
1.4804584e-05
1.4870202e-05
1.4925475e-05
1.4973367e-05
1.5018034e-05
1.5059072e-05
1.5096047e-05
1.5129112e-05
1.5158859e-05
1.518591e-05
1.5210723e-05
1.5233589e-05
1.5254767e-05
1.5274709e-05
1.5293193e-05
1.5309527e-05
1.5323405e-05
1.5334972e-05
1.5344525e-05
1.5352345e-05
1.5358732e-05
1.5363956e-05
1.5367885e-05
1.5370167e-05
1.5370695e-05
1.5369667e-05
1.5367353e-05
1.5364046e-05
1.5359922e-05
1.5354782e-05
1.5348389e-05
1.5340767e-05
1.5332093e-05
1.5322664e-05
1.531263e-05
1.5301813e-05
1.5290057e-05
1.5277406e-05
1.5264055e-05
1.5250185e-05
1.5235711e-05
1.5220502e-05
1.5204544e-05
1.5186964e-05
1.5172687e-05
1.5139704e-05
1.0512942e-08
1.0514133e-08
1.0514974e-08
1.0515377e-08
1.051532e-08
1.0514791e-08
1.0513705e-08
1.0512303e-08
1.0509384e-08
1.0509442e-08
1.049232e-08
1.0547585e-08
1.0291842e-08
1.1146018e-08
2.7555999e-08
1.2900008e-07
4.9162088e-07
1.161021e-06
1.9761667e-06
2.6323054e-06
2.9786426e-06
3.0866813e-06
3.0670656e-06
2.9973863e-06
2.9304336e-06
2.9530072e-06
3.061028e-06
3.2657939e-06
3.5552084e-06
3.9243597e-06
4.3866777e-06
4.8915215e-06
5.4552422e-06
6.0826382e-06
6.7759739e-06
7.5372923e-06
8.3756622e-06
9.3115333e-06
1.01933e-05
1.105289e-05
1.1930299e-05
1.2805162e-05
1.366124e-05
1.449549e-05
1.5309834e-05
1.6107602e-05
1.6872962e-05
1.7587633e-05
1.8262617e-05
1.8899911e-05
1.9372639e-05
1.9798009e-05
2.0185015e-05
2.0539238e-05
2.0864196e-05
2.1162961e-05
2.1439561e-05
2.1697791e-05
2.1937096e-05
2.2158011e-05
2.2362363e-05
2.2552407e-05
2.273018e-05
2.2897381e-05
2.3055157e-05
2.3204229e-05
2.3345366e-05
2.3478158e-05
2.3601902e-05
2.3716801e-05
2.3823592e-05
2.3923067e-05
2.4015938e-05
2.4102815e-05
2.4184363e-05
2.426046e-05
2.4330499e-05
2.4394539e-05
2.4453175e-05
2.4507073e-05
2.4556712e-05
2.4602651e-05
2.4644704e-05
2.4682409e-05
2.4715839e-05
2.4745502e-05
2.4771875e-05
2.4795516e-05
2.4816265e-05
2.4833734e-05
2.4848011e-05
2.4859497e-05
2.4868672e-05
2.4875689e-05
2.4880121e-05
2.4882318e-05
2.4881255e-05
2.4879951e-05
2.4872625e-05
2.4860249e-05
1.072457e-08
1.0729259e-08
1.0734116e-08
1.0738878e-08
1.0743466e-08
1.0747855e-08
1.0752035e-08
1.0755998e-08
1.0759733e-08
1.0763228e-08
1.0766524e-08
1.0769409e-08
1.0771985e-08
1.0780516e-08
1.0755934e-08
1.0906153e-08
1.1685779e-08
1.5424717e-08
3.0581006e-08
6.982709e-08
1.436416e-07
2.5648193e-07
4.069278e-07
5.8789715e-07
7.9205892e-07
9.9918252e-07
1.195078e-06
1.3764817e-06
1.5462247e-06
1.709628e-06
1.8762061e-06
2.0536178e-06
2.2484963e-06
2.5014662e-06
2.8190625e-06
3.2061086e-06
3.6771426e-06
4.2452498e-06
4.9083982e-06
5.6907224e-06
6.6143443e-06
7.6853601e-06
8.8500268e-06
9.8875592e-06
1.0978106e-05
1.2111477e-05
1.3273698e-05
1.4441438e-05
1.560783e-05
1.6761238e-05
1.7886982e-05
1.8983158e-05
2.0008018e-05
2.0977136e-05
2.1902511e-05
2.2783215e-05
2.3620096e-05
2.4389156e-05
2.5001319e-05
2.5571226e-05
2.6106189e-05
2.6612087e-05
2.7092514e-05
2.7549323e-05
2.7983706e-05
2.8397257e-05
2.8792305e-05
2.9167856e-05
2.9522357e-05
2.9856673e-05
3.0172608e-05
3.0471912e-05
3.0756001e-05
3.1025929e-05
3.1282835e-05
3.1526548e-05
3.1756406e-05
3.1972895e-05
3.2177058e-05
3.2369934e-05
3.2552355e-05
3.2725316e-05
3.2888492e-05
3.3041479e-05
3.3184734e-05
3.3319134e-05
3.3445407e-05
3.3564441e-05
3.3675929e-05
3.377954e-05
3.3875673e-05
3.396504e-05
3.4048399e-05
3.412592e-05
3.4197043e-05
3.4262607e-05
3.4320784e-05
3.4378557e-05
3.4415701e-05
3.4483878e-05
1.0883888e-08
1.0889041e-08
1.0894405e-08
1.0899694e-08
1.090484e-08
1.0909823e-08
1.0914637e-08
1.0919275e-08
1.0923738e-08
1.0928004e-08
1.0932122e-08
1.0935871e-08
1.0939909e-08
1.0942453e-08
1.0944006e-08
1.094627e-08
1.0951864e-08
1.0960277e-08
1.0979572e-08
1.1041082e-08
1.1216712e-08
1.1650534e-08
1.2606942e-08
1.4530233e-08
1.8100293e-08
2.4274872e-08
3.4320305e-08
4.9918008e-08
7.3365489e-08
1.0774076e-07
1.5750711e-07
2.288024e-07
3.3040693e-07
4.6940645e-07
6.5289998e-07
8.8400705e-07
1.1638279e-06
1.4783797e-06
1.8434248e-06
2.2248073e-06
2.6303049e-06
3.1172993e-06
3.7191548e-06
4.4450398e-06
5.2988471e-06
6.3036073e-06
7.4886892e-06
8.8466862e-06
9.9557018e-06
1.1150066e-05
1.2419094e-05
1.374941e-05
1.5110789e-05
1.6492093e-05
1.7875185e-05
1.9242193e-05
2.0593716e-05
2.1878828e-05
2.3114374e-05
2.4313523e-05
2.5471842e-05
2.6581978e-05
2.7629677e-05
2.8622005e-05
2.9571487e-05
3.0484949e-05
3.1368259e-05
3.2137609e-05
3.2826409e-05
3.3481391e-05
3.4106615e-05
3.4704681e-05
3.5277025e-05
3.582476e-05
3.6349829e-05
3.6851273e-05
3.7327576e-05
3.7780004e-05
3.8210542e-05
3.8620931e-05
3.9012461e-05
3.9386649e-05
3.9742778e-05
4.0080468e-05
4.0400643e-05
4.0704633e-05
4.0993521e-05
4.1268638e-05
4.1529449e-05
4.1775799e-05
4.2008492e-05
4.2228573e-05
4.2437119e-05
4.2634303e-05
4.281951e-05
4.2994242e-05
4.3155618e-05
4.3316111e-05
4.3433772e-05
4.3644162e-05
1.0899146e-08
1.0904595e-08
1.0910304e-08
1.0915969e-08
1.0921515e-08
1.092692e-08
1.0932178e-08
1.0937286e-08
1.0942243e-08
1.0947046e-08
1.0951699e-08
1.0956205e-08
1.0960596e-08
1.0964863e-08
1.0969103e-08
1.097314e-08
1.0975603e-08
1.0977529e-08
1.0979913e-08
1.0983334e-08
1.0987988e-08
1.0994749e-08
1.100278e-08
1.1012817e-08
1.1026776e-08
1.1048132e-08
1.108275e-08
1.1142526e-08
1.1245958e-08
1.1423996e-08
1.1731158e-08
1.226924e-08
1.3234088e-08
1.5008629e-08
1.836366e-08
2.4767353e-08
3.717435e-08
6.0564302e-08
1.0478436e-07
1.8607132e-07
3.2590018e-07
5.4718661e-07
8.7590774e-07
1.3055366e-06
1.8587881e-06
2.4363687e-06
3.0060344e-06
3.6721449e-06
4.4635841e-06
5.404582e-06
6.5349895e-06
7.867272e-06
9.4411695e-06
1.0749054e-05
1.2031631e-05
1.3401735e-05
1.4848811e-05
1.6345614e-05
1.789209e-05
1.9462797e-05
2.1033859e-05
2.257877e-05
2.4053138e-05
2.5518823e-05
2.6974846e-05
2.8407071e-05
2.9788565e-05
3.1110477e-05
3.2378517e-05
3.3600288e-05
3.4778882e-05
3.5907362e-05
3.6985659e-05
3.8020151e-05
3.9021945e-05
3.9916325e-05
4.0719352e-05
4.1487401e-05
4.2223636e-05
4.2930207e-05
4.3608444e-05
4.4260425e-05
4.4883674e-05
4.5477712e-05
4.6044465e-05
4.6586029e-05
4.7103953e-05
4.7600095e-05
4.8073264e-05
4.8523438e-05
4.8951926e-05
4.9360209e-05
4.974979e-05
5.0120789e-05
5.0472546e-05
5.0807282e-05
5.112091e-05
5.1432746e-05
5.167237e-05
5.209398e-05
1.0878429e-08
1.08839e-08
1.0889631e-08
1.089532e-08
1.0900891e-08
1.0906325e-08
1.0911615e-08
1.0916758e-08
1.0921752e-08
1.0926597e-08
1.0931295e-08
1.0935852e-08
1.0940286e-08
1.0944626e-08
1.0948892e-08
1.0953082e-08
1.0957146e-08
1.0961044e-08
1.0964733e-08
1.096814e-08
1.0970821e-08
1.0972518e-08
1.0973924e-08
1.0975286e-08
1.0976781e-08
1.0978763e-08
1.0981452e-08
1.0984593e-08
1.0988395e-08
1.0993586e-08
1.1000463e-08
1.1008266e-08
1.1017237e-08
1.1028372e-08
1.1043988e-08
1.1068262e-08
1.1112501e-08
1.1201021e-08
1.1388157e-08
1.180237e-08
1.278475e-08
1.5154099e-08
2.125763e-08
3.6206591e-08
7.3417517e-08
1.5982224e-07
3.3236688e-07
6.4005672e-07
1.106099e-06
1.7578721e-06
2.4857871e-06
3.1664892e-06
3.945269e-06
4.8589025e-06
5.9649238e-06
7.3081939e-06
8.8879304e-06
1.0743612e-05
1.2207758e-05
1.3601805e-05
1.5099569e-05
1.6686841e-05
1.8337214e-05
2.0052736e-05
2.1795332e-05
2.3544778e-05
2.5230439e-05
2.6923486e-05
2.8635296e-05
3.0340733e-05
3.1996988e-05
3.3600554e-05
3.5164861e-05
3.6695256e-05
3.8188586e-05
3.962479e-05
4.0996358e-05
4.2313312e-05
4.3582094e-05
4.4801608e-05
4.5972108e-05
4.7103491e-05
4.8093584e-05
4.9011397e-05
4.9892215e-05
5.0738665e-05
5.1552446e-05
5.2335879e-05
5.3085447e-05
5.3801641e-05
5.4486814e-05
5.5143029e-05
5.5772296e-05
5.6374311e-05
5.6948172e-05
5.7496924e-05
5.8015294e-05
5.8530622e-05
5.8937678e-05
5.9645089e-05
1.0875589e-08
1.0881017e-08
1.0886696e-08
1.0892327e-08
1.0897836e-08
1.0903203e-08
1.0908421e-08
1.0913488e-08
1.09184e-08
1.0923156e-08
1.0927755e-08
1.0932199e-08
1.0936493e-08
1.094064e-08
1.0944641e-08
1.0948488e-08
1.095218e-08
1.0955716e-08
1.0959093e-08
1.0962305e-08
1.0965337e-08
1.0968157e-08
1.0970746e-08
1.0973093e-08
1.0975184e-08
1.0976999e-08
1.0978509e-08
1.0979624e-08
1.0980231e-08
1.0979868e-08
1.0978959e-08
1.0977923e-08
1.0976907e-08
1.0976037e-08
1.0975459e-08
1.097573e-08
1.0976862e-08
1.0978731e-08
1.0982083e-08
1.0988415e-08
1.099654e-08
1.1007745e-08
1.1027547e-08
1.1069602e-08
1.1181293e-08
1.1512821e-08
1.2489227e-08
1.5604891e-08
2.5125912e-08
5.3760038e-08
1.3440043e-07
3.1488678e-07
6.6697997e-07
1.212709e-06
2.0140949e-06
2.8076999e-06
3.6162912e-06
4.5799773e-06
5.7399217e-06
7.1460236e-06
8.8285805e-06
1.0792929e-05
1.2909379e-05
1.4349923e-05
1.5909809e-05
1.7583563e-05
1.9341205e-05
2.1190376e-05
2.3094142e-05
2.5024976e-05
2.6903304e-05
2.8808777e-05
3.0748221e-05
3.2688673e-05
3.4583459e-05
3.6446974e-05
3.8291101e-05
4.0106241e-05
4.1874289e-05
4.3586143e-05
4.5245509e-05
4.6862287e-05
4.8417762e-05
4.9902866e-05
5.1326886e-05
5.2698157e-05
5.4017603e-05
5.5292213e-05
5.6395633e-05
5.7437355e-05
5.8438995e-05
5.9402802e-05
6.0331188e-05
6.1222119e-05
6.2074347e-05
6.2892333e-05
6.3669785e-05
6.4442911e-05
6.5065499e-05
6.6136909e-05
1.0881203e-08
1.0886623e-08
1.0892293e-08
1.0897914e-08
1.0903412e-08
1.0908766e-08
1.0913971e-08
1.0919023e-08
1.0923919e-08
1.0928657e-08
1.0933235e-08
1.0937655e-08
1.0941916e-08
1.094602e-08
1.0949963e-08
1.0953738e-08
1.095734e-08
1.0960764e-08
1.0964011e-08
1.0967077e-08
1.0969962e-08
1.0972668e-08
1.0975193e-08
1.0977535e-08
1.0979689e-08
1.0981649e-08
1.0983407e-08
1.0984953e-08
1.0986277e-08
1.0987352e-08
1.0988156e-08
1.0988677e-08
1.0988912e-08
1.0988859e-08
1.0988507e-08
1.0987849e-08
1.0986836e-08
1.098535e-08
1.0982956e-08
1.0979383e-08
1.0975601e-08
1.0972011e-08
1.096902e-08
1.0968055e-08
1.0968188e-08
1.0971546e-08
1.0978798e-08
1.0990659e-08
1.101644e-08
1.1085387e-08
1.1352907e-08
1.2215559e-08
1.566499e-08
2.6887017e-08
6.6889609e-08
1.8225421e-07
4.4530547e-07
9.2671966e-07
1.7238324e-06
2.6473615e-06
3.552757e-06
4.5706594e-06
5.8549374e-06
7.4089602e-06
9.274823e-06
1.1445527e-05
1.3900069e-05
1.5605425e-05
1.727394e-05
1.9070645e-05
2.0965384e-05
2.2967078e-05
2.5032147e-05
2.7119352e-05
2.9168584e-05
3.1288443e-05
3.3461456e-05
3.5631521e-05
3.7771819e-05
3.9891885e-05
4.1993353e-05
4.4062482e-05
4.6091334e-05
4.8071867e-05
5.0004723e-05
5.1881373e-05
5.3694782e-05
5.5454062e-05
5.7142563e-05
5.8757032e-05
6.0304784e-05
6.1794465e-05
6.3234376e-05
6.4521209e-05
6.5705752e-05
6.6847384e-05
6.7938464e-05
6.9024263e-05
6.9911329e-05
7.1426109e-05
1.0887064e-08
1.0892488e-08
1.0898163e-08
1.090379e-08
1.0909293e-08
1.0914653e-08
1.0919864e-08
1.0924921e-08
1.0929823e-08
1.0934568e-08
1.0939154e-08
1.094358e-08
1.0947849e-08
1.095196e-08
1.0955912e-08
1.0959699e-08
1.0963315e-08
1.0966756e-08
1.0970019e-08
1.0973101e-08
1.0976001e-08
1.0978715e-08
1.0981241e-08
1.0983579e-08
1.0985726e-08
1.0987681e-08
1.0989441e-08
1.0991006e-08
1.0992374e-08
1.0993545e-08
1.099452e-08
1.0995294e-08
1.0995864e-08
1.0996225e-08
1.0996371e-08
1.0996296e-08
1.0995989e-08
1.099544e-08
1.099463e-08
1.0993513e-08
1.0992069e-08
1.0990288e-08
1.0988154e-08
1.0985613e-08
1.0982613e-08
1.0977798e-08
1.097194e-08
1.0966132e-08
1.096171e-08
1.0959597e-08
1.0960127e-08
1.0966393e-08
1.0979538e-08
1.1005371e-08
1.1106524e-08
1.1487755e-08
1.3164743e-08
1.9366251e-08
4.5031185e-08
1.3381636e-07
3.7082309e-07
8.3617773e-07
1.6822877e-06
2.7028488e-06
3.7247861e-06
4.8746896e-06
6.3455225e-06
8.148071e-06
1.0315061e-05
1.2796182e-05
1.5534899e-05
1.7399652e-05
1.9225808e-05
2.1180412e-05
2.3239636e-05
2.5408114e-05
2.7644445e-05
2.9882163e-05
3.2160277e-05
3.4519422e-05
3.6916591e-05
3.929568e-05
4.1671723e-05
4.4052295e-05
4.6419048e-05
4.874214e-05
5.1015079e-05
5.3245256e-05
5.5435849e-05
5.7564131e-05
5.9626884e-05
6.1625213e-05
6.3560342e-05
6.5416591e-05
6.7191285e-05
6.8893459e-05
7.0526768e-05
7.2130764e-05
7.3348292e-05
7.5384087e-05
1.0893423e-08
1.089885e-08
1.0904527e-08
1.0910155e-08
1.091566e-08
1.0921022e-08
1.0926233e-08
1.0931292e-08
1.0936195e-08
1.094094e-08
1.0945525e-08
1.0949951e-08
1.0954217e-08
1.0958324e-08
1.0962269e-08
1.0966048e-08
1.0969655e-08
1.0973088e-08
1.0976343e-08
1.0979419e-08
1.0982311e-08
1.098502e-08
1.0987541e-08
1.0989873e-08
1.0992015e-08
1.0993963e-08
1.0995716e-08
1.0997272e-08
1.099863e-08
1.0999787e-08
1.1000743e-08
1.1001497e-08
1.1002047e-08
1.1002393e-08
1.1002534e-08
1.1002469e-08
1.1002197e-08
1.1001719e-08
1.1001034e-08
1.1000146e-08
1.0999053e-08
1.0997751e-08
1.0996234e-08
1.0994485e-08
1.0992498e-08
1.0990218e-08
1.0987586e-08
1.0984576e-08
1.0981137e-08
1.0977293e-08
1.0972084e-08
1.0964724e-08
1.0957059e-08
1.0951761e-08
1.09489e-08
1.0950099e-08
1.0958869e-08
1.0975743e-08
1.1034054e-08
1.1273581e-08
1.25026e-08
1.7610695e-08
4.0999421e-08
1.3175621e-07
3.952806e-07
9.2247726e-07
1.9235787e-06
3.0137297e-06
4.1854288e-06
5.5657895e-06
7.3545216e-06
9.5354737e-06
1.2123403e-05
1.4994409e-05
1.7914911e-05
1.9803669e-05
2.1826115e-05
2.396621e-05
2.6223238e-05
2.8578175e-05
3.0986433e-05
3.3403054e-05
3.5933094e-05
3.8545182e-05
4.1160498e-05
4.3784891e-05
4.6424909e-05
4.9060287e-05
5.1669715e-05
5.4243718e-05
5.6781094e-05
5.9263067e-05
6.167816e-05
6.4040505e-05
6.634208e-05
6.8567911e-05
7.0715586e-05
7.2823176e-05
7.4653066e-05
7.7551897e-05
1.090122e-08
1.0906648e-08
1.0912326e-08
1.0917955e-08
1.092346e-08
1.0928821e-08
1.0934033e-08
1.0939091e-08
1.0943992e-08
1.0948735e-08
1.0953317e-08
1.0957739e-08
1.0961998e-08
1.0966095e-08
1.0970027e-08
1.0973791e-08
1.0977381e-08
1.0980794e-08
1.0984027e-08
1.098708e-08
1.0989949e-08
1.0992633e-08
1.0995128e-08
1.0997434e-08
1.0999549e-08
1.100147e-08
1.1003195e-08
1.1004723e-08
1.1006052e-08
1.100718e-08
1.1008106e-08
1.1008828e-08
1.1009345e-08
1.1009655e-08
1.1009758e-08
1.1009653e-08
1.1009339e-08
1.1008816e-08
1.1008084e-08
1.1007141e-08
1.100599e-08
1.1004631e-08
1.1003064e-08
1.100129e-08
1.0999309e-08
1.0997127e-08
1.0994747e-08
1.0992167e-08
1.0989375e-08
1.0986357e-08
1.0983075e-08
1.0979435e-08
1.0975365e-08
1.0970843e-08
1.0965886e-08
1.0958606e-08
1.0949553e-08
1.0941099e-08
1.0936594e-08
1.0934425e-08
1.0942091e-08
1.0956338e-08
1.1010312e-08
1.1224677e-08
1.2624869e-08
1.917567e-08
5.0675427e-08
1.7828079e-07
5.3073962e-07
1.2739827e-06
2.4796376e-06
3.7287929e-06
5.124953e-06
6.8745917e-06
9.1305885e-06
1.1876894e-05
1.493146e-05
1.817768e-05
2.0741499e-05
2.2872216e-05
2.5121702e-05
2.7475402e-05
2.9950942e-05
3.2517387e-05
3.5078107e-05
3.7785084e-05
4.0604625e-05
4.3445807e-05
4.6313222e-05
4.9216756e-05
5.213176e-05
5.5019974e-05
5.7871529e-05
6.0695673e-05
6.3475122e-05
6.6191937e-05
6.8837474e-05
7.1444218e-05
7.3766181e-05
7.7489339e-05
1.0909781e-08
1.0915212e-08
1.0920893e-08
1.0926525e-08
1.0932033e-08
1.0937397e-08
1.0942611e-08
1.0947671e-08
1.0952574e-08
1.0957318e-08
1.0961902e-08
1.0966323e-08
1.0970582e-08
1.0974676e-08
1.0978604e-08
1.0982363e-08
1.0985946e-08
1.0989353e-08
1.0992579e-08
1.0995623e-08
1.0998483e-08
1.1001157e-08
1.1003642e-08
1.1005936e-08
1.1008038e-08
1.1009945e-08
1.1011656e-08
1.1013169e-08
1.1014482e-08
1.1015594e-08
1.1016502e-08
1.1017206e-08
1.1017704e-08
1.1017994e-08
1.1018077e-08
1.101795e-08
1.1017613e-08
1.1017066e-08
1.1016307e-08
1.1015336e-08
1.1014154e-08
1.1012759e-08
1.1011152e-08
1.1009334e-08
1.1007303e-08
1.1005063e-08
1.1002613e-08
1.0999955e-08
1.0997093e-08
1.0994026e-08
1.0990758e-08
1.09873e-08
1.0983653e-08
1.0979796e-08
1.0975718e-08
1.0971342e-08
1.096655e-08
1.0961277e-08
1.0955533e-08
1.0948589e-08
1.0938328e-08
1.0928147e-08
1.0922629e-08
1.0919369e-08
1.0926693e-08
1.0945866e-08
1.1005121e-08
1.1392353e-08
1.381715e-08
2.6741286e-08
8.8054988e-08
3.2581438e-07
8.9119443e-07
2.0650206e-06
3.4088569e-06
4.8973654e-06
6.7266548e-06
9.0804843e-06
1.2034038e-05
1.5331954e-05
1.8814147e-05
2.2072256e-05
2.4342153e-05
2.6716242e-05
2.9180274e-05
3.1787992e-05
3.4505913e-05
3.7235012e-05
4.0127073e-05
4.3155589e-05
4.6223562e-05
4.9340261e-05
5.250703e-05
5.5692163e-05
5.8862883e-05
6.2012017e-05
6.5119949e-05
6.8211196e-05
7.0972396e-05
7.5483023e-05
1.0918102e-08
1.0923538e-08
1.0929223e-08
1.093486e-08
1.0940373e-08
1.0945741e-08
1.095096e-08
1.0956024e-08
1.0960932e-08
1.0965681e-08
1.0970269e-08
1.0974695e-08
1.0978957e-08
1.0983055e-08
1.0986986e-08
1.0990747e-08
1.0994335e-08
1.0997746e-08
1.1000977e-08
1.1004026e-08
1.1006891e-08
1.1009569e-08
1.1012058e-08
1.1014357e-08
1.1016464e-08
1.1018375e-08
1.102009e-08
1.1021606e-08
1.1022922e-08
1.1024036e-08
1.1024947e-08
1.1025652e-08
1.1026151e-08
1.1026443e-08
1.1026525e-08
1.1026398e-08
1.102606e-08
1.1025511e-08
1.1024751e-08
1.1023777e-08
1.1022592e-08
1.1021193e-08
1.1019581e-08
1.1017756e-08
1.1015719e-08
1.1013468e-08
1.1011006e-08
1.1008332e-08
1.1005447e-08
1.1002351e-08
1.0999047e-08
1.0995536e-08
1.0991821e-08
1.0987905e-08
1.0983789e-08
1.0979482e-08
1.0974994e-08
1.097032e-08
1.0965427e-08
1.0960294e-08
1.0954743e-08
1.0948688e-08
1.0942108e-08
1.0934525e-08
1.0923064e-08
1.0912003e-08
1.0905458e-08
1.0904167e-08
1.0912068e-08
1.0947761e-08
1.1051767e-08
1.2166546e-08
1.8689123e-08
5.6927381e-08
2.2496347e-07
7.0323494e-07
1.8508202e-06
3.2847014e-06
4.8970719e-06
6.8781859e-06
9.4077536e-06
1.2656179e-05
1.6255043e-05
2.0004372e-05
2.380041e-05
2.624035e-05
2.8751695e-05
3.1348469e-05
3.4100016e-05
3.6975162e-05
3.9878039e-05
4.2984166e-05
4.62404e-05
4.955158e-05
5.2931595e-05
5.6375097e-05
5.9830414e-05
6.3328208e-05
6.6475112e-05
7.1715853e-05
1.0925889e-08
1.0931329e-08
1.0937019e-08
1.0942661e-08
1.0948178e-08
1.0953551e-08
1.0958774e-08
1.0963843e-08
1.0968756e-08
1.0973509e-08
1.0978102e-08
1.0982532e-08
1.0986799e-08
1.0990901e-08
1.0994836e-08
1.0998601e-08
1.1002193e-08
1.1005609e-08
1.1008845e-08
1.10119e-08
1.1014771e-08
1.1017456e-08
1.1019952e-08
1.1022258e-08
1.1024371e-08
1.102629e-08
1.1028012e-08
1.1029535e-08
1.1030858e-08
1.1031979e-08
1.1032897e-08
1.1033609e-08
1.1034116e-08
1.1034414e-08
1.1034503e-08
1.1034383e-08
1.1034052e-08
1.1033509e-08
1.1032755e-08
1.1031788e-08
1.1030608e-08
1.1029215e-08
1.102761e-08
1.1025791e-08
1.1023759e-08
1.1021514e-08
1.1019057e-08
1.1016389e-08
1.1013509e-08
1.1010418e-08
1.1007118e-08
1.1003608e-08
1.0999891e-08
1.0995966e-08
1.0991836e-08
1.0987503e-08
1.0982969e-08
1.0978239e-08
1.0973315e-08
1.0968201e-08
1.0962914e-08
1.0957456e-08
1.0951786e-08
1.0945886e-08
1.0939567e-08
1.0932628e-08
1.0925403e-08
1.0915663e-08
1.0902864e-08
1.0892871e-08
1.0886209e-08
1.0889456e-08
1.0914407e-08
1.0955277e-08
1.1594452e-08
1.5885702e-08
4.5601806e-08
1.870118e-07
6.3980309e-07
1.837025e-06
3.3851988e-06
5.1604077e-06
7.3668396e-06
1.0199012e-05
1.3822575e-05
1.7768209e-05
2.180559e-05
2.5859272e-05
2.8550373e-05
3.1217614e-05
3.3977449e-05
3.6906392e-05
3.995563e-05
4.3075518e-05
4.6418497e-05
4.9907212e-05
5.3470036e-05
5.7191458e-05
6.0583718e-05
6.6399895e-05
1.0933164e-08
1.0938607e-08
1.0944302e-08
1.0949947e-08
1.0955469e-08
1.0960847e-08
1.0966074e-08
1.0971147e-08
1.0976063e-08
1.0980821e-08
1.0985418e-08
1.0989852e-08
1.0994122e-08
1.0998227e-08
1.1002165e-08
1.1005934e-08
1.1009529e-08
1.1012948e-08
1.1016188e-08
1.1019247e-08
1.1022123e-08
1.1024812e-08
1.1027313e-08
1.1029624e-08
1.1031742e-08
1.1033665e-08
1.1035392e-08
1.103692e-08
1.1038248e-08
1.1039375e-08
1.1040297e-08
1.1041015e-08
1.1041526e-08
1.1041829e-08
1.1041924e-08
1.1041808e-08
1.1041482e-08
1.1040945e-08
1.1040196e-08
1.1039234e-08
1.1038059e-08
1.1036671e-08
1.103507e-08
1.1033257e-08
1.103123e-08
1.1028991e-08
1.1026539e-08
1.1023876e-08
1.1021001e-08
1.1017917e-08
1.1014622e-08
1.1011119e-08
1.1007408e-08
1.100349e-08
1.0999367e-08
1.099504e-08
1.0990509e-08
1.0985777e-08
1.0980845e-08
1.0975715e-08
1.097039e-08
1.0964876e-08
1.0959176e-08
1.0953294e-08
1.0947251e-08
1.094104e-08
1.0934643e-08
1.0927953e-08
1.0920815e-08
1.0912906e-08
1.090499e-08
1.0891573e-08
1.0877808e-08
1.0869277e-08
1.0868166e-08
1.0887578e-08
1.0913921e-08
1.1405224e-08
1.5078601e-08
4.4757011e-08
1.9097877e-07
6.8533672e-07
2.0463332e-06
3.7617068e-06
5.743588e-06
8.2571744e-06
1.1573432e-05
1.5618267e-05
1.9919881e-05
2.4243667e-05
2.852484e-05
3.1334072e-05
3.4162058e-05
3.71058e-05
4.0225512e-05
4.3453295e-05
4.6830059e-05
5.0511692e-05
5.3885404e-05
5.9962156e-05
1.0939966e-08
1.0945413e-08
1.0951111e-08
1.0956761e-08
1.0962286e-08
1.0967668e-08
1.0972899e-08
1.0977976e-08
1.0982896e-08
1.0987657e-08
1.0992258e-08
1.0996696e-08
1.1000969e-08
1.1005077e-08
1.1009018e-08
1.1012788e-08
1.1016386e-08
1.1019808e-08
1.1023051e-08
1.1026113e-08
1.1028992e-08
1.1031685e-08
1.1034189e-08
1.1036503e-08
1.1038624e-08
1.1040551e-08
1.1042282e-08
1.1043813e-08
1.1045145e-08
1.1046275e-08
1.1047201e-08
1.1047922e-08
1.1048436e-08
1.1048743e-08
1.104884e-08
1.1048728e-08
1.1048405e-08
1.1047871e-08
1.1047125e-08
1.1046166e-08
1.1044994e-08
1.1043609e-08
1.1042011e-08
1.10402e-08
1.1038176e-08
1.103594e-08
1.1033491e-08
1.1030831e-08
1.1027959e-08
1.1024877e-08
1.1021586e-08
1.1018085e-08
1.1014378e-08
1.1010463e-08
1.1006344e-08
1.100202e-08
1.0997493e-08
1.0992765e-08
1.0987838e-08
1.0982712e-08
1.0977389e-08
1.0971872e-08
1.0966162e-08
1.0960262e-08
1.0954176e-08
1.0947909e-08
1.0941465e-08
1.0934854e-08
1.0928102e-08
1.0921167e-08
1.0914064e-08
1.0906594e-08
1.0898236e-08
1.0890169e-08
1.0877108e-08
1.0861604e-08
1.0852471e-08
1.0847693e-08
1.0868751e-08
1.0887197e-08
1.1410167e-08
1.5674292e-08
5.3495449e-08
2.4047877e-07
8.7980642e-07
2.5037294e-06
4.4476192e-06
6.762632e-06
9.7287823e-06
1.3616224e-05
1.8101394e-05
2.274349e-05
2.7351356e-05
3.1573527e-05
3.4562947e-05
3.7585925e-05
4.0750379e-05
4.4144525e-05
4.7210117e-05
5.3122784e-05
1.0946326e-08
1.0951777e-08
1.0957479e-08
1.0963132e-08
1.0968661e-08
1.0974046e-08
1.0979281e-08
1.0984361e-08
1.0989285e-08
1.099405e-08
1.0998654e-08
1.1003095e-08
1.1007371e-08
1.1011482e-08
1.1015425e-08
1.1019198e-08
1.1022798e-08
1.1026222e-08
1.1029467e-08
1.1032532e-08
1.1035413e-08
1.1038108e-08
1.1040615e-08
1.1042931e-08
1.1045055e-08
1.1046985e-08
1.1048718e-08
1.1050252e-08
1.1051586e-08
1.1052719e-08
1.1053647e-08
1.1054371e-08
1.1054887e-08
1.1055196e-08
1.1055296e-08
1.1055186e-08
1.1054866e-08
1.1054333e-08
1.1053589e-08
1.1052632e-08
1.1051462e-08
1.1050079e-08
1.1048483e-08
1.1046673e-08
1.1044651e-08
1.1042416e-08
1.1039969e-08
1.103731e-08
1.103444e-08
1.1031359e-08
1.1028069e-08
1.102457e-08
1.1020863e-08
1.101695e-08
1.1012832e-08
1.1008509e-08
1.1003984e-08
1.0999257e-08
1.0994331e-08
1.0989207e-08
1.0983886e-08
1.0978371e-08
1.0972664e-08
1.0966765e-08
1.0960678e-08
1.0954405e-08
1.0947947e-08
1.0941309e-08
1.0934494e-08
1.0927512e-08
1.0920358e-08
1.0913072e-08
1.0905636e-08
1.0898059e-08
1.0890182e-08
1.088145e-08
1.0872827e-08
1.0860531e-08
1.0844262e-08
1.0833997e-08
1.082885e-08
1.0850624e-08
1.087167e-08
1.1648067e-08
1.8457729e-08
8.0010596e-08
3.6629533e-07
1.3930981e-06
3.2590064e-06
5.4636505e-06
8.2297551e-06
1.1888689e-05
1.6413571e-05
2.1357165e-05
2.6308698e-05
3.1203655e-05
3.5145568e-05
3.8347807e-05
4.1261733e-05
4.6695663e-05
1.0952275e-08
1.0957728e-08
1.0963434e-08
1.0969091e-08
1.0974623e-08
1.0980012e-08
1.098525e-08
1.0990333e-08
1.099526e-08
1.1000028e-08
1.1004635e-08
1.1009079e-08
1.1013359e-08
1.1017472e-08
1.1021417e-08
1.1025191e-08
1.1028793e-08
1.1032219e-08
1.1035466e-08
1.1038532e-08
1.1041415e-08
1.1044112e-08
1.1046621e-08
1.1048939e-08
1.1051065e-08
1.1052996e-08
1.1054731e-08
1.1056268e-08
1.1057604e-08
1.1058738e-08
1.1059668e-08
1.1060393e-08
1.1060911e-08
1.1061222e-08
1.1061324e-08
1.1061215e-08
1.1060896e-08
1.1060365e-08
1.1059622e-08
1.1058666e-08
1.1057497e-08
1.1056115e-08
1.105452e-08
1.1052711e-08
1.105069e-08
1.1048456e-08
1.1046009e-08
1.1043351e-08
1.1040481e-08
1.1037401e-08
1.1034111e-08
1.1030613e-08
1.1026906e-08
1.1022993e-08
1.1018875e-08
1.1014553e-08
1.1010028e-08
1.1005301e-08
1.1000375e-08
1.0995251e-08
1.098993e-08
1.0984415e-08
1.0978708e-08
1.097281e-08
1.0966723e-08
1.096045e-08
1.0953993e-08
1.0947355e-08
1.0940536e-08
1.0933541e-08
1.0926371e-08
1.0919031e-08
1.0911531e-08
1.0903868e-08
1.0896074e-08
1.0888158e-08
1.0880091e-08
1.0871819e-08
1.0862641e-08
1.085369e-08
1.0840613e-08
1.0823657e-08
1.0811915e-08
1.0813122e-08
1.0826039e-08
1.0928755e-08
1.2451642e-08
2.8900493e-08
1.5151982e-07
6.5014433e-07
2.2525494e-06
4.4583904e-06
7.0700553e-06
1.0467927e-05
1.4959743e-05
2.0084904e-05
2.5381637e-05
3.07203e-05
3.5391734e-05
4.0840056e-05
1.0957838e-08
1.0963295e-08
1.0969004e-08
1.0974664e-08
1.09802e-08
1.0985591e-08
1.0990832e-08
1.0995919e-08
1.1000849e-08
1.100562e-08
1.101023e-08
1.1014677e-08
1.1018958e-08
1.1023074e-08
1.102702e-08
1.1030796e-08
1.1034399e-08
1.1037826e-08
1.1041075e-08
1.1044142e-08
1.1047026e-08
1.1049725e-08
1.1052235e-08
1.1054555e-08
1.1056682e-08
1.1058614e-08
1.106035e-08
1.1061888e-08
1.1063225e-08
1.106436e-08
1.1065292e-08
1.1066018e-08
1.1066537e-08
1.1066849e-08
1.1066951e-08
1.1066843e-08
1.1066525e-08
1.1065995e-08
1.1065252e-08
1.1064297e-08
1.1063129e-08
1.1061747e-08
1.1060152e-08
1.1058344e-08
1.1056323e-08
1.1054088e-08
1.1051642e-08
1.1048983e-08
1.1046114e-08
1.1043033e-08
1.1039743e-08
1.1036244e-08
1.1032538e-08
1.1028624e-08
1.1024505e-08
1.1020182e-08
1.1015656e-08
1.1010929e-08
1.1006002e-08
1.1000877e-08
1.0995556e-08
1.099004e-08
1.0984331e-08
1.0978432e-08
1.0972345e-08
1.0966071e-08
1.0959613e-08
1.0952973e-08
1.0946154e-08
1.0939159e-08
1.0931988e-08
1.0924646e-08
1.0917135e-08
1.0909457e-08
1.0901615e-08
1.0893622e-08
1.0885474e-08
1.08772e-08
1.0868814e-08
1.0860292e-08
1.0851596e-08
1.0841805e-08
1.0832925e-08
1.0816337e-08
1.0801963e-08
1.0785383e-08
1.0814313e-08
1.075148e-08
1.1176232e-08
1.5160749e-08
6.1986886e-08
3.3600145e-07
1.3824461e-06
3.4689771e-06
6.0404211e-06
9.3107712e-06
1.3719233e-05
1.9121392e-05
2.420137e-05
3.2955857e-05
1.0963044e-08
1.0968504e-08
1.0974216e-08
1.0979879e-08
1.0985417e-08
1.0990812e-08
1.0996056e-08
1.1001145e-08
1.1006078e-08
1.1010852e-08
1.1015464e-08
1.1019913e-08
1.1024197e-08
1.1028314e-08
1.1032263e-08
1.103604e-08
1.1039644e-08
1.1043072e-08
1.1046321e-08
1.104939e-08
1.1052274e-08
1.1054973e-08
1.1057484e-08
1.1059805e-08
1.1061933e-08
1.1063866e-08
1.1065603e-08
1.1067141e-08
1.1068479e-08
1.1069614e-08
1.1070546e-08
1.1071272e-08
1.1071792e-08
1.1072104e-08
1.1072207e-08
1.1072099e-08
1.1071781e-08
1.1071251e-08
1.1070508e-08
1.1069553e-08
1.1068385e-08
1.1067003e-08
1.1065408e-08
1.1063599e-08
1.1061577e-08
1.1059343e-08
1.1056896e-08
1.1054236e-08
1.1051366e-08
1.1048285e-08
1.1044994e-08
1.1041494e-08
1.1037786e-08
1.1033871e-08
1.1029751e-08
1.1025427e-08
1.1020899e-08
1.1016171e-08
1.1011242e-08
1.1006115e-08
1.1000792e-08
1.0995275e-08
1.0989564e-08
1.0983663e-08
1.0977574e-08
1.0971298e-08
1.0964838e-08
1.0958196e-08
1.0951375e-08
1.0944377e-08
1.0937205e-08
1.0929861e-08
1.0922348e-08
1.0914669e-08
1.0906825e-08
1.0898821e-08
1.0890658e-08
1.0882339e-08
1.0873878e-08
1.0865268e-08
1.0856551e-08
1.0847708e-08
1.0838826e-08
1.0829523e-08
1.081933e-08
1.0809847e-08
1.0789076e-08
1.0775057e-08
1.0766649e-08
1.0781197e-08
1.0831813e-08
1.2181086e-08
2.8370933e-08
1.6889138e-07
7.9576443e-07
2.7234916e-06
5.2754593e-06
8.7049227e-06
1.2219162e-05
2.1133448e-05
1.0967914e-08
1.0973376e-08
1.0979091e-08
1.0984756e-08
1.0990298e-08
1.0995695e-08
1.1000942e-08
1.1006034e-08
1.1010969e-08