/*--------------------------------*- C++ -*----------------------------------*\
  =========                 |
  \\      /  F ield         | OpenFOAM: The Open Source CFD Toolbox
   \\    /   O peration     | Website:  https://openfoam.org
    \\  /    A nd           | Version:  12
     \\/     M anipulation  |
\*---------------------------------------------------------------------------*/
FoamFile
{
    format      ascii;
    class       volScalarField;
    location    "700";
    object      omega;
}
// * * * * * * * * * * * * * * * * * * * * * * * * * * * * * * * * * * * * * //

dimensions      [0 0 -1 0 0 0 0];

internalField   nonuniform List<scalar> 
13056
(
413.59224
160.41564
128.66898
123.34572
121.84278
121.50178
121.48637
121.53098
121.57257
121.6079
121.64167
121.67629
121.71239
121.74999
121.78897
121.82937
121.8708
121.91518
121.95466
122.02369
121.9829
122.39864
121.05541
188.94202
15925793
15925793
15925793
15925793
15925793
15925793
15925793
15925793
15925793
15925793
15925793
15925793
15925793
15925793
15925793
15925793
15925793
15925793
15925793
15925793
15925793
15925793
15925793
15925793
15925793
15925793
15925793
15925793
15925793
15925793
15925793
15925793
15925793
15925793
15925793
15925793
15925793
15925793
15925793
15925793
15925793
15925793
15925793
15925793
15925793
15925793
15925793
15925793
15925793
15925793
15925793
15925793
15925793
15925793
15925793
15925793
15925793
15925793
15925793
15925793
15925793
15925793
15925793
15925793
15925793
15925793
15925793
15925793
15925793
15925793
15925793
15925793
15925793
15925793
15925793
15925793
15925793
15925793
15925793
15925793
15925793
15925793
15925793
15925793
15925793
15925793
15925793
15925793
15925793
15925793
15925793
15925793
15925793
15925793
15925793
15925793
15925793
15925793
15925793
15925793
15925793
15925793
15925793
15925793
15925793
15925793
15925793
15925793
15925793
15925793
15925793
15925793
413.59354
160.41275
128.642
123.31367
121.80899
121.4672
121.45143
121.49591
121.5374
121.57268
121.60641
121.641
121.67708
121.71466
121.75362
121.79402
121.83543
121.8798
121.91927
121.98827
121.94734
122.36418
121.01595
185.77734
2727970.7
2723731.9
2723623.5
2723622.9
2723615.1
2723603.4
2723592.3
2723582.9
2723574.9
2723568
2723561.9
2723556.6
2723551.8
2723547.4
2723543.3
2723539.6
2723536.1
2723532.9
2723530
2723527.2
2723524.6
2723522.1
2723519.8
2723517.6
2723515.6
2723513.6
2723511.7
2723509.9
2723508.2
2723506.5
2723505
2723503.4
2723502
2723500.6
2723499.2
2723497.9
2723496.6
2723495.3
2723494.1
2723492.9
2723491.8
2723490.7
2723489.6
2723488.5
2723487.5
2723486.4
2723485.4
2723484.4
2723483.5
2723482.5
2723481.6
2723480.7
2723479.8
2723478.9
2723478
2723477.1
2723476.3
2723475.4
2723474.6
2723473.8
2723473
2723472.2
2723471.4
2723470.6
2723469.8
2723469
2723468.2
2723467.4
2723466.7
2723465.9
2723465.2
2723464.4
2723463.6
2723462.9
2723462.1
2723461.4
2723460.6
2723459.9
2723459.1
2723458.3
2723457.6
2723456.8
2723456.1
2723455.3
2723454.5
2723453.7
2723452.9
2723452.1
2723451.3
2723450.5
2723449.8
2723449.1
2723448.4
2723447.7
2723447.1
2723446.5
2723445.9
2723445.4
2723444.9
2723444.4
2723443.9
2723443.4
2723443
2723442.5
2723442.1
2723441.7
2723441.3
2723440.9
2723440.6
2723440.2
2723439.9
2723439.3
413.5987
160.39558
128.54572
123.20141
121.69107
121.34669
121.32979
121.37372
121.41491
121.45
121.48358
121.51806
121.55405
121.59155
121.63045
121.67078
121.71214
121.75645
121.79588
121.86481
121.82373
122.24216
120.88498
182.12635
912028.59
910428.63
910284.62
910282.24
910254.62
910219.16
910186.63
910159.14
910135.81
910115.66
910098.01
910082.36
910068.12
910055.08
910043.09
910032.06
910021.89
910012.45
910003.66
909995.44
909987.72
909980.45
909973.57
909967.06
909960.88
909955
909949.4
909944.05
909938.92
909934
909929.28
909924.72
909920.34
909916.11
909912.01
909908.04
909904.2
909900.47
909896.84
909893.31
909889.87
909886.5
909883.21
909879.99
909876.85
909873.77
909870.76
909867.8
909864.9
909862.06
909859.26
909856.5
909853.79
909851.11
909848.48
909845.88
909843.31
909840.77
909838.26
909835.78
909833.33
909830.89
909828.48
909826.09
909823.71
909821.35
909819.01
909816.68
909814.36
909812.06
909809.76
909807.46
909805.18
909802.9
909800.62
909798.34
909796.06
909793.78
909791.5
909789.2
909786.91
909784.6
909782.29
909779.95
909777.61
909775.25
909772.86
909770.46
909768.03
909765.62
909763.31
909761.12
909759.04
909757.05
909755.16
909753.36
909751.63
909749.98
909748.39
909746.87
909745.41
909744
909742.65
909741.34
909740.07
909738.85
909737.66
909736.5
909735.39
909734.24
909733.23
909731.58
413.60782
160.36411
128.3777
123.00592
121.48582
121.13694
121.11809
121.16105
121.20171
121.23645
121.26978
121.30406
121.33988
121.37724
121.41601
121.45623
121.49749
121.54171
121.58105
121.64986
121.60863
122.02895
120.65918
178.31961
424459.8
421878.13
421643.79
421633.76
421574.58
421501.01
421434.09
421377.57
421329.56
421288.05
421251.65
421219.36
421189.94
421162.99
421138.22
421115.41
421094.35
421074.82
421056.6
421039.57
421023.56
421008.47
420994.2
420980.69
420967.87
420955.65
420944.01
420932.88
420922.21
420911.99
420902.16
420892.69
420883.56
420874.75
420866.22
420857.95
420849.94
420842.17
420834.6
420827.24
420820.05
420813.02
420806.15
420799.44
420792.89
420786.47
420780.17
420774
420767.94
420761.99
420756.14
420750.38
420744.71
420739.12
420733.61
420728.17
420722.8
420717.49
420712.24
420707.05
420701.91
420696.81
420691.76
420686.74
420681.77
420676.83
420671.92
420667.03
420662.17
420657.34
420652.52
420647.71
420642.92
420638.14
420633.35
420628.56
420623.78
420618.99
420614.2
420609.39
420604.56
420599.72
420594.85
420589.95
420585.02
420580.05
420575.04
420569.98
420564.87
420559.8
420554.95
420550.35
420545.95
420541.78
420537.8
420534
420530.36
420526.88
420523.54
420520.34
420517.26
420514.29
420511.43
420508.67
420506.01
420503.43
420500.92
420498.48
420496.13
420493.7
420491.57
420488.1
413.62103
160.31837
128.13414
122.72244
121.18814
120.83272
120.81103
120.85255
120.89243
120.92666
120.95962
120.99359
121.02917
121.06632
121.10491
121.14497
121.18608
121.23015
121.26937
121.33799
121.29661
121.71888
120.33316
174.41335
238272.84
234356.88
233981.94
233952.33
233849.85
233725.6
233613.07
233517.96
233437.08
233367.09
233305.66
233251.11
233201.39
233155.84
233113.92
233075.28
233039.61
233006.48
232975.59
232946.68
232919.49
232893.84
232869.59
232846.6
232824.78
232803.97
232784.15
232765.19
232747.01
232729.57
232712.8
232696.63
232681.05
232666
232651.43
232637.31
232623.62
232610.33
232597.38
232584.78
232572.48
232560.45
232548.69
232537.2
232525.97
232514.97
232504.18
232493.6
232483.21
232473.01
232462.96
232453.08
232443.35
232433.75
232424.29
232414.94
232405.71
232396.59
232387.57
232378.63
232369.79
232361.02
232352.33
232343.7
232335.14
232326.63
232318.17
232309.76
232301.39
232293.06
232284.75
232276.46
232268.19
232259.94
232251.69
232243.43
232235.17
232226.91
232218.62
232210.31
232201.98
232193.61
232185.19
232176.72
232168.2
232159.6
232150.92
232142.17
232133.32
232124.54
232116.14
232108.16
232100.55
232093.31
232086.41
232079.82
232073.52
232067.48
232061.69
232056.13
232050.79
232045.63
232040.67
232035.88
232031.25
232026.76
232022.42
232018.17
232014.08
232009.87
232006.17
232000.13
413.63853
160.25845
127.80998
122.34463
120.79121
120.42703
120.4015
120.44108
120.47989
120.51343
120.54586
120.57943
120.61467
120.65154
120.68989
120.72973
120.77063
120.81451
120.85355
120.92194
120.8804
121.30459
119.89934
170.40808
151073.28
146104.59
145525.9
145455.92
145300.32
145117.07
144951.61
144811.59
144692.32
144589.01
144498.24
144417.56
144343.97
144276.49
144214.33
144157
144104.01
144054.76
144008.79
143965.74
143925.22
143886.98
143850.78
143816.46
143783.85
143752.75
143723.09
143694.72
143667.49
143641.35
143616.22
143591.97
143568.58
143546
143524.11
143502.89
143482.31
143462.31
143442.84
143423.87
143405.35
143387.24
143369.52
143352.2
143335.26
143318.67
143302.39
143286.42
143270.74
143255.32
143240.15
143225.21
143210.49
143195.97
143181.65
143167.51
143153.54
143139.72
143126.05
143112.51
143099.11
143085.81
143072.62
143059.53
143046.53
143033.61
143020.76
143007.98
142995.26
142982.59
142969.95
142957.34
142944.76
142932.2
142919.63
142907.05
142894.47
142881.87
142869.24
142856.57
142843.85
142831.08
142818.23
142805.29
142792.27
142779.13
142765.87
142752.48
142738.93
142725.51
142712.63
142700.42
142688.76
142677.66
142667.09
142656.99
142647.32
142638.06
142629.17
142620.64
142612.43
142604.52
142596.89
142589.53
142582.42
142575.53
142568.85
142562.32
142556.04
142549.56
142543.86
142534.58
413.6605
160.18471
127.39916
121.86471
120.2866
119.91131
119.88076
119.91779
119.95521
119.98784
120.01961
120.05264
120.08745
120.12395
120.16197
120.20153
120.24217
120.28579
120.32462
120.3927
120.351
120.77712
119.34824
166.29158
104663.69
99057.506
98194.989
98052.366
97837.172
97593.385
97373.978
97187.951
97029.218
96891.528
96770.409
96662.598
96564.206
96473.873
96390.567
96313.624
96242.422
96176.175
96114.266
96056.232
96001.556
95949.904
95900.973
95854.535
95810.366
95768.216
95727.986
95689.47
95652.47
95616.942
95582.75
95549.741
95517.882
95487.092
95457.238
95428.271
95400.171
95372.851
95346.224
95320.279
95294.932
95270.133
95245.87
95222.136
95198.913
95176.151
95153.81
95131.876
95110.33
95089.139
95068.276
95047.724
95027.462
95007.477
94987.746
94968.254
94948.988
94929.926
94911.054
94892.366
94873.847
94855.472
94837.234
94819.128
94801.143
94783.26
94765.465
94747.752
94730.121
94712.551
94695.017
94677.515
94660.051
94642.604
94625.132
94607.641
94590.141
94572.613
94555.026
94537.371
94519.655
94501.851
94483.923
94465.871
94447.69
94429.344
94410.808
94392.086
94373.146
94354.354
94336.33
94319.223
94302.891
94287.333
94272.505
94258.338
94244.769
94231.76
94219.285
94207.303
94195.768
94184.645
94173.919
94163.568
94153.565
94143.867
94134.464
94125.266
94116.415
94107.297
94099.255
94086.179
413.68715
160.09791
126.89476
121.27367
119.66457
119.27547
119.23856
119.27237
119.30801
119.33949
119.3704
119.40276
119.43701
119.47305
119.51067
119.54986
119.59017
119.63348
119.67203
119.73973
119.69787
120.12596
118.66875
162.05101
77687.95
71920.14
70669.616
70409.135
70132.415
69835.371
69569.197
69343.014
69149.653
68981.687
68833.715
68701.791
68581.331
68470.586
68368.292
68273.656
68185.942
68104.214
68027.73
67955.938
67888.212
67824.153
67763.397
67705.668
67650.699
67598.187
67548.013
67499.929
67453.694
67409.254
67366.447
67325.086
67285.128
67246.48
67208.975
67172.556
67137.198
67102.794
67069.241
67036.52
67004.538
66973.234
66942.586
66912.585
66883.21
66854.399
66826.102
66798.302
66770.976
66744.082
66717.589
66691.474
66665.712
66640.286
66615.168
66590.34
66565.783
66541.474
66517.39
66493.529
66469.87
66446.38
66423.052
66399.879
66376.848
66353.935
66331.12
66308.398
66285.767
66263.202
66240.671
66218.168
66195.699
66173.241
66150.737
66128.194
66105.627
66083.011
66060.305
66037.497
66014.597
65991.568
65968.366
65944.988
65921.428
65897.639
65873.588
65849.28
65824.671
65800.24
65776.791
65754.521
65733.254
65712.984
65693.652
65675.174
65657.467
65640.483
65624.187
65608.528
65593.446
65578.899
65564.863
65551.314
65538.214
65525.51
65513.188
65501.129
65489.521
65477.563
65467.008
65449.842
413.71863
159.99933
126.28933
120.5615
118.91417
118.50819
118.4634
118.49318
118.52659
118.55662
118.58645
118.61797
118.65153
118.68698
118.7241
118.76285
118.80274
118.84567
118.88388
118.95112
118.90907
119.33921
117.84837
157.67728
60871.585
55419.32
53658.54
53224.419
52888.309
52553.551
52255.766
52002.21
51785.126
51596.351
51429.827
51281.124
51145.354
51020.363
50904.698
50797.49
50697.937
50605.019
50517.922
50436.035
50358.668
50285.381
50215.771
50149.535
50086.382
50025.97
49968.173
49912.715
49859.327
49807.95
49758.404
49710.479
49664.128
49619.249
49575.654
49533.277
49492.093
49451.983
49412.827
49374.605
49337.229
49300.624
49264.758
49229.617
49195.177
49161.371
49128.141
49095.466
49063.321
49031.659
49000.444
48969.649
48939.246
48909.215
48879.526
48850.156
48821.084
48792.282
48763.728
48735.414
48707.319
48679.404
48651.66
48624.08
48596.648
48569.336
48542.121
48514.996
48487.96
48460.982
48434.023
48407.078
48380.155
48353.223
48326.216
48299.142
48272.017
48244.812
48217.478
48190
48162.389
48134.6
48106.579
48078.324
48049.824
48021.022
47991.879
47962.398
47932.528
47902.846
47874.332
47847.232
47821.343
47796.648
47773.08
47750.536
47728.919
47708.171
47688.251
47669.099
47650.641
47632.827
47615.631
47599.022
47582.956
47567.368
47552.24
47537.43
47523.167
47508.466
47495.485
47474.361
413.75506
159.89104
125.57516
119.71741
118.02352
117.59716
117.54268
117.56748
117.59812
117.62634
117.65484
117.6853
117.71801
117.75275
117.78925
117.82745
117.86684
117.90929
117.94709
118.01378
117.97155
118.40382
116.87354
153.16681
49671.375
44954.066
42569.004
41903.605
41511.463
41158.031
40847.702
40583.283
40356.853
40159.976
39986.218
39830.9
39689.313
39558.851
39437.923
39325.629
39221.161
39123.49
39031.784
38945.421
38863.695
38786.158
38712.396
38642.103
38574.982
38510.682
38449.075
38389.882
38332.825
38277.84
38224.748
38173.331
38123.538
38075.268
38028.327
37982.642
37938.191
37894.852
37852.499
37811.108
37770.618
37730.947
37692.038
37653.874
37616.434
37579.647
37543.45
37507.822
37472.737
37438.146
37404.01
37370.302
37336.989
37304.055
37271.464
37239.193
37207.22
37175.515
37144.052
37112.827
37081.813
37050.97
37020.288
36989.76
36959.367
36929.079
36898.872
36868.736
36838.672
36808.644
36778.611
36748.565
36718.515
36688.427
36658.227
36627.923
36597.535
36567.026
36536.343
36505.469
36474.414
36443.129
36411.55
36379.673
36347.489
36314.929
36281.948
36248.548
36214.67
36180.968
36148.557
36117.724
36088.259
36060.127
36033.253
36007.525
35982.833
35959.114
35936.324
35914.395
35893.247
35872.822
35853.091
35834.021
35815.563
35797.642
35780.24
35763.194
35746.767
35729.825
35714.858
35690.482
413.79646
159.77608
124.74464
118.73017
116.98006
116.52925
116.463
116.48171
116.50891
116.53489
116.56173
116.5909
116.62255
116.65641
116.69216
116.72968
116.76847
116.81035
116.84766
116.91367
116.87125
117.30572
115.72996
148.52201
41675.772
38011.673
34941.836
33998.127
33550.546
33193.686
32887.15
32626.498
32403.753
32210.524
32040.201
31888.01
31749.878
31622.641
31504.6
31394.848
31292.605
31196.896
31106.919
31022.07
30941.676
30865.3
30792.547
30723.124
30656.743
30593.071
30531.983
30473.217
30416.5
30361.773
30308.868
30257.57
30207.831
30159.557
30112.561
30066.768
30022.158
29978.62
29936.026
29894.349
29853.584
29813.639
29774.424
29735.917
29698.1
29660.905
29624.27
29588.172
29552.586
29517.468
29482.777
29448.484
29414.559
29380.986
29347.732
29314.769
29282.077
29249.627
29217.395
29185.373
29153.535
29121.84
29090.281
29058.849
29027.523
28996.274
28965.077
28933.923
28902.811
28871.704
28840.56
28809.372
28778.146
28746.847
28715.4
28683.812
28652.1
28620.229
28588.141
28555.817
28523.266
28490.438
28457.263
28423.738
28389.847
28355.52
28320.706
28285.406
28249.554
28213.844
28179.457
28146.711
28115.414
28085.5
28056.894
28029.478
28003.14
27977.816
27953.461
27930.006
27907.366
27885.481
27864.323
27843.858
27824.033
27804.772
27786.055
27767.706
27750.013
27731.748
27715.605
27689.286
413.84273
159.65868
123.79069
117.5884
115.77086
115.29089
115.21043
115.22168
115.24463
115.26783
115.29264
115.3202
115.35056
115.38335
115.41817
115.45488
115.49293
115.53412
115.57084
115.63607
115.59345
116.03012
114.40311
143.75158
35533.712
33144.569
29423.088
28172.594
27664.997
27311.268
27017.306
26768.823
26557.505
26375.111
26214.927
26072.133
25943.634
25825.527
25716.01
25614.172
25519.262
25430.388
25346.802
25267.934
25193.164
25122.083
25054.324
24989.612
24927.685
24868.235
24811.142
24756.175
24703.081
24651.799
24602.18
24554.029
24507.295
24461.897
24417.665
24374.522
24332.455
24291.366
24251.132
24211.723
24173.219
24135.515
24098.471
24062.06
24026.27
23991.041
23956.311
23922.056
23888.257
23854.875
23821.869
23789.211
23756.873
23724.844
23693.091
23661.586
23630.31
23599.238
23568.348
23537.63
23507.059
23476.597
23446.239
23415.975
23385.783
23355.636
23325.511
23295.399
23265.297
23235.171
23204.979
23174.715
23144.384
23113.949
23083.34
23052.563
23021.633
22990.512
22959.147
22927.517
22895.629
22863.432
22830.859
22797.902
22764.547
22730.72
22696.372
22661.499
22626.034
22590.663
22556.559
22524.051
22492.996
22463.282
22434.833
22407.539
22381.292
22356.029
22331.709
22308.265
22285.615
22263.702
22242.499
22221.971
22202.071
22182.719
22163.901
22145.437
22127.623
22109.206
22092.931
22066.355
413.89359
159.5445
122.70725
116.28102
114.38298
113.86837
113.7708
113.77296
113.79067
113.81043
113.83271
113.85831
113.88709
113.91855
113.95225
113.98797
114.02513
114.06549
114.1015
114.16581
114.123
114.56171
112.87892
138.87191
30474.383
29482.697
25249.494
23702.881
23126.943
22774.22
22493.752
22259.093
22061.007
21891.333
21743.224
21611.784
21495.127
21388.354
21289.56
21197.81
21112.373
21032.433
20957.298
20886.432
20819.271
20755.437
20694.588
20636.472
20580.85
20527.442
20476.134
20426.725
20378.987
20332.858
20288.209
20244.866
20202.775
20161.87
20122.002
20083.093
20045.132
20008.04
19971.703
19936.084
19901.377
19867.456
19834.118
19801.326
19769.077
19737.317
19705.989
19675.067
19644.54
19614.373
19584.528
19554.976
19525.694
19496.675
19467.889
19439.307
19410.912
19382.685
19354.605
19326.662
19298.831
19271.08
19243.405
19215.796
19188.232
19160.687
19133.143
19105.59
19078.024
19050.414
19022.722
18994.943
18967.078
18939.095
18910.929
18882.585
18854.075
18825.363
18796.4
18767.166
18737.666
18707.851
18677.658
18647.08
18616.1
18584.649
18552.679
18520.183
18487.099
18454.065
18422.177
18391.763
18362.757
18334.976
18308.353
18282.785
18258.174
18234.466
18211.622
18189.581
18168.27
18147.635
18127.653
18108.293
18089.51
18071.231
18053.444
18035.975
18019.115
18001.655
17986.233
17961.005
413.94859
159.44089
121.48986
114.79771
112.80389
112.24825
112.13015
112.12124
112.13249
112.14798
112.16714
112.19032
112.21714
112.24699
112.27931
112.31383
112.34992
112.38928
112.42445
112.48766
112.4447
112.885
111.14467
133.90709
26065.592
26485.875
21966.773
20169.533
19521.022
19165.336
18897.261
18676.328
18491.573
18334.797
18199.029
18079.287
17973.744
17877.701
17789.169
17707.167
17630.957
17559.783
17492.998
17430.091
17370.548
17314.013
17260.169
17208.778
17159.619
17112.439
17067.126
17023.506
16981.377
16940.671
16901.279
16863.045
16825.913
16789.83
16754.666
16720.344
16686.853
16654.13
16622.073
16590.637
16560.16
16530.481
16501.316
16472.621
16444.393
16416.594
16389.165
16362.083
16335.339
16308.906
16282.75
16256.84
16231.157
16205.699
16180.439
16155.347
16130.408
16105.609
16080.933
16056.366
16031.885
16007.465
15983.104
15958.792
15934.505
15910.223
15885.933
15861.625
15837.292
15812.906
15788.437
15763.88
15739.233
15714.467
15689.527
15664.417
15639.144
15613.676
15587.97
15562.009
15535.793
15509.279
15482.412
15455.184
15427.576
15399.527
15370.994
15341.969
15312.393
15282.838
15254.283
15227.048
15201.168
15176.366
15152.579
15129.718
15107.698
15086.47
15066.003
15046.243
15027.124
15008.601
14990.654
14973.254
14956.362
14939.913
14923.9
14908.161
14892.966
14877.201
14863.291
14840.491
414.00703
159.35696
120.13636
113.1295
111.02208
110.41791
110.27521
110.2528
110.25606
110.26626
110.28155
110.30173
110.32614
110.35401
110.38465
110.4177
110.45249
110.49065
110.52481
110.58672
110.54367
110.98459
109.19032
128.88578
22079.461
23815.137
19297.55
17312.357
16592.264
16229.668
15972.384
15764.652
15592.829
15448.527
15324.705
15216.311
15120.699
15034.276
14955.017
14881.889
14814.125
14751.01
14691.934
14636.407
14583.952
14534.238
14486.963
14441.9
14398.842
14357.562
14317.946
14279.845
14243.077
14207.57
14173.232
14139.925
14107.59
14076.182
14045.592
14015.743
13986.621
13958.181
13930.33
13903.018
13876.568
13850.849
13825.588
13800.733
13776.287
13752.219
13728.474
13705.028
13681.874
13658.995
13636.356
13613.927
13591.693
13569.655
13547.79
13526.068
13504.473
13482.999
13461.632
13440.355
13419.149
13397.993
13376.886
13355.819
13334.769
13313.718
13292.657
13271.577
13250.47
13229.311
13208.076
13186.76
13165.362
13143.851
13122.186
13100.37
13078.405
13056.262
13033.905
13011.321
12988.506
12965.422
12942.022
12918.299
12894.235
12869.775
12844.883
12819.548
12793.72
12767.897
12742.935
12719.146
12696.688
12675.159
12654.501
12634.638
12615.498
12597.04
12579.235
12562.038
12545.392
12529.259
12513.621
12498.453
12483.723
12469.374
12455.399
12441.655
12428.388
12414.593
12402.442
12382.482
414.06792
159.30377
118.64765
111.26948
109.02763
108.36612
108.19394
108.15508
108.14846
108.15207
108.16254
108.179
108.20044
108.22585
108.25443
108.28569
108.31889
108.35561
108.38856
108.44892
108.40593
108.84566
107.0103
123.83688
18410.295
21256.221
17070.53
14971.974
14183.722
13808.752
13558.73
13362.03
13201.343
13067.831
12954.384
12855.889
12769.131
12691.27
12620.312
12555.166
12495.024
12439.193
12387.1
12338.27
12292.26
12248.762
12207.486
12168.211
12130.744
12094.878
12060.499
12027.477
11995.651
11964.946
11935.281
11906.537
11878.651
11851.585
11825.249
11799.567
11774.524
11750.084
11726.167
11702.722
11679.938
11657.754
11635.983
11614.57
11593.515
11572.798
11552.367
11532.196
11512.282
11492.613
11473.157
11453.884
11434.78
11415.85
11397.075
11378.424
11359.883
11341.449
11323.112
11304.854
11286.656
11268.502
11250.394
11232.322
11214.264
11196.205
11178.139
11160.058
11141.953
11123.802
11105.587
11087.304
11068.949
11050.496
11031.913
11013.202
10994.362
10975.366
10956.187
10936.811
10917.235
10897.426
10877.343
10856.981
10836.322
10815.321
10793.944
10772.183
10749.993
10727.804
10706.35
10685.905
10666.635
10648.162
10630.433
10613.382
10596.948
10581.097
10565.803
10551.027
10536.722
10522.855
10509.411
10496.369
10483.699
10471.354
10459.329
10447.497
10436.078
10424.177
10413.72
10396.497
414.13
159.29427
117.02866
109.21362
106.81305
106.08379
105.8763
105.81736
105.79847
105.79386
105.79833
105.81016
105.8279
105.85028
105.87631
105.90537
105.93665
105.97161
106.0031
106.0616
106.0189
106.45441
104.60593
118.78486
15018.833
18701.555
15168.781
13042.903
12193.281
11800.415
11553.285
11364.753
11212.904
11088.085
10983.067
10892.672
10813.296
10742.589
10678.613
10620.217
10566.543
10516.9
10470.745
10427.618
10387.11
10348.927
10312.785
10278.469
10245.797
10214.576
10184.697
10156.04
10128.466
10101.895
10076.256
10051.446
10027.401
10004.085
9981.4252
9959.3489
9937.8357
9916.8606
9896.3553
9876.2664
9856.6968
9837.6278
9818.9334
9800.5561
9782.4959
9764.738
9747.2381
9729.9672
9712.9231
9696.0986
9679.466
9662.996
9646.6756
9630.5106
9614.4862
9598.5727
9582.7568
9567.0379
9551.4077
9535.8502
9520.3468
9504.8844
9489.4667
9474.0844
9458.716
9443.3496
9427.9814
9412.6051
9397.2103
9381.7786
9366.2957
9350.7599
9335.1645
9319.4874
9303.7079
9287.8247
9271.8338
9255.7126
9239.4376
9222.9991
9206.3921
9189.5879
9172.5547
9155.2864
9137.767
9119.9579
9101.8326
9083.3811
9064.5671
9045.7548
9027.5655
9010.2164
8993.7947
8978.0559
8962.9495
8948.4203
8934.4169
8920.9097
8907.8762
8895.2833
8883.0913
8871.2722
8859.813
8848.6946
8837.8926
8827.3664
8817.1132
8807.0196
8797.2842
8787.1136
8778.2017
8763.4783
414.1917
159.34304
115.28926
106.9617
104.37418
103.56487
103.31502
103.23155
103.19744
103.18253
103.17949
103.18553
103.19866
103.21728
103.24014
103.2665
103.29541
103.32824
103.35796
103.4142
103.37215
103.79877
101.98865
113.74204
11903.592
16140.956
13505.497
11446.585
10547.22
10132.218
9883.5431
9700.1804
9554.8705
9436.701
9338.2295
9254.1873
9180.7122
9115.7586
9057.4604
9004.5913
8956.2266
8911.6703
8870.4005
8831.9698
8796.0026
8762.2167
8730.3235
8700.1101
8671.4055
8644.0306
8617.8761
8592.8337
8568.7787
8545.6329
8523.3287
8501.7773
8480.916
8460.7083
8441.095
8422.0092
8403.425
8385.3241
8367.6496
8350.3485
8333.4688
8317.0146
8300.902
8285.0749
8269.5299
8254.2578
8239.2205
8224.3883
8209.7583
8195.3266
8181.07
8166.9603
8152.9847
8139.1494
8125.4432
8111.8388
8098.3225
8084.8952
8071.5509
8058.2748
8045.0493
8031.8637
8018.722
8005.6165
7992.527
7979.4431
7966.3626
7953.2805
7940.1866
7927.0651
7913.9046
7900.7045
7887.4577
7874.1446
7860.7577
7847.2902
7833.7352
7820.073
7806.2847
7792.3626
7778.3012
7764.0761
7749.6615
7735.0521
7720.2336
7705.1735
7689.85
7674.2539
7658.3548
7642.4616
7627.0972
7612.435
7598.5135
7585.1754
7572.3748
7560.0646
7548.2017
7536.7605
7525.7214
7515.0559
7504.7311
7494.7229
7485.0203
7475.6063
7466.4605
7457.5481
7448.868
7440.3205
7432.0814
7423.4568
7415.9222
7403.4264
414.25115
159.46584
113.44533
104.51843
101.71136
100.80735
100.50668
100.39318
100.34012
100.31231
100.29983
100.29861
100.30598
100.31989
100.33883
100.36183
100.38782
100.41803
100.44559
100.49908
100.45822
100.86939
99.166694
108.71469
9086.2637
13625.55
12013.437
10117.857
9186.8689
8747.9131
8493.6596
8312.5961
8171.7306
8058.4128
7964.8476
7885.6461
7816.7883
7756.4041
7702.697
7654.3244
7610.2919
7569.8877
7532.6057
7498.0088
7465.7652
7435.5897
7407.1816
7380.33
7354.8736
7330.6442
7307.5357
7285.4458
7264.2633
7243.9115
7224.3264
7205.43
7187.1619
7169.4851
7152.3505
7135.6972
7119.4956
7103.7307
7088.3559
7073.3206
7058.6385
7044.3236
7030.3211
7016.5785
7003.089
6989.8469
6976.8204
6963.9803
6951.3219
6938.8435
6926.526
6914.3436
6902.2828
6890.3491
6878.5348
6866.8155
6855.1772
6843.6209
6832.1426
6820.7291
6809.3643
6798.0387
6786.7559
6775.5098
6764.2826
6753.0644
6741.8538
6730.647
6719.4345
6708.2026
6696.942
6685.6523
6674.3271
6662.9491
6651.5265
6640.0437
6628.4908
6616.8505
6605.1076
6593.2557
6581.2894
6569.1882
6556.9308
6544.5126
6531.9208
6519.1284
6506.1173
6492.8788
6479.3882
6465.9077
6452.8799
6440.4447
6428.6123
6417.2805
6406.4079
6395.9543
6385.883
6376.1719
6366.8036
6357.7539
6348.9948
6340.5062
6332.2779
6324.2952
6316.5408
6308.9853
6301.6281
6294.3824
6287.4024
6280.0854
6273.713
6263.0939
414.30623
159.67874
111.51973
101.89457
98.830626
97.814521
97.452778
97.302475
97.225814
97.181784
97.15742
97.14708
97.147202
97.155214
97.169235
97.188058
97.210434
97.237414
97.262328
97.312432
97.273465
97.660985
96.127238
103.71161
6515.5531
11261.847
10637.132
8998.6008
8062.7483
7601.1949
7338.0327
7156.6259
7018.3401
6908.3444
6818.3175
6742.7108
6677.4699
6620.7624
6570.8455
6526.1981
6485.7595
6448.7993
6414.8205
6383.3952
6354.2454
6327.0693
6301.5491
6277.4776
6254.702
6233.0639
6212.4609
6192.7955
6173.9669
6155.9021
6138.5392
6121.8092
6105.6551
6090.0393
6074.9194
6060.2419
6045.9743
6032.1027
6018.5893
6005.388
5992.4911
5979.9142
5967.6225
5955.5695
5943.7448
5932.1446
5920.7432
5909.5131
5898.4475
5887.5451
5876.7912
5866.1626
5855.6455
5845.2434
5834.9516
5824.7494
5814.6226
5804.5711
5794.5925
5784.6757
5774.8063
5764.9751
5755.1847
5745.4311
5735.6986
5725.978
5716.2676
5706.5646
5696.861
5687.1448
5677.4076
5667.6487
5657.8632
5648.0361
5638.1936
5628.3074
5618.3652
5608.352
5598.2549
5588.0684
5577.7878
5567.3956
5556.874
5546.2187
5535.4189
5524.4516
5513.3016
5501.961
5490.4094
5478.8717
5467.7255
5457.0861
5446.947
5437.2407
5427.9308
5418.9822
5410.3634
5402.0552
5394.042
5386.3031
5378.8146
5371.5589
5364.5273
5357.7067
5351.0824
5344.6291
5338.3469
5332.1601
5326.2034
5319.9554
5314.5302
5305.4374
414.35466
159.99688
109.54307
99.108142
95.745246
94.596243
94.161038
93.965616
93.859522
93.795084
93.755729
93.733877
93.724869
93.725459
93.733312
93.746905
93.764776
93.787753
93.809389
93.855295
93.819089
94.173559
92.859612
98.71028
4463.5004
9123.1137
9345.2333
8036.3648
7132.0701
6652.8195
6378.4072
6194.3003
6056.9208
5948.9369
5861.3123
5788.2929
5725.9583
5672.3189
5625.6471
5584.182
5546.8131
5512.793
5481.6265
5452.8943
5426.3629
5401.7128
5378.6174
5356.8753
5336.3412
5316.8652
5298.3496
5280.7005
5263.8248
5247.6546
5232.13
5217.1883
5202.7772
5188.8587
5175.3946
5162.3387
5149.6575
5137.3363
5125.3443
5113.6411
5102.2071
5091.0535
5080.1596
5069.4859
5059.0193
5048.7563
5038.6768
5028.7559
5018.9846
5009.3613
4999.8747
4990.5052
4981.2385
4972.0759
4963.0146
4954.0379
4945.1321
4936.2952
4927.5256
4918.8149
4910.1503
4901.5225
4892.9328
4884.3789
4875.8481
4867.3308
4858.8251
4850.3288
4841.8356
4833.335
4824.8188
4816.286
4807.7334
4799.1481
4790.5696
4781.9595
4773.3041
4764.5907
4755.8076
4746.9502
4738.0144
4728.9855
4719.8478
4710.5974
4701.2254
4691.7121
4682.044
4672.2145
4662.2062
4652.2143
4642.565
4633.3551
4624.5683
4616.1592
4608.0961
4600.3483
4592.8883
4585.699
4578.7666
4572.0731
4565.5979
4559.3255
4553.248
4547.3542
4541.6311
4536.0572
4530.6324
4525.2912
4520.1506
4514.7611
4510.0943
4502.2188
414.39412
160.43277
107.5542
96.185951
92.476746
91.170436
90.646828
90.396072
90.253283
90.163157
90.104866
90.068462
90.04792
90.039142
90.039227
90.046248
90.058476
90.07646
90.094012
90.134701
90.102174
90.413834
89.357868
93.630152
2904.013
7311.4778
8143.0047
7195.6922
6359.9638
5869.5988
5582.5776
5393.6922
5255.6641
5148.5268
5062.3376
4991.0849
4931.1758
4880.1899
4836.3164
4797.5834
4762.8558
4731.3699
4702.6245
4676.2075
4651.8479
4629.2597
4608.1479
4588.3171
4569.6264
4551.9318
4535.1393
4519.1567
4503.8969
4489.2964
4475.2961
4461.8383
4448.8749
4436.3669
4424.2792
4412.5721
4401.2112
4390.1806
4379.4552
4368.9998
4358.7869
4348.8231
4339.0971
4329.5762
4320.2449
4311.0996
4302.1249
4293.2984
4284.6092
4276.055
4267.6276
4259.3105
4251.089
4242.9623
4234.9291
4226.9764
4219.0907
4211.2685
4203.5087
4195.805
4188.1464
4180.5233
4172.9358
4165.3831
4157.8547
4150.3413
4142.8402
4135.3499
4127.8657
4120.378
4112.8791
4105.3676
4097.8416
4090.29
4082.7381
4075.1592
4067.5432
4059.8792
4052.1565
4044.3705
4036.5183
4028.5874
4020.5637
4012.4433
4004.2192
3995.8742
3987.3961
3978.7793
3970.0092
3961.2564
3952.8065
3944.7423
3937.0415
3929.673
3922.6096
3915.8246
3909.2931
3903