/*--------------------------------*- C++ -*----------------------------------*\
  =========                 |
  \\      /  F ield         | OpenFOAM: The Open Source CFD Toolbox
   \\    /   O peration     | Website:  https://openfoam.org
    \\  /    A nd           | Version:  12
     \\/     M anipulation  |
\*---------------------------------------------------------------------------*/
FoamFile
{
    format      ascii;
    class       volScalarField;
    location    "700";
    object      p;
}
// * * * * * * * * * * * * * * * * * * * * * * * * * * * * * * * * * * * * * //

dimensions      [0 2 -2 0 0 0 0];

internalField   nonuniform List<scalar> 
13056
(
0.0040416658
0.0040613466
0.0041048412
0.0041599683
0.004224772
0.0042993097
0.0043830141
0.0044751604
0.0045753921
0.0046837576
0.0048006152
0.0049266229
0.0050628203
0.0052107754
0.0053727957
0.0055523241
0.0057544571
0.0059874961
0.0062638816
0.0066100892
0.0070601255
0.0077608621
0.0087365008
0.012114395
0.0090592698
0.0041534143
0.0041797211
0.0046266561
0.0046698725
0.0044744206
0.0042974944
0.0042039582
0.0041326447
0.0040583726
0.0039865448
0.0039210675
0.0038597053
0.0038020558
0.0037473541
0.0036964445
0.0036485555
0.0036031565
0.0035600719
0.0035185279
0.003479103
0.003440556
0.003404026
0.0033688684
0.0033336726
0.0033007951
0.0032687984
0.0032363336
0.003205955
0.003176299
0.0031460204
0.0031170695
0.0030891745
0.0030609345
0.0030326074
0.0030059616
0.0029796716
0.0029524017
0.0029254737
0.0029000493
0.002874688
0.0028482228
0.0028221381
0.0027973024
0.0027726165
0.0027468299
0.0027211229
0.002696217
0.0026716774
0.0026463269
0.002620494
0.0025948916
0.0025701616
0.0025451169
0.0025187656
0.0024925227
0.002466765
0.0024410695
0.0024144116
0.0023871385
0.0023598011
0.0023330734
0.0023058748
0.0022771571
0.002248271
0.0022195326
0.0021906032
0.002160517
0.0021294979
0.0020981821
0.0020670019
0.0020348158
0.0020009524
0.0019664973
0.0019320203
0.001896492
0.0018589943
0.0018204766
0.0017816057
0.0017413275
0.0016987351
0.0016546356
0.0016098501
0.0015629561
0.0015129944
0.0014614886
0.0014079807
0.0013511525
0.0012913657
0.0012304231
0.0011688075
0.0011073451
0.0010476599
0.00098892622
0.00093019103
0.00087217417
0.00081560947
0.00075973913
0.00070386549
0.00064869139
0.00059467287
0.00054199602
0.00048995312
0.00043841143
0.00038850728
0.0003404564
0.00029619255
0.00025315074
0.00022353434
0.00018196205
0.00030360028
-0.00023097919
0.0040416658
0.0040613466
0.0041048412
0.0041599683
0.004224772
0.0042993097
0.0043830141
0.0044751604
0.0045753921
0.0046837576
0.0048006152
0.0049266229
0.0050628203
0.0052107754
0.0053727957
0.0055523241
0.0057544571
0.0059874961
0.0062638816
0.0066100891
0.0070601254
0.0077608618
0.0087365009
0.012112876
0.0090600338
0.0041540181
0.0041797363
0.0046266671
0.0046698984
0.0044744484
0.0042975191
0.0042039794
0.004132663
0.0040583886
0.003986559
0.0039210804
0.0038597171
0.0038020666
0.0037473641
0.0036964537
0.003648564
0.0036031643
0.0035600792
0.0035185347
0.0034791094
0.003440562
0.0034040316
0.0033688737
0.0033336776
0.0033007999
0.0032688029
0.0032363379
0.0032059591
0.0031763029
0.0031460241
0.003117073
0.0030891778
0.0030609377
0.0030326104
0.0030059645
0.0029796744
0.0029524044
0.0029254763
0.0029000517
0.0028746904
0.0028482251
0.0028221403
0.0027973045
0.0027726186
0.0027468319
0.0027211248
0.0026962188
0.0026716791
0.0026463286
0.0026204957
0.0025948932
0.0025701631
0.0025451183
0.002518767
0.002492524
0.0024667663
0.0024410708
0.0024144128
0.0023871397
0.0023598023
0.0023330745
0.0023058758
0.0022771581
0.002248272
0.0022195335
0.0021906041
0.0021605179
0.0021294987
0.0020981829
0.0020670027
0.0020348165
0.0020009531
0.001966498
0.0019320209
0.0018964926
0.0018589949
0.0018204772
0.0017816063
0.001741328
0.0016987357
0.0016546361
0.0016098505
0.0015629566
0.0015129949
0.0014614891
0.001407981
0.0013511528
0.001291366
0.0012304234
0.0011688078
0.0011073455
0.0010476601
0.0009889265
0.0009301913
0.00087217443
0.00081560972
0.00075973937
0.00070386572
0.00064869161
0.00059467309
0.00054199623
0.00048995332
0.00043841162
0.00038850747
0.00034045658
0.00029619273
0.00025315092
0.00022353451
0.00018196223
0.00030360048
-0.00023097905
0.0040416658
0.0040613466
0.0041048412
0.0041599683
0.004224772
0.0042993097
0.0043830141
0.0044751604
0.0045753921
0.0046837576
0.0048006152
0.0049266229
0.0050628203
0.0052107754
0.0053727957
0.005552324
0.0057544571
0.0059874961
0.0062638816
0.0066100891
0.0070601253
0.0077608614
0.0087365009
0.012111318
0.0090608658
0.0041547034
0.0041797544
0.0046266804
0.0046699294
0.0044744816
0.0042975487
0.0042040047
0.0041326849
0.0040584078
0.003986576
0.0039210958
0.0038597312
0.0038020796
0.003747376
0.0036964646
0.0036485741
0.0036031737
0.003560088
0.0035185429
0.003479117
0.0034405692
0.0034040384
0.0033688801
0.0033336836
0.0033008056
0.0032688083
0.003236343
0.0032059639
0.0031763075
0.0031460285
0.0031170772
0.0030891818
0.0030609415
0.0030326141
0.003005968
0.0029796777
0.0029524076
0.0029254794
0.0029000547
0.0028746932
0.0028482278
0.0028221429
0.002797307
0.002772621
0.0027468342
0.002721127
0.002696221
0.0026716812
0.0026463306
0.0026204976
0.0025948951
0.0025701648
0.0025451201
0.0025187686
0.0024925256
0.0024667678
0.0024410723
0.0024144143
0.0023871411
0.0023598036
0.0023330758
0.0023058771
0.0022771593
0.0022482731
0.0022195347
0.0021906051
0.0021605189
0.0021294997
0.0020981839
0.0020670036
0.0020348174
0.002000954
0.0019664988
0.0019320217
0.0018964934
0.0018589956
0.0018204779
0.001781607
0.0017413287
0.0016987363
0.0016546367
0.0016098511
0.0015629571
0.0015129954
0.0014614895
0.0014079815
0.0013511533
0.0012913665
0.0012304238
0.0011688082
0.0011073458
0.0010476605
0.00098892683
0.00093019162
0.00087217474
0.00081561002
0.00075973966
0.00070386599
0.00064869188
0.00059467334
0.00054199647
0.00048995356
0.00043841185
0.0003885077
0.0003404568
0.00029619294
0.00025315112
0.00022353472
0.00018196244
0.00030360073
-0.00023097889
0.0040416658
0.0040613466
0.0041048412
0.0041599683
0.004224772
0.0042993097
0.0043830141
0.0044751604
0.0045753921
0.0046837576
0.0048006152
0.0049266229
0.0050628203
0.0052107754
0.0053727957
0.005552324
0.0057544571
0.0059874961
0.0062638815
0.006610089
0.0070601251
0.0077608606
0.008736501
0.012109716
0.0090617302
0.0041553022
0.0041797721
0.0046266935
0.0046699599
0.0044745143
0.0042975776
0.0042040295
0.0041327064
0.0040584266
0.0039865927
0.0039211108
0.003859745
0.0038020923
0.0037473877
0.0036964754
0.0036485841
0.003603183
0.0035600965
0.0035185509
0.0034791245
0.0034405763
0.003404045
0.0033688863
0.0033336895
0.0033008112
0.0032688136
0.003236348
0.0032059687
0.003176312
0.0031460328
0.0031170813
0.0030891857
0.0030609453
0.0030326176
0.0030059714
0.002979681
0.0029524107
0.0029254824
0.0029000576
0.002874696
0.0028482305
0.0028221455
0.0027973095
0.0027726234
0.0027468365
0.0027211292
0.0026962231
0.0026716832
0.0026463326
0.0026204995
0.0025948969
0.0025701666
0.0025451218
0.0025187703
0.0024925272
0.0024667693
0.0024410738
0.0024144157
0.0023871424
0.0023598049
0.002333077
0.0023058783
0.0022771605
0.0022482743
0.0022195358
0.0021906062
0.0021605199
0.0021295007
0.0020981848
0.0020670045
0.0020348183
0.0020009548
0.0019664996
0.0019320225
0.0018964941
0.0018589964
0.0018204786
0.0017816076
0.0017413293
0.0016987369
0.0016546373
0.0016098516
0.0015629577
0.0015129959
0.00146149
0.001407982
0.0013511537
0.0012913669
0.0012304242
0.0011688085
0.0011073462
0.0010476608
0.00098892716
0.00093019194
0.00087217504
0.00081561031
0.00075973994
0.00070386626
0.00064869214
0.00059467359
0.00054199672
0.0004899538
0.00043841208
0.00038850792
0.00034045702
0.00029619315
0.00025315133
0.00022353492
0.00018196263
0.00030360097
-0.00023097874
0.0040416658
0.0040613466
0.0041048412
0.0041599683
0.004224772
0.0042993097
0.0043830141
0.0044751604
0.0045753921
0.0046837576
0.0048006152
0.0049266229
0.0050628203
0.0052107754
0.0053727957
0.005552324
0.0057544571
0.0059874961
0.0062638815
0.0066100889
0.0070601249
0.0077608594
0.0087365012
0.012107904
0.0090626215
0.004155862
0.0041797906
0.0046267072
0.0046699912
0.0044745478
0.0042976074
0.004204055
0.0041327284
0.004058446
0.0039866099
0.0039211263
0.0038597592
0.0038021053
0.0037473997
0.0036964864
0.0036485943
0.0036031924
0.0035601053
0.0035185591
0.0034791322
0.0034405835
0.0034040518
0.0033688927
0.0033336956
0.0033008169
0.003268819
0.0032363531
0.0032059735
0.0031763166
0.0031460372
0.0031170855
0.0030891897
0.0030609491
0.0030326213
0.0030059749
0.0029796844
0.0029524139
0.0029254854
0.0029000605
0.0028746989
0.0028482332
0.0028221481
0.002797312
0.0027726258
0.0027468388
0.0027211315
0.0026962252
0.0026716853
0.0026463346
0.0026205014
0.0025948987
0.0025701684
0.0025451235
0.002518772
0.0024925288
0.0024667709
0.0024410753
0.0024144171
0.0023871438
0.0023598063
0.0023330783
0.0023058795
0.0022771617
0.0022482754
0.0022195369
0.0021906073
0.002160521
0.0021295017
0.0020981858
0.0020670055
0.0020348192
0.0020009557
0.0019665004
0.0019320233
0.0018964949
0.0018589971
0.0018204793
0.0017816083
0.00174133
0.0016987375
0.0016546378
0.0016098522
0.0015629582
0.0015129964
0.0014614905
0.0014079824
0.0013511542
0.0012913673
0.0012304246
0.0011688089
0.0011073465
0.0010476612
0.0009889275
0.00093019226
0.00087217535
0.00081561061
0.00075974022
0.00070386653
0.0006486924
0.00059467385
0.00054199697
0.00048995404
0.00043841231
0.00038850814
0.00034045724
0.00029619337
0.00025315154
0.00022353513
0.00018196283
0.00030360121
-0.00023097859
0.0040416658
0.0040613466
0.0041048412
0.0041599683
0.004224772
0.0042993097
0.0043830141
0.0044751604
0.0045753921
0.0046837576
0.0048006152
0.0049266229
0.0050628203
0.0052107754
0.0053727957
0.005552324
0.005754457
0.005987496
0.0062638814
0.0066100887
0.0070601246
0.0077608578
0.0087365016
0.012105817
0.0090633493
0.0041563955
0.0041798121
0.0046267228
0.0046700251
0.0044745841
0.0042976395
0.0042040825
0.0041327522
0.0040584668
0.0039866283
0.003921143
0.0038597744
0.0038021193
0.0037474125
0.0036964983
0.0036486052
0.0036032026
0.0035601148
0.0035185679
0.0034791405
0.0034405912
0.0034040591
0.0033688996
0.003333702
0.003300823
0.0032688248
0.0032363586
0.0032059788
0.0031763216
0.0031460419
0.00311709
0.003089194
0.0030609532
0.0030326252
0.0030059787
0.0029796879
0.0029524173
0.0029254887
0.0029000637
0.0028747019
0.0028482362
0.0028221509
0.0027973148
0.0027726284
0.0027468413
0.0027211339
0.0026962276
0.0026716875
0.0026463367
0.0026205035
0.0025949007
0.0025701703
0.0025451254
0.0025187737
0.0024925306
0.0024667726
0.0024410769
0.0024144187
0.0023871453
0.0023598077
0.0023330797
0.0023058809
0.002277163
0.0022482767
0.0022195381
0.0021906084
0.0021605221
0.0021295028
0.0020981868
0.0020670064
0.0020348201
0.0020009566
0.0019665013
0.0019320242
0.0018964957
0.0018589979
0.00182048
0.001781609
0.0017413307
0.0016987382
0.0016546385
0.0016098528
0.0015629588
0.0015129969
0.001461491
0.0014079829
0.0013511546
0.0012913677
0.0012304251
0.0011688093
0.0011073469
0.0010476616
0.00098892786
0.0009301926
0.00087217568
0.00081561092
0.00075974053
0.00070386683
0.00064869269
0.00059467412
0.00054199723
0.00048995429
0.00043841256
0.00038850838
0.00034045747
0.0002961936
0.00025315176
0.00022353535
0.00018196304
0.00030360148
-0.00023097843
0.0040416658
0.0040613466
0.0041048412
0.0041599683
0.004224772
0.0042993097
0.0043830141
0.0044751604
0.0045753921
0.0046837576
0.0048006152
0.0049266229
0.0050628203
0.0052107754
0.0053727957
0.005552324
0.005754457
0.0059874959
0.0062638812
0.0066100884
0.0070601243
0.0077608557
0.0087365022
0.012103424
0.0090638758
0.004156931
0.0041798415
0.0046267424
0.0046700634
0.0044746249
0.0042976756
0.0042041133
0.0041327788
0.00405849
0.0039866489
0.0039211615
0.0038597914
0.0038021348
0.0037474268
0.0036965114
0.0036486173
0.0036032138
0.0035601252
0.0035185777
0.0034791496
0.0034405998
0.0034040672
0.0033689071
0.0033337092
0.0033008297
0.0032688311
0.0032363647
0.0032059845
0.0031763271
0.0031460471
0.0031170949
0.0030891987
0.0030609577
0.0030326295
0.0030059828
0.0029796919
0.0029524211
0.0029254924
0.0029000672
0.0028747053
0.0028482394
0.002822154
0.0027973177
0.0027726313
0.0027468441
0.0027211365
0.0026962301
0.00267169
0.0026463391
0.0026205058
0.0025949029
0.0025701724
0.0025451274
0.0025187757
0.0024925324
0.0024667744
0.0024410786
0.0024144204
0.0023871469
0.0023598093
0.0023330812
0.0023058823
0.0022771644
0.002248278
0.0022195394
0.0021906097
0.0021605233
0.002129504
0.0020981879
0.0020670075
0.0020348211
0.0020009576
0.0019665023
0.0019320251
0.0018964966
0.0018589987
0.0018204808
0.0017816098
0.0017413314
0.0016987389
0.0016546392
0.0016098535
0.0015629594
0.0015129975
0.0014614916
0.0014079835
0.0013511551
0.0012913682
0.0012304255
0.0011688098
0.0011073474
0.001047662
0.00098892825
0.00093019297
0.00087217604
0.00081561127
0.00075974086
0.00070386715
0.00064869299
0.00059467442
0.00054199752
0.00048995457
0.00043841283
0.00038850865
0.00034045773
0.00029619384
0.000253152
0.00022353559
0.00018196327
0.00030360176
-0.00023097825
0.0040416658
0.0040613466
0.0041048412
0.0041599683
0.004224772
0.0042993097
0.0043830141
0.0044751604
0.0045753921
0.0046837576
0.0048006152
0.0049266229
0.0050628203
0.0052107754
0.0053727956
0.0055523239
0.0057544569
0.0059874958
0.0062638811
0.0066100881
0.0070601238
0.0077608529
0.008736503
0.012100685
0.0090642141
0.0041575885
0.0041798917
0.0046267701
0.0046701097
0.0044746736
0.0042977184
0.0042041497
0.00413281
0.0040585173
0.003986673
0.0039211831
0.0038598111
0.0038021529
0.0037474434
0.0036965266
0.0036486314
0.0036032268
0.0035601373
0.0035185889
0.0034791601
0.0034406096
0.0034040764
0.0033689158
0.0033337174
0.0033008375
0.0032688384
0.0032363716
0.0032059911
0.0031763333
0.003146053
0.0031171006
0.0030892041
0.0030609628
0.0030326344
0.0030059875
0.0029796964
0.0029524254
0.0029254965
0.0029000711
0.002874709
0.002848243
0.0028221575
0.0027973211
0.0027726345
0.0027468472
0.0027211395
0.002696233
0.0026716928
0.0026463417
0.0026205083
0.0025949054
0.0025701748
0.0025451297
0.0025187779
0.0024925346
0.0024667764
0.0024410806
0.0024144223
0.0023871488
0.002359811
0.0023330829
0.002305884
0.002277166
0.0022482795
0.0022195408
0.0021906111
0.0021605246
0.0021295053
0.0020981892
0.0020670087
0.0020348223
0.0020009587
0.0019665033
0.0019320261
0.0018964976
0.0018589997
0.0018204817
0.0017816107
0.0017413322
0.0016987397
0.0016546399
0.0016098542
0.0015629601
0.0015129982
0.0014614922
0.0014079841
0.0013511557
0.0012913688
0.001230426
0.0011688103
0.0011073478
0.0010476624
0.00098892868
0.00093019339
0.00087217644
0.00081561165
0.00075974122
0.0007038675
0.00064869333
0.00059467475
0.00054199784
0.00048995488
0.00043841313
0.00038850893
0.00034045801
0.00029619412
0.00025315227
0.00022353586
0.00018196353
0.00030360207
-0.00023097806
0.0040416658
0.0040613466
0.0041048412
0.0041599683
0.004224772
0.0042993097
0.0043830141
0.0044751604
0.0045753921
0.0046837576
0.0048006152
0.0049266229
0.0050628203
0.0052107754
0.0053727956
0.0055523239
0.0057544568
0.0059874957
0.0062638809
0.0066100877
0.0070601232
0.0077608494
0.0087365041
0.012097545
0.0090643175
0.0041585139
0.0041799898
0.0046268146
0.0046701698
0.0044747354
0.0042977724
0.0042041954
0.0041328492
0.0040585513
0.0039867029
0.0039212099
0.0038598354
0.0038021751
0.0037474637
0.0036965453
0.0036486485
0.0036032426
0.0035601519
0.0035186026
0.0034791729
0.0034406216
0.0034040876
0.0033689263
0.0033337272
0.0033008468
0.0032688472
0.0032363799
0.0032059989
0.0031763408
0.0031460601
0.0031171073
0.0030892105
0.0030609689
0.0030326403
0.003005993
0.0029797017
0.0029524305
0.0029255014
0.0029000758
0.0028747135
0.0028482473
0.0028221617
0.002797325
0.0027726383
0.0027468508
0.002721143
0.0026962364
0.002671696
0.0026463449
0.0026205113
0.0025949083
0.0025701776
0.0025451324
0.0025187805
0.0024925371
0.0024667788
0.0024410829
0.0024144245
0.0023871509
0.0023598131
0.0023330849
0.0023058859
0.0022771679
0.0022482813
0.0022195426
0.0021906127
0.0021605262
0.0021295068
0.0020981907
0.0020670101
0.0020348237
0.00200096
0.0019665046
0.0019320273
0.0018964987
0.0018590008
0.0018204828
0.0017816117
0.0017413332
0.0016987406
0.0016546408
0.0016098551
0.0015629609
0.001512999
0.001461493
0.0014079848
0.0013511564
0.0012913694
0.0012304266
0.0011688108
0.0011073484
0.0010476629
0.00098892917
0.00093019386
0.00087217689
0.00081561209
0.00075974165
0.00070386791
0.00064869372
0.00059467513
0.0005419982
0.00048995523
0.00043841347
0.00038850927
0.00034045833
0.00029619443
0.00025315257
0.00022353616
0.00018196382
0.00030360243
-0.00023097783
0.0040416658
0.0040613466
0.0041048412
0.0041599683
0.004224772
0.0042993097
0.0043830141
0.0044751604
0.0045753921
0.0046837576
0.0048006152
0.0049266228
0.0050628203
0.0052107754
0.0053727955
0.0055523238
0.0057544567
0.0059874955
0.0062638806
0.0066100871
0.0070601224
0.0077608448
0.0087365055
0.012093927
0.0090638528
0.0041598353
0.0041801854
0.0046268908
0.0046702522
0.004474818
0.0042978442
0.0042042559
0.0041329007
0.0040585959
0.0039867419
0.0039212447
0.003859867
0.0038022038
0.00374749
0.0036965693
0.0036486705
0.0036032629
0.0035601707
0.00351862
0.0034791891
0.0034406368
0.0034041018
0.0033689397
0.0033337398
0.0033008586
0.0032688584
0.0032363905
0.0032060089
0.0031763502
0.0031460691
0.0031171158
0.0030892186
0.0030609767
0.0030326476
0.0030060001
0.0029797084
0.0029524369
0.0029255075
0.0029000817
0.0028747192
0.0028482527
0.0028221668
0.00279733
0.002772643
0.0027468554
0.0027211474
0.0026962406
0.0026717001
0.0026463488
0.0026205151
0.0025949119
0.0025701811
0.0025451357
0.0025187837
0.0024925401
0.0024667818
0.0024410858
0.0024144272
0.0023871536
0.0023598157
0.0023330874
0.0023058882
0.0022771701
0.0022482835
0.0022195447
0.0021906148
0.0021605282
0.0021295086
0.0020981925
0.0020670119
0.0020348253
0.0020009616
0.0019665061
0.0019320288
0.0018965001
0.0018590021
0.0018204841
0.0017816129
0.0017413344
0.0016987417
0.0016546419
0.0016098561
0.0015629619
0.0015129999
0.0014614939
0.0014079856
0.0013511572
0.0012913702
0.0012304274
0.0011688115
0.001107349
0.0010476636
0.00098892977
0.00093019443
0.00087217744
0.00081561261
0.00075974215
0.00070386839
0.00064869419
0.00059467558
0.00054199863
0.00048995565
0.00043841388
0.00038850966
0.00034045871
0.0002961948
0.00025315293
0.00022353653
0.00018196417
0.00030360286
-0.00023097757
0.0040416658
0.0040613466
0.0041048412
0.0041599683
0.004224772
0.0042993097
0.0043830141
0.0044751604
0.0045753921
0.0046837576
0.0048006151
0.0049266228
0.0050628203
0.0052107753
0.0053727955
0.0055523237
0.0057544566
0.0059874953
0.0062638802
0.0066100864
0.0070601215
0.0077608389
0.0087365073
0.012089746
0.0090625586
0.0041616663
0.0041805559
0.0046270225
0.0046703686
0.0044749309
0.0042979421
0.0042043382
0.0041329705
0.004058656
0.0039867945
0.0039212915
0.0038599092
0.0038022423
0.003747525
0.0036966013
0.0036486999
0.00360329
0.0035601957
0.0035186432
0.0034792107
0.0034406569
0.0034041206
0.0033689573
0.0033337564
0.0033008742
0.0032688731
0.0032364043
0.003206022
0.0031763626
0.0031460809
0.003117127
0.0030892293
0.0030609868
0.0030326573
0.0030060092
0.0029797171
0.0029524453
0.0029255155
0.0029000893
0.0028747265
0.0028482598
0.0028221736
0.0027973365
0.0027726492
0.0027468613
0.0027211531
0.002696246
0.0026717053
0.0026463538
0.0026205199
0.0025949165
0.0025701855
0.00254514
0.0025187878
0.0024925441
0.0024667856
0.0024410894
0.0024144308
0.002387157
0.0023598189
0.0023330905
0.0023058913
0.002277173
0.0022482863
0.0022195473
0.0021906174
0.0021605306
0.002129511
0.0020981947
0.0020670141
0.0020348274
0.0020009636
0.001966508
0.0019320306
0.0018965019
0.0018590038
0.0018204857
0.0017816145
0.0017413359
0.0016987431
0.0016546432
0.0016098574
0.0015629631
0.0015130011
0.001461495
0.0014079867
0.0013511582
0.0012913711
0.0012304283
0.0011688124
0.0011073499
0.0010476644
0.00098893052
0.00093019515
0.00087217812
0.00081561327
0.00075974278
0.000703869
0.00064869477
0.00059467614
0.00054199918
0.00048995618
0.00043841438
0.00038851015
0.00034045919
0.00029619527
0.00025315339
0.00022353698
0.0001819646
0.00030360339
-0.00023097724
0.0040416658
0.0040613466
0.0041048412
0.0041599683
0.004224772
0.0042993097
0.0043830141
0.0044751604
0.0045753921
0.0046837576
0.0048006151
0.0049266228
0.0050628202
0.0052107753
0.0053727954
0.0055523236
0.0057544564
0.005987495
0.0062638797
0.0066100855
0.0070601202
0.0077608314
0.0087365097
0.012084914
0.0090607998
0.0041640917
0.0041812059
0.004627246
0.0046705327
0.0044750846
0.004298075
0.0042044498
0.004133065
0.0040587374
0.0039868656
0.0039213546
0.0038599662
0.003802294
0.0037475722
0.0036966444
0.0036487393
0.0036033263
0.0035602293
0.0035186743
0.0034792396
0.0034406839
0.0034041459
0.003368981
0.0033337786
0.0033008951
0.0032688927
0.0032364229
0.0032060396
0.0031763792
0.0031460966
0.003117142
0.0030892434
0.0030610003
0.0030326701
0.0030060215
0.0029797288
0.0029524564
0.0029255261
0.0029000995
0.0028747362
0.0028482691
0.0028221825
0.002797345
0.0027726575
0.0027468692
0.0027211607
0.0026962533
0.0026717123
0.0026463605
0.0026205264
0.0025949227
0.0025701915
0.0025451457
0.0025187933
0.0024925494
0.0024667907
0.0024410943
0.0024144355
0.0023871615
0.0023598233
0.0023330947
0.0023058953
0.0022771769
0.00224829
0.0022195509
0.0021906208
0.0021605339
0.0021295142
0.0020981978
0.002067017
0.0020348302
0.0020009663
0.0019665106
0.0019320331
0.0018965043
0.0018590061
0.0018204879
0.0017816165
0.0017413378
0.001698745
0.001654645
0.0016098591
0.0015629647
0.0015130026
0.0014614965
0.0014079881
0.0013511595
0.0012913724
0.0012304295
0.0011688135
0.0011073509
0.0010476654
0.0009889315
0.00093019608
0.00087217902
0.00081561412
0.0007597436
0.00070386978
0.00064869553
0.00059467687
0.00054199988
0.00048995686
0.00043841504
0.00038851079
0.00034045981
0.00029619587
0.00025315397
0.00022353756
0.00018196515
0.00030360407
-0.00023097682
0.0040416658
0.0040613466
0.0041048412
0.0041599683
0.004224772
0.0042993097
0.0043830141
0.0044751604
0.0045753921
0.0046837576
0.0048006151
0.0049266228
0.0050628202
0.0052107752
0.0053727953
0.0055523235
0.0057544562
0.0059874947
0.0062638791
0.0066100844
0.0070601186
0.0077608218
0.0087365128
0.012079334
0.0090589876
0.0041672029
0.0041822585
0.0046276186
0.00467076
0.0044752887
0.0042982512
0.0042045982
0.0041331907
0.0040588458
0.0039869604
0.0039214386
0.0038600416
0.0038023625
0.0037476346
0.0036967014
0.0036487916
0.0036033744
0.0035602737
0.0035187156
0.0034792781
0.0034407198
0.0034041794
0.0033690124
0.0033338081
0.0033009228
0.0032689188
0.0032364476
0.0032060629
0.0031764013
0.0031461176
0.0031171618
0.0030892623
0.0030610182
0.0030326872
0.0030060378
0.0029797444
0.0029524713
0.0029255403
0.0029001131
0.0028747493
0.0028482816
0.0028221945
0.0027973565
0.0027726684
0.0027468797
0.0027211708
0.002696263
0.0026717216
0.0026463694
0.0026205349
0.002594931
0.0025701994
0.0025451533
0.0025188006
0.0024925564
0.0024667974
0.0024411008
0.0024144417
0.0023871675
0.002359829
0.0023331002
0.0023059006
0.002277182
0.0022482949
0.0022195556
0.0021906253
0.0021605383
0.0021295184
0.0020982018
0.0020670208
0.0020348339
0.0020009699
0.001966514
0.0019320363
0.0018965074
0.0018590091
0.0018204907
0.0017816192
0.0017413404
0.0016987475
0.0016546474
0.0016098613
0.0015629669
0.0015130047
0.0014614984
0.0014079899
0.0013511613
0.001291374
0.001230431
0.001168815
0.0011073523
0.0010476667
0.00098893279
0.00093019732
0.0008721802
0.00081561526
0.00075974469
0.00070387083
0.00064869654
0.00059467784
0.00054200082
0.00048995776
0.00043841591
0.00038851163
0.00034046063
0.00029619667
0.00025315475
0.00022353833
0.00018196589
0.00030360498
-0.00023097625
0.0040416658
0.0040613466
0.0041048412
0.0041599683
0.004224772
0.0042993097
0.0043830141
0.0044751603
0.0045753921
0.0046837576
0.0048006151
0.0049266227
0.0050628201
0.0052107751
0.0053727952
0.0055523233
0.0057544559
0.0059874942
0.0062638784
0.0066100829
0.0070601166
0.0077608096
0.0087365167
0.012072891
0.0090571773
0.0041712044
0.0041838268
0.0046282087
0.0046710755
0.0044755564
0.004298481
0.0042047919
0.0041333549
0.0040589872
0.003987084
0.0039215473
0.0038601382
0.0038024503
0.0037477148
0.0036967748
0.0036488589
0.0036034364
0.0035603311
0.0035187688
0.0034793277
0.0034407661
0.0034042228
0.0033690531
0.0033338463
0.0033009588
0.0032689528
0.0032364797
0.0032060933
0.0031764301
0.0031461449
0.0031171878
0.003089287
0.0030610417
0.0030327096
0.0030060592
0.0029797648
0.0029524908
0.002925559
0.0029001309
0.0028747663
0.0028482979
0.0028222101
0.0027973714
0.0027726827
0.0027468935
0.002721184
0.0026962756
0.0026717337
0.0026463811
0.0026205462
0.0025949418
0.0025702098
0.0025451633
0.0025188102
0.0024925657
0.0024668063
0.0024411094
0.0024144499
0.0023871754
0.0023598366
0.0023331076
0.0023059076
0.0022771888
0.0022483014
0.0022195619
0.0021906313
0.0021605441
0.0021295239
0.0020982071
0.0020670259
0.0020348388
0.0020009745
0.0019665185
0.0019320407
0.0018965115
0.001859013
0.0018204945
0.0017816229
0.0017413439
0.0016987508
0.0016546506
0.0016098643
0.0015629698
0.0015130074
0.001461501
0.0014079924
0.0013511636
0.0012913763
0.0012304331
0.001168817
0.0011073542
0.0010476685
0.00098893451
0.00093019896
0.00087218177
0.00081561676
0.00075974613
0.00070387222
0.00064869787
0.00059467913
0.00054200206
0.00048995896
0.00043841707
0.00038851275
0.00034046171
0.00029619773
0.00025315577
0.00022353936
0.00018196687
0.00030360618
-0.0002309755
0.0040416658
0.0040613466
0.0041048412
0.0041599683
0.004224772
0.0042993097
0.0043830141
0.0044751603
0.0045753921
0.0046837576
0.0048006151
0.0049266227
0.00506282
0.005210775
0.005372795
0.005552323
0.0057544555
0.0059874936
0.0062638774
0.0066100811
0.007060114
0.0077607941
0.0087365218
0.012065448
0.0090553713
0.0041765272
0.0041860158
0.0046290908
0.0046715143
0.0044759059
0.0042987771
0.0042050405
0.0041335646
0.004059167
0.0039872407
0.0039216845
0.0038602601
0.003802561
0.0037478159
0.0036968674
0.003648944
0.0036035148
0.0035604037
0.0035188362
0.0034793905
0.0034408249
0.0034042779
0.0033691047
0.0033338949
0.0033010046
0.003268996
0.0032365205
0.003206132
0.0031764667
0.0031461797
0.0031172209
0.0030893185
0.0030610717
0.0030327383
0.0030060865
0.0029797908
0.0029525157
0.0029255829
0.0029001537
0.0028747879
0.0028483185
0.0028222299
0.0027973904
0.0027727009
0.0027469109
0.0027212007
0.0026962917
0.0026717492
0.002646396
0.0026205604
0.0025949555
0.002570223
0.002545176
0.0025188225
0.0024925774
0.0024668176
0.0024411202
0.0024144604
0.0023871855
0.0023598463
0.0023331169
0.0023059166
0.0022771974
0.0022483097
0.0022195699
0.002190639
0.0021605514
0.002129531
0.0020982139
0.0020670325
0.0020348451
0.0020009806
0.0019665243
0.0019320462
0.0018965169
0.0018590181
0.0018204994
0.0017816275
0.0017413484
0.0016987551
0.0016546546
0.0016098682
0.0015629735
0.0015130109
0.0014615043
0.0014079956
0.0013511666
0.0012913791
0.0012304359
0.0011688196
0.0011073567
0.0010476709
0.00098893674
0.00093020109
0.00087218381
0.00081561872
0.00075974802
0.00070387402
0.00064869961
0.0005946808
0.00054200368
0.00048996052
0.00043841858
0.00038851422
0.00034046313
0.00029619911
0.00025315712
0.0002235407
0.00018196816
0.00030360776
-0.00023097452
0.0040416658
0.0040613466
0.0041048412
0.0041599683
0.004224772
0.0042993097
0.0043830141
0.0044751603
0.0045753921
0.0046837575
0.004800615
0.0049266226
0.00506282
0.0052107749
0.0053727948
0.0055523227
0.0057544551
0.0059874929
0.0062638762
0.0066100787
0.0070601106
0.0077607743
0.0087365281
0.012056838
0.0090536096
0.004183362
0.004188911
0.0046303609
0.0046721195
0.0044763601
0.0042991553
0.0042053565
0.0041338301
0.0040593938
0.0039874376
0.0039218575
0.0038604146
0.003802701
0.0037479437
0.0036969842
0.0036490511
0.0036036135
0.0035604949
0.0035189209
0.0034794694
0.0034408986
0.0034043469
0.0033691695
0.0033339558
0.0033010619
0.00326905
0.0032365716
0.0032061803
0.0031765125
0.0031462232
0.0031172622
0.0030893578
0.0030611091
0.003032774
0.0030061206
0.0029798233
0.0029525468
0.0029256126
0.002900182
0.0028748147
0.0028483441
0.0028222545
0.002797414
0.0027727235
0.0027469326
0.0027212216
0.0026963118
0.0026717684
0.0026464145
0.0026205783
0.0025949727
0.0025702395
0.0025451919
0.0025188377
0.0024925921
0.0024668318
0.0024411339
0.0024144735
0.0023871981
0.0023598585
0.0023331286
0.0023059279
0.0022772083
0.0022483202
0.0022195799
0.0021906487
0.0021605607
0.0021295399
0.0020982225
0.0020670407
0.002034853
0.0020009882
0.0019665316
0.0019320532
0.0018965236
0.0018590245
0.0018205056
0.0017816334
0.001741354
0.0016987605
0.0016546598
0.0016098732
0.0015629782
0.0015130154
0.0014615086
0.0014079996
0.0013511705
0.0012913828
0.0012304393
0.0011688229
0.0011073598
0.0010476738
0.00098893956
0.00093020378
0.00087218639
0.0008156212
0.00075975039
0.00070387631
0.00064870181
0.00059468293
0.00054200573
0.0004899625
0.00043842049
0.00038851607
0.00034046493
0.00029620087
0.00025315882
0.0002235424
0.00018196978
0.00030360976
-0.00023097328
0.0040416658
0.0040613466
0.0041048412
0.0041599683
0.004224772
0.0042993097
0.0043830141
0.0044751603
0.004575392
0.0046837575
0.004800615
0.0049266225
0.0050628198
0.0052107747
0.0053727946
0.0055523224
0.0057544545
0.005987492
0.0062638746
0.0066100757
0.0070601064
0.007760749
0.0087365361
0.012046878
0.0090519541
0.0041914464
0.0041925143
0.004632127
0.0046729512
0.0044769505
0.004299638
0.0042057584
0.004134167
0.0040596808
0.0039876863
0.0039220762
0.0038606098
0.0038028776
0.0037481045
0.003697131
0.0036491856
0.0036037373
0.0035606092
0.0035190269
0.0034795681
0.0034409907
0.003404433
0.0033692502
0.0033340316
0.0033011333
0.0032691173
0.0032366351
0.0032062404
0.0031765694
0.0031462771
0.0031173135
0.0030894065
0.0030611555
0.0030328182
0.0030061627
0.0029798636
0.0029525852
0.0029256494
0.0029002171
0.0028748482
0.0028483762
0.0028222852
0.0027974434
0.0027727518
0.0027469598
0.0027212476
0.0026963368
0.0026717925
0.0026464376
0.0026206005