/*--------------------------------*- C++ -*----------------------------------*\
  =========                 |
  \\      /  F ield         | OpenFOAM: The Open Source CFD Toolbox
   \\    /   O peration     | Website:  https://openfoam.org
    \\  /    A nd           | Version:  12
     \\/     M anipulation  |
\*---------------------------------------------------------------------------*/
FoamFile
{
    format      ascii;
    class       volScalarField;
    location    "700";
    object      p;
}
// * * * * * * * * * * * * * * * * * * * * * * * * * * * * * * * * * * * * * //

dimensions      [0 2 -2 0 0 0 0];

internalField   nonuniform List<scalar> 
7480
(
0.005322419
0.0052834281
0.0051751439
0.0051426613
0.0051597205
0.0051941337
0.005241966
0.0053069743
0.0053955467
0.0055147227
0.0056851181
0.0059236751
0.0063923798
0.0068177036
0.0067599207
0.0063258168
0.0058585033
0.0054884396
0.005172851
0.0048906315
0.0046449401
0.0044348832
0.0042572595
0.004090514
0.0039237445
0.0037618242
0.0036086372
0.0034772867
0.003364769
0.0032576625
0.0031596431
0.003073926
0.0029995679
0.0029356518
0.0028806689
0.0028328522
0.0027906412
0.0027541338
0.0027221533
0.002692072
0.0026634608
0.0026364174
0.0026110825
0.0025861394
0.0025598249
0.0025319967
0.0025031059
0.0024743597
0.0024451149
0.0024142103
0.0023810623
0.002345214
0.0023083805
0.0022710312
0.0022319178
0.0021912198
0.0021500276
0.0021100565
0.0020706891
0.0020298546
0.0019880422
0.0019462784
0.0019056039
0.0018648499
0.001822782
0.0017805874
0.0017395229
0.0016986133
0.0016563507
0.0016134363
0.0015709265
0.0015280543
0.0014840022
0.0014395041
0.0013952495
0.0013505982
0.0013047296
0.0012584324
0.001211679
0.0011641705
0.0011157373
0.0010668689
0.001017613
0.00096705941
0.0009160552
0.00086441882
0.00081145492
0.00075831948
0.00070459825
0.00064965128
0.00059469926
0.00053922505
0.00048323898
0.00042780428
0.00037411759
0.0003200323
0.00028139946
0.00022268401
0.00036003111
-0.00024143854
0.005259894
0.0052212027
0.0051487316
0.0051269113
0.0051474771
0.0051860736
0.0052360883
0.0053020477
0.0053910226
0.0055102184
0.0056791229
0.0059147159
0.0063427077
0.006715898
0.0066577184
0.0062993491
0.0058864004
0.0055412392
0.0052386724
0.0049602603
0.004715419
0.0045011197
0.0043095943
0.0041288798
0.0039561541
0.0037925314
0.0036412642
0.0035093377
0.0033933866
0.0032849121
0.0031861613
0.0030997133
0.0030244744
0.0029593328
0.0029028607
0.0028534245
0.0028095528
0.0027715395
0.0027383381
0.0027071979
0.0026774754
0.0026492717
0.0026228688
0.0025970217
0.0025698064
0.0025410901
0.0025114477
0.0024820455
0.0024522078
0.00242077
0.0023871944
0.0023509942
0.0023138363
0.0022761905
0.002236808
0.0021958731
0.0021544705
0.0021143272
0.0020748054
0.0020338059
0.0019918253
0.0019498969
0.0019090647
0.0018681539
0.001825931
0.0017835872
0.0017423808
0.001701335
0.0016589404
0.0016159012
0.0015732742
0.0015302894
0.0014861298
0.0014415301
0.0013971786
0.0013524342
0.001306477
0.0012600968
0.0012132649
0.0011656818
0.0011171775
0.0010682415
0.0010189207
0.00096830544
0.00091724349
0.00086555221
0.00081253613
0.00075935133
0.00070558255
0.00065059056
0.00059559639
0.00054008195
0.00048405797
0.00042858711
0.00037486761
0.00032074945
0.00028207606
0.00022339384
0.00036086109
-0.00024084456
0.0052181911
0.0052040662
0.0051590013
0.0051373479
0.0051540527
0.0051919415
0.0052408685
0.0053053753
0.0053928084
0.0055102649
0.0056749846
0.0059036949
0.006270762
0.0065849219
0.0065458298
0.0062305716
0.0058389856
0.0054975686
0.0051985343
0.0049247134
0.0046831558
0.0044715268
0.0042825762
0.0041087059
0.0039447105
0.0037889991
0.0036454092
0.0035171223
0.0034024643
0.0032972739
0.0032010132
0.0031154946
0.0030408431
0.0029759514
0.002919407
0.0028696907
0.0028255321
0.0027868547
0.002752529
0.0027204423
0.0026898848
0.0026607853
0.0026335585
0.0026071241
0.0025794344
0.00255018
0.0025199481
0.0024899767
0.0024596758
0.0024275251
0.0023931675
0.0023565058
0.0023190336
0.0022811425
0.0022415298
0.0022003889
0.0021588097
0.0021185256
0.0020788691
0.0020377185
0.0019955794
0.0019535015
0.0019125346
0.0018714882
0.0018291279
0.0017866534
0.0017453264
0.001704164
0.0016616497
0.0016184937
0.0015757563
0.0015326648
0.0014884018
0.0014437046
0.0013992609
0.0013544271
0.0013083824
0.0012619199
0.0012150094
0.0011673515
0.0011187754
0.0010697712
0.0010203846
0.00096970518
0.00091858353
0.00086683507
0.0008137642
0.00076052794
0.00070670889
0.00065166859
0.00059662944
0.00054107167
0.00048500668
0.00042949661
0.00037574101
0.00032158478
0.00028288342
0.00022429118
0.00036177567
-0.00024011017
0.0051850761
0.0051842138
0.0051491832
0.0051293358
0.0051453763
0.005183393
0.0052327686
0.0052973621
0.0053843537
0.0055005987
0.0056607797
0.0058795755
0.0061954618
0.0064685129
0.006449435
0.0061697275
0.0058042324
0.0054772261
0.0051907764
0.0049271888
0.0046908207
0.0044819254
0.0042939134
0.0041210097
0.0039567526
0.0038000017
0.0036547034
0.0035239306
0.0034077006
0.0033023623
0.0032057018
0.00311941
0.0030445624
0.0029800463
0.0029243286
0.002875887
0.0028333802
0.0027955786
0.0027613502
0.0027296983
0.0026997377
0.0026709294
0.0026430377
0.0026154581
0.0025871312
0.0025574672
0.0025267803
0.002496373
0.0024657745
0.0024331571
0.0023982626
0.0023612993
0.0023236192
0.002285639
0.0022459489
0.0022047021
0.002162984
0.0021224359
0.0020825135
0.0020412208
0.0019989718
0.0019568018
0.0019157561
0.0018746173
0.0018321525
0.0017895821
0.0017481635
0.0017068979
0.0016642732
0.0016210107
0.0015781747
0.0015349876
0.0014906307
0.0014458443
0.0014013177
0.0013564031
0.0013102765
0.0012637356
0.0012167498
0.00116902
0.0011203744
0.0010713048
0.001021855
0.00097111271
0.00091993288
0.00086812841
0.00081500333
0.00076171652
0.00070784757
0.00065275892
0.00059767518
0.00054207417
0.00048596785
0.00043041826
0.00037662528
0.00032243012
0.00028370282
0.00022508209
0.0003626342
-0.00023941157
0.0051543355
0.0051614392
0.0051372986
0.0051247617
0.0051428233
0.0051813536
0.0052312547
0.0052956684
0.0053814948
0.0054953197
0.0056494989
0.0058544519
0.0061296449
0.0063659522
0.006356746
0.0061067052
0.0057672711
0.0054546073
0.0051778992
0.0049211623
0.0046877337
0.0044800422
0.004292676
0.004120349
0.0039568965
0.003801583
0.0036578103
0.0035283185
0.0034130759
0.0033083906
0.0032120062
0.0031256803
0.003050533
0.0029854228
0.0029288818
0.0028795639
0.0028361761
0.0027973141
0.002762374
0.0027307964
0.0027015018
0.0026737924
0.0026468274
0.0026197794
0.0025920735
0.002563228
0.0025332743
0.0025026192
0.0024710572
0.0024379369
0.0024028538
0.0023657452
0.0023278921
0.0022898191
0.0022501063
0.0022087866
0.0021668802
0.0021260151
0.0020858913
0.0020445499
0.0020022464
0.0019600016
0.0019188901
0.0018776897
0.0018351518
0.0017925265
0.0017510034
0.001709572
0.0016668185
0.0016234746
0.0015805718
0.0015373145
0.0014928831
0.0014480255
0.001403429
0.0013584372
0.0013122303
0.0012656139
0.0012185552
0.0011707555
0.0011220419
0.0010729092
0.0010233982
0.00097259285
0.00092135378
0.0008694918
0.00081631062
0.00076297232
0.00070905253
0.00065391373
0.0005987837
0.00054313744
0.00048698747
0.00043139638
0.00037756295
0.00032332699
0.00028456528
0.00022586046
0.00036348494
-0.00023861926
0.005125823
0.0051390801
0.0051255048
0.0051196391
0.0051383952
0.0051760335
0.0052254753
0.0052890561
0.0053731126
0.0054838258
0.0056310852
0.0058219021
0.0060628844
0.0062658035
0.0062621171
0.0060404084
0.0057273423
0.0054294234
0.0051624129
0.0049133547
0.0046847839
0.004479861
0.0042945241
0.0041238222
0.0039620434
0.0038085141
0.0036660874
0.0035372204
0.0034218866
0.0033169335
0.0032204307
0.0031338733
0.0030582574
0.0029925404
0.0029353228
0.0028853049
0.0028411743
0.0028015979
0.0027659991
0.0027336862
0.0027035359
0.0026749355
0.0026472212
0.0026196613
0.0025917707
0.0025632834
0.0025341789
0.0025042253
0.0024731418
0.0024407495
0.0024065665
0.0023703441
0.0023325891
0.0022938015
0.0022536448
0.0022121988
0.0021701876
0.0021292603
0.002089171
0.0020478714
0.0020054934
0.0019630748
0.0019218602
0.001880656
0.001838091
0.0017954071
0.0017537554
0.0017121647
0.0016693063
0.0016259121
0.0015829696
0.0015396583
0.0014951658
0.0014502598
0.0014055888
0.0013604825
0.001314184
0.0012675086
0.0012203944
0.0011725396
0.0011237698
0.0010745806
0.0010250083
0.00097414033
0.00092284338
0.00087092486
0.00081768798
0.00076429988
0.00071033004
0.00065513991
0.00059996215
0.00054426884
0.00048807353
0.00043243976
0.00037856318
0.00032428459
0.00028547887
0.00022668468
0.00036432773
-0.00023765655
0.0050993653
0.0051173271
0.005112687
0.005112591
0.0051323199
0.0051696077
0.0052190551
0.005282199
0.0053646446
0.0054720333
0.0056120353
0.0057887446
0.0060000386
0.0061734507
0.0061726881
0.0059765831
0.00568828
0.00540473
0.0051471477
0.0049057529
0.0046821803
0.004479768
0.0042961015
0.0041264674
0.0039658925
0.0038136397
0.0036721484
0.0035436874
0.0034283194
0.0033234031
0.003227142
0.0031406454
0.003064808
0.0029987354
0.0029410812
0.002890569
0.0028459296
0.0028059072
0.0027698418
0.0027370191
0.0027063986
0.002677364
0.0026492532
0.0026213104
0.0025930051
0.0025640346
0.0025343452
0.0025038687
0.0024725372
0.0024401522
0.0024063435
0.0023709513
0.0023339301
0.0022954431
0.0022557949
0.0022151722
0.0021739298
0.0021330159
0.0020922474
0.002050575
0.002008116
0.0019656714
0.0019245211
0.0018833815
0.0018408343
0.0017980257
0.0017562546
0.0017146508
0.0016717841
0.0016283385
0.0015853249
0.001541953
0.0014974059
0.001452463
0.0014077197
0.0013624997
0.0013161202
0.0012694052
0.0012222533
0.0011743564
0.0011255444
0.0010762856
0.0010266257
0.00097569594
0.00092435367
0.00087239049
0.00081910762
0.00076567447
0.00071165319
0.00065641252
0.00060118826
0.00054544868
0.00048920894
0.00043353337
0.00037961198
0.00032528961
0.00028643137
0.00022754639
0.00036513081
-0.00023650137
0.0050746269
0.00509611
0.0050988936
0.0051041134
0.0051252729
0.0051624112
0.0052116261
0.005273953
0.005354272
0.0054576277
0.0055897635
0.0057522796
0.0059374853
0.0060851143
0.0060852114
0.0059115482
0.0056465275
0.0053774731
0.0051294699
0.004895864
0.0046774763
0.0044780955
0.004296419
0.0041282208
0.0039691976
0.0038185331
0.0036783132
0.0035506113
0.0034355436
0.0033308619
0.0032348723
0.0031483958
0.0030722775
0.0030057675
0.0029475726
0.0028964533
0.0028511964
0.0028106
0.0027739567
0.002740573
0.002709472
0.0026800016
0.002651498
0.0026232059
0.002594598
0.0025653739
0.0025354693
0.0025048247
0.0024733152
0.0024406673
0.002406513
0.0023707237
0.0023333545
0.0022947431
0.0022553341
0.0022153405
0.0021750965
0.0021346971
0.0020939239
0.0020526603
0.0020108383
0.0019688745
0.0019274001
0.0018855666
0.0018428946
0.0018001005
0.0017584309
0.0017169252
0.0016741082
0.0016305756
0.0015874744
0.0015441038
0.0014995504
0.0014545568
0.0014097444
0.001364474
0.0013180527
0.0012713029
0.001224107
0.0011761628
0.0011273118
0.0010779867
0.0010282438
0.00097725987
0.0009258844
0.00087388802
0.0008205694
0.00076707646
0.00071298299
0.00065769637
0.00060243527
0.00054665793
0.00049037826
0.00043466042
0.00038069273
0.00032632735
0.00028740955
0.00022842885
0.0003658629
-0.00023513323
0.0050513069
0.0050754265
0.0050843412
0.0050943784
0.0051171201
0.0051541134
0.0052028663
0.0052641682
0.005342159
0.0054411948
0.0055653382
0.0057141255
0.0058765364
0.0060018656
0.0060014239
0.0058473114
0.0056042383
0.0053497439
0.0051113479
0.0048854598
0.0046724751
0.0044764147
0.0042968804
0.0041302548
0.003972801
0.0038236717
0.0036846551
0.0035576409
0.0034427975
0.0033382284
0.003242381
0.0031558603
0.0030794459
0.003012499
0.0029537797
0.0029020843
0.0028562461
0.0028151087
0.0027779342
0.0027440348
0.0027124715
0.0026825628
0.0026536531
0.0026250149
0.002596127
0.0025666873
0.002536614
0.0025058261
0.0024741718
0.0024413869
0.0024071365
0.0023712935
0.0023339086
0.0022952823
0.0022557669
0.0022155431
0.0021749999
0.0021342444
0.002093441
0.0020526804
0.0020117023
0.0019705759
0.001929136
0.0018872371
0.001845024
0.0018027104
0.0017608911
0.0017187671
0.0016757758
0.0016322881
0.0015893176
0.0015460442
0.0015015288
0.0014564587
0.0014115993
0.0013663619
0.0013199348
0.0012731344
0.001225886
0.0011779022
0.0011290163
0.0010796496
0.0010298618
0.00097883621
0.00092742987
0.00087539719
0.00082204072
0.00076848751
0.00071432699
0.00065900037
0.00060371021
0.00054790391
0.00049157664
0.00043579959
0.00038178292
0.00032738197
0.00028840268
0.00022932075
0.00036649179
-0.00023352388
0.0050291314
0.0050552309
0.0050691507
0.0050834337
0.0051077809
0.0051446746
0.005192841
0.0052529536
0.0053284138
0.0054228378
0.0055388633
0.0056744022
0.0058166561
0.0059225856
0.0059205975
0.0057833124
0.0055606955
0.0053205917
0.0050917584
0.0048735159
0.0046661438
0.004473664
0.0042964629
0.004131582
0.0039757878
0.0038282534
0.0036905127
0.0035642836
0.0034497839
0.0033454269
0.0032498057
0.0031633378
0.0030867152
0.0030193917
0.002960191
0.0029079475
0.0028615399
0.0028198584
0.0027821448
0.0027477125
0.0027156604
0.0026852925
0.0026559644
0.0026269728
0.0025977948
0.0025681196
0.0025378425
0.0025068708
0.0024750513
0.0024421352
0.002407806
0.0023719325
0.0023345524
0.002295937
0.0022564153
0.0022161866
0.0021756164
0.0021348255
0.0020939772
0.0020530566
0.0020118199
0.0019703685
0.0019287133
0.0018872107
0.0018458477
0.0018043352
0.001762567
0.0017202985
0.0016775807
0.0016344747
0.0015913397
0.0015475271
0.0015029137
0.0014579374
0.0014132202
0.0013680652
0.0013216488
0.0012748
0.0012275498
0.0011795775
0.0011306578
0.0010812452
0.0010314329
0.00098038037
0.00092894286
0.00087686807
0.0008234719
0.00076988725
0.00071569152
0.00066032709
0.00060500656
0.00054916986
0.00049279101
0.00043695574
0.00038289301
0.00032846277
0.00028941701
0.00023021512
0.00036697374
-0.00023164275
0.0050078713
0.0050354528
0.0050534097
0.005071353
0.0050972555
0.0051340879
0.0051815458
0.0052402715
0.0053129873
0.0054025719
0.0055104807
0.0056334015
0.0057578081
0.0058469354
0.0058428711
0.0057200294
0.0055163684
0.0052904236
0.0050711703
0.0048605547
0.0046589818
0.0044703392
0.0042956813
0.0041327172
0.0039786798
0.0038327956
0.0036963815
0.0035709968
0.003456904
0.0033527881
0.0032573867
0.0031709641
0.0030941236
0.003026405
0.0029667041
0.0029138957
0.0028669018
0.0028246579
0.0027863917
0.0027514164
0.0027188663
0.002688037
0.0026582896
0.0026289407
0.0025994662
0.0025695482
0.0025390642
0.0025079136
0.0024759407
0.0024429016
0.0024084904
0.0023725705
0.0023351756
0.0022965614
0.0022570508
0.0022168527
0.0021763112
0.0021355489
0.002094699
0.0020537327
0.0020124408
0.0019709192
0.0019292078
0.0018876087
0.0018460409
0.0018042204
0.0017622384
0.0017203795
0.0016784642
0.0016360474
0.0015929236
0.0015489505
0.0015045523
0.0014598195
0.0014148333
0.001369243
0.0013228586
0.0012761462
0.0012290075
0.0011810891
0.0011321454
0.0010827199
0.0010329377
0.00098187099
0.000930392
0.00087828872
0.00082486557
0.00077125888
0.00071703386
0.00066163617
0.00060628848
0.00055041697
0.0004939985
0.00043813086
0.00038402738
0.00032956531
0.00029043724
0.00023110846
0.00036729178
-0.00022943968
0.0049873329
0.0050160072
0.0050371792
0.0050582099
0.0050855484
0.005122323
0.0051689529
0.0052261023
0.0052958955
0.0053805013
0.0054804025
0.0055914093
0.005699964
0.0057745295
0.0057681151
0.0056575796
0.005471318
0.0052591697
0.0050494735
0.0048464295
0.0046507667
0.004466178
0.0042942564
0.0041333628
0.0039811732
0.0038369904
0.0037019504
0.0035774699
0.003463853
0.003360023
0.0032648604
0.0031785089
0.0031014853
0.0030334024
0.0029732298
0.0029198819
0.0028723214
0.0028295267
0.0027907172
0.0027552058
0.0027221592
0.0026908683
0.0026606987
0.0026309863
0.0026012084
0.0025710417
0.0025403467
0.0025090138
0.0024768826
0.0024437127
0.0024092111
0.0023732398
0.0023358308
0.0022972238
0.0022577292
0.0022175552
0.0021770224
0.0021362594
0.0020953908
0.0020544036
0.0020131191
0.0019716169
0.0019299253
0.0018882926
0.0018466379
0.00180472
0.00176265
0.0017206868
0.0016785694
0.0016359028
0.0015927324
0.0015493408
0.0015056605
0.0014613667
0.0014162929
0.001370555
0.0013243773
0.0012776302
0.0012301659
0.0011821319
0.0011332886
0.001083989
0.0010342777
0.00098320675
0.00093171572
0.00087964777
0.00082621828
0.00077257805
0.00071833112
0.0006629134
0.00060754173
0.0005516349
0.00049518593
0.00043929745
0.00038515345
0.00033065886
0.00029143282
0.0002319884
0.00036741713
-0.00022686217
0.0049673487
0.0049968031
0.0050204963
0.0050440699
0.0050726706
0.0051093578
0.0051550505
0.0052104536
0.0052771765
0.0053567279
0.0054488024
0.0055486296
0.0056430727
0.0057050112
0.005696172
0.005596096
0.0054257059
0.0052269116
0.0050267377
0.0048312204
0.004641559
0.0044612372
0.004292257
0.0041335971
0.0039833607
0.0038409441
0.003707337
0.0035838294
0.0034707627
0.0033672699
0.0032723698
0.0031861137
0.003108935
0.0030405074
0.0029798746
0.0029259935
0.0028778665
0.0028345136
0.0027951524
0.0027590961
0.0027255411
0.002693778
0.0026631764
0.0026330903
0.0026030004
0.0025725768
0.002541664
0.0025101425
0.0024778476
0.0024445433
0.0024099492
0.0023739266
0.0023365036
0.002297903
0.0022584215
0.0022182673
0.0021777421
0.0021369826
0.0020961068
0.0020551091
0.0020138246
0.0019723151
0.0019306134
0.0018889504
0.0018472753
0.0018053708
0.0017633099
0.0017212992
0.0016790788
0.0016363015
0.0015930305
0.0015495444
0.0015056511
0.0014612167
0.0014164106
0.0013713086
0.0013256754
0.0012790518
0.001231427
0.0011834004
0.0011346309
0.001085117
0.001035189
0.0009841909
0.00093283778
0.00088084869
0.00082742971
0.00077378159
0.00071956505
0.00066414392
0.00060874282
0.00055281637
0.00049634837
0.00044043785
0.00038625287
0.0003317318
0.00029239799
0.00023283368
0.0003672847
-0.00022386178
0.0049477728
0.0049777493
0.0050033789
0.0050289893
0.0050586406
0.0050951804
0.0051398346
0.0051933406
0.0052568739
0.005331351
0.0054158413
0.005505239
0.0055871068
0.0056380911
0.0056268874
0.0055356943
0.005379694
0.0051937237
0.0050029973
0.0048149532
0.0046313485
0.0044554753
0.0042896276
0.0041333536
0.0039851707
0.0038445829
0.0037124638
0.0035899932
0.003477546
0.0033744395
0.0032798253
0.003193687
0.0031163804
0.0030476293
0.0029865522
0.0029321506
0.0028834656
0.0028395573
0.0027996462
0.0027630464
0.0027289812
0.0026967441
0.0026657086
0.0026352457
0.0026048397
0.0025741545
0.0025430198
0.0025113061
0.0024788452
0.002445405
0.0024107168
0.0023746409
0.0023372012
0.0022986048
0.0022591351
0.0022190001
0.0021784846
0.0021377301
0.0020968481
0.0020558367
0.0020145456
0.0019730266
0.00193132
0.0018896396
0.0018479463
0.0018060311
0.0017639475
0.0017218909
0.0016796411
0.001636869
0.0015936006
0.0015500576
0.0015060571
0.0014615101
0.0014166023
0.0013713533
0.0013255816
0.0012791312
0.0012320055
0.0011844852
0.0011359953
0.0010863404
0.0010362673
0.00098537517
0.00093388631
0.00088165739
0.00082830457
0.00077478821
0.00072064634
0.00066523662
0.00060983852
0.00055394521
0.00049747008
0.00044153051
0.00038731469
0.00033277583
0.00029332513
0.00023362677
0.00036683331
-0.00022036597
0.0049284771
0.0049587578
0.0049858302
0.0050130152
0.0050434825
0.0050797884
0.0051233077
0.0051747871
0.005235042
0.0053044752
0.0053816731
0.005461389
0.0055320441
0.0055735174
0.0055600916
0.0054764491
0.0053334275
0.0051596814
0.0049782873
0.0047976595
0.0046201428
0.0044488764
0.0042863461
0.0041326108
0.0039865868
0.0038478975
0.003717328
0.0035959633
0.0034842084
0.0033815431
0.0032872451
0.0032012518
0.0031238483
0.0030547996
0.0029932977
0.0029383904
0.002889157
0.0028446959
0.0028042349
0.0027670904
0.0027325099
0.0026997932
0.002668318
0.0026374709
0.0026067408
0.0025757862
0.0025444225
0.002512511
0.0024798794
0.0024462997
0.0024115136
0.0023753813
0.002337922
0.0022993278
0.0022598693
0.0022197528
0.002179247
0.0021384967
0.0020976073
0.0020565814
0.002015284
0.0019737581
0.001932049
0.0018903512
0.0018486343
0.0018067021
0.0017645984
0.0017225079
0.0016802299
0.0016374418
0.0015941524
0.0015505758
0.0015065675
0.0014620271
0.0014170921
0.0013717557
0.0013258611
0.0012792999
0.0012320417
0.0011844237
0.0011361206
0.0010868602
0.0010372218
0.00098666374
0.00093503878
0.00088259067
0.00082932486
0.00077571962
0.00072138455
0.00066603347
0.00061076565
0.00055493557
0.000498468
0.00044253121
0.00038832083
0.00033377072
0.0002941977
0.00023435147
0.00036600106
-0.0002162888
0.0049093485
0.0049397456
0.0049678427
0.0049961855
0.005027224
0.0050631881
0.0051054801
0.005154826
0.0052117442
0.0052762068
0.00534644
0.0054172068
0.0054778628
0.0055110721
0.0054956149
0.005418408
0.0052870457
0.0051248729
0.0049526524
0.0047793759
0.0046079571
0.0044414286
0.0042823887
0.00413134
0.0039875797
0.0038508603
0.0037219028
0.0036017119
0.0034907207
0.003388552
0.0032946025
0.0032087811
0.0031313116
0.0030619915
0.0030000842
0.0029446862
0.0028949142
0.0028499037
0.0028088936
0.002771204
0.0027361051
0.0027029051
0.0026709863
0.0026397497
0.0026086899
0.0025774601
0.0025458626
0.0025137491
0.002480944
0.0024472225
0.0024123361
0.0023761454
0.0023386646
0.0023000717
0.0022606237
0.0022205249
0.0021800289
0.0021392824
0.0020983861
0.0020573466
0.002016043
0.0019745107
0.0019327976
0.0018910811
0.0018493394
0.0018073913
0.0017652706
0.0017231471
0.0016808356
0.0016380257
0.0015947179
0.0015511167
0.0015070928
0.0014625376
0.0014175754
0.0013722179
0.0013263157
0.0012797379
0.0012324131
0.0011846906
0.0011362764
0.0010868754
0.0010371774
0.00098686107
0.00093556963
0.00088348652
0.00083052071
0.00077677787
0.00072221772
0.00066693196
0.00061159514
0.00055560336
0.00049920622
0.000443378
0.00038919356
0.00033465311
0.00029498534
0.00023497935
0.00036471569
-0.00021153381
0.0048902868
0.0049206359
0.0049494016
0.0049785304
0.0050098949
0.0050453943
0.0050863705
0.0051334976
0.0051870509
0.0052466526
0.005310274
0.0053728004
0.0054245422
0.0054505674
0.005433293
0.0053615952
0.0052406758
0.0050893909
0.0049261396
0.0047601377
0.0045948078
0.0044331222
0.004277732
0.0041295132
0.0039881213
0.0038534461
0.0037261653
0.003607218
0.0034970628
0.003395449
0.0033018847
0.0032162654
0.0031387626
0.0030692005
0.0030069103
0.002951039
0.0029007405
0.0028551865
0.0028136299
0.0027753965
0.0027397772
0.0027060906
0.0026737245
0.0026420935
0.0026106978
0.0025791864
0.0025473495
0.0025150292
0.0024820465
0.00244818
0.0024131903
0.0023769383
0.0023394332
0.0023008396
0.002261401
0.0022213186
0.002180832
0.0021400889
0.002099186
0.0020581332
0.0020168229
0.0019752836
0.0019335655
0.0018918305
0.0018500646
0.0018081004
0.001765962
0.0017238038
0.0016814571
0.0016386261
0.0015953027
0.0015516767
0.0015076316
0.001463059
0.001418075
0.0013726955
0.0013267726
0.0012801729
0.0012328417
0.0011851056
0.0011366645
0.0010872138
0.0010374137
0.00098698174
0.00093554557
0.00088347916
0.00083081147
0.00077737151
0.00072310696
0.00066802751
0.00061251158
0.00055632661
0.00049997642
0.00044408276
0.00038978691
0.00033533307
0.00029562501
0.00023543188
0.00036286691
-0.00020599487
0.0048712033
0.004901358
0.0049304882
0.0049600735
0.0049915263
0.0050264293
0.0050660052
0.0051108497
0.0051610381
0.0052159182
0.005273297
0.005328262
0.0053720617
0.0053918399
0.0053729695
0.0053060139
0.0051944301
0.0050533309
0.0048988007
0.0047399818
0.0045807156
0.0044239534
0.0042723564
0.0041271047
0.0039881851
0.0038556299
0.0037300927
0.0036124593
0.0035032125
0.0034022134
0.003309074
0.0032236889
0.0031461867
0.0030764132
0.0030137642
0.0029574381
0.0029066265
0.0028605359
0.0028184362
0.0027796606
0.0027435195
0.0027093434
0.0026765267
0.0026444962
0.0026127589
0.0025809599
0.002548878
0.0025163463
0.0024831826
0.0024491684
0.0024140725
0.0023777568
0.0023402252
0.0023016292
0.002262199
0.002222132
0.002181655
0.0021409152
0.002100006
0.0020589401
0.0020176228
0.0019760766
0.001934353
0.0018926
0.0018508099
0.0018088287
0.0017666714
0.0017244786
0.0016820969
0.0016392447
0.0015959047
0.0015522522
0.0015081848
0.0014635965
0.001418592
0.0013731878
0.0013272405
0.0012806219
0.0012332824
0.001185519
0.0011370552
0.0010876104
0.0010377935
0.00098732482
0.00093583337
0.00088367456
0.00083088322
0.00077731915
0.00072318014
0.00066841341
0.00061314994
0.00055721596
0.00050094739
0.00044484738
0.00039041659
0.000335979
0.00029605165
0.00023560392
0.00036030052
-0.00019957875
0.0048520187
0.004881848
0.0049110817
0.0049408336
0.0049721501
0.0050063221
0.0050444184
0.0050869361
0.0051337855
0.0051841081
0.0052356213
0.0052836703
0.0053204002
0.005334747
0.0053144976
0.0052516516
0.005148406
0.005016789
0.0048706925
0.0047189467
0.0045657047
0.0044139227
0.0042662448
0.0041240902
0.0039877448
0.0038573865
0.0037336609
0.0036174124
0.0035091465
0.0034088237
0.0033161522
0.0032310359
0.0031535698
0.0030836178
0.0030206361
0.0029638758
0.0029125661
0.002865948
0.0028233101
0.0027839952
0.002747332
0.0027126647
0.0026793945
0.0026469605
0.0026148762
0.0025827839
0.0025504518
0.0025177043
0.002484356
0.0024501912
0.0024149862
0.0023786041
0.0023410435
0.0023024432
0.0022630202
0.0022229675
0.0021824997
0.0021417629
0.0021008475
0.0020597689
0.0020184441
0.0019768908
0.0019351612
0.0018933902
0.0018515759
0.0018095766
0.0017673999
0.0017251727
0.0016827557
0.0016398812
0.0015965236
0.0015528444
0.0015087546
0.0014641502
0.0014191242
0.0013736937
0.0013277226
0.0012810863
0.0012337358
0.0011859435
0.0011374604
0.0010880164
0.0010381712
0.00098767842
0.00093618922
0.00088401928
0.00083118526
0.00077755094
0.00072331981
0.00066841642
0.00061311599
0.00055742673
0.0005014395
0.00044552639
0.00039123864
0.00033673763
0.00029648452
0.00023575394
0.00035693524
-0.00019220609
0.0048326632
0.0048620488
0.0048911614
0.0049208261
0.0049517983
0.0049851073
0.0050216515
0.0050618162
0.0051053758
0.005151324
0.0051973506
0.0052390926
0.0052695361
0.0052791631
0.0052577413
0.0051984834
0.0051026853
0.0049798598
0.0048418753
0.0046970728
0.0045498013
0.004403035
0.0042593836
0.004120447
0.0039867752
0.003858691
0.003736846
0.0036220539
0.0035148417
0.0034152581
0.0033231004
0.00323829
0.0031608971
0.0030908011
0.0030275152
0.0029703428
0.0029185518
0.0028714166
0.0028282468
0.0027883964
0.0027512121
0.0027160522
0.0026823264
0.0026494849
0.0026170487
0.0025846574
0.0025520699
0.0025191022
0.0024855658
0.0024512474
0.0024159306
0.0023794793
0.0023418871
0.0023032806
0.0022638637
0.0022238241
0.0021833653
0.0021426312
0.0021017098
0.002060619
0.0020192864
0.0019777261
0.0019359898
0.0018942011
0.0018523624
0.0018103444
0.0017681477
0.0017258861
0.0016834334
0.0016405357
0.0015971597
0.0015534539
0.0015093411
0.0014647196
0.0014196715
0.0013742146
0.0013282195
0.0012815646
0.0012342018
0.0011863816
0.0011378795
0.0010884332
0.0010385593
0.00098804498
0.0009365506
0.0008843619
0.00083151024
0.00077787448
0.00072362374
0.00066866317
0.00061328725
0.00055749696
0.00050138018
0.0004455677
0.00039154136
0.00033724286
0.00029700765
0.00023599135
0.00035294011
-0.00018360359
0.004813075
0.0048419099
0.0048707077
0.0049000643
0.0049305036
0.0049628244
0.0049977519
0.0050355539
0.0050758933
0.0051176648
0.0051585801
0.0051945865
0.0052194475
0.0052249772
0.0052025757
0.0051464757
0.0050573356
0.0049426336
0.0048124128
0.0046744028
0.0045330342
0.0043912988
0.0042517627
0.0041161548
0.0039852523
0.003859519
0.0037396241
0.0036263598
0.003520274
0.0034214938
0.0033298988
0.0032454337
0.0031681526
0.0030979491
0.0030343893
0.0029768291
0.0029245752
0.0028769353
0.0028332413
0.0027928605
0.002755157
0.0027195043
0.0026853213
0.0026520693
0.0026192765
0.0025865811
0.0025537332
0.0025205411
0.0024868131
0.0024523384
0.002416907
0.0023803839
0.0023427575
0.0023041426
0.0022647305
0.0022247029
0.0021842527
0.0021435212
0.002102594
0.0020614912
0.0020201506
0.001978583
0.0019368396
0.0018950332
0.0018531701
0.0018111327
0.0017689154
0.0017266195
0.0016841307
0.0016412088
0.0015978139
0.0015540812
0.0015099447
0.0014653053
0.0014202346
0.001374751
0.0013287314
0.0012820571
0.0012346812
0.0011868335
0.0011383111
0.0010888614
0.0010389602
0.00098842392
0.00093692163
0.00088471479
0.00083184638
0.00077819982
0.00072392757
0.00066895946
0.00061357214
0.00055774039
0.00050155628
0.00044565804
0.00039148123
0.0003371466
0.00029696809
0.00023580532
0.00034829775
-0.0001735597
0.0047931996
0.0048213871
0.0048497035
0.004878561
0.0049082991
0.0049395168
0.0049727723
0.0050082171
0.005045423
0.0050832258
0.0051193972
0.0051502015
0.0051701124
0.0051720904
0.0051488866
0.005095589
0.0050124104
0.0049051959
0.004782371
0.0046509811
0.0045154342
0.0043787268
0.0042433757
0.0041111955
0.0039831535
0.0038598467
0.0037419713
0.0036303061
0.0035254194
0.0034275076
0.0033365266
0.0032524488
0.0031753198
0.0031050472
0.003041246
0.002983324
0.0029306275
0.002882497
0.0028382882
0.0027973833
0.0027591638
0.0027230188
0.0026883777
0.0026547126
0.0026215592
0.0025885547
0.0025554418
0.0025220211
0.0024880982
0.0024534644
0.0024179155
0.0023813178
0.0023436546
0.0023050293
0.0022656206
0.0022256038
0.0021851618
0.0021444326
0.0021034999
0.0020623855
0.0020210365
0.0019794616
0.0019377106
0.0018958867
0.0018539992
0.0018119415
0.001769703
0.0017273729
0.0016848477
0.0016419007
0.0015984862
0.0015547266
0.0015105657
0.0014659076
0.001420814
0.0013753031
0.0013292584
0.0012825641
0.0012351744
0.0011872991
0.0011387558
0.0010893016
0.0010393736
0.0009888142
0.0009373032
0.00088507919
0.00083219313
0.00077853317
0.00072424185
0.000669263
0.00061385294
0.00055799939
0.00050181368
0.00044588646
0.00039162219
0.00033718952
0.00029655934
0.00023531679
0.00034182085
-0.00016210801
0.0047729898
0.004800443
0.0048281344
0.004856329
0.0048852184
0.0049152308
0.0049467697
0.0049798764
0.0050140495
0.005048098
0.005079882
0.00510598
0.0051215089
0.0051204144
0.0050965696
0.00504578
0.0049679513
0.0048676253
0.0047518164
0.0046268547
0.0044970341
0.0043653347
0.0042342196
0.0041055539
0.0039804577
0.0038596511
0.003743864
0.0036338688
0.0035302533
0.0034332759
0.0033429623
0.0032593162
0.0031823816
0.0031120798
0.0030480717
0.0029898159
0.0029366989
0.0028880939
0.0028433813
0.0028019599
0.0027632287
0.0027265933
0.002691494
0.0026574138
0.0026238962
0.0025905782