/*--------------------------------*- C++ -*----------------------------------*\
  =========                 |
  \\      /  F ield         | OpenFOAM: The Open Source CFD Toolbox
   \\    /   O peration     | Website:  https://openfoam.org
    \\  /    A nd           | Version:  12
     \\/     M anipulation  |
\*---------------------------------------------------------------------------*/
FoamFile
{
    format      ascii;
    class       surfaceScalarField;
    location    "700";
    object      phi;
}
// * * * * * * * * * * * * * * * * * * * * * * * * * * * * * * * * * * * * * //

dimensions      [0 3 -1 0 0 0 0];

internalField   nonuniform List<scalar> 
25880
(
2.0046356e-06
1.8555445e-11
2.004578e-06
5.7577268e-11
2.0044893e-06
8.8666346e-11
2.0043832e-06
1.0610339e-10
2.0042632e-06
1.2003048e-10
2.0041298e-06
1.334103e-10
2.0039832e-06
1.4656816e-10
2.0038234e-06
1.5981347e-10
2.0036497e-06
1.736869e-10
2.003461e-06
1.88717e-10
2.0032556e-06
2.0540051e-10
2.0030313e-06
2.2433719e-10
2.0027849e-06
2.4634255e-10
2.0025123e-06
2.726862e-10
2.0022072e-06
3.050395e-10
2.0018603e-06
3.4692784e-10
2.0014591e-06
4.0118291e-10
2.0009756e-06
4.8354679e-10
2.0003883e-06
5.8727249e-10
1.9995603e-06
8.2801305e-10
1.998517e-06
1.0432828e-09
1.9954766e-06
3.0403553e-09
1.9930478e-06
2.42885e-09
1.023012e-06
9.7003583e-07
3.9208307e-08
9.8380365e-07
2.5414237e-08
1.3794069e-08
2.5083246e-08
3.3099177e-10
2.4840277e-08
2.4296884e-10
2.426377e-08
5.7650695e-10
2.3638725e-08
6.2504483e-10
2.3076827e-08
5.6189772e-10
2.2591349e-08
4.8547883e-10
2.2167604e-08
4.2374452e-10
2.1792118e-08
3.7548649e-10
2.1455524e-08
3.3659344e-10
2.1148447e-08
3.0707677e-10
2.0864039e-08
2.8440875e-10
2.0599786e-08
2.6425216e-10
2.0353761e-08
2.4602507e-10
2.0124464e-08
2.2929756e-10
1.9910072e-08
2.1439144e-10
1.9708698e-08
2.0137443e-10
1.9518912e-08
1.89786e-10
1.9339377e-08
1.7953455e-10
1.9168931e-08
1.7044656e-10
1.9006707e-08
1.6222368e-10
1.8852004e-08
1.5470291e-10
1.8704211e-08
1.47793e-10
1.8562634e-08
1.4157756e-10
1.8426825e-08
1.3580862e-10
1.8296362e-08
1.3046312e-10
1.8170614e-08
1.2574814e-10
1.8049278e-08
1.2133542e-10
1.7932114e-08
1.1716406e-10
1.7818656e-08
1.1345779e-10
1.7708657e-08
1.0999964e-10
1.7601982e-08
1.0667457e-10
1.7498279e-08
1.0370322e-10
1.7397263e-08
1.0101628e-10
1.7298882e-08
9.8380827e-11
1.7202974e-08
9.5907445e-11
1.7109237e-08
9.3737881e-11
1.7017529e-08
9.1707606e-11
1.6927707e-08
8.9821534e-11
1.6839529e-08
8.8178091e-11
1.6752903e-08
8.6625955e-11
1.6667841e-08
8.5062153e-11
1.6584339e-08
8.3502752e-11
1.6502284e-08
8.2055009e-11
1.6421509e-08
8.0774357e-11
1.6341936e-08
7.9573045e-11
1.626353e-08
7.840585e-11
1.6186209e-08
7.7321715e-11
1.6109862e-08
7.6346963e-11
1.6034415e-08
7.544682e-11
1.5959814e-08
7.460106e-11
1.5886015e-08
7.3799125e-11
1.5812953e-08
7.3061763e-11
1.5740552e-08
7.2400897e-11
1.5668769e-08
7.1782691e-11
1.5597556e-08
7.1213193e-11
1.552685e-08
7.0705816e-11
1.5456611e-08
7.0239264e-11
1.5386801e-08
6.9809492e-11
1.531735e-08
6.9451574e-11
1.5248208e-08
6.9141452e-11
1.5179357e-08
6.8851682e-11
1.5110755e-08
6.8602249e-11
1.504235e-08
6.8404434e-11
1.4974088e-08
6.826257e-11
1.4905929e-08
6.8158959e-11
1.4837858e-08
6.8070157e-11
1.4769834e-08
6.8024289e-11
1.470177e-08
6.8064415e-11
1.4633613e-08
6.8157016e-11
1.4565362e-08
6.8250742e-11
1.4496982e-08
6.8380089e-11
1.4428349e-08
6.8632718e-11
1.4359391e-08
6.8957796e-11
1.4290137e-08
6.9254106e-11
1.4220562e-08
6.9575709e-11
1.415056e-08
7.0001348e-11
1.4080052e-08
7.0507908e-11
1.4009026e-08
7.1025858e-11
1.3937433e-08
7.1593781e-11
1.3865137e-08
7.2295966e-11
1.379206e-08
7.3076313e-11
1.3718182e-08
7.3878358e-11
1.3643403e-08
7.477857e-11
1.3567591e-08
7.581268e-11
1.3490688e-08
7.6902965e-11
1.341262e-08
7.8068076e-11
1.3333174e-08
7.944609e-11
1.3255625e-08
7.7548272e-11
1.3181785e-08
7.3840318e-11
1.3111182e-08
7.0603155e-11
1.3043561e-08
6.7620354e-11
1.2978882e-08
6.4679391e-11
1.2916934e-08
6.1948487e-11
1.2857464e-08
5.946921e-11
1.2800283e-08
5.7181008e-11
1.2745273e-08
5.5010539e-11
1.2692307e-08
5.2965727e-11
1.2641216e-08
5.1091364e-11
1.2591842e-08
4.9373994e-11
1.2544092e-08
4.7749737e-11
1.2497897e-08
4.6195085e-11
1.245316e-08
4.4737115e-11
1.2409738e-08
4.3422166e-11
1.2367526e-08
4.2212e-11
1.2326306e-08
4.1220116e-11
1.2286203e-08
4.0102727e-11
1.2246151e-08
4.0052044e-11
1.2207742e-08
3.8408883e-11
1.2160671e-08
4.7070824e-11
2.9543177e-11
2.0345092e-06
3.7390495e-11
2.0344508e-06
1.1604365e-10
2.0343607e-06
1.7873823e-10
2.0342529e-06
2.1392454e-10
2.0341309e-06
2.420256e-10
2.0339953e-06
2.6901222e-10
2.0338463e-06
2.9554412e-10
2.0336839e-06
3.2224739e-10
2.0335073e-06
3.502127e-10
2.0333155e-06
3.8050585e-10
2.0331068e-06
4.1412839e-10
2.0328789e-06
4.5228927e-10
2.0326286e-06
4.9663218e-10
2.0323515e-06
5.4971569e-10
2.0320417e-06
6.1490785e-10
2.0316893e-06
6.993125e-10
2.0312818e-06
8.0863554e-10
2.0307908e-06
9.745959e-10
2.0301945e-06
1.1836002e-09
2.0293538e-06
1.6686631e-09
2.0282946e-06
2.1024566e-09
2.025209e-06
6.1260118e-09
2.0227393e-06
4.8984968e-09
1.0894715e-06
1.9033037e-06
1.1745467e-07
1.9558204e-06
7.7765125e-08
5.3483613e-08
7.6752999e-08
1.343118e-09
7.6007436e-08
9.8853219e-10
7.4241627e-08
2.3423151e-09
7.2328817e-08
2.5378549e-09
7.0610163e-08
2.2805524e-09
6.9124956e-08
1.9706855e-09
6.7828392e-08
1.7203083e-09
6.6679497e-08
1.5243816e-09
6.5649638e-08
1.3664525e-09
6.4710083e-08
1.2466313e-09
6.3839882e-08
1.1546105e-09
6.3031351e-08
1.0727833e-09
6.2278594e-08
9.9878165e-10
6.1577016e-08
9.3087604e-10
6.0921042e-08
8.7036487e-10
6.0304895e-08
8.1752126e-10
5.9724202e-08
7.7047892e-10
5.9174878e-08
7.2885903e-10
5.8653355e-08
6.9196914e-10
5.8156998e-08
6.5858142e-10
5.7683648e-08
6.2805277e-10
5.7231434e-08
6.0000619e-10
5.6798249e-08
5.7476255e-10
5.6382709e-08
5.5134882e-10
5.5983519e-08
5.2965343e-10
5.5598766e-08
5.1050061e-10
5.522751e-08
4.9259189e-10
5.4869011e-08
4.7566355e-10
5.452186e-08
4.6060836e-10
5.418529e-08
4.4656985e-10
5.3858887e-08
4.3307778e-10
5.3541577e-08
4.2101304e-10
5.3232496e-08
4.1009708e-10
5.2931473e-08
3.9940362e-10
5.2638012e-08
3.8936839e-10
5.2351196e-08
3.8055446e-10
5.2070596e-08
3.7230688e-10
5.1795762e-08
3.646562e-10
5.1525951e-08
3.5798911e-10
5.1260895e-08
3.5168166e-10
5.1000628e-08
3.4532908e-10
5.0745128e-08
3.3900302e-10
5.0494052e-08
3.3313033e-10
5.02469e-08
3.2792689e-10
5.0003426e-08
3.2304652e-10
4.9763522e-08
3.1830992e-10
4.9526931e-08
3.1391285e-10
4.9293324e-08
3.0995462e-10
4.9062473e-08
3.0629708e-10
4.8834213e-08
3.0286166e-10
4.8608402e-08
2.9961007e-10
4.8384844e-08
2.9661947e-10
4.8163313e-08
2.9393237e-10
4.7943674e-08
2.9142086e-10
4.7725777e-08
2.8911043e-10
4.750943e-08
2.8705349e-10
4.729451e-08
2.8515857e-10
4.7080908e-08
2.8341171e-10
4.6868402e-08
2.8195717e-10
4.6656843e-08
2.8070102e-10
4.6446168e-08
2.7952695e-10
4.6236258e-08
2.7851133e-10
4.6026956e-08
2.7770703e-10
4.5818086e-08
2.771321e-10
4.5609532e-08
2.7671349e-10
4.5401249e-08
2.7635252e-10
4.5193109e-08
2.7616472e-10
4.4984846e-08
2.7632695e-10
4.4776298e-08
2.76705e-10
4.4567463e-08
2.7708658e-10
4.4358233e-08
2.7760978e-10
4.4148231e-08
2.7863438e-10
4.3937233e-08
2.7995577e-10
4.3725327e-08
2.8115997e-10
4.3512439e-08
2.8246419e-10
4.3298249e-08
2.8419121e-10
4.3082508e-08
2.8624906e-10
4.2865181e-08
2.8835284e-10
4.2646117e-08
2.9065739e-10
4.2424906e-08
2.935072e-10
4.2201306e-08
2.9667662e-10
4.1975251e-08
2.9993349e-10
4.1746442e-08
3.0358678e-10
4.151447e-08
3.0778523e-10
4.127916e-08
3.1221246e-10
4.1040286e-08
3.1694219e-10
4.0797196e-08
3.225363e-10
4.0559912e-08
3.1483245e-10
4.0333974e-08
2.9977875e-10
4.0117941e-08
2.866354e-10
3.9911035e-08
2.7452622e-10
3.9713128e-08
2.6258708e-10
3.9523577e-08
2.5149961e-10
3.9341612e-08
2.4143367e-10
3.9166649e-08
2.3214448e-10
3.8998326e-08
2.2333323e-10
3.883626e-08
2.1503119e-10
3.8679931e-08
2.0742116e-10
3.8528856e-08
2.0044884e-10
3.838275e-08
1.9385511e-10
3.8241402e-08
1.8754353e-10
3.8104516e-08
1.8162362e-10
3.7971653e-08
1.7628459e-10
3.7842495e-08
1.7137051e-10
3.7716371e-08
1.673435e-10
3.7593672e-08
1.6280236e-10
3.7471124e-08
1.6259969e-10
3.7353677e-08
1.5585551e-10
3.7209373e-08
1.9137538e-10
1.1952153e-10
2.0947017e-06
5.678605e-11
2.0946415e-06
1.7627433e-10
2.0945486e-06
2.7156943e-10
2.0944375e-06
3.2508912e-10
2.0943117e-06
3.6782809e-10
2.0941718e-06
4.0885554e-10
2.0940182e-06
4.4918009e-10
2.0938507e-06
4.8975681e-10
2.0936686e-06
5.3224418e-10
2.0934709e-06
5.7826208e-10
2.0932557e-06
6.2933253e-10
2.0930207e-06
6.8729235e-10
2.0927627e-06
7.5463843e-10
2.0924771e-06
8.3525702e-10
2.0921578e-06
9.342635e-10
2.0917946e-06
1.0624469e-09
2.0913748e-06
1.2284723e-09
2.0908689e-06
1.480511e-09
2.0902546e-06
1.7979155e-09
2.0893887e-06
2.5345547e-09
2.0882978e-06
3.1933179e-09
2.0851204e-06
9.3034364e-09
2.0825765e-06
7.4423641e-09
1.1730724e-06
2.8128078e-06
2.0012553e-07
2.9287673e-06
1.3477426e-07
1.1883488e-07
1.3301711e-07
3.1002746e-09
1.3172155e-07
2.2840847e-09
1.2865909e-07
5.4047738e-09
1.253436e-07
5.8533513e-09
1.2236608e-07
5.258075e-09
1.1979269e-07
4.5440719e-09
1.1754584e-07
3.9671556e-09
1.1555488e-07
3.5153419e-09
1.1377024e-07
3.1510902e-09
1.1214209e-07
2.8747862e-09
1.1063411e-07
2.6625928e-09
1.0923299e-07
2.4738984e-09
1.0792853e-07
2.30324e-09
1.0671276e-07
2.1466505e-09
1.0557601e-07
2.0071148e-09
1.0450827e-07
1.8852583e-09
1.0350197e-07
1.7767809e-09
1.0255003e-07
1.6808017e-09
1.0164626e-07
1.5957374e-09
1.007861e-07
1.5187365e-09
9.9965815e-08
1.4483413e-09
9.918215e-08
1.3836718e-09
9.8431469e-08
1.3254435e-09
9.7711358e-08
1.2714594e-09
9.7019575e-08
1.2214369e-09
9.6352822e-08
1.1772532e-09
9.5709451e-08
1.1359626e-09
9.5088181e-08
1.0969342e-09
9.4486586e-08
1.062203e-09
9.3903326e-08
1.0298297e-09
9.3337677e-08
9.9872695e-10
9.2787789e-08
9.7090156e-10
9.2252169e-08
9.4571687e-10
9.1730507e-08
9.2106581e-10
9.1221941e-08
8.9793362e-10
9.0724898e-08
8.7759837e-10
9.0238634e-08
8.585704e-10
8.9762353e-08
8.4093741e-10
8.9294771e-08
8.2557047e-10
8.8835438e-08
8.1101524e-10
8.8384408e-08
7.9635893e-10
8.7941633e-08
7.8177834e-10
8.750652e-08
7.6824312e-10
8.707821e-08
7.5623693e-10
8.665628e-08
7.449765e-10
8.6240533e-08
7.3405683e-10
8.5830522e-08
7.2392375e-10
8.5425682e-08
7.1479444e-10
8.5025625e-08
7.0635417e-10
8.4630058e-08
6.9842902e-10
8.4238731e-08
6.9093729e-10
8.3851305e-08
6.8404534e-10
8.3467395e-08
6.778423e-10
8.3086768e-08
6.7204718e-10
8.2709157e-08
6.6672202e-10
8.2334227e-08
6.6198324e-10
8.1961773e-08
6.5761228e-10
8.1591605e-08
6.5358007e-10
8.1223339e-08
6.5022356e-10
8.0856708e-08
6.4733155e-10
8.0491607e-08
6.4462774e-10
8.0127838e-08
6.4228113e-10
7.9765121e-08
6.4042398e-10
7.9403153e-08
6.3909999e-10
7.9041728e-08
6.3813797e-10
7.8680776e-08
6.3730496e-10
7.8320071e-08
6.3686909e-10
7.7959156e-08
6.3724228e-10
7.7597743e-08
6.381176e-10
7.7235831e-08
6.3899936e-10
7.6873238e-08
6.4020284e-10
7.6509308e-08
6.4256405e-10
7.614365e-08
6.4561402e-10
7.5776417e-08
6.4839314e-10
7.5407482e-08
6.5139859e-10
7.5036294e-08
6.5537973e-10
7.4662415e-08
6.6012753e-10
7.4285787e-08
6.649808e-10
7.3906151e-08
6.7029364e-10
7.3522794e-08
6.7686423e-10
7.3135295e-08
6.8417551e-10
7.2743541e-08
6.9168745e-10
7.2347017e-08
7.0011037e-10
7.194501e-08
7.097927e-10
7.1537219e-08
7.200039e-10
7.112325e-08
7.3091072e-10
7.0701975e-08
7.4381101e-10
7.0290761e-08
7.2604645e-10
6.989921e-08
6.9133052e-10
6.9524826e-08
6.6101862e-10
6.9166259e-08
6.3309389e-10
6.8823284e-08
6.0556171e-10
6.8494792e-08
5.7999176e-10
6.8179448e-08
5.5677752e-10
6.7876236e-08
5.3535621e-10
6.7584532e-08
5.1503706e-10
6.7303673e-08
4.9589072e-10
6.7032754e-08
4.7834015e-10
6.6770942e-08
4.6226088e-10
6.6517741e-08
4.4705562e-10
6.6272785e-08
4.3250024e-10
6.6035561e-08
4.1884684e-10
6.5805313e-08
4.0653305e-10
6.5581484e-08
3.9519912e-10
6.5362917e-08
3.8591052e-10
6.5150286e-08
3.7543354e-10
6.4937926e-08
3.7495963e-10
6.4734456e-08
3.5932581e-10
6.4484189e-08
4.4164256e-10
2.7517161e-10
2.18611e-06
7.7031602e-11
2.1860471e-06
2.3917251e-10
2.1859501e-06
3.6855933e-10
2.1858339e-06
4.4128043e-10
2.1857024e-06
4.9934777e-10
2.1855562e-06
5.5506532e-10
2.1853955e-06
6.0981097e-10
2.1852204e-06
6.6488659e-10
2.1850301e-06
7.2254504e-10
2.1848234e-06
7.8498551e-10
2.1845984e-06
8.5427408e-10
2.1843528e-06
9.3290357e-10
2.1840832e-06
1.024262e-09
2.1837848e-06
1.1336217e-09
2.1834512e-06
1.2679224e-09
2.1830718e-06
1.4417998e-09
2.1826333e-06
1.6670078e-09
2.1821049e-06
2.0088904e-09
2.1814634e-06
2.4394331e-09
2.1805593e-06
3.4386534e-09
2.1794204e-06
4.3321854e-09
2.1761039e-06
1.2619979e-08
2.1734476e-06
1.0098698e-08
1.2771562e-06
3.7090992e-06
2.9184756e-07
3.9140759e-06
1.9984702e-07
2.1083542e-07
1.9723734e-07
5.7099619e-09
1.9530783e-07
4.213585e-09
1.9076387e-07
9.9487366e-09
1.8584729e-07
1.0769938e-08
1.8143413e-07
9.6712259e-09
1.7761958e-07
8.3586248e-09
1.7428856e-07
7.2981743e-09
1.7133685e-07
6.4670524e-09
1.6869107e-07
5.7968699e-09
1.6627727e-07
5.2885904e-09
1.640416e-07
4.898259e-09
1.6196436e-07
4.5511365e-09
1.6003042e-07
4.2371797e-09
1.5822796e-07
3.9491197e-09
1.5654263e-07
3.6924365e-09
1.5495962e-07
3.4682729e-09
1.5346768e-07
3.2687208e-09
1.5205633e-07
3.0921536e-09
1.5071639e-07
2.9356729e-09
1.4944112e-07
2.7940097e-09
1.4822494e-07
2.6645164e-09
1.4706306e-07
2.545557e-09
1.4595009e-07
2.4384163e-09
1.4488243e-07
2.3391179e-09
1.4385676e-07
2.247106e-09
1.4286821e-07
2.1657999e-09
1.4191432e-07
2.0898504e-09
1.4099319e-07
2.0180658e-09
1.4010124e-07
1.9541531e-09
1.3923648e-07
1.8945967e-09
1.3839781e-07
1.8373955e-09
1.3758251e-07
1.7862005e-09
1.3678837e-07
1.7398509e-09
1.3601492e-07
1.6945146e-09
1.3526088e-07
1.6519748e-09
1.3452393e-07
1.6145491e-09
1.3380297e-07
1.5795301e-09
1.330968e-07
1.5471073e-09
1.3240352e-07
1.5188498e-09
1.3172248e-07
1.4920573e-09
1.3105376e-07
1.465083e-09
1.3039726e-07
1.4382722e-09
1.2975212e-07
1.4133841e-09
1.2911707e-07
1.3912863e-09
1.2849149e-07
1.3705605e-09
1.2787507e-07
1.3504774e-09
1.2726715e-07
1.331847e-09
1.2666689e-07
1.3150503e-09
1.2607373e-07
1.299513e-09
1.2548723e-07
1.2849291e-09
1.2490701e-07
1.2711578e-09
1.2433257e-07
1.2584862e-09
1.2376335e-07
1.2470648e-09
1.23199e-07
1.2363975e-09
1.2263911e-07
1.226606e-09
1.220832e-07
1.217896e-09
1.2153096e-07
1.2098534e-09
1.2098211e-07
1.2024288e-09
1.2043608e-07
1.1962507e-09
1.1989248e-07
1.1909383e-09
1.1935113e-07
1.1859703e-09
1.1881177e-07
1.1816465e-09
1.1827397e-07
1.1782258e-09
1.1773727e-07
1.1757935e-09
1.1720138e-07
1.1740294e-09
1.1666619e-07
1.1724964e-09
1.1613137e-07
1.17169e-09
1.1559624e-07
1.1723755e-09
1.1506036e-07
1.1739919e-09
1.1452374e-07
1.1756174e-09
1.1398612e-07
1.1778269e-09
1.1344652e-07
1.1821684e-09
1.1290435e-07
1.1877844e-09
1.1235984e-07
1.192901e-09
1.1181281e-07
1.1984271e-09
1.1126244e-07
1.2057492e-09
1.1070808e-07
1.2144878e-09
1.1014964e-07
1.2234198e-09
1.0958674e-07
1.2331917e-09
1.0901833e-07
1.2452782e-09
1.0844377e-07
1.2587331e-09
1.078629e-07
1.2725556e-09
1.0727496e-07
1.2880492e-09
1.0667889e-07
1.305863e-09
1.0607424e-07
1.3246519e-09
1.0546044e-07
1.3447177e-09
1.048358e-07
1.3684511e-09
1.0422607e-07
1.3357708e-09
1.036455e-07
1.2719011e-09
1.0309039e-07
1.2161315e-09
1.0255873e-07
1.1647572e-09
1.0205018e-07
1.1141058e-09
1.0156311e-07
1.0670615e-09
1.0109554e-07
1.0243511e-09
1.0064595e-07
9.8494187e-10
1.0021343e-07
9.4756034e-10
9.9796987e-08
9.1233412e-10
9.9395284e-08
8.8004345e-10
9.9007084e-08
8.5046091e-10
9.8631652e-08
8.2248775e-10
9.8268443e-08
7.9570893e-10
9.7916702e-08
7.7058749e-10
9.7575305e-08
7.4793033e-10
9.7243428e-08
7.270764e-10
9.6919356e-08
7.0998254e-10
9.6604085e-08
6.9070384e-10
9.6289239e-08
6.8980624e-10
9.5987602e-08
6.6096245e-10
9.5616407e-08
8.1283765e-10
5.057963e-10
2.3100963e-06
9.8429503e-11
2.3100298e-06
3.0568322e-10
2.3099272e-06
4.7117517e-10
2.3098042e-06
5.6426647e-10
2.3096649e-06
6.3859249e-10
2.3095101e-06
7.0987646e-10
2.30934e-06
7.7989248e-10
2.3091546e-06
8.5031293e-10
2.3089531e-06
9.2402082e-10
2.3087343e-06
1.0038289e-09
2.3084962e-06
1.0923791e-09
2.3082362e-06
1.1928583e-09
2.3079509e-06
1.3095969e-09
2.3076352e-06
1.449333e-09
2.3072822e-06
1.6209344e-09
2.3068809e-06
1.8431029e-09
2.306417e-06
2.1308564e-09
2.3058582e-06
2.5676888e-09
2.3051799e-06
3.1177952e-09
2.304224e-06
4.3945168e-09
2.3030201e-06
5.5361163e-09
2.299515e-06
1.6125069e-08
2.2967062e-06
1.2907521e-08
1.4053349e-06
4.6004704e-06
3.9752359e-07
4.9218873e-06
2.7685615e-07
3.3150286e-07
2.7322471e-07
9.341402e-09
2.7053049e-07
6.9078114e-09
2.6423295e-07
1.6246273e-08
2.5742404e-07
1.7578844e-08
2.5131553e-07
1.5779735e-08
2.4603493e-07
1.3639224e-08
2.414229e-07
1.1910205e-08
2.3733591e-07
1.0554051e-08
2.3367252e-07
9.4602577e-09
2.3033026e-07
8.6308439e-09
2.272346e-07
7.9939224e-09
2.2435827e-07
7.4274692e-09
2.2168033e-07
6.915119e-09
2.191844e-07
6.4450465e-09
2.1685065e-07
6.0261844e-09
2.1465854e-07
5.6603843e-09
2.1259252e-07
5.3347419e-09
2.1063807e-07
5.0465999e-09
2.087825e-07
4.7912434e-09
2.0701647e-07
4.5600452e-09
2.0533225e-07
4.3487331e-09
2.037232e-07
4.1546102e-09
2.0218188e-07
3.979731e-09
2.007033e-07
3.8176991e-09
1.9928285e-07
3.667556e-09
1.9791382e-07
3.534833e-09
1.9659277e-07
3.4109007e-09
1.9531706e-07
3.2937713e-09
1.9408178e-07
3.189438e-09
1.9288413e-07
3.0922409e-09
1.9172261e-07
2.9989159e-09
1.9059346e-07
2.9153565e-09
1.8949362e-07
2.8396863e-09
1.8842242e-07
2.7657177e-09
1.8737808e-07
2.6963171e-09
1.8635741e-07
2.635214e-09
1.853589e-07
2.5780408e-09
1.8438086e-07
2.5251517e-09
1.8342065e-07
2.4790553e-09
1.824774e-07
2.435305e-09
1.8155122e-07
2.391264e-09
1.8064197e-07
2.3475285e-09
1.7974842e-07
2.3069303e-09
1.7886886e-07
2.2708506e-09
1.7800241e-07
2.237009e-09
1.7714864e-07
2.2042422e-09
1.7630664e-07
2.1738552e-09
1.7547524e-07
2.1464405e-09
1.7465369e-07
2.1210674e-09
1.7384136e-07
2.0972601e-09
1.7303771e-07
2.074803e-09
1.7224207e-07
2.0541348e-09
1.7145365e-07
2.0354801e-09
1.7067199e-07
2.0180614e-09
1.698965e-07
2.0020904e-09
1.6912651e-07
1.9878884e-09
1.683616e-07
1.9747615e-09
1.676014e-07
1.9626342e-09
1.668451e-07
1.9525475e-09
1.6609215e-07
1.9438914e-09
1.6534232e-07
1.9357939e-09
1.6459524e-07
1.9287281e-09
1.6385033e-07
1.9231395e-09
1.6310694e-07
1.9191771e-09
1.6236466e-07
1.9163084e-09
1.6162335e-07
1.9138071e-09
1.6088256e-07
1.9124852e-09
1.6014133e-07
1.9136042e-09
1.5939907e-07
1.9162535e-09
1.5865577e-07
1.9189134e-09
1.5791109e-07
1.9225141e-09
1.5716366e-07
1.9295982e-09
1.5641267e-07
1.938774e-09
1.5565843e-07
1.9471329e-09
1.5490071e-07
1.9561495e-09
1.5413836e-07
1.9680988e-09
1.5337048e-07
1.9823701e-09
1.5259694e-07
1.996956e-09
1.5181723e-07
2.012904e-09
1.5102988e-07
2.032631e-09
1.5023401e-07
2.0546006e-09
1.494294e-07
2.0771678e-09
1.4861499e-07
2.102455e-09
1.4778932e-07
2.1315343e-09
1.4695176e-07
2.162209e-09
1.4610152e-07
2.1949632e-09
1.4523627e-07
2.2337043e-09
1.4439167e-07
2.1803667e-09
1.4358746e-07
2.0761145e-09
1.4281851e-07
1.9850802e-09
1.4208204e-07
1.9012252e-09
1.4137759e-07
1.8185515e-09
1.4070289e-07
1.7417609e-09
1.400552e-07
1.672044e-09
1.3943242e-07
1.6077196e-09
1.3883328e-07
1.5467048e-09
1.3825641e-07
1.4892043e-09
1.3769996e-07
1.4364946e-09
1.3716221e-07
1.3882076e-09
1.3664215e-07
1.3425495e-09
1.3613902e-07
1.2988389e-09
1.3565178e-07
1.2578303e-09
1.3517886e-07
1.2208432e-09
1.3471914e-07
1.186801e-09
1.3427023e-07
1.1588895e-09
1.3383352e-07
1.1274198e-09
1.3339742e-07
1.1258999e-09
1.3297965e-07
1.0787382e-09
1.3246537e-07
1.3271123e-09
8.2515874e-10
2.4685083e-06
1.2129947e-10
2.4684372e-06
3.7680783e-10
2.4683274e-06
5.8097524e-10
2.4681957e-06
6.9592857e-10
2.4680466e-06
7.8770114e-10
2.4678808e-06
8.7567078e-10
2.4676987e-06
9.620419e-10
2.4675001e-06
1.0488876e-09
2.4672843e-06
1.1397669e-09
2.46705e-06
1.2381496e-09
2.4667951e-06
1.3472944e-09
2.4665168e-06
1.4711308e-09
2.4662114e-06
1.6149971e-09
2.4658736e-06
1.7871983e-09
2.4654958e-06
1.9986637e-09
2.4650665e-06
2.272441e-09
2.4645703e-06
2.6270361e-09
2.4639727e-06
3.1653412e-09
2.4632472e-06
3.8432202e-09
2.4622253e-06
5.4165021e-09
2.4609382e-06
6.8231661e-09
2.4571923e-06
1.9870943e-08
2.4541886e-06
1.5911258e-08
1.5616274e-06
5.4930317e-06
5.2255646e-07
5.9609582e-06
3.7031874e-07
4.8374057e-07
3.6539582e-07
1.4264324e-08
3.6174168e-07
1.0561951e-08
3.5332082e-07
2.4667127e-08
3.4422612e-07
2.6673544e-08
3.360711e-07
2.3934759e-08
3.2902008e-07
2.0690242e-08
3.2286039e-07
1.8069896e-08
3.1740149e-07
1.6012948e-08
3.1250824e-07
1.4353511e-08
3.080437e-07
1.3095381e-08
3.0390835e-07
1.2129277e-08
3.0006582e-07
1.1269992e-08
2.9648819e-07
1.0492749e-08
2.9315359e-07
9.7796515e-09
2.9003553e-07
9.1442453e-09
2.8710659e-07
8.5893211e-09
2.8434603e-07
8.0953022e-09
2.8173447e-07
7.6581622e-09
2.7925495e-07
7.2707614e-09
2.7689502e-07
6.9199788e-09
2.7464435e-07
6.5994014e-09
2.7249406e-07
6.3048959e-09
2.7043427e-07
6.0395236e-09
2.6845826e-07
5.793712e-09
2.6655988e-07
5.565933e-09
2.647302e-07
5.36451e-09
2.6296461e-07
5.1764938e-09
2.6125957e-07
4.9988076e-09
2.5960855e-07
4.840462e-09
2.5800781e-07
4.692982e-09
2.5645531e-07
4.5514196e-09
2.5494604e-07
4.4246195e-09
2.5347597e-07
4.3097627e-09
2.5204413e-07
4.1975583e-09
2.5064815e-07
4.0922918e-09
2.4928382e-07
3.9995415e-09
2.4794911e-07
3.9127575e-09
2.4664171e-07
3.8325449e-09
2.4535814e-07
3.7626314e-09
2.4409723e-07
3.6962099e-09
2.4285914e-07
3.6293558e-09
2.4164364e-07
3.563025e-09
2.4044912e-07
3.5014532e-09
2.3927329e-07
3.4466847e-09
2.3811499e-07
3.3953098e-09
2.3697362e-07
3.3456059e-09
2.3584795e-07
3.2995266e-09
2.3473646e-07
3.257927e-09
2.3363813e-07
3.2194033e-09
2.3255212e-07
3.1832718e-09
2.3147769e-07
3.1492259e-09
2.3041394e-07
3.1178851e-09
2.2935986e-07
3.0895594e-09
2.2831481e-07
3.0631158e-09
2.27278e-07
3.0388987e-09
2.2624852e-07
3.0173721e-09
2.2522582e-07
2.9974553e-09
2.2420942e-07
2.9790408e-09
2.2319823e-07
2.9637338e-09
2.221915e-07
2.9506247e-09
2.2118893e-07
2.9383579e-09
2.2019004e-07
2.927627e-09
2.1919403e-07
2.9191423e-09
2.1820006e-07
2.9131461e-09
2.1720756e-07
2.9088147e-09
2.1621634e-07
2.9050259e-09
2.1522581e-07
2.9030167e-09
2.1423469e-07
2.9047218e-09
2.1324218e-07
2.9087666e-09
2.1224827e-07
2.9128206e-09
2.112525e-07
2.9182838e-09
2.1025306e-07
2.9290396e-09
2.0924884e-07
2.9429882e-09
2.0824028e-07
2.9556943e-09
2.0722705e-07
2.9693821e-09
2.0620762e-07
2.9875238e-09
2.0518079e-07
3.0092052e-09
2.0414638e-07
3.0313628e-09
2.0310371e-07
3.0555744e-09
2.0205082e-07
3.0855242e-09
2.0098653e-07
3.1188922e-09
1.9991053e-07
3.1531638e-09
1.9882143e-07
3.191553e-09
1.9771726e-07
3.2357061e-09
1.9659718e-07
3.2822868e-09
1.9546013e-07
3.3320174e-09
1.94303e-07
3.3908373e-09
1.9317348e-07
3.309885e-09
1.9209796e-07
3.1516352e-09
1.9106959e-07
3.0134434e-09
1.9008466e-07
2.8861567e-09
1.8914255e-07
2.7606651e-09
1.8824021e-07
2.6440964e-09
1.8737399e-07
2.5382648e-09
1.8654109e-07
2.440625e-09
1.8573978e-07
2.3480086e-09
1.8496827e-07
2.2607207e-09
1.8422406e-07
2.1807041e-09
1.8350486e-07
2.1074042e-09
1.8280931e-07
2.0380983e-09
1.8213641e-07
1.9717451e-09
1.8148475e-07
1.9094886e-09
1.8085226e-07
1.8533349e-09
1.802374e-07
1.8016547e-09
1.7963702e-07
1.7592687e-09
1.7905295e-07
1.7114982e-09
1.7846975e-07
1.7090951e-09
1.7791107e-07
1.6374223e-09
1.7722318e-07
2.0149991e-09
1.2522276e-09
2.6637067e-06
1.4598339e-10
2.6636299e-06
4.5361954e-10
2.6635112e-06
6.9963375e-10
2.6633689e-06
8.3829241e-10
2.6632076e-06
9.4897958e-10
2.6630282e-06
1.0550172e-09
2.6628312e-06
1.1590824e-09
2.6626164e-06
1.2636864e-09
2.662383e-06
1.3731207e-09
2.6621296e-06
1.4915663e-09
2.661854e-06
1.6229485e-09
2.6615531e-06
1.7719998e-09
2.661223e-06
1.9451471e-09
2.6608578e-06
2.1523875e-09
2.6604496e-06
2.4068752e-09
2.6599856e-06
2.7363494e-09
2.6594496e-06
3.16308e-09
2.658804e-06
3.8108949e-09
2.6580206e-06
4.6266621e-09
2.6569171e-06
6.5199857e-09
2.6555276e-06
8.2126647e-09
2.6514852e-06
2.391341e-08
2.648241e-06
1.915545e-08
1.7505697e-06
6.3907029e-06
6.7303513e-07
7.0384927e-06
4.8553114e-07
6.7124457e-07
4.7884981e-07
2.0945657e-08
4.7394414e-07
1.5467619e-08
4.6292682e-07
3.5684442e-08
4.5104869e-07
3.8551673e-08
4.4040253e-07
3.4580922e-08
4.3119486e-07
2.9897918e-08
4.2314853e-07
2.6116226e-08
4.1601648e-07
2.3144993e-08
4.0962273e-07
2.0747259e-08
4.0378847e-07
1.8929648e-08
3.9838378e-07
1.7533967e-08
3.9336127e-07
1.62925e-08
3.8868451e-07
1.5169506e-08
3.84325e-07
1.4139162e-08
3.8024819e-07
1.3221056e-08
3.7641831e-07
1.2419203e-08
3.7280829e-07
1.1705317e-08
3.6939286e-07
1.1073596e-08
3.6614987e-07
1.0513749e-08
3.6306309e-07
1.0006764e-08
3.6011902e-07
9.543472e-09
3.5730607e-07
9.1178413e-09
3.5461137e-07
8.7342243e-09
3.5202611e-07
8.37897e-09
3.4954228e-07
8.0497669e-09
3.4714824e-07
7.758553e-09
3.4483792e-07
7.4868115e-09
3.4260672e-07
7.2300106e-09
3.4044612e-07
7.001059e-09
3.3835124e-07
6.7878655e-09
3.3631937e-07
6.5832858e-09
3.3434402e-07
6.3999656e-09
3.3241991e-07
6.2338713e-09
3.3054576e-07
6.0717114e-09
3.2871846e-07
5.9195905e-09
3.2693255e-07
5.7854564e-09
3.2518535e-07
5.6599514e-09
3.2347385e-07
5.5440495e-09
3.2179346e-07
5.4430243e-09
3.2014272e-07
5.3469482e-09
3.1852181e-07
5.2502597e-09
3.1693042e-07
5.1544154e-09
3.1536643e-07
5.0654492e-09
3.1382687e-07
4.9862421e-09
3.1231024e-07
4.9119367e-09
3.1081574e-07
4.840107e-09
3.0934173e-07
4.7735376e-09
3.0788626e-07
4.7134008e-09
3.0644798e-07
4.6576782e-09
3.0502582e-07
4.6054394e-09
3.0361877e-07
4.5562701e-09
3.0222566e-07
4.5109984e-09
3.0084519e-07
4.4700274e-09
2.9947652e-07
4.4317872e-09
2.9811861e-07
4.3968113e-09
2.9677024e-07
4.3657351e-09
2.9543074e-07
4.3369546e-09
2.9409946e-07
4.3103246e-09
2.9277499e-07
4.2882058e-09
2.9145631e-07
4.2693058e-09
2.9014305e-07
4.2516155e-09
2.8883457e-07
4.2361029e-09
2.8752987e-07
4.2238452e-09
2.862278e-07
4.2152187e-09
2.849276e-07
4.2090072e-09
2.8362907e-07
4.2035584e-09
2.8233142e-07
4.2006685e-09
2.8103298e-07
4.2031669e-09
2.7973267e-07
4.2090755e-09
2.784305e-07
4.2149876e-09
2.7712587e-07
4.2229104e-09
2.7581641e-07
4.2384993e-09
2.7450067e-07
4.258735e-09
2.7317919e-07
4.2771689e-09
2.7185158e-07
4.296999e-09
2.7051582e-07
4.3232776e-09
2.6917033e-07
4.3547011e-09
2.6781488e-07
4.3868119e-09
2.6644858e-07
4.4218754e-09
2.6506885e-07
4.465246e-09
2.6367416e-07
4.5135843e-09
2.622641e-07
4.5632254e-09
2.6083684e-07
4.6188098e-09
2.593898e-07
4.6827467e-09
2.5792188e-07
4.7502065e-09
2.5643168e-07
4.822216e-09
2.5491514e-07
4.9073819e-09
2.5343475e-07
4.7902716e-09
2.5202511e-07
4.5612782e-09
2.5067726e-07
4.3612982e-09
2.493863e-07
4.1771084e-09
2.4815145e-07
3.9955187e-09
2.4696872e-07
3.8268295e-09
2.4583331e-07
3.6736761e-09
2.4474154e-07
3.5323858e-09
2.4369119e-07
3.3983631e-09
2.4267987e-07
3.2720417e-09
2.4170433e-07
3.1562406e-09
2.4076157e-07
3.0501645e-09
2.398498e-07
2.9498723e-09
2.389677e-07
2.8538474e-09
2.3811344e-07
2.7637434e-09
2.3728431e-07
2.6824683e-09
2.3647829e-07
2.6076722e-09
2.3569125e-07
2.5463068e-09
2.3492557e-07
2.4771785e-09
2.3416112e-07
2.4735498e-09
2.334288e-07
2.3697424e-09
2.3252695e-07
2.9168489e-09
1.8120746e-09
2.8986004e-06
1.7285045e-10
2.8985167e-06
5.3728004e-10
2.8983874e-06
8.289679e-10
2.8982321e-06
9.9356185e-10
2.8980562e-06
1.1249399e-09
2.8978605e-06
1.2507161e-09
2.8976455e-06
1.3740915e-09
2.8974111e-06
1.4980617e-09
2.8971565e-06
1.6277188e-09
2.89688e-06
1.7680199e-09
2.8965794e-06
1.923618e-09
2.8962513e-06
2.1001206e-09
2.8958913e-06
2.3051407e-09
2.8954931e-06
2.5505178e-09
2.8950482e-06
2.8518288e-09
2.8945426e-06
3.2419194e-09
2.8939585e-06
3.7471562e-09
2.8932553e-06
4.5141529e-09
2.892402e-06
5.4799816e-09
2.8912003e-06
7.7216009e-09
2.8896875e-06
9.7255139e-09
2.8852882e-06
2.8312668e-08
2.8817541e-06
2.2689534e-08
1.9773054e-06
7.2951517e-06
8.5586497e-07
8.1599331e-06
6.2858566e-07
8.9852387e-07
6.1925967e-07
3.0271653e-08
6.1265979e-07
2.2067494e-08
5.9847691e-07
4.9867324e-08
5.8323105e-07
5.3797526e-08
5.6957083e-07
4.8241145e-08
5.5775059e-07
4.1718154e-08
5.4741639e-07
3.6450433e-08
5.3825371e-07
3.2307673e-08
5.300375e-07
2.8963462e-08
5.2253851e-07
2.6428647e-08
5.1559019e-07
2.4482287e-08
5.0913178e-07
2.2750907e-08
5.0311664e-07
2.1184641e-08
4.9750835e-07
1.9747454e-08
4.9226268e-07
1.8466726e-08
4.8733381e-07
1.7348071e-08
4.8268709e-07
1.635204e-08
4.782901e-07
1.5470585e-08
4.7411447e-07
1.4689382e-08
4.7013939e-07
1.3981844e-08
4.6634755e-07
1.3335314e-08
4.6272409e-07
1.2741293e-08
4.5925254e-07
1.2205773e-08
4.5592156e-07
1.170995e-08
4.5272087e-07
1.1250457e-08
4.4963558e-07
1.0843846e-08
4.4665786e-07
1.0464537e-08
4.4378178e-07
1.0106086e-08
4.4099647e-07
9.7863665e-09
4.3829563e-07
9.4887128e-09
4.3567575e-07
9.2031613e-09
4.3312854e-07
8.9471788e-09
4.3064721e-07
8.7151953e-09
4.2823009e-07
8.4888386e-09
4.2587317e-07
8.2765094e-09
4.2356948e-07
8.0891484e-09
4.2131558e-07
7.9138429e-09
4.1910755e-07
7.7520863e-09
4.1693949e-07
7.6110823e-09
4.1480958e-07
7.4768535e-09
4.1271805e-07
7.3417906e-09
4.1066444e-07
7.2080293e-09
4.0864602e-07
7.0838695e-09
4.0665903e-07
6.9732333e-09
4.0470153e-07
6.8694368e-09
4.0277245e-07
6.7691822e-09
4.0086969e-07
6.676303e-09
3.9899074e-07
6.5923475e-09
3.9713391e-07
6.5145108e-09
3.9529777e-07
6.4415772e-09
3.9348103e-07
6.3730085e-09
3.9168217e-07
6.3098645e-09
3.8989955e-07
6.2526463e-09
3.8813208e-07
6.1992565e-09
3.863784e-07
6.150493e-09
3.8463694e-07
6.1071916e-09
3.8290684e-07
6.0670525e-09
3.8118728e-07
6.0298867e-09
3.7947643e-07
5.9990523e-09
3.7777296e-07
5.9727748e-09
3.760764e-07
5.9481753e-09
3.7438595e-07
5.9265578e-09
3.7270029e-07
5.9094999e-09
3.7101795e-07
5.8975651e-09
3.6933794e-07
5.8890174e-09
3.6765999e-07
5.8815043e-09
3.6598311e-07
5.8775473e-09
3.6430513e-07
5.8811494e-09
3.6262465e-07
5.8895583e-09
3.6094168e-07
5.8979575e-09
3.5925546e-07
5.9091298e-09
3.5756292e-07
5.93104e-09
3.5586216e-07
5.9594913e-09
3.5415391e-07
5.985416e-09
3.5243765e-07
6.0132604e-09
3.507108e-07
6.050134e-09
3.4897126e-07
6.0942407e-09
3.4721876e-07
6.139308e-09
3.4545216e-07
6.1884801e-09
3.4366812e-07
6.2492838e-09
3.4186463e-07
6.3170715e-09