/*--------------------------------*- C++ -*----------------------------------*\
  =========                 |
  \\      /  F ield         | OpenFOAM: The Open Source CFD Toolbox
   \\    /   O peration     | Website:  https://openfoam.org
    \\  /    A nd           | Version:  12
     \\/     M anipulation  |
\*---------------------------------------------------------------------------*/
FoamFile
{
    format      ascii;
    class       volVectorField;
    location    "700";
    object      U;
}
// * * * * * * * * * * * * * * * * * * * * * * * * * * * * * * * * * * * * * //

dimensions      [0 1 -1 0 0 0 0];

internalField   nonuniform List<vector> 
7480
(
(0.99717946 8.1023214e-05 1.4988329e-17)
(0.99545439 0.00018550257 0)
(0.99352834 0.00025522424 1.7994912e-19)
(0.99145733 0.0002981336 0)
(0.98927085 0.00033002631 0)
(0.98699103 0.00035203774 0)
(0.98462247 0.00036780625 0)
(0.98215961 0.00038027877 0)
(0.97959823 0.00039202344 0)
(0.97690991 0.00040064835 0)
(0.97413795 0.00042247943 0)
(0.97097437 0.00040428911 0)
(0.96835838 0.00063386472 0)
(0.96221312 0.00086054179 1.1770368e-16)
(0.95211033 0.0014578821 -2.6576303e-18)
(0.93960302 0.0019807407 0)
(0.92554312 0.002318403 0)
(0.91058435 0.0025039495 0)
(0.8950955 0.0025823846 0)
(0.8795069 0.0025508107 0)
(0.86401471 0.0024702461 0)
(0.84878264 0.0023369893 0)
(0.8338521 0.0021313197 0)
(0.81902122 0.0018956678 0)
(0.80437376 0.0016871524 0)
(0.790073 0.0015032106 0)
(0.77630445 0.0013244652 0)
(0.76341721 0.0011579217 0)
(0.75123405 0.0010171943 0)
(0.73979193 0.00089409535 0)
(0.7291581 0.00078230426 0)
(0.71938347 0.00067976206 0)
(0.71048949 0.00058586691 0)
(0.70246596 0.00050139747 0)
(0.69527506 0.00042705869 0)
(0.68886106 0.00036286429 0)
(0.68315124 0.00030818474 0)
(0.67807484 0.00026162803 0)
(0.67357418 0.00022149921 0)
(0.66959596 0.00018647882 0)
(0.66607689 0.00015657837 0)
(0.66294692 0.00013212778 0)
(0.6601395 0.00011270616 0)
(0.65759559 9.70574e-05 0)
(0.65527629 8.4999393e-05 0)
(0.6531145 7.6603355e-05 0)
(0.65107125 7.116098e-05 0)
(0.64910706 6.8011156e-05 0)
(0.64718775 6.6434064e-05 0)
(0.64529109 6.6506879e-05 0)
(0.64338535 6.8235576e-05 0)
(0.64143715 7.0838461e-05 0)
(0.6394229 7.3816609e-05 0)
(0.63733483 7.6663116e-05 0)
(0.6351775 7.9035106e-05 0)
(0.63296186 8.0661678e-05 0)
(0.63070063 8.1438686e-05 0)
(0.62840952 8.1216651e-05 0)
(0.62610761 8.0100264e-05 0)
(0.62380621 7.8523625e-05 0)
(0.62150947 7.6759688e-05 0)
(0.61921924 7.4901186e-05 0)
(0.61693954 7.2859056e-05 0)
(0.61467725 7.063082e-05 0)
(0.61243803 6.8314319e-05 0)
(0.61022468 6.5941118e-05 0)
(0.60804081 6.3465687e-05 0)
(0.60589147 6.0928276e-05 0)
(0.60377745 5.8506191e-05 0)
(0.6016939 5.628944e-05 0)
(0.59963615 5.4225537e-05 0)
(0.59760288 5.2260633e-05 0)
(0.59559401 5.0380461e-05 0)
(0.59360924 4.8548098e-05 0)
(0.59164995 4.6711846e-05 0)
(0.58971895 4.4885644e-05 0)
(0.58781594 4.3156859e-05 0)
(0.58593761 4.1538925e-05 0)
(0.58408114 4.0018953e-05 0)
(0.58224561 3.856275e-05 0)
(0.58043105 3.7151387e-05 0)
(0.57863836 3.5755809e-05 0)
(0.57686945 3.4376012e-05 0)
(0.57512359 3.3080996e-05 0)
(0.57339782 3.1859859e-05 0)
(0.57169084 3.0694964e-05 0)
(0.57000177 2.958878e-05 0)
(0.56833099 2.8491254e-05 0)
(0.56668036 2.7415454e-05 0)
(0.5650487 2.6410652e-05 0)
(0.56343357 2.5455285e-05 0)
(0.56183394 2.4544712e-05 0)
(0.56024953 2.3678376e-05 0)
(0.55867905 2.2832417e-05 0)
(0.55712562 2.2058532e-05 0)
(0.55557156 2.1374351e-05 0)
(0.55405437 2.023708e-05 0)
(0.55242852 3.3337363e-05 3.8789344e-20)
(0.55106652 2.211491e-05 -2.1941754e-19)
(0.54855617 3.3068993e-05 -5.1018428e-18)
(0.99846851 0.00034770114 0)
(0.99849079 0.00051624157 0)
(0.99854946 0.00061637942 -2.3334204e-19)
(0.99854857 0.00061377894 -2.9345001e-18)
(0.99852119 0.00062352756 0)
(0.99847334 0.00062973039 0)
(0.99840876 0.00063272912 0)
(0.99832358 0.00063545582 0)
(0.99821291 0.00064079013 0)
(0.99806254 0.00064654385 0)
(0.99787018 0.00067100157 0)
(0.99755492 0.00067960188 0)
(0.99715459 0.0008802654 0)
(0.99657696 0.001405789 0)
(0.99574216 0.0020269608 0)
(0.99422613 0.0024020647 0)
(0.99176502 0.0025371296 0)
(0.98835868 0.0025551572 0)
(0.98411799 0.0025103303 0)
(0.97916915 0.0024352957 0)
(0.9735392 0.0023487614 0)
(0.96722999 0.0022654389 0)
(0.96031117 0.0022159572 0)
(0.95302566 0.0022009865 0)
(0.94537716 0.0021781994 0)
(0.93740553 0.0021234906 0)
(0.92912413 0.002039458 0)
(0.92047948 0.0019260143 0)
(0.91165542 0.0017976136 0)
(0.90273369 0.0016631507 0)
(0.89378541 0.0015234659 0)
(0.8848671 0.0013841644 0)
(0.87604233 0.0012467069 0)
(0.86737749 0.0011131706 0)
(0.85893685 0.00098678548 0)
(0.85077855 0.00087020956 0)
(0.84295297 0.00076426565 0)
(0.83552735 0.00067123213 0)
(0.82847267 0.00059225707 0)
(0.82175748 0.0005242248 0)
(0.81538446 0.00046482475 0)
(0.80935611 0.00041378157 0)
(0.80366984 0.00037060035 0)
(0.79830423 0.00033388202 0)
(0.79322709 0.00030229929 0)
(0.78842244 0.00027599939 0)
(0.7838634 0.0002549812 0)
(0.77952199 0.00023805545 0)
(0.77537922 0.00022373955 0)
(0.77142694 0.00021346901 0)
(0.76757405 0.00020721318 0)
(0.76380626 0.00020261568 0)
(0.76012414 0.00019854906 0)
(0.75653063 0.0001943789 0)
(0.75302677 0.00019000515 0)
(0.7496085 0.00018531994 0)
(0.74626898 0.00018027582 0)
(0.74300254 0.00017488353 0)
(0.73979049 0.00016926267 0)
(0.73662294 0.00016358354 0)
(0.73349837 0.00015792873 0)
(0.73041851 0.0001522991 0)
(0.72738572 0.0001465139 0)
(0.72440334 0.00014062301 0)
(0.7214736 0.00013481329 0)
(0.71859637 0.00012908146 0)
(0.71577307 0.00012335348 0)
(0.71300248 0.00011776667 0)
(0.71027897 0.00011258163 0)
(0.70759705 0.00010781918 0)
(0.70495502 0.0001033136 0)
(0.70235421 9.8987924e-05 0)
(0.69979557 9.4853443e-05 0)
(0.69727853 9.0858515e-05 0)
(0.6948037 8.6929258e-05 0)
(0.69237127 8.3120589e-05 0)
(0.68997775 7.9573336e-05 0)
(0.68761908 7.6258101e-05 0)
(0.68529375 7.3126916e-05 0)
(0.68300208 7.012424e-05 0)
(0.68074416 6.723092e-05 0)
(0.67852046 6.4408136e-05 0)
(0.67633085 6.1670833e-05 0)
(0.67417284 5.9126385e-05 0)
(0.67204339 5.6724858e-05 0)
(0.66994201 5.4432949e-05 0)
(0.66786835 5.2257745e-05 0)
(0.66582264 5.0121587e-05 0)
(0.66380514 4.806152e-05 0)
(0.66181358 4.61482e-05 0)
(0.65984552 4.4328304e-05 0)
(0.65790045 4.2594965e-05 0)
(0.65597838 4.095187e-05 0)
(0.65407714 3.936031e-05 0)
(0.65219895 3.7927769e-05 0)
(0.65032559 3.6557978e-05 0)
(0.64849558 3.5720026e-05 0)
(0.6465609 3.6775219e-05 0)
(0.64491265 3.4835474e-05 0)
(0.64194956 3.742401e-05 0)
(0.99850256 0.00034300925 0)
(0.99850923 0.00043731913 0)
(0.99854076 0.00045982907 0)
(0.99855508 0.00046018384 0)
(0.99854023 0.00046310004 0)
(0.99850537 0.00046801435 0)
(0.99845645 0.00047446207 0)
(0.99839034 0.00048354498 0)
(0.99830182 0.00049721027 0)
(0.99817963 0.00051514167 0)
(0.99801527 0.00055130264 0)
(0.99776269 0.00060783573 0)
(0.99741815 0.00084934504 0)
(0.99717907 0.0014286695 0)
(0.9972182 0.0020442613 0)
(0.99745895 0.0024943646 0)
(0.99771801 0.0027848912 0)
(0.99786162 0.002991249 0)
(0.99783808 0.0031354064 0)
(0.99761389 0.0032216511 0)
(0.99715774 0.0032657362 0)
(0.99644914 0.0032846709 0)
(0.99547007 0.0032786482 0)
(0.99420477 0.0032530826 0)
(0.99263102 0.0031962214 0)
(0.99063658 0.003111753 0)
(0.98813492 0.003000028 0)
(0.98498132 0.0028761406 0)
(0.98119408 0.0027554254 0)
(0.97674974 0.0026321176 0)
(0.97160697 0.0024938544 0)
(0.96582334 0.0023388759 0)
(0.95943975 0.0021793329 0)
(0.95251527 0.002019436 0)
(0.94513214 0.0018610323 0)
(0.93739145 0.0017055408 0)
(0.92941021 0.0015538794 0)
(0.92130772 0.0014082855 0)
(0.91321318 0.0012719097 0)
(0.90523377 0.0011464491 0)
(0.89745456 0.0010320603 0)
(0.88994331 0.00092900717 0)
(0.88274498 0.00084081095 0)
(0.87579765 0.00076717607 0)
(0.86909967 0.00070383393 0)
(0.8626752 0.00064821288 0)
(0.85653745 0.00059906488 0)
(0.85070153 0.00055615332 0)
(0.84515146 0.00051866992 0)
(0.83985848 0.00048643545 0)
(0.83480328 0.00046064622 0)
(0.82996748 0.00044031201 0)
(0.82532812 0.00042259161 0)
(0.82087278 0.00040550212 0)
(0.8165899 0.00038878288 0)
(0.812461 0.00037266385 0)
(0.80846828 0.00035731497 0)
(0.80459196 0.00034324896 0)
(0.80078487 0.00032999266 0)
(0.79705236 0.00031682659 0)
(0.79340011 0.00030378245 0)
(0.78982772 0.00029102511 0)
(0.78633133 0.00027837697 0)
(0.78290941 0.00026588651 0)
(0.77956147 0.00025379605 0)
(0.77628536 0.00024204457 0)
(0.77308064 0.00023063229 0)
(0.76993848 0.00021986995 0)
(0.76684958 0.00020995559 0)
(0.76381141 0.00020072534 0)
(0.76082518 0.00019189102 0)
(0.75789278 0.00018337086 0)
(0.75501456 0.00017522226 0)
(0.75218918 0.00016738257 0)
(0.74941682 0.00015976558 0)
(0.74669513 0.00015249825 0)
(0.74401823 0.0001457679 0)
(0.74138259 0.00013946525 0)
(0.73878804 0.00013347645 0)
(0.73623541 0.00012772023 0)
(0.73372457 0.00012218089 0)
(0.73125572 0.00011681931 0)
(0.72882703 0.00011168239 0)
(0.72643484 0.00010691599 0)
(0.72407641 0.00010241389 0)
(0.72175189 9.8108134e-05 0)
(0.71946115 9.4006608e-05 0)
(0.71720436 9.0010988e-05 0)
(0.71498059 8.6191033e-05 0)
(0.71278687 8.2642191e-05 0)
(0.71062095 7.9269667e-05 0)
(0.7084826 7.6049676e-05 0)
(0.70637203 7.299634e-05 0)
(0.7042865 7.0055371e-05 0)
(0.70222759 6.7424853e-05 0)
(0.70017689 6.4844401e-05 0)
(0.69817351 6.3332257e-05 0)
(0.69606746 6.0978878e-05 0)
(0.69426473 6.4406059e-05 0)
(0.69104857 5.9081797e-05 -4.1183765e-20)
(0.99853106 0.00033360676 0)
(0.9985283 0.00042235229 0)
(0.99855208 0.00047740105 0)
(0.9985639 0.00050944489 0)
(0.99854876 0.00053423069 0)
(0.99851362 0.0005569606 0)
(0.99846438 0.00057782029 0)
(0.99839834 0.00059822878 0)
(0.99831021 0.0006216023 0)
(0.99819038 0.00064944256 0)
(0.99802906 0.00069920049 0)
(0.99779661 0.00077042854 0)
(0.99749643 0.0010220084 0)
(0.99728429 0.0015263795 0)
(0.99731758 0.0020615615 0)
(0.99756723 0.0024750575 0)
(0.9978963 0.0027437778 0)
(0.99821175 0.0029168217 0)
(0.9984947 0.0030177722 0)
(0.99874532 0.0030586912 0)
(0.99895958 0.0030639697 0)
(0.99913558 0.0030495886 0)
(0.99927385 0.0030266441 0)
(0.99937371 0.0029967657 0)
(0.99943318 0.0029628741 0)
(0.99944045 0.0029248259 0)
(0.99937578 0.0028824529 0)
(0.99921074 0.0028387982 0)
(0.99891317 0.0027931034 0)
(0.99844171 0.0027402933 0)
(0.99775307 0.0026805229 0)
(0.99673034 0.0026164313 0)
(0.9952845 0.0025470801 0)
(0.99332683 0.0024715525 0)
(0.99076767 0.0023896933 0)
(0.98752207 0.0023016921 0)
(0.98351649 0.0022059318 0)
(0.97869048 0.0020974342 0)
(0.97310539 0.0019796025 0)
(0.96683272 0.0018581601 0)
(0.95995456 0.0017334578 0)
(0.95259608 0.0016061161 0)
(0.94492412 0.0014783596 0)
(0.93712674 0.0013575833 0)
(0.92934843 0.0012482831 0)
(0.92170422 0.0011478919 0)
(0.91428291 0.0010553124 0)
(0.90717007 0.00097499564 0)
(0.90027611 0.00090720948 0)
(0.8936011 0.00084901267 0)
(0.88721623 0.00079879321 0)
(0.88113954 0.00075351084 0)
(0.87537608 0.00071202447 0)
(0.86989972 0.0006739369 0)
(0.86466876 0.0006387477 0)
(0.85964793 0.0006062404 0)
(0.85481909 0.00057632912 0)
(0.8501644 0.00054876875 0)
(0.84567726 0.00052329959 0)
(0.84134582 0.0004994296 0)
(0.83715236 0.00047669203 0)
(0.83307961 0.00045514211 0)
(0.82911236 0.00043426632 0)
(0.82524679 0.00041382136 0)
(0.82148169 0.00039413473 0)
(0.81781207 0.00037518316 0)
(0.81423303 0.00035726844 0)
(0.81072137 0.00034072863 0)
(0.80727084 0.00032530414 0)
(0.80388811 0.00031061137 0)
(0.80057528 0.00029643431 0)
(0.79733167 0.00028279191 0)
(0.79415561 0.00026978719 0)
(0.79104481 0.00025731363 0)
(0.78799894 0.00024533097 0)
(0.78501101 0.00023407668 0)
(0.78207314 0.00022365779 0)
(0.7791845 0.00021381251 0)
(0.7763465 0.00020439594 0)
(0.77355979 0.00019534162 0)
(0.77082345 0.0001866455 0)
(0.76813736 0.00017828968 0)
(0.76549704 0.00017036274 0)
(0.76289793 0.00016300254 0)
(0.7603383 0.00015602559 0)
(0.75781903 0.00014933483 0)
(0.75533996 0.00014294814 0)
(0.75290114 0.00013676482 0)
(0.75049993 0.00013089173 0)
(0.74813278 0.0001254298 0)
(0.74579791 0.00012023297 0)
(0.74349547 0.0001152587 0)
(0.74122579 0.00011054305 0)
(0.73898532 0.00010602102 0)
(0.73677497 0.00010198967 0)
(0.7345764 9.7968444e-05 0)
(0.73242913 9.5660304e-05 0)
(0.73018191 9.1425209e-05 0)
(0.72825402 9.9937588e-05 0)
(0.72483139 8.5158651e-05 3.3093021e-20)
(0.99855874 0.00033731114 0)
(0.99854955 0.00042464922 0)
(0.99856419 0.00048249165 0)
(0.99856968 0.00051101963 0)
(0.99855193 0.00052790334 0)
(0.99851575 0.00054310187 0)
(0.99846601 0.0005578917 0)
(0.99840023 0.00057392649 0)
(0.99831319 0.00059507864 0)
(0.99819632 0.00062486068 0)
(0.99804079 0.00067827773 0)
(0.99782748 0.00077049093 0)
(0.99756455 0.0010089695 0)
(0.99737684 0.001459383 0)
(0.99740135 0.0019621437 0)
(0.99762454 0.0023704594 0)
(0.99793121 0.0026437276 0)
(0.99823416 0.002822301 0)
(0.99851469 0.0029360931 0)
(0.99877472 0.0029993093 0)
(0.99901026 0.0030308739 0)
(0.99922037 0.0030450647 0)
(0.99940873 0.003045994 0)
(0.99958153 0.0030400609 0)
(0.99974341 0.0030244639 0)
(0.99989414 0.0029969153 0)
(1.0000312 0.0029571941 0)
(1.0001521 0.0029076409 0)
(1.0002562 0.0028518334 0)
(1.0003443 0.0027920935 0)
(1.0004143 0.0027293912 0)
(1.0004587 0.002664826 0)
(1.0004681 0.0026001599 0)
(1.0004285 0.0025371064 0)
(1.0003182 0.0024770192 0)
(1.0001035 0.0024204041 0)
(0.99973727 0.0023669332 0)
(0.999142 0.0023167619 0)
(0.99818337 0.002268305 0)
(0.99673891 0.0022176223 0)
(0.99468075 0.0021619963 0)
(0.99187298 0.0021000593 0)
(0.98818687 0.0020334092 0)
(0.98360617 0.0019562132 0)
(0.97820281 0.0018634998 0)
(0.97205924 0.0017620045 0)
(0.96528786 0.001653938 0)
(0.95805717 0.0015412902 0)
(0.950588 0.0014321239 0)
(0.94304839 0.0013328401 0)
(0.93559581 0.0012414033 0)
(0.92834371 0.0011559467 0)
(0.92140693 0.0010801298 0)
(0.91470974 0.0010151927 0)
(0.90822328 0.00095690878 0)
(0.90197171 0.00090239506 0)
(0.89597787 0.00085120728 0)
(0.89026493 0.00080413065 0)
(0.8848442 0.00076146215 0)
(0.87966547 0.0007219126 0)
(0.8746864 0.00068523512 0)
(0.86988302 0.00065132999 0)
(0.86524173 0.00061894925 0)
(0.86076126 0.00058761121 0)
(0.85642934 0.00055789118 0)
(0.85222931 0.00052996398 0)
(0.84814388 0.00050372914 0)
(0.84416723 0.00047934402 0)
(0.8402974 0.00045672798 0)
(0.8365295 0.00043536901 0)
(0.83285538 0.00041492064 0)
(0.82926853 0.0003953483 0)
(0.8257656 0.00037672436 0)
(0.82234376 0.00035887952 0)
(0.81900128 0.00034194972 0)
(0.81572249 0.00032624161 0)
(0.8125006 0.00031157602 0)
(0.80934117 0.00029753864 0)
(0.80624575 0.00028406451 0)
(0.80321327 0.00027114422 0)
(0.80024145 0.00025876968 0)
(0.79732973 0.00024698906 0)
(0.79446907 0.00023592658 0)
(0.79165526 0.00022561335 0)
(0.78888874 0.00021578243 0)
(0.78617092 0.00020633817 0)
(0.78350108 0.00019731989 0)
(0.78087891 0.00018864775 0)
(0.77829902 0.00018046506 0)
(0.7757578 0.00017283981 0)
(0.77325448 0.0001655694 0)
(0.77078954 0.00015859818 0)
(0.76836323 0.00015199665 0)
(0.76597074 0.00014569492 0)
(0.7636122 0.00014008479 0)
(0.76126973 0.00013443007 0)
(0.75898324 0.0001312378 0)
(0.75660031 0.00012491474 1.7998737e-20)
(0.75455301 0.00013918033 0)
(0.75093469 0.00011310045 0)
(0.99858484 0.00034324532 0)
(0.99857017 0.00042451493 0)
(0.99857619 0.00048056113 0)
(0.99857614 0.00051126799 0)
(0.99855702 0.00053305373 0)
(0.99852105 0.00055527749 0)
(0.99847175 0.00057866136 0)
(0.99840693 0.00060419346 0)
(0.99832162 0.00063564833 0)
(0.99820842 0.00067743714 0)
(0.99805986 0.00074427481 0)
(0.99786428 0.0008547635 0)
(0.99763369 0.0010885456 0)
(0.99746953 0.001502622 0)
(0.99748892 0.0019750304 0)
(0.99768898 0.0023667414 0)
(0.99797263 0.0026336862 0)
(0.99825931 0.0028102538 0)
(0.99852705 0.0029259631 0)
(0.99877626 0.0029922688 0)
(0.99900448 0.0030251415 0)
(0.99921075 0.0030341055 0)
(0.9993981 0.0030295009 0)
(0.99957161 0.0030149493 0)
(0.99973569 0.0029905234 0)
(0.9998912 0.0029547101 0)
(1.0000356 0.0029084122 0)
(1.0001664 0.0028547949 0)
(1.0002839 0.0027983022 0)
(1.0003902 0.0027406835 0)
(1.0004864 0.0026808483 0)
(1.0005721 0.0026192023 0)
(1.0006466 0.0025577138 0)
(1.0007106 0.0024979663 0)
(1.0007653 0.002441106 0)
(1.0008112 0.0023879015 0)
(1.000848 0.002339046 0)
(1.0008737 0.0022946058 0)
(1.0008819 0.0022540475 0)
(1.0008617 0.002217665 0)
(1.0007945 0.0021856758 0)
(1.0006475 0.0021577755 0)
(1.0003628 0.0021328248 0)
(0.99985536 0.0021091646 0)
(0.99895025 0.002084115 0)
(0.99748282 0.0020539795 0)
(0.99529592 0.0020154836 0)
(0.99221166 0.0019708561 0)
(0.98819557 0.001916712 0)
(0.98329682 0.0018446959 0)
(0.97760355 0.0017594587 0)
(0.97123257 0.0016644509 0)
(0.96436315 0.0015621712 0)
(0.95722979 0.0014612702 0)
(0.95002459 0.0013680526 0)
(0.94290213 0.0012809599 0)
(0.93596073 0.0011985226 0)
(0.92930556 0.0011247435 0)
(0.92284572 0.0010604538 0)
(0.91655979 0.0010013872 0)
(0.91048909 0.00094544961 0)
(0.90466641 0.00089265379 0)
(0.89911643 0.00084304559 0)
(0.89380055 0.00079699215 0)
(0.88867665 0.00075413117 0)
(0.88372483 0.00071443232 0)
(0.87893184 0.00067732631 0)
(0.87431679 0.00064264506 0)
(0.86987538 0.00061030449 0)
(0.86558333 0.0005801817 0)
(0.86141742 0.00055180047 0)
(0.85736949 0.00052474406 0)
(0.85343654 0.00049906932 0)
(0.84961219 0.00047468483 0)
(0.84588673 0.00045164712 0)
(0.84225346 0.00043024646 0)
(0.83870876 0.00041033992 0)
(0.83524912 0.00039137226 0)
(0.83187012 0.00037322402 0)
(0.82856747 0.00035588932 0)
(0.82533768 0.00033931618 0)
(0.82217947 0.00032370171 0)
(0.81907651 0.00030912873 0)
(0.81602882 0.00029541403 0)
(0.81303971 0.00028225445 0)
(0.81010983 0.00026961288 0)
(0.80723715 0.00025755637 0)
(0.80442073 0.00024606685 0)
(0.80165098 0.00023530116 0)
(0.79892584 0.00022521833 0)
(0.79624598 0.0002155744 0)
(0.7936118 0.00020631954 0)
(0.79102313 0.00019757796 0)
(0.78847319 0.00018927856 0)
(0.78596157 0.00018188682 0)
(0.7834713 0.0001743844 0)
(0.78104273 0.00017016256 0)
(0.77852164 0.00016122073 0)
(0.77635371 0.00018214552 4.7350454e-20)
(0.77253833 0.0001429511 0)
(0.99860937 0.00035050735 0)
(0.99859035 0.00042574476 0)
(0.99858912 0.0004812865 0)
(0.99858422 0.00051596884 0)
(0.99856361 0.00054206635 0)
(0.99852743 0.00056751274 0)
(0.99847814 0.00059352647 0)
(0.99841393 0.00062146149 0)
(0.99833029 0.0006555033 0)
(0.99822091 0.00070128726 0)
(0.99807983 0.00077308912 0)
(0.99790087 0.00089097438 0)
(0.99769868 0.0011161306 0)
(0.99755607 0.0014940385 0)
(0.997572 0.0019306468 0)
(0.99775137 0.0023016547 0)
(0.9980139 0.0025622944 0)
(0.99828592 0.0027386798 0)
(0.99854329 0.0028573406 0)
(0.99878462 0.0029288996 0)
(0.99900751 0.0029656887 0)
(0.99921033 0.0029810829 0)
(0.99939513 0.0029820539 0)
(0.99956631 0.0029734054 0)
(0.99972771 0.0029552724 0)
(0.99987995 0.002926541 0)
(1.0000213 0.0028879698 0)
(1.00015 0.0028421587 0)
(1.0002664 0.0027925883 0)
(1.0003725 0.0027402898 0)
(1.0004695 0.0026842829 0)
(1.0005567 0.0026253846 0)
(1.0006338 0.0025657962 0)
(1.0007017 0.0025071314 0)
(1.000761 0.0024505601 0)
(1.0008128 0.0023970133 0)
(1.0008583 0.0023471491 0)
(1.0008986 0.0023008609 0)
(1.0009346 0.0022583888 0)
(1.000967 0.0022202713 0)
(1.0009966 0.002186386 0)
(1.0010238 0.0021566097 0)
(1.001048 0.0021307831 0)
(1.0010672 0.0021084081 0)
(1.0010736 0.0020891785 0)
(1.0010514 0.0020727195 0)
(1.000974 0.0020588069 0)
(1.0007872 0.0020465757 0)
(1.0004158 0.0020337959 0)
(0.99968139 0.0020180351 0)
(0.99838478 0.0019962535 0)
(0.99634855 0.0019651353 0)
(0.99337024 0.0019252759 0)
(0.98940995 0.0018730266 0)
(0.9845765 0.0018033998 0)
(0.97897423 0.0017210122 0)
(0.97274973 0.0016279137 0)
(0.96610203 0.0015288837 0)
(0.95926474 0.0014332743 0)
(0.95240794 0.0013451328 0)
(0.945654 0.0012632186 0)
(0.9390892 0.0011864465 0)
(0.9327852 0.0011183918 0)
(0.92658245 0.0010572457 0)
(0.92052038 0.00099862433 0)
(0.91465342 0.00094229516 0)
(0.90902887 0.00088905588 0)
(0.90363212 0.00083991148 0)
(0.89843224 0.00079455652 0)
(0.89341224 0.00075281921 0)
(0.88856295 0.00071370116 0)
(0.88388741 0.0006765985 0)
(0.87937549 0.00064173313 0)
(0.87500932 0.00060914609 0)
(0.87076973 0.00057861612 0)
(0.86666442 0.00055011219 0)
(0.86269415 0.00052349194 0)
(0.85884241 0.00049832398 0)
(0.85509547 0.00047446995 0)
(0.85144606 0.0004517994 0)
(0.84788978 0.00043021084 0)
(0.84442135 0.00040986845 0)
(0.84103509 0.00039092568 0)
(0.83772649 0.00037317891 0)
(0.83449224 0.00035618854 0)
(0.83132957 0.00033990967 0)
(0.82823471 0.00032441052 0)
(0.82520579 0.00030978808 0)
(0.82222725 0.0002961245 0)
(0.81930207 0.00028321538 0)
(0.81643189 0.00027083028 0)
(0.81361615 0.0002589506 0)
(0.81085382 0.00024778347 0)
(0.80813523 0.00023724826 0)
(0.80546024 0.00022783621 0)
(0.80281332 0.00021823044 0)
(0.80023508 0.00021278383 0)
(0.79756854 0.0002008051 0)
(0.79527421 0.00022918086 4.45026e-20)
(0.79125308 0.00017516116 0)
(0.99863256 0.00035911484 0)
(0.99861017 0.00042897923 0)
(0.99860285 0.00048387715 0)
(0.99859345 0.00052134955 0)
(0.99857113 0.00055038927 0)
(0.99853466 0.00057836085 0)
(0.99848558 0.00060747259 0)
(0.99842233 0.00063951885 0)
(0.99834088 0.00067880147 0)
(0.99823595 0.00073157927 0)
(0.99810303 0.00081131252 0)
(0.99793993 0.00093799357 0)
(0.9977628 0.0011586982 0)
(0.99763962 0.0015080671 0)
(0.99765355 0.0019139469 0)
(0.99781456 0.0022681493 0)
(0.99805715 0.0025250228 0)
(0.99831467 0.0027023962 0)
(0.99856163 0.0028240837 0)
(0.99879516 0.002900427 0)
(0.99901279 0.0029425792 0)
(0.99921231 0.0029621379 0)
(0.99939496 0.0029664896 0)
(0.99956447 0.0029601355 0)
(0.9997242 0.0029434702 0)
(0.99987477 0.0029157826 0)
(1.0000146 0.002877852 0)
(1.0001423 0.0028321319 0)
(1.0002579 0.0027818806 0)
(1.0003633 0.0027284846 0)
(1.0004594 0.0026716543 0)
(1.0005459 0.0026123778 0)
(1.0006223 0.0025527096 0)
(1.0006893 0.0024942076 0)
(1.0007481 0.0024380268 0)
(1.0007999 0.0023850664 0)
(1.0008458 0.0023358941 0)
(1.000887 0.0022904937 0)
(1.0009243 0.0022490468 0)
(1.0009587 0.0022118045 0)
(1.0009908 0.0021784712 0)
(1.0010211 0.0021489075 0)
(1.0010503 0.0021229996 0)
(1.0010788 0.0021004805 0)
(1.0011074 0.0020809906 0)
(1.0011361 0.0020640746 0)
(1.0011648 0.0020494231 0)
(1.001193 0.002036583 0)
(1.001219 0.002025322 0)
(1.0012363 0.0020158283 0)
(1.001228 0.0020079146 0)
(1.0011648 0.002000941 0)
(1.0009852 0.0019937637 0)
(1.0005938 0.0019840765 0)
(0.99977125 0.0019683481 0)
(0.9983059 0.0019432191 0)
(0.99600742 0.001907458 0)
(0.99266101 0.001858477 0)
(0.98835249 0.0017962559 0)
(0.98323897 0.0017222088 0)
(0.97746905 0.0016374141 0)
(0.97122364 0.0015449767 0)
(0.96472564 0.0014514765 0)
(0.95816699 0.0013641363 0)
(0.95165924 0.0012842988 0)
(0.94527444 0.0012088688 0)
(0.93911159 0.0011406 0)
(0.93302546 0.001078822 0)
(0.92703408 0.0010197549 0)
(0.9212075 0.00096288747 0)
(0.91560995 0.00090906714 0)
(0.91022429 0.00085917511 0)
(0.90501724 0.00081278629 0)
(0.89997623 0.00076965228 0)
(0.89510008 0.00072904886 0)
(0.89039923 0.00069082949 0)
(0.88586838 0.00065533812 0)
(0.88148862 0.00062229295 0)
(0.87724696 0.00059120309 0)
(0.8731379 0.00056179032 0)
(0.86915424 0.00053400998 0)
(0.86528262 0.00050799718 0)
(0.8615285 0.00048374782 0)
(0.85788469 0.00046098773 0)
(0.85433936 0.00043933319 0)
(0.85088393 0.00041872725 0)
(0.84751245 0.00039918261 0)
(0.84422048 0.0003807297 0)
(0.84100381 0.0003635263 0)
(0.83785778 0.00034734446 0)
(0.83477886 0.0003318485 0)
(0.83176447 0.00031700856 0)
(0.82881231 0.00030314367 0)
(0.8259088 0.00029011424 0)
(0.82305585 0.00027839279 0)
(0.82023963 0.00026637861 0)
(0.8175005 0.00025947584 0)
(0.81467741 0.00024406898 -7.370053e-21)
(0.81224742 0.00028065142 0)
(0.80800641 0.00021007264 -1.1980911e-20)
(0.99865461 0.00036872916 0)
(0.99862964 0.00043382586 0)
(0.99861721 0.00048772712 0)
(0.99860374 0.00052729837 0)
(0.99857972 0.0005591699 0)
(0.99854303 0.00059001744 0)
(0.99849433 0.0006225363 0)
(0.99843224 0.00065867137 0)
(0.99835323 0.00070262319 0)
(0.99825297 0.00076094863 0)
(0.99812835 0.00084629749 0)
(0.99798008 0.00097769352 0)
(0.9978249 0.0011916138 0)
(0.99771906 0.0015139805 0)
(0.99773206 0.0018894064 0)
(0.99787685 0.0022250765 0)
(0.99810064 0.0024753811 0)
(0.99834391 0.0026512651 0)
(0.99858056 0.0027739279 0)
(0.99880629 0.0028535595 0)
(0.99901847 0.0028996718 0)
(0.99921447 0.002922656 0)
(0.99939481 0.0029299486 0)
(0.99956259 0.002925907 0)
(0.99972072 0.0029113631 0)
(0.99986982 0.0028860051 0)
(1.0000086 0.0028506775 0)
(1.0001355 0.0028077173 0)
(1.0002509 0.0027601536 0)
(1.0003561 0.0027094765 0)
(1.0004521 0.0026555869 0)
(1.0005386 0.0025992607 0)
(1.0006152 0.002542292 0)
(1.0006825 0.0024861822 0)
(1.0007417 0.0024320559 0)
(1.0007938 0.0023807785 0)
(1.00084 0.0023329214 0)
(1.0008814 0.0022885615 0)
(1.0009189 0.0022478575 0)
(1.0009531 0.0022110521 0)
(1.0009849 0.0021780059 0)
(1.0010151 0.0021486804 0)
(1.0010443 0.0021230148 0)
(1.0010733 0.0021006697 0)
(1.0011025 0.0020811753 0)
(1.0011325 0.0020640001 0)
(1.0011632 0.002048749 0)
(1.0011947 0.0020351771 0)
(1.0012267 0.0020232491 0)
(1.0012595 0.0020129219 0)
(1.0012934 0.0020038269 0)
(1.001328 0.0019955132 0)
(1.0013626 0.0019872963 0)
(1.001395 0.0019787563 0)
(1.0014149 0.00196999 0)
(1.0013997 0.0019610648 0)
(1.0013037 0.0019514635 0)
(1.0010497 0.0019410294 0)
(1.0004402 0.0019267788 0)
(0.9992391 0.0019038884 0)
(0.99722815 0.0018710607 0)
(0.99421139 0.0018235521 0)
(0.99011462 0.0017611676 0)
(0.98520146 0.001690702 0)
(0.97965522 0.0016106882 0)
(0.97365713 0.0015234706 0)
(0.96741784 0.0014345767 0)
(0.96111215 0.0013506976 0)
(0.95483775 0.0012742067 0)
(0.94865499 0.0012021366 0)
(0.94265883 0.0011364535 0)
(0.93670574 0.0010761253 0)
(0.93082769 0.0010177133 0)
(0.92510119 0.00096116811 0)
(0.9195852 0.00090771369 0)
(0.91425024 0.00085812016 0)
(0.90907771 0.00081200457 0)
(0.90406957 0.00076898379 0)
(0.89923489 0.00072854353 0)
(0.89457076 0.00069053384 0)
(0.89006333 0.00065502978 0)
(0.88569576 0.00062179455 0)
(0.88147174 0.00059056036 0)
(0.87738983 0.00056140537 0)
(0.87343602 0.00053398674 0)
(0.86959868 0.00050807228 0)
(0.86587107 0.00048361095 0)
(0.8622443 0.00046059973 0)
(0.85872486 0.00043915555 0)
(0.85530084 0.00041899625 0)
(0.85196249 0.00039979326 0)
(0.8487036 0.00038149805 0)
(0.84551898 0.00036441085 0)
(0.84240228 0.00034837118 0)
(0.83935311 0.00033395809 0)
(0.83635168 0.00031922566 0)
(0.83343703 0.00031064806 0)
(0.83044263 0.00029141875 0)
(0.82786463 0.00033698501 4.2734325e-20)
(0.82338491 0.00024800833 0)
(0.99867571 0.00037919189 0)
(0.99864878 0.00044012053 0)
(0.99863214 0.00049286268 0)
(0.99861507 0.00053411185 0)
(0.99858942 0.00056864757 0)
(0.99855253 0.00060226004 0)
(0.99850435 0.00063788597 0)
(0.99844357 0.00067769514 0)
(0.99836722 0.00072587697 0)
(0.99827188 0.00078915391 0)
(0.99815567 0.00087937452 0)
(0.99802133 0.0010140564 0)
(0.99788557 0.0012216391 0)
(0.99779522 0.0015210602 0)
(0.99780818 0.0018693145 0)
(0.99793875 0.0021876323 0)
(0.99814499 0.0024316969 0)
(0.99837438 0.0026067435 0)
(0.99860086 0.0027310964 0)
(0.99881879 0.0028145201 0)
(0.99902533 0.0028650905 0)
(0.99921755 0.0028921748 0)
(0.99939538 0.0029030365 0)
(0.99956124 0.0029019225 0)
(0.99971764 0.0028899934 0)
(0.99986518 0.0028672232 0)
(1.0000027 0.0028344791 0)
(1.0001289 0.0027939488 0)
(1.0002438 0.0027484171 0)
(1.0003488 0.0026994052 0)
(1.0004446 0.0026470019 0)
(1.0005311 0.0025919471 0)
(1.0006079 0.0025359705 0)
(1.0006756 0.0024806269 0)
(1.0007352 0.0024270743 0)
(1.0007879 0.0023761967 0)
(1.0008347 0.0023285993 0)
(1.0008767 0.0022844342 0)
(1.0009147 0.0022438678 0)
(1.0009494 0.0022071527 0)
(1.0009817 0.0021742102 0)
(1.0010123 0.0021449769 0)
(1.0010418 0.0021193503 0)
(1.0010709 0.0020969802 0)
(1.0011002 0.0020774243 0)
(1.0011299 0.0020602143 0)
(1.0011603 0.0020450327 0)
(1.0011913 0.0020316771 0)
(1.0012233 0.0020199986 0)
(1.0012564 0.0020097737 0)
(1.0012911 0.0020005478 0)
(1.0013277 0.0019918234 0)
(1.0013659 0.0019831057 0)
(1.0014048 0.0019741115 0)
(1.0014442 0.0019648897 0)
(1.0014837 0.0019553117 0)
(1.0015224 0.0019455702 0)
(1.0015593 0.001935546 0)
(1.0015883 0.0019250477 0)
(1.0015902 0.0019144393 0)
(1.0015213 0.0019034662 0)
(1.0013121 0.0018916896 0)
(1.0007561 0.0018774489 0)
(0.99959521 0.0018550794 0)
(0.99759333 0.0018225864 0)
(0.99455336 0.0017737383 0)
(0.99042378 0.0017092821 0)
(0.98547969 0.0016387842 0)
(0.97996553 0.0015611952 0)
(0.97407935 0.0014781068 0)
(0.96802012 0.0013939566 0)
(0.96192422 0.0013151685 0)
(0.95586445 0.0012431898 0)
(0.94989287 0.0011751265 0)
(0.94406826 0.0011126664 0)
(0.93824173 0.0010540756 0)
(0.93248998 0.00099675852 0)
(0.92689919 0.00094174925 0)
(0.92148888 0.00089025955 0)
(0.91623839 0.00084215172 0)
(0.91114441 0.000797175 0)
(0.90621318 0.00075489654 0)
(0.90145167 0.00071509933 0)
(0.89685429 0.00067814966 0)
(0.89240694 0.00064362313 0)
(0.88810611 0.00061107209 0)
(0.88394702 0.00058053987 0)
(0.87991522 0.00055185929 0)
(0.87601027 0.00052501093 0)
(0.87222701 0.00049991018 0)
(0.86855514 0.00047619982 0)
(0.86498468 0.00045376514 0)
(0.86150705 0.00043285644 0)
(0.85812353 0.00041323959 0)
(0.8548308 0.00039559301 0)
(0.85160213 0.00037766353 0)
(0.84847375 0.0003670604 0)
(0.8452731 0.00034336573 0)
(0.84252987 0.00039858508 0)
(0.83778814 0.00028928555 0)
(0.99869604 0.00039036819 0)
(0.99866764 0.00044769308 0)
(0.99864755 0.00049922021 0)
(0.99862738 0.00054177091 0)
(0.99860024 0.00057869358 0)
(0.99856319 0.00061489231 0)
(0.99851563 0.00065343132 0)
(0.99845635 0.00069672297 0)
(0.99838288 0.0007489177 0)
(0.99829263 0.00081667434 0)
(0.9981848 0.00091094476 0)
(0.99806348 0.0010474428 0)
(0.9979449 0.0012484207 0)
(0.99786828 0.0015273262 0)
(0.99788176 0.0018503259 0)
(0.9979999 0.0021512369 0)
(0.99818982 0.0023880829 0)
(0.99840572 0.0025614035 0)
(0.99862215 0.0026865197 0)
(0.99883227 0.0027726541 0)
(0.999033 0.0028267948 0)
(0.99922125 0.0028573095 0)
(0.99939635 0.0028711543 0)
(0.99956014 0.0028724996 0)
(0.99971473 0.0028627633 0)
(0.99986063 0.0028421843 0)
(0.99999685 0.0028116834 0)
(1.0001222 0.0027733365 0)
(1.0002367 0.0027297369 0)
(1.0003413 0.0026824464 0)
(1.0004369 0.002631757 0)