/*--------------------------------*- C++ -*----------------------------------*\
  =========                 |
  \\      /  F ield         | OpenFOAM: The Open Source CFD Toolbox
   \\    /   O peration     | Website:  https://openfoam.org
    \\  /    A nd           | Version:  12
     \\/     M anipulation  |
\*---------------------------------------------------------------------------*/
FoamFile
{
    format      ascii;
    class       volScalarField;
    location    "1700";
    object      k;
}
// * * * * * * * * * * * * * * * * * * * * * * * * * * * * * * * * * * * * * //

dimensions      [0 2 -2 0 0 0 0];

internalField   nonuniform List<scalar> 
7480
(
1.0030149e-08
9.7798938e-09
9.5370883e-09
9.3292804e-09
9.1818562e-09
9.1059564e-09
9.1380287e-09
9.2325101e-09
9.4183866e-09
9.6185218e-09
1.0240532e-08
8.9288006e-09
5.4424523e-05
0.0014634682
0.0037589887
0.0058277638
0.0072544088
0.0080447275
0.0084667515
0.0084516552
0.008361382
0.0081940048
0.0079883403
0.0077712036
0.0075515986
0.0073339853
0.0071224363
0.0069224631
0.0067394655
0.0065708199
0.0064162809
0.006276375
0.006151303
0.0060406386
0.0059433761
0.0058581803
0.0057834627
0.005717741
0.0056600132
0.0056095263
0.0055652857
0.0055261226
0.0054910104
0.0054589318
0.0054294463
0.0054012593
0.0053741074
0.0053475505
0.0053211582
0.0052946485
0.0052677146
0.0052399921
0.0052112451
0.0051814667
0.0051508285
0.005119564
0.005087898
0.0050560585
0.0050242479
0.004992598
0.0049611724
0.0049300028
0.0048991309
0.0048686285
0.0048385656
0.0048089791
0.0047799045
0.0047513676
0.0047233371
0.0046957363
0.004668508
0.0046416443
0.004615158
0.0045890556
0.0045633572
0.0045380851
0.0045132139
0.0044886901
0.0044644792
0.0044405791
0.0044170007
0.0043937625
0.0043708783
0.0043483241
0.0043260551
0.0043040558
0.0042823254
0.0042608786
0.0042397306
0.0042188565
0.004198221
0.0041778134
0.0041576398
0.0041376888
0.0041179831
0.004098333
0.0040791246
0.004058824
0.0040416473
0.0040102644
1.0160379e-08
1.0090992e-08
1.0019337e-08
9.9453503e-09
9.8689665e-09
9.7900529e-09
9.709816e-09
9.6254076e-09
9.55161e-09
9.4226694e-09
9.4180334e-09
9.0757785e-09
5.2463915e-07
1.3689466e-05
8.480052e-05
0.00028312556
0.00060079304
0.00096821912
0.0013222275
0.001603917
0.0018119149
0.0019676802
0.0020990239
0.0022247491
0.0023814904
0.0025548516
0.0027520182
0.003000182
0.0032669354
0.0035413639
0.0038140658
0.0040763473
0.0043204862
0.004540608
0.0047330585
0.0048968931
0.0050317546
0.0051411535
0.0052319594
0.0053079776
0.0053685882
0.0054143658
0.0054472573
0.0054677831
0.0054799558
0.0054781257
0.0054707743
0.005457104
0.0054380511
0.0054145511
0.0053872349
0.0053565857
0.0053237451
0.0052901128
0.005256818
0.0052244655
0.0051933431
0.0051635984
0.0051348207
0.0051067296
0.0050792655
0.005052464
0.0050263333
0.0050008658
0.0049760566
0.0049518742
0.0049283003
0.0049050843
0.0048818622
0.0048584926
0.004835068
0.0048117463
0.0047886486
0.0047658428
0.0047433959
0.0047212439
0.0046991856
0.0046771129
0.0046550795
0.0046332057
0.0046115749
0.0045902575
0.0045691982
0.0045482527
0.0045273608
0.004506577
0.00448598
0.0044656519
0.0044455559
0.0044255872
0.0044057086
0.0043859591
0.0043664109
0.0043470736
0.0043278784
0.0043087663
0.0042897841
0.0042705526
0.0042534511
0.0042232957
1.0171998e-08
1.0103609e-08
1.0034168e-08
9.9635073e-09
9.8915863e-09
9.8183984e-09
9.7439194e-09
9.6682376e-09
9.5909599e-09
9.513551e-09
9.4284615e-09
9.3689169e-09
4.0039897e-09
2.2272422e-08
3.8962102e-07
2.6840301e-06
1.1329632e-05
2.9886555e-05
6.0268189e-05
0.0001016873
0.00015134395
0.00020578022
0.00026228081
0.00031880813
0.00037784719
0.0004412818
0.00051115924
0.00059402051
0.00069341906
0.00081630258
0.0009767843
0.0011592581
0.0013577464
0.0015705153
0.0017962973
0.0020330484
0.002279083
0.0025331898
0.002785897
0.0030295733
0.0032580632
0.0034643048
0.0036443726
0.0038001672
0.0039354506
0.0040541015
0.0041555372
0.004239547
0.0043075107
0.0043616043
0.0043997193
0.0044265141
0.0044457881
0.0044596919
0.0044692524
0.0044750983
0.0044781306
0.0044792607
0.0044790133
0.0044775222
0.0044749719
0.0044715555
0.0044674047
0.0044626857
0.004457532
0.0044519844
0.0044460596
0.0044394223
0.0044318154
0.0044233478
0.0044142328
0.0044046239
0.0043946274
0.0043843268
0.0043738261
0.0043630032
0.0043516357
0.0043397253
0.0043274271
0.0043148941
0.0043022126
0.0042894783
0.0042765871
0.0042633866
0.0042498746
0.0042361642
0.00422236
0.0042085682
0.0041947141
0.0041806821
0.0041664724
0.0041521644
0.0041378599
0.0041235638
0.0041091792
0.0040947085
0.0040801132
0.0040654425
0.0040520159
0.004028457
1.0204215e-08
1.0135541e-08
1.0065807e-08
9.9948787e-09
9.9227265e-09
9.8493494e-09
9.7747467e-09
9.6989425e-09
9.6218788e-09
9.5438196e-09
9.4638204e-09
9.3856177e-09
9.2942973e-09
9.1228183e-09
9.3273007e-09
1.1439463e-08
2.7007753e-08
1.0660568e-07
4.2867663e-07
1.2610265e-06
2.839315e-06
5.312639e-06
8.7725341e-06
1.328622e-05
1.8961411e-05
2.606567e-05
3.4936061e-05
4.6122573e-05
6.0368342e-05
7.8640112e-05
0.00010265532
0.00013440137
0.00017693003
0.00023260401
0.00030413834
0.00039504136
0.00051086392
0.00065810777
0.00082602503
0.0010116675
0.0012179417
0.0014459226
0.0016914741
0.00194039
0.002184421
0.0024178308
0.0026349188
0.0028299776
0.0030037653
0.0031568825
0.0032905771
0.0034085242
0.0035087137
0.0035929978
0.0036636552
0.0037229841
0.0037737486
0.0038175631
0.0038538823
0.0038845112
0.003910771
0.0039336523
0.0039538939
0.0039719766
0.0039880748
0.0040022887
0.0040147363
0.0040254845
0.0040345267
0.0040419919
0.00404804
0.0040528049
0.0040564279
0.0040590371
0.0040607577
0.0040614505
0.0040609849
0.0040595002
0.0040571923
0.0040542
0.004050606
0.0040465283
0.0040418214
0.0040363752
0.0040302732
0.0040236686
0.0040166686
0.0040093889
0.0040017132
0.0039935477
0.0039849471
0.0039760219
0.003966888
0.003957531
0.0039478449
0.0039378822
0.0039275846
0.0039172233
0.0039074091
0.0038899968
1.0236146e-08
1.0167289e-08
1.0097372e-08
1.0026257e-08
9.9539118e-09
9.8803346e-09
9.805529e-09
9.7295012e-09
9.6522615e-09
9.5738095e-09
9.4941978e-09
9.4132578e-09
9.3317841e-09
9.2476887e-09
9.1632008e-09
9.0793432e-09
9.0029607e-09
8.9694662e-09
9.1855335e-09
1.0272281e-08
1.3642979e-08
2.2145184e-08
4.0936904e-08
7.8634255e-08
1.4824397e-07
2.6792625e-07
4.6156338e-07
7.6123265e-07
1.2119916e-06
1.8772566e-06
2.8552899e-06
4.2975197e-06
6.4421252e-06
9.6812393e-06
1.4625318e-05
2.2166583e-05
3.3716556e-05
5.1088907e-05
7.7975757e-05
0.00011785797
0.00017426676
0.0002520991
0.0003582827
0.00050088099
0.00066888499
0.00085588377
0.0010625047
0.0012894285
0.0015223922
0.0017536142
0.0019761082
0.0021844691
0.0023729743
0.002542367
0.0026935303
0.0028281787
0.0029500066
0.0030568133
0.0031490437
0.0032287236
0.0032983698
0.0033602348
0.0034156666
0.0034652476
0.0035094668
0.0035490748
0.0035848792
0.0036167036
0.0036448706
0.0036700566
0.0036926376
0.0037129191
0.0037311492
0.0037474943
0.0037620763
0.0037749544
0.0037861697
0.0037958582
0.0038041766
0.0038112498
0.0038171839
0.0038221182
0.0038259141
0.0038285587
0.0038302059
0.0038310126
0.003831076
0.0038305166
0.0038291878
0.0038270564
0.0038242344
0.0038208475
0.0038170125
0.00381269
0.0038077853
0.0038024034
0.0037964868
0.0037904476
0.0037842933
0.0037729723
1.0248683e-08
1.0179787e-08
1.0109837e-08
1.0038691e-08
9.9663169e-09
9.8927115e-09
9.8178792e-09
9.7418268e-09
9.664563e-09
9.5860983e-09
9.506443e-09
9.4256226e-09
9.343606e-09
9.2607019e-09
9.1762521e-09
9.0899663e-09
9.0029557e-09
8.9153979e-09
8.8282553e-09
8.7413017e-09
8.6562771e-09
8.5779149e-09
8.5168984e-09
8.4959262e-09
8.5560691e-09
8.7685022e-09
9.2511618e-09
1.019614e-08
1.1922205e-08
1.4966529e-08
2.0279208e-08
2.9598807e-08
4.6280498e-08
7.6874482e-08
1.3454741e-07
2.4428088e-07
4.5655747e-07
8.5732969e-07
1.6226614e-06
3.0598591e-06
5.6794679e-06
1.0355961e-05
1.8726105e-05
3.3134384e-05
5.8729958e-05
0.00010027541
0.00016225487
0.00025114013
0.00037475615
0.0005281553
0.00070444931
0.0008980104
0.0011105222
0.0013295155
0.0015445984
0.0017494011
0.001940317
0.0021139806
0.0022728237
0.002417566
0.0025493704
0.0026688371
0.0027748536
0.0028689888
0.0029531197
0.0030291833
0.0030982969
0.0031604523
0.0032158821
0.0032655621
0.0033104828
0.0033512927
0.0033883436
0.0034219384
0.0034524538
0.0034798622
0.0035044218
0.0035266053
0.0035466533
0.0035647518
0.0035810687
0.0035957533
0.003608844
0.0036203934
0.0036305412
0.0036394202
0.0036471291
0.0036537961
0.0036593011
0.0036636935
0.0036671171
0.0036696928
0.0036715313
0.0036725791
0.0036727809
0.0036722908
0.0036710527
0.0036695763
0.0036673064
0.0036623544
1.024776e-08
1.0178889e-08
1.0108968e-08
1.0037851e-08
9.9655084e-09
9.8919357e-09
9.8171372e-09
9.7411199e-09
9.6638924e-09
9.5854653e-09
9.5058509e-09
9.4250662e-09
9.3431324e-09
9.2600812e-09
9.1759338e-09
9.0907031e-09
9.0043583e-09
8.9170165e-09
8.8276002e-09
8.7369665e-09
8.6454367e-09
8.5533958e-09
8.4613065e-09
8.3688022e-09
8.2763389e-09
8.1839716e-09
8.0916161e-09
7.9997553e-09
7.9093632e-09
7.8221776e-09
7.7411072e-09
7.6719024e-09
7.6256055e-09
7.6225977e-09
7.7043552e-09
7.9526664e-09
8.547014e-09
9.8519365e-09
1.2714951e-08
1.9147892e-08
3.444734e-08
7.1300561e-08
1.6613291e-07
3.9786913e-07
9.7709463e-07
2.3422847e-06
5.2205945e-06
1.1058936e-05
2.2193532e-05
4.3627478e-05
8.1487257e-05
0.00014057322
0.00022790768
0.00035117819
0.00050098964
0.00067281755
0.00086029391
0.0010638668
0.0012696542
0.0014676519
0.0016536371
0.0018256769
0.0019831713
0.0021306123
0.0022674832
0.0023944549
0.0025090701
0.0026121774
0.0027050686
0.0027893557
0.002865996
0.0029354247
0.002998151
0.0030549768
0.0031067985
0.0031538528
0.0031963481
0.0032348316
0.0032698372
0.0033017546
0.0033308599
0.0033574093
0.0033812923
0.0034028732
0.0034224674
0.0034402382
0.0034563234
0.0034708645
0.0034839067
0.0034955121
0.0035058064
0.0035149015
0.0035229053
0.0035297903
0.0035355622
0.0035404021
0.0035442461
0.0035476839
0.0035496099
0.0035514819
1.0246139e-08
1.0177277e-08
1.0107362e-08
1.0036253e-08
9.9639165e-09
9.8903503e-09
9.8155581e-09
9.7395472e-09
9.6623264e-09
9.5839062e-09
9.5042991e-09
9.423521e-09
9.3415928e-09
9.2585375e-09
9.1743775e-09
9.0891363e-09
9.0028352e-09
8.9155049e-09
8.8271506e-09
8.7377846e-09
8.6474216e-09
8.5560726e-09
8.4637209e-09
8.3703083e-09
8.275443e-09
8.1793068e-09
8.0823753e-09
7.9848276e-09
7.8868038e-09
7.788452e-09
7.690127e-09
7.5918738e-09
7.4934992e-09
7.3951438e-09
7.2974681e-09
7.2000497e-09
7.103243e-09
7.0079857e-09
6.9165436e-09
6.83334e-09
6.7721083e-09
6.763817e-09
6.8996997e-09
7.4125225e-09
8.9442558e-09
1.3644447e-08
2.7568271e-08
7.2021969e-08
2.0751779e-07
6.149865e-07
1.7734322e-06
4.4857181e-06
1.048255e-05
2.2407724e-05
4.6946494e-05
9.0260624e-05
0.00015722066
0.00025854726
0.00039097677
0.00054715895
0.00072153476
0.00090920897
0.0011061349
0.0012961358
0.0014748759
0.0016417413
0.001796193
0.0019426144
0.0020804728
0.0022094292
0.0023266734
0.0024330399
0.0025299268
0.0026186264
0.0026998914
0.0027737687
0.0028405857
0.0029011762
0.0029563315
0.0030065588
0.0030523042
0.0030940946
0.0031320482
0.0031665257
0.0031979433
0.0032266362
0.0032528677
0.0032768548
0.0032984957
0.0033181418
0.0033360226
0.0033522701
0.0033670035
0.0033803085
0.0033922308
0.0034029297
0.0034123283
0.0034211054
0.0034276093
0.0034368907
1.0246895e-08
1.0178025e-08
1.0108102e-08
1.0036983e-08
9.9646363e-09
9.8910593e-09
9.8162559e-09
9.7402333e-09
9.6630002e-09
9.5845672e-09
9.5049464e-09
9.424153e-09
9.3422059e-09
9.2591271e-09
9.1749388e-09
9.0896625e-09
9.0033221e-09
8.9159439e-09
8.8275584e-09
8.7381944e-09
8.6478794e-09
8.5566407e-09
8.4645027e-09
8.3714927e-09
8.277628e-09
8.1829249e-09
8.0874104e-09
7.9911168e-09
7.8940783e-09
7.7963259e-09
7.6978887e-09
7.5987821e-09
7.498965e-09
7.39837e-09
7.2965771e-09
7.1943195e-09
7.0918316e-09
6.9892795e-09
6.8867993e-09
6.7850289e-09
6.6837951e-09
6.5829661e-09
6.4836327e-09
6.3854136e-09
6.2894254e-09
6.1998635e-09
6.1295698e-09
6.1209557e-09
6.335276e-09
7.172025e-09
1.0659723e-08
2.1979643e-08
6.7391537e-08
2.1438106e-07
7.3964137e-07
2.2733264e-06
6.0389371e-06
1.4318967e-05
3.2721765e-05
6.8292845e-05
0.0001270021
0.00021715209
0.00034185971
0.00049067087
0.00065780808
0.00083661902
0.0010242962
0.0012061534
0.0013770847
0.001537345
0.0016869543
0.0018299823
0.0019656051
0.002092667
0.0022091502
0.0023158771
0.0024138746
0.0025038268
0.0025860096
0.0026607779
0.0027288794
0.002791167
0.0028479071
0.0028994283
0.0029463048
0.0029890987
0.0030282229
0.0030640401
0.0030965826
0.0031262408
0.0031533577
0.0031781753
0.0032009005
0.0032215527
0.00324031
0.003257455
0.0032729258
0.0032875262
0.0032990633
0.0033164537
1.0248439e-08
1.0179559e-08
1.0109627e-08
1.0038499e-08
9.9661422e-09
9.8925549e-09
9.8177409e-09
9.7417075e-09
9.6644634e-09
9.5860193e-09
9.5063873e-09
9.4255823e-09
9.3436229e-09
9.2605301e-09
9.1763264e-09
9.0910337e-09
9.0046758e-09
8.917279e-09
8.8288707e-09
8.7394785e-09
8.6491306e-09
8.557856e-09
8.4656853e-09
8.3726505e-09
8.2787864e-09
8.184129e-09
8.0887134e-09
7.9925749e-09
7.8957492e-09
7.798273e-09
7.7001821e-09
7.6015128e-09
7.502301e-09
7.4025846e-09
7.3023841e-09
7.2017352e-09
7.1006805e-09
6.9992662e-09
6.8975286e-09
6.7955129e-09
6.6931908e-09
6.5905268e-09
6.4867257e-09
6.3827988e-09
6.2791076e-09
6.1760765e-09
6.0745283e-09
5.9737771e-09
5.8753809e-09
5.7784157e-09
5.6878819e-09
5.6088964e-09
5.6058404e-09
5.8098174e-09
6.9881954e-09
1.1579651e-08
3.1979684e-08
1.0710368e-07
4.1789088e-07
1.4996988e-06
4.543857e-06
1.1564776e-05
2.8394603e-05
6.2646068e-05
0.00012080875
0.00021207493
0.00033636762
0.00048469169
0.00065002995
0.00082488071
0.0010052133
0.0011777789
0.0013396232
0.0014920441
0.0016358687
0.0017745474
0.00190653
0.0020294948
0.0021427215
0.0022470193
0.0023432827
0.0024319093
0.002512927
0.0025867776
0.0026542078
0.0027157484
0.0027718562
0.0028231286
0.0028698483
0.0029124035
0.0029512431
0.0029867841
0.0030193834
0.0030491306
0.0030762514
0.0031011275
0.00312378
0.0031451944
0.0031623548
0.0031886524
1.0250188e-08
1.0181299e-08
1.0111357e-08
1.0040219e-08
9.9678517e-09
9.8942536e-09
9.8194286e-09
9.7433839e-09
9.6661285e-09
9.5876729e-09
9.5080295e-09
9.4272131e-09
9.3452417e-09
9.262136e-09
9.1779186e-09
9.092612e-09
9.0062401e-09
8.9188291e-09
8.8304059e-09
8.7409982e-09
8.6506337e-09
8.5593413e-09
8.4671514e-09
8.3740954e-09
8.2802067e-09
8.1855196e-09
8.0900699e-09
7.9938945e-09
7.8970317e-09
7.799521e-09
7.7014029e-09
7.6027189e-09
7.5035119e-09
7.4038256e-09
7.3037068e-09
7.2032008e-09
7.102352e-09
7.0012051e-09
6.8998048e-09
6.7981938e-09
6.6964128e-09
6.5945077e-09
6.492493e-09
6.3904017e-09
6.2882742e-09
6.1861511e-09
6.0840293e-09
5.9818776e-09
5.8786005e-09
5.7755364e-09
5.6730462e-09
5.5726273e-09
5.4734594e-09
5.376798e-09
5.2831407e-09
5.194948e-09
5.1379127e-09
5.1946225e-09
5.7383593e-09
8.6560625e-09
2.2313207e-08
8.0692173e-08
3.4191584e-07
1.3640777e-06
4.5016558e-06
1.198918e-05
3.112347e-05
6.9637185e-05
0.00013540318
0.00023545381
0.00036746612
0.00052092806
0.00068784354
0.00086028027
0.0010325724
0.0011942661
0.0013467197
0.0014912218
0.0016300151
0.0017632885
0.0018894888
0.0020065476
0.0021149764
0.0022154971
0.0023083247
0.0023933968
0.0024711756
0.0025424722
0.002607652
0.002667035
0.0027211767
0.0027706382
0.0028159043
0.0028572226
0.0028948998
0.0029294068
0.0029608784
0.0029905533
0.0030146405
0.0030514814
1.0252232e-08
1.0183331e-08
1.0113377e-08
1.0042226e-08
9.9698464e-09
9.8962353e-09
9.8213969e-09
9.7453386e-09
9.6680694e-09
9.5895999e-09
9.5099426e-09
9.429112e-09
9.3471258e-09
9.2640045e-09
9.1797704e-09
9.0944464e-09
9.0080567e-09
8.9206271e-09
8.8321845e-09
8.7427566e-09
8.6523713e-09
8.5610577e-09
8.4688461e-09
8.3757681e-09
8.2818567e-09
8.1871464e-09
8.0916725e-09
7.9954717e-09
7.8985822e-09
7.801043e-09
7.7028947e-09
7.6041787e-09
7.5049377e-09
7.4052153e-09
7.305056e-09
7.2045057e-09
7.1036108e-09
7.0024186e-09
6.9009769e-09
6.7993341e-09
6.6975391e-09
6.5956408e-09
6.4936924e-09
6.3917436e-09
6.2898416e-09
6.1880326e-09
6.086354e-09
5.9848537e-09
5.8835295e-09
5.7824153e-09
5.6815221e-09
5.5809102e-09
5.4804668e-09
5.379016e-09
5.2778873e-09
5.1781856e-09
5.0805157e-09
4.9848164e-09
4.8921798e-09
4.803507e-09
4.7370581e-09
4.748111e-09
5.216655e-09
8.0097547e-09
2.2787887e-08
9.1329303e-08
4.1802959e-07
1.7557476e-06
5.7898126e-06
1.6322698e-05
4.2468569e-05
9.2193494e-05
0.00017624787
0.00029224528
0.00043683036
0.00059744958
0.00076451179
0.00093185549
0.0010920925
0.0012431568
0.0013869176
0.0015242787
0.0016573135
0.0017846051
0.0019033401
0.0020137825
0.0021165069
0.0022117474
0.0022993583
0.0023796389
0.0024532356
0.0025205543
0.0025820672
0.0026382504
0.0026895091
0.0027363491
0.0027790166
0.00281905
0.0028518177
0.0029016156
1.0254428e-08
1.0185515e-08
1.0115549e-08
1.0044385e-08
9.9719919e-09
9.8983672e-09
9.823515e-09
9.7474426e-09
9.6701592e-09
9.5916754e-09
9.5120036e-09
9.4311586e-09
9.3491577e-09
9.2660209e-09
9.1817707e-09
9.09643e-09
9.0100231e-09
8.9225756e-09
8.8341145e-09
8.7446671e-09
8.6542618e-09
8.5629275e-09
8.4706946e-09
8.3775949e-09
8.2836614e-09
8.1889286e-09
8.0934319e-09
7.9972081e-09
7.9002952e-09
7.8027324e-09
7.7045603e-09
7.6058202e-09
7.5065546e-09
7.4068071e-09
7.306622e-09
7.2060448e-09
7.1051215e-09
7.0038992e-09
6.9024255e-09
6.8007485e-09
6.6989171e-09
6.5969802e-09
6.4949876e-09
6.392989e-09
6.2910345e-09
6.1891741e-09
6.0874577e-09
5.9859342e-09
5.8846578e-09
5.783677e-09
5.6830378e-09
5.5827745e-09
5.4829298e-09
5.3834939e-09
5.2844765e-09
5.1859102e-09
5.0878348e-09
4.9896305e-09
4.8910186e-09
4.7933947e-09
4.6983621e-09
4.6050408e-09
4.5153308e-09
4.4292532e-09
4.3677938e-09
4.3982668e-09
5.0693989e-09
9.2650667e-09
3.2918021e-08
1.583729e-07
7.493216e-07
3.1331344e-06
9.7639664e-06
2.8609014e-05
6.9003424e-05
0.00014173343
0.00024881376
0.00038570524
0.00054229484
0.00070606658
0.0008687499
0.001026157
0.0011745288
0.0013162367
0.0014514417
0.0015831638
0.0017097777
0.001828604
0.0019395877
0.0020431455
0.0021393164
0.0022278557
0.0023091831
0.0023838729
0.0024522186
0.0025146989
0.0025716268
0.0026247973
0.0026685511
0.0027346765
1.0256557e-08
1.0187633e-08
1.0117655e-08
1.0046479e-08
9.9740736e-09
9.9004363e-09
9.8255713e-09
9.7494859e-09
9.6721893e-09
9.5936923e-09
9.5140075e-09
9.4331494e-09
9.3511354e-09
9.2679852e-09
9.1837209e-09
9.0983659e-09
9.0119443e-09
8.9244816e-09
8.8360046e-09
8.7465407e-09
8.6561182e-09
8.5647663e-09
8.4725152e-09
8.3793969e-09
8.2854444e-09
8.1906921e-09
8.0951756e-09
7.9989317e-09
7.9019984e-09
7.8044151e-09
7.7062222e-09
7.6074612e-09
7.5081746e-09
7.4084059e-09
7.3081995e-09
7.207601e-09
7.1066563e-09
7.0054125e-09
6.9039172e-09
6.8022184e-09
6.7003648e-09
6.5984054e-09
6.4963893e-09
6.3943661e-09
6.2923852e-09
6.1904961e-09
6.0887483e-09
5.9871908e-09
5.8858729e-09
5.7848434e-09
5.6841511e-09
5.5838437e-09
5.4839675e-09
5.3845748e-09
5.2857117e-09
5.1874152e-09
5.0897188e-09
4.992639e-09
4.8961584e-09
4.8002941e-09
4.7050587e-09
4.6102103e-09
4.5146943e-09
4.4203356e-09
4.3286401e-09
4.2391884e-09
4.1527645e-09
4.0750204e-09
4.020887e-09
4.20226e-09
5.6883481e-09
1.5815158e-08
7.484697e-08
4.2015765e-07
1.9524174e-06
6.8708589e-06
2.2225547e-05
5.7871953e-05
0.00012554881
0.00022896058
0.00036211094
0.00051708127
0.00067827642
0.00083657117
0.00098994873
0.0011347806
0.0012735193
0.0014063495
0.0015359858
0.0016609693
0.0017786271
0.0018888196
0.0019918799
0.0020876392
0.0021759227
0.0022572013
0.0023316482
0.0024011345
0.0024585943
0.0025452655
1.0258548e-08
1.0189612e-08
1.0119624e-08
1.0048437e-08
9.9760202e-09
9.9023713e-09
9.8274945e-09
9.7513972e-09
9.6740887e-09
9.5955797e-09
9.5158829e-09
9.4350131e-09
9.3529872e-09
9.2698249e-09
9.1855482e-09
9.1001802e-09
9.0137453e-09
8.9262688e-09
8.8377774e-09
8.7482985e-09
8.6578604e-09
8.5664923e-09
8.4742248e-09
8.3810895e-09
8.2871197e-09
8.1923497e-09
8.0968153e-09
8.0005532e-09
7.9036015e-09
7.8059996e-09
7.7077879e-09
7.609008e-09
7.5097023e-09
7.4099145e-09
7.3096889e-09
7.2090711e-09
7.1081072e-09
7.0068441e-09
6.9053295e-09
6.8036115e-09
6.7017386e-09
6.59976e-09
6.4977247e-09
6.3956824e-09
6.2936824e-09
6.1917742e-09
6.0900071e-09
5.9884302e-09
5.8870922e-09
5.7860414e-09
5.6853256e-09
5.584992e-09
5.4850871e-09
5.3856571e-09
5.2867476e-09
5.1884035e-09
5.0906675e-09
4.9935842e-09
4.8971992e-09
4.801551e-09
4.7066619e-09
4.6125597e-09
4.5192055e-09
4.4266055e-09
4.3347889e-09
4.2433025e-09
4.1514447e-09
4.0612546e-09
3.9733381e-09
3.8892615e-09
3.809209e-09
3.7402727e-09
3.7677678e-09
4.5319434e-09
1.0033029e-08
4.630471e-08
2.9676544e-07
1.4898409e-06
5.7327186e-06
2.018556e-05
5.5039949e-05
0.0001235472
0.00022825919
0.00036194227
0.00051700667
0.00067580739
0.00082958295
0.00097782638
0.0011186464
0.0012540069
0.0013840289
0.0015112741
0.0016339341
0.0017494657
0.001857944
0.0019595754
0.0020536886
0.0021420966
0.002215817
0.0023275058
1.0260405e-08
1.019146e-08
1.0121461e-08
1.0050264e-08
9.9778369e-09
9.9041774e-09
9.8292897e-09
9.7531814e-09
9.6758618e-09
9.5973418e-09
9.5176341e-09
9.4367533e-09
9.3547166e-09
9.2715433e-09
9.1872551e-09
9.1018752e-09
9.0154279e-09
8.9279385e-09
8.8394335e-09
8.7499404e-09
8.6594876e-09
8.5681042e-09
8.4758209e-09
8.3826695e-09
8.2886832e-09
8.1938964e-09
8.0983449e-09
8.0020654e-09
7.9050962e-09
7.8074766e-09
7.709247e-09
7.610449e-09
7.5111253e-09
7.4113193e-09
7.3110755e-09
7.2104395e-09
7.1094573e-09
7.008176e-09
6.9066431e-09
6.8049068e-09
6.7030157e-09
6.6010188e-09
6.4989654e-09
6.3969049e-09
6.2948869e-09
6.1929607e-09
6.0911757e-09
5.989581e-09
5.8882253e-09
5.787157e-09
5.6864237e-09
5.5860727e-09
5.4861504e-09
5.3867025e-09
5.2877736e-09
5.1894077e-09
5.0916475e-09
4.9945349e-09
4.8981112e-09
4.8024167e-09
4.7074902e-09
4.6133693e-09
4.5200971e-09
4.4277058e-09
4.3362159e-09
4.2456326e-09
4.1559368e-09
4.0670335e-09
3.9792823e-09
3.8906065e-09
3.8025938e-09
3.7181632e-09
3.6339148e-09
3.5629868e-09
3.4631429e-09
3.4663034e-09
3.9812777e-09
8.0094835e-09
3.719874e-08
2.6896884e-07
1.4224268e-06
5.7698957e-06
2.1598341e-05
5.9700335e-05
0.00013482057
0.00024512721
0.00038276969
0.00053787717
0.00069336792
0.00084210321
0.00098539021
0.0011220148
0.0012536616
0.0013809737
0.0015054642
0.0016251041
0.0017376688
0.0018454491
0.0019365377
0.0020765179
1.0262139e-08
1.0193185e-08
1.0123177e-08
1.005197e-08
9.9795338e-09
9.9058644e-09
9.8309667e-09
9.7548483e-09
9.6775185e-09
9.5989884e-09
9.5192706e-09
9.43838e-09
9.3563333e-09
9.2731499e-09
9.1888513e-09
9.1034605e-09
9.0170017e-09
8.9295003e-09
8.8409827e-09
8.7514763e-09
8.6610095e-09
8.5696118e-09
8.4773136e-09
8.3841469e-09
8.2901449e-09
8.1953421e-09
8.0997743e-09
8.0034783e-09
7.9064924e-09
7.8088558e-09
7.7106092e-09
7.6117941e-09
7.5124531e-09
7.4126298e-09
7.3123687e-09
7.2117152e-09
7.1107157e-09
7.009417e-09
6.9078667e-09
6.806113e-09
6.7042046e-09
6.6021904e-09
6.5001197e-09
6.398042e-09
6.2960067e-09
6.1940633e-09
6.0922612e-09
5.9906494e-09
5.8892766e-09
5.7881913e-09
5.6874412e-09
5.5870734e-09
5.4871345e-09
5.3876701e-09
5.2887249e-09
5.1903428e-09
5.0925665e-09
4.9954377e-09
4.8989969e-09
4.8032832e-09
4.708335e-09
4.6141889e-09
4.5208811e-09
4.4284468e-09
4.3369192e-09
4.2463305e-09
4.1567207e-09
4.0681042e-09
3.9805195e-09
3.8939082e-09
3.8082078e-09
3.7235393e-09
3.6395221e-09
3.5543236e-09
3.472181e-09
3.3923095e-09
3.3168232e-09
3.2468817e-09
3.2163824e-09
3.6955357e-09
7.6556872e-09
3.9154848e-08
3.1780579e-07
1.7099209e-06
7.1295708e-06
2.6875204e-05
7.3341682e-05
0.0001589023
0.00027844978
0.00042174303
0.00057666097
0.00072741094
0.00087059228
0.0010086779
0.0011411977
0.0012691702
0.0013936038
0.0015171935
0.0016231427
0.0017911226
1.0263759e-08
1.0194797e-08
1.012478e-08
1.0053565e-08
9.9811192e-09
9.9074407e-09
9.8325338e-09
9.7564061e-09
9.679067e-09
9.6005276e-09
9.5208007e-09
9.4399009e-09
9.3578452e-09
9.2746526e-09
9.1903445e-09
9.1049437e-09
9.0184744e-09
8.9309618e-09
8.8424324e-09
8.7529137e-09
8.6624339e-09
8.5710225e-09
8.4787103e-09
8.3855292e-09
8.2915124e-09
8.1966945e-09
8.1011113e-09
8.0047996e-09
7.9077979e-09
7.8101453e-09
7.7118825e-09
7.6130511e-09
7.5136937e-09
7.413854e-09
7.3135764e-09
7.2129065e-09
7.1118905e-09
7.0105753e-09
6.9090085e-09
6.8072384e-09
6.7053136e-09
6.603283e-09
6.501196e-09
6.3991019e-09
6.2970503e-09
6.1950907e-09
6.0932723e-09
5.9916444e-09
5.8902555e-09
5.7891541e-09
5.6883879e-09
5.5880042e-09
5.4880494e-09
5.3885692e-09
5.2896083e-09
5.1912106e-09
5.0934188e-09
4.9962747e-09
4.8998187e-09
4.8040902e-09
4.7091271e-09
4.6149662e-09
4.5216429e-09
4.429191e-09
4.3376431e-09
4.2470306e-09
4.1573835e-09
4.0687321e-09
3.9811007e-09
3.8945243e-09
3.8090331e-09
3.7246169e-09
3.6413414e-09
3.5589448e-09
3.4778001e-09
3.3976034e-09
3.3164588e-09
3.2381469e-09
3.1598707e-09
3.0954686e-09
2.999695e-09
3.0025081e-09
3.6158941e-09
8.959134e-09
5.6214316e-08
4.8032953e-07
2.5362024e-06
1.1201654e-05
3.8539767e-05
9.9175e-05
0.00019868158
0.00032881377
0.0004768065
0.00062902939
0.00077398968
0.00091216257
0.0010449718
0.0011756223
0.0012883725
0.001477687
1.0265273e-08
1.0196303e-08
1.0126278e-08
1.0055055e-08
9.9826013e-09
9.9089144e-09
9.833999e-09
9.7578628e-09
9.6805152e-09
9.6019673e-09
9.5222319e-09
9.4413239e-09
9.3592599e-09
9.276059e-09
9.1917421e-09
9.1063321e-09
9.0198531e-09
8.9323303e-09
8.84379e-09
8.7542596e-09
8.6637676e-09
8.5723435e-09
8.4800181e-09
8.3868234e-09
8.2927926e-09
8.1979604e-09
8.1023625e-09
8.0060361e-09
7.9090192e-09
7.8113515e-09
7.7130734e-09
7.6142265e-09
7.5148536e-09
7.4149983e-09
7.3147052e-09
7.2140196e-09
7.112988e-09
7.0116572e-09
6.9100749e-09
6.8082892e-09
6.7063488e-09
6.6043028e-09
6.5022003e-09
6.4000908e-09
6.2980238e-09
6.1960488e-09
6.0942152e-09
5.992572e-09
5.8911679e-09
5.7900514e-09
5.6892701e-09
5.5888713e-09
5.4889015e-09
5.3894064e-09
5.2904307e-09
5.1920182e-09
5.0942118e-09
4.9970531e-09
4.9005826e-09
4.8048397e-09
4.7098624e-09
4.6156875e-09
4.5223503e-09
4.4298849e-09
4.3383235e-09
4.2476975e-09
4.1580361e-09
4.0693676e-09
3.9817182e-09
3.8951135e-09
3.8095788e-09
3.7251358e-09
3.641807e-09
3.5596222e-09
3.4785887e-09
3.3987267e-09
3.3199373e-09
3.242175e-09
3.1657466e-09
3.0875857e-09
3.0126421e-09
2.9385598e-09
2.8758133e-09
2.7933138e-09
2.8331861e-09
3.8910617e-09
1.3751496e-08
1.2110813e-07
9.1497419e-07
4.437318e-06
1.9449063e-05
6.0202749e-05
0.00014008978
0.00025580178
0.00039591106
0.00054585768
0.00069198784
0.00083290742
0.0009538421
0.0011532737
1.0266689e-08
1.0197711e-08
1.012768e-08
1.0056449e-08
9.9839876e-09
9.910293e-09
9.8353698e-09
9.7592257e-09
9.6818703e-09
9.6033146e-09
9.5235716e-09
9.442656e-09
9.3605845e-09
9.2773759e-09
9.1930511e-09
9.1076327e-09
9.0211448e-09
8.9336124e-09
8.8450619e-09
8.7555207e-09
8.6650173e-09
8.5735813e-09
8.4812435e-09
8.3880359e-09
8.2939919e-09
8.1991461e-09
8.1035344e-09
8.0071939e-09
7.9101628e-09
7.8124806e-09
7.7141879e-09
7.6153264e-09
7.5159388e-09
7.4160687e-09
7.3157607e-09
7.2150604e-09
7.1140139e-09
7.0126684e-09
6.9110713e-09
6.8092709e-09
6.7073158e-09
6.6052551e-09
6.503138e-09
6.4010139e-09
6.2989324e-09
6.1969429e-09
6.0950949e-09
5.9934372e-09
5.8920189e-09
5.790888e-09
5.6900925e-09
5.5896796e-09
5.4896957e-09
5.3901865e-09
5.2911967e-09
5.1927704e-09
5.0949501e-09
4.9977777e-09
4.9012935e-09
4.8055371e-09
4.7105464e-09
4.6163581e-09
4.5230078e-09
4.4305292e-09
4.338955e-09
4.2483162e-09
4.1586424e-09
4.0699616e-09
3.9823002e-09
3.8956832e-09
3.8101339e-09
3.7256744e-09
3.6423243e-09
3.5601046e-09
3.4790332e-09
3.3991229e-09
3.3204091e-09
3.2428678e-09
3.166595e-09
3.0912709e-09
3.017294e-09
2.9443875e-09
2.8701075e-09
2.7989729e-09
2.7297706e-09
2.6683371e-09
2.6052312e-09
2.7886211e-09
5.2627711e-09
2.9803028e-08
3.1496826e-07
2.0326285e-06
9.6210311e-06
3.6252488e-05
9.852338e-05
0.00019955459
0.00033022279
0.00047872592
0.00061285403
0.0008278997
1.0268013e-08
1.0199029e-08
1.012899e-08
1.0057753e-08
9.9852846e-09
9.911583e-09
9.8366527e-09
9.7605014e-09
9.6831388e-09
9.6045761e-09
9.524826e-09
9.4439035e-09
9.3618251e-09
9.2786095e-09
9.1942775e-09
9.1088515e-09
9.0223553e-09
8.9348141e-09
8.8462542e-09
8.756703e-09
8.6661889e-09
8.5747417e-09
8.4823922e-09
8.3891725e-09
8.295116e-09
8.2002574e-09
8.1046326e-09
8.0082787e-09
7.9112341e-09
7.8135382e-09
7.7152317e-09
7.6163563e-09
7.5169546e-09
7.4170705e-09
7.3167485e-09
7.2160341e-09
7.1149736e-09
7.013614e-09
6.9120029e-09
6.8101886e-09
6.7082196e-09
6.606145e-09
6.504014e-09
6.4018762e-09
6.299781e-09
6.1977778e-09
6.0959161e-09
5.9942449e-09
5.892813e-09
5.7916686e-09
5.6908597e-09
5.5904334e-09
5.4904361e-09
5.3909137e-09
5.2919108e-09
5.1934713e-09
5.095638e-09
4.9984526e-09
4.9019556e-09
4.8061864e-09
4.711183e-09
4.6169822e-09
4.5236194e-09
4.4311285e-09
4.3395421e-09
4.2488912e-09
4.1592055e-09
4.0705128e-09
3.9828399e-09
3.8962115e-09
3.8106511e-09
3.7261805e-09
3.6428199e-09
3.5605878e-09
3.4795016e-09
3.3995763e-09
3.3208273e-09
3.2432687e-09
3.1669094e-09
3.0917776e-09
3.0178593e-09
2.9452241e-09
2.8735662e-09
2.8033163e-09
2.7336182e-09
2.663602e-09
2.5959427e-09
2.5338875e-09
2.4702654e-09
2.4511936e-09
3.113276e-09
1.0842698e-08
1.0436599e-07
9.1114681e-07
4.8584558e-06
2.211116e-05
6.8659293e-05
0.00015991188
0.00026688162
0.00049146787
1.0269247e-08
1.0200257e-08
1.0130212e-08
1.0058968e-08
9.9864936e-09
9.9127855e-09
9.8378487e-09
9.761691e-09
9.6843219e-09
9.6057528e-09
9.5259964e-09
9.4450676e-09
9.362983e-09
9.2797611e-09
9.1954226e-09
9.1099896e-09
9.023486e-09
8.9359368e-09
8.8473682e-09
8.7578077e-09
8.6672838e-09
8.5758262e-09
8.4834658e-09
8.3902347e-09
8.2961666e-09
8.2012959e-09
8.1056588e-09
8.0092924e-09
7.9122351e-09
7.8145263e-09
7.7162067e-09
7.6173182e-09
7.5179034e-09
7.418006e-09
7.3176707e-09
7.2169431e-09
7.1158693e-09
7.0144965e-09
6.9128723e-09
6.8110448e-09
6.7090627e-09
6.606975e-09
6.5048311e-09
6.4026803e-09
6.3005721e-09
6.1985561e-09
6.0966816e-09
5.9949976e-09
5.8935529e-09
5.7923959e-09
5.6915744e-09
5.5911355e-09
5.4911258e-09
5.3915909e-09
5.2925756e-09
5.1941238e-09
5.0962783e-09
4.9990807e-09