/*--------------------------------*- C++ -*----------------------------------*\
  =========                 |
  \\      /  F ield         | OpenFOAM: The Open Source CFD Toolbox
   \\    /   O peration     | Website:  https://openfoam.org
    \\  /    A nd           | Version:  12
     \\/     M anipulation  |
\*---------------------------------------------------------------------------*/
FoamFile
{
    format      ascii;
    class       volScalarField;
    location    "1700";
    object      nut;
}
// * * * * * * * * * * * * * * * * * * * * * * * * * * * * * * * * * * * * * //

dimensions      [0 2 -1 0 0 0 0];

internalField   nonuniform List<scalar> 
13056
(
1.9259876e-07
1.6588124e-07
1.6173031e-07
1.5892498e-07
1.566797e-07
1.5425657e-07
1.5173331e-07
1.4932681e-07
1.4714331e-07
1.4520425e-07
1.434964e-07
1.4199625e-07
1.4067865e-07
1.3951948e-07
1.3849655e-07
1.3758979e-07
1.367815e-07
1.3605525e-07
1.3539898e-07
1.3479424e-07
1.3424018e-07
1.3377509e-07
1.3316059e-07
6.4965046e-08
5.2552033e-17
1.0317858e-15
1.940065e-15
2.1822747e-15
2.1241495e-15
2.001173e-15
1.8893732e-15
1.7949753e-15
1.713351e-15
1.6419736e-15
1.5791501e-15
1.5233139e-15
1.4718264e-15
1.4246638e-15
1.381422e-15
1.3417689e-15
1.3053206e-15
1.2715972e-15
1.2402622e-15
1.2110663e-15
1.1837043e-15
1.1580077e-15
1.133806e-15
1.1109604e-15
1.0893551e-15
1.0688495e-15
1.0493804e-15
1.0308336e-15
1.0131088e-15
9.9617256e-16
9.7995013e-16
9.6436723e-16
9.4939946e-16
9.3499534e-16
9.2109242e-16
9.0767101e-16
8.9470362e-16
8.8214447e-16
8.699635e-16
8.5815157e-16
8.4661349e-16
8.3533913e-16
8.2435798e-16
8.1366357e-16
8.0323505e-16
7.9305023e-16
7.8309902e-16
7.7337184e-16
7.6384989e-16
7.5451649e-16
7.4536563e-16
7.3639137e-16
7.2757751e-16
7.1891138e-16
7.103876e-16
7.0200474e-16
6.9375141e-16
6.8561312e-16
6.7758361e-16
6.6966573e-16
6.6185236e-16
6.5412783e-16
6.4648599e-16
6.3892888e-16
6.3145445e-16
6.2405152e-16
6.1671042e-16
6.0943009e-16
6.0221363e-16
5.950518e-16
5.879313e-16
5.8084927e-16
5.738118e-16
5.6681175e-16
5.5982863e-16
5.5286411e-16
5.4592579e-16
5.3900697e-16
5.3209352e-16
5.2518103e-16
5.1827538e-16
5.113671e-16
5.0444093e-16
4.9749702e-16
4.9053642e-16
4.8354603e-16
4.7651611e-16
4.6945024e-16
4.6233794e-16
4.5531614e-16
4.486142e-16
4.4227899e-16
4.3623311e-16
4.3049742e-16
4.2505361e-16
4.1987435e-16
4.1493307e-16
4.1021293e-16
4.05703e-16
4.0138723e-16
3.9724655e-16
3.9326706e-16
3.8944142e-16
3.8576182e-16
3.822171e-16
3.7879173e-16
3.7547976e-16
3.7225353e-16
3.6915153e-16
3.6599618e-16
3.6319327e-16
3.5865805e-16
1.9259875e-07
1.6588192e-07
1.6172947e-07
1.5892329e-07
1.5667847e-07
1.5425647e-07
1.5173431e-07
1.4932865e-07
1.4714577e-07
1.4520715e-07
1.4349962e-07
1.4199971e-07
1.4068229e-07
1.3952325e-07
1.3850042e-07
1.3759373e-07
1.3678549e-07
1.3605928e-07
1.3540304e-07
1.3479832e-07
1.342443e-07
1.3377882e-07
1.3316571e-07
6.7042958e-08
2.9065433e-15
1.8107457e-13
3.4048649e-13
3.829947e-13
3.7279471e-13
3.5121358e-13
3.3159377e-13
3.1502769e-13
3.0070315e-13
2.8817678e-13
2.7715152e-13
2.6735247e-13
2.5831653e-13
2.5003958e-13
2.4245071e-13
2.3549163e-13
2.2909495e-13
2.2317649e-13
2.1767718e-13
2.1255327e-13
2.077512e-13
2.0324142e-13
1.9899397e-13
1.9498452e-13
1.9119272e-13
1.8759393e-13
1.8417704e-13
1.8092203e-13
1.7781126e-13
1.7483889e-13
1.7199179e-13
1.6925692e-13
1.6663001e-13
1.6410202e-13
1.61662e-13
1.5930647e-13
1.5703063e-13
1.5482644e-13
1.5268861e-13
1.5061555e-13
1.4859055e-13
1.4661184e-13
1.4468458e-13
1.4280764e-13
1.4097737e-13
1.3918987e-13
1.3744337e-13
1.3573619e-13
1.3406502e-13
1.3242694e-13
1.308209e-13
1.2924586e-13
1.2769896e-13
1.2617799e-13
1.24682e-13
1.2321075e-13
1.2176222e-13
1.2033389e-13
1.1892465e-13
1.17535e-13
1.1616369e-13
1.1480797e-13
1.1346676e-13
1.1214043e-13
1.108286e-13
1.0952932e-13
1.082409e-13
1.0696313e-13
1.0569658e-13
1.0443961e-13
1.031899e-13
1.0194694e-13
1.007118e-13
9.9483225e-14
9.8257621e-14
9.7035282e-14
9.581754e-14
9.460322e-14
9.3389841e-14
9.2176631e-14
9.096462e-14
8.9752147e-14
8.8536533e-14
8.7317805e-14
8.6096148e-14
8.486926e-14
8.3635435e-14
8.2395299e-14
8.1147013e-14
7.9914611e-14
7.8738348e-14
7.7626448e-14
7.6565329e-14
7.5558649e-14
7.4603199e-14
7.369418e-14
7.2826928e-14
7.1998489e-14
7.1206944e-14
7.0449476e-14
6.9722738e-14
6.9024291e-14
6.8352846e-14
6.7707031e-14
6.708489e-14
6.6483696e-14
6.5902407e-14
6.5336163e-14
6.4791724e-14
6.4237922e-14
6.3745977e-14
6.294999e-14
1.9259871e-07
1.6588408e-07
1.6172647e-07
1.5891773e-07
1.5667491e-07
1.5425688e-07
1.5173839e-07
1.4933546e-07
1.471545e-07
1.4521727e-07
1.4351074e-07
1.4201156e-07
1.4069468e-07
1.3953603e-07
1.3851349e-07
1.3760702e-07
1.3679893e-07
1.3607282e-07
1.3541665e-07
1.3481198e-07
1.3425804e-07
1.3379178e-07
1.3318148e-07
6.9487661e-08
4.1014909e-14
3.8657303e-12
7.2691591e-12
8.1765902e-12
7.9590748e-12
7.4986302e-12
7.0799992e-12
6.7265008e-12
6.4208126e-12
6.1534828e-12
5.9181781e-12
5.7090353e-12
5.5161721e-12
5.3395034e-12
5.1775168e-12
5.0289697e-12
4.8924244e-12
4.7660846e-12
4.6486898e-12
4.5393071e-12
4.4367929e-12
4.3405169e-12
4.2498399e-12
4.1642426e-12
4.0832909e-12
4.0064588e-12
3.9335093e-12
3.864015e-12
3.7975995e-12
3.7341382e-12
3.6733508e-12
3.6149593e-12
3.5588721e-12
3.5048965e-12
3.4527985e-12
3.4025044e-12
3.3539112e-12
3.3068474e-12
3.2612004e-12
3.216936e-12
3.1736974e-12
3.1314467e-12
3.0902945e-12
3.0502167e-12
3.0111349e-12
2.9729662e-12
2.9356726e-12
2.8992184e-12
2.8635331e-12
2.8285543e-12
2.7942592e-12
2.7606259e-12
2.7275934e-12
2.6951144e-12
2.6631687e-12
2.631751e-12
2.6008186e-12
2.5703171e-12
2.5402232e-12
2.5105474e-12
2.4812632e-12
2.4523118e-12
2.4236702e-12
2.395346e-12
2.3673315e-12
2.3395849e-12
2.3120699e-12
2.2847824e-12
2.2577343e-12
2.2308907e-12
2.2042019e-12
2.1776572e-12
2.1512794e-12
2.1250416e-12
2.0988672e-12
2.0727624e-12
2.0467557e-12
2.0208219e-12
1.9949081e-12
1.9689978e-12
1.9431129e-12
1.9172181e-12
1.8912561e-12
1.8652275e-12
1.8391361e-12
1.812933e-12
1.7865815e-12
1.7600951e-12
1.7334346e-12
1.7071131e-12
1.6819906e-12
1.6582426e-12
1.635579e-12
1.6140781e-12
1.5936713e-12
1.5742561e-12
1.5557329e-12
1.5380387e-12
1.5211324e-12
1.5049539e-12
1.4894316e-12
1.4745137e-12
1.4601723e-12
1.4463784e-12
1.4330901e-12
1.4202492e-12
1.4078334e-12
1.3957389e-12
1.3841102e-12
1.3722814e-12
1.3617738e-12
1.344772e-12
1.9259864e-07
1.6588777e-07
1.6172123e-07
1.5890816e-07
1.5666888e-07
1.5425778e-07
1.5174561e-07
1.4934738e-07
1.4716975e-07
1.4523488e-07
1.4353007e-07
1.4203215e-07
1.4071618e-07
1.3955821e-07
1.3853616e-07
1.3763004e-07
1.3682221e-07
1.3609629e-07
1.3544024e-07
1.3483564e-07
1.3428183e-07
1.3381432e-07
1.3320844e-07
7.2099787e-08
2.7305732e-13
3.1077357e-11
5.8442094e-11
6.5735305e-11
6.3995149e-11
6.0303446e-11
5.6945864e-11
5.410981e-11
5.165661e-11
4.9510738e-11
4.7621572e-11
4.5942174e-11
4.4393236e-11
4.2974172e-11
4.1672888e-11
4.0479443e-11
3.9382316e-11
3.8367096e-11
3.7423676e-11
3.6544575e-11
3.5720617e-11
3.4946745e-11
3.4217832e-11
3.3529711e-11
3.28789e-11
3.2261174e-11
3.1674634e-11
3.1115848e-11
3.0581793e-11
3.007147e-11
2.9582628e-11
2.9113034e-11
2.8661955e-11
2.822784e-11
2.7808812e-11
2.7404278e-11
2.7013412e-11
2.6634834e-11
2.6267642e-11
2.591156e-11
2.5563718e-11
2.5223813e-11
2.4892735e-11
2.4570291e-11
2.4255853e-11
2.3948751e-11
2.3648684e-11
2.3355363e-11
2.306822e-11
2.2786755e-11
2.2510786e-11
2.2240134e-11
2.1974312e-11
2.1712938e-11
2.1455849e-11
2.1203003e-11
2.0954058e-11
2.0708575e-11
2.0466367e-11
2.0227519e-11
1.9991818e-11
1.975879e-11
1.9528251e-11
1.9300262e-11
1.9074761e-11
1.8851412e-11
1.8629923e-11
1.8410261e-11
1.8192521e-11
1.7976424e-11
1.7761568e-11
1.7547868e-11
1.7335507e-11
1.712427e-11
1.6913538e-11
1.6703363e-11
1.6493973e-11
1.6285166e-11
1.6076516e-11
1.586789e-11
1.5659465e-11
1.5450956e-11
1.5241901e-11
1.5032305e-11
1.4822201e-11
1.4611191e-11
1.4398983e-11
1.4185684e-11
1.3970978e-11
1.3758999e-11
1.355667e-11
1.3365408e-11
1.3182876e-11
1.3009705e-11
1.2845343e-11
1.2688965e-11
1.253977e-11
1.2397249e-11
1.2261073e-11
1.2130757e-11
1.2005726e-11
1.1885561e-11
1.1770039e-11
1.1658926e-11
1.1551884e-11
1.1448445e-11
1.1348429e-11
1.1251001e-11
1.1157324e-11
1.1062035e-11
1.0977387e-11
1.0840422e-11
1.9259853e-07
1.658931e-07
1.6171365e-07
1.5889432e-07
1.5666019e-07
1.542591e-07
1.5175611e-07
1.4936468e-07
1.4719186e-07
1.4526043e-07
1.4355811e-07
1.4206201e-07
1.4074738e-07
1.3959039e-07
1.3856906e-07
1.3766346e-07
1.36856e-07
1.3613034e-07
1.3547447e-07
1.3486999e-07
1.3431635e-07
1.3384707e-07
1.3324742e-07
7.4846405e-08
1.1822389e-12
1.5065438e-10
2.8339068e-10
3.187384e-10
3.1042009e-10
2.9265741e-10
2.7648663e-10
2.6281603e-10
2.509812e-10
2.406221e-10
2.3149733e-10
2.2338196e-10
2.1589341e-10
2.0903018e-10
2.027345e-10
1.9695885e-10
1.9164786e-10
1.867321e-10
1.8216292e-10
1.7790432e-10
1.7391201e-10
1.7016167e-10
1.6662856e-10
1.6329261e-10
1.6013702e-10
1.5714139e-10
1.5429658e-10
1.5158601e-10
1.4899505e-10
1.4651891e-10
1.4414672e-10
1.4186766e-10
1.396782e-10
1.3757086e-10
1.3553654e-10
1.335724e-10
1.3167442e-10
1.2983594e-10
1.2805258e-10
1.2632303e-10
1.2463334e-10
1.2298204e-10
1.2137349e-10
1.1980677e-10
1.1827881e-10
1.1678639e-10
1.1532805e-10
1.1390239e-10
1.1250665e-10
1.1113841e-10
1.0979679e-10
1.0848093e-10
1.0718847e-10
1.0591754e-10
1.0466736e-10
1.0343775e-10
1.0222701e-10
1.0103305e-10
9.9854931e-11
9.8693089e-11
9.7546484e-11
9.6412815e-11
9.5291182e-11
9.4181888e-11
9.3084639e-11
9.1997794e-11
9.0919935e-11
8.9850905e-11
8.8791168e-11
8.7739366e-11
8.6693547e-11
8.565329e-11
8.4619495e-11
8.3591112e-11
8.2565132e-11
8.1541801e-11
8.0522235e-11
7.9505453e-11
7.8489375e-11
7.7473355e-11
7.6458256e-11
7.5442687e-11
7.4424403e-11
7.3403425e-11
7.2379908e-11
7.1351923e-11
7.0318037e-11
6.9278773e-11
6.8232591e-11
6.719963e-11
6.6213639e-11
6.5281525e-11
6.4391902e-11
6.3547858e-11
6.2746712e-11
6.1984448e-11
6.1257161e-11
6.0562382e-11
5.9898506e-11
5.9263175e-11
5.8653587e-11
5.8067699e-11
5.7504434e-11
5.6962644e-11
5.6440691e-11
5.5936289e-11
5.5448566e-11
5.4973449e-11
5.4516607e-11
5.4051902e-11
5.3639076e-11
5.2971074e-11
1.9259839e-07
1.6590023e-07
1.6170357e-07
1.5887585e-07
1.5664852e-07
1.5426078e-07
1.5177003e-07
1.493877e-07
1.4722132e-07
1.452945e-07
1.4359552e-07
1.4210188e-07
1.4078905e-07
1.3963339e-07
1.3861302e-07
1.3770813e-07
1.3690118e-07
1.3617588e-07
1.3552026e-07
1.3491595e-07
1.3436255e-07
1.3389084e-07
1.3329961e-07
7.772899e-08
3.8854832e-12
5.3934548e-10
1.0152975e-09
1.1419076e-09
1.1130743e-09
1.0505376e-09
9.9347896e-10
9.4515203e-10
9.0323891e-10
8.6649785e-10
8.3409578e-10
8.0524821e-10
7.7860011e-10
7.5415676e-10
7.3171819e-10
7.111194e-10
6.9216624e-10
6.7461344e-10
6.582895e-10
6.4306766e-10
6.28791e-10
6.1537386e-10
6.0272878e-10
5.9078467e-10
5.7948228e-10
5.6874911e-10
5.5855297e-10
5.4883487e-10
5.3954287e-10
5.3066009e-10
5.2214782e-10
5.1396761e-10
5.0610703e-10
4.9853936e-10
4.9123219e-10
4.8417548e-10
4.7735495e-10
4.7074678e-10
4.6433543e-10
4.5811629e-10
4.5203905e-10
4.4609863e-10
4.4031093e-10
4.3467268e-10
4.2917292e-10
4.2380011e-10
4.1854907e-10
4.1341485e-10
4.0838754e-10
4.0345844e-10
3.9862448e-10
3.9388262e-10
3.8922431e-10
3.8464289e-10
3.8013562e-10
3.7570181e-10
3.7133547e-10
3.6702894e-10
3.6277896e-10
3.585871e-10
3.5444964e-10
3.5035829e-10
3.463098e-10
3.4230529e-10
3.3834375e-10
3.3441923e-10
3.3052663e-10
3.2666539e-10
3.2283722e-10
3.1903721e-10
3.1525832e-10
3.1149902e-10
3.0776259e-10
3.0404524e-10
3.0033609e-10
2.9663602e-10
2.9294909e-10
2.8927175e-10
2.8559647e-10
2.8192091e-10
2.782482e-10
2.7457331e-10
2.7088811e-10
2.6719265e-10
2.6348752e-10
2.597657e-10
2.5602201e-10
2.5225832e-10
2.4846905e-10
2.4472715e-10
2.4115491e-10
2.3777742e-10
2.3455343e-10
2.3149426e-10
2.2859024e-10
2.2582687e-10
2.2319003e-10
2.206708e-10
2.182634e-10
2.159593e-10
2.1374838e-10
2.1162323e-10
2.0957998e-10
2.0761448e-10
2.057208e-10
2.0389067e-10
2.0212094e-10
2.0039683e-10
1.9873892e-10
1.9705244e-10
1.9555408e-10
1.9312936e-10
1.9259821e-07
1.6590933e-07
1.6169083e-07
1.5885234e-07
1.566335e-07
1.5426267e-07
1.5178751e-07
1.4941683e-07
1.4725873e-07
1.4533783e-07
1.4364315e-07
1.4215267e-07
1.4084218e-07
1.3968823e-07
1.3866912e-07
1.3776515e-07
1.3695887e-07
1.3623405e-07
1.3557876e-07
1.3497467e-07
1.344216e-07
1.3394665e-07
1.333665e-07
8.0756314e-08
1.0481983e-11
1.5702569e-09
2.960391e-09
3.3300803e-09
3.2514051e-09
3.07508e-09
2.9135061e-09
2.7761802e-09
2.6566746e-09
2.5516237e-09
2.4587688e-09
2.3759382e-09
2.299266e-09
2.2288255e-09
2.164072e-09
2.1045532e-09
2.0497259e-09
1.9988939e-09
1.9515729e-09
1.9074056e-09
1.865944e-09
1.8269466e-09
1.7901647e-09
1.7553962e-09
1.7224729e-09
1.6911871e-09
1.6614479e-09
1.6330859e-09
1.6059519e-09
1.5799986e-09
1.5551146e-09
1.5311891e-09
1.5081873e-09
1.486032e-09
1.4646295e-09
1.4439517e-09
1.4239572e-09
1.4045769e-09
1.3857665e-09
1.3675129e-09
1.3496678e-09
1.3322172e-09
1.3152091e-09
1.2986342e-09
1.2824606e-09
1.2666548e-09
1.2512022e-09
1.2360884e-09
1.2212844e-09
1.2067649e-09
1.1925212e-09
1.1785447e-09
1.1648102e-09
1.1512983e-09
1.1380012e-09
1.124917e-09
1.1120283e-09
1.0993124e-09
1.0867599e-09
1.0743757e-09
1.0621489e-09
1.050055e-09
1.0380845e-09
1.0262408e-09
1.0145212e-09
1.002908e-09
9.913862e-10
9.799542e-10
9.6861718e-10
9.5736067e-10
9.4616376e-10
9.35022e-10
9.2394518e-10
9.1292213e-10
9.0192052e-10
8.9094301e-10
8.8000165e-10
8.6908599e-10
8.5817361e-10
8.4725753e-10
8.3634711e-10
8.2542737e-10
8.1447409e-10
8.0348742e-10
7.9246905e-10
7.8139812e-10
7.7025909e-10
7.5905751e-10
7.477767e-10
7.366338e-10
7.2599327e-10
7.1593016e-10
7.0632169e-10
6.9720226e-10
6.8854341e-10
6.803022e-10
6.7243673e-10
6.6492061e-10
6.577368e-10
6.5086003e-10
6.442602e-10
6.3791538e-10
6.3181407e-10
6.2594404e-10
6.2028769e-10
6.1482037e-10
6.0953273e-10
6.0438079e-10
5.9942592e-10
5.9438539e-10
5.8990626e-10
5.8265675e-10
1.9259799e-07
1.6592064e-07
1.6167522e-07
1.5882328e-07
1.5661468e-07
1.542646e-07
1.5180874e-07
1.4945252e-07
1.4730474e-07
1.4539125e-07
1.4370198e-07
1.4221547e-07
1.4090791e-07
1.3975614e-07
1.3873863e-07
1.3783584e-07
1.3703041e-07
1.3630621e-07
1.3565135e-07
1.3504757e-07
1.3449494e-07
1.3401569e-07
1.3344997e-07
8.3934902e-08
2.4216044e-11
3.8984481e-09
7.368931e-09
8.2947377e-09
8.1213527e-09
7.7069106e-09
7.3243204e-09
6.997292e-09
6.711105e-09
6.4583709e-09
6.2341404e-09
6.0334694e-09
5.847078e-09
5.6753833e-09
5.5171852e-09
5.3714742e-09
5.2369905e-09
5.1120801e-09
4.9956016e-09
4.8867166e-09
4.7843503e-09
4.6879356e-09
4.5968805e-09
4.510703e-09
4.4290042e-09
4.3512827e-09
4.277325e-09
4.2067204e-09
4.1391073e-09
4.0743759e-09
4.0122556e-09
3.9524771e-09
3.8949588e-09
3.8395119e-09
3.7859075e-09
3.7340796e-09
3.6839273e-09
3.6352806e-09
3.588032e-09
3.5421521e-09
3.4972643e-09
3.453337e-09
3.4104969e-09
3.3687227e-09
3.3279347e-09
3.2880502e-09
3.2490347e-09
3.2108534e-09
3.1734335e-09
3.136712e-09
3.1006689e-09
3.0652834e-09
3.0304927e-09
2.9962473e-09
2.9625289e-09
2.9293345e-09
2.8966196e-09
2.8643272e-09
2.8324339e-09
2.8009533e-09
2.7698582e-09
2.7390864e-09
2.7086137e-09
2.6784501e-09
2.6485886e-09
2.6189848e-09
2.5896002e-09
2.5604312e-09
2.5314915e-09
2.5027444e-09
2.4741365e-09
2.4456564e-09
2.4173296e-09
2.3891278e-09
2.3609681e-09
2.3328572e-09
2.3048262e-09
2.2768486e-09
2.2488666e-09
2.2208623e-09
2.1928597e-09
2.1648204e-09
2.1366819e-09
2.1084444e-09
2.0801122e-09
2.0516314e-09
2.0229617e-09
1.994117e-09
1.9650542e-09
1.9363325e-09
1.9088926e-09
1.8829297e-09
1.858127e-09
1.8345768e-09
1.8122072e-09
1.7909085e-09
1.7705735e-09
1.7511349e-09
1.7325496e-09
1.714753e-09
1.6976679e-09
1.681238e-09
1.6654342e-09
1.6502253e-09
1.6355661e-09
1.6213933e-09
1.6076828e-09
1.5943212e-09
1.5814673e-09
1.56839e-09
1.5567652e-09
1.5379448e-09
1.9259771e-07
1.659344e-07
1.6165655e-07
1.5878811e-07
1.5659148e-07
1.5426632e-07
1.5183383e-07
1.4949526e-07
1.4736011e-07
1.4545571e-07
1.4377309e-07
1.422915e-07
1.4098759e-07
1.3983851e-07
1.3882301e-07
1.379217e-07
1.3711736e-07
1.3639395e-07
1.3573965e-07
1.3513626e-07
1.3458424e-07
1.3409933e-07
1.3355225e-07
8.726314e-08
4.9137628e-11
8.4458951e-09
1.6031872e-08
1.8078587e-08
1.7773859e-08
1.6948534e-08
1.6177804e-08
1.5513561e-08
1.4927484e-08
1.4406394e-08
1.394153e-08
1.3523541e-08
1.3133283e-08
1.27724e-08
1.2438763e-08
1.2130533e-08
1.1845253e-08
1.1579574e-08
1.1331217e-08
1.1098519e-08
1.0879273e-08
1.0672355e-08
1.0476564e-08
1.0290921e-08
1.0114622e-08
9.9466291e-09
9.7865192e-09
9.6334357e-09
9.4866254e-09
9.3458764e-09
9.2106226e-09
9.0802993e-09
8.9547475e-09
8.8335686e-09
8.7162784e-09
8.6027491e-09
8.4927669e-09
8.3859689e-09
8.2821336e-09
8.1812056e-09
8.0823421e-09
7.9854856e-09
7.8909367e-09
7.7986546e-09
7.7084657e-09
7.6201933e-09
7.5337694e-09
7.4491207e-09
7.3660876e-09
7.284534e-09
7.2044209e-09
7.125707e-09
7.048253e-09
6.9719506e-09
6.8967628e-09
6.8226874e-09
6.7496261e-09
6.677452e-09
6.6061154e-09
6.5356497e-09
6.465996e-09
6.3970154e-09
6.3286539e-09
6.2609364e-09
6.1938498e-09
6.1272941e-09
6.0611829e-09
5.9955094e-09
5.9303064e-09
5.8654917e-09
5.8009445e-09
5.7366393e-09
5.6726353e-09
5.608869e-09
5.5451522e-09
5.4815e-09
5.4179838e-09
5.3545434e-09
5.2910474e-09
5.2274542e-09
5.1638191e-09
5.1000544e-09
5.0360169e-09
4.971706e-09
4.9071314e-09
4.8421693e-09
4.7767261e-09
4.7108329e-09
4.6443894e-09
4.5786742e-09
4.5158436e-09
4.4563498e-09
4.3994674e-09
4.345421e-09
4.2940513e-09
4.245111e-09
4.198358e-09
4.1536407e-09
4.1108633e-09
4.0698803e-09
4.0305162e-09
3.9926436e-09
3.9561972e-09
3.9211072e-09
3.8872712e-09
3.8545443e-09
3.822872e-09
3.7919946e-09
3.7622777e-09
3.7320396e-09
3.705145e-09
3.6615827e-09
1.9259737e-07
1.6595091e-07
1.6163461e-07
1.5874622e-07
1.5656327e-07
1.5426749e-07
1.5186287e-07
1.4954549e-07
1.474256e-07
1.4553224e-07
1.4385771e-07
1.4238212e-07
1.4108267e-07
1.3993693e-07
1.3892391e-07
1.3802444e-07
1.3722147e-07
1.3649908e-07
1.3584551e-07
1.3524262e-07
1.3469142e-07
1.3419949e-07
1.336756e-07
9.0725528e-08
8.9089038e-11
1.6163547e-08
3.0888361e-08
3.4967177e-08
3.4566814e-08
3.3162434e-08
3.1828621e-08
3.0666738e-08
2.9630392e-08
2.8700673e-08
2.7865317e-08
2.7109581e-08
2.6399009e-08
2.5738607e-08
2.5125419e-08
2.455674e-08
2.4028514e-08
2.3534888e-08
2.3071975e-08
2.2636968e-08
2.2225942e-08
2.1837009e-08
2.1468072e-08
2.1117421e-08
2.0783672e-08
2.0464958e-08
2.0160574e-08
1.9868965e-08
1.9588772e-08
1.9319655e-08
1.9060582e-08
1.8810527e-08
1.8569232e-08
1.8335959e-08
1.8109818e-08
1.7890605e-08
1.7677922e-08
1.7471092e-08
1.7269722e-08
1.7073731e-08
1.6881428e-08
1.6692735e-08
1.6508303e-08
1.6328066e-08
1.6151692e-08
1.597885e-08
1.5809428e-08
1.5643293e-08
1.5480135e-08
1.5319695e-08
1.5161912e-08
1.5006716e-08
1.4853835e-08
1.4703056e-08
1.4554318e-08
1.4407628e-08
1.4262794e-08
1.4119565e-08
1.3977847e-08
1.3837717e-08
1.3699061e-08
1.3561604e-08
1.3425238e-08
1.3290019e-08
1.3155929e-08
1.3022766e-08
1.2890357e-08
1.2758692e-08
1.2627842e-08
1.2497643e-08
1.236785e-08
1.2238412e-08
1.2109453e-08
1.1980846e-08
1.1852209e-08
1.172357e-08
1.1595078e-08
1.146661e-08
1.1337898e-08
1.1208855e-08
1.1079594e-08
1.0949936e-08
1.0819585e-08
1.0688538e-08
1.0556814e-08
1.0424156e-08
1.0290368e-08
1.0155511e-08
1.0019375e-08
9.8845775e-09
9.755554e-09
9.6332486e-09
9.516166e-09
9.4048112e-09
9.2988731e-09
9.1978563e-09
9.1012715e-09
9.0088162e-09
8.9203026e-09
8.8354382e-09
8.7538666e-09
8.6753305e-09
8.5997003e-09
8.5268376e-09
8.4565345e-09
8.3884947e-09
8.3226077e-09
8.2583403e-09
8.1964491e-09
8.1334594e-09
8.0773871e-09
7.9865015e-09
1.9259695e-07
1.659705e-07
1.6160922e-07
1.5869694e-07
1.5652929e-07
1.5426764e-07
1.5189584e-07
1.4960366e-07
1.4750201e-07
1.4562189e-07
1.4395713e-07
1.424888e-07
1.4119479e-07
1.4005312e-07
1.3904316e-07
1.3814598e-07
1.3734472e-07
1.366236e-07
1.3597097e-07
1.3536873e-07
1.3481863e-07
1.3431846e-07
1.3382243e-07
9.4285703e-08
1.4094611e-10
2.7591298e-08
5.331004e-08
6.0786585e-08
6.049511e-08
5.843192e-08
5.6423523e-08
5.4651167e-08
5.3049069e-08
5.1596055e-08
5.0279363e-08
4.9079615e-08
4.7941541e-08
4.687761e-08
4.58849e-08
4.4960273e-08
4.4097969e-08
4.328902e-08
4.2527671e-08
4.180984e-08
4.1129396e-08
4.0483614e-08
3.9869304e-08
3.928386e-08
3.8725215e-08
3.8190424e-08
3.7678482e-08
3.7186904e-08
3.6713534e-08
3.6257924e-08
3.5818418e-08
3.5393374e-08
3.4982445e-08
3.4584426e-08
3.4197873e-08
3.382252e-08
3.3457715e-08
3.3102335e-08
3.2755781e-08
3.2417963e-08
3.2085808e-08
3.1759261e-08
3.1439601e-08
3.1126758e-08
3.0820152e-08
3.0519237e-08
3.0223868e-08
2.9933833e-08
2.964859e-08
2.9367702e-08
2.9091095e-08
2.8818671e-08
2.8549955e-08
2.8284571e-08
2.8022435e-08
2.776359e-08
2.7507694e-08
2.7254302e-08
2.700326e-08
2.6754724e-08
2.6508504e-08
2.6264105e-08
2.6021334e-08
2.5780308e-08
2.5541007e-08
2.5303069e-08
2.5066181e-08
2.483033e-08
2.4595654e-08
2.4361862e-08
2.4128508e-08
2.3895498e-08
2.3663065e-08
2.3430984e-08
2.3198554e-08
2.2965824e-08
2.2733067e-08
2.2500062e-08
2.2266312e-08
2.2031654e-08
2.1796295e-08
2.1559906e-08
2.1321936e-08
2.108237e-08
2.084124e-08
2.0598068e-08
2.0352478e-08
2.0104575e-08
1.9853959e-08
1.9605445e-08
1.9367237e-08
1.9141107e-08
1.8924268e-08
1.8717773e-08
1.8521087e-08
1.8333322e-08
1.8153595e-08
1.7981368e-08
1.7816315e-08
1.7657911e-08
1.7505508e-08
1.735864e-08
1.721708e-08
1.7080584e-08
1.6948773e-08
1.6821104e-08
1.6697377e-08
1.6576607e-08
1.6460203e-08
1.6341707e-08
1.6236101e-08
1.6064771e-08
1.9259645e-07
1.6599352e-07
1.6158023e-07
1.5863959e-07
1.5648868e-07
1.5426618e-07
1.5193263e-07
1.496701e-07
1.4759009e-07
1.4572577e-07
1.4407269e-07
1.426131e-07
1.4132567e-07
1.4018896e-07
1.3918273e-07
1.3828838e-07
1.3748926e-07
1.3676975e-07
1.3611832e-07
1.3551694e-07
1.3496826e-07
1.3445902e-07
1.3399529e-07
9.7902349e-08
2.0234802e-10
4.1125785e-08
8.3540657e-08
9.6396437e-08
9.6692765e-08
9.4045605e-08
9.1367564e-08
8.8966308e-08
8.6760263e-08
8.4733422e-08
8.2878791e-08
8.1175415e-08
7.9541908e-08
7.8005111e-08
7.6563919e-08
7.521574e-08
7.395338e-08
7.2764473e-08
7.1641467e-08
7.0579139e-08
6.9568874e-08
6.8607236e-08
6.7689894e-08
6.6813297e-08
6.5974715e-08
6.5169975e-08
6.4397833e-08
6.3654702e-08
6.2937531e-08
6.2245836e-08
6.157721e-08
6.0929311e-08
6.0301754e-08
5.9692751e-08
5.9100199e-08
5.8523843e-08
5.7962699e-08
5.7415083e-08
5.6880205e-08
5.6358015e-08
5.5843335e-08
5.5336243e-08
5.483908e-08
5.4351798e-08
5.3873484e-08
5.3403325e-08
5.2941178e-08
5.2486748e-08
5.2039169e-08
5.1597773e-08
5.1162507e-08
5.0733258e-08
5.0309269e-08
4.9889936e-08
4.9475171e-08
4.9065087e-08
4.8659145e-08
4.8256619e-08
4.7857283e-08
4.7461426e-08
4.706876e-08
4.6678479e-08
4.6290269e-08
4.5904347e-08
4.5520703e-08
4.5138748e-08
4.4757965e-08
4.4378345e-08
4.4000132e-08
4.3622854e-08
4.3245776e-08
4.286874e-08
4.2492142e-08
4.2115621e-08
4.1738013e-08
4.1359393e-08
4.0980212e-08
4.060011e-08
4.0218256e-08
3.9834366e-08
3.9448784e-08
3.906096e-08
3.8669967e-08
3.827576e-08
3.7878385e-08
3.7477035e-08
3.7071058e-08
3.6660609e-08
3.6244999e-08
3.5832199e-08
3.543588e-08
3.5059037e-08
3.4696921e-08
3.4351576e-08
3.4022186e-08
3.3707325e-08
3.3405561e-08
3.3116033e-08
3.2838239e-08
3.2571337e-08
3.2314264e-08
3.2066263e-08
3.1826977e-08
3.1596022e-08
3.1372784e-08
3.115636e-08
3.0946424e-08
3.0741344e-08
3.0543479e-08
3.0342028e-08
3.016223e-08
2.9870219e-08
1.9259585e-07
1.6602035e-07
1.6154753e-07
1.5857349e-07
1.5644047e-07
1.5426234e-07
1.5197293e-07
1.4974505e-07
1.4769052e-07
1.4584491e-07
1.4420576e-07
1.4275664e-07
1.4147712e-07
1.4034641e-07
1.3934476e-07
1.3845389e-07
1.3765742e-07
1.3693994e-07
1.3629005e-07
1.3568977e-07
1.3514296e-07
1.3462386e-07
1.3419745e-07
1.0160338e-07
2.7818485e-10
5.5428456e-08
1.1793015e-07
1.4154463e-07
1.4345338e-07
1.4048939e-07
1.3728007e-07
1.3433896e-07
1.3157973e-07
1.2900327e-07
1.2661822e-07
1.2440776e-07
1.2225801e-07
1.2022157e-07
1.1830196e-07
1.1649866e-07
1.1480365e-07
1.1320121e-07
1.1168236e-07
1.1024111e-07
1.088663e-07
1.0755408e-07
1.0629908e-07
1.0509686e-07
1.0394415e-07
1.028355e-07
1.0176956e-07
1.0074153e-07
9.9747448e-08
9.8786915e-08
9.7856691e-08
9.6953706e-08
9.6077633e-08
9.5225993e-08
9.4395981e-08
9.358746e-08
9.2799045e-08
9.2028397e-08
9.1274595e-08
9.0537708e-08
8.980945e-08
8.9090242e-08
8.8384135e-08
8.7691165e-08
8.7009985e-08
8.6339479e-08
8.5679578e-08
8.5029904e-08
8.4389177e-08
8.3756449e-08
8.3131739e-08
8.2514952e-08
8.1904974e-08
8.1300899e-08
8.0702661e-08
8.0110512e-08
7.9523653e-08
7.8940994e-08
7.8362231e-08
7.7787852e-08
7.7217454e-08
7.6649834e-08
7.608451e-08
7.5521846e-08
7.4961874e-08
7.4403703e-08
7.3846549e-08
7.3290412e-08
7.273569e-08
7.2181682e-08
7.1627273e-08
7.1072218e-08
7.0517134e-08
6.9961491e-08
6.9403524e-08
6.8843327e-08
6.8281588e-08
6.7717772e-08
6.71506e-08
6.6579627e-08
6.6005373e-08
6.5427002e-08
6.4843083e-08
6.4253519e-08
6.3658375e-08
6.3056401e-08
6.2446568e-08
6.182908e-08
6.1202859e-08
6.0579879e-08
5.9980841e-08
5.9410288e-08
5.8860708e-08
5.8335828e-08
5.7834527e-08
5.7354723e-08
5.6894301e-08
5.6452008e-08
5.602715e-08
5.5618495e-08
5.522446e-08
5.4843924e-08
5.4476381e-08
5.4121288e-08
5.3777732e-08
5.3444356e-08
5.3120672e-08
5.2804236e-08
5.2498604e-08
5.2187465e-08
5.1909305e-08
5.1457051e-08
1.9259513e-07
1.660514e-07
1.6151109e-07
1.5849798e-07
1.5638361e-07
1.5425517e-07
1.5201625e-07
1.4982854e-07
1.4780384e-07
1.4598029e-07
1.4435764e-07
1.4292101e-07
1.4165099e-07
1.4052754e-07
1.3953146e-07
1.3864487e-07
1.378517e-07
1.3713677e-07
1.3648884e-07
1.3588998e-07
1.3534557e-07
1.3481576e-07
1.3443267e-07
1.0541444e-07
3.6935364e-10
7.1575191e-08
1.557768e-07
1.9146731e-07
1.9737194e-07
1.9527943e-07
1.9239623e-07
1.8962203e-07
1.8687881e-07
1.8421388e-07
1.8168316e-07
1.7929492e-07
1.7664913e-07
1.7412209e-07
1.7172655e-07
1.6946627e-07
1.6733354e-07
1.6530957e-07
1.6338462e-07
1.6155256e-07
1.597998e-07
1.5812255e-07
1.5651459e-07
1.5497079e-07
1.5348753e-07
1.5205813e-07
1.5068132e-07
1.4935102e-07
1.480624e-07
1.4681532e-07
1.4560564e-07
1.4442958e-07
1.4328702e-07
1.4217467e-07
1.4108901e-07
1.400302e-07
1.3899636e-07
1.379844e-07
1.3699339e-07
1.3602364e-07
1.3506215e-07
1.3411013e-07
1.3317435e-07
1.3225503e-07
1.3135029e-07
1.3045866e-07
1.2958026e-07
1.2871465e-07
1.2786003e-07
1.2701511e-07
1.2618007e-07
1.2535489e-07
1.24538e-07
1.2372812e-07
1.2292525e-07
1.2212986e-07
1.2134084e-07
1.2055664e-07
1.1977688e-07
1.1900232e-07
1.1823245e-07
1.1746557e-07
1.1670098e-07
1.1593926e-07
1.1518051e-07
1.1442348e-07
1.1366705e-07
1.1291123e-07
1.1215664e-07
1.114023e-07
1.1064664e-07
1.0988929e-07
1.0913116e-07
1.0837153e-07
1.0760791e-07
1.068404e-07
1.0606998e-07
1.0529591e-07
1.0451639e-07
1.0373074e-07
1.0293972e-07
1.0214215e-07
1.0133599e-07
1.0052105e-07
9.9697441e-08
9.8863374e-08
9.8017347e-08
9.715962e-08
9.6288633e-08
9.5420987e-08
9.4585596e-08
9.3788703e-08
9.3019e-08
9.2282974e-08
9.1579213e-08
9.09049e-08
9.0257131e-08
8.9634215e-08
8.9035264e-08
8.8458608e-08
8.7902061e-08
8.7364084e-08
8.684401e-08
8.6341131e-08
8.5854194e-08
8.5381314e-08
8.4921806e-08
8.4472321e-08
8.4037741e-08
8.3595549e-08
8.3199513e-08
8.2555012e-08
1.9259428e-07
1.6608707e-07
1.6147098e-07
1.5841245e-07
1.5631692e-07
1.5424346e-07
1.5206179e-07
1.4992034e-07
1.4793037e-07
1.461327e-07
1.4452955e-07
1.4310776e-07
1.4184912e-07
1.4073443e-07
1.3974511e-07
1.3886377e-07
1.3807469e-07
1.3736296e-07
1.3671755e-07
1.3612052e-07
1.3557916e-07
1.3503774e-07
1.3470513e-07
1.0929582e-07
4.7685351e-10
8.9458635e-08
1.98226e-07
2.4962972e-07
2.607735e-07
2.5968508e-07
2.5696863e-07
2.541486e-07
2.5120022e-07
2.4822506e-07
2.4533049e-07
2.4255245e-07
2.3972206e-07
2.3697386e-07
2.3434332e-07
2.3184445e-07
2.2947319e-07
2.2720973e-07
2.2504613e-07
2.2297855e-07
2.2099245e-07
2.1908573e-07
2.1725238e-07
2.1548735e-07
2.1378763e-07
2.1214598e-07
2.1056181e-07
2.0902802e-07
2.0753952e-07
2.0609691e-07
2.0469525e-07
2.0333054e-07
2.0200322e-07
2.0070913e-07
1.9944431e-07
1.9820978e-07
1.9700302e-07
1.9582012e-07
1.9466067e-07
1.9352563e-07
1.9234699e-07
1.9114754e-07
1.8996738e-07
1.8880706e-07
1.87664e-07
1.8653638e-07
1.8542462e-07
1.8432825e-07
1.8324484e-07
1.8217273e-07
1.8111233e-07
1.8006374e-07
1.790249e-07
1.7799405e-07
1.7697128e-07
1.7595741e-07
1.7495095e-07
1.7394981e-07
1.7295351e-07
1.7196319e-07
1.7097824e-07
1.6999636e-07
1.690166e-07
1.6803978e-07
1.6706618e-07
1.6609409e-07
1.6512197e-07
1.641499e-07
1.6317875e-07
1.6220725e-07
1.6123327e-07
1.6025631e-07
1.5927765e-07
1.5829637e-07
1.573091e-07
1.5631596e-07
1.553183e-07
1.5431518e-07
1.5330414e-07
1.5228427e-07
1.5125659e-07
1.5021957e-07
1.4917043e-07
1.4810892e-07
1.4703518e-07
1.4594684e-07
1.4484182e-07
1.4372048e-07
1.4258069e-07
1.4144412e-07
1.4034872e-07
1.3930235e-07
1.3828834e-07
1.3731775e-07
1.3638891e-07
1.3549821e-07
1.3464188e-07
1.3381773e-07
1.330247e-07
1.3226064e-07
1.315227e-07
1.3080888e-07
1.3011834e-07
1.2945021e-07
1.2880287e-07
1.2817384e-07
1.2756221e-07
1.2696371e-07
1.2638453e-07
1.2579579e-07
1.252675e-07
1.244072e-07
1.9259328e-07
1.6612779e-07
1.6142737e-07
1.5831643e-07
1.5623919e-07
1.5422579e-07
1.5210843e-07
1.5001991e-07
1.4807015e-07
1.4630271e-07
1.4472251e-07
1.433183e-07
1.4207323e-07
1.4096908e-07
1.3998797e-07
1.3911306e-07
1.3832905e-07
1.3762133e-07
1.3697911e-07
1.3638444e-07
1.3584693e-07
1.3529303e-07
1.3501936e-07
1.1319234e-07
6.0212842e-10
1.097733e-07
2.4411427e-07
3.1603302e-07
3.3520482e-07
3.361862e-07
3.3409721e-07
3.3150432e-07
3.2852506e-07
3.253454e-07
3.2214622e-07
3.1900636e-07
3.1581731e-07
3.1267362e-07
3.0963399e-07
3.0672523e-07
3.0394851e-07
3.0128289e-07
2.9872225e-07
2.9626516e-07
2.9389584e-07
2.9161368e-07
2.8941269e-07
2.8728798e-07
2.8523703e-07
2.8325164e-07
2.8133214e-07
2.7946993e-07
2.7765928e-07
2.7590177e-07
2.7419137e-07
2.7252347e-07
2.7089927e-07
2.6931355e-07
2.6776149e-07
2.6624503e-07
2.6476108e-07
2.6330456e-07
2.618754e-07
2.604753e-07
2.5907843e-07
2.5768727e-07
2.5631698e-07
2.5496913e-07
2.5364011e-07
2.5232767e-07
2.5103306e-07
2.4975601e-07