/*--------------------------------*- C++ -*----------------------------------*\
  =========                 |
  \\      /  F ield         | OpenFOAM: The Open Source CFD Toolbox
   \\    /   O peration     | Website:  https://openfoam.org
    \\  /    A nd           | Version:  12
     \\/     M anipulation  |
\*---------------------------------------------------------------------------*/
FoamFile
{
    format      ascii;
    class       volScalarField;
    location    "1700";
    object      omega;
}
// * * * * * * * * * * * * * * * * * * * * * * * * * * * * * * * * * * * * * //

dimensions      [0 0 -1 0 0 0 0];

internalField   nonuniform List<scalar> 
7480
(
99.668428
99.668428
99.668428
99.668428
99.668428
99.668428
99.668428
99.668428
99.668428
99.668428
99.668428
99.668428
99.668428
425.17329
681.4121
848.44814
946.61927
996.85042
1022.6635
1021.7513
1016.28
1006.0567
993.35071
979.75722
965.81463
951.79703
937.96929
924.70808
912.40374
900.91561
890.25827
880.4988
871.68162
863.80508
856.82265
850.65938
845.21714
840.40101
836.1478
832.41026
829.12128
826.19885
823.5699
821.16071
818.94003
816.8115
814.75588
812.74027
810.73219
808.71015
806.65058
804.52519
802.31531
800.01971
797.65092
795.22645
792.76329
790.27888
787.78891
785.30367
782.82825
780.36523
777.91805
775.49259
773.09461
770.72735
768.39395
766.09679
763.83367
761.59867
759.38739
757.1994
755.03593
752.89773
750.78669
748.70485
746.65037
744.61905
742.60818
740.61778
738.64891
736.70331
734.7823
732.88407
731.00501
729.14395
727.30096
725.47744
723.67481
721.89113
720.12349
718.37109
716.63458
714.91308
713.20866
711.50499
709.83567
708.06714
706.5673
703.81875
24.729579
24.769799
24.830725
24.899379
24.972448
25.049214
25.129043
25.21212
25.297591
25.392396
25.466461
25.679243
25.297892
27.770759
39.052185
67.463536
115.63567
179.13689
251.76781
316.42438
363.37644
394.72728
415.47304
429.71427
438.53608
441.28508
439.30851
434.22361
429.55177
428.3216
429.82885
432.58227
435.26542
436.99739
437.3219
436.11282
433.48132
429.71108
425.27614
420.42013
414.94511
408.90179
402.61164
396.27995
390.01705
383.9177
378.06106
372.50347
367.26879
362.3498
357.79816
353.60444
349.74672
346.20287
342.94935
339.95496
337.18599
334.60788
332.17278
329.85784
327.65501
325.55853
323.55782
321.64191
319.80329
318.03563
316.33321
314.68501
313.08037
311.51586
309.99272
308.51278
307.07664
305.68297
304.33002
303.01409
301.72997
300.47445
299.24776
298.05089
296.884
295.74662
294.63601
293.54918
292.48422
291.44113
290.42069
289.42271
288.44554
287.48727
286.54635
285.62277
284.71722
283.82839
282.95588
282.0951
281.2559
280.40796
279.66647
278.40846
24.644346
24.494645
24.343578
24.190463
24.035117
23.877512
23.717661
23.555588
23.391318
23.22491
23.05633
22.885894
22.713299
22.538656
22.395533
22.573093
23.517356
25.952019
30.627194
38.729165
50.895292
66.746941
85.593173
106.43857
129.01604
149.50955
167.06015
181.95739
195.10423
208.06606
222.72356
237.04198
248.93205
258.23457
265.13044
269.75859
272.12898
272.06472
269.65677
265.68423
261.70198
258.24811
255.00484
251.73797
248.38843
245.10204
241.70758
238.14147
234.4784
230.77822
227.11415
223.58775
220.25562
217.13381
214.21001
211.46199
208.8751
206.44117
204.17775
202.07468
200.11391
198.27597
196.54253
194.90114
193.34372
191.86244
190.44863
189.08867
187.7749
186.50811
185.28941
184.11725
182.98896
181.90198
180.85438
179.84094
178.85598
177.89814
176.96856
176.06791
175.19553
174.35077
173.53014
172.73019
171.94984
171.18964
170.45011
169.73137
169.03117
168.34722
167.67861
167.02557
166.38873
165.76708
165.15938
164.56321
163.98363
163.40256
162.91086
162.04429
24.638758
24.4801
24.31887
24.154929
23.988294
23.818979
23.646999
23.472375
23.295126
23.115278
22.932858
22.747912
22.560465
22.37075
22.178589
21.985566
21.792092
21.605592
21.446499
21.361831
21.413487
21.666561
22.181065
23.046378
24.280823
26.362909
29.465549
33.707833
39.216963
46.150665
54.847118
65.558565
78.788581
93.076995
107.96706
123.28832
138.99637
155.08392
168.34411
177.82527
184.18076
188.17796
190.25522
190.67805
189.69187
187.54598
185.15869
182.81309
180.43798
177.91118
175.24275
172.59641
169.86941
167.11589
164.37409
161.67081
159.04714
156.53144
154.15115
151.91311
149.80578
147.81757
145.94328
144.17952
142.51656
140.94146
139.43984
138.01284
136.66176
135.38144
134.16422
133.0027
131.89188
130.82843
129.80894
128.82737
127.88016
126.96776
126.09035
125.24653
124.43419
123.65187
122.89521
122.1613
121.45003
120.76188
120.09662
119.4538
118.83038
118.22415
117.63474
117.06244
116.50756
115.96869
115.44424
114.93253
114.43766
113.94395
113.53579
112.80637
24.638339
24.479117
24.317338
24.152855
23.985639
23.815688
23.64301
23.467616
23.28952
23.108738
22.925289
22.739193
22.550476
22.359109
22.165275
21.967948
21.767417
21.564484
21.361236
21.15669
20.951315
20.746491
20.541769
20.338756
20.139866
19.950508
19.778297
19.636355
19.541515
19.515946
19.589792
19.814659
20.232162
21.156535
22.793091
25.369922
29.194027
34.729012
42.428208
53.06822
66.330313
80.937545
96.394649
112.7381
126.28291
135.82389
141.92415
145.36317
146.82826
146.86088
145.8529
144.28298
142.5715
140.73249
138.71468
136.54584
134.37787
132.15786
129.91229
127.66978
125.46528
123.3373
121.31443
119.39564
117.56468
115.81155
114.13398
112.54081
111.03722
109.61711
108.26959
106.98804
105.76887
104.60787
103.49786
102.43889
101.43211
100.47377
99.559285
98.684416
97.846045
97.041683
96.267556
95.522392
94.806095
94.117841
93.456088
92.819474
92.204529
91.609753
91.035105
90.480431
89.945397
89.42799
88.926622
88.440021
87.972189
87.5068
87.128039
86.448622
24.638306
24.479021
24.317175
24.152626
23.985344
23.81533
23.642592
23.467142
23.288995
23.10817
22.924686
22.738569
22.549849
22.358563
22.16476
21.968477
21.76975
21.5686
21.365039
21.158906
20.949771
20.736907
20.521786
20.304909
20.086662
19.867417
19.648296
19.428547
19.208092
18.987279
18.767297
18.547569
18.328439
18.111914
17.902258
17.707037
17.541231
17.430315
17.424189
17.57351
18.098693
19.343835
21.649727
25.563218
31.718848
41.238407
54.040546
68.445632
84.010128
97.771945
107.84202
114.18673
117.6625
119.07873
119.14928
118.35868
117.15806
115.78232
114.25506
112.57056
110.79738
109.00832
107.19645
105.36495
103.52837
101.72292
99.981275
98.308308
96.696223
95.143071
93.653633
92.23367
90.881879
89.592261
88.357952
87.180754
86.06446
85.00573
83.998207
83.037184
82.119784
81.241803
80.405265
79.608875
78.849306
78.123213
77.427828
76.760805
76.119741
75.504028
74.913023
74.345527
73.800265
73.274861
72.76816
72.279065
71.811391
71.347271
70.972463
70.302981
24.638312
24.47902
24.317163
24.152603
23.98531
23.815285
23.642534
23.46707
23.28891
23.10807
22.924571
22.738439
22.549706
22.358416
22.164619
21.968372
21.769732
21.568758
21.365499
21.159998
20.952296
20.7424
20.530348
20.316186
20.09997
19.881743
19.661551
19.43938
19.215116
18.988654
18.759311
18.528372
18.296445
18.063874
17.831017
17.598666
17.367304
17.136235
16.905867
16.678046
16.452338
16.231894
16.026062
15.852852
15.765538
15.830448
16.30435
17.607601
20.264755
24.944594
32.860167
44.454972
57.821276
72.323629
84.03449
92.106012
96.832125
99.056865
99.686262
99.380783
98.54858
97.504567
96.287017
94.947241
93.518275
92.085233
90.624096
89.127335
87.597349
86.066513
84.570551
83.120994
81.713432
80.346753
79.027977
77.76132
76.547094
75.384414
74.27258
73.211243
72.198764
71.230483
70.307704
69.43131
68.598184
67.803957
67.045586
66.319738
65.628926
64.970942
64.342815
63.74201
63.166289
62.613835
62.0842
61.575812
61.091857
60.612688
60.226722
59.543766
24.638327
24.479034
24.317178
24.152617
23.985322
23.815295
23.642542
23.467076
23.288914
23.108073
22.924575
22.738444
22.549714
22.358426
22.16463
21.96838
21.769731
21.568741
21.365465
21.159962
20.952287
20.742505
20.530679
20.31687
20.101141
19.883558
19.66418
19.443073
19.2203
18.995927
18.769994
18.542566
18.313729
18.083574
17.852188
17.619642
17.385975
17.151083
16.91478
16.675977
16.436624
16.197513
15.959347
15.723982
15.490052
15.258456
15.031151
14.811378
14.61083
14.469937
14.460867
14.821499
16.010781
18.649836
23.412588
32.211494
43.525672
56.498105
68.158841
76.60942
81.764825
84.274295
85.032719
84.881797
84.260377
83.44254
82.46759
81.38075
80.215655
79.037403
77.823031
76.565586
75.273583
73.976221
72.702808
71.454037
70.224741
69.021406
67.855227
66.731341
65.649629
64.609243
63.610064
62.654483
61.742107
60.871029
60.039907
59.245553
58.489333
57.770507
57.086236
56.433472
55.80922
55.214335
54.648311
54.107623
53.594511
53.087701
52.679656
51.966551
24.638344
24.479054
24.317199
24.152639
23.985345
23.815318
23.642565
23.4671
23.288939
23.108099
22.924602
22.738475
22.549748
22.358465
22.164674
21.968429
21.769785
21.568798
21.365523
21.160016
20.952333
20.742534
20.53068
20.316836
20.101072
19.883459
19.664072
19.442987
19.220285
18.996048
18.770365
18.543324
18.315011
18.08551
17.854911
17.623299
17.390758
17.157373
16.923231
16.68837
16.452866
16.216816
15.98029
15.743355
15.505845
15.267099
15.02673
14.78683
14.549407
14.315482
14.084011
13.858228
13.64079
13.44312
13.321855
13.353434
13.951648
15.656121
19.098451
25.864808
35.798544
47.556341
58.430204
66.265571
70.959214
73.125893
73.714437
73.544839
73.017192
72.334804
71.507821
70.583767
69.604234
68.608795
67.581128
66.509621
65.405549
64.294775
63.191994
62.099002
61.020315
59.966375
58.941124
57.945762
56.982624
56.055405
55.166053
54.313221
53.49509
52.713462
51.968003
51.25685
50.577624
49.930762
49.316032
48.730235
48.175311
47.628967
47.189622
46.432268
24.638363
24.479075
24.317222
24.152664
23.985371
23.815345
23.642594
23.46713
23.28897
23.108132
22.924639
22.738515
22.549794
22.358517
22.164732
21.968493
21.769854
21.568869
21.365596
21.160089
20.952405
20.742603
20.530744
20.316893
20.10112
19.883494
19.664089
19.442983
19.220255
18.995988
18.770267
18.54318
18.314817
18.085272
17.854638
17.623013
17.390494
17.157184
16.923184
16.688605
16.453549
16.218117
15.982405
15.746502
15.510494
15.274452
15.038407
14.802415
14.566571
14.330781
14.094858
13.856645
13.6191
13.385173
13.15531
12.928841
12.709857
12.502868
12.340992
12.293764
12.680556
14.040699
16.991887
23.24152
32.480601
43.547391
53.048428
59.522175
63.046767
64.486846
64.725665
64.449809
63.942118
63.319765
62.57936
61.775884
60.945041
60.08715
59.186299
58.245001
57.284212
56.323333
55.362851
54.403198
53.453979
52.524296
51.617929
50.737382
49.883722
49.059853
48.267431
47.50745
46.780055
46.083884
45.419004
44.784474
44.183264
43.592901
43.114692
42.299144
24.638383
24.479098
24.317247
24.152691
23.9854
23.815375
23.642626
23.467164
23.289005
23.10817
22.92468
22.738561
22.549846
22.358576
22.164798
21.968565
21.769931
21.568951
21.36568
21.160174
20.95249
20.742687
20.530827
20.316975
20.101199
19.883571
19.664163
19.443054
19.220321
18.996048
18.770319
18.543222
18.314847
18.085285
17.85463
17.62298
17.390434
17.15709
16.923053
16.688426
16.453314
16.217825
15.982065
15.746143
15.510167
15.274248
15.038502
14.803031
14.567931
14.333278
14.09916
13.865567
13.632518
13.400124
13.16824
12.936314
12.702817
12.471198
12.245367
12.022661
11.80801
11.603234
11.436513
11.375835
11.76379
13.178007
16.271662
23.167185
32.398084
42.344967
50.002687
54.6612
56.759401
57.391213
57.298456
56.922344
56.423014
55.83182
55.167263
54.463124
53.738645
52.976539
52.172808
51.340952
50.499313
49.650419
48.796191
47.946785
47.10896
46.285548
45.480231
44.698154
43.942648
43.213195
42.510735
41.836241
41.194545
40.563907
40.048053
39.170176
24.638405
24.479122
24.317274
24.152719
23.98543
23.815407
23.642659
23.467199
23.289043
23.108211
22.924724
22.738611
22.549902
22.358639
22.164868
21.968642
21.770014
21.569038
21.365769
21.160264
20.95258
20.742777
20.530915
20.317061
20.101283
19.883651
19.664241
19.443128
19.220392
18.996116
18.770384
18.543284
18.314906
18.085341
17.854683
17.62303
17.39048
17.157132
16.923089
16.688455
16.453332
16.217829
15.98205
15.746104
15.510099
15.274142
15.038343
14.802811
14.567654
14.33298
14.098896
13.865518
13.632951
13.401278
13.170566
12.94088
12.712178
12.484501
12.257793
12.032119
11.804201
11.577956
11.358276
11.141895
10.934473
10.737127
10.588305
10.567401
11.180741
12.944254
17.19394
24.770405
34.427412
42.543874
47.871382
50.325108
51.218418
51.276942
50.997551
50.583072
50.092582
49.528041
48.926871
48.307728
47.653189
46.956356
46.227938
45.486352
44.734253
43.972404
43.209452
42.453099
41.707783
40.976367
40.262578
39.568888
38.902323
38.242695
37.69949
36.768393
24.638429
24.479148
24.317302
24.152749
23.985463
23.815442
23.642695
23.467237
23.289084
23.108254
22.924772
22.738664
22.549962
22.358706
22.164943
21.968723
21.770101
21.569129
21.365863
21.16036
20.952676
20.742872
20.531009
20.317153
20.101372
19.883738
19.664324
19.443208
19.220469
18.99619
18.770454
18.543351
18.314969
18.085401
17.854741
17.623085
17.390532
17.157182
16.923137
16.688501
16.453377
16.217872
15.982092
15.746144
15.510137
15.274176
15.038371
14.80283
14.567658
14.332963
14.098851
13.865428
13.632799
13.401067
13.170336
12.940705
12.712283
12.485165
12.259396
12.035068
11.812089
11.590471
11.370175
11.151394
10.930345
10.711722
10.499771
10.291972
10.09344
9.913786
9.7976994
10.004807
11.121411
13.93042
20.29003
28.977101
37.020072
42.503801
45.083941
46.06788
46.187543
45.950404
45.586621
45.161952
44.671976
44.151323
43.611379
43.039983
42.42931
41.787801
41.130539
40.458759
39.775634
39.089437
38.405932
37.728077
37.065584
36.399947
35.847522
34.884595
24.638453
24.479175
24.317331
24.152781
23.985497
23.815477
23.642733
23.467278
23.289127
23.108301
22.924823
22.73872
22.550025
22.358776
22.165021
21.968808
21.770191
21.569224
21.365962
21.16046
20.952776
20.742971
20.531107
20.317249
20.101466
19.883829
19.664412
19.443293
19.220551
18.996267
18.770528
18.543421
18.315036
18.085464
17.854801
17.623142
17.390586
17.157233
16.923186
16.688547
16.453421
16.217915
15.982133
15.746184
15.510175
15.274213
15.038408
14.802865
14.567693
14.332997
14.098884
13.865458
13.632821
13.401077
13.170326
12.940666
12.712196
12.485013
12.259211
12.034878
11.81212
11.591026
11.371626
11.154009
10.938045
10.723744
10.511049
10.29977
10.086843
9.8780658
9.6749306
9.4792428
9.2949835
9.1494384
9.1799996
9.9571601
12.091001
17.669005
25.674486
33.318349
38.517285
40.874975
41.741354
41.830075
41.601924
41.268919
40.887462
40.456179
39.999548
39.524915
39.020277
38.477174
37.905427
37.3163
36.711103
36.093495
35.476063
34.839895
34.306416
33.348367
24.63848
24.479204
24.317363
24.152815
23.985532
23.815515
23.642773
23.46732
23.289172
23.10835
22.924876
22.738779
22.550091
22.35885
22.165102
21.968897
21.770286
21.569323
21.366064
21.160563
20.95288
20.743075
20.531209
20.31735
20.101564
19.883924
19.664505
19.443382
19.220636
18.996349
18.770607
18.543496
18.315107
18.085532
17.854865
17.623203
17.390644
17.157288
16.923238
16.688597
16.453469
16.21796
15.982176
15.746225
15.510214
15.274251
15.038444
14.8029
14.567726
14.33303
14.098915
13.865488
13.632852
13.401107
13.170355
12.940694
12.71222
12.485028
12.25921
12.034856
11.812055
11.590894
11.371459
11.153825
10.93809
10.724328
10.512559
10.302836
10.095033
9.889052
9.6852148
9.4806797
9.2771486
9.0808965
8.8885147
8.7123856
8.5405068
8.5183248
9.1522644
11.066795
16.30547
23.974812
31.012257
35.510347
37.419202
38.046575
38.053462
37.820231
37.508722
37.161471
36.776202
36.371171
35.948972
35.493643
35.003014
34.487167
33.957434
33.390896
32.911487
32.008581
24.638508
24.479234
24.317395
24.15285
23.98557
23.815555
23.642816
23.467365
23.28922
23.108402
22.924933
22.738841
22.55016
22.358927
22.165187
21.968988
21.770384
21.569426
21.366169
21.160671
20.952988
20.743183
20.531316
20.317454
20.101666
19.884024
19.664601
19.443475
19.220725
18.996435
18.770689
18.543574
18.315182
18.085603
17.854932
17.623267
17.390705
17.157346
16.923294
16.688649
16.453519
16.218007
15.982222
15.746268
15.510256
15.274291
15.038482
14.802937
14.567762
14.333063
14.098948
13.865519
13.632881
13.401136
13.170383
12.940721
12.712246
12.485054
12.259236
12.034881
11.812077
11.590909
11.371458
11.153804
10.938025
10.724197
10.512393
10.302678
10.095143
9.8898224
9.686766
9.4858876
9.287055
9.0903557
8.8950925
8.6980017
8.5092928
8.3211312
8.1611219
7.9540477
7.9560671
8.5897377
10.619597
15.908365
23.499925
29.709241
33.091118
34.451884
34.817304
34.742147
34.507022
34.216226
33.897276
33.548283
33.182001
32.797207
32.383982
31.919712
31.527468
30.732549
24.638538
24.479266
24.31743
24.152887
23.985609
23.815597
23.64286
23.467413
23.289271
23.108456
22.924992
22.738906
22.550232
22.359007
22.165274
21.969083
21.770485
21.569531
21.366278
21.160782
20.9531
20.743294
20.531426
20.317563
20.101772
19.884127
19.664701
19.443572
19.220819
18.996524
18.770774
18.543656
18.31526
18.085677
17.855003
17.623334
17.390769
17.157407
16.923352
16.688705
16.453572
16.218058
15.98227
15.746315
15.5103
15.274333
15.038523
14.802975
14.567799
14.333099
14.098982
13.865552
13.632913
13.401166
13.170411
12.940748
12.712273
12.485079
12.25926
12.034904
11.8121
11.590931
11.37148
11.153825
10.938043
10.724207
10.512388
10.302651
10.095064
9.8896913
9.6865881
9.4858238
9.2874621
9.0914948
8.8979792
8.7065768
8.5175455
8.3307802
8.1406438
7.9582792
7.7806201
7.6151828
7.4684062
7.4959393
8.2328374
10.782749
16.518551
23.519055
28.640689
30.987876
31.867778
31.990907
31.835686
31.589008
31.310714
31.012134
30.698157
30.350839
30.064287
29.418831
24.638569
24.479301
24.317467
24.152926
23.985651
23.815641
23.642907
23.467462
23.289325
23.108514
22.925055
22.738975
22.550307
22.359089
22.165365
21.969181
21.770588
21.56964
21.36639
21.160896
20.953215
20.743409
20.53154
20.317675
20.101882
19.884234
19.664805
19.443672
19.220915
18.996617
18.770863
18.543741
18.315341
18.085755
17.855077
17.623405
17.390836
17.157471
16.923413
16.688763
16.453627
16.218111
15.98232
15.746363
15.510346
15.274378
15.038565
14.803016
14.567838
14.333137
14.099018
13.865587
13.632946
13.401197
13.170442
12.940777
12.7123
12.485106
12.259285
12.034928
11.812123
11.590953
11.371501
11.153845
10.938063
10.724227
10.512407
10.30267
10.095079
9.8896962
9.686578
9.4857795
9.2873553
9.091355
8.8978225
8.7068371
8.5183526
8.3325427
8.1487577
7.9677952
7.7888779
7.6079414
7.434504
7.2652789
7.1117157
6.9716904
7.1570447
8.1226724
11.85915
18.172352
24.158699
27.672102
29.060249
29.460631
29.425321
29.237055
28.999667
28.72495
28.502338
28.012836
24.638603
24.479337
24.317505
24.152967
23.985695
23.815688
23.642956
23.467515
23.289381
23.108574
22.92512
22.739046
22.550385
22.359175
22.165458
21.969281
21.770695
21.569751
21.366505
21.161013
20.953333
20.743527
20.531657
20.31779
20.101995
19.884345
19.664912
19.443776
19.221015
18.996714
18.770956
18.54383
18.315426
18.085836
17.855154
17.623478
17.390906
17.157538
16.923476
16.688824
16.453685
16.218166
15.982373
15.746414
15.510395
15.274424
15.03861
14.803059
14.567879
14.333176
14.099056
13.865623
13.63298
13.401231
13.170474
12.940808
12.712329
12.485133
12.259311
12.034953
11.812147
11.590976
11.371522
11.153866
10.938083
10.724245
10.512424
10.302687
10.095096
9.8897129
9.6865944
9.4857947
9.2873641
9.0913506
8.8977976
8.7067507
8.5182483
8.3323242
8.1490438
7.9683976
7.7904383
7.614803
7.441755
7.2702834
7.0978804
6.9322339
6.7737479
6.6309211
6.5325743
6.9551019
8.6807999
13.528419
19.833255
24.453
26.476585
27.185949
27.269337
27.117056
26.954539
26.560173
24.638638
24.479375
24.317546
24.153011
23.98574
23.815736
23.643008
23.46757
23.28944
23.108638
22.925189
22.739121
22.550467
22.359264
22.165554
21.969385
21.770804
21.569865
21.366623
21.161133
20.953454
20.743648
20.531777
20.317909
20.102112
19.884458
19.665023
19.443883
19.221119
18.996813
18.771052
18.543922
18.315513
18.085919
17.855234
17.623555
17.390979
17.157607
16.923542
16.688887
16.453746
16.218224
15.982429
15.746467
15.510445
15.274473
15.038656
14.803104
14.567922
14.333217
14.099095
13.86566
13.633017
13.401265
13.170507
12.940839
12.71236
12.485162
12.259339
12.03498
11.812172
11.590999
11.371545
11.153887
10.938103
10.724265
10.512443
10.302704
10.095112
9.8897285
9.6866094
9.4858092
9.2873786
9.0913648
8.8978118
8.70676
8.5182477
8.3323071
8.1489756
7.968281
7.7902465
7.6149309
7.4423019
7.2724053
7.104743
6.9401678
6.7749735
6.6124824
6.4542939
6.3120535
6.1677509
6.2704114
7.0320406
10.478448
16.327286
21.446329
24.081245
25.044117
25.329171
25.125373
24.638676
24.479415
24.317589
24.153056
23.985789
23.815788
23.643063
23.467628
23.289501
23.108704
22.92526
22.739198
22.550551
22.359355
22.165653
21.96949
21.770916
21.569982
21.366743
21.161256
20.953578
20.743772
20.531901
20.318031
20.102232
19.884575
19.665137
19.443994
19.221226
18.996916
18.77115
18.544016
18.315604
18.086006
17.855317
17.623634
17.391054
17.15768
16.923611
16.688953
16.453808
16.218284
15.982486
15.746521
15.510498
15.274523
15.038705
14.80315
14.567966
14.33326
14.099136
13.8657
13.633054
13.401301
13.170541
12.940872
12.712391
12.485192
12.259368
12.035007
11.812198
11.591024
11.371568
11.15391
10.938124
10.724285
10.512462
10.302722
10.09513
9.8897446
9.6866247
9.4858236
9.2873922
9.0913778
8.8978243
8.7067725
8.5182597
8.33232
8.1489841
7.9682801
7.7902315
7.6148646
7.4421974
7.2722547
7.1050585
6.9406304
6.7788379
6.6193085
6.4629641
6.3038309
6.1515754
6.0061131
5.8707398
5.7881617
6.2010454
8.1524084
13.03351
18.383815
21.853396
23.262295
24.638716
24.479457
24.317634
24.153104
23.98584
23.815841
23.64312
23.467689
23.289566
23.108773
22.925335
22.739279
22.550638
22.35945
22.165755
21.969599
21.77103
21.570102
21.366866
21.161381
20.953705
20.743899
20.532027
20.318156
20.102355
19.884696
19.665254
19.444107
19.221336
18.997022
18.771253
18.544114
18.315698
18.086096
17.855403
17.623716
17.391133
17.157754
16.923683
16.689021
16.453873
16.218346
15.982545
15.746578
15.510552
15.274575
15.038755
14.803198
14.568012
14.333304
14.099178
13.86574
13.633093
13.401339
13.170577
12.940906
12.712424
12.485223
12.259397
12.035035
11.812225
11.59105
11.371593
11.153933
10.938146
10.724306
10.512482
10.302741
10.095147
9.8897614
9.6866405
9.4858385
9.2874063
9.091391
8.8978368
8.7067842
8.5182708
8.3323307
8.1489947
7.9682906
7.7902427
7.6148722
7.442198
7.2722344
7.1050011
6.9404995
6.778773
6.6197781
6.4636483
6.309788
6.1589542
6.0084951
5.8599387
5.7155819
5.5861916
5.4595016
5.6353867
7.0321132
10.276795
17.275596
24.638759
24.479502
24.317681
24.153154
23.985893
23.815898
23.643179
23.467752
23.289634
23.108846
22.925412
22.739363
22.550729
22.359547
22.165859
21.96971
21.771147
21.570224
21.366992
21.161509
20.953835
20.744029
20.532156
20.318284
20.102481
19.884819
19.665374
19.444224
19.221449
18.997132
18.771358
18.544215
18.315795
18.086189
17.855492
17.6238
17.391213
17.157832
16.923756
16.689091
16.453941
16.218411
15.982607
15.746637
15.510609
15.27463
15.038807
14.803248
14.56806
14.33335
14.099222
13.865782
13.633133
13.401377
13.170614
12.940942
12.712458
12.485256
12.259428
12.035065
11.812252
11.591076
11.371618
11.153957
10.938169
10.724327
10.512502
10.30276
10.095165
9.8897786
9.6866567
9.4858539
9.2874208
9.0914047
8.8978496
8.7067963
8.5182822
8.3323414
8.1490047
7.9683
7.7902517
7.6148813
7.442207
7.2722441
7.1050053
6.9404995
6.778735
6.619721
6.4634555
6.3099669
6.1592545
6.0112054
5.8654967
5.7228363
5.5776461
5.4397559
5.3050193
5.2046309
5.1617284
8.3133254
24.638803
24.47955
24.317731
24.153207
23.985949
23.815957
23.643242
23.467819
23.289705
23.108921
22.925493
22.739449
22.550822
22.359647
22.165966
21.969823
21.771267
21.570348
21.36712
21.16164
20.953967
20.744162
20.532289
20.318415
20.10261
19.884946
19.665498
19.444344
19.221565
18.997244
18.771466
18.544319
18.315895
18.086284
17.855583
17.623888
17.391297
17.157911
16.923833
16.689164
16.45401
16.218477
15.982671
15.746699
15.510668
15.274686
15.03886
14.803299
14.568109
14.333397
14.099268
13.865826
13.633175
13.401417
13.170652
12.940978
12.712492
12.485289
12.25946
12.035095
11.812281
11.591104
11.371644
11.153982
10.938192
10.724349
10.512523
10.30278
10.095184
9.8897964
9.6866735
9.4858697
9.2874357
9.0914187
8.8978628
8.7068087
8.5182938
8.3323523
8.149015
7.9683096
7.7902607
7.6148897
7.4422149
7.2722518
7.1050128
6.9405075
6.7787423
6.6197224
6.4634467
6.3099215
6.1591369
6.0111181
5.8658049
5.7233881
5.5829271
5.4467262
5.304858
5.1877697
4.9849184
5.0144509
24.638851
24.4796
24.317784
24.153263
23.986007
23.816019
23.643308
23.467888
23.289778
23.109
22.925577
22.739539
22.550918
22.35975
22.166076
21.969939
21.771389
21.570475
21.367251
21.161773
20.954102
20.744297
20.532424
20.318549
20.102742
19.885075
19.665624
19.444467
19.221684
18.997359
18.771577
18.544426
18.315997
18.086383
17.855677
17.623978
17.391383
17.157994
16.923911
16.689239
16.454082
16.218546
15.982737
15.746762
15.510728
15.274743
15.038916
14.803352
14.56816
14.333446
14.099315
13.865871
13.633218
13.401458
13.170691
12.941016
12.712528
12.485323
12.259492
12.035126
11.812311
11.591132
11.371671
11.154007
10.938216
10.724372
10.512545
10.3028
10.095204
9.8898146
9.6866907
9.4858859
9.2874509
9.091433
8.8978763
8.7068214
8.5183057
8.3323635
8.1490254
7.9683194
7.7902698
7.6148982
7.4422229
7.2722592
7.1050197
6.9405139
6.7787488
6.6197284
6.4634542
6.3099253
6.1591374
6.0110865
5.8657664
5.7231723
5.5832989
5.4461642
5.3118013
5.177716
5.0594273
4.8591085
24.638901
24.479652
24.317839
24.153321
23.986069
23.816084
23.643376
23.467961
23.289855
23.109081
22.925664
22.739632
22.551017
22.359856
22.166188
21.970058
21.771513
21.570604
21.367384
21.161909
20.954239
20.744435
20.532561
20.318685
20.102876
19.885207
19.665754
19.444593
19.221807
18.997477
18.771691
18.544536
18.316103
18.086484
17.855774
17.624071
17.391472
17.158079
16.923992
16.689317
16.454157
16.218617
15.982805
15.746827
15.51079
15.274803
15.038973
14.803407
14.568213
14.333496
14.099363
13.865917
13.633262
13.401501
13.170732
12.941055
12.712565
12.485359
12.259526
12.035158
11.812341
11.591161
11.371698
11.154033
10.938241
10.724396
10.512567
10.302821
10.095223
9.8898332
9.6867083
9.4859025
9.2874665
9.0914477
8.8978901
8.7068344
8.5183179
8.3323748
8.1490361
7.9683293
7.7902791
7.6149069
7.4422309
7.2722667
7.1050266
6.9405204
6.7787548
6.619734
6.4634595
6.3099304
6.1591433
6.0110913
5.8657705
5.7231533
5.5833013
5.4458945
5.3122796
5.1765301
5.0644441
4.8640915
24.638953
24.479707
24.317898
24.153382
23.986133
23.816152
23.643448
23.468036
23.289935
23.109166
22.925754
22.739728
22.551119
22.359964
22.166303
21.970179
21.77164
21.570735
21.367519
21.162047
20.954379
20.744575
20.532701
20.318824
20.103014
19.885342
19.665886
19.444722
19.221932
18.997599
18.771808
18.544649
18.316211
18.086588
17.855874
17.624166
17.391563
17.158166
16.924076
16.689397
16.454233
16.21869
15.982875
15.746894
15.510854
15.274865
15.039032
14.803464
14.568267
14.333548
14.099412
13.865965
13.633308
13.401544
13.170774
12.941094
12.712603
12.485395
12.259561
12.035191
11.812372
11.59119
11.371726
11.15406
10.938266
10.724419
10.512589
10.302843
10.095244
9.8898523
9.6867263
9.4859194
9.2874824
9.0914627
8.8979041
8.7068475
8.5183302
8.3323864
8.1490469
7.9683394
7.7902885
7.6149156
7.4422391
7.2722743
7.1050337
6.9405269
6.7787608
6.6197395
6.4634646
6.3099351
6.1591476
6.0110957
5.8657745
5.7231593
5.5833012
5.4459039
5.3122005
5.1766348
5.0638565
4.8637912
24.639009
24.479766
24.317959
24.153446
23.986201
23.816222
23.643522
23.468115
23.290018
23.109254
22.925848
22.739827
22.551224
22.360076
22.166421
21.970303
21.771769
21.570869
21.367656
21.162187
20.954521
20.744718
20.532844
20.318966
20.103154
19.88548
19.666021
19.444854
19.22206
18.997723
18.771928
18.544764
18.316322
18.086695
17.855976
17.624264
17.391657
17.158256
16.924162
16.689479
16.454312
16.218766
15.982947
15.746963
15.510921
15.274928
15.039093
14.803522
14.568323
14.333601
14.099464
13.866014
13.633355
13.401589
13.170816
12.941135
12.712642
12.485432
12.259596
12.035224
11.812405
11.591221
11.371755
11.154087
10.938292
10.724444
10.512612
10.302865
10.095264
9.8898718
9.6867446
9.4859367
9.2874987
9.0914779
8.8979184
8.7068609
8.5183427
8.3323981
8.1490578
7.9683496
7.790298
7.6149244
7.4422473
7.2722818
7.1050407
6.9405334
6.7787668
6.619745
6.4634697
6.3099397
6.1591518
6.0110996
5.8657779
5.723163
5.5833032
5.445912
5.3121917
5.1766582
5.0638047
4.863628
24.639067
24.479827
24.318022
24.153513
23.986271
23.816296
23.6436
23.468197
23.290105
23.109346
22.925944
22.739929
22.551332
22.36019
22.166541
21.970429
21.7719
21.571005
21.367796
21.16233
20.954665
20.744863
20.532989
20.31911
20.103297
19.885621
19.666158
19.444988
19.222191
18.997849
18.772051
18.544883
18.316436
18.086804
17.856081
17.624365
17.391754
17.158348
16.92425
16.689564
16.454393
16.218843
15.983021
15.747034
15.510988
15.274993
15.039155
14.803582
14.56838
14.333656
14.099516
13.866064
13.633403
13.401635
13.17086
12.941177
12.712682
12.48547
12.259632
12.035259
11.812437
11.591252
11.371785
11.154115
10.938319
10.724469
10.512636
10.302887
10.095285
9.8898916
9.6867632
9.4859542
9.2875151
9.0914934
8.8979329
8.7068744
8.5183554
8.3324099
8.1490688
7.9683599
7.7903075
7.6149333
7.4422555
7.2722894
7.1050477
6.9405398
6.7787727
6.6197505
6.4634747
6.3099443
6.159156
6.0111033
5.8657813
5.7231661
5.5833059
5.4459147
5.3121951
5.1766616
5.0638112
4.8636292
24.639128
24.479891
24.318089
24.153583
23.986344
23.816374
23.643681
23.468282
23.290194
23.10944
22.926044
22.740034
22.551443
22.360307
22.166664
21.970557
21.772034
21.571143
21.367938
21.162475
20.954812
20.745011
20.533137
20.319257
20.103442
19.885764
19.666299
19.445125
19.222324
18.997979
18.772176
18.545004
18.316553
18.086916
17.856189
17.624468
17.391853
17.158443
16.924341
16.68965
16.454476
16.218922
15.983097
15.747106
15.511058
15.27506
15.039219
14.803643
14.568439
14.333712
14.09957
13.866115
13.633452
13.401682
13.170905
12.94122
12.712723
12.485509
12.259669
12.035294
11.812471
11.591284
11.371815