/*--------------------------------*- C++ -*----------------------------------*\
  =========                 |
  \\      /  F ield         | OpenFOAM: The Open Source CFD Toolbox
   \\    /   O peration     | Website:  https://openfoam.org
    \\  /    A nd           | Version:  12
     \\/     M anipulation  |
\*---------------------------------------------------------------------------*/
FoamFile
{
    format      ascii;
    class       volScalarField;
    location    "1700";
    object      omega;
}
// * * * * * * * * * * * * * * * * * * * * * * * * * * * * * * * * * * * * * //

dimensions      [0 0 -1 0 0 0 0];

internalField   nonuniform List<scalar> 
13056
(
414.08239
169.94508
96.283382
70.274898
59.294547
53.68694
50.333615
48.096053
46.497164
45.304716
44.389036
43.670078
43.095146
42.628041
42.243095
41.921668
41.649727
41.417243
41.213931
41.04166
40.864014
40.784149
40.373241
102.78878
15925793
15925793
15925793
15925793
15925793
15925793
15925793
15925793
15925793
15925793
15925793
15925793
15925793
15925793
15925793
15925793
15925793
15925793
15925793
15925793
15925793
15925793
15925793
15925793
15925793
15925793
15925793
15925793
15925793
15925793
15925793
15925793
15925793
15925793
15925793
15925793
15925793
15925793
15925793
15925793
15925793
15925793
15925793
15925793
15925793
15925793
15925793
15925793
15925793
15925793
15925793
15925793
15925793
15925793
15925793
15925793
15925793
15925793
15925793
15925793
15925793
15925793
15925793
15925793
15925793
15925793
15925793
15925793
15925793
15925793
15925793
15925793
15925793
15925793
15925793
15925793
15925793
15925793
15925793
15925793
15925793
15925793
15925793
15925793
15925793
15925793
15925793
15925793
15925793
15925793
15925793
15925793
15925793
15925793
15925793
15925793
15925793
15925793
15925793
15925793
15925793
15925793
15925793
15925793
15925793
15925793
15925793
15925793
15925793
15925793
15925793
15925793
414.08237
169.94528
96.283707
70.274911
59.293901
53.685569
50.331618
48.09356
46.494282
45.301524
44.385592
43.666428
43.091323
42.624073
42.239004
41.91747
41.645438
41.412872
41.209489
41.037153
40.859442
40.779645
40.367963
99.537067
2727967.4
2723730.4
2723622.7
2723622.6
2723615
2723603.4
2723592.3
2723582.8
2723574.8
2723567.9
2723561.9
2723556.6
2723551.8
2723547.4
2723543.3
2723539.6
2723536.1
2723532.9
2723530
2723527.2
2723524.6
2723522.1
2723519.8
2723517.6
2723515.6
2723513.6
2723511.7
2723509.9
2723508.2
2723506.5
2723505
2723503.4
2723502
2723500.6
2723499.2
2723497.9
2723496.6
2723495.3
2723494.1
2723492.9
2723491.8
2723490.7
2723489.6
2723488.5
2723487.5
2723486.4
2723485.4
2723484.4
2723483.5
2723482.5
2723481.6
2723480.7
2723479.8
2723478.9
2723478
2723477.1
2723476.3
2723475.4
2723474.6
2723473.8
2723473
2723472.2
2723471.4
2723470.6
2723469.8
2723469
2723468.2
2723467.4
2723466.7
2723465.9
2723465.2
2723464.4
2723463.6
2723462.9
2723462.1
2723461.4
2723460.6
2723459.9
2723459.1
2723458.3
2723457.6
2723456.8
2723456.1
2723455.3
2723454.5
2723453.7
2723452.9
2723452.1
2723451.3
2723450.5
2723449.8
2723449.1
2723448.4
2723447.7
2723447.1
2723446.5
2723445.9
2723445.4
2723444.9
2723444.4
2723443.9
2723443.4
2723443
2723442.5
2723442.1
2723441.7
2723441.3
2723440.9
2723440.6
2723440.2
2723439.9
2723439.3
414.08227
169.94606
96.284806
70.274799
59.291441
53.680642
50.32463
48.084968
46.484439
45.290689
44.373955
43.654131
43.078478
42.610768
42.225306
41.903436
41.631111
41.398289
41.194679
41.022135
40.844233
40.764495
40.351264
95.896478
912022.69
910424.47
910282.46
910281.43
910254.32
910218.99
910186.51
910159.04
910135.73
910115.6
910097.96
910082.32
910068.08
910055.05
910043.07
910032.05
910021.87
910012.44
910003.65
909995.43
909987.71
909980.44
909973.57
909967.06
909960.88
909955
909949.4
909944.05
909938.92
909934
909929.28
909924.72
909920.34
909916.11
909912.01
909908.05
909904.2
909900.47
909896.84
909893.31
909889.87
909886.5
909883.21
909879.99
909876.85
909873.77
909870.76
909867.8
909864.91
909862.06
909859.26
909856.5
909853.79
909851.12
909848.48
909845.88
909843.31
909840.78
909838.27
909835.79
909833.33
909830.9
909828.48
909826.09
909823.71
909821.36
909819.01
909816.68
909814.36
909812.06
909809.76
909807.47
909805.18
909802.9
909800.62
909798.34
909796.06
909793.78
909791.5
909789.2
909786.91
909784.6
909782.28
909779.95
909777.61
909775.25
909772.86
909770.45
909768.02
909765.62
909763.31
909761.12
909759.04
909757.05
909755.16
909753.36
909751.63
909749.98
909748.39
909746.87
909745.41
909744
909742.65
909741.34
909740.07
909738.85
909737.66
909736.5
909735.39
909734.24
909733.23
909731.58
414.0821
169.94744
96.286709
70.274567
59.287115
53.672043
50.312474
48.070049
46.467371
45.271915
44.353801
43.632844
43.05625
42.587748
42.201614
41.879167
41.60634
41.373077
41.169077
40.996174
40.81795
40.738271
40.322663
92.214057
424448.84
421869.72
421639.5
421632.15
421573.97
421500.68
421433.84
421377.36
421329.39
421287.92
421251.54
421219.27
421189.87
421162.94
421138.18
421115.37
421094.32
421074.79
421056.58
421039.55
421023.55
421008.46
420994.19
420980.68
420967.86
420955.64
420944
420932.88
420922.21
420911.98
420902.16
420892.69
420883.56
420874.75
420866.22
420857.95
420849.94
420842.17
420834.6
420827.24
420820.05
420813.02
420806.16
420799.45
420792.89
420786.47
420780.18
420774
420767.95
420762
420756.14
420750.39
420744.71
420739.13
420733.62
420728.18
420722.81
420717.5
420712.25
420707.05
420701.91
420696.81
420691.76
420686.75
420681.77
420676.83
420671.92
420667.04
420662.18
420657.34
420652.52
420647.71
420642.92
420638.14
420633.35
420628.56
420623.78
420618.99
420614.2
420609.38
420604.56
420599.72
420594.85
420589.95
420585.02
420580.05
420575.04
420569.98
420564.87
420559.8
420554.95
420550.34
420545.95
420541.77
420537.79
420534
420530.36
420526.88
420523.54
420520.34
420517.26
420514.29
420511.43
420508.67
420506.01
420503.42
420500.92
420498.48
420496.13
420493.7
420491.57
420488.1
414.08186
169.94943
96.289462
70.274226
59.280845
53.659587
50.294872
48.048448
46.442661
45.244737
44.324626
43.602031
43.024075
42.554428
42.16732
41.844036
41.570484
41.336582
41.132018
40.958595
40.779906
40.700305
40.281393
88.552662
238255.9
234342.98
233974.88
233949.68
233848.83
233725.05
233612.66
233517.62
233436.8
233366.86
233305.48
233250.97
233201.28
233155.74
233113.84
233075.22
233039.56
233006.44
232975.55
232946.65
232919.46
232893.82
232869.57
232846.59
232824.76
232803.96
232784.14
232765.19
232747
232729.56
232712.8
232696.63
232681.05
232666.01
232651.43
232637.31
232623.62
232610.33
232597.39
232584.79
232572.49
232560.46
232548.7
232537.21
232525.98
232514.98
232504.19
232493.61
232483.22
232473.01
232462.97
232453.09
232443.35
232433.76
232424.29
232414.95
232405.72
232396.6
232387.57
232378.64
232369.8
232361.03
232352.34
232343.71
232335.15
232326.64
232318.18
232309.77
232301.4
232293.06
232284.75
232276.46
232268.2
232259.94
232251.69
232243.43
232235.17
232226.91
232218.62
232210.31
232201.97
232193.61
232185.19
232176.72
232168.19
232159.6
232150.92
232142.16
232133.31
232124.54
232116.13
232108.16
232100.55
232093.31
232086.41
232079.82
232073.52
232067.48
232061.69
232056.13
232050.78
232045.63
232040.66
232035.87
232031.25
232026.76
232022.42
232018.17
232014.08
232009.87
232006.17
232000.13
414.08153
169.95207
96.293129
70.273794
59.272533
53.643035
50.271457
48.019697
46.409757
45.208537
44.28576
43.560975
42.981198
42.510021
42.121612
41.79721
41.522687
41.287931
41.082614
40.908496
40.729184
40.649701
40.226418
84.919409
151050.49
146084.59
145515.8
145452.12
145298.84
145116.27
144951.01
144811.08
144691.91
144588.68
144497.98
144417.35
144343.8
144276.35
144214.22
144156.91
144103.93
144054.7
144008.73
143965.69
143925.18
143886.95
143850.76
143816.44
143783.83
143752.74
143723.08
143694.71
143667.48
143641.35
143616.22
143591.97
143568.59
143546
143524.11
143502.89
143482.31
143462.32
143442.85
143423.88
143405.36
143387.24
143369.53
143352.21
143335.27
143318.68
143302.4
143286.43
143270.75
143255.33
143240.16
143225.22
143210.5
143195.99
143181.67
143167.52
143153.55
143139.74
143126.06
143112.53
143099.12
143085.82
143072.63
143059.54
143046.54
143033.63
143020.78
143007.99
142995.27
142982.6
142969.96
142957.35
142944.77
142932.21
142919.63
142907.05
142894.47
142881.87
142869.24
142856.56
142843.85
142831.08
142818.22
142805.29
142792.26
142779.13
142765.86
142752.47
142738.93
142725.5
142712.63
142700.41
142688.76
142677.66
142667.09
142656.99
142647.32
142638.05
142629.17
142620.64
142612.43
142604.52
142596.89
142589.53
142582.42
142575.53
142568.85
142562.32
142556.04
142549.56
142543.86
142534.58
414.08112
169.95538
96.297787
70.273296
59.262063
53.622104
50.241789
47.983225
46.367987
45.16256
44.236378
43.508796
42.926694
42.453561
42.06349
41.73766
41.461895
41.226048
41.019767
40.844762
40.664651
40.585359
40.15645
81.309895
104636.15
99031.786
98182.063
98047.448
97835.235
97592.331
97373.186
97187.291
97028.674
96891.091
96770.063
96662.324
96563.984
96473.691
96390.417
96313.5
96242.318
96176.089
96114.194
96056.173
96001.506
95949.862
95900.937
95854.505
95810.342
95768.197
95727.971
95689.458
95652.462
95616.937
95582.747
95549.741
95517.883
95487.096
95457.243
95428.277
95400.178
95372.859
95346.233
95320.289
95294.942
95270.144
95245.881
95222.148
95198.925
95176.164
95153.824
95131.891
95110.345
95089.154
95068.292
95047.74
95027.479
95007.495
94987.765
94968.273
94949.007
94929.946
94911.074
94892.386
94873.867
94855.492
94837.253
94819.147
94801.161
94783.277
94765.481
94747.767
94730.134
94712.562
94695.027
94677.523
94660.057
94642.609
94625.135
94607.642
94590.141
94572.611
94555.023
94537.366
94519.649
94501.844
94483.916
94465.864
94447.682
94429.336
94410.8
94392.078
94373.138
94354.347
94336.323
94319.216
94302.884
94287.327
94272.499
94258.332
94244.764
94231.756
94219.281
94207.299
94195.764
94184.642
94173.916
94163.565
94153.562
94143.865
94134.462
94125.264
94116.413
94107.296
94099.255
94086.179
414.08062
169.95941
96.303524
70.27277
59.249317
53.596476
50.205366
47.93838
46.316576
45.105931
44.175525
43.444473
42.859484
42.383923
41.991787
41.664181
41.386876
41.149672
40.942195
40.766086
40.584979
40.506002
40.069964
77.720214
77657.704
71890.398
70654.729
70403.358
70130.091
69834.104
69568.25
69342.224
69148.998
68981.158
68833.295
68701.456
68581.06
68470.363
68368.107
68273.503
68185.814
68104.107
68027.641
67955.864
67888.15
67824.101
67763.352
67705.631
67650.67
67598.163
67547.994
67499.914
67453.684
67409.248
67366.444
67325.086
67285.13
67246.484
67208.981
67172.563
67137.207
67102.804
67069.252
67036.532
67004.551
66973.248
66942.601
66912.601
66883.226
66854.415
66826.119
66798.321
66770.995
66744.102
66717.61
66691.496
66665.734
66640.309
66615.192
66590.364
66565.808
66541.499
66517.416
66493.555
66469.895
66446.405
66423.076
66399.903
66376.871
66353.957
66331.141
66308.417
66285.784
66263.217
66240.684
66218.178
66195.708
66173.247
66150.741
66128.196
66105.627
66083.008
66060.301
66037.491
66014.59
65991.56
65968.357
65944.978
65921.418
65897.628
65873.577
65849.269
65824.661
65800.23
65776.781
65754.511
65733.245
65712.975
65693.645
65675.167
65657.46
65640.476
65624.181
65608.523
65593.442
65578.894
65564.859
65551.31
65538.211
65525.507
65513.185
65501.127
65489.52
65477.561
65467.007
65449.842
414.08003
169.96417
96.310439
70.272265
59.23418
53.56582
50.161651
47.884449
46.254668
45.03768
44.102137
43.366862
42.778359
42.299841
41.905191
41.575424
41.29624
41.057384
40.848447
40.670996
40.488668
40.410192
39.96523
74.150724
60841.416
55388.635
53643.164
53218.233
52885.742
52552.152
52254.729
52001.343
51784.402
51595.763
51429.357
51280.748
51145.049
51020.112
50904.49
50797.316
50697.792
50604.898
50517.821
50435.95
50358.597
50285.321
50215.72
50149.493
50086.347
50025.942
49968.151
49912.698
49859.315
49807.942
49758.4
49710.478
49664.131
49619.254
49575.661
49533.286
49492.103
49451.995
49412.84
49374.619
49337.244
49300.641
49264.775
49229.635
49195.196
49161.391
49128.161
49095.488
49063.344
49031.683
49000.468
48969.674
48939.272
48909.242
48879.554
48850.184
48821.113
48792.312
48763.758
48735.445
48707.349
48679.434
48651.689
48624.109
48596.675
48569.362
48542.146
48515.018
48487.98
48461
48434.039
48407.091
48380.165
48353.23
48326.221
48299.144
48272.017
48244.81
48217.474
48189.994
48162.38
48134.591
48106.568
48078.312
48049.811
48021.009
47991.866
47962.385
47932.515
47902.833
47874.32
47847.221
47821.332
47796.638
47773.071
47750.528
47728.911
47708.163
47688.244
47669.092
47650.635
47632.822
47615.627
47599.018
47582.952
47567.364
47552.237
47537.428
47523.165
47508.465
47495.484
47474.36
414.07933
169.96968
96.318637
70.27185
59.216554
53.529808
50.110086
47.820678
46.181353
44.956767
44.015066
43.274728
42.682009
42.199943
41.802273
41.46991
41.188471
40.947629
40.736939
40.557877
40.374074
40.29625
39.840457
70.60697
49644.321
44926.408
42554.906
41897.542
41508.827
41156.598
40846.656
40582.408
40356.116
40159.372
39985.732
39830.509
39688.996
39558.589
39437.705
39325.447
39221.008
39123.362
39031.677
38945.331
38863.619
38786.093
38712.342
38642.058
38574.945
38510.652
38449.051
38389.864
38332.811
38277.831
38224.743
38173.33
38123.54
38075.273
38028.334
37982.652
37938.202
37894.865
37852.513
37811.123
37770.635
37730.965
37692.057
37653.894
37616.455
37579.668
37543.472
37507.845
37472.761
37438.171
37404.036
37370.329
37337.018
37304.084
37271.495
37239.225
37207.252
37175.547
37144.086
37112.861
37081.847
37051.003
37020.32
36989.792
36959.397
36929.108
36898.899
36868.761
36838.694
36808.664
36778.628
36748.579
36718.526
36688.435
36658.232
36627.926
36597.535
36567.023
36536.338
36505.462
36474.404
36443.118
36411.537
36379.66
36347.474
36314.914
36281.933
36248.534
36214.655
36180.954
36148.543
36117.711
36088.247
36060.115
36033.242
36007.515
35982.824
35959.105
35936.316
35914.388
35893.24
35872.815
35853.086
35834.016
35815.558
35797.638
35780.237
35763.19
35746.764
35729.823
35714.856
35690.481
414.07853
169.97596
96.328226
70.271613
59.196373
53.488136
50.050124
47.746307
46.095692
44.86211
43.913112
43.166769
42.56905
42.082772
41.681518
41.346071
41.061952
40.818752
40.605978
40.425001
40.239437
40.162331
39.693782
67.099191
41654.404
37990.898
34930.583
33992.64
33547.992
33192.305
32886.164
32625.676
32403.055
32209.946
32039.732
31887.63
31749.57
31622.386
31504.386
31394.669
31292.455
31196.77
31106.813
31021.981
30941.6
30865.236
30792.494
30723.078
30656.706
30593.041
30531.959
30473.198
30416.487
30361.764
30308.863
30257.569
30207.833
30159.562
30112.568
30066.777
30022.169
29978.633
29936.04
29894.364
29853.6
29813.657
29774.443
29735.936
29698.12
29660.927
29624.293
29588.195
29552.611
29517.494
29482.804
29448.512
29414.588
29381.016
29347.763
29314.801
29282.11
29249.66
29217.428
29185.407
29153.569
29121.874
29090.314
29058.881
29027.554
28996.304
28965.105
28933.949
28902.834
28871.725
28840.578
28809.387
28778.158
28746.856
28715.406
28683.814
28652.1
28620.226
28588.135
28555.809
28523.257
28490.427
28457.251
28423.724
28389.832
28355.504
28320.691
28285.39
28249.539
28213.829
28179.443
28146.698
28115.401
28085.488
28056.882
28029.467
28003.13
27977.807
27953.453
27929.998
27907.358
27885.474
27864.317
27843.852
27824.029
27804.767
27786.052
27767.703
27750.011
27731.746
27715.604
27689.285
414.07762
169.98298
96.339313
70.271669
59.173615
53.440547
49.981254
47.660598
45.996757
44.752622
43.795057
43.04166
42.438061
41.946829
41.541357
41.20228
40.915006
40.669027
40.453799
40.270568
40.082922
40.006432
39.523358
63.641066
35519.747
33133.45
29415.687
28167.963
27662.62
27309.986
27016.421
26768.09
26556.877
26374.585
26214.495
26071.782
25943.349
25825.29
25715.811
25614.005
25519.122
25430.27
25346.703
25267.85
25193.093
25122.023
25054.272
24989.569
24927.65
24868.206
24811.119
24756.157
24703.067
24651.789
24602.175
24554.028
24507.296
24461.901
24417.671
24374.531
24332.465
24291.377
24251.145
24211.737
24173.234
24135.531
24098.488
24062.078
24026.289
23991.061
23956.332
23922.077
23888.28
23854.899
23821.895
23789.238
23756.901
23724.872
23693.12
23661.616
23630.341
23599.27
23568.38
23537.663
23507.092
23476.63
23446.271
23416.006
23385.813
23355.665
23325.538
23295.424
23265.32
23235.191
23204.997
23174.73
23144.395
23113.958
23083.346
23052.566
23021.633
22990.509
22959.142
22927.509
22895.62
22863.421
22830.846
22797.889
22764.532
22730.705
22696.357
22661.483
22626.019
22590.648
22556.545
22524.038
22492.983
22463.269
22434.822
22407.529
22381.282
22356.02
22331.701
22308.257
22285.608
22263.695
22242.493
22221.966
22202.066
22182.715
22163.898
22145.434
22127.62
22109.204
22092.929
22066.354
414.0766
169.99072
96.352002
70.272159
59.148319
53.386862
49.90304
47.562875
45.883668
44.627254
43.659709
42.898088
42.287629
41.790614
41.380215
41.036898
40.745936
40.496709
40.27861
40.092745
39.902657
39.826601
39.327246
60.249662
30468.506
29482.591
25246.393
23699.261
23124.779
22773.048
22492.976
22258.46
22060.459
21890.867
21742.837
21611.467
21494.871
21388.141
21289.381
21197.66
21112.246
21032.325
20957.207
20886.355
20819.206
20755.381
20694.541
20636.433
20580.817
20527.415
20476.112
20426.707
20378.974
20332.848
20288.204
20244.864
20202.775
20161.873
20122.006
20083.1
20045.141
20008.05
19971.714
19936.096
19901.39
19867.47
19834.133
19801.342
19769.093
19737.335
19706.008
19675.087
19644.56
19614.394
19584.55
19555
19525.719
19496.7
19467.915
19439.335
19410.94
19382.713
19354.634
19326.692
19298.861
19271.109
19243.434
19215.825
19188.259
19160.713
19133.167
19105.613
19078.045
19050.432
19022.738
18994.956
18967.089
18939.103
18910.935
18882.588
18854.075
18825.361
18796.395
18767.16
18737.658
18707.841
18677.647
18647.068
18616.086
18584.634
18552.664
18520.169
18487.085
18454.051
18422.164
18391.751
18362.745
18334.965
18308.342
18282.775
18258.165
18234.457
18211.614
18189.574
18168.263
18147.629
18127.648
18108.288
18089.505
18071.227
18053.44
18035.973
18019.113
18001.653
17986.231
17961.005
414.07548
169.9991
96.366384
70.273256
59.120604
53.327008
49.815158
47.45257
45.755643
44.485042
43.505954
42.73481
42.116403
41.612681
41.196566
40.848324
40.553079
40.300079
40.078644
39.889719
39.696793
39.620919
39.103583
56.960335
26067.416
26496.731
21967.931
20166.999
19519.108
19164.281
18896.593
18675.794
18491.106
18334.393
18198.69
18079.006
17973.517
17877.512
17789.009
17707.032
17630.843
17559.686
17492.916
17430.021
17370.489
17313.963
17260.126
17208.742
17159.588
17112.414
17067.105
17023.49
16981.365
16940.662
16901.273
16863.042
16825.913
16789.832
16754.67
16720.35
16686.86
16654.139
16622.082
16590.648
16560.171
16530.493
16501.329
16472.634
16444.408
16416.609
16389.181
16362.1
16335.356
16308.925
16282.769
16256.86
16231.178
16205.72
16180.461
16155.37
16130.432
16105.634
16080.958
16056.391
16031.911
16007.491
15983.13
15958.817
15934.529
15910.247
15885.955
15861.646
15837.311
15812.923
15788.452
15763.892
15739.243
15714.475
15689.532
15664.419
15639.144
15613.674
15587.966
15562.003
15535.786
15509.27
15482.402
15455.172
15427.564
15399.514
15370.981
15341.956
15312.381
15282.825
15254.271
15227.037
15201.157
15176.356
15152.569
15129.709
15107.69
15086.463
15065.997
15046.237
15027.119
15008.596
14990.649
14973.249
14956.358
14939.91
14923.897
14908.158
14892.964
14877.199
14863.29
14840.491
414.07426
170.00803
96.382531
70.275162
59.090686
53.261056
49.717445
47.329275
45.612054
44.32517
43.332815
42.550713
41.923151
41.411699
40.988989
40.635065
40.334874
40.077514
39.852225
39.659766
39.463565
39.387519
38.850752
53.812951
22087.685
23835.732
19302.448
17310.9
16590.643
16228.737
15971.818
15764.211
15592.441
15448.186
15324.414
15216.067
15120.499
15034.108
14954.876
14881.769
14814.024
14750.923
14691.861
14636.344
14583.899
14534.192
14486.924
14441.867
14398.815
14357.539
14317.927
14279.83
14243.065
14207.561
14173.226
14139.922
14107.589
14076.182
14045.594
14015.747
13986.627
13958.188
13930.337
13903.027
13876.578
13850.859
13825.598
13800.745
13776.299
13752.232
13728.488
13705.042
13681.889
13659.01
13636.372
13613.945
13591.711
13569.674
13547.809
13526.088
13504.494
13483.02
13461.653
13440.377
13419.172
13398.015
13376.908
13355.841
13334.79
13313.738
13292.676
13271.595
13250.486
13229.325
13208.088
13186.771
13165.37
13143.858
13122.191
13100.372
13078.405
13056.26
13033.902
13011.316
12988.499
12965.414
12942.013
12918.289
12894.224
12869.764
12844.872
12819.537
12793.709
12767.886
12742.925
12719.137
12696.678
12675.15
12654.493
12634.631
12615.491
12597.034
12579.229
12562.032
12545.387
12529.254
12513.617
12498.45
12483.72
12469.371
12455.397
12441.653
12428.387
12414.592
12402.442
12382.482
414.07294
170.01735
96.40049
70.278114
59.058896
53.189253
49.609948
47.192804
45.452495
44.147041
43.139529
42.344891
41.706844
41.186531
40.756257
40.39581
40.089938
39.827569
39.597848
39.401323
39.201383
39.124649
38.567555
50.84829
18423.144
21283.977
17078.47
14971.55
14182.434
13807.952
13558.257
13361.674
13201.027
13067.548
12954.137
12855.681
12768.957
12691.124
12620.188
12555.061
12494.935
12439.117
12387.035
12338.214
12292.213
12248.722
12207.451
12168.181
12130.72
12094.857
12060.482
12027.463
11995.64
11964.938
11935.275
11906.533
11878.65
11851.585
11825.251
11799.57
11774.528
11750.089
11726.173
11702.728
11679.945
11657.762
11635.992
11614.579
11593.525
11572.808
11552.378
11532.208
11512.295
11492.626
11473.17
11453.898
11434.795
11415.866
11397.091
11378.44
11359.9
11341.467
11323.13
11304.873
11286.675
11268.521
11250.413
11232.341
11214.282
11196.222
11178.155
11160.073
11141.967
11123.815
11105.598
11087.314
11068.957
11050.502
11031.918
11013.205
10994.363
10975.365
10956.184
10936.807
10917.23
10897.419
10877.336
10856.973
10836.314
10815.311
10793.935
10772.173
10749.984
10727.795
10706.341
10685.897
10666.627
10648.155
10630.426
10613.375
10596.942
10581.091
10565.798
10551.022
10536.718
10522.852
10509.408
10496.366
10483.697
10471.352
10459.327
10447.495
10436.077
10424.177
10413.72
10396.497
414.07155
170.02689
96.42027
70.282373
59.025694
53.112064
49.492985
47.043264
45.276863
43.950358
42.92563
42.116734
41.466746
40.936329
40.497422
40.129525
39.817161
39.549065
39.314275
39.113096
38.908923
38.830752
38.253447
48.104757
15034.878
18733.042
15178.964
13043.46
12192.366
11799.754
11552.898
11364.471
11212.652
11087.854
10982.862
10892.495
10813.147
10742.463
10678.506
10620.126
10566.465
10516.833
10470.688
10427.57
10387.068
10348.891
10312.754
10278.443
10245.775
10214.558
10184.681
10156.027
10128.455
10101.887
10076.25
10051.442
10027.399
10004.085
9981.4259
9959.3509
9937.8387
9916.8646
9896.3601
9876.2718
9856.7029
9837.6344
9818.9405
9800.5638
9782.5041
9764.7467
9747.2473
9729.9769
9712.9333
9696.1093
9679.4772
9663.0079
9646.688
9630.5235
9614.4997
9598.5867
9582.7713
9567.0528
9551.423
9535.8658
9520.3626
9504.9003
9489.4826
9474.1001
9458.7313
9443.3644
9427.9954
9412.6183
9397.2224
9381.7896
9366.3054
9350.7682
9335.1713
9319.4927
9303.7117
9287.827
9271.8346
9255.712
9239.4357
9222.9959
9206.3878
9189.5825
9172.5485
9155.2795
9137.7596
9119.9501
9101.8246
9083.373
9064.5591
9045.7471
9027.558
9010.2093
8993.7881
8978.0497
8962.9437
8948.4149
8934.412
8920.9052
8907.8721
8895.2796
8883.088
8871.2692
8859.8104
8848.6924
8837.8908
8827.3649
8817.112
8807.0188
8797.2836
8787.1134
8778.2018
8763.4789
414.0701
170.03639
96.441834
70.288222
58.991678
53.030208
49.367198
46.881129
45.085437
43.735219
42.691053
41.86603
41.202516
40.660641
40.211934
39.835571
39.515825
39.241213
39.000653
38.794164
38.585255
38.504555
37.90884
45.614337
11924.504
16172.796
13516.931
11448.064
10546.713
10131.712
9883.238
9699.9641
9554.6761
9436.5169
9338.0616
9254.0397
9180.5852
9115.6504
9057.3682
9004.5123
8956.1589
8911.6121
8870.3506
8831.927
8795.966
8762.1854
8730.2968
8700.0872
8671.386
8644.0141
8617.8623
8592.8222
8568.7695
8545.6257
8523.3233
8501.7736
8480.9137
8460.7074
8441.0953
8422.0105
8403.4272
8385.3272
8367.6534
8350.3529
8333.4737
8317.02
8300.9079
8285.0812
8269.5367
8254.265
8239.2281
8224.3963
8209.7667
8195.3355
8181.0793
8166.9702
8152.995
8139.1601
8125.4544
8111.8505
8098.3346
8084.9076
8071.5637
8058.2878
8045.0626
8031.8771
8018.7354
8005.6297
7992.5399
7979.4556
7966.3745
7953.2918
7940.197
7927.0745
7913.913
7900.7117
7887.4637
7874.1494
7860.7611
7847.2924
7833.7361
7820.0727
7806.2833
7792.3601
7778.2976
7764.0717
7749.6564
7735.0464
7720.2274
7705.1669
7689.8433
7674.2471
7658.3481
7642.455
7627.0909
7612.429
7598.5079
7585.1701
7572.3699
7560.0602
7548.1976
7536.7568
7525.718
7515.0529
7504.7284
7494.7206
7485.0183
7475.6047
7466.4591
7457.5471
7448.8672
7440.3201
7432.0811
7423.4568
7415.9226
7403.4271
414.06862
170.04557
96.465085
70.295948
58.957592
52.944687
49.233618
46.707318
44.87898
43.502222
42.436243
41.593085
40.914335
40.359536
39.89976
39.513828
39.185731
38.903739
38.656644
38.444122
38.229979
38.145177
37.53551
43.398945
9122.1277
13655.208
12025.018
10120.175
9186.799
8747.5808
8493.4379
8312.4404
8171.5882
8058.2722
7964.7143
7885.5256
7816.6823
7756.3128
7702.6187
7654.257
7610.2338
7569.8376
7532.5625
7497.9717
7465.7335
7435.5626
7407.1583
7380.3101
7354.8566
7330.6298
7307.5235
7285.4357
7264.2551
7243.9051
7224.3214
7205.4265
7187.1597
7169.4841
7152.3504
7135.6981
7119.4973
7103.7331
7088.3589
7073.3242
7058.6426
7044.3281
7030.326
7016.5838
7003.0947
6989.853
6976.8267
6963.987
6951.329
6938.851
6926.5339
6914.3518
6902.2914
6890.3581
6878.5442
6866.8253
6855.1874
6843.6314
6832.1534
6820.7401
6809.3756
6798.0501
6786.7672
6775.5211
6764.2937
6753.0751
6741.864
6730.6566
6719.4434
6708.2108
6696.9493
6685.6586
6674.3323
6662.9533
6651.5297
6640.0458
6628.4917
6616.8504
6605.1066
6593.2537
6581.2866
6569.1846
6556.9266
6544.5078
6531.9156
6519.1229
6506.1116
6492.8731
6479.3825
6465.9022
6452.8746
6440.4397
6428.6076
6417.2761
6406.4038
6395.9506
6385.8795
6376.1688
6366.8008
6357.7514
6348.9927
6340.5043
6332.2763
6324.2939
6316.5398
6308.9845
6301.6276
6294.3822
6287.4024
6280.0856
6273.7135
6263.0947
414.06715
170.05409
96.489855
70.305825
58.924313
52.856806
49.093711
46.523278
44.658832
43.252575
42.162275
41.298847
40.603037
40.033742
39.561537
39.164845
38.827347
38.537043
38.282584
38.063232
37.843389
37.752257
37.137158
41.467349
6582.3863
11285.647
10647.704
9001.6324
8063.1331
7601.0582
7337.9
7156.5286
7018.2464
6908.2446
6818.217
6742.616
6677.3842
6620.6876
6570.7807
6526.1419
6485.7106
6448.7569
6414.7838
6383.3634
6354.2184
6327.0462
6301.5293
6277.4606
6254.6875
6233.0515
6212.4504
6192.7868
6173.9598
6155.8965
6138.5349
6121.8061
6105.6531
6090.0383
6074.9193
6060.2426
6045.9757
6032.1048
6018.5919
6005.391
5992.4946
5979.918
5967.6267
5955.574
5943.7496
5932.1498
5920.7487
5909.5189
5898.4535
5887.5515
5876.7979
5866.1696
5855.6528
5845.2511
5834.9596
5824.7577
5814.6313
5804.5801
5794.6017
5784.6851
5774.8159
5764.9848
5755.1944
5745.4407
5735.7082
5725.9872
5716.2764
5706.573
5696.8688
5687.1519
5677.4139
5667.6542
5657.8678
5648.0399
5638.1964
5628.3094
5618.3662
5608.3521
5598.2541
5588.0669
5577.7855
5567.3927
5556.8705
5546.2147
5535.4145
5524.447
5513.2968
5501.9562
5490.4046
5478.867
5467.721
5457.0818
5446.943
5437.237
5427.9273
5418.979
5410.3605
5402.0526
5394.0397
5386.301
5378.8128
5371.5574
5364.526
5357.7057
5351.0816
5344.6286
5338.3465
5332.16
5326.2035
5319.9557
5314.5307
5305.4382
414.06571
170.06158
96.515893
70.318086
58.892829
52.768179
48.949418
46.331044
44.426999
42.988205
41.870976
40.985047
40.270254
39.6848
39.198716
38.789995
38.441977
38.142359
37.879647
37.652594
37.426641
37.326124
36.72015
39.812918
4497.1843
9137.2397
9354.2912
8039.9226
7132.9088
6652.9006
6378.3732
6194.2623
6056.8741
5948.8765
5861.2436
5788.2232
5725.8926
5672.2605
5625.5957
5584.1368
5546.7735
5512.7583
5481.5963
5452.868
5426.3407
5401.6938
5378.601
5356.8612
5336.3291
5316.8549
5298.3409
5280.6932
5263.819
5247.6499
5232.1264
5217.1858
5202.7757
5188.858
5175.3946
5162.3394
5149.6589
5137.3381
5125.3466
5113.6439
5102.2102
5091.057
5080.1633
5069.4899
5059.0236
5048.7609
5038.6816
5028.761
5018.9899
5009.3668
4999.8805
4990.5113
4981.2449
4972.0826
4963.0215
4954.0451
4945.1396
4936.303
4927.5336
4918.8231
4910.1586
4901.5309
4892.9413
4884.3874
4875.8564
4867.3389
4858.8329
4850.3361
4841.8425
4833.3413
4824.8244
4816.291
4807.7376
4799.1515
4790.5722
4781.9613
4773.3051
4764.5909
4755.8071
4746.9489
4738.0125
4728.983
4719.8448
4710.594
4701.2217
4691.7081
4682.0399
4672.2103
4662.2021
4652.2102
4642.5612
4633.3515
4624.5649
4616.156
4608.0931
4600.3456
4592.8858
4585.6967
4578.7646
4572.0713
4565.5964
4559.3242
4553.2469
4547.3533
4541.6305
4536.0568
4530.6321
4525.2911
4520.1507
4514.7614
4510.0948
4502.2195
414.06435
170.06767
96.542856
70.33289
58.864194
52.680697
48.803165
46.133292
44.186235
42.711856
41.565046
40.654317
39.91855
39.315204
38.813726
38.391642
38.03192
37.721929
37.450024
37.214327
36.981927
36.868056
36.294537
38.41078
2906.9017
7318.4807
8150.5747
7199.5401
6361.2359
5869.917
5582.6543
5393.7171
5255.6646
5148.5052
5062.3005
4991.0403
4931.1302
4880.1481
4836.2785
4797.5492
4762.8254
4731.343
4702.6008
4676.1867
4651.8301
4629.2443
4608.1346
4588.3056
4569.6166
4551.9234
4535.1323
4519.1508
4503.8922
4489.2927
4475.2933
4461.8363
4448.8737
4436.3664
4424.2794
4412.5728
4401.2125
4390.1823
4379.4573
4369.0023
4358.7897
4348.8262
4339.1005
4329.5798
4320.2487
4311.1036
4302.1291
4293.3028
4284.6138
4276.0599
4267.6327
4259.3158
4251.0946
4242.9682
4234.9352
4226.9827
4219.0973
4211.2753
4203.5156
4195.8122
4188.1537
4180.5306
4172.9432
4165.3904
4157.8619
4150.3483
4142.847
4135.3564
4127.8717
4120.3836
4112.8841
4105.372
4097.8453
4090.2931
4082.7404
4075.1608
4067.5441
4059.8795
4052.1561
4044.3695
4036.5167
4028.5853
4020.5612
4012.4404
4004.216
3995.8708
3987.3926
3978.7757
3970.0056
3961.2529
3952.8031
3944.7391
3937.0385
3929.6702
3922.607
3915.8222
3909.291