/*--------------------------------*- C++ -*----------------------------------*\
  =========                 |
  \\      /  F ield         | OpenFOAM: The Open Source CFD Toolbox
   \\    /   O peration     | Website:  https://openfoam.org
    \\  /    A nd           | Version:  12
     \\/     M anipulation  |
\*---------------------------------------------------------------------------*/
FoamFile
{
    format      ascii;
    class       surfaceScalarField;
    location    "1700";
    object      phi;
}
// * * * * * * * * * * * * * * * * * * * * * * * * * * * * * * * * * * * * * //

dimensions      [0 3 -1 0 0 0 0];

internalField   nonuniform List<scalar> 
14782
(
0.00079839079
1.0682392e-06
-0.00079945903
0.0007969552
1.4355982e-06
0.00079532297
1.6322226e-06
0.00079361472
1.7082582e-06
0.00079183084
1.7838708e-06
0.00078997004
1.8608092e-06
0.00078803488
1.9351533e-06
0.00078602205
2.0128272e-06
0.00078392128
2.1007775e-06
0.00078173263
2.188651e-06
0.00077938185
2.3507796e-06
0.00077698303
2.398821e-06
0.0007734023
3.5807233e-06
0.0007670619
6.3403994e-06
0.00075812754
8.934361e-06
0.00074740516
1.0722378e-05
0.00073575259
1.165257e-05
0.00072356073
1.2191866e-05
0.00071111413
1.2446597e-05
0.0006986597
1.2454435e-05
0.00068634744
1.2312254e-05
0.00067425692
1.2090524e-05
0.00066233392
1.1923002e-05
0.0006505248
1.1809114e-05
0.00063892378
1.1601018e-05
0.00062767586
1.1247922e-05
0.00061698702
1.0688845e-05
0.00060693575
1.0051267e-05
0.00059746904
9.4667123e-06
0.00058861893
8.8501023e-06
0.00058043588
8.1830551e-06
0.00057295073
7.4851511e-06
0.00056616712
6.7836114e-06
0.00056006617
6.1009465e-06
0.00055461053
5.4556368e-06
0.00054974905
4.8614864e-06
0.00054542327
4.3257784e-06
0.00054158229
3.8409766e-06
0.00053818243
3.3998592e-06
0.00053517587
3.0065649e-06
0.00053250949
2.6663758e-06
0.00053012834
2.3811551e-06
0.00052798258
2.1457577e-06
0.00052603305
1.9495307e-06
0.00052423678
1.7962712e-06
0.00052255136
1.6854139e-06
0.00052094483
1.6065319e-06
0.00051938846
1.5563751e-06
0.0005178595
1.5289593e-06
0.00051633608
1.5234223e-06
0.00051479259
1.5434831e-06
0.0005132051
1.5874934e-06
0.00051156155
1.6435502e-06
0.00050986126
1.7002884e-06
0.00050810968
1.7515801e-06
0.00050631633
1.7933487e-06
0.00050449212
1.8242162e-06
0.00050265168
1.8404341e-06
0.0005008078
1.8438836e-06
0.00049896557
1.842225e-06
0.00049712771
1.8378613e-06
0.00049529626
1.8314468e-06
0.00049347638
1.8198828e-06
0.00049167311
1.8032709e-06
0.000489889
1.7841145e-06
0.00048812666
1.7623401e-06
0.00048639025
1.7364097e-06
0.00048468228
1.7079691e-06
0.00048300037
1.68191e-06
0.00048134068
1.6596893e-06
0.00047970145
1.6392285e-06
0.00047808205
1.6193969e-06
0.00047648182
1.6002334e-06
0.00047490125
1.5805722e-06
0.00047334242
1.5588291e-06
0.00047180631
1.5361123e-06
0.000470291
1.5153079e-06
0.00046879456
1.4964354e-06
0.00046731525
1.4793102e-06
0.00046585281
1.4624428e-06
0.00046440738
1.445426e-06
0.00046298008
1.4272993e-06
0.00046157198
1.4081001e-06
0.00046018089
1.3910956e-06
0.00045880539
1.3755024e-06
0.0004574449
1.3604904e-06
0.00045609844
1.3464506e-06
0.00045476757
1.3308729e-06
0.00045345264
1.3149338e-06
0.00045215148
1.3011543e-06
0.00045086346
1.2880259e-06
0.0004495878
1.2756564e-06
0.00044832371
1.2640906e-06
0.00044707162
1.2520876e-06
0.0004458286
1.2430219e-06
0.00044459218
1.236424e-06
0.00044335244
1.2397388e-06
0.00044207915
1.2732854e-06
0.0004408492
1.2299554e-06
1.4789389e-06
0.00082684525
1.0459816e-06
-0.00082682299
0.00082687815
1.4026958e-06
0.00082688527
1.6250958e-06
0.00082686963
1.7239063e-06
0.00082684199
1.8115022e-06
0.00082679795
1.904854e-06
0.00082673685
1.9962563e-06
0.00082665629
2.0933891e-06
0.00082655108
2.2059796e-06
0.0008264093
2.3304375e-06
0.00082622009
2.5399871e-06
0.00082585581
2.7631008e-06
0.00082543217
4.0043578e-06
0.0008249439
6.828671e-06
0.00082399128
9.8869854e-06
0.00082232494
1.2388718e-05
0.00081987517
1.4102335e-05
0.00081671538
1.5351664e-05
0.00081291947
1.6242501e-05
0.00080854116
1.6832747e-05
0.00080360098
1.7252433e-05
0.0007981269
1.7564608e-05
0.0007922494
1.78005e-05
0.00078606881
1.7989709e-05
0.00077960355
1.8066274e-05
0.00077287644
1.7975036e-05
0.00076586856
1.7696726e-05
0.00075863584
1.7283983e-05
0.00075129063
1.6811926e-05
0.00074389162
1.6249109e-05
0.00073649297
1.5581702e-05
0.00072914573
1.4832392e-05
0.00072190299
1.4026352e-05
0.00071481895
1.3184988e-05
0.00070794438
1.2330207e-05
0.00070132447
1.1481399e-05
0.00069500701
1.0643236e-05
0.00068900891
9.8390757e-06
0.0006833058
9.1029665e-06
0.00067788467
8.4276995e-06
0.00067274779
7.803251e-06
0.000667895
7.2339443e-06
0.0006633169
6.7238567e-06
0.0006589916
6.2748353e-06
0.00065489848
5.8893883e-06
0.00065102004
5.5638594e-06
0.00064733322
5.293351e-06
0.00064381909
5.0705011e-06
0.00064046629
4.8817589e-06
0.000637234
4.7557164e-06
0.00063407847
4.6990147e-06
0.00063099318
4.6727852e-06
0.00062797998
4.65675e-06
0.000625041
4.639263e-06
0.00062217453
4.6180551e-06
0.0006193761
4.5917759e-06
0.0006166402
4.5601107e-06
0.00061395735
4.5232929e-06
0.00061131599
4.4852379e-06
0.00060871059
4.4476218e-06
0.00060614143
4.4070276e-06
0.00060361
4.3628761e-06
0.00060111918
4.3106988e-06
0.00059867129
4.2511597e-06
0.00059626666
4.1887486e-06
0.00059390585
4.1231541e-06
0.0005915894
4.0528574e-06
0.0005893146
3.9827708e-06
0.00058707633
3.9201743e-06
0.00058487159
3.8644283e-06
0.00058270062
3.810202e-06
0.00058056432
3.7556951e-06
0.00057846255
3.7020085e-06
0.00057639535
3.6477679e-06
0.00057436332
3.5908605e-06
0.00057236506
3.5343749e-06
0.00057039717
3.4831963e-06
0.00056845768
3.435927e-06
0.00056654591
3.3910751e-06
0.00056466209
3.346264e-06
0.00056280633
3.3011895e-06
0.00056097875
3.2548799e-06
0.00055917862
3.2082236e-06
0.00055740328
3.1664386e-06
0.0005556514
3.1273848e-06
0.00055392278
3.0891109e-06
0.00055221694
3.052285e-06
0.00055053446
3.013353e-06
0.00054887456
2.9748388e-06
0.00054723489
2.9408226e-06
0.00054561463
2.9082862e-06
0.00054401344
2.8768486e-06
0.00054243034
2.8471828e-06
0.0005408652
2.8172326e-06
0.00053931297
2.7952478e-06
0.00053777639
2.7730067e-06
0.00053622839
2.7877361e-06
0.00053470412
2.7975548e-06
0.00053296664
2.9674403e-06
2.9621017e-06
0.00085447077
1.0422909e-06
-0.00085446708
0.00085448557
1.3878896e-06
0.00085449734
1.6133302e-06
0.00085449116
1.7300854e-06
0.00085447152
1.8311396e-06
0.00085443862
1.9377533e-06
0.00085439
2.0448837e-06
0.00085432386
2.1595219e-06
0.00085423575
2.2940927e-06
0.00085411315
2.453036e-06
0.00085394589
2.7072488e-06
0.00085364079
3.0682054e-06
0.00085337268
4.2724663e-06
0.00085335896
6.8423904e-06
0.00085349851
9.7474344e-06
0.00085369613
1.2191097e-05
0.00085384365
1.3954815e-05
0.00085389487
1.530044e-05
0.00085379505
1.6342324e-05
0.00085350411
1.7123687e-05
0.00085300689
1.7749656e-05
0.00085228681
1.8284684e-05
0.00085132903
1.8758283e-05
0.00085011703
1.9201709e-05
0.00084859393
1.9589374e-05
0.00084667312
1.989584e-05
0.00084425648
2.0113366e-05
0.00084129007
2.0250396e-05
0.00083777257
2.032943e-05
0.00083367506
2.0346617e-05
0.00082900345
2.0253314e-05
0.00082380081
2.0035028e-05
0.00081810986
1.9717307e-05
0.00081199075
1.9304099e-05
0.00080552182
1.8799136e-05
0.00079879637
1.8206849e-05
0.00079191495
1.7524652e-05
0.00078498425
1.6769772e-05
0.00077810592
1.5981299e-05
0.00077136183
1.5171789e-05
0.00076481762
1.4347467e-05
0.00075852142
1.3530137e-05
0.00075246709
1.2778194e-05
0.00074662728
1.2114646e-05
0.0007410109
1.1505763e-05
0.0007356341
1.0940664e-05
0.00073050868
1.041877e-05
0.00072563498
9.9442025e-06
0.00072099406
9.5226734e-06
0.00071656489
9.1848889e-06
0.00071233161
8.9322905e-06
0.00070827608
8.7283209e-06
0.00070438335
8.5494822e-06
0.00070064359
8.3790221e-06
0.00069704354
8.2181026e-06
0.00069356773
8.0675878e-06
0.00069019981
7.9280318e-06
0.00068691174
7.8113577e-06
0.00068368559
7.7113902e-06
0.00068052542
7.6077945e-06
0.00067743371
7.4987379e-06
0.00067440851
7.3880688e-06
0.00067144794
7.2712741e-06
0.0006685511
7.1480017e-06
0.00066571642
7.0234196e-06
0.00066294285
6.8967285e-06
0.00066022682
6.7688872e-06
0.00065756064
6.6489538e-06
0.00065493879
6.5420229e-06
0.00065236069
6.4425254e-06
0.00064982799
6.3429e-06
0.00064734162
6.2420656e-06
0.00064490092
6.1427091e-06
0.00064250543
6.0432597e-06
0.00064015442
5.9418717e-06
0.00063784435
5.8444468e-06
0.00063557098
5.7565678e-06
0.00063333297
5.6739353e-06
0.00063113047
5.5935772e-06
0.0006289638
5.5129275e-06
0.00062683291
5.4320764e-06
0.00062473711
5.3506848e-06
0.00062267432
5.2710183e-06
0.0006206415
5.199251e-06
0.00061863765
5.1312338e-06
0.00061666288
5.063886e-06
0.00061471688
4.9982791e-06
0.00061279963
4.9306067e-06
0.00061090949
4.8649834e-06
0.00060904392
4.8063909e-06
0.00060720216
4.7500465e-06
0.0006053841
4.694902e-06
0.00060358862
4.6426683e-06
0.00060181508
4.5907739e-06
0.00060005747
4.5528574e-06
0.00059832044
4.5100327e-06
0.00059657008
4.5380985e-06
0.00059486781
4.4998278e-06
0.0005928463
4.9889423e-06
4.5283738e-06
0.00088301903
1.0500119e-06
-0.00088302675
0.00088303031
1.3766023e-06
0.00088304003
1.6036143e-06
0.00088303183
1.7382801e-06
0.00088301054
1.852434e-06
0.00088297624
1.9720546e-06
0.00088292598
2.0951437e-06
0.00088285782
2.2276802e-06
0.00088276751
2.3844002e-06
0.00088264331
2.5772386e-06
0.00088247408
2.8764748e-06
0.00088220432
3.3379712e-06
0.00088195804
4.5187483e-06
0.00088193413
6.8663004e-06
0.00088208456
9.597e-06
0.000882328
1.1947657e-05
0.00088258835
1.3694466e-05
0.00088284945
1.5039343e-05
0.00088309001
1.6101758e-05
0.00088329507
1.6918625e-05
0.00088346673
1.7577999e-05
0.00088360634
1.8145074e-05
0.00088371206
1.8652569e-05
0.00088378412
1.9129646e-05
0.00088381527
1.9558222e-05
0.00088379057
1.9920546e-05
0.00088368952
2.0214409e-05
0.00088348568
2.0454241e-05
0.0008831476
2.0667509e-05
0.0008826373
2.085692e-05
0.00088188308
2.1007535e-05
0.00088079423
2.1123876e-05
0.00087929277
2.1218763e-05
0.00087729957
2.1297298e-05
0.00087473732
2.1361384e-05
0.00087153583
2.1408339e-05
0.00086763582
2.1424661e-05
0.00086303697
2.1368629e-05
0.00085779803
2.1220238e-05
0.00085198693
2.0982888e-05
0.00084569494
2.0639459e-05
0.00083905076
2.0174313e-05
0.00083221127
1.9617686e-05
0.00082532394
1.9001978e-05
0.00081850362
1.8326081e-05
0.00081184055
1.7603737e-05
0.00080541155
1.6847765e-05
0.00079921656
1.6139193e-05
0.0007932156
1.5523632e-05
0.0007874391
1.4961392e-05
0.0007819271
1.4444291e-05
0.00077668955
1.3965868e-05
0.00077171754
1.3521495e-05
0.00076698169
1.3114866e-05
0.00076244744
1.2752356e-05
0.00075809107
1.2423955e-05
0.00075389644
1.2122668e-05
0.00074985302
1.185477e-05
0.000745953
1.1611415e-05
0.00074218275
1.1378038e-05
0.00073852697
1.1154525e-05
0.00073497112
1.0943918e-05
0.00073150712
1.0735273e-05
0.00072813271
1.052241e-05
0.00072484476
1.0311371e-05
0.00072163894
1.0102544e-05
0.00071850329
9.9045358e-06
0.00071542472
9.7275308e-06
0.00071240294
9.5638033e-06
0.00070944187
9.4035891e-06
0.00070654247
9.2423056e-06
0.00070370366
9.080877e-06
0.00070092347
8.9228919e-06
0.00069820078
8.7659511e-06
0.00069553256
8.6100987e-06
0.00069291218
8.4648203e-06
0.00069033559
8.333158e-06
0.00068780327
8.2062535e-06
0.00068531601
8.0808357e-06
0.00068287372
7.9552181e-06
0.00068047587
7.8299317e-06
0.00067812043
7.7061227e-06
0.00067580364
7.5878091e-06
0.00067352246
7.4804331e-06
0.00067127658
7.3771095e-06
0.00066906642
7.2740464e-06
0.00066689166
7.1730371e-06
0.00066475142
7.0708542e-06
0.00066264297
6.9734307e-06
0.00066056371
6.8856492e-06
0.00065851316
6.8005929e-06
0.00065649145
6.7166135e-06
0.00065449712
6.6369964e-06
0.0006525289
6.5589959e-06
0.00065058008
6.5016794e-06
0.00064865647
6.4336414e-06
0.00064672008
6.4744885e-06
0.00064484897
6.3709399e-06
0.00064258914
7.248777e-06
6.203325e-06
0.00091252407
1.0646948e-06
-0.00091253875
0.0009125296
1.3710768e-06
0.00091253358
1.5996292e-06
0.00091252212
1.7497433e-06
0.00091249794
1.8766119e-06
0.00091246132
2.0086735e-06
0.00091240936
2.1471038e-06
0.00091233954
2.2975024e-06
0.00091224765
2.4762925e-06
0.00091212292
2.7019637e-06
0.00091195647
3.0429295e-06
0.00091171346
3.5809783e-06
0.00091148915
4.7430541e-06
0.00091145755
6.8979043e-06
0.0009115981
9.4564497e-06
0.00091183065
1.171511e-05
0.00091208673
1.3438385e-05
0.00091234844
1.4777626e-05
0.00091259957
1.5850632e-05
0.00091282597
1.6692224e-05
0.00091302824
1.7375734e-05
0.00091321057
1.7962736e-05
0.00091337562
1.848752e-05
0.00091352979
1.8975483e-05
0.00091367355
1.9414456e-05
0.00091380502
1.9789083e-05
0.00091392249
2.0096939e-05
0.00091402481
2.0351913e-05
0.0009141132
2.0579119e-05
0.00091418651
2.0783617e-05
0.00091423903
2.0955012e-05
0.00091426374
2.1099167e-05
0.00091425065
2.1231853e-05
0.00091418322
2.1364727e-05
0.00091403613
2.150848e-05
0.00091377247
2.1671991e-05
0.00091333568
2.1861457e-05
0.00091262895
2.2075359e-05
0.00091153478
2.2314408e-05
0.00090993901
2.2578653e-05
0.00090772089
2.285758e-05
0.00090475954
2.3135661e-05
0.00090098795
2.3389278e-05
0.00089643099
2.3558942e-05
0.00089115942
2.3597645e-05
0.00088526209
2.3501074e-05
0.00087886674
2.3243109e-05
0.00087215109
2.2854848e-05
0.00086529324
2.238148e-05
0.00085844187
2.1812757e-05
0.00085172123
2.1164933e-05
0.00084523519
2.0451906e-05
0.00083900326
1.9753431e-05
0.00083297792
1.9140202e-05
0.00082715596
1.8574317e-05
0.00082155885
1.8021069e-05
0.00081620737
1.7474143e-05
0.00081111777
1.6944374e-05
0.00080627309
1.6456092e-05
0.00080163038
1.602075e-05
0.00079715928
1.5625622e-05
0.0007928424
1.5260805e-05
0.00078867329
1.490438e-05
0.00078464586
1.4549836e-05
0.00078074647
1.4210762e-05
0.00077695968
1.3889338e-05
0.00077327516
1.3589054e-05
0.00076968935
1.3313339e-05
0.0007661988
1.3054352e-05
0.0007627976
1.2804795e-05
0.00075947931
1.256059e-05
0.00075623938
1.2320815e-05
0.00075307474
1.2087526e-05
0.00074998337
1.1857326e-05
0.00074695756
1.1635902e-05
0.00074398695
1.1435431e-05
0.00074107072
1.1249394e-05
0.00073821238
1.1064589e-05
0.00073541206
1.0881158e-05
0.00073266824
1.0699039e-05
0.00072997955
1.0518621e-05
0.00072734164
1.0344028e-05
0.00072474866
1.0180796e-05
0.00072219862
1.0030474e-05
0.00071969243
9.8832946e-06
0.00071723051
9.7359702e-06
0.00071481214
9.5914062e-06
0.00071243497
9.4480251e-06
0.00071009489
9.3135083e-06
0.00070778967
9.1908737e-06
0.00070551938
9.070877e-06
0.0007032843
8.9516997e-06
0.00070108231
8.8389809e-06
0.00069891118
8.7301247e-06
0.00069676371
8.6491537e-06
0.00069464672
8.5506296e-06
0.00069251918
8.6020272e-06
0.00069047221
8.4179096e-06
0.00068797945
9.7415353e-06
8.0043785e-06
0.00094301477
1.0851083e-06
-0.00094303518
0.00094301362
1.3722315e-06
0.00094301241
1.600838e-06
0.00094299862
1.7635263e-06
0.00094297254
1.9026994e-06
0.0009429344
2.0468144e-06
0.00094288142
2.200082e-06
0.00094281057
2.3683499e-06
0.00094271773
2.5691333e-06
0.00094259368
2.8260144e-06
0.00094243136
3.2052528e-06
0.00094221085
3.8014808e-06
0.00094200874
4.9451698e-06
0.00094197341
6.9332276e-06
0.00094210393
9.3259315e-06
0.00094232587
1.1493173e-05
0.00094257531
1.3188943e-05
0.00094283121
1.4521725e-05
0.00094307875
1.5603099e-05
0.00094330443
1.6466544e-05
0.00094350824
1.7171915e-05
0.00094369412
1.7776862e-05
0.00094386452
1.8317115e-05
0.00094402509
1.8814922e-05
0.00094417677
1.9262772e-05
0.00094431835
1.9647502e-05
0.00094444788
1.9967411e-05
0.0009445646
2.023519e-05
0.00094467067
2.0473054e-05
0.0009447671
2.0687183e-05
0.00094485294
2.0869176e-05
0.00094492824
2.1023864e-05
0.00094499369
2.1166402e-05
0.00094504988
2.1308537e-05
0.00094509753
2.1460829e-05
0.00094513678
2.1632747e-05
0.00094516668
2.1831552e-05
0.00094518301
2.2059031e-05
0.0009451778
2.2319614e-05
0.00094513745
2.2619003e-05
0.00094503749
2.295754e-05
0.00094483544
2.3337717e-05
0.00094446407
2.3760645e-05
0.00094380107
2.4221943e-05
0.00094268579
2.4712923e-05
0.00094096602
2.5220844e-05
0.00093848372
2.572541e-05
0.00093513754
2.6201024e-05
0.00093093384
2.6585184e-05
0.00092593753
2.6809065e-05
0.00092024537
2.6857097e-05
0.00091399647
2.6700802e-05
0.00090738577
2.6364134e-05
0.00090061532
2.5910654e-05
0.00089384891
2.5340718e-05
0.0008872064
2.4663582e-05
0.00088078343
2.3897113e-05
0.00087458877
2.3139035e-05
0.00086856932
2.2475539e-05
0.00086273312
2.1856958e-05
0.00085711527
2.1243469e-05
0.00085174285
2.0633228e-05
0.00084661035
2.0036881e-05
0.00084167966
1.9480523e-05
0.00083692075
1.8969672e-05
0.00083231801
1.8492074e-05
0.00082787432
1.8032744e-05
0.00082359687
1.7590793e-05
0.00081947196
1.7179259e-05
0.00081547719
1.6799573e-05
0.0008115979
1.6439874e-05
0.00080782875
1.6089966e-05
0.0008041651
1.5751179e-05
0.00080059943
1.5422996e-05
0.00079712414
1.5111192e-05
0.00079373427
1.4825301e-05
0.00079042629
1.4557376e-05
0.00078719671
1.4294165e-05
0.0007840413
1.4036571e-05
0.00078095637
1.3783962e-05
0.00077793961
1.3535387e-05
0.00077498278
1.3300851e-05
0.00077207829
1.3085289e-05
0.00076922747
1.2881298e-05
0.00076643228
1.2678486e-05
0.00076369215
1.2476091e-05
0.00076100547
1.2278094e-05
0.00075836751
1.2085984e-05
0.00075577275
1.1908269e-05
0.00075322029
1.174333e-05
0.00075071086
1.1580304e-05
0.00074824451
1.141805e-05
0.00074581796
1.1265538e-05
0.00074342768
1.1120402e-05
0.00074106634
1.1010497e-05
0.00073874189
1.087508e-05
0.00073641046
1.0933455e-05
0.00073417479
1.0653577e-05
0.00073144086
1.2475464e-05
9.9475184e-06
0.00097452375
1.1101379e-06
-0.00097454878
0.00097451641
1.3795734e-06
0.00097451056
1.6066835e-06
0.0009744943
1.779784e-06
0.00097446608
1.930924e-06
0.00097442602
2.0868738e-06
0.0009743716
2.2545066e-06
0.00097429953
2.440413e-06
0.0009742059
2.6627622e-06
0.00097408308
2.9488379e-06
0.00097392583
3.3625015e-06
0.00097372515
4.0021602e-06
0.00097354397
5.1263529e-06
0.00097350717
6.9700286e-06
0.00097362766
9.2054374e-06
0.00097383988
1.1280957e-05
0.00097408341
1.2945416e-05
0.00097433505
1.4270084e-05
0.00097458103
1.5357116e-05
0.00097480802
1.6239552e-05
0.00097501465
1.6965282e-05
0.00097520349
1.7588031e-05
0.0009753773
1.8143301e-05
0.0009755406
1.8651616e-05
0.00097569438
1.9108993e-05
0.00097583763
1.9504251e-05
0.00097596899
1.9836055e-05
0.00097608812
2.0116063e-05
0.00097619701
2.0364163e-05
0.00097629682
2.0587366e-05
0.00097638669
2.0779306e-05
0.00097646656
2.0943995e-05
0.0009765373
2.1095667e-05
0.00097659944
2.1246401e-05
0.00097665374
2.1406525e-05
0.00097670133
2.1585156e-05
0.00097674339
2.1789494e-05
0.00097678064
2.2021778e-05
0.00097681399
2.2286265e-05
0.00097684438
2.258861e-05
0.00097687216
2.2929761e-05
0.00097689733
2.3312552e-05
0.0009769187
2.3739275e-05
0.00097693155
2.4209089e-05
0.00097692445
2.4720024e-05
0.00097687675
2.5268543e-05
0.0009767494
2.585276e-05
0.00097647935
2.6471071e-05
0.00097594363
2.7120907e-05
0.00097495801
2.7794685e-05
0.00097333818
2.8476926e-05
0.00097089894
2.9140044e-05
0.0009675206
2.9742474e-05
0.00096323566
3.0195595e-05
0.00095814867
3.0427707e-05
0.00095238196
3.0430289e-05
0.00094610339
3.0175689e-05
0.00093952406
2.9718361e-05
0.00093284168
2.9157922e-05
0.00092619896
2.8499676e-05
0.00091969804
2.7744392e-05
0.000913416
2.6915265e-05
0.00090731242
2.6140466e-05
0.00090132684
2.5466097e-05
0.00089550433
2.4792181e-05
0.0008898947
2.410171e-05
0.00088451484
2.3412599e-05
0.00087934278
2.2762858e-05
0.00087435454
2.2167498e-05
0.00086953728
2.1616826e-05
0.00086488826
2.1088895e-05
0.00086040407
2.0574162e-05
0.00085607084
2.0084406e-05
0.00085187059
1.9623242e-05
0.0008477977
1.9184091e-05
0.00084385624
1.8766753e-05
0.00084003853
1.8375087e-05
0.00083633005
1.8002652e-05
0.00083272034
1.7646279e-05
0.0008292037
1.7300595e-05
0.00082577537
1.6963719e-05
0.00082242998
1.6646246e-05
0.00081916276
1.635251e-05
0.00081596967
1.6074385e-05
0.00081284782
1.5800332e-05
0.00080979411
1.5529809e-05
0.00080680552
1.5266682e-05
0.00080387387
1.5017631e-05
0.0008009929
1.4789242e-05
0.00079816465
1.4571577e-05
0.00079538989
1.435506e-05
0.00079266779
1.4140153e-05
0.00078999314
1.3940194e-05
0.000787361
1.3752541e-05
0.00078476456
1.3606932e-05
0.00078221305
1.3426592e-05
0.00077965946
1.3487049e-05
0.00077721752
1.3095516e-05
0.00077422571
1.5467266e-05
1.2049834e-05
0.001007085
1.1388151e-06
-0.0010071137
0.0010070721
1.3924927e-06
0.0010070617
1.6170661e-06
0.0010070427
1.7988178e-06
0.0010070123
1.9613221e-06
0.0010069704
2.1287775e-06
0.0010069147
2.3102071e-06
0.0010068419
2.5132585e-06
0.0010067482
2.7564702e-06
0.0010066275
3.0695402e-06
0.0010064764
3.5135901e-06
0.0010062935
4.1850088e-06
0.0010061317
5.2881958e-06
0.0010060954
7.0063335e-06
0.0010062064
9.0943792e-06
0.0010064092
1.1078233e-05
0.0010066465
1.2708116e-05
0.0010068937
1.4022852e-05
0.0010071378
1.5113017e-05
0.001007366
1.6011303e-05
0.0010075754
1.6755947e-05
0.0010077676
1.7395805e-05
0.0010079453
1.7965579e-05
0.0010081122
1.8484708e-05
0.0010082694
1.8951817e-05
0.0010084159
1.9357747e-05
0.0010085504
1.9701521e-05
0.0010086727
1.9993823e-05
0.0010087843
2.0252502e-05
0.0010088866
2.0485114e-05
0.0010089787
2.068716e-05
0.0010090606
2.0862146e-05
0.0010091329
2.1023364e-05
0.0010091964
2.1182857e-05
0.0010092522
2.135071e-05
0.0010093016
2.1535839e-05
0.0010093457
2.1745392e-05
0.0010093853
2.1982152e-05
0.0010094214
2.2250172e-05
0.001009455
2.2555009e-05
0.0010094865
2.2898256e-05
0.0010095165
2.3282506e-05
0.0010095457
2.371009e-05
0.0010095746
2.4180255e-05
0.0010096035
2.4691107e-05
0.0010096324
2.5239587e-05
0.0010096612
2.5824014e-05
0.0010096886
2.6443667e-05
0.0010097106
2.7098851e-05
0.0010097157
2.7789606e-05
0.0010096806
2.8512051e-05
0.0010095599
2.9260728e-05
0.0010092748
3.0027627e-05
0.0010086673
3.0803088e-05
0.0010075199
3.1575091e-05
0.0010056293
3.2320869e-05
0.0010027915
3.3013531e-05
0.00099893889
3.3570926e-05
0.00099419356
3.3903243e-05
0.00098871022
3.3983022e-05
0.00098265467
3.3799938e-05
0.00097622995
3.3339984e-05
0.00096964606
3.2724363e-05
0.00096305649
3.2055666e-05
0.00095655394
3.1294724e-05
0.00095022427
3.0431385e-05
0.00094404678
2.9590086e-05
0.0009379561
2.8853541e-05
0.00093199551
2.8128091e-05
0.00092623273
2.7379605e-05
0.00092069262
2.6628997e-05
0.00091534992
2.5916867e-05
0.00091018097
2.5253355e-05
0.00090517882
2.4625393e-05
0.00090034824
2.4014667e-05
0.00089569189
2.3423105e-05
0.00089119747
2.2869507e-05
0.00088684913
2.2350993e-05
0.00088263732
2.1858091e-05
0.00087855567
2.1382241e-05
0.00087459381
2.0925578e-05
0.00087074759
2.0492468e-05
0.00086701646
2.0083644e-05
0.00086339063
1.9700209e-05
0.00085985989
1.9331073e-05
0.00085641695
1.8972754e-05
0.0008530563
1.8627324e-05
0.00084977383
1.8300104e-05
0.00084656506
1.799801e-05
0.00084342565
1.7710988e-05
0.00084035273
1.7427983e-05
0.00083734376
1.7149121e-05
0.00083439078
1.6893177e-05
0.0008314877
1.6655613e-05
0.00082862938
1.6465253e-05
0.00082582614
1.6229833e-05
0.00082302703
1.6286157e-05
0.00082035665
1.5765899e-05
0.00081708356
1.8740351e-05
1.4330645e-05
0.0010407338
1.1704207e-06
-0.0010407654
0.0010407158
1.410412e-06
0.0010407011
1.6318635e-06
0.0010406792
1.8207108e-06
0.0010406467
1.9937949e-06
0.0010406031
2.1723943e-06
0.0010405462
2.3670748e-06
0.0010404728
2.5866525e-06
0.0010403794
2.8498365e-06
0.0010402614
3.187602e-06
0.001040117
3.6579804e-06
0.0010399501
4.3518928e-06
0.0010398059
5.4324401e-06
0.0010397715
7.040645e-06
0.0010398739
8.9919861e-06
0.0010400673
1.0884917e-05
0.0010402981
1.2477272e-05
0.0010405409
1.3780096e-05
0.0010407828
1.4871045e-05
0.0010410119
1.5782203e-05
0.0010412237
1.654417e-05
0.0010414192
1.7200287e-05
0.0010416008
1.7784049e-05
0.0010417714
1.8314107e-05
0.0010419321
1.8791053e-05
0.0010420822
1.9207677e-05
0.0010422203
1.9563374e-05
0.0010423462
1.9867925e-05
0.0010424613
2.01374e-05
0.0010425668
2.0379684e-05
0.001042662
2.0591954e-05
0.0010427467
2.0777407e-05
0.0010428217
2.0948402e-05
0.0010428877
2.1116865e-05
0.0010429457
2.1292672e-05
0.001042997
2.1484537e-05
0.0010430428
2.1699557e-05
0.001043084
2.1941004e-05
0.0010431213
2.2212863e-05
0.0010431558
2.2520497e-05
0.0010431882
2.2865904e-05
0.0010432191
2.3251548e-05
0.0010432495
2.3679716e-05
0.0010432799
2.4149891e-05
0.0010433107
2.466023e-05
0.0010433424
2.5207951e-05
0.0010433748
2.5791597e-05
0.0010434079
2.6410595e-05
0.0010434416
2.706508e-05
0.0010434764
2.775482e-05
0.0010435121
2.8476339e-05
0.0010435483
2.9224576e-05
0.0010435833
2.999257e-05
0.0010436108
3.077558e-05
0.001043614
3.1571965e-05
0.0010435572
3.2377617e-05
0.0010433771
3.3193692e-05
0.0010429312
3.4016761e-05
0.0010419939
3.4840617e-05
0.0010403279
3.5649004e-05
0.0010377169
3.6410949e-05
0.0010340189
3.7037953e-05
0.0010293301
3.7413194e-05
0.0010238843
3.7501385e-05
0.0010178719
3.7307176e-05
0.0010114963
3.680698e-05
0.0010049592
3.6127187e-05
0.00099840312
3.5409616e-05
0.00099191067
3.462054e-05
0.00098556222
3.3728058e-05
0.00097933499
3.2856231e-05
0.00097316938
3.2082476e-05
0.00096712101
3.1301723e-05
0.00096126071
3.0485687e-05
0.00095560488
2.9670505e-05
0.00095012826
2.889972e-05
0.00094482176
2.8176011e-05
0.00093969138
2.748137e-05
0.00093474027
2.6809202e-05
0.00092995984
2.6162671e-05
0.00092533404
2.5551377e-05
0.00092085582
2.4970687e-05
0.00091652664
2.4412821e-05
0.00091233831
2.3888545e-05
0.00090827755
2.3391835e-05
0.00090433481
2.2915493e-05
0.00090050171
2.2460425e-05
0.00089677711
2.2024704e-05
0.00089315834
2.1616781e-05
0.00088963388
2.1235449e-05
0.00088619562
2.0866241e-05
0.00088283753
2.0507212e-05
0.00087955354
2.0177161e-05
0.00087634004
1.9869113e-05
0.00087318743
1.961787e-05
0.00087010252
1.9314736e-05
0.00086702917
1.9359507e-05
0.00086410319
1.8691882e-05
0.00086051912
2.2324426e-05
1.6812259e-05
0.0010755062
1.2044389e-06
-0.0010755403
0.0010754839
1.4327638e-06
0.0010754649
1.6508657e-06
0.0010754401
1.845472e-06
0.0010754056
2.0282896e-06
0.0010753604
2.2176368e-06
0.0010753024
2.4250129e-06
0.0010752287
2.6603577e-06
0.0010751362
2.9424105e-06
0.0010750213
3.3024859e-06
0.001074884
3.7952168e-06
0.0010747317
4.5042019e-06
0.0010746036
5.5605883e-06
0.0010745724
7.0717815e-06
0.0010746672
8.8972782e-06
0.0010748513
1.0700814e-05
0.0010750755
1.2253001e-05
0.0010753138
1.3541854e-05
0.0010755534
1.4631434e-05
0.0010757829
1.555268e-05
0.0010759969
1.6330224e-05
0.0010761955
1.700168e-05
0.0010763806
1.75989e-05
0.0010765548
1.8139891e-05
0.0010767191
1.8626757e-05
0.0010768727
1.9054087e-05
0.0010770144
1.9421649e-05
0.001077144
1.9738403e-05
0.0010772625
2.0018858e-05
0.0010773711
2.0271058e-05
0.0010774694
2.0493651e-05
0.0010775572
2.0689686e-05
0.0010776349
2.0870624e-05
0.0010777036
2.1048201e-05
0.0010777641
2.1232122e-05
0.0010778178
2.1430906e-05
0.0010778657
2.1651595e-05
0.0010779089
2.1897882e-05
0.001077948
2.2173735e-05
0.0010779842
2.2484334e-05
0.001078018
2.2832024e-05
0.0010780504
2.3219187e-05
0.001078082
2.3648067e-05
0.0010781136
2.4118373e-05
0.0010781454
2.4628407e-05
0.0010781777
2.5175615e-05
0.0010782107
2.5758565e-05
0.0010782446
2.6376698e-05
0.0010782797
2.7030057e-05
0.0010783162
2.7718273e-05
0.0010783546
2.8437907e-05
0.001078395
2.918425e-05
0.0010784365
2.9951058e-05
0.0010784786
3.073346e-05
0.0010785211
3.1529452e-05
0.0010785632
3.2335526e-05
0.001078604
3.3152887e-05
0.0010786397
3.3981078e-05
0.0010786568
3.4823501e-05
0.0010786219
3.5683895e-05
0.0010784742
3.6558658e-05
0.0010780665
3.7445693e-05
0.0010771485
3.8331214e-05
0.0010754536
3.9196242e-05
0.0010727482
4.0012614e-05
0.0010688968
4.0658366e-05
0.0010640172
4.1006722e-05
0.0010583897
4.1037179e-05
0.0010522532
4.0757047e-05
0.0010458213
4.0159928e-05
0.0010392756
3.9401907e-05
0.0010327292
3.8628913e-05
0.0010262493
3.7781577e-05
0.0010198956
3.6839381e-05
0.0010136216
3.5944569e-05
0.0010073861
3.5135166e-05
0.0010012766
3.42855e-05
0.00099535102
3.3406986e-05
0.00098960888
3.2551342e-05
0.00098403717
3.1734378e-05
0.00097863726
3.0951296e-05
0.00097341623
3.0191712e-05
0.00096837525
2.9453797e-05
0.00096350348
2.8760322e-05
0.00095879146
2.8103853e-05
0.00095423481
2.7472142e-05
0.00094982298
2.6872259e-05
0.00094554811
2.6299574e-05
0.00094140722
2.5757671e-05
0.00093739177
2.5250897e-05
0.00093349111
2.47669e-05
0.00092969515
2.4303169e-05
0.00092599981
2.3872499e-05
0.00092240396
2.3464964e-05
0.00091889242
2.3129416e-05
0.00091546688
2.2740273e-05
0.0009120648
2.2761585e-05
0.00090884042
2.1916259e-05
0.00090490828
2.6256573e-05
1.952079e-05
0.00111144
1.2404927e-06
-0.0011114761
0.0011114138
1.4590128e-06
0.0011113908
1.6738121e-06
0.0011113632
1.8730752e-06
0.0011113267
2.0647605e-06
0.00111128
2.26439e-06
0.0011112211
2.4838676e-06
0.0011111474
2.7341041e-06
0.001111056
3.0337536e-06
0.0011109448
3.413734e-06
0.001110815
3.9250323e-06
0.0011106761
4.6431249e-06
0.0011105625
5.6740974e-06
0.0011105353
7.0989958e-06
0.0011106233
8.8092641e-06
0.0011107985
1.0525684e-05
0.0011110161
1.2035425e-05
0.0011112497
1.3308218e-05
0.0011114867
1.4394421e-05
0.0011117162
1.5323147e-05
0.0011119321
1.6114401e-05
0.0011121335
1.6800192e-05
0.0011123221
1.7410299e-05
0.0011124999
1.7962129e-05
0.0011126677
1.8458961e-05
0.0011128248
1.8896976e-05
0.0011129701
1.9276329e-05
0.0011131033
1.9605232e-05
0.0011132253
1.9896817e-05
0.0011133372
2.0159158e-05
0.0011134387
2.0392177e-05
0.0011135295
2.0598892e-05
0.0011136102
2.0789934e-05
0.0011136816
2.0976775e-05
0.0011137448
2.1168972e-05
0.0011138008
2.1374857e-05
0.001113851
2.1601411e-05
0.0011138962
2.1852689e-05
0.0011139373
2.2132676e-05
0.0011139752
2.2446388e-05
0.0011140108
2.279646e-05
0.0011140447
2.3185239e-05
0.0011140779
2.3614923e-05
0.0011141108
2.4085429e-05
0.001114144
2.4595223e-05
0.0011141776
2.5141968e-05
0.0011142119
2.5724271e-05
0.0011142471
2.6341582e-05
0.0011142832
2.6993867e-05
0.0011143208
2.7680674e-05
0.00111436
2.839873e-05
0.0011144008
2.914342e-05
0.0011144431
2.9908768e-05
0.0011144866
3.068997e-05
0.0011145313
3.1484828e-05
0.0011145768
3.2289985e-05
0.001114623
3.3106715e-05
0.0011146688
3.3935233e-05
0.0011147142
3.4778143e-05
0.001114759
3.5639084e-05
0.0011148024
3.6515249e-05
0.0011148415
3.7406613e-05
0.001114862
3.8310712e-05
0.0011148253
3.9232876e-05