/*--------------------------------*- C++ -*----------------------------------*\
  =========                 |
  \\      /  F ield         | OpenFOAM: The Open Source CFD Toolbox
   \\    /   O peration     | Website:  https://openfoam.org
    \\  /    A nd           | Version:  12
     \\/     M anipulation  |
\*---------------------------------------------------------------------------*/
FoamFile
{
    format      ascii;
    class       surfaceScalarField;
    location    "1700";
    object      phi;
}
// * * * * * * * * * * * * * * * * * * * * * * * * * * * * * * * * * * * * * //

dimensions      [0 3 -1 0 0 0 0];

internalField   nonuniform List<scalar> 
25880
(
2.0046355e-06
1.8609298e-11
2.0045758e-06
5.9708825e-11
2.0044798e-06
9.5981296e-11
2.0043598e-06
1.2003034e-10
2.0042195e-06
1.4031415e-10
2.0040605e-06
1.5902004e-10
2.0038841e-06
1.7635945e-10
2.0036914e-06
1.9276408e-10
2.0034824e-06
2.0893582e-10
2.0032569e-06
2.255563e-10
2.0030136e-06
2.4326144e-10
2.0027508e-06
2.6277674e-10
2.0024658e-06
2.8502993e-10
2.0021544e-06
3.1139533e-10
2.0018108e-06
3.4363381e-10
2.0014254e-06
3.8538133e-10
2.0009859e-06
4.3949894e-10
2.0004639e-06
5.2202717e-10
1.9998383e-06
6.2560391e-10
1.9989699e-06
8.684066e-10
1.9978904e-06
1.0794582e-09
1.9948257e-06
3.0646528e-09
1.9923328e-06
2.492896e-09
1.0225963e-06
9.6973656e-07
3.9141354e-08
9.8345493e-07
2.5360887e-08
1.3780468e-08
2.5058365e-08
3.0252218e-10
2.4831079e-08
2.2728545e-10
2.4259769e-08
5.7130968e-10
2.3636157e-08
6.2361206e-10
2.3074733e-08
5.6142431e-10
2.258958e-08
4.8515275e-10
2.2166151e-08
4.234289e-10
2.1790951e-08
3.7520007e-10
2.1454593e-08
3.3635868e-10
2.1147694e-08
3.0689823e-10
2.0863419e-08
2.8427541e-10
2.0599272e-08
2.6414702e-10
2.0353332e-08
2.459399e-10
2.0124105e-08
2.2922759e-10
1.9909771e-08
2.1433325e-10
1.9708446e-08
2.0132577e-10
1.95187e-08
1.8974544e-10
1.9339199e-08
1.7950144e-10
1.9168779e-08
1.7041924e-10
1.9006579e-08
1.6220003e-10
1.8851897e-08
1.5468226e-10
1.8704122e-08
1.4777474e-10
1.8562561e-08
1.4156132e-10
1.8426767e-08
1.3579428e-10
1.8296316e-08
1.3045025e-10
1.817058e-08
1.2573657e-10
1.8049255e-08
1.2132511e-10
1.79321e-08
1.1715473e-10
1.7818651e-08
1.134493e-10
1.7708659e-08
1.0999226e-10
1.760199e-08
1.0666823e-10
1.7498293e-08
1.0369762e-10
1.7397281e-08
1.0101143e-10
1.7298905e-08
9.8376745e-11
1.7203001e-08
9.5903916e-11
1.7109266e-08
9.3734683e-11
1.7017561e-08
9.1704709e-11
1.6927742e-08
8.9818889e-11
1.6839567e-08
8.8175653e-11
1.6752943e-08
8.6623652e-11
1.6667883e-08
8.5059907e-11
1.6584383e-08
8.3500568e-11
1.650233e-08
8.2052815e-11
1.6421558e-08
8.0772078e-11
1.6341987e-08
7.9570704e-11
1.6263583e-08
7.8403507e-11
1.6186264e-08
7.731934e-11
1.610992e-08
7.6344484e-11
1.6034475e-08
7.5444338e-11
1.5959877e-08
7.4598691e-11
1.588608e-08
7.3796819e-11
1.581302e-08
7.3059493e-11
1.5740622e-08
7.2398754e-11
1.5668841e-08
7.1780754e-11
1.5597629e-08
7.1211584e-11
1.5526925e-08
7.0704603e-11
1.5456686e-08
7.0238431e-11
1.5386877e-08
6.980913e-11
1.5317425e-08
6.945181e-11
1.5248283e-08
6.9142405e-11
1.5179429e-08
6.8853364e-11
1.5110825e-08
6.8604589e-11
1.5042417e-08
6.8407483e-11
1.4974151e-08
6.8266416e-11
1.4905987e-08
6.8163535e-11
1.4837912e-08
6.8075315e-11
1.4769882e-08
6.8029967e-11
1.4701812e-08
6.807057e-11
1.4633648e-08
6.8163523e-11
1.4565391e-08
6.8257442e-11
1.4497004e-08
6.838687e-11
1.4428364e-08
6.8639514e-11
1.43594e-08
6.8964491e-11
1.4290139e-08
6.9260583e-11
1.4220557e-08
6.9581893e-11
1.415055e-08
7.0007108e-11
1.4080037e-08
7.0513189e-11
1.4009006e-08
7.1030623e-11
1.3937408e-08
7.1597931e-11
1.3865109e-08
7.2299451e-11
1.379203e-08
7.3079178e-11
1.3718149e-08
7.3880597e-11
1.3643369e-08
7.4780095e-11
1.3567556e-08
7.5813524e-11
1.3490652e-08
7.6903205e-11
1.3412585e-08
7.8067723e-11
1.3333139e-08
7.9445221e-11
1.3255592e-08
7.7547081e-11
1.3181753e-08
7.3838997e-11
1.3111152e-08
7.0601658e-11
1.3043533e-08
6.7618683e-11
1.2978855e-08
6.4677692e-11
1.2916908e-08
6.1946787e-11
1.2857441e-08
5.9467528e-11
1.2800262e-08
5.7179375e-11
1.2745253e-08
5.5008961e-11
1.2692288e-08
5.2964193e-11
1.2641199e-08
5.1089871e-11
1.2591826e-08
4.9372552e-11
1.2544078e-08
4.774834e-11
1.2497884e-08
4.619372e-11
1.2453148e-08
4.4735781e-11
1.2409727e-08
4.3420868e-11
1.2367517e-08
4.221074e-11
1.2326298e-08
4.1218886e-11
1.2286196e-08
4.010151e-11
1.2246145e-08
4.005082e-11
1.2207738e-08
3.8407695e-11
1.2160668e-08
4.7069346e-11
2.9542266e-11
2.0345092e-06
3.7495983e-11
2.0344486e-06
1.2030745e-10
2.0343512e-06
1.9339283e-10
2.0342293e-06
2.4185039e-10
2.0340869e-06
2.8272194e-10
2.0339255e-06
3.2041447e-10
2.0337465e-06
3.5535381e-10
2.0335509e-06
3.8840953e-10
2.0333388e-06
4.2099572e-10
2.0331099e-06
4.5448568e-10
2.032863e-06
4.9016072e-10
2.0325963e-06
5.294827e-10
2.032307e-06
5.7432095e-10
2.031991e-06
6.2744463e-10
2.0316422e-06
6.9240175e-10
2.0312511e-06
7.7651826e-10
2.030805e-06
8.8555923e-10
2.0302752e-06
1.0518423e-09
2.0296403e-06
1.26054e-09
2.0287589e-06
1.749731e-09
2.0276633e-06
2.1750483e-09
2.0245536e-06
6.1744248e-09
2.0220194e-06
5.0270206e-09
1.0889899e-06
1.9027661e-06
1.1725185e-07
1.955193e-06
7.7601976e-08
5.3430346e-08
7.6676952e-08
1.2275463e-09
7.5979312e-08
9.2492587e-10
7.4229381e-08
2.3212403e-09
7.2320955e-08
2.5320384e-09
7.0603754e-08
2.2786249e-09
6.9119547e-08
1.9693595e-09
6.7823949e-08
1.7190275e-09
6.667593e-08
1.5232193e-09
6.5646789e-08
1.3654995e-09
6.4707781e-08
1.2459064e-09
6.3837987e-08
1.1540691e-09
6.3029777e-08
1.0723566e-09
6.2277281e-08
9.9843598e-10
6.1575917e-08
9.3059202e-10
6.0920121e-08
8.7012867e-10
6.0304123e-08
8.1732375e-10
5.9723555e-08
7.7031432e-10
5.9174331e-08
7.2872466e-10
5.8652892e-08
6.9185828e-10
5.8156607e-08
6.5848547e-10
5.768332e-08
6.2796893e-10
5.7231163e-08
5.9993206e-10
5.6798028e-08
5.7469662e-10
5.6382531e-08
5.5129061e-10
5.598338e-08
5.2960125e-10
5.5598663e-08
5.1045365e-10
5.5227438e-08
4.9255007e-10
5.4868967e-08
4.7562567e-10
5.4521843e-08
4.605739e-10
5.4185295e-08
4.4653989e-10
5.3858911e-08
4.3305203e-10
5.3541619e-08
4.2099032e-10
5.3232553e-08
4.1007741e-10
5.2931542e-08
3.9938705e-10
5.2638092e-08
3.8935406e-10
5.2351285e-08
3.8054149e-10
5.2070695e-08
3.7229513e-10
5.1795868e-08
3.6464546e-10
5.1526065e-08
3.5797921e-10
5.1261016e-08
3.5167232e-10
5.1000756e-08
3.4531996e-10
5.0745262e-08
3.3899416e-10
5.0494194e-08
3.3312142e-10
5.0247048e-08
3.2791764e-10
5.0003582e-08
3.2303702e-10
4.9763685e-08
3.1830041e-10
4.9527101e-08
3.1390321e-10
4.9293501e-08
3.0994457e-10
4.9062658e-08
3.0628701e-10
4.8834405e-08
3.0285204e-10
4.8608601e-08
2.9960071e-10
4.838505e-08
2.9661026e-10
4.8163525e-08
2.9392368e-10
4.7943893e-08
2.9141299e-10
4.7726001e-08
2.891039e-10
4.7509657e-08
2.8704857e-10
4.729474e-08
2.851552e-10
4.7081139e-08
2.8341025e-10
4.6868633e-08
2.8195813e-10
4.665707e-08
2.8070489e-10
4.644639e-08
2.7953377e-10
4.6236474e-08
2.7852084e-10
4.6027162e-08
2.7771941e-10
4.581828e-08
2.7714771e-10
4.5609712e-08
2.7673207e-10
4.5401414e-08
2.7637346e-10
4.5193256e-08
2.7618776e-10
4.4984975e-08
2.7635193e-10
4.4776407e-08
2.7673141e-10
4.456755e-08
2.7711378e-10
4.43583e-08
2.776373e-10
4.4148277e-08
2.7866197e-10
4.3937259e-08
2.7998294e-10
4.3725333e-08
2.8118626e-10
4.3512426e-08
2.8248929e-10
4.3298218e-08
2.8421459e-10
4.3082461e-08
2.8627049e-10
4.286512e-08
2.8837218e-10
4.2646043e-08
2.9067423e-10
4.2424821e-08
2.9352134e-10
4.2201212e-08
2.9668825e-10
4.197515e-08
2.9994258e-10
4.1746337e-08
3.0359297e-10
4.1514362e-08
3.0778866e-10
4.1279052e-08
3.1221343e-10
4.1040179e-08
3.1694075e-10
4.0797092e-08
3.2253277e-10
4.0559811e-08
3.1482762e-10
4.0333877e-08
2.9977339e-10
4.0117849e-08
2.8662933e-10
3.9910948e-08
2.7451944e-10
3.9713046e-08
2.6258019e-10
3.95235e-08
2.5149271e-10
3.934154e-08
2.4142685e-10
3.9166582e-08
2.3213785e-10
3.8998264e-08
2.2332683e-10
3.8836203e-08
2.1502497e-10
3.8679878e-08
2.0741511e-10
3.8528808e-08
2.0044299e-10
3.8382707e-08
1.9384945e-10
3.8241362e-08
1.8753799e-10
3.810448e-08
1.8161821e-10
3.7971621e-08
1.7627933e-10
3.7842467e-08
1.713654e-10
3.7716347e-08
1.6733851e-10
3.7593651e-08
1.6279743e-10
3.7471107e-08
1.6259473e-10
3.7353664e-08
1.5585069e-10
3.7209364e-08
1.9136939e-10
1.1951784e-10
2.0947016e-06
5.6941432e-11
2.0946392e-06
1.8269888e-10
2.094539e-06
2.9368653e-10
2.0944135e-06
3.6727577e-10
2.0942669e-06
4.2934593e-10
2.0941007e-06
4.865891e-10
2.0939164e-06
5.3965148e-10
2.093715e-06
5.898532e-10
2.0934966e-06
6.3934141e-10
2.0932609e-06
6.9020146e-10
2.0930067e-06
7.4437915e-10
2.0927321e-06
8.0409451e-10
2.0924342e-06
8.7218638e-10
2.0921088e-06
9.5286012e-10
2.0917497e-06
1.0515038e-09
2.091347e-06
1.1792426e-09
2.0908877e-06
1.3448316e-09
2.0903422e-06
1.5973468e-09
2.0896885e-06
1.9142753e-09
2.0887811e-06
2.65714e-09
2.087653e-06
3.3030693e-09
2.0844514e-06
9.376104e-09
2.081842e-06
7.6363862e-09
1.1725157e-06
2.8120924e-06
1.9977679e-07
2.9279318e-06
1.3449169e-07
1.1871545e-07
1.3288547e-07
2.8337662e-09
1.3167286e-07
2.1375402e-09
1.2863787e-07
5.3562224e-09
1.2532997e-07
5.8399433e-09
1.2235497e-07
5.2536212e-09
1.1978332e-07
4.5410104e-09
1.1753815e-07
3.9642027e-09
1.155487e-07
3.512663e-09
1.1376531e-07
3.1488929e-09
1.121381e-07
2.8731149e-09
1.1063083e-07
2.6613443e-09
1.0923027e-07
2.4729147e-09
1.0792626e-07
2.3024431e-09
1.0671086e-07
2.1459958e-09
1.0557441e-07
2.0065702e-09
1.0450694e-07
1.884803e-09
1.0350085e-07
1.7764015e-09
1.0254908e-07
1.6804919e-09
1.0164546e-07
1.5954818e-09
1.0078543e-07
1.5185154e-09
9.9965248e-08
1.448148e-09
9.918168e-08
1.3835009e-09
9.8431085e-08
1.3252915e-09
9.771105e-08
1.2713252e-09
9.7019335e-08
1.2213167e-09
9.6352643e-08
1.177145e-09
9.5709327e-08
1.1358661e-09
9.5088106e-08
1.0968468e-09
9.4486556e-08
1.0621236e-09
9.3903336e-08
1.0297606e-09
9.333772e-08
9.9866757e-10
9.2787861e-08
9.7084922e-10
9.2252267e-08
9.4567153e-10
9.1730627e-08
9.210276e-10
9.122208e-08
8.9790059e-10
9.0725053e-08
8.7756848e-10
9.0238805e-08
8.5854331e-10
8.9762538e-08
8.4091265e-10
8.9294969e-08
8.2554765e-10
8.8835648e-08
8.1099371e-10
8.838463e-08
7.9633792e-10
8.7941866e-08
7.817579e-10
8.7506765e-08
7.6822259e-10
8.7078467e-08
7.5621563e-10
8.6656549e-08
7.4495462e-10
8.6240815e-08
7.340349e-10
8.5830817e-08
7.2390151e-10
8.542599e-08
7.1477127e-10
8.5025946e-08
7.0633095e-10
8.4630391e-08
6.9840684e-10
8.4239076e-08
6.9091572e-10
8.3851662e-08
6.8402412e-10
8.3467764e-08
6.7782227e-10
8.3087148e-08
6.7202906e-10
8.2709545e-08
6.6670696e-10
8.2334621e-08
6.6197189e-10
8.1962172e-08
6.5760451e-10
8.1592006e-08
6.535767e-10
8.1223738e-08
6.5022578e-10
8.0857102e-08
6.4734047e-10
8.0491993e-08
6.4464348e-10
8.012821e-08
6.4230304e-10
7.9765477e-08
6.4045253e-10
7.9403489e-08
6.3913598e-10
7.904204e-08
6.381808e-10
7.868106e-08
6.3735324e-10
7.8320326e-08
6.3692223e-10
7.7959378e-08
6.3729987e-10
7.7597931e-08
6.3817848e-10
7.7235983e-08
6.3906207e-10
7.6873354e-08
6.402663e-10
7.6509388e-08
6.4262765e-10
7.6143694e-08
6.4567668e-10
7.5776427e-08
6.4845376e-10
7.540746e-08
6.5145646e-10
7.5036241e-08
6.5543364e-10
7.4662334e-08
6.6017695e-10
7.4285681e-08
6.6502539e-10
7.3906023e-08
6.7033248e-10
7.3522647e-08
6.7689685e-10
7.3135133e-08
6.8420233e-10
7.2743367e-08
6.9170841e-10
7.2346836e-08
7.0012464e-10
7.1944824e-08
7.098006e-10
7.1537031e-08
7.2000615e-10
7.1123064e-08
7.3090742e-10
7.0701794e-08
7.4380289e-10
7.0290586e-08
7.2603532e-10
6.9899042e-08
6.9131817e-10
6.9524666e-08
6.6100463e-10
6.9166108e-08
6.3307827e-10
6.8823142e-08
6.0554583e-10
6.8494659e-08
5.7997586e-10
6.8179324e-08
5.5676179e-10
6.7876121e-08
5.3534094e-10
6.7584425e-08
5.150223e-10
6.7303574e-08
4.9587637e-10
6.7032663e-08
4.7832619e-10
6.6770858e-08
4.6224741e-10
6.6517665e-08
4.4704257e-10
6.6272716e-08
4.3248749e-10
6.60355e-08
4.1883437e-10
6.5805258e-08
4.0652093e-10
6.5581436e-08
3.9518735e-10
6.5362876e-08
3.8589903e-10
6.5150251e-08
3.7542218e-10
6.4937897e-08
3.7494819e-10
6.4734433e-08
3.5931471e-10
6.4484174e-08
4.4162875e-10
2.7516311e-10
2.1861099e-06
7.7235427e-11
2.1860448e-06
2.4781287e-10
2.1859401e-06
3.9835701e-10
2.1858092e-06
4.9817578e-10
2.1856562e-06
5.8237165e-10
2.1854828e-06
6.6002118e-10
2.1852904e-06
7.3200023e-10
2.1850802e-06
8.0009878e-10
2.1848523e-06
8.6722881e-10
2.1846063e-06
9.3621869e-10
2.184341e-06
1.0097077e-09
2.1840543e-06
1.0907072e-09
2.1837435e-06
1.1830678e-09
2.1834038e-06
1.292494e-09
2.183029e-06
1.4262942e-09
2.1826087e-06
1.5995585e-09
2.1821294e-06
1.8241627e-09
2.1815601e-06
2.1666722e-09
2.1808778e-06
2.5965543e-09
2.1799308e-06
3.6041553e-09
2.1787535e-06
4.4803366e-09
2.1754123e-06
1.2717338e-08
2.1726885e-06
1.0360117e-08
1.2765114e-06
3.7082696e-06
2.9133437e-07
3.9131089e-06
1.9942844e-07
2.1062137e-07
1.9704246e-07
5.2197503e-09
1.9523572e-07
3.9442811e-09
1.9073242e-07
9.8595182e-09
1.8582708e-07
1.0745287e-08
1.8141768e-07
9.6630181e-09
1.776057e-07
8.3529868e-09
1.7427716e-07
7.2927443e-09
1.713277e-07
6.4621271e-09
1.6868376e-07
5.7928291e-09
1.6627136e-07
5.2855165e-09
1.6403674e-07
4.8959626e-09
1.6196033e-07
4.5493275e-09
1.6002706e-07
4.2357147e-09
1.5822514e-07
3.9479158e-09
1.5654027e-07
3.6914352e-09
1.5495764e-07
3.4674357e-09
1.5346602e-07
3.2680231e-09
1.5205493e-07
3.091584e-09
1.5071521e-07
2.935203e-09
1.4944012e-07
2.7936031e-09
1.482241e-07
2.664161e-09
1.4706236e-07
2.5452427e-09
1.4594952e-07
2.4381368e-09
1.4488197e-07
2.3388711e-09
1.438564e-07
2.2468849e-09
1.4286795e-07
2.1656009e-09
1.4191414e-07
2.089673e-09
1.4099308e-07
2.0179052e-09
1.401012e-07
1.9540071e-09
1.3923649e-07
1.8944697e-09
1.3839787e-07
1.8372863e-09
1.3758262e-07
1.7861043e-09
1.3678852e-07
1.7397676e-09
1.360151e-07
1.6944444e-09
1.3526109e-07
1.651914e-09
1.3452416e-07
1.6144942e-09
1.3380323e-07
1.5794803e-09
1.3309708e-07
1.5470617e-09
1.3240382e-07
1.5188079e-09
1.3172279e-07
1.4920177e-09
1.3105409e-07
1.4650444e-09
1.3039761e-07
1.4382346e-09
1.2975249e-07
1.4133464e-09
1.2911746e-07
1.3912471e-09
1.2849189e-07
1.3705203e-09
1.2787549e-07
1.3504371e-09
1.2726758e-07
1.3318061e-09
1.2666735e-07
1.3150077e-09
1.2607421e-07
1.2994703e-09
1.2548773e-07
1.2848883e-09
1.2490752e-07
1.2711181e-09
1.243331e-07
1.2584472e-09
1.2376389e-07
1.2470279e-09
1.2319956e-07
1.2363642e-09
1.2263969e-07
1.2265783e-09
1.2208378e-07
1.2178751e-09
1.2153155e-07
1.2098391e-09
1.209827e-07
1.2024226e-09
1.2043668e-07
1.1962548e-09
1.1989306e-07
1.1909547e-09
1.1935171e-07
1.1859992e-09
1.1881232e-07
1.1816868e-09
1.182745e-07
1.1782783e-09
1.1773777e-07
1.1758597e-09
1.1720184e-07
1.1741082e-09
1.1666661e-07
1.1725852e-09
1.1613175e-07
1.1717878e-09
1.1559657e-07
1.1724815e-09
1.1506064e-07
1.1741039e-09
1.1452397e-07
1.1757327e-09
1.1398629e-07
1.1779436e-09
1.1344663e-07
1.1822854e-09
1.1290441e-07
1.1878997e-09
1.1235985e-07
1.1930125e-09
1.1181278e-07
1.1985336e-09
1.1126236e-07
1.2058483e-09
1.1070796e-07
1.2145787e-09
1.1014948e-07
1.2235019e-09
1.0958655e-07
1.2332632e-09
1.0901811e-07
1.2453382e-09
1.0844353e-07
1.2587825e-09
1.0786264e-07
1.2725942e-09
1.0727469e-07
1.2880754e-09
1.0667862e-07
1.3058775e-09
1.0607397e-07
1.3246561e-09
1.0546016e-07
1.3447116e-09
1.0483553e-07
1.3684362e-09
1.0422581e-07
1.3357504e-09
1.0364525e-07
1.2718784e-09
1.0309015e-07
1.2161058e-09
1.025585e-07
1.1647285e-09
1.0204997e-07
1.1140766e-09
1.0156292e-07
1.0670323e-09
1.0109536e-07
1.0243222e-09
1.0064578e-07
9.849138e-10
1.0021327e-07
9.4753323e-10
9.979684e-08
9.1230775e-10
9.9395149e-08
8.8001781e-10
9.900696e-08
8.5043615e-10
9.8631539e-08
8.2246377e-10
9.8268341e-08
7.956855e-10
9.791661e-08
7.7056459e-10
9.7575223e-08
7.4790806e-10
9.7243356e-08
7.2705478e-10
9.6919293e-08
7.0996143e-10
9.6604033e-08
6.9068296e-10
9.6289196e-08
6.8978524e-10
9.5987568e-08
6.6094208e-10
9.5616385e-08
8.1281228e-10
5.057807e-10
2.3100962e-06
9.8680402e-11
2.3100274e-06
3.1661978e-10
2.3099168e-06
5.089641e-10
2.3097785e-06
6.365014e-10
2.3096168e-06
7.4408018e-10
2.3094335e-06
8.4329645e-10
2.3092302e-06
9.3526827e-10
2.3090081e-06
1.0222817e-09
2.3087672e-06
1.1080568e-09
2.3085072e-06
1.1962068e-09
2.3082269e-06
1.2901038e-09
2.307924e-06
1.3935955e-09
2.3075954e-06
1.5116019e-09
2.3072365e-06
1.6514113e-09
2.3068404e-06
1.8223617e-09
2.3063963e-06
2.0437332e-09
2.3058897e-06
2.3306993e-09
2.3052881e-06
2.7683058e-09
2.3045671e-06
3.3175475e-09
2.3035664e-06
4.6048886e-09
2.3023223e-06
5.7244011e-09
2.2987918e-06
1.6247834e-08
2.2959128e-06
1.32391e-08
1.4045853e-06
4.5995971e-06
3.9681831e-07
4.9208759e-06
2.7627728e-07
3.311624e-07
2.7295541e-07
8.5416239e-09
2.7043079e-07
6.4689039e-09
2.6418943e-07
1.6100872e-08
2.5739607e-07
1.7538651e-08
2.5129277e-07
1.5766319e-08
2.4601574e-07
1.3630015e-08
2.4140714e-07
1.1901348e-08
2.3732324e-07
1.0546019e-08
2.3366241e-07
9.453667e-09
2.3032209e-07
8.6258295e-09
2.2722788e-07
7.9901763e-09
2.2435269e-07
7.4245188e-09
2.2167567e-07
6.9127298e-09
2.1918051e-07
6.4430832e-09
2.1684739e-07
6.0245515e-09
2.1465581e-07
5.659019e-09
2.1259023e-07
5.3336041e-09
2.1063614e-07
5.045671e-09
2.0878086e-07
4.7904771e-09
2.0701509e-07
4.5593823e-09
2.0533109e-07
4.3481536e-09
2.0372224e-07
4.1540977e-09
2.021811e-07
3.9792751e-09
2.0070267e-07
3.8172966e-09
1.9928236e-07
3.6671956e-09
1.9791346e-07
3.5345086e-09
1.9659252e-07
3.4106115e-09
1.9531691e-07
3.2935094e-09
1.9408172e-07
3.1892e-09
1.9288416e-07
3.0920338e-09
1.917227e-07
2.9987378e-09
1.9059361e-07
2.9151996e-09
1.8949383e-07
2.8395505e-09
1.8842267e-07
2.7656032e-09
1.8737836e-07
2.696218e-09
1.8635773e-07
2.6351244e-09
1.8535925e-07
2.5779597e-09
1.8438124e-07
2.5250774e-09
1.8342106e-07
2.4789869e-09
1.8247784e-07
2.4352405e-09
1.8155168e-07
2.391201e-09
1.8064245e-07
2.3474672e-09
1.7974893e-07
2.3068687e-09
1.7886939e-07
2.2707868e-09
1.7800296e-07
2.2369435e-09
1.7714922e-07
2.2041765e-09
1.7630724e-07
2.1737885e-09
1.7547588e-07
2.1463711e-09
1.7465435e-07
2.1209978e-09
1.7384204e-07
2.0971935e-09
1.7303842e-07
2.0747383e-09
1.722428e-07
2.0540713e-09
1.7145441e-07
2.0354201e-09
1.7067277e-07
2.0180071e-09
1.698973e-07
2.0020452e-09
1.6912732e-07
1.9878544e-09
1.6836242e-07
1.9747382e-09
1.6760222e-07
1.9626241e-09
1.6684592e-07
1.9525542e-09
1.6609296e-07
1.9439182e-09
1.6534311e-07
1.9358411e-09
1.6459601e-07
1.9287939e-09
1.6385106e-07
1.9232252e-09
1.6310763e-07
1.9192852e-09
1.6236531e-07
1.9164369e-09
1.6162394e-07
1.913952e-09
1.6088308e-07
1.9126447e-09
1.6014179e-07
1.913777e-09
1.5939945e-07
1.9164362e-09
1.5865608e-07
1.9191016e-09
1.5791132e-07
1.9227045e-09
1.5716382e-07
1.9297891e-09
1.5641276e-07
1.938962e-09
1.5565846e-07
1.9473148e-09
1.5490067e-07
1.9563231e-09
1.5413825e-07
1.9682606e-09
1.5337031e-07
1.9825184e-09
1.5259673e-07
1.9970898e-09
1.5181697e-07
2.0130205e-09
1.5102958e-07
2.0327289e-09
1.5023368e-07
2.0546811e-09
1.4942904e-07
2.0772307e-09
1.4861462e-07
2.1024978e-09
1.4778894e-07
2.1315581e-09
1.4695138e-07
2.1622158e-09
1.4610114e-07
2.1949533e-09
1.4523589e-07
2.23368e-09
1.4439131e-07
2.1803333e-09
1.4358711e-07
2.0760775e-09
1.4281818e-07
1.9850383e-09
1.4208173e-07
1.9011784e-09
1.413773e-07
1.8185039e-09
1.4070262e-07
1.7417132e-09
1.4005495e-07
1.6719968e-09
1.3943219e-07
1.6076739e-09
1.3883306e-07
1.5466606e-09
1.3825621e-07
1.4891613e-09
1.3769977e-07
1.4364529e-09
1.3716204e-07
1.3881672e-09
1.3664199e-07
1.3425105e-09
1.3613888e-07
1.2988007e-09
1.3565165e-07
1.257793e-09
1.3517875e-07
1.2208069e-09
1.3471904e-07
1.1867658e-09
1.3427015e-07
1.1588552e-09
1.3383344e-07
1.1273857e-09
1.3339736e-07
1.1258657e-09
1.329796e-07
1.078705e-09
1.3246534e-07
1.327071e-09
8.2513334e-10
2.4685083e-06
1.2159594e-10
2.4684347e-06
3.9014495e-10
2.4683165e-06
6.2715612e-10
2.4681687e-06
7.8431433e-10
2.4679959e-06
9.1688226e-10
2.4678001e-06
1.0391477e-09
2.4675829e-06
1.1524871e-09
2.4673454e-06
1.2597162e-09
2.4670881e-06
1.3654179e-09
2.4668102e-06
1.4740444e-09
2.4665106e-06
1.5897507e-09
2.4661869e-06
1.7172781e-09
2.4658358e-06
1.8626894e-09
2.4654522e-06
2.0349657e-09
2.465029e-06
2.2456138e-09
2.4645543e-06
2.5183908e-09
2.464013e-06
2.8719945e-09
2.4633701e-06
3.4112173e-09
2.4625997e-06
4.0880036e-09
2.4615303e-06
5.6742516e-09
2.4602009e-06
7.0538118e-09
2.4564287e-06
2.0020084e-08
2.4533511e-06
1.6316613e-08
1.560752e-06
5.4921963e-06
5.2162177e-07
5.9600061e-06
3.6954702e-07
4.8323714e-07
3.6503715e-07
1.305149e-08
3.6160883e-07
9.8972312e-09
3.5326278e-07
2.4446925e-08
3.4418879e-07
2.6612635e-08
3.3604073e-07
2.3914375e-08
3.2899449e-07
2.0676262e-08
3.2283937e-07
1.8056472e-08
3.1738461e-07
1.6000776e-08
3.1249476e-07
1.434352e-08
3.0803281e-07
1.3087778e-08
3.0389939e-07
1.2123597e-08
3.0005839e-07
1.1265519e-08
2.9648199e-07
1.0489128e-08
2.931484e-07
9.7766753e-09
2.9003118e-07
9.1417698e-09
2.8710294e-07
8.5872513e-09
2.8434297e-07
8.0935774e-09
2.8173189e-07
7.656754e-09
2.7925277e-07
7.2695997e-09
2.7689317e-07
6.918974e-09
2.746428e-07
6.5985228e-09
2.7249278e-07
6.304119e-09
2.7043323e-07
6.0388325e-09
2.6845742e-07
5.7931018e-09
2.6655923e-07
5.5653868e-09
2.6472972e-07
5.3640183e-09
2.6296428e-07
5.1760553e-09
2.6125938e-07
4.9984104e-09
2.5960847e-07
4.8401012e-09
2.5800784e-07
4.6926679e-09
2.5645543e-07
4.5511495e-09
2.5494625e-07
4.4243818e-09
2.5347624e-07
4.3095567e-09
2.5204446e-07
4.1973846e-09
2.5064853e-07
4.0921416e-09
2.4928425e-07
3.9994059e-09
2.4794958e-07
3.9126345e-09
2.4664222e-07
3.8324323e-09
2.4535868e-07
3.7625276e-09
2.4409781e-07
3.6961122e-09
2.4285975e-07
3.6292604e-09
2.4164429e-07
3.562932e-09
2.404498e-07
3.5013598e-09
2.3927399e-07
3.446588e-09
2.3811573e-07
3.3952104e-09
2.369744e-07
3.3455062e-09
2.3584876e-07
3.2994254e-09
2.3473731e-07
3.2578218e-09
2.3363901e-07
3.2192978e-09
2.3255303e-07
3.1831708e-09
2.3147864e-07
3.1491277e-09
2.3041493e-07
3.1177887e-09
2.2936088e-07
3.0894683e-09
2.2831585e-07
3.0630335e-09
2.2727907e-07
3.0388302e-09
2.262496e-07
3.0173205e-09
2.2522692e-07
2.99742e-09
2.2421052e-07
2.9790256e-09
2.2319933e-07
2.963744e-09
2.2219258e-07
2.9506654e-09
2.2118999e-07
2.9384295e-09
2.2019106e-07
2.9277268e-09
2.1919501e-07
2.9192723e-09
2.1820099e-07
2.91331e-09
2.1720841e-07
2.9090096e-09
2.1621712e-07
2.9052458e-09
2.1522651e-07
2.9032587e-09
2.142353e-07
2.904984e-09
2.1324269e-07
2.9090437e-09
2.1224869e-07
2.9131061e-09
2.1125282e-07
2.9185728e-09
2.1025328e-07
2.9293292e-09
2.0924897e-07
2.9432735e-09
2.0824031e-07
2.9559703e-09
2.0722699e-07
2.9696456e-09
2.0620748e-07
2.9877693e-09
2.0518057e-07
3.0094302e-09
2.0414609e-07
3.0315658e-09
2.0310336e-07
3.0557512e-09
2.0205042e-07
3.0856727e-09
2.0098609e-07
3.1190143e-09
1.9991006e-07
3.1532592e-09
1.9882094e-07
3.1916181e-09
1.9771675e-07
3.2357421e-09
1.9659667e-07
3.2822971e-09
1.9545962e-07
3.3320025e-09
1.943025e-07
3.3908004e-09
1.93173e-07
3.3098344e-09
1.920975e-07
3.1515791e-09
1.9106916e-07
3.0133798e-09
1.9008425e-07
2.8860858e-09
1.8914216e-07
2.7605929e-09
1.8823985e-07
2.6440242e-09
1.8737365e-07
2.5381934e-09
1.8654077e-07
2.4405557e-09
1.8573949e-07
2.3479416e-09
1.84968e-07
2.2606555e-09
1.8422381e-07
2.1806408e-09
1.8350463e-07
2.1073431e-09
1.828091e-07
2.0380392e-09
1.8213622e-07
1.9716873e-09
1.8148458e-07
1.9094321e-09
1.8085211e-07
1.85328e-09
1.8023727e-07
1.8016014e-09
1.7963691e-07
1.7592166e-09
1.7905285e-07
1.7114468e-09
1.7846967e-07
1.7090433e-09
1.77911e-07
1.6373721e-09
1.7722314e-07
2.0149365e-09
1.2521891e-09
2.6637067e-06
1.4632355e-10
2.6636273e-06
4.6948408e-10
2.6634998e-06
7.5469438e-10
2.6633403e-06
9.4381774e-10
2.6631538e-06
1.1033542e-09
2.6629425e-06
1.2504958e-09
2.662708e-06
1.386897e-09
2.6624518e-06
1.5159446e-09
2.6621741e-06
1.6431524e-09
2.6618742e-06
1.7738774e-09
2.6615509e-06
1.9131197e-09
2.6612016e-06
2.0665848e-09
2.6608227e-06
2.2415689e-09
2.6604088e-06
2.4488797e-09
2.659952e-06
2.7023642e-09
2.6594398e-06
3.0306111e-09
2.6588557e-06
3.4561209e-09
2.6581619e-06
4.1049928e-09
2.6573305e-06
4.9194096e-09
2.6561766e-06
6.8281777e-09
2.654742e-06
8.4883931e-09
2.6506719e-06
2.4090136e-08
2.6473495e-06
1.9639051e-08
1.7495436e-06
6.3900022e-06
6.7182449e-07
7.0377252e-06
4.8452605e-07
6.7053558e-07
4.7838325e-07
1.9194297e-08
4.7377119e-07
1.450929e-08
4.6285113e-07
3.5366978e-08
4.5099999e-07
3.8463779e-08
4.4036294e-07
3.4551427e-08
4.3116149e-07
2.9877711e-08
4.2312111e-07
2.609685e-08
4.1599446e-07
2.3127428e-08
4.0960514e-07
2.0732834e-08
4.0377425e-07
1.8918669e-08
3.9837209e-07
1.7525764e-08
3.9335157e-07
1.6286041e-08
3.8867642e-07
1.5164277e-08
3.8431823e-07
1.4134865e-08
3.8024252e-07
1.3217481e-08
3.7641355e-07
1.2416214e-08
3.728043e-07
1.1702826e-08
3.693895e-07
1.1071562e-08
3.6614702e-07
1.0512071e-08
3.6306068e-07
1.0005313e-08
3.60117e-07
9.5422033e-09
3.573044e-07
9.1167191e-09
3.5461001e-07
8.7332259e-09
3.5202502e-07
8.3780886e-09
3.4954143e-07
8.048978e-09
3.4714761e-07
7.7578429e-09
3.4483749e-07
7.486178e-09
3.4260646e-07
7.2294368e-09
3.4044602e-07
7.0005379e-09
3.3835128e-07
6.7874116e-09
3.3631953e-07
6.5828956e-09
3.3434429e-07
6.3996223e-09
3.3242028e-07
6.2335739e-09
3.305462e-07
6.0714605e-09
3.2871897e-07
5.9193735e-09
3.2693311e-07
5.7852605e-09
3.2518597e-07
5.6597738e-09
3.2347452e-07
5.5438869e-09
3.2179417e-07
5.4428743e-09
3.2014348e-07
5.3468071e-09
3.1852262e-07
5.2501219e-09
3.1693127e-07
5.1542811e-09
3.1536731e-07
5.0653143e-09
3.138278e-07
4.9861023e-09
3.1231121e-07
4.9117931e-09
3.1081676e-07
4.8399628e-09
3.0934279e-07
4.7733914e-09
3.0788737e-07
4.7132488e-09
3.0644914e-07
4.6575258e-09
3.0502701e-07
4.6052934e-09
3.0362001e-07
4.5561283e-09
3.0222694e-07
4.5108591e-09
3.0084652e-07
4.4698958e-09
2.9947788e-07
4.4316682e-09
2.9812e-07
4.3967122e-09
2.9677166e-07
4.3656605e-09
2.9543218e-07
4.3369037e-09
2.941009e-07
4.3103027e-09
2.9277642e-07
4.2882206e-09
2.9145772e-07
4.2693646e-09
2.9014443e-07
4.2517191e-09
2.8883591e-07
4.2362473e-09
2.8753115e-07
4.2240333e-09
2.8622901e-07
4.2154556e-09
2.8492873e-07
4.2092891e-09
2.836301e-07
4.2038764e-09
2.8233234e-07
4.2010184e-09
2.8103377e-07
4.203546e-09
2.7973334e-07
4.2094763e-09
2.7843105e-07
4.2154005e-09
2.7712629e-07
4.2233282e-09
2.758167e-07
4.2389181e-09
2.7450083e-07
4.2591476e-09
2.7317923e-07
4.277568e-09
2.718515e-07
4.2973801e-09
2.7051563e-07
4.3236326e-09
2.6917004e-07
4.3550265e-09
2.678145e-07
4.3871056e-09
2.6644812e-07
4.4221312e-09
2.6506833e-07
4.4654609e-09
2.6367358e-07
4.5137609e-09
2.6226348e-07
4.5633635e-09
2.6083619e-07
4.6189039e-09
2.5938914e-07
4.6827989e-09
2.5792121e-07
4.7502215e-09
2.5643102e-07
4.8221945e-09
2.5491449e-07
4.9073286e-09
2.5343413e-07
4.7901985e-09
2.5202451e-07
4.5611971e-09
2.5067668e-07
4.3612064e-09
2.4938576e-07
4.1770059e-09
2.4815094e-07
3.9954144e-09
2.4696824e-07
3.8267252e-09
2.4583286e-07
3.673573e-09
2.4474113e-07
3.5322856e-09
2.4369081e-07
3.3982664e-09
2.4267951e-07
3.2719476e-09
2.4170401e-07
3.1561492e-09
2.4076127e-07
3.0500762e-09
2.3984952e-07
2.9497869e-09
2.3896745e-07
2.8537639e-09
2.3811322e-07
2.7636618e-09
2.3728411e-07
2.682389e-09
2.3647812e-07
2.6075953e-09
2.356911e-07
2.5462317e-09
2.3492544e-07
2.4771042e-09
2.3416101e-07
2.4734751e-09
2.3342871e-07
2.3696699e-09
2.3252689e-07
2.9167587e-09
1.8120191e-09
2.8986004e-06
1.7323175e-10
2.898514e-06
5.5581948e-10
2.8983752e-06
8.9347949e-10
2.8982017e-06
1.1173892e-09
2.8979987e-06
1.3062763e-09
2.8977688e-06
1.4804928e-09
2.8975137e-06
1.641995e-09
2.8972348e-06
1.7947905e-09
2.8969326e-06
1.9454055e-09
2.8966062e-06
2.1001814e-09
2.8962543e-06
2.2650377e-09
2.8958742e-06
2.4467294e-09
2.8954619e-06
2.6538949e-09
2.8950114e-06
2.8993298e-09
2.8945143e-06
3.1994281e-09
2.8939569e-06
3.5880354e-09
2.8933213e-06
4.0917913e-09
2.8925663e-06
4.8599778e-09
2.8916615e-06
5.8241621e-09
2.8904058e-06
8.0838585e-09
2.8888447e-06
1.0049542e-08
2.8844164e-06
2.8518399e-08
2.8807988e-06
2.3256692e-08
1.9761008e-06
7.2947001e-06
8.5432532e-07
8.1595007e-06
6.2730143e-07
8.9755947e-07
6.1866442e-07
2.7831308e-08
6.124388e-07
2.0734906e-08
5.9837997e-07
4.9425807e-08
5.8316865e-07
5.3675099e-08
5.6952012e-07
4.8199954e-08
5.5770786e-07
4.1689976e-08
5.4738126e-07
3.6423453e-08
5.3822547e-07
3.2283211e-08
5.3001495e-07
2.8943361e-08
5.2252028e-07
2.6413341e-08
5.1557519e-07
2.4470849e-08
5.0911933e-07
2.2741903e-08
5.0310625e-07
2.1177352e-08
4.9749966e-07
1.9741462e-08
4.922554e-07
1.8461741e-08
4.8732771e-07
1.7343903e-08
4.8268197e-07
1.6348566e-08
4.7828578e-07
1.5467748e-08
4.7411081e-07
1.4687042e-08
4.701363e-07
1.397982e-08
4.6634496e-07
1.3333544e-08
4.6272195e-07
1.2739728e-08
4.592508e-07
1.220438e-08
4.5592017e-07
1.170872e-08
4.5271979e-07
1.1249356e-08
4.4963478e-07
1.0842855e-08
4.466573e-07
1.0463652e-08
4.4378145e-07
1.0105286e-08
4.4099635e-07
9.7856392e-09
4.3829569e-07
9.4880792e-09
4.3567597e-07
9.2026165e-09
4.3312889e-07
8.9466996e-09
4.3064768e-07
8.7147803e-09
4.2823065e-07
8.4884881e-09
4.2587382e-07
8.2762064e-09
4.2357021e-07
8.0888749e-09
4.2131639e-07
7.913595e-09
4.1910841e-07
7.7518592e-09
4.1694041e-07
7.6108728e-09
4.1481056e-07
7.4766566e-09
4.1271909e-07
7.3415984e-09
4.1066553e-07
7.2078416e-09
4.0864716e-07
7.083681e-09
4.0666023e-07
6.9730382e-09
4.0470278e-07
6.8692363e-09
4.0277376e-07
6.7689807e-09
4.0087106e-07
6.6760987e-09
3.9899217e-07
6.5921352e-09
3.971354e-07
6.5142977e-09
3.9529932e-07
6.4413731e-09
3.9348264e-07
6.3728103e-09
3.9168383e-07
6.3096699e-09
3.8990126e-07
6.2524625e-09
3.8813384e-07
6.1990901e-09
3.863802e-07
6.1503544e-09
3.8463877e-07
6.1070872e-09
3.8290869e-07
6.0669814e-09
3.8118914e-07
6.0298559e-09
3.7947829e-07
5.999073e-09
3.7777479e-07
5.9728569e-09
3.7607819e-07
5.9483201e-09
3.7438768e-07
5.9267597e-09
3.7270195e-07
5.9097628e-09
3.7101951e-07
5.8978963e-09
3.6933939e-07
5.8894115e-09
3.6766131e-07
5.8819489e-09
3.659843e-07
5.8780365e-09
3.6430616e-07
5.8816795e-09
3.6262552e-07
5.8901186e-09
3.6094239e-07
5.8985348e-09
3.59256e-07
5.9097141e-09
3.5756329e-07
5.9316256e-09
3.5586237e-07
5.9600681e-09
3.5415397e-07
5.9859742e-09
3.5243755e-07
6.0137933e-09
3.5071056e-07
6.0506305e-09
3.4897089e-07
6.0946959e-09
3.4721827e-07
6.1397188e-09
3.4545157e-07
6.1888379e-09
3.4366744e-07
6.2495844e-09
3.4186388e-07
6.3173187e-09