/*--------------------------------*- C++ -*----------------------------------*\
  =========                 |
  \\      /  F ield         | OpenFOAM: The Open Source CFD Toolbox
   \\    /   O peration     | Website:  https://openfoam.org
    \\  /    A nd           | Version:  12
     \\/     M anipulation  |
\*---------------------------------------------------------------------------*/
FoamFile
{
    format      ascii;
    class       volVectorField;
    location    "1700";
    object      U;
}
// * * * * * * * * * * * * * * * * * * * * * * * * * * * * * * * * * * * * * //

dimensions      [0 1 -1 0 0 0 0];

internalField   nonuniform List<vector> 
7480
(
(0.99717945 8.1007536e-05 1.4989851e-17)
(0.99545431 0.00018548066 0)
(0.99352814 0.00025519093 1.796404e-19)
(0.99145694 0.00029809396 0)
(0.9892702 0.00032999127 0)
(0.98699002 0.00035200893 0)
(0.98462104 0.00036778692 0)
(0.98215766 0.00038026932 0)
(0.97959569 0.00039202658 0)
(0.97690665 0.00040065236 0)
(0.97413404 0.00042251778 0)
(0.97096904 0.00040427792 0)
(0.96835444 0.00063375806 0)
(0.96221005 0.00086043988 1.1769332e-16)
(0.95210788 0.0014577873 -2.6591659e-18)
(0.93960108 0.0019806601 0)
(0.92554148 0.0023183394 0)
(0.91058283 0.0025039086 0)
(0.8950939 0.0025823695 0)
(0.87950517 0.0025507998 0)
(0.86401283 0.0024702408 0)
(0.84878061 0.0023369765 0)
(0.8338498 0.0021313027 0)
(0.81901866 0.0018956612 0)
(0.80437098 0.0016871533 0)
(0.79007005 0.0015032182 0)
(0.77630136 0.0013244764 0)
(0.76341401 0.0011579347 0)
(0.75123078 0.0010172068 0)
(0.73978863 0.0008941059 0)
(0.7291548 0.00078231294 0)
(0.7193802 0.00067976916 0)
(0.71048627 0.00058587242 0)
(0.70246277 0.00050140218 0)
(0.6952719 0.00042706348 0)
(0.68885791 0.00036286967 0)
(0.68314808 0.00030819068 0)
(0.67807166 0.00026163399 0)
(0.673571 0.00022150434 0)
(0.66959277 0.00018648243 0)
(0.66607372 0.00015658051 0)
(0.66294376 0.00013212917 0)
(0.66013634 0.00011270763 0)
(0.65759243 9.7059365e-05 0)
(0.65527311 8.5001749e-05 0)
(0.65311128 7.6605722e-05 0)
(0.651068 7.1163645e-05 0)
(0.64910378 6.8014045e-05 0)
(0.64718443 6.6436753e-05 0)
(0.64528774 6.6509357e-05 0)
(0.64338197 6.8237701e-05 0)
(0.64143374 7.0840131e-05 0)
(0.63941948 7.3818053e-05 0)
(0.63733139 7.666425e-05 0)
(0.63517405 7.9035702e-05 0)
(0.63295841 8.0661944e-05 0)
(0.63069719 8.1438505e-05 0)
(0.6284061 8.1216197e-05 0)
(0.6261042 8.0099594e-05 0)
(0.62380284 7.8522659e-05 0)
(0.62150613 7.6758511e-05 0)
(0.61921593 7.4900013e-05 0)
(0.61693627 7.2857904e-05 0)
(0.61467403 7.0629509e-05 0)
(0.61243485 6.8312911e-05 0)
(0.61022155 6.5939613e-05 0)
(0.60803772 6.3464228e-05 0)
(0.60588843 6.0926814e-05 0)
(0.60377447 5.8504651e-05 0)
(0.60169098 5.6287852e-05 0)
(0.59963328 5.4224023e-05 0)
(0.59760007 5.2259235e-05 0)
(0.59559125 5.0379079e-05 0)
(0.59360652 4.8546887e-05 0)
(0.59164731 4.671003e-05 0)
(0.58971633 4.4886354e-05 0)
(0.58781329 4.3156646e-05 0)
(0.58593504 4.1535518e-05 0)
(0.58407872 4.0017152e-05 0)
(0.58224326 3.8561395e-05 0)
(0.58042877 3.7149589e-05 0)
(0.57863612 3.5755871e-05 0)
(0.5768672 3.4375329e-05 0)
(0.57512144 3.3078149e-05 0)
(0.57339581 3.1858266e-05 0)
(0.57168891 3.0693803e-05 0)
(0.56999988 2.9587773e-05 0)
(0.56832916 2.8490306e-05 0)
(0.56667859 2.7414502e-05 0)
(0.56504699 2.6409785e-05 0)
(0.5634319 2.5454451e-05 0)
(0.56183233 2.4543859e-05 0)
(0.56024798 2.3677605e-05 0)
(0.55867755 2.283162e-05 0)
(0.55712417 2.2057796e-05 0)
(0.55557016 2.1373617e-05 0)
(0.55405302 2.0236478e-05 0)
(0.55242723 3.3336124e-05 3.8777548e-20)
(0.55106526 2.2114539e-05 -2.19409e-19)
(0.548555 3.3067736e-05 -5.1017055e-18)
(0.99846854 0.00034770441 0)
(0.99849085 0.00051626603 0)
(0.99854976 0.0006164475 -2.3232127e-19)
(0.99854883 0.00061385731 -2.9379252e-18)
(0.99852181 0.0006236323 0)
(0.99847431 0.00062986484 0)
(0.99841013 0.00063289012 0)
(0.99832543 0.00063563805 0)
(0.9982153 0.00064099355 0)
(0.99806559 0.00064675944 0)
(0.99787381 0.00067125554 0)
(0.99755991 0.00067979196 0)
(0.99715817 0.00088028465 0)
(0.99658009 0.0014057449 0)
(0.99574495 0.0020269162 0)
(0.99422859 0.0024020494 0)
(0.9917672 0.0025371441 0)
(0.98836054 0.0025551975 0)
(0.9841195 0.002510386 0)
(0.97917026 0.0024353558 0)
(0.97353988 0.0023488158 0)
(0.96723025 0.0022654881 0)
(0.96031113 0.0022160089 0)
(0.95302534 0.0022010318 0)
(0.94537656 0.0021782244 0)
(0.93740469 0.0021234939 0)
(0.92912306 0.0020394517 0)
(0.92047817 0.0019260023 0)
(0.91165386 0.0017975983 0)
(0.90273185 0.0016631331 0)
(0.89378326 0.0015234482 0)
(0.88486463 0.0013841493 0)
(0.87603955 0.001246694 0)
(0.86737444 0.0011131592 0)
(0.85893357 0.00098677532 0)
(0.85077509 0.00087020064 0)
(0.8429494 0.0007642576 0)
(0.83552373 0.0006712261 0)
(0.828469 0.00059225362 0)
(0.82175378 0.00052422288 0)
(0.81538072 0.00046482405 0)
(0.80935231 0.00041378228 0)
(0.80366599 0.00037060275 0)
(0.79830032 0.00033388598 0)
(0.79322314 0.00030230349 0)
(0.78841847 0.00027600257 0)
(0.78385942 0.00025498412 0)
(0.77951801 0.00023805843 0)
(0.77537524 0.00022374248 0)
(0.77142294 0.00021347179 0)
(0.76757005 0.00020721507 0)
(0.76380227 0.00020261648 0)
(0.76012016 0.00019854957 0)
(0.75652666 0.00019437924 0)
(0.75302282 0.00019000482 0)
(0.74960456 0.00018531921 0)
(0.74626507 0.0001802744 0)
(0.74299866 0.00017488187 0)
(0.73978665 0.00016926088 0)
(0.73661912 0.00016358138 0)
(0.73349459 0.00015792632 0)
(0.73041476 0.00015229678 0)
(0.72738201 0.00014651162 0)
(0.72439968 0.00014062048 0)
(0.72146998 0.00013481067 0)
(0.7185928 0.00012907872 0)
(0.71576954 0.00012335082 0)
(0.71299901 0.00011776395 0)
(0.71027556 0.00011257878 0)
(0.7075937 0.00010781632 0)
(0.70495172 0.00010331092 0)
(0.70235097 9.8985427e-05 0)
(0.69979239 9.4850961e-05 0)
(0.6972754 9.0856277e-05 0)
(0.69480064 8.6926067e-05 0)
(0.69236826 8.3121991e-05 0)
(0.68997471 7.9572443e-05 0)
(0.68761612 7.6251904e-05 0)
(0.68529093 7.312414e-05 0)
(0.68299934 7.0121863e-05 0)
(0.6807415 6.7227842e-05 0)
(0.67851786 6.4408359e-05 0)
(0.67632826 6.1669346e-05 0)
(0.67417033 5.9121411e-05 0)
(0.67204102 5.6722349e-05 0)
(0.66993973 5.4430942e-05 0)
(0.66786613 5.2255965e-05 0)
(0.66582049 5.0119903e-05 0)
(0.66380306 4.8059836e-05 0)
(0.66181156 4.6146677e-05 0)
(0.65984357 4.4326837e-05 0)
(0.65789856 4.2593479e-05 0)
(0.65597655 4.0950528e-05 0)
(0.65407538 3.9358928e-05 0)
(0.65219725 3.7926497e-05 0)
(0.65032395 3.6556723e-05 0)
(0.64849399 3.5718951e-05 0)
(0.64655938 3.6773778e-05 0)
(0.64491118 3.4834901e-05 0)
(0.64194818 3.7422389e-05 0)
(0.99850257 0.00034301267 0)
(0.99850923 0.00043731676 0)
(0.99854077 0.0004598174 0)
(0.9985551 0.0004601619 0)
(0.99854025 0.00046305166 0)
(0.99850538 0.00046794575 0)
(0.99845646 0.0004743769 0)
(0.99839037 0.00048344318 0)
(0.99830186 0.00049709096 0)
(0.99817969 0.00051500914 0)
(0.99801536 0.00055114317 0)
(0.99776282 0.00060765478 0)
(0.99741831 0.00084914548 0)
(0.99717923 0.0014284822 0)
(0.99721837 0.0020441165 0)
(0.99745919 0.0024942721 0)
(0.99771844 0.0027848416 0)
(0.99786236 0.0029912397 0)
(0.99783922 0.0031354339 0)
(0.99761548 0.0032217068 0)
(0.99715974 0.0032658113 0)
(0.99645147 0.0032847686 0)
(0.99547263 0.0032787542 0)
(0.99420745 0.0032531987 0)
(0.99263371 0.0031963438 0)
(0.99063911 0.0031118809 0)
(0.98813717 0.003000157 0)
(0.9849832 0.0028762668 0)
(0.98119552 0.0027555455 0)
(0.9767507 0.0026322311 0)
(0.97160744 0.0024939527 0)
(0.9658234 0.0023389546 0)
(0.95943943 0.0021793993 0)
(0.9525146 0.002019491 0)
(0.94513112 0.001861076 0)
(0.93739009 0.0017055735 0)
(0.9294085 0.0015539016 0)
(0.92130564 0.0014082984 0)
(0.91321076 0.0012719166 0)
(0.905231 0.0011464533 0)
(0.89745148 0.0010320635 0)
(0.88993997 0.00092900762 0)
(0.8827415 0.00084080922 0)
(0.87579406 0.00076717553 0)
(0.86909603 0.00070383518 0)
(0.86267151 0.00064821458 0)
(0.8565337 0.00059906693 0)
(0.85069773 0.0005561553 0)
(0.84514764 0.00051867204 0)
(0.83985464 0.00048643735 0)
(0.83479944 0.00046064719 0)
(0.82996366 0.0004403114 0)
(0.8253243 0.00042259113 0)
(0.82086894 0.00040550236 0)
(0.81658605 0.00038878253 0)
(0.81245714 0.00037266245 0)
(0.80846444 0.00035731203 0)
(0.80458814 0.00034324574 0)
(0.80078106 0.0003299897 0)
(0.79704856 0.00031682329 0)
(0.79339632 0.00030377869 0)
(0.78982395 0.00029102131 0)
(0.7863276 0.00027837318 0)
(0.78290571 0.00026588238 0)
(0.77955779 0.00025379186 0)
(0.77628172 0.00024204015 0)
(0.77307704 0.0002306278 0)
(0.76993493 0.00021986525 0)
(0.76684608 0.00020995076 0)
(0.76380796 0.00020072059 0)
(0.76082178 0.0001918866 0)
(0.75788943 0.00018336671 0)
(0.75501126 0.00017521813 0)
(0.75218593 0.00016737871 0)
(0.74941364 0.00015976039 0)
(0.74669198 0.0001524999 0)
(0.74401507 0.00014576618 0)
(0.7413795 0.00013945561 0)
(0.73878509 0.00013347154 0)
(0.73623254 0.00012771598 0)
(0.73372178 0.00012217584 0)
(0.73125298 0.00011681916 0)
(0.7288243 0.00011167978 0)
(0.72643219 0.00010690818 0)
(0.7240739 0.00010240945 0)
(0.72174947 9.810458e-05 0)
(0.7194588 9.4003513e-05 0)
(0.71720207 9.0008039e-05 0)
(0.71497838 8.61881e-05 0)
(0.71278473 8.263952e-05 0)
(0.71061887 7.9267103e-05 0)
(0.70848058 7.6047108e-05 0)
(0.70637009 7.2993988e-05 0)
(0.70428462 7.005298e-05 0)
(0.70222578 6.7422629e-05 0)
(0.70017514 6.4842235e-05 0)
(0.69817182 6.3330361e-05 0)
(0.69606583 6.0976619e-05 0)
(0.69426315 6.4404784e-05 0)
(0.69104709 5.9079359e-05 -4.1179256e-20)
(0.99853107 0.00033360635 0)
(0.99852831 0.00042234768 0)
(0.99855209 0.00047740379 0)
(0.99856392 0.00050945607 0)
(0.99854877 0.000534241 0)
(0.99851363 0.00055698062 0)
(0.99846439 0.00057785672 0)
(0.99839836 0.00059828117 0)
(0.99831023 0.00062166913 0)
(0.99819041 0.00064952341 0)
(0.99802908 0.00069928795 0)
(0.99779664 0.00077053018 0)
(0.99749647 0.0010221137 0)
(0.99728432 0.0015264598 0)
(0.99731757 0.0020616328 0)
(0.9975672 0.0024751281 0)
(0.99789628 0.0027438427 0)
(0.99821174 0.0029168791 0)
(0.99849475 0.0030178223 0)
(0.99874544 0.0030587314 0)
(0.9989598 0.0030640027 0)
(0.99913595 0.0030496121 0)
(0.99927444 0.0030266596 0)
(0.99937458 0.0029967757 0)
(0.9994344 0.0029628813 0)
(0.99944209 0.0029248336 0)
(0.99937791 0.0028824641 0)
(0.9992134 0.0028388161 0)
(0.99891638 0.0027931297 0)
(0.99844545 0.0027403285 0)
(0.99775731 0.0026805669 0)
(0.99673491 0.0026164837 0)
(0.99528923 0.0025471399 0)
(0.99333154 0.0024716197 0)
(0.99077216 0.0023897679 0)
(0.98752613 0.0023017731 0)
(0.98351993 0.0022060153 0)
(0.97869319 0.0020975149 0)
(0.97310737 0.0019796741 0)
(0.96683409 0.0018582185 0)
(0.9599554 0.0017335039 0)
(0.95259643 0.0016061527 0)
(0.944924 0.0014783833 0)
(0.93712615 0.001357594 0)
(0.92934738 0.0012482886 0)
(0.92170271 0.0011478972 0)
(0.91428093 0.0010553133 0)
(0.90716788 0.00097499183 0)
(0.90027376 0.00090720677 0)
(0.89359861 0.00084901266 0)
(0.8872136 0.00079879477 0)
(0.88113677 0.00075351253 0)
(0.87537316 0.00071202645 0)
(0.86989667 0.00067393861 0)
(0.86466563 0.00063874845 0)
(0.85964474 0.00060623932 0)
(0.85481587 0.00057632573 0)
(0.85016114 0.0005487656 0)
(0.84567394 0.00052329762 0)
(0.84134245 0.00049942709 0)
(0.83714895 0.00047668786 0)
(0.8330762 0.00045513737 0)
(0.82910894 0.00043426184 0)
(0.82524337 0.00041381658 0)
(0.82147826 0.00039412967 0)
(0.81780865 0.00037517746 0)
(0.81422963 0.00035726223 0)
(0.81071801 0.00034072211 0)
(0.8072675 0.00032529774 0)
(0.80388479 0.00031060523 0)
(0.80057199 0.00029642854 0)
(0.7973284 0.00028278636 0)
(0.79415238 0.00026978161 0)
(0.79104161 0.00025730828 0)
(0.7879958 0.00024532393 0)
(0.78500789 0.00023407852 0)
(0.78207 0.00022365537 0)
(0.77918142 0.00021379959 0)
(0.77634355 0.00020438871 0)
(0.77355691 0.00019533544 0)
(0.77082064 0.0001866385 0)
(0.7681346 0.00017828905 0)
(0.76549429 0.00017035902 0)
(0.76289526 0.0001629919 0)
(0.76033576 0.00015601902 0)
(0.75781657 0.00014932964 0)
(0.75533757 0.00014294365 0)
(0.75289881 0.0001367605 0)
(0.75049767 0.00013088744 0)
(0.74813058 0.00012542587 0)
(0.74579578 0.0001202292 0)
(0.74349341 0.00011525494 0)
(0.74122379 0.00011053957 0)
(0.73898339 0.00010601751 0)
(0.7367731 0.00010198638 0)
(0.73457459 9.7965265e-05 0)
(0.73242739 9.5657481e-05 0)
(0.73018023 9.1421991e-05 0)
(0.72825239 9.9935435e-05 0)
(0.72482985 8.5155325e-05 3.3089432e-20)
(0.99855874 0.00033731019 0)
(0.99854956 0.00042464815 0)
(0.99856419 0.00048249593 0)
(0.99856969 0.00051102553 0)
(0.99855195 0.00052790098 0)
(0.99851577 0.00054309493 0)
(0.99846602 0.00055788252 0)
(0.99840024 0.00057391222 0)
(0.9983132 0.00059505591 0)
(0.99819634 0.00062482823 0)
(0.99804081 0.00067822999 0)
(0.99782751 0.00077043424 0)
(0.99756459 0.0010088848 0)
(0.99737686 0.0014592551 0)
(0.99740135 0.001962004 0)
(0.99762451 0.0023703314 0)
(0.99793118 0.0026436148 0)
(0.99823412 0.0028222032 0)
(0.99851465 0.002936011 0)
(0.99877469 0.0029992424 0)
(0.99901024 0.0030308192 0)
(0.99922038 0.0030450245 0)
(0.99940876 0.0030459728 0)
(0.99958159 0.0030400484 0)
(0.9997435 0.0030244614 0)
(0.99989429 0.0029969211 0)
(1.0000314 0.0029572078 0)
(1.0001524 0.0029076608 0)
(1.0002566 0.0028518581 0)
(1.0003449 0.0027921216 0)
(1.000415 0.0027294219 0)
(1.0004598 0.0026648607 0)
(1.0004695 0.0026002016 0)
(1.0004305 0.002537158 0)
(1.0003208 0.0024770828 0)
(1.0001069 0.0024204806 0)
(0.9997415 0.0023670219 0)
(0.9991471 0.0023168601 0)
(0.99818924 0.0022684088 0)
(0.99674527 0.002217728 0)
(0.99468732 0.002162104 0)
(0.99187945 0.0021001674 0)
(0.98819288 0.0020335241 0)
(0.9836114 0.0019563346 0)
(0.97820715 0.0018636092 0)
(0.97206282 0.0017620958 0)
(0.9652908 0.0016540121 0)
(0.95805946 0.0015413447 0)
(0.95058967 0.0014321573 0)
(0.94304942 0.0013328602 0)
(0.93559618 0.0012414185 0)
(0.92834346 0.0011559613 0)
(0.92140609 0.0010801371 0)
(0.91470865 0.0010151939 0)
(0.90822198 0.0009569112 0)
(0.90197019 0.00090239884 0)
(0.8959761 0.00085121057 0)
(0.89026289 0.00080413362 0)
(0.88484195 0.00076146416 0)
(0.87966309 0.00072191305 0)
(0.87468393 0.0006852326 0)
(0.86988047 0.00065132699 0)
(0.86523907 0.00061894699 0)
(0.8607585 0.00058760811 0)
(0.85642652 0.00055788654 0)
(0.85222646 0.00052995778 0)
(0.84814101 0.00050372246 0)
(0.84416433 0.00047933739 0)
(0.84029446 0.00045672149 0)
(0.83652653 0.00043536258 0)
(0.8328524 0.00041491435 0)
(0.82926555 0.00039534206 0)
(0.82576262 0.00037671798 0)
(0.82234078 0.00035887323 0)
(0.81899833 0.00034194124 0)
(0.81571955 0.00032624393 0)
(0.81249762 0.0003115733 0)
(0.80933823 0.00029752282 0)
(0.80624293 0.00028405516 0)
(0.8032105 0.00027113632 0)
(0.80023873 0.00025876095 0)
(0.79732706 0.00024698805 0)
(0.79446639 0.00023592188 0)
(0.79165265 0.00022560007 0)
(0.78888625 0.0002157738 0)
(0.7861685 0.00020633144 0)
(0.78349872 0.00019731407 0)
(0.7808766 0.0001886421 0)
(0.77829677 0.00018045943 0)
(0.77575561 0.00017283464 0)
(0.77325235 0.00016556446 0)
(0.77078747 0.00015859325 0)
(0.76836122 0.00015199205 0)
(0.76596879 0.00014569029 0)
(0.76361032 0.00014008043 0)
(0.76126791 0.00013442587 0)
(0.75898148 0.00013123403 0)
(0.75659861 0.00012491055 1.7993243e-20)
(0.75455136 0.00013917725 0)
(0.75093313 0.00011309626 0)
(0.99858485 0.00034324465 0)
(0.99857018 0.00042451443 0)
(0.99857619 0.0004805632 0)
(0.99857615 0.00051127071 0)
(0.99855703 0.0005330519 0)
(0.99852106 0.00055527463 0)
(0.99847176 0.00057866203 0)
(0.99840694 0.00060419821 0)
(0.99832164 0.0006356564 0)
(0.99820844 0.00067744904 0)
(0.99805989 0.00074428781 0)
(0.99786431 0.00085478078 0)
(0.99763373 0.0010885539 0)
(0.99746956 0.0015026125 0)
(0.99748892 0.0019750265 0)
(0.99768896 0.0023667591 0)
(0.99797261 0.0026337222 0)
(0.99825929 0.0028103014 0)
(0.99852703 0.0029260194 0)
(0.99877624 0.0029923291 0)
(0.99900446 0.0030252074 0)
(0.99921073 0.0030341661 0)
(0.99939809 0.0030295565 0)
(0.9995716 0.0030150002 0)
(0.99973568 0.0029905667 0)
(0.99989119 0.0029547441 0)
(1.0000356 0.0029084372 0)
(1.0001664 0.0028548113 0)
(1.0002839 0.0027983107 0)
(1.0003903 0.0027406851 0)
(1.0004865 0.0026808437 0)
(1.0005721 0.0026191926 0)
(1.0006467 0.0025577005 0)
(1.0007107 0.0024979504 0)
(1.0007655 0.0024410877 0)
(1.0008115 0.0023878814 0)
(1.0008484 0.0023390245 0)
(1.0008743 0.0022945844 0)
(1.0008828 0.0022540287 0)
(1.000863 0.0022176529 0)
(1.0007964 0.0021856758 0)
(1.0006501 0.0021577929 0)
(1.0003664 0.0021328613 0)
(0.99986009 0.0021092187 0)
(0.9989561 0.0020841836 0)
(0.99748949 0.0020540584 0)
(0.99530308 0.0020155682 0)
(0.99221877 0.0019709417 0)
(0.98820223 0.0019168138 0)
(0.98330269 0.0018448072 0)
(0.97760867 0.001759559 0)
(0.97123702 0.001664538 0)
(0.96436693 0.0015622417 0)
(0.95723284 0.0014613165 0)
(0.95002689 0.0013680827 0)
(0.94290368 0.0012809837 0)
(0.93596155 0.001198544 0)
(0.9293057 0.0011247551 0)
(0.9228456 0.0010604583 0)
(0.91655942 0.0010013932 0)
(0.91048843 0.00094545589 0)
(0.9046654 0.0008926593 0)
(0.89911514 0.00084304929 0)
(0.89379907 0.00079699389 0)
(0.88867502 0.00075413013 0)
(0.88372306 0.00071442911 0)
(0.87892993 0.00067732297 0)
(0.87431472 0.00064264186 0)
(0.86987317 0.00061030077 0)
(0.86558102 0.00058017689 0)
(0.86141504 0.00055179522 0)
(0.85736704 0.00052473872 0)
(0.85343404 0.0004990635 0)
(0.84960965 0.00047467866 0)
(0.84588417 0.00045163826 0)
(0.84225087 0.00043025019 0)
(0.8387061 0.00041033759 0)
(0.83524646 0.00039135407 0)
(0.83186755 0.00037321294 0)
(0.82856493 0.00035588007 0)
(0.82533517 0.00033930608 0)
(0.82217699 0.00032370057 0)
(0.81907401 0.00030912333 0)
(0.81602637 0.00029539844 0)
(0.81303736 0.00028224404 0)
(0.81010753 0.00026960487 0)
(0.80723489 0.00025754945 0)
(0.80441851 0.00024606004 0)
(0.80164881 0.00023529434 0)
(0.79892372 0.00022521205 0)
(0.79624391 0.00021556838 0)
(0.79360978 0.00020631353 0)
(0.79102117 0.0001975723 0)
(0.78847128 0.00018927287 0)
(0.78595972 0.00018188142 0)
(0.78346951 0.00017437921 0)
(0.78104099 0.00017015787 0)
(0.77851995 0.00016121562 0)
(0.77635207 0.00018214151 4.7348692e-20)
(0.77253678 0.00014294607 0)
(0.99860938 0.00035050674 0)
(0.99859035 0.00042574431 0)
(0.99858912 0.00048128779 0)
(0.99858423 0.00051597117 0)
(0.99856362 0.00054206614 0)
(0.99852745 0.00056751124 0)
(0.99847815 0.00059352655 0)
(0.99841394 0.00062146279 0)
(0.9983303 0.00065550355 0)
(0.99822093 0.00070128498 0)
(0.99807986 0.00077308072 0)
(0.9979009 0.00089095985 0)
(0.99769871 0.0011161 0)
(0.99755609 0.0014939839 0)
(0.99757201 0.0019305845 0)
(0.99775136 0.0023015994 0)
(0.99801388 0.0025622459 0)
(0.9982859 0.0027386348 0)
(0.99854327 0.0028572988 0)
(0.9987846 0.0029288611 0)
(0.9990075 0.0029656514 0)
(0.99921032 0.0029810495 0)
(0.99939513 0.0029820226 0)
(0.99956631 0.0029733765 0)
(0.99972771 0.0029552451 0)
(0.99987995 0.0029265155 0)
(1.0000213 0.0028879471 0)
(1.00015 0.0028421397 0)
(1.0002664 0.0027925734 0)
(1.0003725 0.0027402793 0)
(1.0004695 0.0026842765 0)
(1.0005567 0.0026253822 0)
(1.0006338 0.0025657975 0)
(1.0007017 0.0025071362 0)
(1.000761 0.0024505677 0)
(1.0008128 0.0023970234 0)
(1.0008584 0.002347161 0)
(1.0008986 0.0023008737 0)
(1.0009346 0.0022584019 0)
(1.000967 0.0022202847 0)
(1.0009967 0.0021863987 0)
(1.0010239 0.0021566207 0)
(1.0010482 0.002130792 0)
(1.0010675 0.0021084154 0)
(1.0010743 0.0020891861 0)
(1.0010524 0.0020727307 0)
(1.0009757 0.0020588267 0)
(1.0007898 0.0020466123 0)
(1.0004195 0.0020338506 0)
(0.99968645 0.0020181037 0)
(0.99839096 0.0019963323 0)
(0.9963555 0.0019652237 0)
(0.9933776 0.0019253791 0)
(0.98941695 0.0018731395 0)
(0.9845828 0.0018035081 0)
(0.97897991 0.0017211095 0)
(0.97275482 0.0016280005 0)
(0.96610647 0.0015289554 0)
(0.9592684 0.0014333238 0)
(0.9524108 0.0013451663 0)
(0.94565607 0.0012632468 0)
(0.93909046 0.0011864625 0)
(0.93278619 0.0011183997 0)
(0.92658317 0.0010572557 0)
(0.92052074 0.00099863514 0)
(0.91465337 0.00094230468 0)
(0.90902839 0.00088906345 0)
(0.90363132 0.00083991612 0)
(0.89843122 0.00079455911 0)
(0.89341102 0.00075281944 0)
(0.88856156 0.00071370032 0)
(0.88388584 0.00067659694 0)
(0.87937378 0.00064173015 0)
(0.87500749 0.0006091419 0)
(0.87076783 0.00057860851 0)
(0.86666241 0.00055011881 0)
(0.86269202 0.00052349109 0)
(0.85884024 0.00049830426 0)
(0.85509335 0.00047445802 0)
(0.85144392 0.00045178966 0)
(0.84788764 0.00043020014 0)
(0.84441919 0.00040986797 0)
(0.84103287 0.00039092027 0)
(0.8377243 0.00037316152 0)
(0.83449011 0.00035617678 0)
(0.83132747 0.00033990073 0)
(0.82823263 0.0003244028 0)
(0.82520374 0.00030978037 0)
(0.82222523 0.00029611671 0)
(0.81930008 0.00028320821 0)
(0.81642993 0.00027082339 0)
(0.81361423 0.00025894368 0)
(0.81085194 0.00024777689 0)
(0.8081334 0.00023724161 0)
(0.80545846 0.00022782987 0)
(0.80281158 0.00021822434 0)
(0.80023339 0.00021277828 0)
(0.7975669 0.00020079912 0)
(0.79527261 0.00022917597 4.4500993e-20)
(0.79125156 0.00017515534 0)
(0.99863257 0.00035911426 0)
(0.99861018 0.00042897885 0)
(0.99860286 0.00048387808 0)
(0.99859346 0.00052135129 0)
(0.99857114 0.00055038911 0)
(0.99853468 0.00057835905 0)
(0.99848559 0.00060747155 0)
(0.99842234 0.00063951891 0)
(0.9983409 0.00067880123 0)
(0.99823597 0.00073157795 0)
(0.99810305 0.00081130809 0)
(0.99793995 0.00093798609 0)
(0.99776283 0.0011586813 0)
(0.99763965 0.0015080347 0)
(0.99765356 0.0019139117 0)
(0.99781455 0.0022681259 0)
(0.99805713 0.0025250131 0)
(0.99831465 0.0027023969 0)
(0.99856161 0.0028240938 0)
(0.99879514 0.0029004452 0)
(0.99901278 0.0029426043 0)
(0.9992123 0.0029621674 0)
(0.99939495 0.0029665236 0)
(0.99956447 0.0029601712 0)
(0.9997242 0.0029435056 0)
(0.99987477 0.0029158168 0)
(1.0000146 0.0028778844 0)
(1.0001423 0.0028321621 0)
(1.0002579 0.0027819082 0)
(1.0003633 0.0027285091 0)
(1.0004594 0.0026716755 0)
(1.0005459 0.0026123954 0)
(1.0006223 0.0025527239 0)
(1.0006893 0.0024942188 0)
(1.0007481 0.0024380352 0)
(1.0007999 0.0023850722 0)
(1.0008458 0.0023358976 0)
(1.000887 0.002290495 0)
(1.0009243 0.0022490461 0)
(1.0009586 0.002211802 0)
(1.0009907 0.0021784667 0)
(1.0010211 0.0021489013 0)
(1.0010503 0.0021229923 0)
(1.0010788 0.0021004727 0)
(1.0011074 0.0020809825 0)
(1.0011361 0.0020640663 0)
(1.0011648 0.002049415 0)
(1.0011931 0.0020365745 0)
(1.0012192 0.0020253123 0)
(1.0012368 0.0020158193 0)
(1.0012288 0.0020079106 0)
(1.0011662 0.0020009471 0)
(1.0009876 0.0019937837 0)
(1.0005975 0.0019841145 0)
(0.99977638 0.0019684059 0)
(0.9983122 0.0019432907 0)
(0.99601448 0.001907541 0)
(0.99266845 0.0018585765 0)
(0.98835946 0.0017963601 0)
(0.98324534 0.0017223062 0)
(0.97747482 0.0016375059 0)
(0.97122876 0.001545055 0)
(0.96472997 0.0014515307 0)
(0.95817053 0.0013641731 0)
(0.95166199 0.0012843287 0)
(0.94527646 0.0012088952 0)
(0.93911292 0.0011406173 0)
(0.93302653 0.0010788338 0)
(0.92703484 0.0010197673 0)
(0.9212079 0.00096289914 0)
(0.91560996 0.00090907629 0)
(0.910224 0.0008591809 0)
(0.90501672 0.00081278952 0)
(0.8999755 0.00076965344 0)
(0.89509917 0.0007290454 0)
(0.89039814 0.00069084148 0)
(0.88586709 0.00065534053 0)
(0.88148724 0.00062227334 0)
(0.87724554 0.00059119211 0)
(0.8731364 0.00056178164 0)
(0.86915266 0.00053399994 0)
(0.86528097 0.00050799855 0)
(0.86152673 0.00048374349 0)
(0.85788289 0.00046096951 0)
(0.85433758 0.00043932087 0)
(0.85088215 0.00041871805 0)
(0.84751065 0.00039917469 0)
(0.84421868 0.00038072165 0)
(0.841002 0.00036351802 0)
(0.83785599 0.00034733676 0)
(0.83477708 0.00033184103 0)
(0.8317627 0.00031700097 0)
(0.82881058 0.00030313638 0)
(0.8259071 0.00029010681 0)
(0.82305418 0.00027838567 0)
(0.820238 0.00026637175 0)
(0.8174989 0.00025946956 0)
(0.81467585 0.00024406222 -7.3677966e-21)
(0.8122459 0.00028064576 0)
(0.80800494 0.00021006611 -1.1979688e-20)
(0.99865462 0.00036872862 0)
(0.99862965 0.0004338255 0)
(0.99861722 0.00048772769 0)
(0.99860375 0.00052729946 0)
(0.99857973 0.00055916964 0)
(0.99854304 0.00059001581 0)
(0.99849434 0.00062253515 0)
(0.99843226 0.00065867123 0)
(0.99835325 0.00070262281 0)
(0.99825299 0.00076094688 0)
(0.99812838 0.00084629236 0)
(0.9979801 0.00097768397 0)
(0.99782493 0.0011915946 0)
(0.99771908 0.0015139464 0)
(0.99773207 0.0018893668 0)
(0.99787684 0.0022250441 0)
(0.99810062 0.0024753582 0)
(0.99834389 0.0026512483 0)
(0.99858055 0.0027739156 0)
(0.99880628 0.0028535508 0)
(0.99901846 0.0028996657 0)
(0.99921445 0.002922651 0)
(0.99939481 0.0029299438 0)
(0.99956259 0.0029259014 0)
(0.99972072 0.002911356 0)
(0.99986982 0.0028859962 0)
(1.0000086 0.0028506671 0)
(1.0001355 0.0028077058 0)
(1.0002509 0.0027601413 0)
(1.0003561 0.0027094639 0)
(1.0004521 0.0026555745 0)
(1.0005386 0.0025992488 0)
(1.0006152 0.0025422811 0)
(1.0006825 0.0024861727 0)
(1.0007417 0.002432048 0)
(1.0007938 0.0023807722 0)
(1.00084 0.0023329168 0)
(1.0008814 0.0022885582 0)
(1.0009189 0.0022478555 0)
(1.0009531 0.002211051 0)
(1.0009849 0.0021780052 0)
(1.0010151 0.0021486802 0)
(1.0010443 0.0021230155 0)
(1.0010733 0.0021006714 0)
(1.0011025 0.0020811778 0)
(1.0011325 0.0020640026 0)
(1.0011632 0.0020487511 0)
(1.0011947 0.0020351776 0)
(1.0012268 0.0020232481 0)
(1.0012596 0.0020129204 0)
(1.0012934 0.0020038249 0)
(1.001328 0.0019955104 0)
(1.0013627 0.0019872928 0)
(1.0013953 0.0019787532 0)
(1.0014154 0.0019699879 0)
(1.0014007 0.0019610668 0)
(1.0013054 0.0019514761 0)
(1.0010525 0.0019410559 0)
(1.0004445 0.0019268233 0)
(0.99924476 0.001903951 0)
(0.99723486 0.0018711372 0)
(0.99421879 0.0018236456 0)
(0.99012166 0.0017612639 0)
(0.98520793 0.0016907936 0)
(0.9796611 0.0016107748 0)
(0.97366239 0.0015235468 0)
(0.96742236 0.0014346391 0)
(0.96111583 0.0013507416 0)
(0.95484071 0.0012742364 0)
(0.94865732 0.0012021618 0)
(0.94266056 0.0011364722 0)
(0.93670718 0.001076139 0)
(0.93082882 0.0010177264 0)
(0.92510196 0.00096117888 0)
(0.91958569 0.00090771735 0)
(0.91425048 0.00085814074 0)
(0.90907766 0.00081201363 0)
(0.90406931 0.00076896768 0)
(0.89923447 0.00072853662 0)
(0.89457015 0.00069052868 0)
(0.89006257 0.00065502253 0)
(0.88569485 0.00062179994 0)
(0.88147064 0.000590559 0)
(0.87738861 0.00056138769 0)
(0.87343477 0.00053397507 0)
(0.86959736 0.00050806394 0)
(0.86586969 0.00048360383 0)
(0.86224286 0.00046059218 0)
(0.85872337 0.0004391475 0)
(0.85529933 0.00041898865 0)
(0.85196096 0.00039978572 0)
(0.84870207 0.00038149022 0)
(0.84551745 0.00036440322 0)
(0.84240075 0.00034836328 0)
(0.8393516 0.00033395043 0)
(0.83635019 0.00031921823 0)
(0.83343556 0.00031064124 0)
(0.83044119 0.00029141136 0)
(0.82786321 0.00033697873 4.2732935e-20)
(0.82338354 0.00024800117 0)
(0.99867572 0.00037919138 0)
(0.99864879 0.00044012014 0)
(0.99863214 0.00049286294 0)
(0.99861508 0.00053411245 0)
(0.99858944 0.00056864723 0)
(0.99855255 0.00060225857 0)
(0.99850436 0.00063788464 0)
(0.99844358 0.00067769443 0)
(0.99836724 0.00072587583 0)
(0.99827189 0.00078915118 0)
(0.99815569 0.00087936854 0)
(0.99802135 0.001014046 0)
(0.99788559 0.0012216205 0)
(0.99779524 0.0015210297 0)
(0.99780818 0.0018692795 0)
(0.99793874 0.0021876041 0)
(0.99814498 0.0024316787 0)
(0.99837436 0.0026067327 0)
(0.99860085 0.0027310915 0)
(0.99881878 0.0028145209 0)
(0.99902532 0.0028650962 0)
(0.99921754 0.0028921841 0)
(0.99939537 0.0029030487 0)
(0.99956124 0.0029019366 0)
(0.99971764 0.0028900084 0)
(0.99986518 0.0028672383 0)
(1.0000027 0.0028344942 0)
(1.0001289 0.0027939639 0)
(1.0002438 0.0027484321 0)
(1.0003488 0.00269942 0)
(1.0004446 0.0026470163 0)
(1.0005311 0.0025919612 0)
(1.0006079 0.002535984 0)
(1.0006756 0.0024806398 0)
(1.0007353 0.0024270866 0)
(1.0007879 0.0023762082 0)
(1.0008347 0.0023286099 0)
(1.0008767 0.0022844437 0)
(1.0009147 0.002243876 0)
(1.0009494 0.0022071595 0)
(1.0009817 0.0021742153 0)
(1.0010123 0.0021449805 0)
(1.0010418 0.0021193529 0)
(1.0010709 0.002096982 0)
(1.0011002 0.0020774254 0)
(1.0011299 0.0020602141 0)
(1.0011603 0.0020450311 0)
(1.0011913 0.0020316739 0)
(1.0012233 0.0020199946 0)
(1.0012564 0.00200977 0)
(1.0012911 0.0020005442 0)
(1.0013277 0.0019918188 0)
(1.0013659 0.0019831004 0)
(1.0014048 0.0019741052 0)
(1.0014442 0.0019648812 0)
(1.0014837 0.0019553025 0)
(1.0015225 0.0019455607 0)
(1.0015595 0.0019355373 0)
(1.0015887 0.0019250414 0)
(1.0015909 0.0019144372 0)
(1.0015227 0.001903474 0)
(1.0013145 0.0018917092 0)
(1.0007601 0.001877487 0)
(0.99960068 0.0018551375 0)
(0.99759994 0.0018226581 0)
(0.99456061 0.0017738345 0)
(0.99043106 0.0017093893 0)
(0.98548636 0.0016388775 0)
(0.97997145 0.0015612746 0)
(0.97408451 0.0014781722 0)
(0.96802445 0.0013940101 0)
(0.96192778 0.0013152047 0)
(0.95586745 0.001243215 0)
(0.94989532 0.0011751435 0)
(0.94407049 0.0011126761 0)
(0.93824366 0.0010541082 0)
(0.93249147 0.00099677991 0)
(0.92690028 0.0009417415 0)
(0.92148971 0.00089026017 0)
(0.91623896 0.00084215333 0)
(0.91114473 0.00079717385 0)
(0.90621324 0.00075490899 0)
(0.90145145 0.00071510332 0)
(0.89685388 0.00067813451 0)
(0.89240642 0.00064361411 0)
(0.88810545 0.00061106647 0)
(0.8839462 0.00058053509 0)
(0.87991428 0.00055185353 0)
(0.87600924 0.00052500426 0)
(0.87222591 0.00049990363 0)
(0.86855397 0.00047619299 0)
(0.86498346 0.00045375771 0)
(0.8615058 0.00043284899 0)
(0.85812226 0.00041323168 0)
(0.85482952 0.00039558521 0)
(0.85160084 0.00037765587 0)
(0.84847246 0.00036705331 0)
(0.84527182 0.00034335795 0)
(0.8425286 0.00039857844 0)
(0.8377869 0.00028927792 0)
(0.99869605 0.00039036768 0)
(0.99866765 0.00044769262 0)
(0.99864756 0.0004992202 0)
(0.99862739 0.00054177111 0)
(0.99860025 0.0005786931 0)
(0.9985632 0.00061489088 0)
(0.99851564 0.00065342977 0)
(0.99845636 0.00069672174 0)
(0.9983829 0.00074891598 0)
(0.99829265 0.00081667102 0)
(0.99818482 0.00091093841 0)
(0.9980635 0.0010474321 0)
(0.99794492 0.0012484029 0)
(0.9978683 0.0015272984 0)
(0.99788176 0.0018502937 0)
(0.99799989 0.00215121 0)
(0.99818981 0.0023880646 0)
(0.9984057 0.0025613916 0)
(0.99862213 0.0026865127 0)
(0.99883226 0.0027726516 0)
(0.99903299 0.002826796 0)
(0.99922124 0.0028573131 0)
(0.99939634 0.0028711593 0)
(0.99956014 0.0028725051 0)
(0.99971473 0.0028627681 0)
(0.99986063 0.0028421878 0)
(0.99999685 0.0028116855 0)
(1.0001222 0.0027733373 0)
(1.0002367 0.0027297366 0)
(1.0003413 0.0026824449 0)
(1.000437 0.0026317545 0)
(1.0005234 0.0025784138 0)