/*--------------------------------*- C++ -*----------------------------------*\
  =========                 |
  \\      /  F ield         | OpenFOAM: The Open Source CFD Toolbox
   \\    /   O peration     | Website:  https://openfoam.org
    \\  /    A nd           | Version:  12
     \\/     M anipulation  |
\*---------------------------------------------------------------------------*/
FoamFile
{
    format      ascii;
    class       volVectorField;
    location    "1700";
    object      U;
}
// * * * * * * * * * * * * * * * * * * * * * * * * * * * * * * * * * * * * * //

dimensions      [0 1 -1 0 0 0 0];

internalField   nonuniform List<vector> 
13056
(
(1 2.3223333e-10 3.7121697e-24)
(0.99998254 8.4576631e-10 0)
(0.99994189 1.5428676e-09 0)
(0.99988763 2.1890014e-09 0)
(0.9998228 2.9021381e-09 0)
(0.99974824 3.7285124e-09 0)
(0.99966468 4.6849001e-09 0)
(0.99957278 5.7972997e-09 0)
(0.99947282 7.1072345e-09 0)
(0.99936476 8.6677449e-09 0)
(0.99924821 1.0544309e-08 0)
(0.99912249 1.282252e-08 0)
(0.99898649 1.561848e-08 0)
(0.99883858 1.9101212e-08 0)
(0.99867631 2.3503901e-08 0)
(0.99849627 2.9248978e-08 0)
(0.99829244 3.6791364e-08 0)
(0.99805842 4.7849643e-08 0)
(0.99777272 6.2242104e-08 0)
(0.99743467 9.2818954e-08 0)
(0.99690986 1.2248559e-07 0)
(0.99635495 3.6428912e-07 0)
(0.99387814 3.057478e-07 -4.6426847e-21)
(0.99383378 0.00012220562 1.1194131e-16)
(0.026177828 0.00012478437 0)
(0.012810123 1.2804172e-06 -5.0073112e-17)
(0.012490559 7.5887769e-09 1.4347766e-20)
(0.012510827 5.4845775e-09 6.3792355e-21)
(0.012261504 1.3890114e-08 0)
(0.011940186 1.5090369e-08 0)
(0.011639651 1.3482009e-08 0)
(0.011380313 1.1525569e-08 0)
(0.011155735 9.953907e-09 0)
(0.010957951 8.7326394e-09 0)
(0.010781491 7.7489941e-09 0)
(0.010622447 6.9950588e-09 0)
(0.010475348 6.4090354e-09 0)
(0.01033887 5.8888316e-09 0)
(0.010211848 5.4206317e-09 0)
(0.010093536 4.9931363e-09 0)
(0.0099831835 4.6127547e-09 0)
(0.0098797265 4.2797193e-09 0)
(0.0097823488 3.9828354e-09 0)
(0.0096904416 3.719587e-09 0)
(0.0096032827 3.4848089e-09 0)
(0.0095204325 3.2724237e-09 0)
(0.0094414745 3.077786e-09 0)
(0.0093661229 2.8988184e-09 0)
(0.0092940524 2.7374935e-09 0)
(0.0092249024 2.5872117e-09 0)
(0.0091585834 2.4479159e-09 0)
(0.0090947612 2.3237354e-09 0)
(0.0090331476 2.2069123e-09 0)
(0.0089737248 2.0967828e-09 0)
(0.008916269 1.9976015e-09 0)
(0.0088605445 1.9044035e-09 0)
(0.0088065374 1.815206e-09 0)
(0.0087541272 1.7340119e-09 0)
(0.0087030823 1.659339e-09 0)
(0.0086533542 1.5866021e-09 0)
(0.0086049365 1.5179387e-09 0)
(0.0085576731 1.45574e-09 0)
(0.0085114199 1.3968855e-09 0)
(0.0084661832 1.341073e-09 0)
(0.0084218087 1.2899667e-09 0)
(0.0083782097 1.2414253e-09 0)
(0.0083353852 1.1935843e-09 0)
(0.0082933471 1.1465641e-09 0)
(0.0082520775 1.1020026e-09 0)
(0.0082114818 1.0607526e-09 0)
(0.0081714905 1.0212896e-09 0)
(0.0081320936 9.8292726e-10 0)
(0.0080932663 9.4629093e-10 0)
(0.0080549496 9.1179108e-10 0)
(0.0080170948 8.7884771e-10 0)
(0.0079796759 8.4712988e-10 0)
(0.0079426649 8.1637736e-10 0)
(0.0079060451 7.8691736e-10 0)
(0.0078697684 7.5893904e-10 0)
(0.0078338084 7.3184228e-10 0)
(0.0077981478 7.0567091e-10 0)
(0.007762755 6.8053871e-10 0)
(0.007727599 6.5628587e-10 0)
(0.0076926714 6.3279251e-10 0)
(0.0076579431 6.1033123e-10 0)
(0.0076233715 5.8857909e-10 0)
(0.007588951 5.6734884e-10 0)
(0.0075546666 5.4685883e-10 0)
(0.0075204945 5.2705749e-10 0)
(0.0074864058 5.0795516e-10 0)
(0.0074523734 4.8939368e-10 0)
(0.0074183863 4.712323e-10 0)
(0.0073844416 4.5363177e-10 0)
(0.0073504986 4.3682609e-10 0)
(0.0073165121 4.2052822e-10 0)
(0.007282475 4.0444574e-10 0)
(0.007248394 3.8880015e-10 0)
(0.0072142266 3.7401158e-10 0)
(0.007179891 3.5972475e-10 0)
(0.0071453981 3.4542255e-10 0)
(0.0071107662 3.314114e-10 0)
(0.0070759509 3.1801436e-10 0)
(0.0070408921 3.0506299e-10 0)
(0.0070055696 2.922526e-10 0)
(0.0069699929 2.7975084e-10 0)
(0.0069341012 2.67837e-10 0)
(0.0068978207 2.5623596e-10 0)
(0.0068611483 2.4475047e-10 0)
(0.0068240649 2.3363215e-10 0)
(0.0067864902 2.2292725e-10 0)
(0.0067483707 2.1237586e-10 0)
(0.0067097047 2.0202753e-10 0)
(0.0066704168 1.9219432e-10 0)
(0.0066312657 1.828502e-10 0)
(0.0065935514 1.741069e-10 0)
(0.0065575981 1.6647779e-10 0)
(0.0065231139 1.5944192e-10 0)
(0.0064901364 1.5250459e-10 0)
(0.0064585862 1.4606726e-10 0)
(0.0064283334 1.4022335e-10 0)
(0.0063992568 1.3482597e-10 0)
(0.0063712868 1.2970635e-10 0)
(0.0063443755 1.2488684e-10 0)
(0.0063184456 1.2046869e-10 0)
(0.0062934043 1.1641986e-10 0)
(0.0062691877 1.1258814e-10 0)
(0.0062457667 1.0892214e-10 0)
(0.0062231012 1.0548758e-10 0)
(0.0062011349 1.0238808e-10 0)
(0.006179781 9.9539582e-11 0)
(0.0061590225 9.7194853e-11 0)
(0.0061386567 9.4593145e-11 0)
(0.0061190167 9.4432318e-11 0)
(0.0060986904 3.4182082e-10 0)
(0.0060807391 1.0932913e-10 1.5017017e-22)
(0.0060515457 2.6411127e-10 0)
(1 7.0015143e-10 0)
(0.99998254 2.5498848e-09 0)
(0.99994189 4.651572e-09 0)
(0.99988763 6.5996275e-09 0)
(0.99982279 8.7497238e-09 0)
(0.99974824 1.1241256e-08 0)
(0.99966468 1.4124795e-08 0)
(0.99957277 1.7478714e-08 0)
(0.99947281 2.142819e-08 0)
(0.99936474 2.6133127e-08 0)
(0.99924819 3.1790927e-08 0)
(0.99912246 3.8659632e-08 0)
(0.99898645 4.708927e-08 0)
(0.99883853 5.7589412e-08 0)
(0.99867625 7.0863059e-08 0)
(0.99849621 8.8183736e-08 0)
(0.99829238 1.1092293e-07 0)
(0.99805834 1.4426164e-07 0)
(0.99777264 1.8765227e-07 0)
(0.99743458 2.7983224e-07 0)
(0.99690977 3.6925599e-07 0)
(0.99635485 1.0982015e-06 0)
(0.99387806 9.2242149e-07 1.7191683e-20)
(0.9938338 0.00036119232 -1.389128e-20)
(0.076473435 0.00036832232 0)
(0.038622686 7.2434563e-06 0)
(0.037658306 1.5726417e-07 2.2308184e-20)
(0.037719342 1.1730052e-07 0)
(0.03696721 2.9219716e-07 -4.5670116e-21)
(0.035997564 3.1599201e-07 0)
(0.03509174 2.8182842e-07 0)
(0.034310123 2.4123332e-07 0)
(0.033633092 2.0848667e-07 0)
(0.033036796 1.8288197e-07 0)
(0.032504812 1.6225777e-07 0)
(0.032025335 1.4648013e-07 0)
(0.031581868 1.3421009e-07 0)
(0.031170421 1.2332004e-07 0)
(0.030787479 1.1351062e-07 0)
(0.030430797 1.0456172e-07 0)
(0.030098111 9.6598305e-08 0)
(0.029786211 8.9624681e-08 0)
(0.029492638 8.341064e-08 0)
(0.029215557 7.789503e-08 0)
(0.02895279 7.2983352e-08 0)
(0.028703013 6.8530616e-08 0)
(0.028464971 6.4457115e-08 0)
(0.028237798 6.0714506e-08 0)
(0.02802052 5.7326615e-08 0)
(0.027812047 5.4184832e-08 0)
(0.027612105 5.1272426e-08 0)
(0.027419692 4.8662456e-08 0)
(0.02723394 4.6220615e-08 0)
(0.027054788 4.3918644e-08 0)
(0.026881568 4.1834961e-08 0)
(0.02671357 3.9883927e-08 0)
(0.026550747 3.802022e-08 0)
(0.026392736 3.6318755e-08 0)
(0.026238846 3.4749734e-08 0)
(0.026088925 3.3230153e-08 0)
(0.025942952 3.1795644e-08 0)
(0.025800458 3.0489363e-08 0)
(0.025661013 2.9253829e-08 0)
(0.025524633 2.8088485e-08 0)
(0.025390849 2.7020755e-08 0)
(0.025259402 2.6000684e-08 0)
(0.025130295 2.4996843e-08 0)
(0.025003557 2.4014414e-08 0)
(0.024879134 2.3083507e-08 0)
(0.024756742 2.2217261e-08 0)
(0.024636175 2.1389394e-08 0)
(0.0245174 2.0586755e-08 0)
(0.024400341 1.9821349e-08 0)
(0.02428482 1.90982e-08 0)
(0.024170693 1.8407061e-08 0)
(0.024057881 1.7741902e-08 0)
(0.023946299 1.7099458e-08 0)
(0.023835893 1.6483617e-08 0)
(0.023726523 1.5895861e-08 0)
(0.023618109 1.5327871e-08 0)
(0.023510598 1.4780232e-08 0)
(0.023403893 1.4254865e-08 0)
(0.023297901 1.3746514e-08 0)
(0.023192599 1.3253881e-08 0)
(0.023087899 1.2782895e-08 0)
(0.02298367 1.2328193e-08 0)
(0.022879896 1.1884253e-08 0)
(0.022776532 1.1454104e-08 0)
(0.022673508 1.1039135e-08 0)
(0.022570735 1.0639272e-08 0)
(0.022468132 1.0251034e-08 0)
(0.022365664 9.8704833e-09 0)
(0.022263325 9.5014864e-09 0)
(0.022160991 9.1493058e-09 0)
(0.022058527 8.8084283e-09 0)
(0.021955908 8.4717971e-09 0)
(0.021853158 8.1436662e-09 0)
(0.021750147 7.8337237e-09 0)
(0.02164663 7.5347962e-09 0)
(0.021542638 7.235453e-09 0)
(0.021438226 6.9417076e-09 0)
(0.021333262 6.6609395e-09 0)
(0.021227564 6.3898836e-09 0)
(0.021121071 6.1217063e-09 0)
(0.021013811 5.8596782e-09 0)
(0.020905602 5.6100009e-09 0)
(0.020796221 5.3671967e-09 0)
(0.020685657 5.1267112e-09 0)
(0.020573855 4.8936396e-09 0)
(0.020460571 4.6694484e-09 0)
(0.020345645 4.4485342e-09 0)
(0.020229071 4.2317292e-09 0)
(0.020110623 4.0257146e-09 0)
(0.019992587 3.8300757e-09 0)
(0.019878882 3.6469321e-09 0)
(0.019770487 3.4870351e-09 0)
(0.019666521 3.3397058e-09 0)
(0.019567097 3.1944528e-09 0)
(0.019471977 3.0595708e-09 0)
(0.019380768 2.9371176e-09 0)
(0.019293106 2.8241068e-09 0)
(0.019208779 2.7169111e-09 0)
(0.019127644 2.6159176e-09 0)
(0.019049468 2.5233432e-09 0)
(0.018973972 2.4385238e-09 0)
(0.018900962 2.3583052e-09 0)
(0.01883035 2.2815223e-09 0)
(0.018762016 2.2095116e-09 0)
(0.018695791 2.1445673e-09 0)
(0.018631412 2.084794e-09 0)
(0.018568829 2.0358141e-09 0)
(0.018507431 1.9805914e-09 0)
(0.018448219 1.9781437e-09 0)
(0.018386954 1.9242338e-09 0)
(0.018332832 2.3264833e-09 -2.3385967e-22)
(0.018244817 1.4776983e-09 4.2404512e-23)
(1 1.1784959e-09 0)
(0.99998254 4.291987e-09 0)
(0.99994189 7.8295757e-09 0)
(0.99988763 1.1108618e-08 0)
(0.99982279 1.4727782e-08 0)
(0.99974823 1.8921707e-08 0)
(0.99966467 2.3775509e-08 0)
(0.99957276 2.9421092e-08 0)
(0.99947279 3.6069145e-08 0)
(0.99936472 4.3988804e-08 0)
(0.99924816 5.3512329e-08 0)
(0.99912242 6.5074051e-08 0)
(0.9989864 7.9263125e-08 0)
(0.99883848 9.6937253e-08 0)
(0.99867619 1.192797e-07 0)
(0.99849615 1.4843403e-07 0)
(0.9982923 1.8670867e-07 0)
(0.99805826 2.4282381e-07 0)
(0.99777255 3.158583e-07 0)
(0.99743449 4.7100782e-07 0)
(0.99690967 6.2155902e-07 0)
(0.99635474 1.848308e-06 0)
(0.99387798 1.5535527e-06 -9.0865498e-21)
(0.99383392 0.00059117797 6.0629946e-54)
(0.1254709 0.00061001818 -8.1645067e-54)
(0.065014541 1.977259e-05 0)
(0.063388834 4.5681431e-07 -1.1885638e-20)
(0.063489955 3.4126264e-07 0)
(0.062223215 8.4891291e-07 0)
(0.060589898 9.1749744e-07 0)
(0.059065608 8.1793704e-07 0)
(0.057750379 7.002145e-07 0)
(0.056610892 6.0524647e-07 0)
(0.055607227 5.3091597e-07 0)
(0.054711838 4.7103221e-07 0)
(0.053904833 4.2523202e-07 0)
(0.053158429 3.8961435e-07 0)
(0.052465914 3.580015e-07 0)
(0.051821379 3.2952342e-07 0)
(0.051221043 3.0354565e-07 0)
(0.050661092 2.8042893e-07 0)
(0.050136125 2.6018505e-07 0)
(0.049642001 2.421465e-07 0)
(0.049175637 2.2613419e-07 0)
(0.048733363 2.1187661e-07 0)
(0.048312952 1.9894888e-07 0)
(0.047912296 1.8712436e-07 0)
(0.047529928 1.7626079e-07 0)
(0.047164215 1.6642292e-07 0)
(0.046813328 1.5730383e-07 0)
(0.046476791 1.4885041e-07 0)
(0.04615293 1.4127076e-07 0)
(0.045840284 1.3418331e-07 0)
(0.04553874 1.2750207e-07 0)
(0.045247181 1.2145092e-07 0)
(0.044964416 1.1578702e-07 0)
(0.044690358 1.103782e-07 0)
(0.044424397 1.0543823e-07 0)
(0.044165374 1.0088149e-07 0)
(0.043913036 9.6471323e-08 0)
(0.043667335 9.2308183e-08 0)
(0.043427491 8.8514572e-08 0)
(0.043192785 8.4926568e-08 0)
(0.042963236 8.1544815e-08 0)
(0.04273805 7.8446102e-08 0)
(0.042516801 7.5483468e-08 0)
(0.042299493 7.256839e-08 0)
(0.042086174 6.9717252e-08 0)
(0.041876745 6.7015638e-08 0)
(0.041670736 6.4500028e-08 0)
(0.041467802 6.2095977e-08 0)
(0.041267884 5.9766194e-08 0)
(0.041070851 5.7544877e-08 0)
(0.040876406 5.5445328e-08 0)
(0.040684309 5.3438286e-08 0)
(0.040494429 5.1506966e-08 0)
(0.040306617 4.9642532e-08 0)
(0.040120782 4.7855103e-08 0)
(0.03993669 4.6148154e-08 0)
(0.039754211 4.4498912e-08 0)
(0.039573252 4.2909291e-08 0)
(0.039393646 4.138448e-08 0)
(0.039215241 3.9908559e-08 0)
(0.039037997 3.8478071e-08 0)
(0.038861768 3.7110558e-08 0)
(0.038686333 3.5790856e-08 0)
(0.03851166 3.4502298e-08 0)
(0.038337678 3.3253176e-08 0)
(0.038164269 3.2048303e-08 0)
(0.037991285 3.0887559e-08 0)
(0.037818583 2.9760653e-08 0)
(0.037646109 2.8655811e-08 0)
(0.037473853 2.7584388e-08 0)
(0.037301607 2.6561896e-08 0)
(0.037129139 2.5572466e-08 0)
(0.036956412 2.459526e-08 0)
(0.036783462 2.364248e-08 0)
(0.036610077 2.2742585e-08 0)
(0.036435837 2.1874875e-08 0)
(0.036260797 2.100592e-08 0)
(0.036085051 2.0153027e-08 0)
(0.035908378 1.9337844e-08 0)
(0.035730468 1.8551006e-08 0)
(0.035551217 1.77725e-08 0)
(0.035370677 1.7011722e-08 0)
(0.035188541 1.6286817e-08 0)
(0.035004431 1.5581983e-08 0)
(0.03481833 1.4883844e-08 0)
(0.034630144 1.4207134e-08 0)
(0.034439466 1.3556272e-08 0)
(0.034246022 1.2914953e-08 0)
(0.034049805 1.2285514e-08 0)
(0.033850433 1.1687406e-08 0)
(0.033651754 1.1119463e-08 0)
(0.033460366 1.0587761e-08 0)
(0.033277915 1.0123516e-08 0)
(0.03310292 9.6958053e-09 0)
(0.032935569 9.2741314e-09 0)
(0.032775462 8.8825274e-09 0)
(0.03262194 8.5270052e-09 0)
(0.032474387 8.1989303e-09 0)
(0.032332447 7.8877368e-09 0)
(0.032195881 7.594518e-09 0)
(0.032064296 7.3257404e-09 0)
(0.03193722 7.0794904e-09 0)
(0.03181433 6.846616e-09 0)
(0.031695476 6.6237007e-09 0)
(0.031580457 6.4146124e-09 0)
(0.031468987 6.2260423e-09 0)
(0.031360626 6.0524778e-09 0)
(0.031255287 5.9102498e-09 0)
(0.031151947 5.7498236e-09 0)
(0.031052281 5.7426876e-09 0)
(0.030949182 5.4953688e-09 0)
(0.030858084 6.7613624e-09 0)
(0.030709936 4.2112389e-09 0)
(1 1.6744079e-09 7.9555162e-24)
(0.99998254 6.0980577e-09 0)
(0.99994189 1.1124276e-08 0)
(0.99988763 1.5783216e-08 0)
(0.99982279 2.0925475e-08 0)
(0.99974823 2.6884434e-08 0)
(0.99966467 3.3781015e-08 0)
(0.99957274 4.1802616e-08 0)
(0.99947277 5.1248561e-08 0)
(0.99936469 6.2501225e-08 0)
(0.99924813 7.6032671e-08 0)
(0.99912238 9.2459987e-08 0)
(0.99898636 1.1262024e-07 0)
(0.99883843 1.3773204e-07 0)
(0.99867613 1.6947657e-07 0)
(0.99849607 2.1089936e-07 0)
(0.99829222 2.6528027e-07 0)
(0.99805818 3.450086e-07 0)
(0.99777246 4.4877631e-07 0)
(0.99743438 6.6920795e-07 0)
(0.99690956 8.8314654e-07 0)
(0.99635463 2.625942e-06 0)
(0.99387791 2.2079274e-06 0)
(0.99383411 0.00081630456 -3.1292903e-54)
(0.17381261 0.00085488363 4.2521559e-54)
(0.092373763 3.9251011e-05 0)
(0.090065486 9.4135486e-07 0)
(0.09020308 7.0443267e-07 0)
(0.088402063 1.7494464e-06 0)
(0.086080076 1.889968e-06 0)
(0.083915258 1.6842578e-06 0)
(0.082047404 1.4419856e-06 0)
(0.080428772 1.2465554e-06 0)
(0.07900298 1.0934753e-06 0)
(0.077731038 9.7012437e-07 0)
(0.076584656 8.7580012e-07 0)
(0.075524343 8.024483e-07 0)
(0.074540578 7.3734123e-07 0)
(0.07362497 6.7868736e-07 0)
(0.07277215 6.2518576e-07 0)
(0.071976691 5.7757715e-07 0)
(0.071230927 5.3588463e-07 0)
(0.070528974 4.9873404e-07 0)
(0.069866453 4.6575515e-07 0)
(0.069238152 4.3639173e-07 0)
(0.06864091 4.0976424e-07 0)
(0.068071731 3.8541192e-07 0)
(0.067528525 3.6303901e-07 0)
(0.067008983 3.427733e-07 0)
(0.066510505 3.2399375e-07 0)
(0.066032402 3.0658492e-07 0)
(0.065572311 2.9097001e-07 0)
(0.065128156 2.7637431e-07 0)
(0.064699764 2.6261559e-07 0)
(0.064285557 2.5014958e-07 0)
(0.06388385 2.3848403e-07 0)
(0.063494506 2.2734624e-07 0)
(0.063116661 2.1717091e-07 0)
(0.062748679 2.0778317e-07 0)
(0.062390195 1.987016e-07 0)
(0.062041131 1.9012901e-07 0)
(0.061700388 1.8231348e-07 0)
(0.061366952 1.7492172e-07 0)
(0.061040839 1.6795845e-07 0)
(0.06072092 1.6157766e-07 0)
(0.060406592 1.5547376e-07 0)
(0.060097871 1.4946839e-07 0)
(0.059794815 1.4359742e-07 0)
(0.059497279 1.3803433e-07 0)
(0.059204602 1.3285183e-07 0)
(0.058916297 1.2789921e-07 0)
(0.058632279 1.2310117e-07 0)
(0.058352355 1.1852709e-07 0)
(0.058076105 1.1420247e-07 0)
(0.057803193 1.1006766e-07 0)
(0.057533434 1.0608934e-07 0)
(0.057266611 1.0225018e-07 0)
(0.057002593 9.8569265e-08 0)
(0.056741051 9.505258e-08 0)
(0.056481805 9.1655152e-08 0)
(0.056224716 8.838141e-08 0)
(0.055969549 8.524135e-08 0)
(0.055716086 8.2201249e-08 0)
(0.055464273 7.9254372e-08 0)
(0.055213905 7.6437451e-08 0)
(0.054964664 7.3719796e-08 0)
(0.054716501 7.1066128e-08 0)
(0.054469322 6.8492816e-08 0)
(0.05422296 6.6010859e-08 0)
(0.053977199 6.3620248e-08 0)
(0.053731838 6.1299454e-08 0)
(0.0534868 5.9023727e-08 0)
(0.053242072 5.6816632e-08 0)
(0.05299736 5.4710506e-08 0)
(0.052752332 5.2672838e-08 0)
(0.052506933 5.0660195e-08 0)
(0.052261218 4.8697487e-08 0)
(0.052014887 4.6843824e-08 0)
(0.051767341 4.5056767e-08 0)
(0.051518656 4.3267085e-08 0)
(0.051268968 4.1510204e-08 0)
(0.051017964 3.9831045e-08 0)
(0.050765203 3.8210491e-08 0)
(0.050510535 3.6607064e-08 0)
(0.050254035 3.5039963e-08 0)
(0.049995269 3.3546777e-08 0)
(0.049733698 3.2095105e-08 0)
(0.049469297 3.0657166e-08 0)
(0.049201934 2.9263231e-08 0)
(0.048931032 2.7922626e-08 0)
(0.048656199 2.6601724e-08 0)
(0.048377425 2.5305219e-08 0)
(0.048094168 2.4073252e-08 0)
(0.047811898 2.2903478e-08 0)
(0.047539983 2.1808301e-08 0)
(0.047280767 2.0852024e-08 0)
(0.047032144 1.9971079e-08 0)
(0.046794382 1.9102554e-08 0)
(0.046566911 1.8295922e-08 0)
(0.046348795 1.7563608e-08 0)
(0.046139159 1.6887878e-08 0)
(0.045937499 1.6246919e-08 0)
(0.045743473 1.5642937e-08 0)
(0.045556523 1.5089294e-08 0)
(0.045375982 1.4582074e-08 0)
(0.045201386 1.4102432e-08 0)
(0.045032524 1.3643279e-08 0)
(0.044869111 1.3212566e-08 0)
(0.044710741 1.2824114e-08 0)
(0.044556789 1.2466572e-08 0)
(0.04440713 1.217354e-08 0)
(0.044260316 1.1843004e-08 0)
(0.044118715 1.182794e-08 0)
(0.043972269 1.132796e-08 0)
(0.043842842 1.3934278e-08 0)
(0.04363236 8.6717197e-09 0)
(1 2.1952742e-09 0)
(0.99998254 7.9950051e-09 0)
(0.99994189 1.4584765e-08 0)
(0.99988763 2.0693081e-08 0)
(0.99982279 2.743517e-08 0)
(0.99974823 3.5248124e-08 0)
(0.99966466 4.4290472e-08 0)
(0.99957273 5.480788e-08 0)
(0.99947275 6.7192762e-08 0)
(0.99936467 8.1946416e-08 0)
(0.99924809 9.9687735e-08 0)
(0.99912234 1.2122575e-07 0)
(0.99898631 1.4765792e-07 0)
(0.99883837 1.8058193e-07 0)
(0.99867606 2.2220192e-07 0)
(0.998496 2.7651078e-07 0)
(0.99829214 3.4780868e-07 0)
(0.99805808 4.5233861e-07 0)
(0.99777235 5.8838645e-07 0)
(0.99743427 8.7738438e-07 0)
(0.99690943 1.1578988e-06 0)
(0.9963545 3.442681e-06 0)
(0.99387784 2.8953065e-06 0)
(0.99383441 0.0010393231 0)
(0.22202421 0.0011032121 0)
(0.12110032 6.561251e-05 0)
(0.11807607 1.6331742e-06 0)
(0.11823985 1.2255251e-06 1.2670214e-20)
(0.11587703 3.0352239e-06 0)
(0.11283237 3.2776205e-06 0)
(0.10999672 2.9198026e-06 0)
(0.10755007 2.5000234e-06 0)
(0.10542933 2.1614516e-06 0)
(0.10356109 1.8960518e-06 0)
(0.10189447 1.6821498e-06 0)
(0.10039235 1.518609e-06 0)
(0.099002977 1.3914347e-06 0)
(0.097713887 1.2785478e-06 0)
(0.096514091 1.1768457e-06 0)
(0.095396559 1.0840804e-06 0)
(0.094354175 1.0015339e-06 0)
(0.093376898 9.2924415e-07 0)
(0.092457017 8.6482894e-07 0)
(0.091588803 8.076453e-07 0)
(0.090765421 7.5673201e-07 0)
(0.089982733 7.105586e-07 0)
(0.089236821 6.6833451e-07 0)
(0.08852493 6.2954247e-07 0)
(0.087844051 5.9439696e-07 0)
(0.087190778 5.6183641e-07 0)
(0.086564189 5.3165218e-07 0)
(0.085961209 5.0457049e-07 0)
(0.085379115 4.7926372e-07 0)
(0.084817664 4.5540897e-07 0)
(0.084274804 4.3378832e-07 0)
(0.083748331 4.135597e-07 0)
(0.083238051 3.9425006e-07 0)
(0.082742834 3.766043e-07 0)
(0.082260551 3.6032172e-07 0)
(0.081790715 3.4457651e-07 0)
(0.081333213 3.2971425e-07 0)
(0.080886614 3.1615849e-07 0)
(0.080449599 3.0333797e-07 0)
(0.080022182 2.9126622e-07 0)
(0.079602868 2.8020377e-07 0)
(0.079190885 2.696162e-07 0)
(0.078786256 2.5920027e-07 0)
(0.078389051 2.4902173e-07 0)
(0.077999071 2.3937688e-07 0)
(0.077615457 2.3038816e-07 0)
(0.077237579 2.2179807e-07 0)
(0.07686532 2.1347867e-07 0)
(0.076498421 2.0554843e-07 0)
(0.076136333 1.9804876e-07 0)
(0.075778623 1.9087697e-07 0)
(0.075425047 1.8397747e-07 0)
(0.075075319 1.7732145e-07 0)
(0.074729258 1.7093925e-07 0)
(0.074386444 1.648395e-07 0)
(0.074046643 1.5894706e-07 0)
(0.073709669 1.5327059e-07 0)
(0.073375209 1.4782621e-07 0)
(0.073042978 1.4255403e-07 0)
(0.072712914 1.3744288e-07 0)
(0.072384745 1.3255755e-07 0)
(0.072058051 1.2784558e-07 0)
(0.071732765 1.2324429e-07 0)
(0.071408768 1.1878103e-07 0)
(0.071085844 1.1447645e-07 0)
(0.070763709 1.1033106e-07 0)
(0.070442094 1.063069e-07 0)
(0.0701209 1.023603e-07 0)
(0.069800114 9.8532384e-08 0)
(0.069479349 9.4879877e-08 0)
(0.069158169 9.1346641e-08 0)
(0.068836498 8.7856558e-08 0)
(0.068514414 8.445248e-08 0)
(0.068191523 8.1237681e-08 0)
(0.067867039 7.8138884e-08 0)
(0.067541059 7.5035435e-08 0)
(0.067213763 7.1988431e-08 0)
(0.066884743 6.9076279e-08 0)
(0.066553419 6.6266107e-08 0)
(0.066219593 6.3485579e-08 0)
(0.065883365 6.0767752e-08 0)
(0.065544166 5.817815e-08 0)
(0.065201291 5.5660803e-08 0)
(0.064854702 5.3167185e-08 0)
(0.064504231 5.0749673e-08 0)
(0.064149121 4.8424776e-08 0)
(0.063788856 4.6134122e-08 0)
(0.063423424 4.3885664e-08 0)
(0.063052116 4.1749138e-08 0)
(0.062682099 3.9720555e-08 0)
(0.062325655 3.7821261e-08 0)
(0.061985858 3.6162785e-08 0)
(0.061659947 3.4635046e-08 0)
(0.061348272 3.3128873e-08 0)
(0.061050084 3.1729947e-08 0)
(0.060764162 3.0459899e-08 0)
(0.060489356 2.9288061e-08 0)
(0.060225003 2.817652e-08 0)
(0.059970657 2.7129035e-08 0)
(0.059725588 2.6168837e-08 0)
(0.05948892 2.5289189e-08 0)
(0.059260044 2.4457408e-08 0)
(0.059038685 2.366112e-08 0)
(0.058824469 2.2914093e-08 0)
(0.058616864 2.2240341e-08 0)
(0.058415053 2.1620221e-08 0)
(0.058218867 2.1111867e-08 0)
(0.058026418 2.0538572e-08 0)
(0.057840794 2.0511543e-08 0)
(0.057648861 1.9652584e-08 0)
(0.057479194 2.4173331e-08 -3.0114593e-22)
(0.057203271 1.503572e-08 5.460623e-23)
(1 2.7488554e-09 0)
(0.99998254 1.0011095e-08 0)
(0.99994189 1.8262608e-08 0)
(0.99988763 2.5911387e-08 0)
(0.99982279 3.4353903e-08 0)
(0.99974822 4.4137475e-08 0)
(0.99966465 5.5460593e-08 0)
(0.99957272 6.8630844e-08 0)
(0.99947273 8.4139558e-08 0)
(0.99936464 1.0261442e-07 0)
(0.99924806 1.2483035e-07 0)
(0.99912229 1.5180041e-07 0)
(0.99898625 1.8489875e-07 0)
(0.9988383 2.2612595e-07 0)
(0.99867598 2.7824196e-07 0)
(0.99849591 3.4624653e-07 0)
(0.99829204 4.3552422e-07 0)
(0.99805797 5.6641359e-07 0)
(0.99777223 7.3676938e-07 0)
(0.99743414 1.0986378e-06 0)
(0.9969093 1.4498839e-06 0)
(0.99635436 4.3106868e-06 0)
(0.99387777 3.6260672e-06 0)
(0.99383487 0.0012620248 0)
(0.27052327 0.0013584858 0)
(0.15159536 9.9201001e-05 0)
(0.14779528 2.5753746e-06 0)
(0.14796048 1.9393505e-06 0)
(0.14500139 4.7796725e-06 0)
(0.14119362 5.1587386e-06 0)
(0.13765099 4.5938322e-06 0)
(0.13459415 3.9337619e-06 0)
(0.13194367 3.4014704e-06 0)
(0.12960847 2.9838964e-06 0)
(0.12752523 2.6472685e-06 0)
(0.12564754 2.3899375e-06 0)
(0.12391067 2.1898356e-06 0)
(0.12229911 2.0121996e-06 0)
(0.12079911 1.8521572e-06 0)
(0.11940191 1.7061805e-06 0)
(0.11809861 1.5762857e-06 0)
(0.11687666 1.4625289e-06 0)
(0.11572643 1.3611613e-06 0)
(0.11464078 1.2711714e-06 -6.2769499e-33)
(0.11361115 1.1910497e-06 0)
(0.11263238 1.1183814e-06 0)
(0.11169958 1.0519341e-06 0)
(0.11080929 9.9088704e-07 0)
(0.10995777 9.3556825e-07 0)
(0.10914076 8.8432878e-07 0)
(0.10835709 8.3682821e-07 0)
(0.10760294 7.9419864e-07 0)
(0.10687491 7.5437317e-07 0)
(0.10617267 7.1683397e-07 0)
(0.10549367 6.8279977e-07 0)
(0.10483517 6.5096202e-07 0)
(0.1041969 6.2057647e-07 0)
(0.10357745 5.9280187e-07 0)
(0.10297419 5.6716897e-07 0)
(0.10238649 5.4239137e-07 0)
(0.10181419 5.1900407e-07 0)
(0.10125553 4.9766346e-07 0)
(0.10070886 4.7748051e-07 0)
(0.10017418 4.5848487e-07 0)
(0.09964963 4.4107664e-07 0)
(0.099134242 4.244077e-07 0)
(0.09862806 4.0800998e-07 0)
(0.098131158 3.9199261e-07 0)
(0.097643279 3.7681491e-07 0)
(0.097163358 3.6266403e-07 0)
(0.096690617 3.4914042e-07 0)
(0.096224901 3.36047e-07 0)
(0.095765878 3.2356735e-07 0)
(0.095312867 3.1176224e-07 0)
(0.094865333 3.0047114e-07 0)
(0.094422973 2.8961015e-07 0)
(0.093985419 2.7913571e-07 0)
(0.093552442 2.6909128e-07 0)
(0.093123525 2.5948786e-07 0)
(0.09269838 2.5021141e-07 0)
(0.092276767 2.4127726e-07 0)
(0.091858292 2.3270882e-07 0)
(0.091442601 2.2440967e-07 0)
(0.091029619 2.1636294e-07 0)
(0.090619009 2.0867241e-07 0)
(0.09021024 2.0125663e-07 0)
(0.089803223 1.9401462e-07 0)
(0.089397816 1.8698784e-07 0)
(0.088993755 1.8021118e-07 0)
(0.088590675 1.7368631e-07 0)
(0.08818824 1.6735252e-07 0)
(0.087786328 1.6113991e-07 0)
(0.087384925 1.5511353e-07 0)
(0.086983548 1.4936379e-07 0)
(0.086581646 1.4380264e-07 0)
(0.086179124 1.3830901e-07 0)
(0.085776083 1.3294986e-07 0)
(0.085372031 1.2788891e-07 0)
(0.084965983 1.2301134e-07 0)
(0.084558055 1.1812627e-07 0)
(0.084148479 1.1332937e-07 0)
(0.083736745 1.0874485e-07 0)
(0.083322123 1.043214e-07 0)
(0.082904365 9.9944514e-08 0)
(0.082483598 9.5665863e-08 0)
(0.082059113 9.1589127e-08 0)
(0.081630022 8.7626526e-08 0)
(0.081196279 8.3701139e-08 0)
(0.080757676 7.9895242e-08 0)
(0.080313263 7.6235322e-08 0)
(0.079862395 7.2629419e-08 0)
(0.079405057 6.9089768e-08 0)
(0.078940362 6.5726327e-08 0)
(0.078477279 6.2532941e-08 0)
(0.078031178 5.9542961e-08 0)
(0.077605909 5.6931983e-08 0)
(0.077198017 5.452695e-08 0)
(0.076807938 5.2155924e-08 0)
(0.076434738 4.995358e-08 0)
(0.076076887 4.7954115e-08 0)
(0.075732947 4.6109378e-08 0)
(0.075402088 4.4359559e-08 0)
(0.07508375 4.2710466e-08 0)
(0.074777024 4.1198768e-08 0)
(0.074480811 3.981394e-08 0)
(0.074194349 3.8504529e-08 0)
(0.073917294 3.7250931e-08 0)
(0.073649178 3.607479e-08 0)
(0.073389338 3.5013974e-08 0)
(0.073136749 3.4037643e-08 0)
(0.072891199 3.3237048e-08 0)
(0.072650335 3.2334499e-08 0)
(0.072418 3.2290229e-08 0)
(0.072177825 3.093742e-08 0)
(0.071965461 3.8065046e-08 0)
(0.071620098 2.3661906e-08 -3.1138521e-23)
(1 3.3434015e-09 0)
(0.99998254 1.2176371e-08 0)
(0.99994189 2.2212612e-08 0)
(0.99988763 3.1515912e-08 0)
(0.99982279 4.1784819e-08 0)
(0.99974822 5.3685043e-08 0)
(0.99966464 6.7457985e-08 0)
(0.9995727 8.3477717e-08 0)
(0.99947271 1.0234179e-07 0)
(0.99936461 1.2481361e-07 0)
(0.99924802 1.5183567e-07 0)
(0.99912224 1.8464012e-07 0)
(0.99898619 2.2489831e-07 0)
(0.99883823 2.7504351e-07 0)
(0.9986759 3.3843261e-07 0)
(0.99849581 4.2114668e-07 0)
(0.99829193 5.2973496e-07 0)
(0.99805785 6.8893438e-07 0)
(0.9977721 8.961373e-07 0)
(0.997434 1.336265e-06 0)
(0.99690915 1.7634976e-06 0)
(0.9963542 5.2428163e-06 0)
(0.99387771 4.4112282e-06 0)
(0.99383551 0.0014856215 0)
(0.3196175 0.0016226716 0)
(0.18423828 0.00014104779 0)
(0.1795372 3.8421131e-06 0)
(0.17964899 2.8997404e-06 -3.3075168e-20)
(0.17605513 7.0841782e-06 1.5315546e-20)
(0.17144408 7.6406302e-06 0)
(0.16715857 6.8013678e-06 0)
(0.16345999 5.8248349e-06 0)
(0.16025173 5.0374578e-06 0)
(0.1574245 4.4192648e-06 0)
(0.15490206 3.9207743e-06 0)
(0.15262823 3.5397677e-06 0)
(0.15052469 3.2435029e-06 0)
(0.1485727 2.9804739e-06 0)
(0.14675565 2.7434846e-06 0)
(0.14506295 2.5273223e-06 0)
(0.14348384 2.3349732e-06 0)
(0.14200317 2.166516e-06 0)
(0.14060929 2.0163995e-06 0)
(0.13929355 1.8831275e-06 6.7217941e-33)
(0.13804561 1.764469e-06 0)
(0.13685924 1.6568395e-06 0)
(0.13572851 1.5584306e-06 0)
(0.13464923 1.4680169e-06 0)
(0.1336169 1.3860719e-06 0)
(0.13262636 1.310184e-06 0)
(0.13167617 1.2398318e-06 0)
(0.13076173 1.1766772e-06 0)
(0.12987892 1.1176907e-06 0)
(0.12902733 1.0620919e-06 0)
(0.12820389 1.0116683e-06 0)
(0.12740528 9.6450588e-07 0)
(0.12663117 9.1950304e-07 0)
(0.12587985 8.78356e-07 0)
(0.12514814 8.4037582e-07 0)
(0.12443528 8.0367634e-07 0)
(0.12374107 7.6903728e-07 0)
(0.12306337 7.3741562e-07 0)
(0.12240021 7.0750941e-07 0)
(0.12175158 6.7937509e-07 0)
(0.12111519 6.5359054e-07 0)
(0.12048991 6.2888883e-07 0)
(0.11987579 6.0459039e-07 0)
(0.11927291 5.8086549e-07 0)
(0.11868095 5.5838391e-07 0)
(0.11809862 5.3741468e-07 0)
(0.117525 5.1737428e-07 0)
(0.11695989 4.9797742e-07 0)
(0.11640288 4.7949165e-07 0)
(0.11585314 4.6200048e-07 0)
(0.11531005 4.4526753e-07 0)
(0.11477322 4.2917412e-07 0)
(0.11424221 4.1365833e-07 0)
(0.11371673 3.9877809e-07 0)
(0.11319617 3.8454586e-07 0)
(0.11268018 3.7079892e-07 0)
(0.11216847 3.5756275e-07 0)
(0.11166054 3.4486894e-07 0)
(0.11115598 3.3257143e-07 0)
(0.1106547 3.2064621e-07 0)
(0.1101563 3.0924996e-07 0)
(0.10966011 2.9826356e-07 0)
(0.10916603 2.8753388e-07 0)
(0.1086739 2.7712005e-07 0)
(0.1081834 2.6707724e-07 0)
(0.10769408 2.5740941e-07 0)
(0.10720552 2.48025e-07 0)
(0.10671759 2.3881875e-07 0)
(0.10623027 2.2988753e-07 0)
(0.10574297 2.2136701e-07 0)
(0.10525503 2.1312718e-07 0)
(0.10476631 2.0498678e-07 0)
(0.10427696 1.9704421e-07 0)
(0.10378637 1.8954395e-07 0)
(0.10329335 1.8231655e-07 0)
(0.10279803 1.7507773e-07 0)
(0.10230071 1.6796852e-07 0)
(0.10180075 1.6117415e-07 0)
(0.10129728 1.5461926e-07 0)
(0.10078998 1.481332e-07 0)
(0.10027902 1.4179199e-07 0)
(0.09976354 1.3575008e-07 0)
(0.099242455 1.298779e-07 0)
(0.098715705 1.2406062e-07 0)
(0.098183043 1.1841993e-07 0)
(0.097643317 1.1299583e-07 0)
(0.097095738 1.0765192e-07 0)
(0.096540288 1.0240592e-07 0)
(0.095975893 9.7421069e-08 0)
(0.095413442 9.268841e-08 0)
(0.094871606 8.8257002e-08 0)
(0.094355063 8.4387133e-08 0)
(0.093859622 8.08227e-08 0)
(0.093385806 7.7308691e-08 0)
(0.092932485 7.4044477e-08 0)
(0.092497803 7.108093e-08 0)
(0.092080012 6.834688e-08 0)
(0.091678104 6.575349e-08 0)
(0.091291401 6.3309211e-08 0)
(0.090918799 6.1068533e-08 0)
(0.090558963 5.901599e-08 0)
(0.09021097 5.7075313e-08 0)
(0.089874399 5.5217255e-08 0)
(0.089548683 5.3473855e-08 0)
(0.08923302 5.1901335e-08 0)
(0.088926166 5.0454128e-08 0)
(0.08862786 4.9267026e-08 0)
(0.088335252 4.7929342e-08 0)
(0.088052991 4.7860878e-08 0)
(0.087761273 4.5853215e-08 -3.6683243e-23)
(0.08750327 5.6432454e-08 0)
(0.087083674 3.5064058e-08 0)
(1 3.9877734e-09 0)
(0.99998254 1.4523102e-08 0)
(0.99994189 2.6493643e-08 0)
(0.99988763 3.7590197e-08 0)
(0.99982279 4.9838715e-08 0)
(0.99974821 6.4033224e-08 0)
(0.99966463 8.0461626e-08 0)
(0.99957269 9.9570033e-08 0)
(0.99947269 1.220711e-07 0)
(0.99936457 1.488753e-07 0)
(0.99924797 1.8110674e-07 0)
(0.99912218 2.2023499e-07 0)
(0.99898611 2.6825354e-07 0)
(0.99883814 3.2806455e-07 0)
(0.9986758 4.0367189e-07 0)
(0.9984957 5.0232855e-07 0)
(0.99829181 6.3184608e-07 0)
(0.99805772 8.2172801e-07 0)
(0.99777196 1.0688666e-06 0)
(0.99743385 1.5938067e-06 0)
(0.99690898 2.103411e-06 0)
(0.99635402 6.2529219e-06 0)
(0.99387767 5.2626418e-06 0)
(0.99383635 0.0017108168 -7.888592e-54)
(0.36949661 0.0018974685 1.113985e-53)
(0.21934109 0.00019234075 -6.149015e-19)
(0.21346107 5.5744666e-06 0)
(0.21340925 4.1889621e-06 -3.8141261e-20)
(0.20914358 1.0075846e-05 0)