#      distance             U_x             U_y             U_z wallShearStr... wallShearStr... wallShearStr...               p           omega               k             nut
  3.0219182e-06     0.018437893   2.6284599e-09  -3.4461409e-23               0               0               0   0.00023276659       5570601.8   3.9968266e-07   3.7390991e-13
  5.0865428e-06     0.031038038   6.6678492e-09  -1.4611552e-23               0               0               0    0.0002327668       1240850.2   1.8252613e-06   3.4559026e-12
  7.2269684e-06     0.044100087    1.313054e-08  -3.7643273e-23               0               0               0   0.00023276702       495682.18   5.7569143e-06   1.9325638e-11
  9.4750924e-06     0.057816676   2.2378987e-08   -5.645887e-23               0               0               0   0.00023276724       256764.63   1.4417811e-05   7.8819629e-11
  1.1864417e-05     0.072385806   3.4924656e-08  -2.3401021e-23               0               0               0   0.00023276747       152802.43   3.1086359e-05   2.5990354e-10
  1.4430548e-05     0.088006892   5.1501917e-08   7.8882695e-23               0               0               0   0.00023276773       99058.221   6.0518627e-05    7.365877e-10
  1.7211727e-05      0.10486872   7.3068841e-08   1.2748076e-22               0               0               0   0.00023276801       68139.935   0.00010940366   1.8611136e-09
  2.0249401e-05      0.12312317   1.0082029e-07   2.8786657e-23               0               0               0   0.00023276833       49052.782   0.00018656246   4.2814143e-09
  2.3588836e-05      0.14283962   1.3618007e-07  -3.0451975e-23               0               0               0   0.00023276872       36671.308   0.00030228825   9.0656048e-09
  2.7279799e-05      0.16394569   1.8073758e-07  -1.5225987e-23               0               0               0    0.0002327692       28321.836   0.00046603794   1.7755301e-08
  3.1377293e-05      0.18618222   2.3612668e-07               0               0               0               0   0.00023276983       22484.258    0.0006823557   3.2248244e-08
  3.5942381e-05      0.20911576   3.0390919e-07   7.1949634e-23               0               0               0   0.00023277065       18244.024   0.00094682916   5.4497302e-08
  4.1043091e-05      0.23222706   3.8555657e-07   1.0791291e-22               0               0               0   0.00023277174       15039.649    0.0012453323   8.6183045e-08
  4.6755437e-05      0.25503555   4.8251528e-07   1.2149735e-22               0               0               0   0.00023277316       12530.035    0.0015580311   1.2857472e-07
  5.3164546e-05       0.2772047   5.9646217e-07    1.282874e-22               0               0               0   0.00023277495       10510.288     0.001865696   1.8205245e-07
  6.0365928e-05       0.2985747   7.2962306e-07  -1.9330828e-22               0               0               0    0.0002327772       8853.5796    0.0021545089   2.4683792e-07
    6.84669e-05      0.31908966   8.8471633e-07  -4.1173461e-22               0               0               0   0.00023277999       7476.9379    0.0024168748   3.2495177e-07
  7.7588184e-05      0.33871264   1.0647552e-06  -2.1503877e-22               0               0               0   0.00023278346       6324.5495    0.0026493292   4.1961683e-07
   8.786571e-05      0.35741905   1.2731096e-06   6.1355528e-23               0               0               0   0.00023278776       5357.5395     0.002851105   5.3377093e-07
  9.9452634e-05      0.37521868   1.5136529e-06   2.7236199e-22               0               0               0   0.00023279301       4546.6256    0.0030237001   6.6994531e-07
  0.00011252163       0.3921638   1.7909195e-06   5.6553069e-23               0               0               0   0.00023279932       3867.6648    0.0031701517   8.2954922e-07
  0.00012726745       0.4083486   2.1104072e-06  -1.5311961e-22               0               0               0   0.00023280681        3299.283       0.0032942   1.0127851e-06
  0.00014390985       0.4238851   2.4786974e-06  -3.8031976e-23               0               0               0   0.00023281561       2822.4271    0.0033995555   1.2215795e-06
  0.00016269684       0.4388673   2.9032114e-06   6.8210357e-23               0               0               0   0.00023282595       2421.0099    0.0034893258   1.4605677e-06
  0.00018390838      0.45336302   3.3922478e-06    5.440999e-22               0               0               0   0.00023283808       2082.0043    0.0035659004   1.7344579e-06
  0.00020786057      0.46742746   3.9553911e-06   6.7966374e-22               0               0               0    0.0002328523       1794.8365    0.0036312183   2.0475803e-06
  0.00023491035      0.48110994   4.6037213e-06   2.0377419e-22               0               0               0   0.00023286891       1550.8453    0.0036869337    2.404804e-06
  0.00026546084      0.49445445   5.3499374e-06               0               0               0               0   0.00023288826       1342.9265    0.0037344417   2.8115961e-06
   0.0002999673      0.50750006   6.2086093e-06               0               0               0               0   0.00023291075       1165.2412    0.0037749095   3.2740861e-06
  0.00033894396      0.52028156   7.1964663e-06  -1.8512527e-22               0               0               0   0.00023293683       1012.9788     0.003809308   3.7991358e-06
  0.00038297165      0.53282993   8.3327226e-06  -3.7025055e-22               0               0               0   0.00023296704       882.16487    0.0038384403   4.3944118e-06
  0.00043270649      0.54517286   9.6394516e-06    8.009597e-22               0               0               0   0.00023300195       769.50521    0.0038629667   5.0684618e-06
  0.00048888965      0.55733519   1.1142021e-05   1.5554412e-21               0               0               0   0.00023304225       672.26049    0.0038834262    5.830792e-06
  0.00055235838      0.56933931   1.2869599e-05   5.6935624e-22               0               0               0   0.00023308869        588.1449    0.0039002533   6.6919419e-06
   0.0006240585      0.58120555   1.4855744e-05               0               0               0               0   0.00023314214       515.24449    0.0039137923   7.6635553e-06
  0.00070505852      0.59295253   1.7139098e-05   2.3905925e-22               0               0               0   0.00023320357       451.95113    0.0039243084   8.7584398e-06
  0.00079656552       0.6045974   1.9764192e-05    4.781185e-22               0               0               0   0.00023327408       396.90911    0.0039319964   9.9906081e-06
  0.00089994316       0.6161562    2.278241e-05   2.3905925e-22               0               0               0   0.00023335491       348.97178     0.003936987   1.1375292e-05
    0.001016732      0.62764409   2.6253114e-05               0               0               0               0   0.00023344743       307.16625    0.0039393513   1.2928911e-05
   0.0011486725      0.63907563   3.0245005e-05   1.0417282e-21               0               0               0   0.00023355321       270.66462    0.0039391036   1.4668985e-05
   0.0012977308      0.65046505   3.4837736e-05  -7.8789646e-22               0               0               0   0.00023367396       238.76038    0.0039362024   1.6613953e-05
   0.0014661282      0.66182648    4.012387e-05  -3.4905382e-21               0               0               0   0.00023381157       210.84903      0.00393055   1.8782874e-05
   0.0016563743       0.6731743   4.6211264e-05  -2.6967139e-21               0               0               0   0.00023396815        186.4121    0.0039219904   2.1194962e-05
   0.0018713042      0.68452339   5.3225978e-05   -1.585471e-21               0               0               0   0.00023414595       165.00394    0.0039103058   2.3868893e-05
   0.0021141207      0.69588953   6.1315888e-05   -5.496706e-22               0               0               0   0.00023434744       146.24074    0.0038952104   2.6821811e-05
   0.0023884425      0.70728979   7.0655185e-05  -4.0098824e-22               0               0               0   0.00023457519       129.79141    0.0038763436   3.0067936e-05
   0.0026983575        0.718743   8.1450053e-05   1.2443661e-21               0               0               0   0.00023483189       115.36996    0.0038532585   3.3616638e-05
   0.0030484842      0.73027035   9.3945902e-05  -2.2368229e-21               0               0               0   0.00023512023       102.72915    0.0038254089    3.746985e-05
   0.0034440402       0.7418961   0.00010843668  -5.6989961e-21               0               0               0   0.00023544278       91.655189    0.0037921308   4.1618602e-05
   0.0038909203       0.7536485     0.000125277  -1.8168188e-21               0               0               0   0.00023580176       81.963299    0.0037526192   4.6038493e-05
    0.004395784      0.76556093   0.00014489824   3.1397513e-21               0               0               0   0.00023619874       73.494095    0.0037058972   5.0683852e-05
   0.0049661549      0.77767333   0.00016783047  -4.6845629e-21               0               0               0    0.0002366343       66.110615    0.0036507757   5.5480385e-05
   0.0056105328      0.79003423   0.00019473277  -1.3757693e-20               0               0               0   0.00023710721       59.696023    0.0035858006   6.0316129e-05
   0.0063385204       0.8027032   0.00022643145   5.3445677e-21               0               0               0   0.00023761253       54.152007     0.003509185   6.5030735e-05
   0.0071609664      0.81575433   0.00026394936    1.855844e-20               0               0               0   0.00023813742       49.398017    0.0034187233   6.9403374e-05
   0.0080901272      0.82929305   0.00030865479   2.9365745e-20               0               0               0   0.00023866608       45.366303    0.0033113892   7.3002813e-05
   0.0091398493      0.84349138   0.00036255693   3.4052085e-20               0               0               0   0.00023918378        41.98812    0.0031823964   7.5150041e-05
    0.010325776      0.85859812   0.00042857003    1.602339e-20               0               0               0    0.0002396543        39.18037    0.0030240944   7.5298357e-05
     0.01166558      0.87491354   0.00051062933   4.0565581e-21               0               0               0   0.00024000727       36.833298    0.0028246273   7.3109812e-05
    0.013179228       0.8927717   0.00061404196   1.7909597e-20               0               0               0   0.00024015058       34.787074    0.0025665953   6.8305332e-05
    0.014889277      0.91247612    0.0007457515   1.6571032e-20               0               0               0   0.00023993613        32.81866    0.0022283391   6.0909585e-05
    0.016821209      0.93403259   0.00091053321    5.071475e-20               0               0               0   0.00023904264       30.697555    0.0017936142   5.1466042e-05
    0.019003816      0.95679156    0.0011121099   7.7419736e-20               0               0               0   0.00023727349        28.14662    0.0012634944   4.0159184e-05
    0.021469624      0.97883355    0.0013395469   4.3864541e-20               0               0               0   0.00023446733       23.077292   0.00068844148   2.6268015e-05
    0.024255377      0.99526722    0.0015166078    2.405418e-20               0               0               0   0.00022960014         14.3323    0.0002356556   1.2128981e-05
    0.027402591       1.0024697    0.0015843255    5.556017e-21               0               0               0   0.00022278713       7.3125295   3.6688289e-05   3.1149382e-06
    0.030958166        1.003776    0.0015883074               0               0               0               0   0.00021582886       5.3269925   1.7760157e-06    3.242567e-07
    0.034975088       1.0038179    0.0015795078               0               0               0               0   0.00020933775       5.2603574   6.5595335e-07   1.2469779e-07
    0.039513219       1.0038154    0.0015693783   1.9703175e-20               0               0               0   0.00020287694       5.2618481   6.5391263e-07   1.2427304e-07
    0.044640187       1.0038176    0.0015601539   2.9551673e-20               0               0               0   0.00019621837       5.2622592   6.5412434e-07   1.2430341e-07
    0.050432395       1.0038245     0.001549867   9.8484624e-21               0               0               0    0.0001893595       5.2622371    6.541362e-07   1.2430619e-07
    0.056976161       1.0038303    0.0015380557               0               0               0               0   0.00018239802       5.2622294   6.5413298e-07   1.2430576e-07
    0.064369002       1.0038309    0.0015254767               0               0               0               0   0.00017550871       5.2622237   6.5413177e-07   1.2430567e-07
    0.072721087       1.0038279    0.0015117678               0               0               0               0   0.00016884452       5.2622135   6.5413016e-07    1.243056e-07
    0.082156882       1.0038227    0.0014970828               0               0               0               0   0.00016249291        5.262196   6.5412762e-07   1.2430553e-07
    0.092817002        1.003815     0.001481191               0               0               0               0   0.00015653483       5.2621688   6.5412382e-07   1.2430545e-07
