#      distance             U_x             U_y             U_z wallShearStr... wallShearStr... wallShearStr...               p           omega               k             nut
              0      0.99938491               0               0               0               0               0    0.0046624368        43.03655   6.3773671e-06   1.4816438e-07
   0.0021021021      0.99936671               0               0               0               0               0    0.0046806259        42.82758   6.3365198e-06   1.4793237e-07
   0.0042042042      0.99934851               0               0               0               0               0    0.0046988149        42.61861   6.2956726e-06   1.4770036e-07
   0.0063063063      0.99933031               0               0               0               0               0     0.004717004        42.40964   6.2548253e-06   1.4746835e-07
   0.0084084084       0.9993121               0               0               0               0               0    0.0047351931       42.200669    6.213978e-06   1.4723634e-07
    0.010510511      0.99929147               0               0               0               0               0    0.0047558087       42.006724   6.1755059e-06   1.4700022e-07
    0.012612613      0.99926932               0               0               0               0               0    0.0047779314       41.822109    6.138509e-06   1.4676154e-07
    0.014714715      0.99924718               0               0               0               0               0    0.0048000541       41.637495   6.1015122e-06   1.4652287e-07
    0.016816817      0.99922503               0               0               0               0               0    0.0048221768        41.45288   6.0645153e-06   1.4628419e-07
    0.018918919      0.99920288               0               0               0               0               0    0.0048442995       41.268266   6.0275184e-06   1.4604552e-07
    0.021021021      0.99918012               0               0               0               0               0    0.0048670391        41.08606   5.9909089e-06   1.4580633e-07
    0.023123123      0.99915318               0               0               0               0               0    0.0048939258       40.920046   5.9569039e-06   1.4556368e-07
    0.025225225      0.99912625               0               0               0               0               0    0.0049208126       40.754033   5.9228989e-06   1.4532103e-07
    0.027327327      0.99909932               0               0               0               0               0    0.0049476994       40.588019   5.8888939e-06   1.4507839e-07
    0.029429429      0.99907239               0               0               0               0               0    0.0049745861       40.422005   5.8548889e-06   1.4483574e-07
    0.031531532      0.99904396               0               0               0               0               0    0.0050029603        40.25972   5.8214915e-06    1.445925e-07
    0.033633634      0.99901115               0               0               0               0               0    0.0050356789       40.108327   5.7898685e-06   1.4434753e-07
    0.035735736      0.99897835               0               0               0               0               0    0.0050683975       39.956935   5.7582455e-06   1.4410256e-07
    0.037837838      0.99894555               0               0               0               0               0    0.0051011161       39.805542   5.7266226e-06   1.4385759e-07
     0.03993994      0.99891275               0               0               0               0               0    0.0051338347       39.654149   5.6949996e-06   1.4361262e-07
    0.042042042      0.99887326               0               0               0               0               0    0.0051731684       39.513501   5.6651451e-06   1.4336649e-07
    0.044144144      0.99883315               0               0               0               0               0    0.0052131221       39.373861   5.6354564e-06   1.4312026e-07
    0.046246246      0.99879304               0               0               0               0               0    0.0052530757        39.23422   5.6057677e-06   1.4287403e-07
    0.048348348      0.99875259               0               0               0               0               0    0.0052933645       39.094932   5.5761377e-06   1.4262777e-07
     0.05045045      0.99870325               0               0               0               0               0    0.0053424512       38.964918   5.5480472e-06   1.4238098e-07
    0.052552553      0.99865391               0               0               0               0               0     0.005391538       38.834904   5.5199568e-06   1.4213419e-07
    0.054654655      0.99860457               0               0               0               0               0    0.0054406247        38.70489   5.4918663e-06   1.4188739e-07
    0.056756757      0.99854849               0               0               0               0               0    0.0054962963       38.579353   5.4645252e-06   1.4164056e-07
    0.058858859      0.99848711               0               0               0               0               0    0.0055571593       38.457346   5.4377749e-06    1.413937e-07
    0.060960961      0.99842573               0               0               0               0               0    0.0056180224       38.335339   5.4110245e-06   1.4114684e-07
    0.063063063      0.99835763               0               0               0               0               0    0.0056855513       38.216233   5.3847617e-06   1.4090007e-07
    0.065165165      0.99828043               0               0               0               0               0    0.0057620925       38.101049    5.359158e-06   1.4065343e-07
    0.067267267      0.99820323               0               0               0               0               0    0.0058386336       37.985865   5.3335542e-06   1.4040678e-07
    0.069369369      0.99811254               0               0               0               0               0     0.005927764        37.87398   5.3085142e-06   1.4016046e-07
    0.071471471      0.99801224               0               0               0               0               0    0.0060258704       37.764447   5.2838763e-06   1.3991437e-07
    0.073573574      0.99791194               0               0               0               0               0    0.0061239767       37.654915   5.2592383e-06   1.3966828e-07
    0.075675676      0.99778166               0               0               0               0               0    0.0062537586        37.55116   5.2355529e-06    1.394226e-07
    0.077777778      0.99765104               0               0               0               0               0    0.0063839001       37.447472   5.2118784e-06   1.3917693e-07
     0.07987988       0.9974825               0               0               0               0               0    0.0065431248        37.34459   5.1883949e-06   1.3893147e-07
    0.081981982      0.99728845               0               0               0               0               0    0.0067219027        37.24225     5.16504e-06   1.3868615e-07
    0.084084084      0.99707069               0               0               0               0               0     0.006936275       37.146203   5.1427044e-06   1.3844388e-07
    0.086186186        0.996813               0               0               0               0               0    0.0072106059       37.060755   5.1220858e-06   1.3820672e-07
    0.088288288      0.99641726               0  -3.1664428e-22               0               0               0    0.0075248195       36.960708   5.0993122e-06   1.3796473e-07
     0.09039039      0.99565981               0   -1.463072e-21               0               0               0    0.0079435481       36.822401   5.0708913e-06   1.3771009e-07
    0.092492492      0.99493183               0   7.7884653e-18               0               0               0    0.0085556471       41.060454   5.1243165e-06   1.3218658e-07
    0.094594595      0.99428157               0   3.6122362e-17               0               0               0    0.0096776369       56.838356   5.3935585e-06    1.127698e-07
    0.096696697      0.90625734               0   5.4929126e-17  -0.00046033629  -3.0792053e-06               0     0.010450402       1403646.8   5.1306805e-06   8.7785935e-08
    0.098798799      0.64576599               0   5.4930325e-17   -0.0018293284  -1.2236441e-05               0     0.010533835         5577746   3.8174531e-06   5.1813204e-08
      0.1009009      0.38532789               0    4.259582e-17    -0.002898568  -1.7532825e-05     8.01619e-20    0.0096871036       9751065.5   2.3802399e-06   2.4238273e-08
       0.103003       0.1249608               0    1.381371e-17   -0.0035681376  -1.7681406e-05   2.6720633e-19    0.0076001517        13923346   7.7771253e-07   7.8604066e-09
     0.10510511               0               0               0   -0.0035203723  -1.3031573e-05   4.5574205e-19    0.0059393868        15925793   1.2665126e-08               0
     0.10720721               0               0               0   -0.0028106086  -3.9534832e-06     6.45654e-19    0.0046719319        15925793   2.0492875e-08               0
     0.10930931               0               0               0   -0.0025148159  -2.0067315e-07   5.7017801e-19    0.0042347477        15925793   2.6471191e-08               0
     0.11141141               0               0               0   -0.0024994951  -5.5824773e-08   3.1489745e-19    0.0043600852        15925793   3.1196485e-08               0
     0.11351351               0               0               0   -0.0024865932  -7.0156175e-09   1.0459021e-19    0.0044865675        15925793   3.3314073e-08               0
     0.11561562               0               0               0    -0.002474959  -8.5359154e-09  -8.2148722e-20    0.0046136499        15925793   3.4065088e-08               0
     0.11771772               0               0               0   -0.0024512957  -1.0549042e-08  -8.9264465e-20    0.0046245947        15925793   3.3780075e-08               0
     0.11981982               0               0               0   -0.0024224651  -1.2773868e-08  -1.9220966e-20    0.0045856511        15925793   3.3050023e-08               0
     0.12192192               0               0               0   -0.0023919553  -1.3305655e-08               0    0.0045067309        15925793   3.2168732e-08               0
     0.12402402               0               0               0   -0.0023608104  -1.3197138e-08               0    0.0044126915        15925793   3.1230242e-08               0
     0.12612613               0               0               0   -0.0023321328  -1.2568483e-08               0     0.004338137        15925793   3.0381127e-08               0
     0.12822823               0               0               0   -0.0023043506  -1.1751038e-08               0    0.0042706548        15925793   2.9564452e-08               0
     0.13033033               0               0               0     -0.00227946  -1.0948194e-08               0    0.0042225281        15925793   2.8839014e-08               0
     0.13243243               0               0               0   -0.0022556762   -1.015094e-08               0    0.0041818109        15925793   2.8148503e-08               0
     0.13453453               0               0               0   -0.0022341305  -9.4714185e-09  -1.4519628e-19    0.0041446442        15925793   2.7524676e-08               0
     0.13663664               0               0               0   -0.0022135749  -8.8439795e-09   -3.546247e-19    0.0041090483        15925793   2.6930348e-08               0
     0.13873874               0               0               0   -0.0021946434  -8.3039379e-09  -4.2931434e-19    0.0040736155        15925793   2.6386373e-08               0
     0.14084084               0               0               0   -0.0021766122  -7.8123433e-09  -4.2931438e-19    0.0040382731        15925793   2.5870311e-08               0
     0.14294294               0               0               0   -0.0021597453    -7.38284e-09  -4.0592645e-19     0.004004352        15925793   2.5391162e-08               0
     0.14504505               0               0               0   -0.0021437473  -6.9996787e-09  -3.6508278e-19    0.0039714917        15925793   2.4939564e-08               0
     0.14714715               0               0               0    -0.002128496  -6.6602213e-09  -2.7230022e-19    0.0039399898        15925793   2.4510763e-08               0
     0.14924925               0               0               0   -0.0021140525  -6.3680533e-09  -1.2331745e-19    0.0039099578        15925793   2.4106629e-08               0
     0.15135135               0               0               0   -0.0021000514  -6.0954613e-09  -1.9505659e-20    0.0038807179        15925793    2.371591e-08               0
     0.15345345               0               0               0   -0.0020868178  -5.8568387e-09   5.9229175e-21    0.0038528524        15925793   2.3348468e-08               0
     0.15555556               0               0               0   -0.0020738286  -5.6245316e-09  -7.6200071e-21    0.0038254108        15925793   2.2988871e-08               0
     0.15765766               0               0               0   -0.0020616687  -5.4136455e-09  -1.5334683e-19    0.0037994066        15925793   2.2655886e-08               0
     0.15975976               0               0               0   -0.0020495723  -5.2042027e-09  -2.7340995e-19    0.0037735234        15925793   2.2324949e-08               0
     0.16186186               0               0               0   -0.0020383797  -5.0152682e-09  -2.8792232e-20    0.0037493592        15925793   2.2023104e-08               0
     0.16396396               0               0               0   -0.0020271871  -4.8263337e-09   2.1582549e-19    0.0037251951        15925793    2.172126e-08               0
     0.16606607               0               0               0   -0.0020167699   -4.655471e-09   2.4545731e-19    0.0037026335        15925793      2.1444e-08               0
     0.16816817               0               0               0   -0.0020064596  -4.4870992e-09   2.4545734e-19    0.0036802929        15925793   2.1170129e-08               0
     0.17027027               0               0               0   -0.0019966724  -4.3330127e-09   1.4115578e-19    0.0036589511        15925793   2.0912485e-08               0
     0.17237237               0               0               0   -0.0019871473  -4.1860857e-09  -1.5420227e-20      0.00363811        15925793   2.0662974e-08               0
     0.17447447               0               0               0   -0.0019779155  -4.0471788e-09  -1.0519665e-19    0.0036178304        15925793   2.0422429e-08               0
     0.17657658               0               0               0    -0.001969078  -3.9190505e-09  -1.0519666e-19    0.0035983057        15925793   2.0193934e-08               0
     0.17867868               0               0               0   -0.0019603381  -3.7934078e-09  -1.1058634e-19    0.0035789539        15925793   1.9968397e-08               0
     0.18078078               0               0               0   -0.0019521132  -3.6808787e-09  -1.4440992e-19    0.0035605146        15925793   1.9758468e-08               0
     0.18288288               0               0               0   -0.0019438884  -3.5683496e-09  -1.7823349e-19    0.0035420752        15925793    1.954854e-08               0
     0.18498498               0               0               0    -0.001936133  -3.4677127e-09  -1.1926722e-19    0.0035245206        15925793   1.9352679e-08               0
     0.18708709               0               0               0    -0.001928452  -3.3689591e-09  -4.5605764e-20     0.003507106        15925793   1.9159045e-08               0
     0.18918919               0               0               0   -0.0019210313  -3.2762432e-09   3.0164723e-20    0.0034901569        15925793   1.8973132e-08               0
     0.19129129               0               0               0   -0.0019138345   -3.188725e-09   1.0775085e-19    0.0034736086        15925793   1.8793863e-08               0
     0.19339339               0               0               0    -0.001906717  -3.1028146e-09   1.5838144e-19    0.0034572098        15925793   1.8616931e-08               0
      0.1954955               0               0               0   -0.0018999594  -3.0242016e-09   8.6662723e-20    0.0034414897        15925793   1.8450604e-08               0
      0.1975976               0               0               0   -0.0018932017  -2.9455887e-09   1.4944003e-20    0.0034257696        15925793   1.8284277e-08               0
      0.1996997               0               0               0    -0.001886762  -2.8729297e-09               0    0.0034107742        15925793   1.8127177e-08               0
      0.2018018               0               0               0    -0.001880406  -2.8018378e-09               0    0.0033959695        15925793   1.7972506e-08               0
      0.2039039               0               0               0   -0.0018741863  -2.7333939e-09  -2.0238888e-20    0.0033813424        15925793   1.7821747e-08               0
     0.20600601               0               0               0   -0.0018681993  -2.6694687e-09  -7.5017782e-20    0.0033670183        15925793   1.7677663e-08               0
     0.20810811               0               0               0   -0.0018622122  -2.6055435e-09  -1.2979668e-19    0.0033526941        15925793    1.753358e-08               0
     0.21021021               0               0               0   -0.0018565302  -2.5473017e-09  -1.3457268e-19    0.0033389759        15925793   1.7398208e-08               0
     0.21231231               0               0               0   -0.0018508773  -2.4896028e-09  -1.3457271e-19    0.0033253155        15925793   1.7263668e-08               0
     0.21441441               0               0               0   -0.0018453546  -2.4339905e-09   -1.122074e-19    0.0033120056        15925793   1.7132785e-08               0
     0.21651652               0               0               0   -0.0018400115  -2.3812551e-09  -5.9006537e-20    0.0032991792        15925793   1.7006943e-08               0
     0.21861862               0               0               0   -0.0018346683  -2.3285198e-09  -5.8056776e-21    0.0032863528        15925793   1.6881102e-08               0
     0.22072072               0               0               0   -0.0018295809  -2.2805739e-09               0    0.0032737693        15925793   1.6762352e-08               0
     0.22282282               0               0               0   -0.0018245249  -2.2332147e-09               0    0.0032612156        15925793   1.6644471e-08               0
     0.22492492               0               0               0   -0.0018195519  -2.1873729e-09               0    0.0032488238        15925793   1.6528892e-08               0
     0.22702703               0               0               0   -0.0018147533  -2.1447137e-09               0    0.0032367718        15925793   1.6418142e-08               0
     0.22912913               0               0               0   -0.0018099547  -2.1020545e-09               0    0.0032247198        15925793   1.6307393e-08               0
     0.23123123               0               0               0   -0.0018053282  -2.0616869e-09  -2.7820204e-20    0.0032131818        15925793   1.6201342e-08               0
     0.23333333               0               0               0   -0.0018007704  -2.0222331e-09  -6.6734986e-20    0.0032018487        15925793   1.6097166e-08               0
     0.23543544               0               0               0   -0.0017962274  -1.9830137e-09   -1.007127e-19    0.0031905288        15925793    1.599339e-08               0
     0.23753754               0               0               0   -0.0017918965  -1.9471388e-09  -6.4237635e-20    0.0031793966        15925793   1.5895322e-08               0
     0.23963964               0               0               0   -0.0017875655   -1.911264e-09  -2.7762571e-20    0.0031682643        15925793   1.5797255e-08               0
     0.24174174               0               0               0   -0.0017833113  -1.8766638e-09   9.1573742e-21    0.0031572477        15925793   1.5701253e-08               0
     0.24384384               0               0               0   -0.0017791858  -1.8442061e-09   4.6825025e-20    0.0031464258        15925793   1.5608724e-08               0
     0.24594595               0               0               0   -0.0017750604  -1.8117483e-09   8.4492677e-20    0.0031356038        15925793   1.5516194e-08               0
     0.24804805               0               0               0   -0.0017710573  -1.7807299e-09    7.577184e-20    0.0031251686        15925793   1.5426928e-08               0
     0.25015015               0               0               0   -0.0017671243  -1.7505357e-09   4.0490455e-20     0.003114955        15925793   1.5339531e-08               0
     0.25225225               0               0               0   -0.0017631913  -1.7203414e-09   5.2090695e-21    0.0031047414        15925793   1.5252133e-08               0
     0.25435435               0               0               0   -0.0017594149  -1.6922423e-09               0    0.0030947838        15925793   1.5168829e-08               0
     0.25645646               0               0               0   -0.0017556655  -1.6645062e-09               0    0.0030848705        15925793   1.5086235e-08               0
     0.25855856               0               0               0   -0.0017519197  -1.6368267e-09    5.829613e-22    0.0030749593        15925793    1.500373e-08               0
     0.26066066               0               0               0   -0.0017483381  -1.6118411e-09   2.8889077e-20    0.0030651434        15925793   1.4925514e-08               0
     0.26276276               0               0               0   -0.0017447566  -1.5868555e-09   5.7195193e-20    0.0030553276        15925793   1.4847297e-08               0
     0.26486486               0               0               0   -0.0017411965  -1.5621198e-09   8.1574415e-20    0.0030455735        15925793   1.4769644e-08               0
     0.26696697               0               0               0   -0.0017377697  -1.5389351e-09   8.1574435e-20     0.003036203        15925793   1.4695483e-08               0
     0.26906907               0               0               0   -0.0017343429  -1.5157505e-09   8.1574454e-20    0.0030268325        15925793   1.4621322e-08               0
     0.27117117               0               0               0   -0.0017309468   -1.492852e-09   7.5983947e-20    0.0030175667        15925793   1.4547947e-08               0
     0.27327327               0               0               0   -0.0017276699  -1.4710648e-09   4.8684179e-20     0.003008707        15925793   1.4477623e-08               0
     0.27537538               0               0               0   -0.0017243929  -1.4492777e-09    2.138441e-20    0.0029998474        15925793     1.44073e-08               0
     0.27747748               0               0               0   -0.0017211466  -1.4279147e-09  -5.0941878e-21    0.0029910012        15925793   1.4337747e-08               0
     0.27957958               0               0               0    -0.001718011  -1.4080852e-09  -2.8604202e-20    0.0029822036        15925793    1.427098e-08               0
     0.28168168               0               0               0   -0.0017148755  -1.3882557e-09  -5.2114216e-20     0.002973406        15925793   1.4204213e-08               0
     0.28378378               0               0               0   -0.0017117621  -1.3687359e-09  -7.1574575e-20    0.0029646193        15925793   1.4138011e-08               0
     0.28588589               0               0               0   -0.0017087554  -1.3507042e-09  -7.1574594e-20    0.0029558851        15925793   1.4074523e-08               0
     0.28798799               0               0               0   -0.0017057486  -1.3326725e-09  -7.1574613e-20     0.002947151        15925793   1.4011035e-08               0
     0.29009009               0               0               0   -0.0017027503   -1.314732e-09  -7.0008918e-20    0.0029384487        15925793   1.3947762e-08               0
     0.29219219               0               0               0   -0.0016998655  -1.2980176e-09   -4.738766e-20    0.0029301743        15925793   1.3887378e-08               0
     0.29429429               0               0               0   -0.0016969806  -1.2813031e-09  -2.4766402e-20       0.0029219        15925793   1.3826995e-08               0
      0.2963964               0               0               0   -0.0016940958  -1.2645887e-09  -2.1451444e-21    0.0029136257        15925793   1.3766612e-08               0
      0.2984985               0               0               0   -0.0016913149  -1.2492002e-09               0    0.0029057185        15925793    1.370874e-08               0
      0.3006006               0               0               0   -0.0016885449  -1.2339507e-09               0    0.0028978498        15925793   1.3651131e-08               0
      0.3027027               0               0               0   -0.0016857748  -1.2187011e-09               0    0.0028899811        15925793   1.3593523e-08               0
      0.3048048               0               0               0   -0.0016830761   -1.204325e-09   1.2556914e-20    0.0028821127        15925793   1.3537579e-08               0
     0.30690691               0               0               0   -0.0016804114  -1.1903645e-09   3.1088193e-20    0.0028742445        15925793   1.3482427e-08               0
     0.30900901               0               0               0   -0.0016777466  -1.1764039e-09   4.9619472e-20    0.0028663762        15925793   1.3427276e-08               0
     0.31111111               0               0               0   -0.0016751205  -1.1627168e-09    5.768778e-20    0.0028585287        15925793   1.3373065e-08               0
     0.31321321               0               0               0   -0.0016725564  -1.1494686e-09   4.8962666e-20    0.0028507144        15925793   1.3320363e-08               0
     0.31531532               0               0               0   -0.0016699923  -1.1362203e-09   4.0237551e-20       0.0028429        15925793   1.3267661e-08               0
     0.31741742               0               0               0   -0.0016674303  -1.1229829e-09   3.1668499e-20    0.0028350942        15925793   1.3215011e-08               0
     0.31951952               0               0               0   -0.0016649652  -1.1102443e-09   3.0310907e-20    0.0028276804        15925793   1.3164757e-08               0
     0.32162162               0               0               0   -0.0016625001  -1.0975057e-09   2.8953315e-20    0.0028202667        15925793   1.3114503e-08               0
     0.32372372               0               0               0    -0.001660035  -1.0847672e-09   2.7595723e-20    0.0028128529        15925793   1.3064249e-08               0
     0.32582583               0               0               0   -0.0016576267  -1.0724528e-09   3.1938513e-20    0.0028056491        15925793    1.301536e-08               0
     0.32792793               0               0               0   -0.0016552584  -1.0604374e-09   4.0298535e-20    0.0027985932        15925793   1.2967434e-08               0
     0.33003003               0               0               0   -0.0016528902   -1.048422e-09   4.8658558e-20    0.0027915373        15925793   1.2919507e-08               0
     0.33213213               0               0               0    -0.001650529  -1.0364823e-09   5.5163981e-20    0.0027844831        15925793   1.2871748e-08               0
     0.33423423               0               0               0   -0.0016482525  -1.0254491e-09   3.9451172e-20    0.0027774489        15925793   1.2825998e-08               0
     0.33633634               0               0               0   -0.0016459761  -1.0144158e-09   2.3738364e-20    0.0027704147        15925793   1.2780248e-08               0
     0.33843844               0               0               0   -0.0016436996  -1.0033826e-09   8.0255549e-21    0.0027633805        15925793   1.2734498e-08               0
     0.34054054               0               0               0   -0.0016414649  -9.9277493e-10  -1.0041687e-20    0.0027563549        15925793   1.2689752e-08               0
     0.34264264               0               0               0   -0.0016392739   -9.826116e-10  -3.0566974e-20    0.0027493382        15925793   1.2646057e-08               0
     0.34474474               0               0               0   -0.0016370828  -9.7244826e-10  -5.1092262e-20    0.0027423214        15925793   1.2602361e-08               0
     0.34684685               0               0               0   -0.0016348918  -9.6228493e-10   -7.161755e-20    0.0027353047        15925793   1.2558665e-08               0
     0.34894895               0               0               0   -0.0016327677  -9.5261326e-10  -7.5317456e-20    0.0027285147        15925793   1.2516578e-08               0
     0.35105105               0               0               0   -0.0016306583  -9.4304972e-10  -7.5317485e-20    0.0027217745        15925793   1.2474846e-08               0
     0.35315315               0               0               0   -0.0016285489  -9.3348617e-10  -7.5317514e-20    0.0027150343        15925793   1.2433113e-08               0