/*--------------------------------*- C++ -*----------------------------------*\
  =========                 |
  \\      /  F ield         | OpenFOAM: The Open Source CFD Toolbox
   \\    /   O peration     | Website:  https://openfoam.org
    \\  /    A nd           | Version:  12
     \\/     M anipulation  |
\*---------------------------------------------------------------------------*/
FoamFile
{
    format      ascii;
    class       volScalarField;
    location    "1000";
    object      nut;
}
// * * * * * * * * * * * * * * * * * * * * * * * * * * * * * * * * * * * * * //

dimensions      [0 2 -1 0 0 0 0];

internalField   nonuniform List<scalar> 
7480
(
2.2931599e-06
3.6688223e-06
4.9356315e-06
5.9905765e-06
6.8087905e-06
7.4040565e-06
7.8078739e-06
8.0578862e-06
8.1911479e-06
8.2400033e-06
8.2304139e-06
8.1819695e-06
8.1088022e-06
8.0207606e-06
7.9245337e-06
7.8246195e-06
7.7241568e-06
7.6255285e-06
7.5305372e-06
7.4406924e-06
7.3573668e-06
7.2818541e-06
7.2153236e-06
7.1587221e-06
7.112665e-06
7.0771484e-06
7.0510371e-06
7.0324734e-06
7.0188137e-06
7.0071666e-06
6.9951489e-06
6.9813695e-06
6.9654613e-06
6.9478494e-06
6.9292168e-06
6.9101076e-06
6.8907503e-06
6.8711119e-06
6.8510668e-06
6.8305607e-06
6.8096845e-06
6.7886298e-06
6.7675976e-06
6.7467191e-06
6.7260414e-06
6.7055681e-06
6.6853009e-06
6.6652517e-06
6.6454337e-06
6.6258548e-06
6.6065149e-06
6.587408e-06
6.5685277e-06
6.5498711e-06
6.531436e-06
6.5132161e-06
6.4952038e-06
6.4773948e-06
6.4597885e-06
6.4423773e-06
6.4251543e-06
6.4081136e-06
6.3912497e-06
6.3745581e-06
6.3580359e-06
6.3416796e-06
6.3254854e-06
6.3094502e-06
6.2935701e-06
6.2778416e-06
6.2622611e-06
6.2468251e-06
6.2315303e-06
6.2163735e-06
6.2013513e-06
6.1864609e-06
6.1716991e-06
6.1570631e-06
6.14255e-06
6.1281569e-06
6.1138813e-06
6.0997204e-06
6.0856716e-06
6.0717324e-06
6.0579002e-06
6.0441725e-06
6.0305467e-06
6.0170201e-06
6.0035902e-06
5.9902533e-06
5.9770074e-06
5.9638443e-06
5.9507686e-06
5.9377479e-06
5.9248301e-06
5.9118542e-06
5.8991171e-06
5.8856844e-06
5.874386e-06
5.8533649e-06
9.2529363e-06
2.6668194e-06
1.2568843e-06
9.4327522e-07
9.5423181e-07
1.073719e-06
1.2360217e-06
1.4192871e-06
1.6108554e-06
1.8033077e-06
1.9959622e-06
2.1905241e-06
2.3884137e-06
2.5950947e-06
2.821455e-06
3.0836043e-06
3.409571e-06
3.8220116e-06
4.2911244e-06
4.8144666e-06
5.3963e-06
6.0396567e-06
6.7426644e-06
7.5061618e-06
8.313936e-06
9.1366265e-06
9.9401092e-06
1.0688258e-05
1.1347665e-05
1.1903086e-05
1.2360264e-05
1.273826e-05
1.3060455e-05
1.3345669e-05
1.3603967e-05
1.3836942e-05
1.4042174e-05
1.4218299e-05
1.4367705e-05
1.4496292e-05
1.4610989e-05
1.4717046e-05
1.4817306e-05
1.4911955e-05
1.5000522e-05
1.5083088e-05
1.5160402e-05
1.5233322e-05
1.5302357e-05
1.5367633e-05
1.5429146e-05
1.5486996e-05
1.5541399e-05
1.5592551e-05
1.5640543e-05
1.5685442e-05
1.5727353e-05
1.5766406e-05
1.5802613e-05
1.583623e-05
1.5867295e-05
1.5895869e-05
1.5922052e-05
1.5945953e-05
1.5967672e-05
1.5987301e-05
1.6004929e-05
1.6020632e-05
1.6034488e-05
1.6046572e-05
1.6056954e-05
1.6065703e-05
1.6072889e-05
1.6078575e-05
1.6082826e-05
1.6085702e-05
1.6087262e-05
1.6087562e-05
1.6086658e-05
1.6084602e-05
1.6081443e-05
1.6077231e-05
1.6072013e-05
1.6065833e-05
1.6058735e-05
1.605076e-05
1.6041948e-05
1.6032338e-05
1.6021966e-05
1.6010871e-05
1.5999082e-05
1.5986644e-05
1.5973562e-05
1.5959931e-05
1.5945628e-05
1.5931049e-05
1.5915451e-05
1.5899986e-05
1.5885596e-05
1.5855313e-05
7.4052732e-05
3.2399368e-05
1.5786992e-05
8.9114224e-06
5.6711547e-06
3.9297045e-06
2.9001617e-06
2.2506466e-06
1.821115e-06
1.5268939e-06
1.3202111e-06
1.1725164e-06
1.0659386e-06
9.8906549e-07
9.3477792e-07
8.9862919e-07
8.8015033e-07
8.7448776e-07
9.1347386e-07
1.0073502e-06
1.1608272e-06
1.3799317e-06
1.672602e-06
2.0273126e-06
2.4716609e-06
3.0448397e-06
3.824951e-06
4.7868034e-06
5.8929176e-06
7.1013066e-06
8.3697293e-06
9.6456086e-06
1.0866987e-05
1.198486e-05
1.2972364e-05
1.3828688e-05
1.4573562e-05
1.5236741e-05
1.5845555e-05
1.6417003e-05
1.6956233e-05
1.7461156e-05
1.7928231e-05
1.8358352e-05
1.8756517e-05
1.9129153e-05
1.94813e-05
1.9815474e-05
2.0132467e-05
2.0432848e-05
2.0717761e-05
2.0988705e-05
2.1246945e-05
2.1493283e-05
2.1728253e-05
2.1952387e-05
2.2166271e-05
2.2370447e-05
2.2565323e-05
2.275107e-05
2.2928181e-05
2.3097093e-05
2.3258175e-05
2.3411753e-05
2.3558128e-05
2.369758e-05
2.3830371e-05
2.3956746e-05
2.4076936e-05
2.4191164e-05
2.4299642e-05
2.4402574e-05
2.4500158e-05
2.4592583e-05
2.4680034e-05
2.4762689e-05
2.4840718e-05
2.4914289e-05
2.4983561e-05
2.5048691e-05
2.5109829e-05
2.516712e-05
2.5220707e-05
2.5270726e-05
2.5317308e-05
2.5360583e-05
2.5400674e-05
2.5437703e-05
2.5471785e-05
2.5503038e-05
2.5531564e-05
2.5557494e-05
2.5580883e-05
2.560197e-05
2.5620561e-05
2.563748e-05
2.5651154e-05
2.566558e-05
2.5673314e-05
2.5684669e-05
0.00014320018
0.00010363376
7.0780733e-05
4.9235752e-05
3.5667805e-05
2.6880959e-05
2.0948403e-05
1.6787552e-05
1.377482e-05
1.1534825e-05
9.8316144e-06
8.5106562e-06
7.4670137e-06
6.6279399e-06
5.9408078e-06
5.3671212e-06
4.8771908e-06
4.4474827e-06
4.0605178e-06
3.706878e-06
3.3668185e-06
3.0591354e-06
2.7582948e-06
2.4728321e-06
2.2064461e-06
1.9725243e-06
1.7838379e-06
1.661117e-06
1.6884687e-06
1.8986449e-06
2.2721053e-06
2.8218589e-06
3.5893576e-06
4.6567439e-06
5.9606671e-06
7.4046402e-06
8.9297384e-06
1.0460512e-05
1.1921322e-05
1.3262234e-05
1.4465985e-05
1.5545078e-05
1.6529234e-05
1.7449086e-05
1.8324457e-05
1.9161291e-05
1.995699e-05
2.0708337e-05
2.1416383e-05
2.2086206e-05
2.2723662e-05
2.3332666e-05
2.391493e-05
2.4471376e-05
2.5003328e-05
2.5512551e-05
2.6000664e-05
2.646885e-05
2.6918016e-05
2.7348954e-05
2.7762529e-05
2.8159572e-05
2.8540811e-05
2.8906906e-05
2.9258479e-05
2.9596101e-05
2.99203e-05
3.0231565e-05
3.0530356e-05
3.0817108e-05
3.1092232e-05
3.1356121e-05
3.160915e-05
3.1851678e-05
3.2084052e-05
3.2306603e-05
3.2519652e-05
3.2723509e-05
3.2918475e-05
3.3104839e-05
3.3282883e-05
3.3452881e-05
3.3615097e-05
3.3769789e-05
3.3917206e-05
3.4057593e-05
3.4191184e-05
3.4318212e-05
3.4438897e-05
3.4553464e-05
3.4662117e-05
3.4765089e-05
3.4862523e-05
3.4954783e-05
3.5041686e-05
3.5124408e-05
3.5200578e-05
3.5277695e-05
3.5334892e-05
3.5435229e-05
0.00016751072
0.0001513992
0.00012916023
0.00010711729
8.8363866e-05
7.3357304e-05
6.1558815e-05
5.2272503e-05
4.4902883e-05
3.8992359e-05
3.4200356e-05
3.0274401e-05
2.7025217e-05
2.4308068e-05
2.2013278e-05
2.0056195e-05
1.8369685e-05
1.6899927e-05
1.5603318e-05
1.4443032e-05
1.3388802e-05
1.2415208e-05
1.1498766e-05
1.0618467e-05
9.7520018e-06
8.8909366e-06
8.0048669e-06
7.1198135e-06
6.2220882e-06
5.3639832e-06
4.5694733e-06
3.8644551e-06
3.2894295e-06
2.8566095e-06
2.6291849e-06
2.716679e-06
3.0485529e-06
3.6494459e-06
4.5656152e-06
5.8382485e-06
7.3416813e-06
8.9859491e-06
1.0684101e-05
1.2346022e-05
1.3911037e-05
1.5355216e-05
1.6687357e-05
1.7933973e-05
1.9121312e-05
2.0263604e-05
2.1362562e-05
2.2414641e-05
2.3418492e-05
2.4377242e-05
2.5296052e-05
2.6178938e-05
2.7027911e-05
2.7844145e-05
2.8629123e-05
2.9384624e-05
3.0112261e-05
3.08133e-05
3.1488841e-05
3.2139966e-05
3.2767711e-05
3.3373001e-05
3.3956674e-05
3.4519511e-05
3.5062244e-05
3.5585559e-05
3.6090098e-05
3.6576468e-05
3.7045245e-05
3.749698e-05
3.7932197e-05
3.83514e-05
3.8755072e-05
3.9143681e-05
3.9517676e-05
3.9877494e-05
4.0223559e-05
4.0556282e-05
4.0876062e-05
4.1183288e-05
4.1478338e-05
4.1761582e-05
4.2033378e-05
4.2294079e-05
4.2544027e-05
4.2783562e-05
4.3013003e-05
4.3232699e-05
4.3442896e-05
4.3644087e-05
4.3836124e-05
4.4020543e-05
4.4194001e-05
4.4368662e-05
4.4504093e-05
4.4744095e-05
0.00017416214
0.00016928948
0.00015988202
0.00014715421
0.0001331345
0.00011939272
0.00010675489
9.5512845e-05
8.5674786e-05
7.7126512e-05
6.9714336e-05
6.3282006e-05
5.7688328e-05
5.2808258e-05
4.8534267e-05
4.4775123e-05
4.1453401e-05
3.8503263e-05
3.5868536e-05
3.3500045e-05
3.1355718e-05
2.9397327e-05
2.7591293e-05
2.5906339e-05
2.4314415e-05
2.2792468e-05
2.131189e-05
1.9848168e-05
1.8375251e-05
1.6885307e-05
1.5350395e-05
1.3809345e-05
1.2239244e-05
1.0662661e-05
9.1163576e-06
7.6856732e-06
6.4061205e-06
5.3268777e-06
4.4957633e-06
3.9113073e-06
3.7284401e-06
3.8998172e-06
4.4195837e-06
5.3272792e-06
6.6470653e-06
8.2243153e-06
9.974537e-06
1.1792658e-05
1.3588152e-05
1.5303214e-05
1.6919804e-05
1.8449643e-05
1.9915025e-05
2.1331803e-05
2.2703853e-05
2.40282e-05
2.5302824e-05
2.6529776e-05
2.7713158e-05
2.8856164e-05
2.996043e-05
3.1027145e-05
3.2057835e-05
3.3054187e-05
3.4017652e-05
3.4949436e-05
3.5850663e-05
3.6722428e-05
3.7565744e-05
3.8381539e-05
3.9170682e-05
3.9933998e-05
4.0672265e-05
4.1386218e-05
4.2076557e-05
4.2743952e-05
4.3389045e-05
4.4012454e-05
4.4614775e-05
4.5196583e-05
4.5758438e-05
4.6300884e-05
4.6824448e-05
4.7329646e-05
4.7816981e-05
4.8286942e-05
4.8740012e-05
4.9176661e-05
4.959735e-05
5.0002535e-05
5.039265e-05
5.0768161e-05
5.112942e-05
5.1477049e-05
5.1810936e-05
5.2133016e-05
5.2438736e-05
5.2746186e-05
5.2989337e-05
5.3420377e-05
0.00017637508
0.000175034
0.00017184464
0.00016639242
0.00015894997
0.00015018825
0.00014081531
0.00013138321
0.000122252
0.0001136255
0.00010560036
9.8206016e-05
9.143313e-05
8.5250817e-05
7.9617411e-05
7.4487031e-05
6.9813266e-05
6.5551169e-05
6.1658317e-05
5.8094772e-05
5.4823558e-05
5.181e-05
4.9021727e-05
4.6428246e-05
4.4000446e-05
4.1711349e-05
3.9534046e-05
3.7440901e-05
3.5403493e-05
3.3395952e-05
3.1392716e-05
2.9377572e-05
2.733606e-05
2.5254357e-05
2.3118269e-05
2.0934933e-05
1.871853e-05
1.6492794e-05
1.4311723e-05
1.220679e-05
1.0265148e-05
8.5388929e-06
7.0861792e-06
5.9689629e-06
5.1861864e-06
4.9337082e-06
5.093095e-06
5.6933089e-06
6.7903612e-06
8.2618362e-06
9.9943013e-06
1.1882032e-05
1.3818329e-05
1.5723654e-05
1.7559902e-05
1.9324691e-05
2.1032263e-05
2.2694323e-05
2.4312729e-05
2.588392e-05
2.7405896e-05
2.8880274e-05
3.0309927e-05
3.1696791e-05
3.3041931e-05
3.4346461e-05
3.5611774e-05
3.6839217e-05
3.8029943e-05
3.9185014e-05
4.0305476e-05
4.1392321e-05
4.2446475e-05
4.3468815e-05
4.4460183e-05
4.5421382e-05
4.6353181e-05
4.7256321e-05
4.8131515e-05
4.8979456e-05
4.9800815e-05
5.0596246e-05
5.1366385e-05
5.2111854e-05
5.2833262e-05
5.3531205e-05
5.4206269e-05
5.485903e-05
5.5490053e-05
5.60999e-05
5.6689108e-05
5.725825e-05
5.7807777e-05
5.8338432e-05
5.8850129e-05
5.9345239e-05
5.9817765e-05
6.0292894e-05
6.0673464e-05
6.1346668e-05
0.00017768313
0.00017725492
0.00017624473
0.00017425504
0.00017104418
0.00016661209
0.00016115334
0.00015495451
0.0001483068
0.00014145862
0.00013460092
0.00012787006
0.00012135774
0.00011512145
0.00010919372
0.00010358931
9.8310698e-05
9.3352007e-05
8.8701825e-05
8.4345018e-05
8.0264142e-05
7.644027e-05
7.2853562e-05
6.9483656e-05
6.6309754e-05
6.3310923e-05
6.0466092e-05
5.7753567e-05
5.5150723e-05
5.2634502e-05
5.0181723e-05
4.7772532e-05
4.537577e-05
4.2964997e-05
4.0521291e-05
3.8032462e-05
3.5485487e-05
3.2874611e-05
3.0188594e-05
2.7482558e-05
2.4724486e-05
2.1959225e-05
1.9225443e-05
1.6585098e-05
1.4072482e-05
1.1809349e-05
9.8273281e-06
8.2227707e-06
7.0074561e-06
6.3476313e-06
6.2227508e-06
6.6126802e-06
7.567439e-06
8.9701136e-06
1.0702931e-05
1.2651884e-05
1.4699919e-05
1.6755939e-05
1.877229e-05
2.0739043e-05
2.2662846e-05
2.4548197e-05
2.6392423e-05
2.8190943e-05
2.9942172e-05
3.1647222e-05
3.330745e-05
3.4923552e-05
3.6496141e-05
3.8026138e-05
3.9514568e-05
4.0962359e-05
4.2370396e-05
4.3739572e-05
4.5070759e-05
4.6364795e-05
4.7622496e-05
4.8844656e-05
5.0032047e-05
5.1185421e-05
5.2305513e-05
5.3393043e-05
5.4448714e-05
5.5473217e-05
5.6467233e-05
5.7431433e-05
5.8366477e-05
5.9273018e-05
6.0151702e-05
6.1003172e-05
6.1828047e-05
6.2626985e-05
6.340052e-05
6.4149498e-05
6.4873844e-05
6.5576388e-05
6.6249482e-05
6.6926434e-05
6.7473947e-05
6.8439745e-05
0.00017895426
0.00017872306
0.00017833443
0.00017761266
0.00017635941
0.00017442153
0.00017173395
0.00016832314
0.00016428261
0.00015974038
0.0001548322
0.00014968462
0.00014440685
0.00013908835
0.0001337996
0.00012859436
0.00012351232
0.00011858168
0.00011382144
0.00010924324
0.00010485292
0.00010065171
9.6637211e-05
9.2804055e-05
8.9144474e-05
8.5648683e-05
8.2305288e-05
7.910142e-05
7.6022708e-05
7.3053421e-05
7.0176568e-05
6.7375831e-05
6.4630858e-05
6.1919462e-05
5.9220553e-05
5.6515865e-05
5.3787998e-05
5.1023844e-05
4.8198291e-05
4.5304385e-05
4.2333003e-05
3.9285885e-05
3.6157897e-05
3.2984408e-05
2.9764159e-05
2.6551037e-05
2.3369873e-05
2.0284719e-05
1.7328507e-05
1.4618815e-05
1.2227942e-05
1.025531e-05
8.732192e-06
7.8365361e-06
7.551765e-06
7.8657787e-06
8.809819e-06
1.0232052e-05
1.203408e-05
1.4084461e-05
1.6256173e-05
1.8456802e-05
2.0640839e-05
2.2796828e-05
2.4924183e-05
2.7019226e-05
2.9075379e-05
3.1088093e-05
3.3056081e-05
3.4979314e-05
3.6857648e-05
3.8691002e-05
4.0479677e-05
4.2224195e-05
4.3925113e-05
4.5583027e-05
4.719859e-05
4.8772476e-05
5.0305372e-05
5.1797969e-05
5.3250964e-05
5.4665052e-05
5.604093e-05
5.7379289e-05
5.8680822e-05
5.9946218e-05
6.1176165e-05
6.237135e-05
6.3532455e-05
6.4660167e-05
6.5755155e-05
6.6818128e-05
6.7849677e-05
6.8850722e-05
6.9821176e-05
7.0764334e-05
7.1670719e-05
7.2582639e-05
7.3326136e-05
7.4633962e-05
0.00018036931
0.00018017063
0.0001799298
0.00017959136
0.00017906557
0.00017824599
0.00017703514
0.00017536629
0.00017321323
0.00017058818
0.0001675326
0.00016410602
0.000160376
0.00015641089
0.00015227508
0.00014802654
0.00014371567
0.00013938521
0.00013507061
0.00013080059
0.00012659792
0.00012248007
0.00011845995
0.00011454642
0.00011074484
0.00010705748
0.00010348388
0.00010002127
9.6664672e-05
9.3407126e-05
9.0239782e-05
8.7152801e-05
8.4134287e-05
8.1170021e-05
7.8244299e-05
7.5341213e-05
7.2444663e-05
6.9540255e-05
6.6610006e-05
6.3637766e-05
6.0609147e-05
5.7514734e-05
5.4344382e-05
5.1103267e-05
4.7766032e-05
4.4327078e-05
4.0837066e-05
3.7267006e-05
3.3651701e-05
3.0047252e-05
2.6479827e-05
2.3021508e-05
1.9714695e-05
1.6686386e-05
1.4023842e-05
1.1831499e-05
1.0159695e-05
9.2385414e-06
8.9607924e-06
9.383638e-06
1.0445512e-05
1.2017744e-05
1.397944e-05
1.6184684e-05
1.8506231e-05
2.0863865e-05
2.3222439e-05
2.5569684e-05
2.7897e-05
3.0194728e-05
3.2455335e-05
3.4674916e-05
3.6851557e-05
3.8983854e-05
4.1070816e-05
4.3111992e-05
4.5107284e-05
4.7056768e-05
4.8960665e-05
5.0819318e-05
5.2633147e-05
5.4402633e-05
5.6128302e-05
5.7810716e-05
5.9450464e-05
6.1048158e-05
6.2604427e-05
6.4119915e-05
6.5595278e-05
6.7031186e-05
6.8428304e-05
6.9787346e-05
7.1108916e-05
7.2393967e-05
7.3642368e-05
7.4857863e-05
7.6029e-05
7.7207823e-05
7.81756e-05
7.9873626e-05
0.00018195752
0.00018176007
0.00018154696
0.00018130575
0.00018100656
0.00018060197
0.00018003265
0.00017923758
0.00017816445
0.00017677706
0.00017505839
0.0001730098
0.00017064783
0.0001679999
0.00016510025
0.00016198644
0.0001586967
0.00015526809
0.00015173533
0.00014813004
0.00014448042
0.00014081109
0.00013714317
0.00013349436
0.00012987913
0.00012630887
0.00012279212
0.00011933481
0.00011594046
0.00011261031
0.00010934349
0.00010613737
0.0001029875
9.9887351e-05
9.6828359e-05
9.3800417e-05
9.0792151e-05
8.7791941e-05
8.4786713e-05
8.1762564e-05
7.8705334e-05
7.5602502e-05
7.2441413e-05
6.9216091e-05
6.5912169e-05
6.2515066e-05
5.9032859e-05
5.5460417e-05
5.1782851e-05
4.8033388e-05
4.4169938e-05
4.0248685e-05
3.6288331e-05
3.2336594e-05
2.8445884e-05
2.4691894e-05
2.1128386e-05
1.7913985e-05
1.5135498e-05
1.2878574e-05
1.1321088e-05
1.0528623e-05
1.0487003e-05
1.1196436e-05
1.2528849e-05
1.4375125e-05
1.6576878e-05
1.8981996e-05
2.148279e-05
2.4021868e-05
2.6572796e-05
2.9119185e-05
3.1646903e-05
3.4145205e-05
3.6607527e-05
3.9029854e-05
4.140929e-05
4.3743782e-05
4.6032033e-05
4.8273247e-05
5.0466955e-05
5.2612948e-05
5.4711215e-05
5.6761891e-05
5.8765223e-05
6.0721548e-05
6.2631276e-05
6.449487e-05
6.6312844e-05
6.808575e-05
6.9814164e-05
7.1498725e-05
7.3139986e-05
7.4738869e-05
7.6295154e-05
7.7812999e-05
7.9278837e-05
8.0755076e-05
8.1974417e-05
8.4109284e-05
0.00018372142
0.00018352085
0.00018331002
0.00018308854
0.00018284894
0.00018257509
0.00018224136
0.00018181425
0.00018125618
0.00018053025
0.00017960462
0.00017845568
0.00017706956
0.00017544209
0.00017357778
0.00017148814
0.00016918996
0.00016670355
0.00016405128
0.00016125638
0.00015834199
0.00015533043
0.00015224275
0.00014909833
0.00014591466
0.00014270719
0.00013948927
0.00013627214
0.00013306499
0.00012987499
0.00012670739
0.00012356562
0.00012045135
0.00011736443
0.00011430278
0.00011126247
0.00010823785
0.00010522203
0.00010220677
9.9182551e-05
9.6138689e-05
9.3064262e-05
8.9947685e-05
8.6779685e-05
8.3549292e-05
8.0243127e-05
7.6854479e-05
7.3377336e-05
6.9800348e-05
6.6127926e-05
6.2343822e-05
5.8440235e-05
5.4459301e-05
5.0361719e-05
4.6171864e-05
4.1927475e-05
3.7648062e-05
3.3399032e-05
2.9257852e-05
2.5281124e-05
2.1593591e-05
1.8331401e-05
1.5598257e-05
1.3540603e-05
1.2324201e-05
1.1909681e-05
1.2325101e-05
1.3462773e-05
1.5218767e-05
1.7422598e-05
1.9904522e-05
2.2537726e-05
2.5247543e-05
2.7994339e-05
3.075307e-05
3.3504454e-05
3.6234457e-05
3.8933933e-05
4.1596758e-05
4.4218504e-05
4.6796016e-05
4.9327118e-05
5.1810302e-05
5.4244545e-05
5.6629192e-05
5.8963871e-05
6.1248421e-05
6.3482849e-05
6.5667297e-05
6.7802016e-05
6.9887332e-05
7.1923679e-05
7.3911451e-05
7.5851436e-05
7.7743248e-05
7.9591394e-05
8.1380051e-05
8.3182529e-05
8.4679413e-05
8.7295903e-05
0.00018566047
0.00018545676
0.00018524395
0.00018502446
0.00018479734
0.00018455833
0.0001842987
0.00018400448
0.00018365672
0.00018323259
0.0001827075
0.00018205735
0.00018126072
0.00018030044
0.00017916457
0.0001778466
0.00017634527
0.00017466396
0.00017280995
0.00017079355
0.00016862731
0.00016632524
0.00016390221
0.00016137332
0.00015875349
0.00015605706
0.00015329752
0.00015048726
0.0001476375
0.00014475809
0.00014185756
0.00013894302
0.00013602019
0.00013309333
0.00013016512
0.00012723661
0.00012430719
0.00012137474
0.00011843569
0.00011548509
0.00011251655
0.00010952266
0.00010649487
0.00010342478
0.00010030347
9.7120342e-05
9.3866e-05
9.0532238e-05
8.7109003e-05
8.3591146e-05
7.996876e-05
7.6229456e-05
7.2382778e-05
6.8416736e-05
6.4311819e-05
6.0112959e-05
5.5790803e-05
5.1370928e-05
4.6870449e-05
4.2313524e-05
3.7751411e-05
3.326372e-05
2.8934241e-05
2.4864035e-05
2.1219931e-05
1.8107812e-05
1.5687653e-05
1.4150232e-05
1.3476725e-05
1.3693831e-05
1.4722752e-05
1.6451483e-05
1.8696195e-05
2.127515e-05
2.4049954e-05
2.6934543e-05
2.987889e-05
3.2850158e-05
3.5824282e-05
3.8784273e-05
4.1718668e-05
4.461944e-05
4.748077e-05
5.0298475e-05
5.3069551e-05
5.5791831e-05
5.846377e-05
6.108429e-05
6.3652675e-05
6.6168484e-05
6.8631492e-05
7.1041674e-05
7.339906e-05
7.5704133e-05
7.7956207e-05
8.016002e-05
8.2297328e-05
8.4452788e-05
8.6251509e-05
8.9392112e-05
0.00018777425
0.00018756779
0.00018735264
0.0001871318
0.00018690582
0.000186674
0.00018643396
0.00018618101
0.00018590756
0.00018560284
0.00018525322
0.00018484287
0.00018435491
0.00018377263
0.00018308058
0.00018226558
0.00018131726
0.00018022849
0.00017899536
0.00017761707
0.00017609562
0.00017443542
0.00017264284
0.00017072578
0.00016869323
0.00016655488
0.00016432075
0.00016200089
0.00015960511
0.00015714283
0.00015462284
0.00015205326
0.00014944135
0.00014679348
0.00014411495
0.00014140987
0.00013868109
0.00013593012
0.00013315718
0.00013036115
0.00012753957
0.00012468875
0.00012180368
0.00011887858
0.00011590697
0.00011288119
0.0001097931
0.00010663472
0.00010339718
0.00010007299
9.6653651e-05
9.3127911e-05
8.9491953e-05
8.5739012e-05
8.1854268e-05
7.7845661e-05
7.3703145e-05
6.9413221e-05
6.5013686e-05
6.0474383e-05
5.5822092e-05
5.1080731e-05
4.6263663e-05
4.1419328e-05
3.663375e-05
3.1995716e-05
2.761469e-05
2.3671161e-05
2.0272674e-05
1.7623567e-05
1.5881446e-05
1.5075165e-05
1.5213779e-05
1.6246897e-05
1.8035408e-05
2.0381702e-05
2.3096927e-05
2.6037869e-05
2.911267e-05
3.2264376e-05
3.5454337e-05
3.8654913e-05
4.1846864e-05
4.5016869e-05
4.8155388e-05
5.1255485e-05
5.4312113e-05
5.7321563e-05
6.0281107e-05
6.3188748e-05
6.604304e-05
6.8842983e-05
7.1587836e-05
7.4277449e-05
7.6910577e-05
7.9491979e-05
8.2000756e-05
8.4533263e-05
8.6655899e-05
9.0360187e-05
0.00019006254
0.00018985365
0.00018963631
0.00018941368
0.00018918656
0.00018895507
0.00018871876
0.00018847636
0.00018822539
0.00018796171
0.00018767924
0.00018736991
0.00018702382
0.00018662971
0.00018617552
0.0001856491
0.00018503884
0.00018433428
0.00018352653
0.0001826086
0.00018157554
0.00018042444
0.0001791544
0.00017776629
0.00017626261
0.00017464718
0.00017292488
0.00017110145
0.00016918314
0.0001671766
0.0001650886
0.00016292591
0.00016069512
0.00015840251
0.00015605388
0.00015365441
0.00015120851
0.00014871969
0.00014619052
0.00014362252
0.0001410161
0.00013837057
0.00013568405
0.00013295357
0.00013017533
0.00012734444
0.00012445511
0.00012150104
0.0001184751
0.00011537021
0.00011217892
0.00010889195
0.00010550191
0.00010200175
9.838013e-05
9.4632589e-05
9.0751986e-05
8.6726768e-05
8.2562802e-05
7.8247764e-05
7.3780281e-05
6.9169166e-05
6.4414548e-05
5.9527419e-05
5.4542776e-05
4.948025e-05
4.4374366e-05
3.93245e-05
3.4411563e-05
2.9783874e-05
2.5614955e-05
2.2029778e-05
1.9284131e-05
1.7468626e-05
1.6660026e-05
1.6862576e-05
1.8023482e-05
1.996788e-05
2.248603e-05
2.5386392e-05
2.85268e-05
3.1814376e-05
3.5188611e-05
3.8607541e-05
4.2041587e-05
4.5470145e-05
4.8878638e-05
5.225651e-05
5.5596046e-05
5.8891553e-05
6.2138797e-05
6.5334637e-05
6.8476682e-05
7.156347e-05
7.4592675e-05
7.7568673e-05
8.0467509e-05
8.3397462e-05
8.5863057e-05
9.0166697e-05
0.00019252522
0.00019231412
0.00019209476
0.00019187037
0.00019164175
0.00019140913
0.00019117254
0.00019093175
0.00019068611
0.00019043429
0.00019017405
0.00018990197
0.00018961332
0.00018930205
0.00018896088
0.00018858157
0.00018815522
0.0001876727
0.00018712503
0.00018650379
0.00018580138
0.00018501134
0.00018412844
0.00018314883
0.00018207001
0.00018089079
0.00017961121
0.0001782324
0.00017675646
0.00017518626
0.00017352534
0.00017177771
0.00016994776
0.00016804007
0.00016605927
0.00016400991
0.00016189626
0.00015972221
0.00015749114
0.00015520578
0.00015286813
0.00015047938
0.00014803979
0.00014554867
0.00014300445
0.00014040465
0.0001377458
0.00013502368
0.0001322332
0.00012936875
0.00012642424
0.00012339243
0.00012026599
0.00011703786
0.00011369894
0.00011024165
0.00010665844
0.00010293884
9.907859e-05
9.5068585e-05
9.0902947e-05
8.6575886e-05
8.2081256e-05
7.7420509e-05
7.2598659e-05
6.7623325e-05
6.2500401e-05
5.7264848e-05
5.1957422e-05
4.6603442e-05
4.1309353e-05
3.6162938e-05
3.1354125e-05
2.7035485e-05
2.3388961e-05
2.066273e-05
1.8917024e-05
1.8248926e-05
1.8676516e-05
2.0087452e-05
2.228217e-05
2.5041698e-05
2.8177332e-05
3.1553072e-05
3.5078603e-05
3.8692853e-05
4.2353094e-05
4.6029395e-05
4.9700684e-05
5.3351819e-05
5.6971752e-05
6.0552345e-05
6.4087495e-05
6.7572909e-05
7.1004045e-05
7.4384058e-05
7.7685187e-05
8.1027617e-05
8.3850848e-05
8.8783984e-05
0.00019516217
0.00019494902
0.00019472776
0.00019450167
0.00019427153
0.00019403754
0.00019379981
0.00019355834
0.00019331305
0.00019306358
0.00019280925
0.00019254884
0.00019228043
0.00019200128
0.00019170774
0.00019139525
0.00019105835
0.00019069086
0.00019028605
0.00018983691
0.00018933635
0.00018877749
0.00018815388
0.00018745967
0.00018668979
0.00018584002
0.00018490707
0.00018388856
0.00018278304
0.00018158991
0.00018030938
0.00017894239
0.0001774905
0.0001759558
0.00017434081
0.00017264832
0.00017088128
0.0001690427
0.00016713546
0.00016516225
0.00016312538
0.00016102673
0.0001588676
0.00015664863
0.00015436975
0.00015203017
0.00014962826
0.00014716162
0.00014462705
0.00014202064
0.00013933787
0.00013657333
0.00013372099
0.0001307746
0.00012772676
0.00012456997
0.00012129672
0.00011789784
0.00011436594
0.00011069234
0.00010686867
0.00010288651
9.8738113e-05
9.4415878e-05
8.9914429e-05
8.5231131e-05
8.036372e-05
7.5317709e-05
7.0109275e-05
6.4742007e-05
5.9252947e-05
5.3686427e-05
4.8101576e-05
4.2585568e-05
3.7261775e-05
3.2335046e-05
2.7960562e-05
2.4398924e-05
2.179188e-05
2.0275031e-05
1.9933533e-05
2.0733168e-05
2.2509561e-05
2.5040295e-05
2.8103299e-05
3.1519845e-05
3.5164342e-05
3.8951687e-05
4.2822968e-05
4.6736911e-05
5.0664498e-05
5.4585013e-05
5.8483388e-05
6.2348815e-05
6.6171889e-05
6.9952659e-05
7.3658023e-05
7.7419527e-05
8.0608382e-05
8.6192867e-05
0.00019797327
0.00019775819
0.00019753509
0.00019730735
0.00019707569
0.00019684031
0.00019660127
0.00019635862
0.0001961124
0.00019586255
0.00019560891
0.0001953511
0.00019508846
0.00019481993
0.00019454393
0.00019425829
0.00019396018
0.00019364611
0.00019331194
0.00019295293
0.00019256389
0.00019213932
0.00019167355
0.0001911609
0.00019059587
0.00018997328
0.00018928834
0.00018853684
0.00018771514
0.00018682024
0.00018584984
0.00018480228
0.00018367656
0.0001824723
0.00018118969
0.00017982938
0.00017839244
0.00017688025
0.00017529441
0.0001736366
0.00017190853
0.00017011177
0.00016824765
0.00016631717
0.00016432092
0.00016225897
0.00016013083
0.00015793535
0.00015567075
0.00015333457
0.00015092371
0.00014843436
0.00014586197
0.00014320151
0.00014044711
0.00013759233
0.00013463043
0.00013155357
0.00012835406
0.00012502361
0.0001215536
0.00011793496
0.00011415864
0.0001102152
0.00010609537
0.00010179307
9.729796e-05
9.2603599e-05
8.7713889e-05
8.2623484e-05
7.7338718e-05
7.1874263e-05
6.6251137e-05
6.0502219e-05
5.4681132e-05
4.8877679e-05
4.3171349e-05
3.7743443e-05
3.2766747e-05
2.8482101e-05
2.5106714e-05
2.2793776e-05
2.1696488e-05
2.1854952e-05
2.3155618e-05
2.5392409e-05
2.8325909e-05
3.1741012e-05
3.5475354e-05
3.9416085e-05
4.3485255e-05
4.7628365e-05
5.1807098e-05
5.5994502e-05
6.0169662e-05
6.4324969e-05
6.8418529e-05
7.2591452e-05
7.6142978e-05
8.2387426e-05
0.00020095839
0.00020074143
0.00020051655
0.00020028716
0.00020005399
0.00019981718
0.0001995768
0.00019933286
0.00019908542
0.00019883448
0.00019858004
0.00019832199
0.00019806014
0.00019779412
0.00019752333
0.00019724688
0.00019696348
0.00019667142
0.00019636849
0.000196052
0.00019571871
0.00019536497
0.00019498669
0.00019457947
0.00019413871
0.00019365969
0.0001931377
0.00019256815
0.00019194667
0.0001912692
0.00019053206
0.000189732
0.00018886627
0.0001879326
0.00018692926
0.00018585497
0.00018470896
0.00018349084
0.0001822006
0.00018083853
0.00017940515
0.00017790107
0.00017632699
0.0001746835
0.00017297106
0.00017118989
0.00016933988
0.00016742052
0.00016543082
0.00016336929
0.0001612339
0.00015902202
0.00015673039
0.00015435518
0.00015189189
0.00014933535
0.00014667989
0.00014391902
0.00014104581
0.0001380528
0.00013493196
0.00013167468
0.00012827193
0.00012471415
0.00012099116
0.00011709399
0.00011301184
0.00010873542
0.00010425668
9.9566958e-05
9.4660895e-05
8.9538461e-05
8.4200976e-05
7.8655672e-05
7.2918563e-05
6.7026376e-05
6.1012182e-05
5.4956435e-05
4.8951812e-05
4.311811e-05
3.7644553e-05
3.2749125e-05
2.869069e-05
2.565597e-05
2.3850506e-05
2.3376732e-05
2.4180235e-05
2.6085198e-05
2.8849429e-05
3.2230627e-05
3.6031747e-05
4.0110471e-05
4.4367622e-05
4.8734209e-05
5.3160196e-05
5.7618573e-05
6.2050288e-05
6.6601004e-05
7.0493096e-05
7.7383549e-05
0.00020411734
0.00020389854
0.00020367187
0.00020344083
0.00020320612
0.00020296787
0.0002027261
0.00020248084
0.0002022321
0.0002019799
0.00020172426
0.00020146516
0.00020120255
0.00020093631
0.00020066623
0.00020039198
0.00020011304
0.00019982865
0.00019953779
0.00019923908
0.0001989308
0.0001986108
0.00019827656
0.00019792517
0.00019755337
0.0001971576
0.00019673405
0.00019627876
0.0001957877
0.00019525682
0.00019468218
0.00019405999
0.00019338668
0.000192659
0.000191874
0.0001910291
0.00019012211
0.00018915119
0.00018811492
0.00018701216
0.00018584214
0.0001846043
0.00018329831
0.00018192394
0.00018048102
0.00017896937
0.00017738868
0.00017573848
0.00017401802
0.00017222623
0.00017036169
0.00016842251
0.00016640632
0.00016431026
0.0001621309
0.0001598642
0.00015750561
0.00015504986
0.00015249112
0.00014982295
0.00014703833
0.00014412955
0.00014108835
0.00013790579
0.00013457215
0.00013107779
0.00012741204
0.00012356412
0.00011952347
0.00011527933
0.00011082156
0.00010614038
0.00010122867
9.6083217e-05
9.0700841e-05
8.5090385e-05
7.9260246e-05
7.3238329e-05
6.7066546e-05
6.0797161e-05
5.4521914e-05
4.836501e-05
4.2478234e-05
3.7072748e-05
3.2409231e-05
2.8729054e-05
2.6280274e-05
2.5211276e-05
2.5526602e-05
2.7088854e-05
2.9664127e-05
3.2992188e-05
3.6845589e-05
4.1053203e-05
4.5491988e-05
5.0085185e-05
5.4735323e-05
5.9579007e-05
6.3753563e-05
7.1234869e-05
0.0002074499
0.00020722926
0.0002070008
0.00020676806
0.00020653176
0.00020629201
0.00020604882
0.00020580219
0.0002055521
0.00020529859
0.00020504164
0.00020478127
0.00020451745
0.00020425014
0.00020397929
0.00020370475
0.00020342633
0.00020314374
0.00020285651
0.00020256404
0.00020226547
0.0002019597
0.00020164535
0.00020132071
0.00020098375
0.00020063212
0.00020026317
0.00019987397
0.00019946134
0.00019902193
0.00019855228
0.00019804885
0.00019750809
0.00019692656
0.0001963009
0.00019562793
0.00019490471
0.00019412851
0.0001932969
0.00019240771
0.00019145907
0.00019044936
0.00018937722
0.00018824149
0.00018704117
0.00018577538
0.00018444327
0.000183044
0.00018157663
0.00018004008
0.00017843307
0.00017675405
0.00017500111
0.000173172
0.00017126404
0.00016927405
0.00016719837
0.0001650328
0.00016277253
0.00016041219
0.00015794582
0.0001553668
0.00015266789
0.00014984116
0.00014687787
0.00014376884
0.00014050409
0.00013707302
0.0001334646
0.00012966732
0.00012566945
0.00012145874
0.00011702475
0.00011235546
0.00010744076
0.00010227726
9.685906e-05
9.1188835e-05
8.5278599e-05
7.9145474e-05
7.282461e-05
6.6373132e-05
5.9864963e-05
5.3410434e-05
4.7171602e-05
4.133495e-05
3.6150993e-05
3.1908193e-05
2.8882883e-05
2.7270918e-05
2.7130143e-05
2.8363029e-05
3.0750236e-05
3.4021496e-05
3.7922187e-05
4.226295e-05
4.6858685e-05
5.1801553e-05
5.6127842e-05
6.4063909e-05
0.00021095579
0.00021073328
0.00021050298
0.00021026849
0.00021003055
0.00020978924
0.00020954456
0.00020929649
0.000209045
0.00020879011
0.0002085318