/*--------------------------------*- C++ -*----------------------------------*\
  =========                 |
  \\      /  F ield         | OpenFOAM: The Open Source CFD Toolbox
   \\    /   O peration     | Website:  https://openfoam.org
    \\  /    A nd           | Version:  12
     \\/     M anipulation  |
\*---------------------------------------------------------------------------*/
FoamFile
{
    format      ascii;
    class       volScalarField;
    location    "1000";
    object      nut;
}
// * * * * * * * * * * * * * * * * * * * * * * * * * * * * * * * * * * * * * //

dimensions      [0 2 -1 0 0 0 0];

internalField   nonuniform List<scalar> 
13056
(
4.8184771e-07
2.8679816e-07
2.4220646e-07
2.2406898e-07
2.1358732e-07
2.0657472e-07
2.0157404e-07
1.9786685e-07
1.9503587e-07
1.9282151e-07
1.9105517e-07
1.8962322e-07
1.8844655e-07
1.8746846e-07
1.8664745e-07
1.8595222e-07
1.8535986e-07
1.8484936e-07
1.8442202e-07
1.8398989e-07
1.8394584e-07
1.8239526e-07
1.8753463e-07
1.0878165e-07
3.7788155e-11
4.6690551e-11
4.3266044e-11
3.9842828e-11
3.7298342e-11
3.5233754e-11
3.3481758e-11
3.1984139e-11
3.0696221e-11
2.957529e-11
2.8587155e-11
2.7707023e-11
2.6917101e-11
2.6202664e-11
2.5550815e-11
2.495218e-11
2.4399675e-11
2.3887025e-11
2.3409166e-11
2.2961918e-11
2.2541769e-11
2.2145796e-11
2.177141e-11
2.1416497e-11
2.1079253e-11
2.0758025e-11
2.0451508e-11
2.0158502e-11
1.9877813e-11
1.9608463e-11
1.9349593e-11
1.910034e-11
1.8859938e-11
1.8627783e-11
1.8403316e-11
1.8185965e-11
1.7975251e-11
1.7770784e-11
1.7572173e-11
1.7379005e-11
1.7190924e-11
1.7007645e-11
1.6828898e-11
1.6654378e-11
1.6483799e-11
1.6316964e-11
1.6153688e-11
1.5993744e-11
1.5836906e-11
1.5683005e-11
1.5531898e-11
1.5383434e-11
1.5237439e-11
1.5093736e-11
1.4952222e-11
1.4812792e-11
1.4675312e-11
1.4539647e-11
1.4405666e-11
1.427329e-11
1.4142436e-11
1.4012991e-11
1.3884838e-11
1.3757883e-11
1.3632057e-11
1.3507285e-11
1.3383467e-11
1.3260497e-11
1.3138308e-11
1.3016837e-11
1.2896002e-11
1.2775712e-11
1.2655872e-11
1.2536424e-11
1.2417307e-11
1.2298425e-11
1.2179684e-11
1.2061014e-11
1.1942349e-11
1.1823598e-11
1.170466e-11
1.1585451e-11
1.1465895e-11
1.134589e-11
1.1225322e-11
1.1104095e-11
1.0982112e-11
1.0859232e-11
1.0735357e-11
1.0613009e-11
1.0495985e-11
1.0385244e-11
1.0280244e-11
1.018051e-11
1.0085606e-11
9.9951341e-12
9.9087489e-12
9.8261435e-12
9.747036e-12
9.6711656e-12
9.598295e-12
9.5282136e-12
9.4607285e-12
9.3956435e-12
9.3327982e-12
9.2719364e-12
9.2130456e-12
9.1553764e-12
9.0999134e-12
9.0428716e-12
8.992938e-12
8.9113771e-12
4.8223363e-07
2.8701116e-07
2.4233937e-07
2.2416674e-07
2.1366418e-07
2.066374e-07
2.0162648e-07
1.9791158e-07
1.9507464e-07
1.9285557e-07
1.9108542e-07
1.8965035e-07
1.8847109e-07
1.8749082e-07
1.8666795e-07
1.8597112e-07
1.8537736e-07
1.8486562e-07
1.844372e-07
1.8400401e-07
1.8395977e-07
1.8240337e-07
1.8756612e-07
1.0900308e-07
7.7999927e-09
1.0119937e-08
9.5210797e-09
8.8461039e-09
8.3310894e-09
7.9068764e-09
7.5431313e-09
7.2297376e-09
6.958485e-09
6.7211194e-09
6.5108975e-09
6.3228823e-09
6.1535074e-09
5.9998025e-09
5.8591424e-09
5.7296068e-09
5.609745e-09
5.4982673e-09
5.3941263e-09
5.2964552e-09
5.2045245e-09
5.1177259e-09
5.0355185e-09
4.9574594e-09
4.8831716e-09
4.812308e-09
4.7445944e-09
4.679779e-09
4.6176085e-09
4.5578763e-09
4.5003997e-09
4.4449952e-09
4.3914994e-09
4.3397836e-09
4.2897284e-09
4.2412118e-09
4.1941312e-09
4.1484034e-09
4.1039446e-09
4.060666e-09
4.0184905e-09
3.9773574e-09
3.937208e-09
3.8979768e-09
3.8596012e-09
3.8220391e-09
3.7852505e-09
3.749186e-09
3.7137962e-09
3.6790445e-09
3.6448997e-09
3.6113293e-09
3.5782947e-09
3.5457571e-09
3.5136941e-09
3.4820827e-09
3.4508936e-09
3.4200967e-09
3.3896631e-09
3.3595756e-09
3.3298159e-09
3.3003588e-09
3.2711783e-09
3.2422533e-09
3.2135689e-09
3.1851083e-09
3.1568488e-09
3.1287665e-09
3.1008468e-09
3.0730755e-09
3.045434e-09
3.0179013e-09
2.9904564e-09
2.9630862e-09
2.9357764e-09
2.9085054e-09
2.8812513e-09
2.8539986e-09
2.8267321e-09
2.7994304e-09
2.7720704e-09
2.7446329e-09
2.7171001e-09
2.6894483e-09
2.6616511e-09
2.6336861e-09
2.6055305e-09
2.5771516e-09
2.5485261e-09
2.5202372e-09
2.493164e-09
2.467531e-09
2.4432144e-09
2.4201066e-09
2.3981076e-09
2.377127e-09
2.3570857e-09
2.3379137e-09
2.3195465e-09
2.3019244e-09
2.284993e-09
2.2687041e-09
2.2530135e-09
2.2378762e-09
2.2232551e-09
2.2090913e-09
2.195382e-09
2.1819537e-09
2.1690347e-09
2.1557461e-09
2.1441069e-09
2.1250906e-09
4.8351307e-07
2.8767863e-07
2.4275872e-07
2.2447928e-07
2.1391225e-07
2.0684145e-07
2.0179866e-07
1.9805979e-07
1.9520432e-07
1.9297058e-07
1.9118861e-07
1.8974386e-07
1.8855655e-07
1.8756951e-07
1.8674086e-07
1.8603905e-07
1.8544095e-07
1.8492536e-07
1.8449354e-07
1.8405693e-07
1.8401141e-07
1.8244157e-07
1.8765445e-07
1.0915942e-07
3.8980032e-08
5.4426013e-08
5.2770363e-08
4.9972058e-08
4.7695209e-08
4.5752958e-08
4.4047773e-08
4.2552372e-08
4.1239122e-08
4.0075689e-08
3.9034244e-08
3.8093915e-08
3.7239378e-08
3.6457714e-08
3.5737288e-08
3.5069418e-08
3.4447571e-08
3.3865909e-08
3.3319601e-08
3.2804629e-08
3.2317607e-08
3.1855689e-08
3.1416328e-08
3.0997429e-08
3.0597209e-08
3.021402e-08
2.9846558e-08
2.9493617e-08
2.9153971e-08
2.8826612e-08
2.8510649e-08
2.8205176e-08
2.7909386e-08
2.7622641e-08
2.7344353e-08
2.7073914e-08
2.6810813e-08
2.6554637e-08
2.6304968e-08
2.6061355e-08
2.5823407e-08
2.5590817e-08
2.5363287e-08
2.5140482e-08
2.4922077e-08
2.4707857e-08
2.449762e-08
2.4291108e-08
2.4088062e-08
2.388829e-08
2.3691633e-08
2.3497918e-08
2.3306943e-08
2.3118497e-08
2.2932462e-08
2.274872e-08
2.2567112e-08
2.2387473e-08
2.2209647e-08
2.203354e-08
2.1859054e-08
2.1686052e-08
2.1514387e-08
2.1343942e-08
2.1174634e-08
2.1006371e-08
2.0839023e-08
2.0672453e-08
2.0506579e-08
2.0341319e-08
2.0176566e-08
2.0012197e-08
1.9848088e-08
1.9684163e-08
1.9520336e-08
1.9356479e-08
1.9192458e-08
1.9028182e-08
1.8863557e-08
1.8698451e-08
1.8532722e-08
1.8366252e-08
1.8198928e-08
1.8030601e-08
1.7861105e-08
1.7690299e-08
1.7518036e-08
1.7344107e-08
1.716836e-08
1.6994376e-08
1.6827588e-08
1.6669418e-08
1.651914e-08
1.6376124e-08
1.623978e-08
1.6109573e-08
1.5985037e-08
1.5865756e-08
1.5751348e-08
1.5641456e-08
1.5535755e-08
1.5433958e-08
1.53358e-08
1.5241009e-08
1.5149364e-08
1.5060503e-08
1.4974413e-08
1.4890022e-08
1.4808747e-08
1.4725116e-08
1.4651752e-08
1.4531768e-08
4.8573055e-07
2.8882744e-07
2.4348269e-07
2.2502067e-07
2.1434307e-07
2.0719668e-07
2.0209915e-07
1.9831911e-07
1.9543179e-07
1.9317285e-07
1.9137057e-07
1.8990917e-07
1.8870803e-07
1.8770934e-07
1.8687077e-07
1.861604e-07
1.8555483e-07
1.850326e-07
1.8459496e-07
1.8415241e-07
1.8410444e-07
1.8251417e-07
1.8780417e-07
1.0924249e-07
8.4456857e-08
1.2535582e-07
1.2496121e-07
1.2044853e-07
1.1642014e-07
1.1283395e-07
1.0960353e-07
1.0671974e-07
1.0415126e-07
1.0184873e-07
9.9766556e-08
9.7869382e-08
9.6130557e-08
9.4527556e-08
9.303985e-08
9.1651592e-08
9.0350926e-08
8.9127348e-08
8.7971895e-08
8.68771e-08
8.5836671e-08
8.4845276e-08
8.3898126e-08
8.2991243e-08
8.2121263e-08
8.1285078e-08
8.0480197e-08
7.9704322e-08
7.8955084e-08
7.8230517e-08
7.7528869e-08
7.684836e-08
7.6187393e-08
7.5544698e-08
7.4919113e-08
7.4309435e-08
7.3714648e-08
7.3133929e-08
7.256644e-08
7.201127e-08
7.1467625e-08
7.0934875e-08
7.0412422e-08
6.9899573e-08
6.9395654e-08
6.890022e-08
6.8412865e-08
6.7933048e-08
6.7460217e-08
6.6993976e-08
6.6533987e-08
6.6079891e-08
6.563125e-08
6.5187602e-08
6.4748701e-08
6.4314295e-08
6.3884037e-08
6.3457564e-08
6.3034525e-08
6.2614717e-08
6.2197927e-08
6.1783844e-08
6.137213e-08
6.0962523e-08
6.0554832e-08
6.0148846e-08
5.9744264e-08
5.9340758e-08
5.8938137e-08
5.8536208e-08
5.8134713e-08
5.7733355e-08
5.7331831e-08
5.6929949e-08
5.6527503e-08
5.6124171e-08
5.5719616e-08
5.5313604e-08
5.4905897e-08
5.4496155e-08
5.4084009e-08
5.366915e-08
5.3251281e-08
5.2830008e-08
5.2404889e-08
5.1975545e-08
5.1541579e-08
5.1102426e-08
5.0657664e-08
5.0216347e-08
4.9792338e-08
4.9389375e-08
4.9005737e-08
4.8639921e-08
4.8290518e-08
4.7956241e-08
4.7635969e-08
4.7328702e-08
4.7033513e-08
4.6749536e-08
4.647598e-08
4.6212144e-08
4.5957382e-08
4.5711024e-08
4.5472525e-08
4.5240976e-08
4.5016361e-08
4.4795942e-08
4.458334e-08
4.4364506e-08
4.4172078e-08
4.3856916e-08
4.8895767e-07
2.9050127e-07
2.4454116e-07
2.2581418e-07
2.1497593e-07
2.077196e-07
2.0254241e-07
1.9870245e-07
1.9576878e-07
1.9347316e-07
1.916413e-07
1.9015566e-07
1.8893437e-07
1.8791872e-07
1.8706569e-07
1.8634284e-07
1.8572639e-07
1.8519447e-07
1.8474834e-07
1.8429712e-07
1.842454e-07
1.8262798e-07
1.8802279e-07
1.0928498e-07
1.323648e-07
2.061317e-07
2.0979508e-07
2.0474864e-07
1.9962164e-07
1.9483602e-07
1.9041932e-07
1.8641868e-07
1.8281727e-07
1.7956109e-07
1.7659558e-07
1.738767e-07
1.7136998e-07
1.6904651e-07
1.6688005e-07
1.6484937e-07
1.6293867e-07
1.6113427e-07
1.5942406e-07
1.5779796e-07
1.562475e-07
1.5476545e-07
1.533453e-07
1.519816e-07
1.5066977e-07
1.494056e-07
1.4818566e-07
1.4700679e-07
1.4586574e-07
1.4475973e-07
1.436863e-07
1.4264296e-07
1.4162746e-07
1.4063798e-07
1.3967287e-07
1.3873047e-07
1.3780933e-07
1.3690828e-07
1.3602612e-07
1.3516155e-07
1.3431344e-07
1.3348087e-07
1.3266298e-07
1.3185876e-07
1.3106723e-07
1.3028774e-07
1.2951971e-07
1.2876234e-07
1.2801481e-07
1.2727654e-07
1.2654704e-07
1.2582576e-07
1.2511205e-07
1.2440521e-07
1.2370487e-07
1.2301067e-07
1.2232206e-07
1.2163849e-07
1.2095942e-07
1.2028454e-07
1.1961353e-07
1.1894589e-07
1.1828111e-07
1.1761875e-07
1.1695853e-07
1.1630011e-07
1.15643e-07
1.1498668e-07
1.1433084e-07
1.1367516e-07
1.1301923e-07
1.1236254e-07
1.1170461e-07
1.110451e-07
1.1038368e-07
1.097198e-07
1.0905289e-07
1.0838254e-07
1.0770836e-07
1.0702976e-07
1.0634608e-07
1.0565681e-07
1.0496142e-07
1.0425921e-07
1.035494e-07
1.0283133e-07
1.0210428e-07
1.0136724e-07
1.0061945e-07
9.9876112e-08
9.9160671e-08
9.8479602e-08
9.7830147e-08
9.7209902e-08
9.66166e-08
9.6048164e-08
9.5502787e-08
9.4978855e-08
9.4474865e-08
9.3989405e-08
9.3521185e-08
9.3069065e-08
9.2631991e-08
9.2208862e-08
9.1798778e-08
9.1400228e-08
9.1013189e-08
9.0633075e-08
9.0265924e-08
8.9888058e-08
8.9554939e-08
8.9008664e-08
4.9329373e-07
2.9276175e-07
2.4597679e-07
2.268933e-07
2.1583867e-07
2.0843416e-07
2.0314956e-07
1.9922878e-07
1.9623255e-07
1.9388743e-07
1.9201563e-07
1.9049727e-07
1.8924877e-07
1.882102e-07
1.8733763e-07
1.8659792e-07
1.8596675e-07
1.8542174e-07
1.8496412e-07
1.8450115e-07
1.8444423e-07
1.8279202e-07
1.8832312e-07
1.0932671e-07
1.7855138e-07
2.9006936e-07
3.0012426e-07
2.9556322e-07
2.8988408e-07
2.8426902e-07
2.7895243e-07
2.7407094e-07
2.6963639e-07
2.655992e-07
2.6190231e-07
2.5849717e-07
2.5534387e-07
2.5240937e-07
2.4966408e-07
2.4708269e-07
2.4464642e-07
2.4233957e-07
2.4014761e-07
2.3805843e-07
2.3606197e-07
2.3414952e-07
2.323133e-07
2.3054668e-07
2.2884411e-07
2.2720062e-07
2.25612e-07
2.2407441e-07
2.2258392e-07
2.211371e-07
2.1973088e-07
2.1836217e-07
2.1702822e-07
2.1572673e-07
2.1445566e-07
2.1321295e-07
2.1199683e-07
2.1080582e-07
2.0963841e-07
2.0849301e-07
2.0736818e-07
2.0626276e-07
2.0517563e-07
2.0410557e-07
2.0305133e-07
2.0201204e-07
2.0098699e-07
1.9997517e-07
1.9897552e-07
1.9798731e-07
1.9700988e-07
1.9604255e-07
1.9508447e-07
1.9413473e-07
1.9319285e-07
1.9225834e-07
1.9133052e-07
1.9040866e-07
1.8949203e-07
1.8858023e-07
1.8767283e-07
1.867692e-07
1.858686e-07
1.8497051e-07
1.840745e-07
1.8318014e-07
1.8228677e-07
1.8139366e-07
1.8050041e-07
1.7960659e-07
1.7871161e-07
1.7781479e-07
1.7691546e-07
1.7601315e-07
1.7510739e-07
1.7419743e-07
1.7328247e-07
1.7236193e-07
1.7143526e-07
1.7050161e-07
1.6956009e-07
1.6860992e-07
1.6765038e-07
1.6668045e-07
1.6569903e-07
1.6470515e-07
1.6369779e-07
1.626755e-07
1.6163713e-07
1.6060378e-07
1.5960816e-07
1.586594e-07
1.5775378e-07
1.5688807e-07
1.560592e-07
1.5526435e-07
1.545011e-07
1.5376724e-07
1.5306075e-07
1.5237968e-07
1.5172229e-07
1.5108703e-07
1.5047246e-07
1.4987707e-07
1.4929962e-07
1.4873805e-07
1.4819229e-07
1.4765608e-07
1.4713758e-07
1.4660428e-07
1.46133e-07
1.4535949e-07
4.9886669e-07
2.9569013e-07
2.4784664e-07
2.2830312e-07
2.1696906e-07
2.0937304e-07
2.0394952e-07
1.9992416e-07
1.9684697e-07
1.9443774e-07
1.9251423e-07
1.9095346e-07
1.896697e-07
1.8860143e-07
1.8770353e-07
1.8694195e-07
1.8629169e-07
1.8572969e-07
1.8525715e-07
1.8477892e-07
1.847151e-07
1.8301927e-07
1.8872321e-07
1.0940993e-07
2.2207301e-07
3.7553715e-07
3.9414584e-07
3.9099098e-07
3.8519827e-07
3.7902142e-07
3.7299733e-07
3.6738658e-07
3.6224361e-07
3.5753087e-07
3.5319394e-07
3.49183e-07
3.4545444e-07
3.4197258e-07
3.3870615e-07
3.3562669e-07
3.3271306e-07
3.2994826e-07
3.2731586e-07
3.248021e-07
3.2239568e-07
3.200867e-07
3.1786636e-07
3.1572703e-07
3.136624e-07
3.1166689e-07
3.0973564e-07
3.0786425e-07
3.0604821e-07
3.0428353e-07
3.0256657e-07
3.0089376e-07
2.9926192e-07
2.9766829e-07
2.9611046e-07
2.9458608e-07
2.9309309e-07
2.9162972e-07
2.9019419e-07
2.8878466e-07
2.8739942e-07
2.8603706e-07
2.8469627e-07
2.833756e-07
2.8207356e-07
2.8078912e-07
2.7952141e-07
2.7826925e-07
2.7703135e-07
2.7580684e-07
2.7459493e-07
2.7339479e-07
2.7220541e-07
2.7102567e-07
2.6985498e-07
2.6869276e-07
2.6753819e-07
2.6639034e-07
2.6524837e-07
2.6411175e-07
2.6297997e-07
2.6185224e-07
2.6072768e-07
2.596056e-07
2.5848552e-07
2.5736686e-07
2.5624882e-07
2.5513049e-07
2.5401135e-07
2.5289089e-07
2.5176835e-07
2.5064289e-07
2.4951363e-07
2.4838002e-07
2.4724145e-07
2.4609696e-07
2.4494551e-07
2.4378641e-07
2.4261893e-07
2.4144198e-07
2.4025442e-07
2.3905527e-07
2.3784357e-07
2.3661804e-07
2.3537723e-07
2.341199e-07
2.3284473e-07
2.3154984e-07
2.302337e-07
2.2892307e-07
2.276595e-07
2.264547e-07
2.2530404e-07
2.2420346e-07
2.2314917e-07
2.2213763e-07
2.211658e-07
2.2023095e-07
2.1933052e-07
2.184621e-07
2.1762348e-07
2.1681272e-07
2.1602802e-07
2.1526749e-07
2.1452956e-07
2.1381164e-07
2.1311361e-07
2.124277e-07
2.1176385e-07
2.110817e-07
2.1047753e-07
2.0948532e-07
5.0583476e-07
2.9938959e-07
2.502245e-07
2.3010245e-07
2.1841666e-07
2.1057934e-07
2.0498068e-07
2.0082337e-07
1.9764398e-07
1.951538e-07
1.9316496e-07
1.9155061e-07
1.9022227e-07
1.8911644e-07
1.881865e-07
1.8739725e-07
1.8672282e-07
1.861393e-07
1.8564786e-07
1.851503e-07
1.8507757e-07
1.8332782e-07
1.8924754e-07
1.0958237e-07
2.6276877e-07
4.6241929e-07
4.9183502e-07
4.9105423e-07
4.8556552e-07
4.7905358e-07
4.7246825e-07
4.6623434e-07
4.6046457e-07
4.5514133e-07
4.5021776e-07
4.4564587e-07
4.4137994e-07
4.3738291e-07
4.3362323e-07
4.3007005e-07
4.2670034e-07
4.2349642e-07
4.2044031e-07
4.1751692e-07
4.1471395e-07
4.1202053e-07
4.0942702e-07
4.0692494e-07
4.0450731e-07
4.0216811e-07
3.9990188e-07
3.9770372e-07
3.9556868e-07
3.9349221e-07
3.9147015e-07
3.8949849e-07
3.8757366e-07
3.8569246e-07
3.8385216e-07
3.8205013e-07
3.8028406e-07
3.785519e-07
3.7685162e-07
3.7518112e-07
3.735385e-07
3.7192208e-07
3.7033035e-07
3.6876166e-07
3.672143e-07
3.6568707e-07
3.6417897e-07
3.6268863e-07
3.6121455e-07
3.5975575e-07
3.5831129e-07
3.5688019e-07
3.5546129e-07
3.5405327e-07
3.5265545e-07
3.5126715e-07
3.4988738e-07
3.4851509e-07
3.4714926e-07
3.4578927e-07
3.4443453e-07
3.430841e-07
3.4173692e-07
3.4039221e-07
3.3904935e-07
3.3770769e-07
3.3636627e-07
3.3502398e-07
3.3368022e-07
3.3233437e-07
3.3098552e-07
3.2963266e-07
3.2827474e-07
3.2691109e-07
3.2554096e-07
3.2416321e-07
3.2277657e-07
3.2138021e-07
3.1997325e-07
3.1855437e-07
3.1712216e-07
3.1567543e-07
3.1421304e-07
3.1273339e-07
3.1123473e-07
3.0971555e-07
3.0817421e-07
3.0660842e-07
3.0501628e-07
3.0343015e-07
3.0190041e-07
3.0044132e-07
2.9904732e-07
2.9771357e-07
2.9643549e-07
2.9520886e-07
2.9403004e-07
2.9289574e-07
2.918029e-07
2.907486e-07
2.8973019e-07
2.8874534e-07
2.877919e-07
2.8686757e-07
2.8597048e-07
2.8509749e-07
2.8424844e-07
2.8341413e-07
2.8260606e-07
2.8177663e-07
2.8104049e-07
2.7983101e-07
5.1438878e-07
3.0398852e-07
2.5320408e-07
2.3236658e-07
2.2024543e-07
2.1210907e-07
2.0629313e-07
2.0197203e-07
1.9866569e-07
1.9607491e-07
1.9400483e-07
1.9232383e-07
1.9094002e-07
1.8978743e-07
1.8881759e-07
1.8799387e-07
1.8728931e-07
1.8667896e-07
1.8616392e-07
1.8564225e-07
1.8555823e-07
1.837424e-07
1.8992865e-07
1.0989962e-07
3.005879e-07
5.5095455e-07
5.9369527e-07
5.9641091e-07
5.9168632e-07
5.8506923e-07
5.7805766e-07
5.7129027e-07
5.6495724e-07
5.5906985e-07
5.5359437e-07
5.4848805e-07
5.4370479e-07
5.3920746e-07
5.3496555e-07
5.3094662e-07
5.2712624e-07
5.2348662e-07
5.2000858e-07
5.1667594e-07
5.1347568e-07
5.103961e-07
5.0742694e-07
5.0455894e-07
5.0178455e-07
4.9909746e-07
4.9649167e-07
4.9396183e-07
4.9150259e-07
4.8910892e-07
4.8677614e-07
4.8449983e-07
4.8227605e-07
4.801012e-07
4.779722e-07
4.7588619e-07
4.7384064e-07
4.7183322e-07
4.6986164e-07
4.679236e-07
4.6601697e-07
4.6413982e-07
4.6229044e-07
4.6046699e-07
4.5866756e-07
4.5689076e-07
4.5513546e-07
4.5340011e-07
4.5168302e-07
4.4998306e-07
4.4829918e-07
4.4663024e-07
4.4497492e-07
4.433317e-07
4.416998e-07
4.4007847e-07
4.3846654e-07
4.3686281e-07
4.3526611e-07
4.3367573e-07
4.3209097e-07
4.3051077e-07
4.2893387e-07
4.273594e-07
4.2578662e-07
4.2421479e-07
4.2264277e-07
4.2106927e-07
4.1949362e-07
4.1791506e-07
4.1633255e-07
4.147449e-07
4.1315087e-07
4.1154968e-07
4.0994047e-07
4.0832187e-07
4.066924e-07
4.0505107e-07
4.0339687e-07
4.0172823e-07
4.0004346e-07
3.9834119e-07
3.9662005e-07
3.9487816e-07
3.9311342e-07
3.9132406e-07
3.8950813e-07
3.876629e-07
3.8578611e-07
3.8391587e-07
3.8211171e-07
3.8039049e-07
3.7874571e-07
3.771717e-07
3.7566308e-07
3.7421492e-07
3.7282292e-07
3.7148326e-07
3.7019232e-07
3.6894669e-07
3.6774322e-07
3.6657922e-07
3.6545212e-07
3.6435927e-07
3.6329842e-07
3.6226593e-07
3.6126151e-07
3.6027462e-07
3.5931815e-07
3.5833757e-07
3.5746553e-07
3.5603228e-07
5.247553e-07
3.0964464e-07
2.5690321e-07
2.3519111e-07
2.2253718e-07
2.1403432e-07
2.0795178e-07
2.0342952e-07
1.9996716e-07
1.9725264e-07
1.9508259e-07
1.9331953e-07
1.9186741e-07
1.9065719e-07
1.8963816e-07
1.8877191e-07
1.8803017e-07
1.873867e-07
1.8684251e-07
1.8629107e-07
1.8619286e-07
1.8429649e-07
1.908094e-07
1.1042813e-07
3.3539666e-07
6.4135628e-07
7.0034265e-07
7.0792309e-07
7.0451586e-07
6.9805865e-07
6.9076818e-07
6.8355961e-07
6.7672465e-07
6.7031457e-07
6.6431535e-07
6.5869355e-07
6.5340489e-07
6.4841358e-07
6.4369167e-07
6.3920605e-07
6.3493144e-07
6.3085054e-07
6.269434e-07
6.2319301e-07
6.195859e-07
6.1610974e-07
6.127538e-07
6.0950818e-07
6.0636487e-07
6.0331737e-07
6.0035924e-07
5.9748472e-07
5.9468813e-07
5.9196398e-07
5.8930707e-07
5.8671262e-07
5.8417636e-07
5.8169427e-07
5.7926292e-07
5.7687928e-07
5.7454059e-07
5.7224425e-07
5.6998772e-07
5.6776849e-07
5.6558423e-07
5.6343276e-07
5.6131214e-07
5.5922038e-07
5.5715534e-07
5.5511545e-07
5.5309944e-07
5.5110561e-07
5.4913203e-07
5.4717748e-07
5.4524074e-07
5.4332053e-07
5.4141537e-07
5.3952353e-07
5.3764414e-07
5.3577634e-07
5.3391882e-07
5.320702e-07
5.3022916e-07
5.2839489e-07
5.265666e-07
5.2474308e-07
5.2292289e-07
5.2110503e-07
5.1928867e-07
5.1747294e-07
5.1565655e-07
5.1383801e-07
5.1201654e-07
5.1019131e-07
5.0836108e-07
5.0652449e-07
5.0468012e-07
5.0282705e-07
5.009643e-07
4.990903e-07
4.9720331e-07
4.953022e-07
4.933858e-07
4.9145229e-07
4.8949968e-07
4.8752642e-07
4.8553092e-07
4.8351095e-07
4.8146408e-07
4.7938826e-07
4.7728123e-07
4.7513978e-07
4.7296124e-07
4.7078988e-07
4.6869487e-07
4.6669591e-07
4.6478544e-07
4.6295692e-07
4.6120413e-07
4.5952134e-07
4.5790362e-07
4.5634653e-07
4.5484588e-07
4.5339771e-07
4.5199838e-07
4.5064476e-07
4.493339e-07
4.4806271e-07
4.4682859e-07
4.4562734e-07
4.4445855e-07
4.4331032e-07
4.421968e-07
4.4105662e-07
4.4004073e-07
4.383705e-07
5.3720061e-07
3.1655056e-07
2.6146896e-07
2.3869688e-07
2.2539623e-07
2.1644765e-07
2.1004041e-07
2.0527288e-07
2.016201e-07
1.9875445e-07
1.9646223e-07
1.9459881e-07
1.9306309e-07
1.9178233e-07
1.9070303e-07
1.8978466e-07
1.8899733e-07
1.8831322e-07
1.8773323e-07
1.8714525e-07
1.8702935e-07
1.8503519e-07
1.9194578e-07
1.1124859e-07
3.6692453e-07
7.3364914e-07
8.1237731e-07
8.2649989e-07
8.2510612e-07
8.1913765e-07
8.1174735e-07
8.0420729e-07
7.9694153e-07
7.9005529e-07
7.8356244e-07
7.7744402e-07
7.7166032e-07
7.661787e-07
7.6097552e-07
7.5601817e-07
7.512812e-07
7.4674853e-07
7.4239994e-07
7.3821792e-07
7.3418887e-07
7.3030008e-07
7.2654051e-07
7.2289981e-07
7.193696e-07
7.1594337e-07
7.126143e-07
7.0937628e-07
7.0622339e-07
7.0314969e-07
7.0014952e-07
6.9721771e-07
6.9434972e-07
6.9154112e-07
6.8878815e-07
6.8608759e-07
6.834365e-07
6.8083203e-07
6.7827136e-07
6.757518e-07
6.7327082e-07
6.7082599e-07
6.6841512e-07
6.6603606e-07
6.636865e-07
6.6136464e-07
6.5906908e-07
6.5679794e-07
6.545491e-07
6.5232121e-07
6.5011288e-07
6.4792268e-07
6.4574898e-07
6.4358983e-07
6.4144425e-07
6.3931128e-07
6.3718945e-07
6.3507721e-07
6.3297308e-07
6.3087613e-07
6.287855e-07
6.2669978e-07
6.2461738e-07
6.2253715e-07
6.2045815e-07
6.1837941e-07
6.1629945e-07
6.1421657e-07
6.1212989e-07
6.1003847e-07
6.0794091e-07
6.0583562e-07
6.0372101e-07
6.0159601e-07
5.9945954e-07
5.9730975e-07
5.9514467e-07
5.9296301e-07
5.9076345e-07
5.8854385e-07
5.8630197e-07
5.84036e-07
5.8174413e-07
5.7942379e-07
5.7707218e-07
5.7468694e-07
5.7226547e-07
5.6980405e-07
5.6729961e-07
5.6480298e-07
5.6239386e-07
5.6009494e-07
5.5789756e-07
5.5579422e-07
5.537778e-07
5.5184171e-07
5.4998032e-07
5.4818852e-07
5.4646152e-07
5.4479475e-07
5.4318403e-07
5.4162578e-07
5.4011662e-07
5.3865299e-07
5.372319e-07
5.3584857e-07
5.3450241e-07
5.3318017e-07
5.3189717e-07
5.305851e-07
5.2941392e-07
5.2748777e-07
5.5203567e-07
3.249406e-07
2.6708419e-07
2.430364e-07
2.2895539e-07
2.1946772e-07
2.1266706e-07
2.0760192e-07
2.0371784e-07
2.0066845e-07
1.9822757e-07
1.9624195e-07
1.9460436e-07
1.9323759e-07
1.9208478e-07
1.9110279e-07
1.9025977e-07
1.8952597e-07
1.8890218e-07
1.8826955e-07
1.8813163e-07
1.8601905e-07
1.9341066e-07
1.1245986e-07
3.9472132e-07
8.2763347e-07
9.3029944e-07
9.530271e-07
9.5454232e-07
9.4948628e-07
9.4222668e-07
9.3449648e-07
9.2689192e-07
9.1959007e-07
9.1264312e-07
9.0605315e-07
8.9978869e-07
8.9382251e-07
8.8813748e-07
8.8270297e-07
8.774943e-07
8.7249748e-07
8.6769264e-07
8.6306226e-07
8.5859296e-07
8.5427195e-07
8.5008818e-07
8.4603099e-07
8.4209183e-07
8.3826434e-07
8.3454143e-07
8.3091672e-07
8.2738412e-07
8.2393734e-07
8.2057022e-07
8.1727728e-07
8.1405373e-07
8.1089475e-07
8.0779624e-07
8.0475484e-07
8.0176746e-07
7.9883099e-07
7.9594235e-07
7.9309866e-07
7.9029722e-07
7.8753531e-07
7.8481054e-07
7.8212058e-07
7.7946293e-07
7.7683556e-07
7.7423697e-07
7.7166507e-07
7.6911753e-07
7.6659289e-07
7.640896e-07
7.6160606e-07
7.5914045e-07
7.5669063e-07
7.542555e-07
7.5183399e-07
7.4942445e-07
7.4702515e-07
7.4463446e-07
7.4225133e-07
7.3987477e-07
7.3750324e-07
7.351349e-07
7.3276852e-07
7.3040302e-07
7.2803728e-07
7.2566967e-07
7.2329822e-07
7.2092198e-07
7.1853988e-07
7.1615032e-07
7.1375151e-07
7.1134164e-07
7.0891951e-07
7.0648388e-07
7.0403267e-07
7.0156359e-07
6.9907523e-07
6.9656605e-07
6.9403365e-07
6.9147541e-07
6.8888933e-07
6.8627333e-07
6.8362445e-07
6.809395e-07
6.7821578e-07
6.7545034e-07
6.7263889e-07
6.6977789e-07
6.6692542e-07
6.6417263e-07
6.6154554e-07
6.5903429e-07
6.5663032e-07
6.543255e-07
6.5211233e-07
6.4998439e-07
6.4793588e-07
6.4596129e-07
6.4405543e-07
6.4221351e-07
6.4043146e-07
6.3870541e-07
6.3703133e-07
6.3540576e-07
6.3382332e-07
6.3228319e-07
6.3077073e-07
6.2930233e-07
6.2780261e-07
6.2646156e-07
6.2425533e-07
5.6962202e-07
3.3509855e-07
2.7397633e-07
2.4840211e-07
2.3338383e-07
2.2324676e-07
2.1597111e-07
2.1054609e-07
2.0638192e-07
2.0310977e-07
2.0048848e-07
1.9835445e-07
1.9659305e-07
1.9512165e-07
1.9387934e-07
1.9281986e-07
1.9190894e-07
1.9111454e-07
1.9043725e-07
1.8975015e-07
1.8958489e-07
1.8732917e-07
1.9529861e-07
1.1418374e-07
4.1820273e-07
9.2278595e-07
1.0544641e-06
1.0883208e-06
1.0939087e-06
1.0903207e-06
1.0834966e-06
1.0757652e-06
1.0679469e-06
1.0603136e-06
1.0529692e-06
1.0459455e-06
1.039224e-06
1.0327858e-06
1.0266231e-06
1.0207092e-06
1.0150214e-06
1.0095489e-06
1.004273e-06
9.9917687e-07
9.9424778e-07
9.8947327e-07
9.8484262e-07
9.8034512e-07
9.7597223e-07
9.7171798e-07
9.6757519e-07
9.635373e-07
9.5959817e-07
9.5575119e-07
9.5198978e-07
9.4830816e-07
9.4470139e-07
9.4116425e-07
9.3769233e-07
9.3428216e-07
9.3093055e-07
9.2763412e-07
9.2438954e-07
9.2119377e-07
9.1804394e-07
9.1493707e-07
9.1187051e-07
9.0884179e-07
9.0584821e-07
9.0288755e-07
8.9995813e-07
8.9705771e-07
8.9418373e-07
8.913346e-07
8.8850863e-07
8.8570401e-07
8.8291876e-07
8.8015053e-07
8.7739806e-07
8.7466019e-07
8.719351e-07
8.6922084e-07
8.6651564e-07
8.6381829e-07
8.6112771e-07
8.5844217e-07
8.5575962e-07
8.5307868e-07
8.5039815e-07
8.4771677e-07
8.450327e-07
8.4234372e-07
8.3964879e-07
8.369467e-07
8.3423563e-07
8.3151356e-07
8.2877846e-07
8.2602899e-07
8.2326372e-07
8.2048031e-07
8.1767616e-07
8.1484968e-07
8.1199916e-07
8.0912181e-07
8.0621471e-07
8.0327556e-07
8.0030202e-07
7.9729072e-07
7.94238e-07
7.9114082e-07
7.8799583e-07
7.8479811e-07
7.8154362e-07
7.782984e-07
7.7516629e-07
7.7217699e-07
7.6931928e-07
7.6658348e-07
7.6396034e-07
7.6144133e-07
7.5901918e-07
7.5668731e-07
7.5443945e-07
7.5226967e-07
7.5017256e-07
7.4814348e-07
7.4617805e-07
7.4427167e-07
7.424204e-07
7.406182e-07
7.3886397e-07
7.3714164e-07
7.3546858e-07
7.3376208e-07
7.3223352e-07
7.2971792e-07
5.9037857e-07
3.473671e-07
2.8242783e-07
2.550368e-07
2.3889716e-07
2.2798022e-07
2.2013261e-07
2.1427334e-07
2.0977065e-07
2.0622891e-07
2.0338903e-07
2.0107498e-07
1.9916327e-07
1.9756476e-07
1.9621362e-07
1.9505981e-07
1.9406621e-07
1.9319792e-07
1.9245534e-07
1.9170183e-07
1.9150261e-07
1.8907418e-07
1.9773209e-07
1.1657124e-07
4.3667986e-07
1.0181775e-06
1.1850462e-06
1.2330814e-06
1.2442592e-06
1.2428735e-06
1.236892e-06
1.2294154e-06
1.2215557e-06
1.2137101e-06
1.2060515e-06
1.198652e-06
1.1915128e-06
1.1846274e-06
1.1780005e-06
1.1716121e-06
1.165443e-06
1.1594872e-06
1.1537283e-06
1.1481507e-06
1.1427431e-06
1.137494e-06
1.1323933e-06
1.1274308e-06
1.122598e-06
1.1178898e-06
1.1132991e-06
1.1088192e-06
1.1044442e-06
1.1001672e-06
1.0959812e-06
1.0918803e-06
1.0878595e-06
1.0839131e-06
1.0800364e-06
1.076226e-06
1.0724786e-06
1.0687906e-06
1.0651584e-06
1.0615788e-06
1.0580488e-06
1.0545651e-06
1.0511249e-06
1.0477256e-06
1.0443642e-06
1.0410384e-06
1.0377462e-06
1.0344854e-06
1.031253e-06
1.0280475e-06
1.0248669e-06
1.0217092e-06
1.0185723e-06
1.0154536e-06
1.0123516e-06
1.0092652e-06
1.0061923e-06
1.0031308e-06
1.0000786e-06
9.9703456e-07
9.9399733e-07
9.9096504e-07
9.8793539e-07
9.8490688e-07
9.8187814e-07
9.7884777e-07
9.7581371e-07
9.7277346e-07
9.6972586e-07
9.6666959e-07
9.6360258e-07
9.6052255e-07
9.5742724e-07
9.5431512e-07
9.511846e-07
9.4803302e-07
9.4485747e-07
9.4165613e-07
9.3842709e-07
9.3516721e-07
9.3187314e-07
9.2854232e-07
9.251721e-07
9.2175864e-07
9.1829778e-07
9.1478611e-07
9.112198e-07
9.0759328e-07
9.0390191e-07
9.0022059e-07
8.9666724e-07
8.9327568e-07
8.9003322e-07
8.8692888e-07
8.8395218e-07
8.8109348e-07
8.7834455e-07
8.7569794e-07
8.7314654e-07
8.7068362e-07
8.6830304e-07
8.6599955e-07
8.637682e-07
8.6160378e-07
8.5950181e-07
8.5745549e-07
8.5546343e-07
8.5350806e-07
8.5160759e-07
8.4967179e-07
8.4793496e-07
8.4507549e-07
6.147893e-07
3.621585e-07
2.9278882e-07
2.6324665e-07
2.457702e-07
2.3391923e-07
2.253843e-07
2.1900188e-07
2.1409057e-07
2.1022287e-07
2.0711833e-07
2.0458606e-07
2.0249194e-07
2.00739e-07
1.9925554e-07
1.9798693e-07
1.9689259e-07
1.9593422e-07
1.9511191e-07
1.9427742e-07
1.9403594e-07
1.9139956e-07
2.0086931e-07
1.1981101e-07
4.4915246e-07
1.1126152e-06
1.3220113e-06
1.3878369e-06
1.4065827e-06
1.4083712e-06
1.4037774e-06
1.396903e-06
1.3892402e-06
1.3813505e-06
1.3734982e-06
1.3658105e-06
1.3583166e-06
1.3510275e-06
1.3439649e-06
1.3371188e-06
1.3304759e-06
1.3240367e-06
1.3177885e-06
1.3117182e-06
1.3058168e-06
1.3000743e-06
1.2944821e-06
1.2890306e-06
1.283712e-06
1.2785223e-06
1.2734549e-06
1.2685031e-06
1.2636613e-06
1.2589227e-06
1.2542799e-06
1.2497268e-06
1.2452585e-06
1.2408691e-06
1.2365535e-06
1.2323084e-06
1.2281305e-06
1.224016e-06
1.219961e-06
1.2159623e-06
1.2120168e-06
1.2081209e-06
1.2042715e-06
1.2004658e-06
1.1967009e-06
1.1929741e-06
1.1892834e-06
1.1856261e-06
1.1819994e-06
1.1784013e-06
1.1748299e-06
1.1712829e-06
1.167758e-06
1.1642524e-06
1.1607646e-06
1.157293e-06
1.1538356e-06
1.1503899e-06
1.1469539e-06
1.143526e-06
1.1401049e-06
1.1366884e-06
1.1332741e-06
1.1298602e-06
1.1264453e-06
1.1230277e-06
1.1196052e-06
1.116175e-06
1.1127358e-06
1.1092861e-06
1.1058236e-06
1.1023458e-06
1.09885e-06
1.0953346e-06
1.0917979e-06
1.0882368e-06
1.0846479e-06
1.0810294e-06
1.0773791e-06
1.0736933e-06
1.0699683e-06
1.0662013e-06
1.0623892e-06
1.0585277e-06
1.0546121e-06
1.0506385e-06
1.0466026e-06
1.042498e-06
1.0383196e-06
1.034152e-06
1.0301289e-06
1.0262888e-06
1.0226172e-06
1.0191017e-06
1.0157307e-06
1.012493e-06
1.0093796e-06
1.0063818e-06
1.0034918e-06
1.0007018e-06
9.9800493e-07
9.9539528e-07
9.9286722e-07
9.9041489e-07
9.8803317e-07
9.8571448e-07
9.8345703e-07
9.8124174e-07
9.7908748e-07
9.7689627e-07
9.7492713e-07
9.7168374e-07
6.4341176e-07
3.7996649e-07
3.0549195e-07
2.7341722e-07
2.5435317e-07
2.4138652e-07
2.3202719e-07
2.250154e-07
2.196113e-07
2.1534972e-07
2.1192482e-07
2.0912803e-07
2.0681251e-07
2.0487192e-07
2.0322748e-07
2.0181908e-07
2.0060193e-07
1.9953362e-07
1.9861387e-07
1.9768054e-07
1.9738629e-07
1.9450037e-07
2.0491409e-07
1.2414092e-07
4.5432024e-07
1.2044659e-06
1.4650812e-06
1.5528696e-06
1.5817552e-06
1.5880037e-06
1.5855265e-06
1.5797242e-06
1.572585e-06
1.5648865e-06
1.5570134e-06
1.5491665e-06
1.5414141e-06
1.5337919e-06
1.5263442e-06
1.5190753e-06
1.5119809e-06
1.5050703e-06
1.4983366e-06
1.4917705e-06
1.4853666e-06
1.4791172e-06
1.4730159e-06
1.4670545e-06
1.4612264e-06
1.4555293e-06
1.4499571e-06
1.4445038e-06
1.4391643e-06
1.4339318e-06
1.4287989e-06
1.4237594e-06
1.4188086e-06
1.4139404e-06
1.4091496e-06
1.4044329e-06
1.3997872e-06
1.3952085e-06
1.3906927e-06
1.3862366e-06
1.3818369e-06
1.37749e-06
1.3731923e-06
1.3689411e-06
1.3647333e-06
1.3605659e-06