/*--------------------------------*- C++ -*----------------------------------*\
  =========                 |
  \\      /  F ield         | OpenFOAM: The Open Source CFD Toolbox
   \\    /   O peration     | Website:  https://openfoam.org
    \\  /    A nd           | Version:  12
     \\/     M anipulation  |
\*---------------------------------------------------------------------------*/
FoamFile
{
    format      ascii;
    class       surfaceScalarField;
    location    "1000";
    object      phi;
}
// * * * * * * * * * * * * * * * * * * * * * * * * * * * * * * * * * * * * * //

dimensions      [0 3 -1 0 0 0 0];

internalField   nonuniform List<scalar> 
25880
(
2.0046249e-06
2.9252909e-11
2.0045467e-06
7.8174577e-11
2.0044398e-06
1.0687206e-10
2.0043176e-06
1.2222507e-10
2.00418e-06
1.3759049e-10
2.0040268e-06
1.5326111e-10
2.0038573e-06
1.6949086e-10
2.0036703e-06
1.869629e-10
2.0034641e-06
2.0623459e-10
2.0032363e-06
2.2781844e-10
2.002984e-06
2.5231194e-10
2.0027034e-06
2.8058641e-10
2.0023897e-06
3.1370561e-10
2.0020359e-06
3.5371729e-10
2.0016336e-06
4.0234965e-10
2.0011673e-06
4.6626979e-10
2.0006222e-06
5.4509635e-10
1.9999509e-06
6.7129908e-10
1.9991424e-06
8.0849782e-10
1.9979776e-06
1.1648278e-09
1.9965519e-06
1.4256625e-09
1.9928514e-06
3.7005289e-09
1.9902356e-06
2.6158546e-09
1.0345384e-06
9.5569719e-07
6.8942603e-08
9.6559576e-07
5.7331423e-08
1.1611179e-08
5.3415677e-08
3.9157469e-09
5.0756676e-08
2.6590006e-09
4.8762277e-08
1.9943988e-09
4.7119064e-08
1.6432136e-09
4.5713804e-08
1.4052596e-09
4.4499233e-08
1.2145714e-09
4.3438803e-08
1.0604292e-09
4.250092e-08
9.3788322e-10
4.1661874e-08
8.3904598e-10
4.090522e-08
7.566539e-10
4.0218268e-08
6.8695217e-10
3.9589354e-08
6.2891374e-10
3.9009242e-08
5.8011255e-10
3.8471505e-08
5.3773677e-10
3.7970556e-08
5.0094865e-10
3.7501603e-08
4.689535e-10
3.7060866e-08
4.4073703e-10
3.6645118e-08
4.1574747e-10
3.625166e-08
3.9345868e-10
3.5878154e-08
3.735053e-10
3.5522606e-08
3.5554855e-10
3.5183377e-08
3.3922889e-10
3.4858961e-08
3.2441641e-10
3.4548094e-08
3.1086625e-10
3.4249742e-08
2.9835231e-10
3.3962843e-08
2.8689928e-10
3.3686451e-08
2.7639162e-10
3.3419802e-08
2.6664939e-10
3.3162134e-08
2.5766729e-10
3.2912712e-08
2.4942285e-10
3.2670945e-08
2.4176625e-10
3.2436344e-08
2.3460154e-10
3.2208388e-08
2.2795564e-10
3.1986598e-08
2.2179015e-10
3.1770604e-08
2.1599364e-10
3.156007e-08
2.1053416e-10
3.135462e-08
2.0545042e-10
3.1153895e-08
2.0072433e-10
3.0957621e-08
1.9627448e-10
3.0765555e-08
1.9206568e-10
3.0577425e-08
1.8813019e-10
3.0392946e-08
1.8447882e-10
3.0211905e-08
1.810411e-10
3.0034139e-08
1.7776652e-10
2.9859449e-08
1.7469001e-10
2.9687611e-08
1.7183758e-10
2.9518442e-08
1.6916875e-10
2.9351805e-08
1.6663709e-10
2.9187562e-08
1.6424359e-10
2.9025549e-08
1.620126e-10
2.886559e-08
1.5995869e-10
2.8707555e-08
1.5803544e-10
2.8551349e-08
1.5620571e-10
2.8396852e-08
1.54497e-10
2.8243924e-08
1.5292851e-10
2.8092428e-08
1.514958e-10
2.7942264e-08
1.5016346e-10
2.7793354e-08
1.4891008e-10
2.7645592e-08
1.4776199e-10
2.7498853e-08
1.4673905e-10
2.7353028e-08
1.4582574e-10
2.7208034e-08
1.44994e-10
2.7063793e-08
1.4424016e-10
2.6920207e-08
1.4358617e-10
2.6777158e-08
1.4304931e-10
2.6634553e-08
1.4260532e-10
2.6492321e-08
1.4223157e-10
2.6350376e-08
1.419446e-10
2.6208614e-08
1.4176248e-10
2.6066926e-08
1.416884e-10
2.5925223e-08
1.4170211e-10
2.5783432e-08
1.4179098e-10
2.5641453e-08
1.4197945e-10
2.5499166e-08
1.4228712e-10
2.535647e-08
1.4269638e-10
2.5213278e-08
1.4319181e-10
2.5069483e-08
1.4379435e-10
2.4924958e-08
1.4452535e-10
2.4779581e-08
1.4537654e-10
2.4633245e-08
1.4633687e-10
2.4485821e-08
1.4742374e-10
2.4337161e-08
1.4866028e-10
2.4187118e-08
1.5004236e-10
2.4035554e-08
1.5156439e-10
2.3882295e-08
1.5325886e-10
2.3727169e-08
1.5512587e-10
2.356992e-08
1.5724938e-10
2.3416964e-08
1.5295604e-10
2.3271722e-08
1.4524151e-10
2.3133558e-08
1.3816469e-10
2.3001908e-08
1.3164966e-10
2.2876259e-08
1.2564837e-10
2.2756138e-08
1.2012125e-10
2.2641123e-08
1.1501508e-10
2.2530842e-08
1.1028073e-10
2.2424957e-08
1.0588512e-10
2.2323154e-08
1.0180369e-10
2.2225143e-08
9.8010707e-11
2.2130665e-08
9.4478151e-11
2.2039482e-08
9.118265e-11
2.1951362e-08
8.8119616e-11
2.1866093e-08
8.5269672e-11
2.1783412e-08
8.2680836e-11
2.1703167e-08
8.0245248e-11
2.1624828e-08
7.8338557e-11
2.1548622e-08
7.620581e-11
2.1472514e-08
7.6108789e-11
2.1399933e-08
7.2580789e-11
2.1311107e-08
8.882573e-11
5.5661196e-11
2.0344983e-06
5.9001583e-11
2.0344188e-06
1.5772934e-10
2.0343099e-06
2.1569689e-10
2.0341854e-06
2.4671697e-10
2.0340453e-06
2.7773833e-10
2.0338892e-06
3.0936523e-10
2.0337166e-06
3.421132e-10
2.0335262e-06
3.7736087e-10
2.0333162e-06
4.1623284e-10
2.0330842e-06
4.5976295e-10
2.0328274e-06
5.0915598e-10
2.0325418e-06
5.6616856e-10
2.0322226e-06
6.3294503e-10
2.0318627e-06
7.1361324e-10
2.0314534e-06
8.1165632e-10
2.0309791e-06
9.4051274e-10
2.0304248e-06
1.0994129e-09
2.0297423e-06
1.3537959e-09
2.0289205e-06
1.6303458e-09
2.0277368e-06
2.348478e-09
2.0262883e-06
2.8742149e-09
2.0225302e-06
7.4585445e-09
2.0198661e-06
5.2800356e-09
1.1258562e-06
1.849707e-06
2.0548312e-07
1.8859689e-06
1.7260936e-07
4.4484939e-08
1.609899e-07
1.5535209e-08
1.5312526e-07
1.0523639e-08
1.4722144e-07
7.898224e-09
1.4235233e-07
6.5123205e-09
1.3818366e-07
5.573926e-09
1.3457666e-07
4.8215739e-09
1.3142437e-07
4.2127236e-09
1.28634e-07
3.7282477e-09
1.261358e-07
3.3372491e-09
1.2388132e-07
3.0111366e-09
1.2183317e-07
2.7350986e-09
1.1995702e-07
2.5050677e-09
1.1822554e-07
2.3115831e-09
1.1661973e-07
2.1435512e-09
1.151231e-07
1.9975805e-09
1.1372146e-07
1.870592e-09
1.1240362e-07
1.7585758e-09
1.1116004e-07
1.6593332e-09
1.099827e-07
1.5707976e-09
1.0886469e-07
1.4915165e-09
1.0780008e-07
1.4201511e-09
1.0678403e-07
1.3552838e-09
1.0581206e-07
1.2963868e-09
1.0488042e-07
1.2425009e-09
1.0398605e-07
1.1927301e-09
1.0312578e-07
1.1471638e-09
1.0229682e-07
1.105355e-09
1.0149688e-07
1.0665891e-09
1.007237e-07
1.0308399e-09
9.9975106e-08
9.9802223e-10
9.9249328e-08
9.6754373e-10
9.8544908e-08
9.3902123e-10
9.7860306e-08
9.1255845e-10
9.7194088e-08
8.880074e-10
9.6545156e-08
8.6492565e-10
9.5912507e-08
8.4318363e-10
9.5295022e-08
8.2293525e-10
9.4691635e-08
8.0411128e-10
9.4101521e-08
7.8638872e-10
9.3523961e-08
7.6962507e-10
9.2958143e-08
7.5394896e-10
9.2403217e-08
7.3940474e-10
9.1858544e-08
7.2571339e-10
9.1323639e-08
7.1267209e-10
9.079791e-08
7.004189e-10
9.0280689e-08
6.8905882e-10
8.9771425e-08
6.7843216e-10
8.9269709e-08
6.683536e-10
8.8775128e-08
6.5882448e-10
8.8287196e-08
6.499441e-10
8.7805385e-08
6.4177053e-10
8.73293e-08
6.3411989e-10
8.6858663e-08
6.2684283e-10
8.6393112e-08
6.2004796e-10
8.5932227e-08
6.1381363e-10
8.54756e-08
6.0812228e-10
8.5022931e-08
6.0283318e-10
8.4573981e-08
5.9785936e-10
8.4128437e-08
5.9330634e-10
8.3685922e-08
5.892539e-10
8.3246107e-08
5.8564113e-10
8.2808745e-08
5.8235568e-10
8.2373604e-08
5.7938133e-10
8.1940383e-08
5.7680718e-10
8.150873e-08
5.7470245e-10
8.1078364e-08
5.7297089e-10
8.0649075e-08
5.7152127e-10
8.02206e-08
5.704193e-10
7.9792624e-08
5.6973819e-10
7.9364821e-08
5.6949118e-10
7.8936926e-08
5.695974e-10
7.8508712e-08
5.7000542e-10
7.8079878e-08
5.7081364e-10
7.7650063e-08
5.7210116e-10
7.7218962e-08
5.7379784e-10
7.6786312e-08
5.7584142e-10
7.6351791e-08
5.7831582e-10
7.5915009e-08
5.8130745e-10
7.5475602e-08
5.847835e-10
7.5033239e-08
5.886995e-10
7.4587538e-08
5.9312517e-10
7.4138044e-08
5.9815423e-10
7.3684316e-08
6.0377036e-10
7.3225929e-08
6.0995111e-10
7.2762361e-08
6.1682697e-10
7.2293088e-08
6.2439931e-10
7.1817331e-08
6.3300629e-10
7.1354507e-08
6.1578011e-10
7.0914974e-08
5.8477366e-10
7.0496812e-08
5.5632749e-10
7.0098325e-08
5.3013675e-10
6.9717964e-08
5.0600851e-10
6.9354301e-08
4.8378467e-10
6.9006064e-08
4.6325168e-10
6.8672133e-08
4.4421206e-10
6.8351485e-08
4.2653318e-10
6.8043172e-08
4.1011659e-10
6.7746323e-08
3.9485935e-10
6.7460153e-08
3.8064877e-10
6.7183945e-08
3.6739064e-10
6.6916997e-08
3.5506712e-10
6.6658667e-08
3.4360019e-10
6.6408164e-08
3.3318396e-10
6.6165026e-08
3.2338286e-10
6.5927651e-08
3.157134e-10
6.5696733e-08
3.0712445e-10
6.5466086e-08
3.0675576e-10
6.5246205e-08
2.92461e-10
6.4976626e-08
3.5840504e-10
2.238013e-10
2.0946904e-06
8.9706257e-11
2.0946082e-06
2.399131e-10
2.0944957e-06
3.2820596e-10
2.0943669e-06
3.7546812e-10
2.094222e-06
4.2268913e-10
2.0940605e-06
4.7081219e-10
2.093882e-06
5.2062738e-10
2.0936852e-06
5.7423223e-10
2.093468e-06
6.3333744e-10
2.0932283e-06
6.995151e-10
2.0929629e-06
7.7459645e-10
2.0926678e-06
8.61251e-10
2.092338e-06
9.6273677e-10
2.0919663e-06
1.0853258e-09
2.0915436e-06
1.2343088e-09
2.091054e-06
1.4301037e-09
2.0904819e-06
1.6715356e-09
2.0897777e-06
2.0580216e-09
2.0889299e-06
2.4781617e-09
2.0877093e-06
3.5690871e-09
2.0862159e-06
4.3675655e-09
2.0823432e-06
1.1331231e-08
2.0795943e-06
8.0289314e-09
1.2299449e-06
2.6993565e-06
3.3782226e-07
2.7780915e-06
2.8436272e-07
9.7944479e-08
2.6571777e-07
3.4180161e-08
2.5329488e-07
2.294653e-08
2.4397793e-07
1.7215169e-08
2.3628734e-07
1.4202909e-08
2.2969276e-07
1.2168505e-08
2.2397644e-07
1.0537902e-08
2.18972e-07
9.2171591e-09
2.1453488e-07
8.1653665e-09
2.1055626e-07
7.3158717e-09
2.0696071e-07
6.606685e-09
2.0369e-07
6.0058124e-09
2.0069033e-07
5.5047369e-09
1.9791883e-07
5.0830831e-09
1.953457e-07
4.7166758e-09
1.9294512e-07
4.3981597e-09
1.9069476e-07
4.120955e-09
1.8857702e-07
3.8763205e-09
1.8657687e-07
3.6594798e-09
1.8468171e-07
3.4659604e-09
1.8288062e-07
3.2926035e-09
1.8116427e-07
3.1365004e-09
1.7952499e-07
2.9945638e-09
1.7795573e-07
2.8656463e-09
1.7645057e-07
2.7476637e-09
1.7500464e-07
2.6386539e-09
1.7361298e-07
2.5388231e-09
1.7227113e-07
2.4472084e-09
1.7097548e-07
2.3622394e-09
1.6972246e-07
2.2838638e-09
1.6850857e-07
2.2119087e-09
1.6733104e-07
2.145073e-09
1.6618755e-07
2.0825128e-09
1.6507565e-07
2.0244626e-09
1.6399305e-07
1.9706054e-09
1.6293801e-07
1.9199648e-09
1.6190894e-07
1.8722548e-09
1.6090405e-07
1.8278212e-09
1.5992165e-07
1.7865171e-09
1.5896041e-07
1.747629e-09
1.5801919e-07
1.7108409e-09
1.570967e-07
1.6764421e-09
1.5619157e-07
1.6445345e-09
1.5530278e-07
1.6145019e-09
1.5442956e-07
1.5858942e-09
1.5357096e-07
1.5590188e-09
1.527259e-07
1.5341123e-09
1.5189351e-07
1.5108226e-09
1.5107313e-07
1.4887385e-09
1.5026409e-07
1.4678619e-09
1.4946562e-07
1.4484175e-09
1.4867685e-07
1.4305352e-09
1.4789716e-07
1.4138081e-09
1.471261e-07
1.3979036e-09
1.4636309e-07
1.3830633e-09
1.4560744e-07
1.3694644e-09
1.4485849e-07
1.3570686e-09
1.4411576e-07
1.3455635e-09
1.4337886e-07
1.334755e-09
1.4264729e-07
1.3248794e-09
1.4192043e-07
1.3161156e-09
1.4119774e-07
1.3083292e-09
1.4047883e-07
1.30127e-09
1.3976331e-07
1.2949012e-09
1.3905069e-07
1.2894237e-09
1.383404e-07
1.2849926e-09
1.3763198e-07
1.2813938e-09
1.3692508e-07
1.2784238e-09
1.3621926e-07
1.2762296e-09
1.3551403e-07
1.2749764e-09
1.3480882e-07
1.2746943e-09
1.3410322e-07
1.2752035e-09
1.3339683e-07
1.2763887e-09
1.3268918e-07
1.2784713e-09
1.3197965e-07
1.2816293e-09
1.3126774e-07
1.2857066e-09
1.3055302e-07
1.290564e-09
1.2983494e-07
1.2963904e-09
1.2911287e-07
1.3033808e-09
1.2838619e-07
1.3114623e-09
1.2765435e-07
1.3205361e-09
1.2691672e-07
1.3307595e-09
1.2617253e-07
1.3423443e-09
1.2542104e-07
1.3552549e-09
1.2466155e-07
1.3694418e-09
1.2389318e-07
1.3851994e-09
1.2311505e-07
1.4025325e-09
1.2232585e-07
1.4222005e-09
1.2155781e-07
1.3838203e-09
1.2082815e-07
1.314437e-09
1.2013371e-07
1.2507656e-09
1.1947172e-07
1.1921258e-09
1.1883964e-07
1.13809e-09
1.1823512e-07
1.088308e-09
1.1765607e-07
1.0423031e-09
1.1710064e-07
9.9963454e-10
1.1656717e-07
9.6000737e-10
1.1605408e-07
9.2320279e-10
1.1555995e-07
8.8899155e-10
1.1508348e-07
8.5712182e-10
1.1462349e-07
8.2738303e-10
1.1417882e-07
7.9973732e-10
1.1374841e-07
7.7401005e-10
1.1333095e-07
7.5064079e-10
1.1292569e-07
7.2864721e-10
1.1252995e-07
7.1145345e-10
1.121449e-07
6.9216901e-10
1.1176022e-07
6.9143668e-10
1.1139349e-07
6.5919304e-10
1.1094347e-07
8.0842145e-10
5.0397522e-10
2.1860981e-06
1.2184595e-10
2.186012e-06
3.260312e-10
2.185894e-06
4.4621512e-10
2.1857589e-06
5.10572e-10
2.1856067e-06
5.7480319e-10
2.1854373e-06
6.4022908e-10
2.18525e-06
7.0793318e-10
2.1850435e-06
7.8076698e-10
2.1848158e-06
8.6105551e-10
2.1845643e-06
9.509346e-10
2.184286e-06
1.0528908e-09
2.1839768e-06
1.170548e-09
2.1836312e-06
1.3083281e-09
2.1832417e-06
1.4747439e-09
2.1827991e-06
1.6769738e-09
2.1822865e-06
1.9427291e-09
2.1816876e-06
2.2704055e-09
2.1809507e-06
2.7949207e-09
2.1800638e-06
3.3650626e-09
2.1787875e-06
4.845402e-09
2.1772265e-06
5.9285323e-09
2.1731806e-06
1.5377153e-08
2.1703044e-06
1.0905147e-08
1.3470584e-06
3.5226024e-06
4.6418194e-07
3.6609679e-06
3.8928682e-07
1.7283959e-07
3.6418553e-07
5.9281449e-08
3.4788937e-07
3.9242699e-08
3.3573005e-07
2.9374488e-08
3.2570863e-07
2.4224327e-08
3.1711525e-07
2.0761884e-08
3.0966108e-07
1.7992072e-08
3.0312927e-07
1.574897e-08
2.9733221e-07
1.3962424e-08
2.9212897e-07
1.251911e-08
2.8742226e-07
1.1313397e-08
2.83137e-07
1.0291072e-08
2.7920346e-07
9.4382768e-09
2.7556603e-07
8.7205179e-09
2.7218623e-07
8.0964682e-09
2.6903064e-07
7.5537548e-09
2.6607025e-07
7.0813395e-09
2.6328229e-07
6.6642822e-09
2.6064728e-07
6.2944898e-09
2.5814886e-07
5.9643841e-09
2.5577286e-07
5.668599e-09
2.5350717e-07
5.4021909e-09
2.5134184e-07
5.1598966e-09
2.492677e-07
4.9397855e-09
2.4727706e-07
4.7383069e-09
2.4536362e-07
4.5520964e-09
2.435209e-07
4.3815389e-09
2.417431e-07
4.2250041e-09
2.4002555e-07
4.0797893e-09
2.383636e-07
3.9458232e-09
2.3675267e-07
3.822835e-09
2.3518916e-07
3.7085854e-09
2.3367005e-07
3.6016227e-09
2.3219214e-07
3.5023705e-09
2.3075245e-07
3.4102968e-09
2.293487e-07
3.3237128e-09
2.2797883e-07
3.2421276e-09
2.2664049e-07
3.166153e-09
2.2533147e-07
3.095544e-09
2.2405003e-07
3.029065e-09
2.227947e-07
2.9661714e-09
2.2156377e-07
2.9073748e-09
2.2035545e-07
2.852858e-09
2.1916839e-07
2.8015535e-09
2.1800161e-07
2.7526828e-09
2.1685384e-07
2.7067847e-09
2.1572368e-07
2.6642743e-09
2.1460996e-07
2.6245433e-09
2.1351182e-07
2.5868786e-09
2.1242839e-07
2.5512844e-09
2.1135865e-07
2.5181582e-09
2.1030146e-07
2.4877267e-09
2.0925599e-07
2.4592843e-09
2.0822163e-07
2.4322542e-09
2.0719764e-07
2.4070582e-09
2.061831e-07
2.3840088e-09
2.0517712e-07
2.3630398e-09
2.0417908e-07
2.3436088e-09
2.0318845e-07
2.3253791e-09
2.0220457e-07
2.3087652e-09
2.012266e-07
2.2940802e-09
2.0025384e-07
2.2810911e-09
1.9928575e-07
2.2693626e-09
1.9832182e-07
2.2588319e-09
1.9736139e-07
2.2498529e-09
1.9640369e-07
2.2426963e-09
1.9544809e-07
2.2369898e-09
1.9449414e-07
2.2323786e-09
1.9354124e-07
2.2291222e-09
1.9258871e-07
2.2275113e-09
1.916358e-07
2.2275985e-09
1.9068194e-07
2.229071e-09
1.897266e-07
2.2317295e-09
1.887691e-07
2.2359631e-09
1.8780865e-07
2.2420845e-09
1.8684453e-07
2.2498216e-09
1.8587616e-07
2.2589325e-09
1.849028e-07
2.2697507e-09
1.8392357e-07
2.28262e-09
1.8293761e-07
2.2974138e-09
1.8194419e-07
2.3139605e-09
1.8094241e-07
2.3325399e-09
1.7993123e-07
2.3535262e-09
1.7890962e-07
2.3768578e-09
1.7787661e-07
2.4024517e-09
1.7683099e-07
2.4308282e-09
1.7577152e-07
2.4619983e-09
1.7469643e-07
2.4972946e-09
1.736496e-07
2.4306489e-09
1.7265456e-07
2.3094718e-09
1.717071e-07
2.1982317e-09
1.7080348e-07
2.0957444e-09
1.6994029e-07
2.0012734e-09
1.6911439e-07
1.9142146e-09
1.6832295e-07
1.8337378e-09
1.6756351e-07
1.7590757e-09
1.668338e-07
1.6897176e-09
1.6613172e-07
1.6252844e-09
1.6545533e-07
1.5653779e-09
1.648029e-07
1.5095591e-09
1.6417282e-07
1.4574615e-09
1.6356353e-07
1.4090235e-09
1.629736e-07
1.3639401e-09
1.6240125e-07
1.3229916e-09
1.6184545e-07
1.2844437e-09
1.6130256e-07
1.2543528e-09
1.6077419e-07
1.2205333e-09
1.6024614e-07
1.2194914e-09
1.5974263e-07
1.1627039e-09
1.5912448e-07
1.4265714e-09
8.8855676e-10
2.3100836e-06
1.559272e-10
2.3099922e-06
4.1747111e-10
2.3098667e-06
5.7166329e-10
2.309723e-06
6.5426884e-10
2.3095612e-06
7.3660736e-10
2.309381e-06
8.2042795e-10
2.3091818e-06
9.071331e-10
2.3089622e-06
1.0003758e-09
2.3087201e-06
1.1031338e-09
2.3084529e-06
1.2181409e-09
2.3081572e-06
1.3485783e-09
2.3078287e-06
1.4990805e-09
2.3074617e-06
1.675301e-09
2.3070483e-06
1.8881245e-09
2.3065786e-06
2.1467258e-09
2.3060348e-06
2.4865344e-09
2.3053997e-06
2.9054849e-09
2.3046186e-06
3.5760576e-09
2.3036787e-06
4.3048909e-09
2.302327e-06
6.1971638e-09
2.3006744e-06
7.5811069e-09
2.2963939e-06
1.9657711e-08
2.2933453e-06
1.3953669e-08
1.48137e-06
4.3345778e-06
5.9082683e-07
4.5515111e-06
4.9246746e-07
2.7119897e-07
4.6070094e-07
9.1047961e-08
4.4064347e-07
5.9300173e-08
4.2579286e-07
4.4225101e-08
4.1359406e-07
3.6423124e-08
4.0314819e-07
3.1207755e-08
3.9409144e-07
2.7048818e-08
3.8615629e-07
2.3684125e-08
3.7911326e-07
2.1005454e-08
3.7279056e-07
1.884181e-08
3.670701e-07
1.7033851e-08
3.6186094e-07
1.5500236e-08
3.5707827e-07
1.4220949e-08
3.5265448e-07
1.3144303e-08
3.4854304e-07
1.2207908e-08
3.4470338e-07
1.1393418e-08
3.4110028e-07
1.0684439e-08
3.3770614e-07
1.0058421e-08
3.3449736e-07
9.5032706e-09
3.3145409e-07
9.0076521e-09
3.2855917e-07
8.5635221e-09
3.2579789e-07
8.1634682e-09
3.2315821e-07
7.799577e-09
3.2062901e-07
7.4689924e-09
3.1820094e-07
7.1663767e-09
3.1586639e-07
6.8866444e-09
3.136175e-07
6.6304214e-09
3.1144724e-07
6.3952662e-09
3.0934995e-07
6.177081e-09
3.0731999e-07
5.9757852e-09
3.0535182e-07
5.7910052e-09
3.0344106e-07
5.6193472e-09
3.0158407e-07
5.4586147e-09
2.9977695e-07
5.3094807e-09
2.9801609e-07
5.1711572e-09
2.9629873e-07
5.0410743e-09
2.9462237e-07
4.9184904e-09
2.9298417e-07
4.8043557e-09
2.913814e-07
4.698308e-09
2.89812e-07
4.5984651e-09
2.8827417e-07
4.5040032e-09
2.8676583e-07
4.4157169e-09
2.852848e-07
4.3338907e-09
2.8382945e-07
4.2568987e-09
2.8239857e-07
4.1835604e-09
2.8099065e-07
4.1147043e-09
2.7960396e-07
4.0509678e-09
2.7823708e-07
3.9914264e-09
2.7688896e-07
3.9349945e-09
2.7555856e-07
3.881682e-09
2.7424462e-07
3.8321033e-09
2.7294574e-07
3.7866043e-09
2.7166092e-07
3.7441104e-09
2.7038942e-07
3.7037453e-09
2.6913033e-07
3.6661558e-09
2.6788251e-07
3.6318224e-09
2.6664491e-07
3.6006441e-09
2.6541672e-07
3.5717945e-09
2.6419734e-07
3.5447633e-09
2.6298592e-07
3.5201875e-09
2.6178145e-07
3.4985459e-09
2.6058306e-07
3.4794827e-09
2.5939009e-07
3.4623346e-09
2.5820191e-07
3.4470095e-09
2.5701771e-07
3.4340523e-09
2.5583653e-07
3.4238755e-09
2.5465761e-07
3.4159111e-09
2.5348037e-07
3.4096187e-09
2.5230409e-07
3.4053992e-09
2.511279e-07
3.4036997e-09
2.499509e-07
3.4045996e-09
2.4877235e-07
3.4076218e-09
2.4759162e-07
3.4124664e-09
2.4640785e-07
3.4197315e-09
2.4522004e-07
3.4298961e-09
2.4402731e-07
3.4425452e-09
2.4282893e-07
3.4573109e-09
2.4162398e-07
3.4747089e-09
2.4041133e-07
3.4952687e-09
2.3918994e-07
3.5187959e-09
2.3795887e-07
3.5450316e-09
2.36717e-07
3.5744111e-09
2.3546302e-07
3.6075108e-09
2.3419564e-07
3.6442378e-09
2.3291362e-07
3.68447e-09
2.3161544e-07
3.7290124e-09
2.3029955e-07
3.7778834e-09
2.2896372e-07
3.8331264e-09
2.2766248e-07
3.7318869e-09
2.2642513e-07
3.5468241e-09
2.2524648e-07
3.3768845e-09
2.2412196e-07
3.2202628e-09
2.2304738e-07
3.0758519e-09
2.2201885e-07
2.9427381e-09
2.2103294e-07
2.8196553e-09
2.2008658e-07
2.7054358e-09
2.1917699e-07
2.5993062e-09
2.1830158e-07
2.5006917e-09
2.1745797e-07
2.4089858e-09
2.1664401e-07
2.3235198e-09
2.1585774e-07
2.2437365e-09
2.1509721e-07
2.1695482e-09
2.1436066e-07
2.100489e-09
2.1364589e-07
2.0377698e-09
2.1295162e-07
1.9787118e-09
2.1227328e-07
1.9326869e-09
2.1161298e-07
1.880841e-09
2.1095283e-07
1.8796412e-09
2.1032326e-07
1.7922734e-09
2.0955021e-07
2.1996207e-09
1.3693331e-09
2.4684946e-06
1.9249351e-10
2.4683963e-06
5.1573068e-10
2.4682614e-06
7.0665497e-10
2.4681066e-06
8.0899641e-10
2.4679324e-06
9.10853e-10
2.4677383e-06
1.0144702e-09
2.4675239e-06
1.1216031e-09
2.4672875e-06
1.2367672e-09
2.467027e-06
1.3636419e-09
2.4667395e-06
1.5056036e-09
2.4664215e-06
1.666578e-09
2.4660683e-06
1.8522823e-09
2.4656739e-06
2.0696886e-09
2.4652298e-06
2.3322207e-09
2.4647254e-06
2.6511887e-09
2.4641416e-06
3.0702839e-09
2.4634602e-06
3.5869391e-09
2.4626224e-06
4.4138325e-09
2.4616148e-06
5.3124664e-09
2.4601665e-06
7.6454536e-09
2.4583968e-06
9.3508656e-09
2.4538164e-06
2.423811e-08
2.4505473e-06
1.7222689e-08
1.638145e-06
5.1469801e-06
7.2584418e-07
5.4638119e-06
6.0102268e-07
3.9602047e-07
5.6177921e-07
1.3029143e-07
5.3764066e-07
8.3438726e-08
5.199228e-07
6.1942966e-08
5.0542707e-07
5.0918851e-08
4.9303889e-07
4.359593e-08
4.8230883e-07
3.7778877e-08
4.7291315e-07
3.3079807e-08
4.6457691e-07
2.9341693e-08
4.5709502e-07
2.6323697e-08
4.5032707e-07
2.3801806e-08
4.4416513e-07
2.1662174e-08
4.3850837e-07
1.9877705e-08
4.3327645e-07
1.8376231e-08
4.2841424e-07
1.7070111e-08
4.2387365e-07
1.593401e-08
4.1961287e-07
1.494522e-08
4.1559922e-07
1.4072073e-08
4.1180474e-07
1.3297748e-08
4.0820593e-07
1.2606462e-08
4.0478246e-07
1.1986998e-08
4.0151691e-07
1.1429015e-08
3.9839504e-07
1.0921449e-08
3.9540366e-07
1.0460371e-08
3.9253172e-07
1.003832e-08
3.8977021e-07
9.6481501e-09
3.8710984e-07
9.290791e-09
3.8454227e-07
8.962838e-09
3.8206083e-07
8.6585205e-09
3.7965886e-07
8.3777563e-09
3.773298e-07
8.1200653e-09
3.7506847e-07
7.8806736e-09
3.7287059e-07
7.6564952e-09
3.7073155e-07
7.4485177e-09
3.6864706e-07
7.2556553e-09
3.6661385e-07
7.0742796e-09
3.6462899e-07
6.90335e-09
3.6268912e-07
6.7442297e-09
3.6079101e-07
6.5964199e-09
3.5893221e-07
6.4572616e-09
3.5711061e-07
6.3255989e-09
3.5532376e-07
6.2025728e-09
3.5356906e-07
6.0885906e-09
3.518446e-07
5.9813565e-09
3.5014895e-07
5.879213e-09
3.4848031e-07
5.7833391e-09
3.4683664e-07
5.6946369e-09
3.4521626e-07
5.6118048e-09
3.4361795e-07
5.5333121e-09
3.4204045e-07
5.4591774e-09
3.4048228e-07
5.3902784e-09
3.3894178e-07
5.3271006e-09
3.3741776e-07
5.2681291e-09
3.3590937e-07
5.2121328e-09
3.344155e-07
5.1600283e-09
3.3293483e-07
5.1124975e-09
3.3146607e-07
5.0693962e-09
3.3000831e-07
5.0295589e-09
3.285608e-07
4.9922718e-09
3.2712255e-07
4.9584387e-09
3.2569236e-07
4.9287352e-09
3.2426919e-07
4.9026579e-09
3.2285225e-07
4.8792714e-09
3.2144081e-07
4.8584526e-09
3.2003388e-07
4.8409753e-09
3.1863034e-07
4.8274193e-09
3.1722927e-07
4.8169821e-09
3.1582998e-07
4.8089037e-09
3.1443163e-07
4.8037565e-09
3.1303315e-07
4.8021746e-09
3.1163348e-07
4.8042665e-09
3.1023175e-07
4.8093603e-09
3.0882717e-07
4.8170392e-09
3.0741875e-07
4.8281518e-09
3.0600527e-07
4.8433739e-09
3.045857e-07
4.8621199e-09
3.0315914e-07
4.8838739e-09
3.0172447e-07
4.909371e-09
3.0028038e-07
4.9393624e-09
2.988256e-07
4.973572e-09
2.97359e-07
5.0116381e-09
2.9587922e-07
5.0541852e-09
2.943847e-07
5.1020318e-09
2.9287389e-07
5.1550462e-09
2.913453e-07
5.2130631e-09
2.8979708e-07
5.2772297e-09
2.882274e-07
5.3475718e-09
2.8663354e-07
5.4269789e-09
2.850806e-07
5.2848317e-09
2.8360354e-07
5.0238783e-09
2.8219624e-07
4.7841908e-09
2.8085327e-07
4.5632262e-09
2.7956968e-07
4.3594453e-09
2.7834085e-07
4.1715702e-09
2.7716269e-07
3.9978151e-09
2.7603159e-07
3.8365385e-09
2.7494423e-07
3.6866582e-09
2.7389756e-07
3.5473678e-09
2.7288873e-07
3.4178134e-09
2.719152e-07
3.2970534e-09
2.7097463e-07
3.1843062e-09
2.7006472e-07
3.0794559e-09
2.6918336e-07
2.9818451e-09
2.6832793e-07
2.8932054e-09
2.6749692e-07
2.8097188e-09
2.6668485e-07
2.7447614e-09
2.6589426e-07
2.6714231e-09
2.6510365e-07
2.6702527e-09
2.643496e-07
2.54633e-09
2.6342373e-07
3.1254871e-09
1.9450171e-09
2.6636917e-06
2.3213561e-10
2.663585e-06
6.2244938e-10
2.6634382e-06
8.5350803e-10
2.6632697e-06
9.774478e-10
2.66308e-06
1.1005818e-09
2.6628687e-06
1.2257399e-09
2.6626352e-06
1.3550726e-09
2.662378e-06
1.4940344e-09
2.6620946e-06
1.6470672e-09
2.6617819e-06
1.8182449e-09
2.6614362e-06
2.0122997e-09
2.6610524e-06
2.2361206e-09
2.6606239e-06
2.4981054e-09
2.6601417e-06
2.8144245e-09
2.6595942e-06
3.1986939e-09
2.658961e-06
3.703538e-09
2.6582221e-06
4.325837e-09
2.6573142e-06
5.3217181e-09
2.6562228e-06
6.4038631e-09
2.6546552e-06
9.2130693e-09
2.6527406e-06
1.1265415e-08
2.6477903e-06
2.9188415e-08
2.6442485e-06
2.0764544e-08
1.8224683e-06
5.9687603e-06
8.7633328e-07
6.4099469e-06
7.2102689e-07
5.5132686e-07
6.7304087e-07
1.7827745e-07
6.4422479e-07
1.122548e-07
6.2326538e-07
8.2902377e-08
6.0619071e-07
6.7993515e-08
5.9163066e-07
5.8155987e-08
5.7903447e-07
5.0375064e-08
5.680133e-07
4.4100975e-08
5.5824028e-07
3.9114714e-08
5.4947242e-07
3.5091557e-08
5.4154393e-07
3.1730299e-08
5.3432771e-07
2.8878389e-08
5.2770487e-07
2.650055e-08
5.2158067e-07
2.4500427e-08
5.1589037e-07
2.2760417e-08
5.1057736e-07
2.1247019e-08
5.0559245e-07
1.9930131e-08
5.0089725e-07
1.8767267e-08
4.9645894e-07
1.7736056e-08
4.922499e-07
1.6815504e-08
4.8824625e-07
1.5990648e-08
4.8442756e-07
1.5247705e-08
4.8077711e-07
1.4571903e-08
4.7727941e-07
1.3958071e-08
4.7392148e-07
1.339625e-08
4.7069277e-07
1.2876855e-08
4.6758238e-07
1.2401184e-08
4.6458052e-07
1.1964699e-08
4.6167939e-07
1.1559646e-08
4.588712e-07
1.1185948e-08
4.5614825e-07
1.0843013e-08
4.5350449e-07
1.0524437e-08
4.509349e-07
1.0226084e-08
4.4843409e-07
9.9493271e-09
4.4599701e-07
9.6927377e-09
4.4361986e-07
9.451432e-09
4.4129919e-07
9.2240146e-09
4.3903108e-07
9.0123442e-09
4.3681173e-07
8.8157645e-09
4.346383e-07
8.6306942e-09
4.3250831e-07
8.4555868e-09
4.3041889e-07
8.292e-09
4.2836699e-07
8.1404861e-09
4.2635039e-07
7.9979568e-09
4.2436741e-07
7.8621951e-09
4.2241595e-07
7.734796e-09
4.2049361e-07
7.6169739e-09
4.1859844e-07
7.5069821e-09
4.1672898e-07
7.402765e-09
4.1488381e-07
7.3043535e-09
4.1306115e-07
7.2129382e-09
4.1125908e-07
7.1291674e-09
4.094762e-07
7.051007e-09
4.0771152e-07
6.976811e-09
4.0596374e-07
6.9078142e-09
4.042313e-07
6.8449361e-09
4.0251272e-07
6.7879799e-09
4.0080689e-07
6.7353806e-09
3.9911298e-07
6.6861883e-09
3.9742979e-07
6.6416226e-09
3.9575594e-07
6.602589e-09
3.9409019e-07
6.568408e-09
3.9243164e-07
6.5378253e-09
3.907794e-07
6.5106847e-09
3.8913235e-07
6.4880301e-09
3.8748913e-07
6.4706355e-09
3.8584869e-07
6.4574218e-09
3.8421023e-07
6.4473721e-09
3.8257272e-07
6.4412631e-09
3.8093494e-07
6.4399494e-09
3.7929564e-07
6.4435698e-09
3.7765378e-07
6.451224e-09
3.7600845e-07
6.4623623e-09
3.7435848e-07
6.4781275e-09
3.7270243e-07
6.4994248e-09
3.7103908e-07
6.5254676e-09
3.6936739e-07
6.5555678e-09
3.6768604e-07
6.5907209e-09
3.6599346e-07
6.6319381e-09
3.6428819e-07
6.6788449e-09
3.6256886e-07
6.7309606e-09
3.6083391e-07
6.789136e-09
3.5908147e-07
6.8544728e-09
3.5730973e-07
6.9267921e-09
3.5551691e-07
7.0058804e-09
3.5370085e-07
7.0932895e-09
3.5185937e-07
7.1890502e-09
3.4998931e-07
7.2970424e-09
3.48167e-07
7.107138e-09
3.4643351e-07
6.757366e-09
3.4478167e-07
6.4360373e-09
3.4320515e-07
6.1397427e-09
3.4169815e-07
5.8664468e-09
3.4025527e-07
5.614447e-09
3.3887174e-07
5.3813467e-09
3.3754333e-07
5.1649511e-09
3.3626617e-07
4.9638202e-09
3.3503666e-07
4.7768763e-09
3.338515e-07
4.6029749e-09
3.3270769e-07
4.4408559e-09
3.3160252e-07
4.2894766e-09
3.3053329e-07
4.1486911e-09
3.2949752e-07
4.0176164e-09
3.2849212e-07
3.8986023e-09
3.2751536e-07
3.7864801e-09
3.2656074e-07
3.6993753e-09
3.2563135e-07
3.6008183e-09
3.2470172e-07
3.5998859e-09
3.2381503e-07
3.4330186e-09
3.227265e-07
4.2140157e-09
2.6217358e-09
2.8985839e-06
2.755028e-10
2.8984669e-06
7.3944357e-10
2.8983056e-06
1.0148083e-09
2.8981204e-06
1.1626378e-09
2.8979118e-06
1.3092019e-09
2.8976795e-06
1.4580283e-09
2.8974229e-06
1.611718e-09
2.8971401e-06
1.7767566e-09
2.8968288e-06
1.9584235e-09
2.8964855e-06
2.1615567e-09
2.896106e-06
2.3917703e-09
2.8956849e-06
2.6572325e-09
2.8952151e-06
2.9678967e-09
2.8946866e-06
3.3429292e-09
2.8940868e-06
3.7984587e-09
2.8933935e-06
4.3968522e-09
2.892585e-06
5.1343755e-09
2.8915922e-06
6.3145245e-09
2.8903993e-06
7.5967169e-09
2.8886874e-06
1.092494e-08
2.886598e-06
1.3354883e-08
2.8812017e-06
3.4584665e-08
2.8773295e-06
2.463676e-08
2.0393876e-06
6.8067023e-06
1.0486912e-06
7.4006433e-06
8.5775895e-07
7.4225907e-07
7.9932434e-07
2.3671207e-07
7.6500131e-07
1.4657783e-07
7.4027188e-07
1.0763181e-07
7.2021512e-07
8.8050272e-08
7.0315179e-07
7.5219313e-08
6.8840901e-07
6.511785e-08
6.7552078e-07
5.6989198e-08
6.6409946e-07
5.053604e-08
6.5385781e-07
4.533321e-08
6.4460045e-07
4.0987656e-08
6.3617803e-07
3.7300809e-08
6.2845072e-07
3.4227856e-08
6.2130716e-07
3.1643992e-08
6.1467139e-07
2.9396185e-08
6.0847703e-07
2.7441383e-08
6.0266632e-07
2.574084e-08
5.9719429e-07
2.4239289e-08
5.920225e-07
2.290785e-08
5.8711858e-07
2.1719423e-08
5.8245458e-07
2.0654654e-08
5.7800656e-07
1.9695718e-08
5.7375497e-07
1.8823492e-08
5.6968168e-07
1.8031369e-08
5.6577147e-07
1.7306462e-08
5.6201201e-07
1.6636306e-08
5.5839056e-07
1.6022639e-08
5.5489566e-07
1.5459596e-08
5.5151823e-07
1.4937081e-08
5.4824915e-07
1.4455024e-08
5.4507944e-07
1.4012721e-08
5.4200203e-07
1.3601852e-08
5.3901107e-07
1.321704e-08
5.3610027e-07
1.2860129e-08
5.3326371e-07
1.2529295e-08
5.3049697e-07
1.2218175e-08
5.2779603e-07
1.1924952e-08
5.251563e-07
1.1652074e-08
5.2257336e-07
1.1398704e-08
5.2004389e-07
1.1160172e-08
5.17565e-07
1.0934474e-08
5.1513334e-07
1.0723663e-08
5.1274536e-07
1.0528462e-08
5.1039847e-07
1.0344851e-08
5.080907e-07
1.016996e-08
5.0581963e-07
1.0005873e-08
5.0358243e-07
9.8541701e-09
5.0137683e-07
9.7125835e-09
4.9920115e-07
9.5784406e-09
4.9705372e-07
9.451789e-09
4.9493247e-07
9.3341893e-09
4.9283516e-07
9.226477e-09
4.9076015e-07
9.1260102e-09
4.887063e-07
9.0306595e-09
4.8667209e-07
8.9420327e-09
4.8465569e-07
8.8613281e-09
4.8265539e-07
8.7882845e-09
4.806699e-07
8.7208693e-09
4.7869823e-07
8.6578603e-09
4.76739e-07
8.6008473e-09
4.7479059e-07
8.5510036e-09
4.7285156e-07
8.507441e-09
4.7092085e-07
8.4685322e-09
4.6899745e-07
8.4340869e-09
4.6708001e-07
8.4054657e-09
4.6516698e-07
8.3836661e-09
4.6325712e-07
8.3672847e-09
4.6134948e-07
8.3550055e-09
4.594429e-07
8.3478472e-09
4.5753593e-07
8.3469221e-09
4.556271e-07
8.3524001e-09
4.5371521e-07
8.3631142e-09
4.5179921e-07
8.3783645e-09
4.498777e-07
8.3996375e-09
4.4794902e-07
8.4281032e-09
4.4601174e-07
8.4627399e-09
4.4406465e-07
8.50266e-09
4.4210621e-07
8.5491653e-09
4.4013458e-07
8.6035704e-09
4.3814804e-07
8.6653825e-09
4.3614502e-07
8.7339832e-09
4.3412366e-07
8.8104921e-09
4.3208179e-07
8.8963404e-09