/*--------------------------------*- C++ -*----------------------------------*\
  =========                 |
  \\      /  F ield         | OpenFOAM: The Open Source CFD Toolbox
   \\    /   O peration     | Website:  https://openfoam.org
    \\  /    A nd           | Version:  12
     \\/     M anipulation  |
\*---------------------------------------------------------------------------*/
FoamFile
{
    format      ascii;
    class       volVectorField;
    location    "1000";
    object      U;
}
// * * * * * * * * * * * * * * * * * * * * * * * * * * * * * * * * * * * * * //

dimensions      [0 1 -1 0 0 0 0];

internalField   nonuniform List<vector> 
13056
(
(1 3.6487206e-10 3.5439239e-24)
(0.99997255 1.1060603e-09 0)
(0.99992338 1.7156404e-09 0)
(0.99986641 2.2258824e-09 0)
(0.9998019 2.8417991e-09 0)
(0.99972961 3.588526e-09 0)
(0.99964946 4.4964001e-09 0)
(0.999561 5.615548e-09 0)
(0.99946345 7.0066194e-09 0)
(0.9993558 8.7442593e-09 0)
(0.99923676 1.0924219e-08 0)
(0.99910473 1.367686e-08 0)
(0.99895754 1.7172367e-08 0)
(0.99879252 2.1676636e-08 0)
(0.99860552 2.7495536e-08 0)
(0.99839203 3.5359109e-08 0)
(0.9981415 4.5596794e-08 0)
(0.99784918 6.1490699e-08 0)
(0.99747388 8.0389516e-08 0)
(0.99704264 1.2443936e-07 0)
(0.99631788 1.6170339e-07 0)
(0.9956151 4.3972242e-07 0)
(0.9926559 3.2088858e-07 -1.4873758e-20)
(0.9929621 0.00012011477 1.987887e-16)
(0.038967393 0.00012415182 0)
(0.029772564 1.1628543e-07 -3.5619146e-20)
(0.027417036 4.3582403e-08 0)
(0.025868487 3.5670766e-08 0)
(0.024765443 2.7606753e-08 0)
(0.023879604 2.3062134e-08 0)
(0.023126576 1.9826531e-08 0)
(0.022478018 1.71454e-08 0)
(0.021915138 1.4948686e-08 0)
(0.021420314 1.318428e-08 0)
(0.020979647 1.1749258e-08 0)
(0.020583398 1.0545536e-08 0)
(0.020224905 9.5219331e-09 0)
(0.019898158 8.6665186e-09 0)
(0.019597558 7.9415414e-09 0)
(0.019319489 7.3074569e-09 0)
(0.019061142 6.7558228e-09 0)
(0.018819772 6.2723822e-09 0)
(0.018593337 5.843478e-09 0)
(0.018380109 5.4618301e-09 0)
(0.018178601 5.1191394e-09 0)
(0.017987603 4.8105724e-09 0)
(0.017805998 4.5312462e-09 0)
(0.017632913 4.2757652e-09 0)
(0.017467584 4.0426823e-09 0)
(0.017309276 3.8280894e-09 0)
(0.017157464 3.6288906e-09 0)
(0.017011636 3.4455446e-09 0)
(0.016871249 3.2759529e-09 0)
(0.016735903 3.1177749e-09 0)
(0.016605234 2.9709376e-09 0)
(0.016478847 2.8347934e-09 0)
(0.016356401 2.7073175e-09 0)
(0.016237652 2.5872975e-09 0)
(0.016122353 2.4749816e-09 0)
(0.016010233 2.3695949e-09 0)
(0.015901084 2.2697672e-09 0)
(0.015794746 2.1751328e-09 0)
(0.015691043 2.0859865e-09 0)
(0.015589776 2.0019124e-09 0)
(0.015490786 1.9219421e-09 0)
(0.015393958 1.8457171e-09 0)
(0.015299167 1.7734424e-09 0)
(0.015206264 1.7050742e-09 0)
(0.015115115 1.639807e-09 0)
(0.015025641 1.5771357e-09 0)
(0.014937758 1.5173364e-09 0)
(0.014851352 1.4605402e-09 0)
(0.014766315 1.406248e-09 0)
(0.014682571 1.3539885e-09 0)
(0.014600058 1.3038134e-09 0)
(0.014518701 1.2557957e-09 0)
(0.014438413 1.2099893e-09 0)
(0.014359105 1.1659277e-09 0)
(0.014280734 1.1232945e-09 0)
(0.014203251 1.082289e-09 0)
(0.014126584 1.0429669e-09 0)
(0.014050664 1.0052231e-09 0)
(0.013975426 9.6874535e-10 0)
(0.013900834 9.3338973e-10 0)
(0.013826845 8.9928383e-10 0)
(0.013753397 8.6650757e-10 0)
(0.013680428 8.3488024e-10 0)
(0.01360789 8.0419423e-10 0)
(0.013535749 7.7444282e-10 0)
(0.013463962 7.4568472e-10 0)
(0.013392471 7.1797517e-10 0)
(0.013321218 6.9112122e-10 0)
(0.013250169 6.6498091e-10 0)
(0.013179286 6.3963206e-10 0)
(0.013108521 6.1511339e-10 0)
(0.013037819 5.9138308e-10 0)
(0.012967125 5.6831331e-10 0)
(0.012896406 5.45841e-10 0)
(0.012825622 5.2403171e-10 0)
(0.012754711 5.02921e-10 0)
(0.012683616 4.8239531e-10 0)
(0.012612295 4.6237374e-10 0)
(0.012540702 4.429107e-10 0)
(0.012468774 4.2403634e-10 0)
(0.012396447 4.0567527e-10 0)
(0.012323666 3.8776552e-10 0)
(0.012250375 3.7033741e-10 0)
(0.012176503 3.5341029e-10 0)
(0.012101971 3.3692776e-10 0)
(0.012026712 3.2084605e-10 0)
(0.011950654 3.0520952e-10 0)
(0.011873694 2.8997541e-10 0)
(0.011795763 2.752521e-10 0)
(0.011718444 2.6139858e-10 0)
(0.011644153 2.4861205e-10 0)
(0.01157354 2.3685334e-10 0)
(0.011506309 2.2600569e-10 0)
(0.011442196 2.1599897e-10 0)
(0.011380952 2.0677031e-10 0)
(0.011322354 1.9822965e-10 0)
(0.011266204 1.9029828e-10 0)
(0.011212329 1.8292606e-10 0)
(0.011160565 1.7607451e-10 0)
(0.011110762 1.6969958e-10 0)
(0.011062782 1.6375459e-10 0)
(0.011016503 1.5820396e-10 0)
(0.010971811 1.5304111e-10 0)
(0.010928588 1.4823692e-10 0)
(0.010886739 1.4387251e-10 0)
(0.010846099 1.3977166e-10 0)
(0.010806681 1.3656137e-10 0)
(0.01076794 1.3301757e-10 0)
(0.010730656 1.3286376e-10 0)
(0.010691999 6.2475941e-10 0)
(0.010658294 1.5318998e-10 1.9609368e-22)
(0.010603141 4.8084352e-10 0)
(1 1.100907e-09 0)
(0.9999725 3.339831e-09 0)
(0.99992317 5.1820748e-09 0)
(0.999866 6.7241349e-09 0)
(0.99980126 8.584854e-09 0)
(0.99972871 1.0840385e-08 0)
(0.99964827 1.3582343e-08 0)
(0.9995595 1.6961995e-08 0)
(0.99946163 2.1162349e-08 0)
(0.99935363 2.6408622e-08 0)
(0.99923422 3.2989681e-08 0)
(0.99910179 4.1298778e-08 0)
(0.9989542 5.1849249e-08 0)
(0.99878875 6.5443102e-08 0)
(0.99860128 8.300279e-08 0)
(0.99838731 1.0673014e-07 0)
(0.99813626 1.3761828e-07 0)
(0.99784338 1.8556536e-07 0)
(0.99746745 2.4257418e-07 0)
(0.99703557 3.7542563e-07 0)
(0.99630996 4.8778809e-07 0)
(0.99560653 1.3262037e-06 0)
(0.99264514 9.6821748e-07 5.3091873e-20)
(0.99294919 0.00035401513 -7.0410192e-20)
(0.11360797 0.00035952675 0)
(0.088277912 5.608822e-06 0)
(0.081374951 1.9561887e-06 0)
(0.076864188 1.3311404e-06 0)
(0.073648151 9.9199081e-07 0)
(0.071063064 8.1083316e-07 0)
(0.068863178 6.8737866e-07 0)
(0.066966323 5.8863205e-07 0)
(0.065318334 5.0899832e-07 0)
(0.063868299 4.4570926e-07 0)
(0.062575948 3.9466301e-07 0)
(0.061413015 3.5217774e-07 0)
(0.060360173 3.1630116e-07 0)
(0.059399985 2.8637826e-07 0)
(0.058516166 2.6116179e-07 0)
(0.057698171 2.3927696e-07 0)
(0.056937824 2.202559e-07 0)
(0.056227137 2.0367533e-07 0)
(0.055560146 1.8903259e-07 0)
(0.054931812 1.7603721e-07 0)
(0.054337799 1.6442232e-07 0)
(0.05377457 1.5399674e-07 0)
(0.053238865 1.4458784e-07 0)
(0.052728129 1.3602189e-07 0)
(0.052240135 1.2822159e-07 0)
(0.051772728 1.2106929e-07 0)
(0.05132438 1.144593e-07 0)
(0.050893589 1.0838416e-07 0)
(0.050478769 1.0278489e-07 0)
(0.050078743 9.7581119e-08 0)
(0.049692448 9.2758434e-08 0)
(0.049318729 8.8296699e-08 0)
(0.048956586 8.4132266e-08 0)
(0.048605298 8.0222949e-08 0)
(0.048264145 7.6569505e-08 0)
(0.047932334 7.3150969e-08 0)
(0.047609252 6.9923682e-08 0)
(0.047294431 6.6871486e-08 0)
(0.046987352 6.4000803e-08 0)
(0.046687434 6.1299975e-08 0)
(0.04639421 5.8738904e-08 0)
(0.046107338 5.6302698e-08 0)
(0.045826454 5.3996557e-08 0)
(0.045551119 5.1818974e-08 0)
(0.04528094 4.9745993e-08 0)
(0.045015683 4.7760507e-08 0)
(0.044755103 4.5868937e-08 0)
(0.044498864 4.4074685e-08 0)
(0.044246645 4.2363938e-08 0)
(0.043998226 4.0722353e-08 0)
(0.043753423 3.9147871e-08 0)
(0.043512017 3.764392e-08 0)
(0.043273747 3.6211108e-08 0)
(0.043038354 3.4836357e-08 0)
(0.042805712 3.3509579e-08 0)
(0.042575671 3.2235002e-08 0)
(0.042348025 3.1014624e-08 0)
(0.042122567 2.9845324e-08 0)
(0.041899105 2.8718213e-08 0)
(0.041677534 2.7627756e-08 0)
(0.041457726 2.6577509e-08 0)
(0.041239498 2.5569341e-08 0)
(0.041022665 2.4598757e-08 0)
(0.040807086 2.3659559e-08 0)
(0.040592661 2.2749996e-08 0)
(0.040379261 2.1872349e-08 0)
(0.040166718 2.1027762e-08 0)
(0.039954854 2.0211174e-08 0)
(0.039743572 1.9418253e-08 0)
(0.03953276 1.8650307e-08 0)
(0.039322273 1.7908543e-08 0)
(0.039111945 1.7192033e-08 0)
(0.03890162 1.6497099e-08 0)
(0.038691194 1.5821325e-08 0)
(0.038480548 1.5166547e-08 0)
(0.038269503 1.4533688e-08 0)
(0.038057884 1.3919726e-08 0)
(0.037845563 1.3322206e-08 0)
(0.037632411 1.2742217e-08 0)
(0.037418237 1.218058e-08 0)
(0.037202848 1.1635431e-08 0)
(0.036986079 1.1104897e-08 0)
(0.036767768 1.0589398e-08 0)
(0.036547699 1.0089538e-08 0)
(0.036325638 9.6038878e-09 0)
(0.036101383 9.1310817e-09 0)
(0.035874717 8.6720792e-09 0)
(0.035645339 8.2257614e-09 0)
(0.035413034 7.7952728e-09 0)
(0.035182527 7.3908854e-09 0)
(0.034961019 7.0184283e-09 0)
(0.034750455 6.676743e-09 0)
(0.034549953 6.3621724e-09 0)
(0.03435873 6.0723959e-09 0)
(0.034176048 5.8055055e-09 0)
(0.034001238 5.5589344e-09 0)
(0.033833721 5.3303099e-09 0)
(0.033672974 5.1180366e-09 0)
(0.033518515 4.9209301e-09 0)
(0.033369894 4.7377513e-09 0)
(0.033226704 4.5671461e-09 0)
(0.03308858 4.4079838e-09 0)
(0.032955184 4.260046e-09 0)
(0.032826163 4.1223973e-09 0)
(0.032701237 3.9973589e-09 0)
(0.03257991 3.8797205e-09 0)
(0.032462227 3.7876284e-09 0)
(0.032346562 3.6846041e-09 0)
(0.032235233 3.6799763e-09 0)
(0.032119815 3.5239556e-09 0)
(0.03201916 4.2972931e-09 -2.9731e-22)
(0.031854449 2.7001466e-09 2.0214722e-23)
(1 1.8551993e-09 0)
(0.99997243 5.6302657e-09 0)
(0.99992292 8.7387547e-09 0)
(0.9998655 1.1340826e-08 0)
(0.99980046 1.4479351e-08 0)
(0.99972758 1.8283147e-08 0)
(0.99964678 2.290669e-08 0)
(0.99955762 2.8604832e-08 0)
(0.99945933 3.5685877e-08 0)
(0.99935089 4.45292e-08 0)
(0.99923103 5.562134e-08 0)
(0.99909811 6.9624601e-08 0)
(0.99895 8.7403447e-08 0)
(0.99878401 1.1030844e-07 0)
(0.99859597 1.3989276e-07 0)
(0.99838139 1.7986394e-07 0)
(0.99812969 2.3189349e-07 0)
(0.99783612 3.1264713e-07 0)
(0.99745941 4.086575e-07 0)
(0.99702673 6.3235406e-07 0)
(0.99630006 8.215422e-07 0)
(0.99559584 2.2330678e-06 0)
(0.99263186 1.6323628e-06 -2.8095362e-20)
(0.9929335 0.00057150971 7.2847267e-54)
(0.18121673 0.00058440882 -9.3087025e-54)
(0.14116109 1.6408209e-05 0)
(0.13029931 5.7145945e-06 0)
(0.12337398 3.8350673e-06 0)
(0.11844541 2.8542386e-06 0)
(0.11448214 2.3329644e-06 0)
(0.11110483 1.9788773e-06 0)
(0.10818754 1.6959313e-06 0)
(0.10564844 1.4676258e-06 0)
(0.10341057 1.2860628e-06 0)
(0.10141291 1.1395286e-06 0)
(0.099612648 1.0174736e-06 0)
(0.097980624 9.1432034e-07 0)
(0.096490385 8.2822588e-07 0)
(0.095117062 7.556432e-07 0)
(0.093844618 6.926204e-07 0)
(0.092660633 6.378084e-07 0)
(0.09155289 5.9001194e-07 0)
(0.090512292 5.477842e-07 0)
(0.089531135 5.1028991e-07 0)
(0.088602792 4.7676703e-07 0)
(0.087721848 4.4666537e-07 0)
(0.086883306 4.1948955e-07 0)
(0.086083253 3.9474113e-07 0)
(0.085318277 3.7219646e-07 0)
(0.084585066 3.5151899e-07 0)
(0.083881279 3.3240392e-07 0)
(0.083204616 3.1482943e-07 0)
(0.082552631 2.986279e-07 0)
(0.081923514 2.8356685e-07 0)
(0.081315633 2.6960448e-07 0)
(0.080727206 2.5668413e-07 0)
(0.080156686 2.4462215e-07 0)
(0.079602967 2.3329631e-07 0)
(0.079064938 2.2270895e-07 0)
(0.078541372 2.1280055e-07 0)
(0.07803132 2.0344465e-07 0)
(0.077534062 1.9459417e-07 0)
(0.077048799 1.8626817e-07 0)
(0.076574628 1.7843348e-07 0)
(0.076110823 1.7100292e-07 0)
(0.075656857 1.6393307e-07 0)
(0.075212168 1.5723936e-07 0)
(0.074776072 1.5091772e-07 0)
(0.074347956 1.4489885e-07 0)
(0.07392746 1.3913298e-07 0)
(0.073514204 1.3363875e-07 0)
(0.073107664 1.2842632e-07 0)
(0.072707337 1.2345582e-07 0)
(0.072312884 1.1868559e-07 0)
(0.071924016 1.141094e-07 0)
(0.071540393 1.097376e-07 0)
(0.071161606 1.0557197e-07 0)
(0.070787248 1.0157466e-07 0)
(0.070417124 9.771627e-08 0)
(0.070051 9.4009026e-08 0)
(0.069688552 9.0458972e-08 0)
(0.069329454 8.7057052e-08 0)
(0.068973402 8.3777489e-08 0)
(0.068620234 8.0604088e-08 0)
(0.068269748 7.7547275e-08 0)
(0.067921656 7.461254e-08 0)
(0.067575662 7.1786902e-08 0)
(0.067231548 6.9052318e-08 0)
(0.06688915 6.6403589e-08 0)
(0.066548271 6.3847518e-08 0)
(0.066208637 6.1387422e-08 0)
(0.06586997 5.9008625e-08 0)
(0.065532112 5.6698477e-08 0)
(0.065194887 5.446078e-08 0)
(0.064858062 5.229913e-08 0)
(0.064521372 5.0210842e-08 0)
(0.064184568 4.818521e-08 0)
(0.063847483 4.6215165e-08 0)
(0.063509924 4.4306103e-08 0)
(0.063171606 4.2460743e-08 0)
(0.062832245 4.0670292e-08 0)
(0.062491638 3.8927569e-08 0)
(0.062149572 3.7235773e-08 0)
(0.061805744 3.5597331e-08 0)
(0.061459837 3.4006812e-08 0)
(0.061111587 3.2458751e-08 0)
(0.060760729 3.0954378e-08 0)
(0.060406913 2.949549e-08 0)
(0.060049761 2.8077915e-08 0)
(0.059688943 2.6697664e-08 0)
(0.059324106 2.535755e-08 0)
(0.058954758 2.405432e-08 0)
(0.058580551 2.2797145e-08 0)
(0.058209095 2.1616059e-08 0)
(0.057852002 2.0528159e-08 0)
(0.057512427 1.953006e-08 0)
(0.057188966 1.8611062e-08 0)
(0.056880372 1.7764419e-08 0)
(0.056585466 1.6984578e-08 0)
(0.056303185 1.6264049e-08 0)
(0.056032599 1.5595905e-08 0)
(0.055772878 1.4975499e-08 0)
(0.055523248 1.4399381e-08 0)
(0.055282993 1.3863942e-08 0)
(0.05505146 1.3365224e-08 0)
(0.054828065 1.2899921e-08 0)
(0.054612268 1.2467414e-08 0)
(0.054403503 1.2064965e-08 0)
(0.054201321 1.1699393e-08 0)
(0.054004922 1.1355404e-08 0)
(0.053814383 1.1086234e-08 0)
(0.053627075 1.0784763e-08 0)
(0.053446755 1.0771937e-08 0)
(0.053259775 1.0249291e-08 0)
(0.053096682 1.2589425e-08 0)
(0.052829749 7.8394219e-09 0)
(1 2.6393298e-09 7.2703898e-24)
(0.99997235 8.0136928e-09 0)
(0.99992261 1.2443198e-08 0)
(0.99986488 1.6151268e-08 0)
(0.99979948 2.062166e-08 0)
(0.9997262 2.6038473e-08 0)
(0.99964496 3.262164e-08 0)
(0.99955533 4.0733662e-08 0)
(0.99945653 5.0813023e-08 0)
(0.99934756 6.3399223e-08 0)
(0.99922712 7.9184069e-08 0)
(0.99909361 9.9109199e-08 0)
(0.99894488 1.2440355e-07 0)
(0.99877822 1.5698703e-07 0)
(0.99858949 1.9906723e-07 0)
(0.99837417 2.5591434e-07 0)
(0.99812168 3.2990268e-07 0)
(0.99782727 4.4472098e-07 0)
(0.99744962 5.8121995e-07 0)
(0.99701596 8.9919686e-07 0)
(0.99628803 1.1680916e-06 0)
(0.99558284 3.174162e-06 0)
(0.99261585 2.3224965e-06 0)
(0.99291478 0.0007795745 -3.7958922e-54)
(0.23928733 0.00080593607 4.1346518e-54)
(0.18514916 3.2486098e-05 0)
(0.17093541 1.1174338e-05 0)
(0.16220606 7.4008144e-06 0)
(0.1560363 5.5005661e-06 0)
(0.15108679 4.4970897e-06 0)
(0.14687093 3.8180352e-06 0)
(0.14322727 3.275918e-06 0)
(0.14005322 2.8382004e-06 0)
(0.13725305 2.4898341e-06 0)
(0.13475091 2.208449e-06 0)
(0.13249379 1.9738076e-06 0)
(0.13044577 1.775272e-06 0)
(0.12857407 1.6094429e-06 0)
(0.12684771 1.4695572e-06 0)
(0.12524684 1.3479917e-06 0)
(0.1237561 1.2421801e-06 0)
(0.12236029 1.1498603e-06 0)
(0.1210481 1.0682416e-06 0)
(0.11980998 9.9572469e-07 0)
(0.11863768 9.3085147e-07 0)
(0.11752449 8.725657e-07 0)
(0.11646418 8.1991615e-07 0)
(0.11545188 7.719427e-07 0)
(0.11448336 7.2821825e-07 0)
(0.11355448 6.8809517e-07 0)
(0.11266233 6.50983e-07 0)
(0.11180406 6.1684504e-07 0)
(0.1109766 5.8536045e-07 0)
(0.11017772 5.5607701e-07 0)
(0.10940537 5.2891669e-07 0)
(0.10865733 5.0377389e-07 0)
(0.10793166 4.802912e-07 0)
(0.10722698 4.5823081e-07 0)
(0.10654193 4.3760041e-07 0)
(0.10587494 4.1828634e-07 0)
(0.10522484 4.0004129e-07 0)
(0.10459074 3.8277386e-07 0)
(0.10397162 3.6652366e-07 0)
(0.10336636 3.5122738e-07 0)
(0.10277405 3.3671427e-07 0)
(0.10219403 3.228996e-07 0)
(0.1016256 3.0981531e-07 0)
(0.10106789 2.9745455e-07 0)
(0.10052014 2.8568149e-07 0)
(0.099981889 2.7439861e-07 0)
(0.099452668 2.6364343e-07 0)
(0.098931815 2.5343679e-07 0)
(0.098418694 2.4370078e-07 0)
(0.097912878 2.3435357e-07 0)
(0.097414006 2.2538308e-07 0)
(0.096921649 2.1681067e-07 0)
(0.096435287 2.0864015e-07 0)
(0.095954405 2.0079722e-07 0)
(0.095478757 1.9322406e-07 0)
(0.095008048 1.8594508e-07 0)
(0.094541867 1.7897274e-07 0)
(0.094079796 1.7228937e-07 0)
(0.093621452 1.6584427e-07 0)
(0.093166627 1.5960556e-07 0)
(0.092715065 1.535942e-07 0)
(0.092266397 1.4782125e-07 0)
(0.091820243 1.4226127e-07 0)
(0.091376326 1.3687868e-07 0)
(0.090934436 1.3166327e-07 0)
(0.090494318 1.2662883e-07 0)
(0.090055621 1.2178206e-07 0)
(0.089617984 1.17094e-07 0)
(0.089181205 1.1253968e-07 0)
(0.088745059 1.0812678e-07 0)
(0.088309238 1.0386261e-07 0)
(0.087873404 9.9741923e-08 0)
(0.08743723 9.5743588e-08 0)
(0.0870005 9.185365e-08 0)
(0.086562961 8.8082958e-08 0)
(0.086124243 8.4437003e-08 0)
(0.085683971 8.0898402e-08 0)
(0.085241883 7.7452938e-08 0)
(0.084797697 7.4107074e-08 0)
(0.084351014 7.086573e-08 0)
(0.083901419 6.7718156e-08 0)
(0.083448563 6.4653532e-08 0)
(0.082992097 6.1674392e-08 0)
(0.082531556 5.8784391e-08 0)
(0.082066442 5.5975252e-08 0)
(0.081596319 5.3239087e-08 0)
(0.081120715 5.058156e-08 0)
(0.080638981 4.799623e-08 0)
(0.080150652 4.5501366e-08 0)
(0.079665656 4.3156821e-08 0)
(0.079199168 4.0996641e-08 0)
(0.07875534 3.9014085e-08 0)
(0.078332371 3.7187993e-08 0)
(0.077928657 3.5505102e-08 0)
(0.07754268 3.3954561e-08 0)
(0.077173069 3.2521535e-08 0)
(0.076818629 3.1192314e-08 0)
(0.076478288 2.9957745e-08 0)
(0.076151048 2.8811031e-08 0)
(0.075835982 2.7745047e-08 0)
(0.07553225 2.6751955e-08 0)
(0.075239095 2.5825203e-08 0)
(0.074955817 2.496364e-08 0)
(0.074681684 2.4161831e-08 0)
(0.074416115 2.3433524e-08 0)
(0.074158064 2.2748039e-08 0)
(0.07390764 2.2212366e-08 0)
(0.073661385 2.1611214e-08 0)
(0.073424267 2.1589599e-08 0)
(0.073178276 2.0576751e-08 0)
(0.072963698 2.5248184e-08 0)
(0.072612411 1.5727683e-08 0)
(1 3.4655563e-09 0)
(0.99997225 1.0528082e-08 0)
(0.99992224 1.6355358e-08 0)
(0.99986414 2.123389e-08 0)
(0.99979831 2.7112056e-08 0)
(0.99972454 3.4232857e-08 0)
(0.99964278 4.2885351e-08 0)
(0.99955258 5.354542e-08 0)
(0.99945317 6.6788619e-08 0)
(0.99934356 8.3323004e-08 0)
(0.99922244 1.0405639e-07 0)
(0.99908822 1.3022429e-07 0)
(0.99893873 1.6343898e-07 0)
(0.99877129 2.0621919e-07 0)
(0.99858172 2.6146043e-07 0)
(0.99836552 3.3607615e-07 0)
(0.99811209 4.3317832e-07 0)
(0.99781667 5.8384024e-07 0)
(0.99743791 7.6293162e-07 0)
(0.9970031 1.1800524e-06 0)
(0.99627365 1.5326961e-06 0)
(0.99556733 4.1637407e-06 0)
(0.99259686 3.049283e-06 0)
(0.99289275 0.00098311514 0)
(0.28945772 0.0010267786 0)
(0.22177627 5.3928416e-05 0)
(0.20451017 1.8153628e-05 0)
(0.19430162 1.1836714e-05 0)
(0.18715695 8.7714192e-06 0)
(0.18145024 7.1655901e-06 0)
(0.17659904 6.0844726e-06 0)
(0.17240921 5.2234084e-06 0)
(0.16876019 4.5284449e-06 0)
(0.16554097 3.9753381e-06 0)
(0.16266398 3.5284835e-06 0)
(0.16006817 3.1556277e-06 0)
(0.15771242 2.839915e-06 0)
(0.15555909 2.5761288e-06 0)
(0.15357244 2.3535572e-06 0)
(0.15172974 2.1600207e-06 0)
(0.15001343 1.9914873e-06 0)
(0.14840595 1.844402e-06 0)
(0.14689439 1.7143079e-06 0)
(0.14546778 1.5986741e-06 0)
(0.14411665 1.4951909e-06 0)
(0.1428333 1.4021819e-06 0)
(0.14161057 1.3181367e-06 0)
(0.1404429 1.2415261e-06 0)
(0.13932543 1.1716782e-06 0)
(0.13825338 1.1075619e-06 0)
(0.13722345 1.048232e-06 0)
(0.13623236 9.9363908e-07 0)
(0.13527658 9.4327433e-07 0)
(0.13435354 8.9641143e-07 0)
(0.13346092 8.5293084e-07 0)
(0.13259616 8.1266992e-07 0)
(0.13175703 7.7505445e-07 0)
(0.13094197 7.3970302e-07 0)
(0.13014938 7.0663361e-07 0)
(0.12937749 6.7566675e-07 0)
(0.12862493 6.4640337e-07 0)
(0.1278907 6.1869738e-07 0)
(0.12717363 5.9261646e-07 0)
(0.12647242 5.680606e-07 0)
(0.12578603 5.4475397e-07 0)
(0.1251137 5.2256063e-07 0)
(0.12445464 5.0153498e-07 0)
(0.12380783 4.8166747e-07 0)
(0.1231724 4.6273856e-07 0)
(0.12254783 4.4459113e-07 0)
(0.12193358 4.2728745e-07 0)
(0.12132888 4.1086245e-07 0)
(0.120733 3.9519052e-07 0)
(0.12014544 3.8013936e-07 0)
(0.1195658 3.6568999e-07 0)
(0.11899358 3.5187842e-07 0)
(0.11842818 3.3871124e-07 0)
(0.11786899 3.2606823e-07 0)
(0.11731575 3.1385597e-07 0)
(0.11676811 3.0211469e-07 0)
(0.11622558 2.908653e-07 0)
(0.1156877 2.8007937e-07 0)
(0.11515401 2.6967477e-07 0)
(0.11462427 2.5960007e-07 0)
(0.11409819 2.4988987e-07 0)
(0.11357534 2.4056249e-07 0)
(0.11305527 2.3157673e-07 0)
(0.11253767 2.2287488e-07 0)
(0.11202229 2.1444068e-07 0)
(0.11150882 2.0629703e-07 0)
(0.11099687 1.9845491e-07 0)
(0.11048601 1.9086734e-07 0)
(0.109976 1.8349379e-07 0)
(0.10946658 1.7634709e-07 0)
(0.10895738 1.6943941e-07 0)
(0.10844802 1.6276226e-07 0)
(0.10793811 1.5628131e-07 0)
(0.10742739 1.49974e-07 0)
(0.10691556 1.4385826e-07 0)
(0.10640219 1.3794314e-07 0)
(0.10588684 1.3220035e-07 0)
(0.10536919 1.266068e-07 0)
(0.10484892 1.2117323e-07 0)
(0.10432554 1.1590782e-07 0)
(0.10379857 1.1079301e-07 0)
(0.1032676 1.0581124e-07 0)
(0.1027322 1.009668e-07 0)
(0.10219182 9.626579e-08 0)
(0.10164588 9.169467e-08 0)
(0.10109385 8.724063e-08 0)
(0.10053517 8.2913071e-08 0)
(0.099969068 7.8701448e-08 0)
(0.099394985 7.4635666e-08 0)
(0.098824591 7.0813764e-08 0)
(0.098275741 6.7291391e-08 0)
(0.097753345 6.4057429e-08 0)
(0.097255314 6.1077486e-08 0)
(0.096779785 5.8330289e-08 0)
(0.09632499 5.5798368e-08 0)
(0.095889334 5.3457592e-08 0)
(0.095471426 5.1285699e-08 0)
(0.095070016 4.9267899e-08 0)
(0.094683943 4.7393207e-08 0)
(0.094312127 4.5650063e-08 0)
(0.093953584 4.4025717e-08 0)
(0.093607434 4.2509535e-08 0)
(0.093272861 4.1099779e-08 0)
(0.092949005 3.9787589e-08 0)
(0.092635189 3.8595788e-08 0)
(0.092330181 3.7473739e-08 0)
(0.092034122 3.6598428e-08 0)
(0.091742906 3.5613777e-08 0)
(0.091462462 3.5586486e-08 0)
(0.091171364 3.3931238e-08 0)
(0.090917476 4.1636987e-08 -2.6953346e-22)
(0.090501764 2.5927164e-08 1.8357607e-23)
(1 4.3469829e-09 0)
(0.99997214 1.3214275e-08 0)
(0.99992181 2.0540146e-08 0)
(0.99986328 2.6673865e-08 0)
(0.99979693 3.4059516e-08 0)
(0.99972259 4.3003767e-08 0)
(0.9996402 5.3869609e-08 0)
(0.99954932 6.7253827e-08 0)
(0.9994492 8.3878086e-08 0)
(0.99933882 1.0463005e-07 0)
(0.9992169 1.3064761e-07 0)
(0.99908184 1.6347924e-07 0)
(0.99893146 2.0514527e-07 0)
(0.99876308 2.5880184e-07 0)
(0.99857253 3.2807638e-07 0)
(0.99835529 4.2163119e-07 0)
(0.99810075 5.4336158e-07 0)
(0.99780415 7.3219915e-07 0)
(0.99742408 9.5664136e-07 0)
(0.9969879 1.4792794e-06 0)
(0.99625669 1.9209543e-06 0)
(0.99554904 5.2168603e-06 0)
(0.9925746 3.8242146e-06 0)
(0.99286714 0.0011855235 0)
(0.33420867 0.001250682 0)
(0.25353871 8.157141e-05 0)
(0.23332604 2.683318e-05 0)
(0.22177766 1.7201919e-05 0)
(0.21378271 1.2693629e-05 0)
(0.20742912 1.0352738e-05 0)
(0.202042 8.7861232e-06 0)
(0.1973951 7.5426287e-06 0)
(0.19335086 6.5402094e-06 0)
(0.1897846 5.7428449e-06 0)
(0.18659835 5.0988252e-06 0)
(0.18372403 4.5613582e-06 0)
(0.18111602 4.1061107e-06 0)
(0.17873252 3.7257521e-06 0)
(0.17653366 3.4048399e-06 0)
(0.17449425 3.1257071e-06 0)
(0.17259485 2.8825965e-06 0)
(0.17081594 2.67042e-06 0)
(0.16914318 2.4827159e-06 0)
(0.16756445 2.3158469e-06 -3.6929806e-33)
(0.16606922 2.1664911e-06 0)
(0.16464897 2.0322329e-06 0)
(0.16329577 1.9108956e-06 0)
(0.16200345 1.800271e-06 0)
(0.16076663 1.6993998e-06 0)
(0.15958002 1.6067931e-06 0)
(0.15843994 1.5210798e-06 0)
(0.15734279 1.4421993e-06 0)
(0.15628464 1.3694183e-06 0)
(0.15526266 1.3016809e-06 0)
(0.15427428 1.2388201e-06 0)
(0.15331667 1.1806081e-06 0)
(0.15238735 1.1262104e-06 0)
(0.15148461 1.0750737e-06 0)
(0.15060669 1.0272314e-06 0)
(0.14975161 9.8242647e-07 0)
(0.14891786 9.4007695e-07 0)
(0.14810434 8.9997145e-07 0)
(0.14730975 8.6221312e-07 0)
(0.14653266 8.2665856e-07 0)
(0.14577191 7.9290522e-07 0)
(0.14502667 7.6075615e-07 0)
(0.14429605 7.3029421e-07 0)
(0.14357895 7.0150693e-07 0)
(0.14287437 6.7407396e-07 0)
(0.14218176 6.4776711e-07 0)
(0.14150052 6.2267916e-07 0)
(0.1408298 5.9886218e-07 0)
(0.14016877 5.7613329e-07 0)
(0.13951691 5.5429967e-07 0)
(0.13887376 5.3333445e-07 0)
(0.13823876 5.1329179e-07 0)
(0.13761125 4.9418156e-07 0)
(0.13699057 4.7582841e-07 0)
(0.1363764 4.5809649e-07 0)
(0.13576838 4.4104528e-07 0)
(0.13516597 4.2470605e-07 0)
(0.13456862 4.0903737e-07 0)
(0.13397586 3.9391938e-07 0)
(0.13338741 3.792775e-07 0)
(0.13280295 3.6516298e-07 0)
(0.13222199 3.5160282e-07 0)
(0.13164405 3.3853684e-07 0)
(0.13106876 3.2588083e-07 0)
(0.13049587 3.1361151e-07 0)
(0.12992502 3.0176288e-07 0)
(0.12935577 2.9035103e-07 0)
(0.12878765 2.7930724e-07 0)
(0.12822038 2.6857242e-07 0)
(0.12765369 2.5816582e-07 0)
(0.12708717 2.4810549e-07 0)
(0.12652036 2.3837891e-07 0)
(0.12595285 2.2893594e-07 0)
(0.12538434 2.1974389e-07 0)
(0.12481451 2.1082924e-07 0)
(0.12424286 2.0220528e-07 0)
(0.1236689 1.9383061e-07 0)
(0.12309229 1.8567151e-07 0)
(0.12251264 1.7774402e-07 0)
(0.12192942 1.7006024e-07 0)
(0.12134209 1.6259436e-07 0)
(0.12075017 1.5532072e-07 0)
(0.12015321 1.4824592e-07 0)
(0.11955057 1.4137892e-07 0)
(0.1189416 1.3469984e-07 0)
(0.1183257 1.2819e-07 0)
(0.11770225 1.2186336e-07 0)
(0.11707036 1.1570436e-07 0)
(0.11642942 1.0975685e-07 0)
(0.11579245 1.0416498e-07 0)
(0.11517939 9.9010374e-08 0)
(0.11459575 9.4276417e-08 0)
(0.1140392 8.9912849e-08 0)
(0.11350768 8.5889056e-08 0)
(0.11299923 8.2179684e-08 0)
(0.11251208 7.8749465e-08 0)
(0.11204469 7.5565928e-08 0)
(0.11159566 7.2607614e-08 0)
(0.11116372 6.9858551e-08 0)
(0.11074765 6.7301867e-08 0)
(0.11034637 6.4918946e-08 0)
(0.10995889 6.26943e-08 0)
(0.10958432 6.0625567e-08 0)
(0.10922169 5.869977e-08 0)
(0.10887024 5.695085e-08 0)
(0.10852861 5.5303839e-08 0)
(0.10819696 5.4021232e-08 0)
(0.10787067 5.2574956e-08 0)
(0.10755644 5.2546275e-08 0)
(0.10723011 5.010639e-08 0)
(0.10694557 6.1499124e-08 0)
(0.10647966 3.8278375e-08 -8.8111362e-24)
(1 5.2977589e-09 0)
(0.99997201 1.6116678e-08 0)
(0.9999213 2.5068572e-08 0)
(0.99986226 3.2564651e-08 0)
(0.99979531 4.1583707e-08 0)
(0.9997203 5.2502136e-08 0)
(0.99963717 6.5762935e-08 0)
(0.9995455 8.2093237e-08 0)
(0.99944454 1.0237217e-07 0)
(0.99933327 1.2768087e-07 0)
(0.99921041 1.5940498e-07 0)
(0.99907435 1.9942982e-07 0)
(0.99892293 2.5021482e-07 0)
(0.99875346 3.1560192e-07 0)
(0.99856176 4.0000555e-07 0)
(0.9983433 5.1396924e-07 0)
(0.99808746 6.6222891e-07 0)
(0.99778949 8.9216794e-07 0)
(0.99740789 1.1654214e-06 0)
(0.99697013 1.801566e-06 0)
(0.99623687 2.3389303e-06 0)
(0.99552767 6.349564e-06 0)
(0.99254872 4.6596358e-06 0)
(0.99283759 0.0013892976 0)
(0.37538116 0.0014820403 0)
(0.28221227 0.00011569614 0)
(0.25905872 3.7494083e-05 0)
(0.24622373 2.3627114e-05 0)
(0.23743857 1.7348581e-05 0)
(0.23049411 1.4119252e-05 0)
(0.22462259 1.1971902e-05 0)
(0.21956518 1.0274207e-05 0)
(0.2151676 8.9078498e-06 0)
(0.21129224 7.8218968e-06 0)
(0.20783139 6.9452373e-06 0)
(0.20471045 6.2136703e-06 0)
(0.20187963 5.5939431e-06 0)
(0.19929329 5.0762664e-06 0)
(0.19690781 4.6395909e-06 0)
(0.19469577 4.2597144e-06 0)
(0.19263598 3.9288604e-06 0)
(0.19070713 3.6401379e-06 0)
(0.18889362 3.3846995e-06 0)
(0.18718224 3.1576058e-06 3.3282158e-33)
(0.18556156 2.9543426e-06 0)
(0.18402229 2.771622e-06 0)
(0.18255578 2.6064808e-06 0)
(0.18115535 2.4559089e-06 0)
(0.17981513 2.3186127e-06 0)
(0.17852937 2.1925628e-06 0)
(0.17729408 2.0758823e-06 0)
(0.17610533 1.9684999e-06 0)
(0.17495885 1.8694178e-06 0)
(0.17385157 1.7771881e-06 0)
(0.17278072 1.6915897e-06 0)
(0.1717432 1.6123205e-06 0)
(0.17073633 1.5382375e-06 0)
(0.16975826 1.4685841e-06 0)
(0.16880708 1.4034148e-06 0)
(0.16788063 1.3423825e-06 0)
(0.16697729 1.2846874e-06 0)
(0.16609583 1.2300409e-06 0)
(0.16523489 1.1785899e-06 0)
(0.16439289 1.13014e-06 0)
(0.16356856 1.0841381e-06 0)
(0.16276101 1.0403154e-06 0)
(0.1619693 9.9878966e-07 0)
(0.1611922 9.5954531e-07 0)
(0.16042865 9.2214233e-07 0)
(0.15967805 8.8626897e-07 0)
(0.15893974 8.5205468e-07 0)
(0.1582128 8.1957184e-07 0)
(0.15749634 7.8856995e-07 0)
(0.15678979 7.587846e-07 0)
(0.15609264 7.3017993e-07 0)
(0.15540431 7.0283203e-07 0)
(0.15472406 6.7675447e-07 0)
(0.15405118 6.5170675e-07 0)
(0.15338533 6.2750322e-07 0)
(0.1527261 6.0422627e-07 0)
(0.15207293 5.8191952e-07 0)
(0.15142522 5.6052603e-07 0)
(0.15078244 5.3988143e-07 0)
(0.1501443 5.1988413e-07 0)
(0.14951045 5.0060521e-07 0)
(0.14888035 4.8208185e-07 0)
(0.14825349 4.642313e-07 0)
(0.14762948 4.4693816e-07 0)
(0.14700801 4.3017118e-07 0)
(0.14638872 4.1397755e-07 0)
(0.14577113 3.9837919e-07 0)
(0.14515471 3.8328172e-07 0)
(0.14453918 3.6860428e-07 0)
(0.14392423 3.5437383e-07 0)
(0.1433094 3.4061543e-07 0)
(0.14269422 3.2731159e-07 0)
(0.14207823 3.1439356e-07 0)
(0.14146111 3.0181695e-07 0)
(0.14084249 2.8961831e-07 0)
(0.14022185 2.7781587e-07 0)
(0.13959864 2.6635269e-07 0)
(0.13897249 2.5518266e-07 0)
(0.13834298 2.4432813e-07 0)
(0.13770953 2.3380579e-07 0)
(0.13707155 2.2358003e-07 0)
(0.13642853 2.1361571e-07 0)
(0.13577995 2.0392222e-07 0)
(0.13512513 1.9451192e-07 0)
(0.13446335 1.8535733e-07 0)
(0.13379397 1.7643292e-07 0)
(0.13311628 1.6775808e-07 0)
(0.13242936 1.5931122e-07 0)
(0.13173249 1.5115257e-07 0)
(0.13103986 1.4348083e-07 0)
(0.13037314 1.3640823e-07 0)
(0.12973831 1.2991136e-07 0)
(0.12913289 1.239213e-07 0)
(0.12855462 1.1839661e-07 0)
(0.12800139 1.1330276e-07 0)
(0.12747127 1.0859133e-07 0)
(0.1269626 1.0421789e-07 0)
(0.12647386 1.0015322e-07 0)
(0.12600367 9.6375476e-08 0)
(0.12555072 9.2861544e-08 0)
(0.12511382 8.9585919e-08 0)
(0.12469192 8.6527454e-08 0)
(0.12428403 8.3683114e-08 0)
(0.12388911 8.1035064e-08 0)
(0.12350634 7.8630511e-08 0)
(0.12313423 7.6365498e-08 0)
(0.12277297 7.4604455e-08 0)
(0.12241748 7.2614196e-08 0)
(0.12207516 7.2588655e-08 0)
(0.12171947 6.9222148e-08 -2.6100793e-23)
(0.12140947 8.4969691e-08 0)
(0.12090187 5.2870229e-08 0)
(1 6.3333488e-09 0)
(0.99997186 1.9284189e-08 0)
(0.99992073 3.0019351e-08 0)
(0.99986109 3.9010178e-08 0)
(0.99979344 4.981781e-08 0)
(0.99971764 6.2895928e-08 0)
(0.99963366 7.8774998e-08 0)
(0.99954106 9.8324062e-08 0)
(0.99943911 1.2259357e-07 0)
(0.9993268 1.5287509e-07 0)
(0.99920285 1.9082355e-07 0)
(0.99906564 2.386903e-07 0)
(0.99891301 2.9941166e-07 0)
(0.99874227 3.7757438e-07 0)
(0.99854923 4.7844702e-07 0)
(0.99832936 6.1461561e-07 0)
(0.99807202 7.917263e-07 0)
(0.99777246 1.0663372e-06 0)
(0.99738909 1.3926233e-06 0)
(0.9969495 2.152011e-06 0)
(0.99621388 2.7931738e-06 0)
(0.9955029 7.5792156e-06 0)
(0.99251888 5.5690102e-06 0)
(0.99280374 0.0015963592 -9.9874968e-54)
(0.41420518 0.0017234975 6.7404596e-54)
(0.30894289 0.00015834359 -6.7918646e-20)
(0.28278766 5.0498988e-05 0)
(0.26867166 3.1286509e-05 0)
(0.25912323 2.2846248e-05 0)
(0.25161687 1.8548287e-05 0)
(0.24528898 1.5709554e-05 0)
(0.23984692 1.3474965e-05 0)
(0.23511951 1.167985e-05 0)
(0.2309565 1.025454e-05 0)
(0.22724077 9.1046859e-06 0)
(0.2238914 8.1453559e-06 0)
(0.22085461 7.3326972e-06 0)
(0.21808112 6.6540549e-06 0)
(0.21552376 6.0817737e-06 0)
(0.21315293 5.5839164e-06 0)
(0.21094584 5.1503445e-06 0)
(0.20887948 4.772056e-06 0)
(0.20693704 4.4373825e-06 0)
(0.20510431 4.139857e-06 0)
(0.20336897 3.8735684e-06 0)