/*--------------------------------*- C++ -*----------------------------------*\
  =========                 |
  \\      /  F ield         | OpenFOAM: The Open Source CFD Toolbox
   \\    /   O peration     | Website:  https://openfoam.org
    \\  /    A nd           | Version:  12
     \\/     M anipulation  |
\*---------------------------------------------------------------------------*/
FoamFile
{
    format      ascii;
    class       volVectorField;
    location    "1000";
    object      U;
}
// * * * * * * * * * * * * * * * * * * * * * * * * * * * * * * * * * * * * * //

dimensions      [0 1 -1 0 0 0 0];

internalField   nonuniform List<vector> 
7480
(
(0.98703216 0.0006588534 8.6259554e-17)
(0.97577801 0.0015236256 0)
(0.96333484 0.0021460501 0)
(0.95014576 0.0025461341 0)
(0.93661334 0.0028141054 0)
(0.9230135 0.0029793486 0)
(0.9094473 0.0030595513 0)
(0.89595817 0.0030620965 0)
(0.88258646 0.0030228505 0)
(0.86936667 0.0029357871 0)
(0.85632663 0.0028153268 0)
(0.84348853 0.0026711815 0)
(0.83087693 0.0025095819 0)
(0.81851922 0.0023348138 0)
(0.80644799 0.0021500786 0)
(0.79470662 0.0019569314 0)
(0.78335892 0.0017556651 0)
(0.77249797 0.0015506271 0)
(0.76220217 0.001347602 0)
(0.75253962 0.0011490609 0)
(0.74357043 0.00095564431 0)
(0.73534488 0.00077021217 0)
(0.72789884 0.00059675817 0)
(0.72125662 0.00043969354 0)
(0.71541635 0.0003030131 0)
(0.71033548 0.000192878 0)
(0.7059348 0.00011413803 0)
(0.70210819 6.718026e-05 0)
(0.69872848 4.7949597e-05 0)
(0.69566501 4.9619107e-05 0)
(0.69280519 6.3558733e-05 0)
(0.69006724 8.1331525e-05 0)
(0.68740004 9.6937834e-05 0)
(0.6847761 0.0001071913 0)
(0.68218284 0.00011174607 0)
(0.679611 0.00011266792 0)
(0.6770486 0.00011254986 0)
(0.67448254 0.00011313128 0)
(0.6719026 0.00011485331 0)
(0.66930608 0.00011692312 0)
(0.6666993 0.00011840683 0)
(0.6640932 0.00011878397 0)
(0.66149841 0.00011792723 0)
(0.65892164 0.00011609866 0)
(0.65636601 0.0001136302 0)
(0.65383365 0.00011078686 0)
(0.65132689 0.00010771596 0)
(0.64884782 0.0001044891 0)
(0.64639812 0.00010113924 0)
(0.6439793 9.7721753e-05 0)
(0.64159214 9.4332452e-05 0)
(0.63923639 9.1023738e-05 0)
(0.63691161 8.7795448e-05 0)
(0.634618 8.4634777e-05 0)
(0.63235559 8.1568901e-05 0)
(0.63012372 7.8613172e-05 0)
(0.62792158 7.5759099e-05 0)
(0.62574884 7.3001292e-05 0)
(0.62360484 7.0353507e-05 0)
(0.62148885 6.7801373e-05 0)
(0.61940024 6.5339049e-05 0)
(0.6173384 6.2974871e-05 0)
(0.61530253 6.0704493e-05 0)
(0.61329197 5.851653e-05 0)
(0.61130621 5.6410217e-05 0)
(0.60934462 5.4384126e-05 0)
(0.60740662 5.2430654e-05 0)
(0.60549167 5.0551277e-05 0)
(0.60359916 4.8743818e-05 0)
(0.60172851 4.7002839e-05 0)
(0.59987917 4.5329057e-05 0)
(0.59805058 4.3718364e-05 0)
(0.59624217 4.2168507e-05 0)
(0.59445342 4.0677397e-05 0)
(0.59268382 3.9241703e-05 0)
(0.59093286 3.7860279e-05 0)
(0.58920005 3.6530288e-05 0)
(0.58748492 3.5249926e-05 0)
(0.585787 3.4017196e-05 0)
(0.58410585 3.2830178e-05 0)
(0.58244102 3.1687062e-05 0)
(0.58079209 3.058612e-05 0)
(0.57915865 2.9525728e-05 0)
(0.57754029 2.8504367e-05 0)
(0.5759366 2.7520606e-05 0)
(0.57434719 2.657316e-05 0)
(0.57277166 2.5660783e-05 0)
(0.57120959 2.4782593e-05 0)
(0.5696606 2.3937412e-05 0)
(0.56812411 2.312555e-05 0)
(0.56659989 2.2344931e-05 0)
(0.56508664 2.1600902e-05 0)
(0.56358521 2.0884026e-05 0)
(0.56209056 2.0225908e-05 0)
(0.56061052 1.956624e-05 0)
(0.55911988 1.9116381e-05 0)
(0.55766521 1.7931858e-05 -6.8407517e-21)
(0.55611166 3.1225293e-05 7.8363306e-20)
(0.55482795 1.8022044e-05 -2.4987389e-19)
(0.55241048 3.2953906e-05 -4.217512e-18)
(0.99607184 0.0023915368 0)
(0.99641618 0.0034428623 0)
(0.9966824 0.0037523232 0)
(0.99644058 0.003640581 0)
(0.99567083 0.0034691377 0)
(0.99442084 0.003281753 0)
(0.9926692 0.0030944718 0)
(0.99038207 0.0029255111 0)
(0.98754798 0.0027760951 0)
(0.98416829 0.0026492704 0)
(0.98024545 0.0025436363 0)
(0.97577989 0.0024538269 0)
(0.97077443 0.0023795387 0)
(0.96523321 0.0023145843 0)
(0.95915761 0.0022556386 0)
(0.95254942 0.0021996958 0)
(0.94540139 0.0021390231 0)
(0.93773173 0.0020612536 0)
(0.929615 0.0019667739 0)
(0.92111295 0.0018624252 0)
(0.91229787 0.0017495473 0)
(0.90325804 0.001628056 0)
(0.89410213 0.0014978648 0)
(0.88494363 0.0013591825 0)
(0.87591086 0.0012137994 0)
(0.86714203 0.0010624771 0)
(0.85879853 0.00091290874 0)
(0.85101126 0.00077527333 0)
(0.84385001 0.00065465596 0)
(0.83731667 0.00055616544 0)
(0.83135973 0.00048263784 0)
(0.82589403 0.0004332954 0)
(0.82081711 0.00040488978 0)
(0.81603433 0.00039155257 0)
(0.8114761 0.00038584114 0)
(0.80709796 0.00038153404 0)
(0.80287467 0.00037523803 0)
(0.79879277 0.00036586644 0)
(0.79484174 0.00035375653 0)
(0.79100973 0.0003397492 0)
(0.78728317 0.00032498877 0)
(0.78364745 0.00031062868 0)
(0.78008859 0.00029724351 0)
(0.77659621 0.00028489946 0)
(0.77316486 0.0002732696 0)
(0.76979329 0.00026209575 0)
(0.76648152 0.00025128869 0)
(0.76322832 0.00024084466 0)
(0.76003116 0.00023073142 0)
(0.75688794 0.00022095129 0)
(0.75379741 0.00021156875 0)
(0.75075846 0.00020257734 0)
(0.74776993 0.00019393357 0)
(0.74483094 0.00018561187 0)
(0.74194046 0.00017765708 0)
(0.73909705 0.00017006961 0)
(0.73629932 0.00016281307 0)
(0.73354632 0.00015586398 0)
(0.73083699 0.00014924874 0)
(0.72816979 0.0001429371 0)
(0.72554353 0.00013690331 0)
(0.72295721 0.00013115124 0)
(0.72040966 0.00012566487 0)
(0.71789979 0.00012042055 0)
(0.71542662 0.00011541466 0)
(0.71298907 0.00011063845 0)
(0.71058612 0.00010607213 0)
(0.70821685 0.00010171392 0)
(0.70588023 9.755366e-05 0)
(0.70357535 9.3576929e-05 0)
(0.7013013 8.9781235e-05 0)
(0.69905717 8.6154565e-05 0)
(0.69684209 8.2689563e-05 0)
(0.69465521 7.9378952e-05 0)
(0.69249572 7.6213521e-05 0)
(0.69036283 7.3188286e-05 0)
(0.68825575 7.0295138e-05 0)
(0.68617375 6.7528303e-05 0)
(0.6841161 6.4881651e-05 0)
(0.6820821 6.2349411e-05 0)
(0.68007107 5.9926164e-05 0)
(0.67808235 5.7606768e-05 0)
(0.6761153 5.5386406e-05 0)
(0.6741693 5.3260558e-05 0)
(0.67224373 5.1224995e-05 0)
(0.67033799 4.9275832e-05 0)
(0.66845149 4.7409412e-05 0)
(0.66658361 4.5622696e-05 0)
(0.66473379 4.3912538e-05 0)
(0.66290125 4.2277703e-05 0)
(0.66108559 4.0714794e-05 0)
(0.6592853 3.9228827e-05 0)
(0.65750107 3.7810202e-05 0)
(0.65572746 3.6494264e-05 0)
(0.65397252 3.5222525e-05 0)
(0.65220942 3.4207681e-05 0)
(0.65048721 3.3171298e-05 6.9026864e-21)
(0.64866177 3.4430077e-05 0)
(0.64713058 2.9890202e-05 0)
(0.64431645 3.8012412e-05 0)
(0.99634873 0.0021357196 0)
(0.99679648 0.0027552302 0)
(0.99736016 0.002952315 0)
(0.99778441 0.0030225711 0)
(0.99807875 0.0031154341 0)
(0.99832064 0.0032210552 0)
(0.99852576 0.0033192468 0)
(0.99868359 0.0034037535 0)
(0.99879012 0.0034745983 0)
(0.9988454 0.0035297581 0)
(0.99884443 0.0035666674 0)
(0.99877798 0.0035906049 0)
(0.99863466 0.003589459 0)
(0.99840062 0.0035778562 0)
(0.9980579 0.003549817 0)
(0.99758148 0.0035066801 0)
(0.99694231 0.0034477994 0)
(0.99607027 0.0033730675 0)
(0.99485862 0.003282866 0)
(0.99322389 0.0031769116 0)
(0.99108075 0.0030555038 0)
(0.98833812 0.0029199725 0)
(0.98489897 0.0027723736 0)
(0.98067182 0.0026160457 0)
(0.9755727 0.0024556123 0)
(0.96954395 0.0022975849 0)
(0.96254339 0.002132578 0)
(0.95469496 0.0019581184 0)
(0.94616974 0.0017880641 0)
(0.93721711 0.0016250974 0)
(0.92812425 0.0014691473 0)
(0.91917476 0.0013198689 0)
(0.91060865 0.0011761756 0)
(0.90261167 0.0010443711 0)
(0.89526737 0.00093266578 0)
(0.88854877 0.00084311285 0)
(0.88236755 0.00077565343 0)
(0.87661329 0.00072792658 0)
(0.87118189 0.00069531801 0)
(0.86599807 0.00067130254 0)
(0.86101761 0.00064977843 0)
(0.85621721 0.00062705843 0)
(0.85158322 0.00060227743 0)
(0.8471035 0.00057615535 0)
(0.84276498 0.00054960396 0)
(0.83855406 0.00052358615 0)
(0.83445745 0.00049884756 0)
(0.83046322 0.00047566996 0)
(0.82656218 0.00045381784 0)
(0.82274871 0.00043303478 0)
(0.8190192 0.00041328936 0)
(0.81536986 0.00039451719 0)
(0.81179646 0.00037662444 0)
(0.80829524 0.00035954726 0)
(0.80486313 0.00034331279 0)
(0.80149738 0.00032788096 0)
(0.79819546 0.00031317668 0)
(0.79495523 0.00029915403 0)
(0.79177456 0.00028583682 0)
(0.78865113 0.00027316662 0)
(0.78558297 0.00026109521 0)
(0.78256835 0.00024961502 0)
(0.77960542 0.00023869158 0)
(0.77669246 0.00022828029 0)
(0.77382792 0.00021836666 0)
(0.77101021 0.00020892944 0)
(0.76823782 0.00019993145 0)
(0.76550936 0.00019136238 0)
(0.76282342 0.00018320018 0)
(0.76017866 0.00017541698 0)
(0.75757382 0.0001680028 0)
(0.75500764 0.00016093428 0)
(0.75247893 0.00015419516 0)
(0.74998651 0.0001477695 0)
(0.74752928 0.00014163893 0)
(0.74510616 0.00013579151 0)
(0.74271608 0.00013021108 0)
(0.74035806 0.00012488506 0)
(0.7380311 0.00011980063 0)
(0.73573426 0.00011494573 0)
(0.73346664 0.00011030901 0)
(0.73122734 0.00010587972 0)
(0.7290155 0.00010164779 0)
(0.7268303 9.7603792e-05 0)
(0.72467093 9.3738889e-05 0)
(0.72253658 9.0044904e-05 0)
(0.72042649 8.6514271e-05 0)
(0.71833984 8.3140259e-05 0)
(0.7162759 7.9916804e-05 0)
(0.71423373 7.6839388e-05 0)
(0.71221274 7.3904205e-05 0)
(0.71021126 7.1111591e-05 0)
(0.70822982 6.8461664e-05 0)
(0.70626279 6.5972908e-05 0)
(0.70431805 6.3641438e-05 0)
(0.70236847 6.1613381e-05 0)
(0.70046323 5.9840724e-05 4.7991519e-21)
(0.69845522 5.8595327e-05 0)
(0.69675794 5.7915929e-05 0)
(0.69367542 6.0723031e-05 -2.8140895e-20)
(0.99647153 0.0020341562 0)
(0.99687105 0.0026534101 0)
(0.99739408 0.0029828978 0)
(0.99781262 0.003135226 0)
(0.9981172 0.0032289051 0)
(0.99837635 0.0032854982 0)
(0.99861116 0.0032969928 0)
(0.99881752 0.0032854009 0)
(0.99899925 0.0032593272 0)
(0.99916377 0.0032246618 0)
(0.99931363 0.0031846072 0)
(0.9994507 0.0031404958 0)
(0.99957585 0.0030975954 0)
(0.9996889 0.0030546083 0)
(0.99979033 0.0030120429 0)
(0.99987913 0.0029699973 0)
(0.99995344 0.0029277614 0)
(1.0000102 0.0028845762 0)
(1.0000439 0.0028403845 0)
(1.0000478 0.0027958593 0)
(1.0000137 0.0027516738 0)
(0.9999302 0.0027081185 0)
(0.99978194 0.0026655235 0)
(0.99954866 0.0026241813 0)
(0.99920226 0.002583617 0)
(0.99869956 0.002542756 0)
(0.99798028 0.0025005651 0)
(0.99687177 0.0024552789 0)
(0.9952203 0.0024025514 0)
(0.99286258 0.0023392144 0)
(0.98964296 0.0022644273 0)
(0.98543394 0.0021790696 0)
(0.9801675 0.0020883812 0)
(0.97383724 0.0019828019 0)
(0.96663657 0.0018590487 0)
(0.9588386 0.001729478 0)
(0.95075583 0.0015979495 0)
(0.9426971 0.0014669283 0)
(0.93491899 0.0013394566 0)
(0.92759919 0.0012233189 0)
(0.92079259 0.0011240658 0)
(0.91446049 0.0010423558 0)
(0.90851901 0.00097708812 0)
(0.90287812 0.00092531274 0)
(0.89747173 0.00088210472 0)
(0.89226228 0.00084280523 0)
(0.88723166 0.00080461433 0)
(0.88236879 0.00076695415 0)
(0.87766272 0.00072997091 0)
(0.87310135 0.00069413716 0)
(0.86867201 0.00066013666 0)
(0.86436262 0.00062821406 0)
(0.86016318 0.00059816813 0)
(0.85606662 0.00056974575 0)
(0.85206756 0.00054288515 0)
(0.8481609 0.00051747849 0)
(0.84434154 0.00049339242 0)
(0.84060507 0.00047053377 0)
(0.83694759 0.0004488965 0)
(0.83336559 0.0004283707 0)
(0.82985597 0.00040886875 0)
(0.82641583 0.0003903644 0)
(0.82304228 0.0003727974 0)
(0.81973271 0.00035609356 0)
(0.81648482 0.00034021946 0)
(0.8132963 0.00032513541 0)
(0.81016499 0.00031078174 0)
(0.80708894 0.00029713403 0)
(0.80406618 0.00028415406 0)
(0.8010949 0.00027179692 0)
(0.79817339 0.00026004128 0)
(0.79529996 0.00024884961 0)
(0.79247304 0.00023819383 0)
(0.78969108 0.00022804675 0)
(0.78695263 0.0002183786 0)
(0.78425628 0.0002091682 0)
(0.78160066 0.00020038944 0)
(0.77898449 0.00019202103 0)
(0.7764065 0.00018404177 0)
(0.77386547 0.00017643169 0)
(0.77136024 0.00016917204 0)
(0.76888968 0.00016224509 0)
(0.7664527 0.00015563425 0)
(0.76404823 0.00014932395 0)
(0.76167526 0.00014329965 0)
(0.75933277 0.00013754784 0)
(0.75701979 0.00013205611 0)
(0.75473533 0.00012681309 0)
(0.75247846 0.00012180917 0)
(0.75024807 0.00011703542 0)
(0.74804338 0.00011248801 0)
(0.74586257 0.0001081597 0)
(0.74370598 0.00010406572 0)
(0.74156788 0.00010019416 0)
(0.7394558 9.6628513e-05 0)
(0.73734286 9.337115e-05 0)
(0.73527749 9.0818869e-05 3.8465311e-21)
(0.73311176 8.8130389e-05 0)
(0.7312716 9.1374078e-05 0)
(0.72795759 8.6971316e-05 2.2738902e-20)
(0.99661591 0.0019738917 0)
(0.99694405 0.0025520284 0)
(0.99739977 0.00287795 0)
(0.99778417 0.0030228218 0)
(0.9980796 0.0031085618 0)
(0.99833762 0.003167402 0)
(0.99857483 0.0032023249 0)
(0.99878707 0.0032206305 0)
(0.99897697 0.0032300918 0)
(0.99915111 0.0032335389 0)
(0.99931301 0.003231068 0)
(0.99946378 0.0032242625 0)
(0.99960433 0.0032117247 0)
(0.99973561 0.0031942036 0)
(0.99985906 0.003171338 0)
(0.99997536 0.0031428079 0)
(1.0000848 0.0031079879 0)
(1.0001867 0.0030661215 0)
(1.0002796 0.0030173058 0)
(1.000362 0.0029622129 0)
(1.0004331 0.0029016668 0)
(1.0004916 0.0028369982 0)
(1.0005351 0.0027693015 0)
(1.0005615 0.0026998516 0)
(1.0005686 0.0026309096 0)
(1.0005543 0.0025651873 0)
(1.0005171 0.0025050475 0)
(1.0004513 0.0024522805 0)
(1.000348 0.0024087355 0)
(1.0001939 0.0023751033 0)
(0.99996881 0.0023503123 0)
(0.99964127 0.0023318276 0)
(0.99915878 0.0023141403 0)
(0.99843974 0.0022932789 0)
(0.99728483 0.0022655857 0)
(0.99550374 0.00222593 0)
(0.99291865 0.0021723846 0)
(0.98938392 0.0021066228 0)
(0.98481665 0.0020296959 0)
(0.97924694 0.001934836 0)
(0.97288506 0.0018244674 0)
(0.96600765 0.0017080091 0)
(0.95891754 0.0015891937 0)
(0.95188862 0.0014718269 0)
(0.94512384 0.0013630992 0)
(0.93870663 0.0012673327 0)
(0.93263248 0.0011850735 0)
(0.92684883 0.0011157501 0)
(0.92129775 0.001056776 0)
(0.91593924 0.001004282 0)
(0.91075254 0.0009553436 0)
(0.90572713 0.00090870759 0)
(0.90085465 0.00086391462 0)
(0.89612582 0.00082101456 0)
(0.8915302 0.00078042177 0)
(0.88705732 0.00074225017 0)
(0.88269839 0.00070629572 0)
(0.87844679 0.00067234068 0)
(0.87429702 0.00064031397 0)
(0.8702438 0.00061003928 0)
(0.86628226 0.00058138003 0)
(0.86240798 0.00055427256 0)
(0.85861689 0.00052860865 0)
(0.85490538 0.00050426967 0)
(0.85127015 0.00048119332 0)
(0.84770801 0.00045931172 0)
(0.84421604 0.00043853335 0)
(0.84079157 0.00041881171 0)
(0.83743202 0.00040008608 0)
(0.83413501 0.00038228889 0)
(0.83089829 0.00036538221 0)
(0.82771969 0.00034931 0)
(0.8245972 0.00033402835 0)
(0.82152886 0.00031949526 0)
(0.81851283 0.00030566643 0)
(0.81554734 0.0002925084 0)
(0.81263068 0.00027998253 0)
(0.80976124 0.00026805635 0)
(0.80693746 0.00025669801 0)
(0.80415783 0.00024587761 0)
(0.8014209 0.00023556705 0)
(0.7987253 0.00022573988 0)
(0.79606967 0.00021637134 0)
(0.79345272 0.00020743821 0)
(0.79087319 0.00019891885 0)
(0.78832986 0.00019079309 0)
(0.78582155 0.00018304248 0)
(0.78334705 0.00017564986 0)
(0.78090526 0.00016860109 0)
(0.77849486 0.00016188173 0)
(0.77611491 0.00015548742 0)
(0.77376342 0.00014940168 0)
(0.77144051 0.00014365639 0)
(0.76914042 0.00013820339 0)
(0.76687025 0.00013322639 0)
(0.76460354 0.00012854892 0)
(0.76238779 0.00012514286 3.3241286e-21)
(0.76007466 0.00012053452 3.7856169e-20)
(0.7581021 0.00012874941 0)
(0.75457352 0.00011477684 0)
(0.99675867 0.0019252656 0)
(0.99702602 0.002449499 0)
(0.99741859 0.0027698699 0)
(0.99777175 0.0029331287 0)
(0.99805835 0.0030374033 0)
(0.99831241 0.0031123724 0)
(0.99854658 0.0031583061 0)
(0.99875747 0.0031831224 0)
(0.99894739 0.0031948969 0)
(0.99912185 0.0031968789 0)
(0.99928406 0.0031907906 0)
(0.99943579 0.0031782466 0)
(0.99957827 0.0031592317 0)
(0.99971253 0.0031356193 0)
(0.99983992 0.0031073452 0)
(0.99996104 0.0030743885 0)
(1.0000761 0.0030364798 0)
(1.0001848 0.0029931887 0)
(1.000286 0.0029448291 0)
(1.000379 0.0028922326 0)
(1.0004629 0.0028361313 0)
(1.0005368 0.002777326 0)
(1.0006005 0.0027169108 0)
(1.0006534 0.0026563606 0)
(1.000695 0.002597327 0)
(1.0007257 0.0025422862 0)
(1.0007464 0.0024924474 0)
(1.0007575 0.0024481506 0)
(1.0007598 0.0024102454 0)
(1.0007538 0.0023781668 0)
(1.0007391 0.002350459 0)
(1.0007134 0.0023253614 0)
(1.000673 0.0023024856 0)
(1.0006128 0.0022817625 0)
(1.0005211 0.00226292 0)
(1.0003786 0.0022464464 0)
(1.0001603 0.002232445 0)
(0.99982802 0.0022196211 0)
(0.9993235 0.0022046154 0)
(0.99852895 0.0021847364 0)
(0.99724831 0.0021564315 0)
(0.99529636 0.0021158391 0)
(0.99250934 0.0020627971 0)
(0.98877603 0.001997056 0)
(0.9840948 0.0019134762 0)
(0.97863697 0.0018154134 0)
(0.97264132 0.0017111091 0)
(0.96637976 0.0016035965 0)
(0.96010408 0.0014989348 0)
(0.95398091 0.0014027505 0)
(0.94807905 0.0013161318 0)
(0.9423979 0.0012398583 0)
(0.93690819 0.0011729697 0)
(0.93158267 0.00111289 0)
(0.92640618 0.0010573228 0)
(0.92137186 0.0010049777 0)
(0.91647504 0.00095519583 0)
(0.91170981 0.00090786187 0)
(0.9070686 0.00086317889 0)
(0.9025436 0.00082106752 0)
(0.89812841 0.00078133149 0)
(0.89381781 0.00074384166 0)
(0.88960698 0.00070843216 0)
(0.88549132 0.00067493698 0)
(0.88146654 0.00064325606 0)
(0.87752864 0.00061327985 0)
(0.87367401 0.00058487344 0)
(0.86989931 0.0005579602 0)
(0.86620135 0.00053244955 0)
(0.86257719 0.00050824391 0)
(0.85902405 0.0004852824 0)
(0.85553931 0.00046348516 0)
(0.85212048 0.00044278775 0)
(0.84876522 0.00042312916 0)
(0.84547129 0.00040444675 0)
(0.84223656 0.00038669147 0)
(0.83905899 0.00036980908 0)
(0.83593663 0.00035375311 0)
(0.83286762 0.00033847857 0)
(0.82985016 0.00032394326 0)
(0.82688253 0.0003101076 0)
(0.82396308 0.00029693443 0)
(0.82109022 0.00028438898 0)
(0.8182624 0.00027243868 0)
(0.81547814 0.00026105322 0)
(0.81273599 0.00025020429 0)
(0.81003455 0.00023986606 0)
(0.80737243 0.00023001429 0)
(0.80474829 0.00022062919 0)
(0.80216067 0.00021168964 0)
(0.79960841 0.00020318995 0)
(0.79708938 0.00019510308 0)
(0.79460347 0.00018747779 0)
(0.79214488 0.00018022644 0)
(0.78972032 0.0001736392 0)
(0.7873037 0.00016734135 0)
(0.78494171 0.00016295033 0)
(0.78248537 0.00015590966 0)
(0.78038533 0.00017010347 5.4742429e-20)
(0.77664974 0.00014458917 0)
(0.99689561 0.0018845111 0)
(0.99711794 0.0023588232 0)
(0.99745516 0.0026712913 0)
(0.99777662 0.0028489653 0)
(0.99805073 0.0029660809 0)
(0.99829789 0.0030497064 0)
(0.99852712 0.0031025915 0)
(0.99873543 0.0031332338 0)
(0.99892433 0.003149751 0)
(0.99909841 0.0031560606 0)
(0.99926049 0.0031538825 0)
(0.99941232 0.003145054 0)
(0.99955516 0.003130043 0)
(0.99969006 0.003110253 0)
(0.99981824 0.0030856536 0)
(0.99994031 0.0030561842 0)
(1.0000565 0.0030215957 0)
(1.0001664 0.0029815288 0)
(1.0002693 0.0029362013 0)
(1.0003645 0.0028862952 0)
(1.0004514 0.0028325331 0)
(1.0005296 0.0027758041 0)
(1.0005984 0.0027171825 0)
(1.0006577 0.0026580204 0)
(1.0007072 0.0026000437 0)
(1.0007473 0.0025451983 0)
(1.0007795 0.0024946248 0)
(1.0008051 0.0024492545 0)
(1.0008255 0.0024100626 0)
(1.0008425 0.0023769345 0)
(1.0008571 0.0023489051 0)
(1.0008696 0.0023247922 0)
(1.0008797 0.0023040207 0)
(1.0008867 0.0022854077 0)
(1.0008888 0.0022680144 0)
(1.0008837 0.00225181 0)
(1.0008684 0.0022362353 0)
(1.0008388 0.0022206994 0)
(1.0007893 0.0022052527 0)
(1.0007111 0.0021898353 0)
(1.0005855 0.0021742689 0)
(1.0003862 0.0021587956 0)
(1.0000749 0.002143017 0)
(0.99959463 0.0021252502 0)
(0.99883148 0.0021037974 0)
(0.99760373 0.0020754766 0)
(0.99573708 0.0020366091 0)
(0.9930816 0.0019877361 0)
(0.9895318 0.001922852 0)
(0.98515623 0.0018407961 0)
(0.98011475 0.0017503149 0)
(0.97463409 0.0016545433 0)
(0.96895775 0.0015587674 0)
(0.96327584 0.0014679836 0)
(0.95769438 0.0013837065 0)
(0.95224844 0.0013072508 0)
(0.94693624 0.0012383653 0)
(0.94174794 0.0011754984 0)
(0.93667841 0.0011170758 0)
(0.93172695 0.00106201 0)
(0.92689312 0.0010097583 0)
(0.92217418 0.00096028394 0)
(0.91756549 0.00091354982 0)
(0.91306235 0.00086940258 0)
(0.90866073 0.00082770185 0)
(0.90435691 0.00078829454 0)
(0.9001472 0.00075100653 0)
(0.89602805 0.00071573054 0)
(0.89199599 0.00068234058 0)
(0.88804784 0.000650703 0)
(0.88418056 0.00062072923 0)
(0.88039122 0.00059231105 0)
(0.87667706 0.00056535879 0)
(0.87303543 0.00053978806 0)
(0.86946382 0.00051551411 0)
(0.86595981 0.00049246887 0)
(0.8625211 0.0004705794 0)
(0.85914547 0.0004497824 0)
(0.85583079 0.00043001713 0)
(0.85257503 0.00041122675 0)
(0.84937623 0.00039335799 0)
(0.84623248 0.00037636093 0)
(0.84314197 0.00036018892 0)
(0.84010294 0.00034479829 0)
(0.83711368 0.00033014839 0)
(0.83417253 0.00031620126 0)
(0.83127789 0.00030292224 0)
(0.82842818 0.00029027872 0)
(0.82562187 0.000278244 0)
(0.8228573 0.00026678915 0)
(0.82013313 0.00025590614 0)
(0.81744709 0.00024555624 0)
(0.81479887 0.00023580471 0)
(0.81218259 0.00022652233 0)
(0.8096046 0.00021810945 0)
(0.80703913 0.00020997879 0)
(0.80453226 0.00020444632 0)
(0.80193395 0.00019460192 0)
(0.79970842 0.00021559827 5.1263479e-20)
(0.79576864 0.00017678719 0)
(0.99703142 0.0018508339 0)
(0.99721787 0.0022805176 0)
(0.99750722 0.0025818883 0)
(0.99779714 0.0027677187 0)
(0.99805574 0.0028939666 0)
(0.99829353 0.0029849957 0)
(0.9985162 0.0030452092 0)
(0.99872074 0.0030825111 0)
(0.99890772 0.0031046451 0)
(0.99908073 0.0031156555 0)
(0.99924221 0.0031175306 0)
(0.99939371 0.0031121252 0)
(0.99953644 0.00310015 0)
(0.99967138 0.0030828219 0)
(0.99979965 0.0030603466 0)
(0.99992183 0.0030327504 0)
(1.0000381 0.0029999023 0)
(1.0001483 0.0029615667 0)
(1.0002516 0.0029179685 0)
(1.0003475 0.0028697699 0)
(1.0004354 0.0028177196 0)
(1.0005149 0.0027627061 0)
(1.0005857 0.0027057764 0)
(1.0006473 0.0026482436 0)
(1.0006998 0.0025917357 0)
(1.0007438 0.0025381651 0)
(1.0007805 0.002488807 0)
(1.0008113 0.002444562 0)
(1.0008378 0.0024063065 0)
(1.0008617 0.0023738861 0)
(1.0008846 0.0023464192 0)
(1.0009071 0.0023228058 0)
(1.0009292 0.0023022326 0)
(1.0009511 0.0022835646 0)
(1.0009719 0.0022661118 0)
(1.000991 0.0022498826 0)
(1.0010079 0.0022344888 0)
(1.0010217 0.0022197199 0)
(1.0010313 0.0022054993 0)
(1.0010355 0.0021912606 0)
(1.0010313 0.0021767163 0)
(1.0010148 0.0021619691 0)
(1.0009811 0.0021469336 0)
(1.0009235 0.0021317499 0)
(1.0008311 0.0021162513 0)
(1.0006817 0.0021001073 0)
(1.0004446 0.0020833975 0)
(1.0000728 0.0020652083 0)
(0.99949922 0.002045102 0)
(0.99856622 0.0020211292 0)
(0.99711258 0.001989101 0)
(0.9949837 0.0019481651 0)
(0.99205146 0.0018928451 0)
(0.9883303 0.0018216975 0)
(0.98392927 0.0017415226 0)
(0.97903561 0.0016555927 0)
(0.97386858 0.0015687415 0)
(0.96860749 0.001484729 0)
(0.96336401 0.0014053128 0)
(0.9581874 0.001331848 0)
(0.95309229 0.0012642541 0)
(0.94808293 0.0012016267 0)
(0.94316392 0.0011428944 0)
(0.93834035 0.0010873001 0)
(0.93361495 0.0010345844 0)
(0.9289874 0.00098466471 0)
(0.92445595 0.00093741239 0)
(0.92001866 0.00089271188 0)
(0.91567344 0.00085041025 0)
(0.91141797 0.00081034887 0)
(0.90724979 0.00077241819 0)
(0.90316632 0.0007364826 0)
(0.89916504 0.00070242673 0)
(0.89524344 0.00067014167 0)
(0.89139905 0.00063951888 0)
(0.88762948 0.00061046908 0)
(0.88393235 0.00058289827 0)
(0.88030538 0.00055672419 0)
(0.87674633 0.00053186827 0)
(0.87325304 0.00050825699 0)
(0.86982341 0.00048582154 0)
(0.86645539 0.00046449746 0)
(0.86314701 0.0004442245 0)
(0.85989635 0.00042494628 0)
(0.85670153 0.00040661028 0)
(0.85356073 0.00038916743 0)
(0.85047219 0.00037257286 0)
(0.84743414 0.0003567843 0)
(0.84444491 0.00034176693 0)
(0.84150267 0.00032748285 0)
(0.83860592 0.00031392064 0)
(0.83575224 0.00030102885 0)
(0.83294112 0.0002888886 0)
(0.83016666 0.00027732749 0)
(0.82743485 0.00026685847 0)
(0.82472019 0.00025666982 0)
(0.8220683 0.0002498256 0)
(0.81932774 0.00023682421 -1.5422066e-20)
(0.8169771 0.00026538327 0)
(0.81283343 0.00021158253 -8.19758e-21)
(0.99716519 0.0018222793 0)
(0.99732237 0.0022120358 0)
(0.99757083 0.0025004498 0)
(0.99783095 0.0026903936 0)
(0.99807254 0.0028234474 0)
(0.99829912 0.0029208408 0)
(0.99851364 0.0029877095 0)
(0.99871299 0.0030312205 0)
(0.99889689 0.003058666 0)
(0.99906797 0.0030741594 0)
(0.99922822 0.0030798819 0)
(0.99937892 0.0030777298 0)
(0.99952115 0.0030686362 0)
(0.9996558 0.0030537575 0)
(0.99978386 0.0030334704 0)
(0.99990588 0.0030078766 0)
(1.000022 0.0029769382 0)
(1.0001321 0.0029405251 0)
(1.0002355 0.0028988771 0)
(1.0003316 0.0028526307 0)
(1.0004199 0.0028025271 0)
(1.0005001 0.0027494355 0)
(1.0005718 0.0026943873 0)
(1.0006347 0.0026386663 0)
(1.0006889 0.0025838356 0)
(1.0007349 0.00253171 0)
(1.0007741 0.0024835561 0)
(1.0008076 0.002440232 0)
(1.0008371 0.0024025501 0)
(1.0008643 0.0023704536 0)
(1.0008908 0.0023431555 0)
(1.0009172 0.0023196001 0)
(1.000944 0.0022990109 0)
(1.0009711 0.0022804075 0)
(1.0009982 0.0022631305 0)
(1.0010249 0.0022471309 0)
(1.0010512 0.0022320845 0)
(1.0010767 0.0022177303 0)
(1.0011011 0.0022038425 0)
(1.001124 0.0021899031 0)
(1.0011444 0.0021757116 0)
(1.0011613 0.0021613707 0)
(1.0011735 0.0021468811 0)
(1.0011795 0.0021323603 0)
(1.0011777 0.002117608 0)
(1.0011645 0.0021026033 0)
(1.0011349 0.0020874924 0)
(1.0010821 0.0020724795 0)
(1.0009977 0.0020573824 0)
(1.0008622 0.0020415465 0)
(1.0006462 0.0020247855 0)
(1.0003062 0.0020065559 0)
(0.99978104 0.0019867709 0)
(0.99893332 0.0019638599 0)
(0.99761473 0.0019342971 0)
(0.99567585 0.0018958864 0)
(0.99299942 0.0018439363 0)
(0.9895904 0.0017786448 0)
(0.98553908 0.0017049586 0)
(0.9810145 0.001626474 0)
(0.97620975 0.0015471949 0)
(0.97128172 0.0014694731 0)
(0.96632836 0.0013953734 0)
(0.96139788 0.0013259533 0)
(0.95651194 0.0012612012 0)
(0.95168396 0.0012003985 0)
(0.94692526 0.0011428411 0)
(0.94224408 0.0010882018 0)
(0.93764468 0.0010363361 0)
(0.93312884 0.00098713205 0)
(0.92869716 0.00094049501 0)
(0.92434952 0.00089627969 0)
(0.92008518 0.00085436189 0)
(0.91590293 0.00081462061 0)
(0.91180127 0.00077692998 0)
(0.9077785 0.00074118335 0)
(0.90383279 0.00070726793 0)
(0.89996224 0.00067508345 0)
(0.89616487 0.00064453347 0)
(0.89243871 0.00061552736 0)
(0.88878176 0.00058798005 0)
(0.88519205 0.00056181168 0)
(0.8816676 0.00053694742 0)
(0.87820647 0.00051331715 0)
(0.87480674 0.00049085539 0)
(0.87146654 0.00046950089 0)
(0.868184 0.0004491975 0)
(0.86495728 0.00042989218 0)
(0.86178457 0.00041154094 0)
(0.85866396 0.00039409594 0)
(0.85559381 0.00037754138 0)
(0.8525716 0.00036181219 0)
(0.84959667 0.00034700455 0)
(0.84666306 0.00033290172 0)
(0.84377649 0.00032013089 0)
(0.84091167 0.00030764555 0)
(0.83811394 0.00029930571 1.3429242e-21)
(0.83523011 0.00028277883 0)
(0.83275387 0.00031964728 4.8408302e-20)
(0.82840522 0.00024916489 0)
(0.9972936 0.0017973942 0)
(0.99742744 0.0021516359 0)
(0.99764159 0.0024261946 0)
(0.99787467 0.0026174254 0)
(0.99809915 0.002755321 0)
(0.99831362 0.0028578387 0)
(0.99851891 0.0029303962 0)
(0.99871187 0.0029794854 0)
(0.9988916 0.0030118803 0)
(0.99905985 0.0030316759 0)
(0.99921815 0.0030411698 0)
(0.99936751 0.0030422827 0)
(0.99950881 0.0030361142 0)
(0.99964283 0.0030237855 0)
(0.9997704 0.0030057874 0)
(0.99989201 0.0029822984 0)
(1.0000078 0.0029533643 0)
(1.0001176 0.0029189494 0)
(1.0002209 0.002879313 0)
(1.000317 0.002835067 0)
(1.0004055 0.0027869416 0)
(1.0004862 0.0027357922 0)
(1.0005585 0.0026826364 0)
(1.0006223 0.0026287255 0)
(1.0006777 0.0025755596 0)
(1.0007252 0.0025248487 0)
(1.0007659 0.0024778425 0)
(1.0008013 0.0024353969 0)
(1.0008327 0.0023982842 0)
(1.0008619 0.0023665056 0)
(1.0008904 0.0023393627 0)
(1.000919 0.0023158855 0)
(1.0009479 0.0022953357 0)
(1.0009775 0.0022768092 0)
(1.0010075 0.0022596557 0)
(1.0010375 0.0022437744 0)
(1.0010676 0.0022288564 0)
(1.0010977 0.0022146203 0)
(1.0011277 0.0022008418 0)
(1.0011572 0.0021870779 0)
(1.0011859 0.0021731383 0)
(1.0012131 0.00215911 0)
(1.0012384 0.0021450347 0)
(1.0012615 0.0021309726 0)
(1.0012817 0.0021167361 0)
(1.001298 0.0021023206 0)
(1.0013093 0.0020878511 0)
(1.0013139 0.002073488 0)
(1.0013102 0.0020589521 0)
(1.0012947 0.0020440827 0)
(1.0012624 0.0020291762 0)
(1.0012056 0.0020144155 0)
(1.0011153 0.001999599 0)
(1.0009714 0.001984063 0)
(1.000743 0.0019674351 0)
(1.0003857 0.0019493087 0)
(0.99982771 0.0019294564 0)
(0.99893896 0.0019061012 0)
(0.99758033 0.0018765833 0)
(0.99560814 0.0018367698 0)
(0.99294606 0.0017841276 0)
(0.98960682 0.001721448 0)
(0.98569193 0.0016519198 0)
(0.9813661 0.0015789892 0)
(0.97679591 0.0015052726 0)
(0.97210853 0.001433072 0)
(0.96738055 0.0013640863 0)
(0.96265251 0.0012990074 0)
(0.95794876 0.0012375568 0)
(0.95328757 0.0011792303 0)
(0.94868241 0.0011237432 0)
(0.94414191 0.00107094 0)
(0.93967129 0.0010207406 0)
(0.93527377 0.00097305152 0)
(0.93095127 0.00092775543 0)
(0.92670467 0.00088474989 0)
(0.92253407 0.00084391948 0)
(0.91843903 0.00080515672 0)
(0.91441872 0.00076835441 0)
(0.91047202 0.00073340964 0)
(0.9065976 0.00070022412 0)
(0.90279398 0.00066870433 0)
(0.89905956 0.00063876195 0)
(0.89539268 0.00061031356 0)
(0.89179163 0.00058328091 0)
(0.88825465 0.0005575904 0)
(0.88477996 0.00053317428 0)
(0.88136576 0.00050996829 0)
(0.87801027 0.00048791874 0)
(0.87471155 0.00046696717 0)
(0.87146791 0.00044709273 0)
(0.86827681 0.00042821615 0)
(0.86513748 0.00041044789 0)
(0.86204397 0.00039352623 0)
(0.85900177 0.00037819361 0)
(0.85598581 0.00036315973 0)
(0.85304126 0.00035312696 0)
(0.85001294 0.00033269129 0)
(0.84741028 0.00037862306 0)
(0.84285496 0.00028973654 0)
(0.99741505 0.0017752809 0)
(0.9975303 0.0020980027 0)
(0.99771586 0.002358324 0)
(0.99792487 0.0025486169 0)
(0.99813293 0.0026896432 0)
(0.99833524 0.0027961599 0)
(0.99853089 0.0028735455 0)
(0.99871677 0.0029276307 0)
(0.99889153 0.0029646162 0)
(0.99905619 0.0029885073 0)
(0.99921186 0.0030016634 0)
(0.9993593 0.0030060081 0)
(0.9994992 0.003002756 0)
(0.99963219 0.0029930061 0)
(0.99975896 0.0029773341 0)
(0.99987993 0.0029559947 0)
(0.99999519 0.0029291097 0)
(1.0001046 0.0028967273 0)
(1.0002075 0.0028591301 0)
(1.0003035 0.0028169102 0)
(1.0003922 0.002770787 0)
(1.0004731 0.0027216029 0)
(1.0005459 0.0026703591 0)
(1.0006104 0.0026182725 0)
(1.0006667 0.0025667816 0)
(1.0007154 0.0025175016 0)
(1.0007575 0.0024716638 0)
(1.0007943 0.0024301234 0)
(1.0008272 0.0023936153 0)
(1.0008579 0.0023621855 0)
(1.0008877 0.0023352231 0)
(1.0009176 0.0023118437 0)
(1.0009479 0.0022913394 0)
(1.0009789 0.0022728681 0)
(1.0010103 0.0022557981 0)
(1.0010421 0.0022399923 0)