/*--------------------------------*- C++ -*----------------------------------*\
  =========                 |
  \\      /  F ield         | OpenFOAM: The Open Source CFD Toolbox
   \\    /   O peration     | Website:  https://openfoam.org
    \\  /    A nd           | Version:  12
     \\/     M anipulation  |
\*---------------------------------------------------------------------------*/
FoamFile
{
    format      ascii;
    class       volVectorField;
    location    "1000";
    object      wallShearStress;
}
// * * * * * * * * * * * * * * * * * * * * * * * * * * * * * * * * * * * * * //

dimensions      [0 2 -2 0 0 0 0];

internalField   uniform (0 0 0);

boundaryField
{
    bottom
    {
        type            calculated;
        value           nonuniform List<vector> 
112
(
(-0.0077754654 -3.56208e-05 0)
(-0.0059407308 -2.2178452e-07 -1.4412478e-17)
(-0.005470711 -7.5470085e-08 1.0008141e-17)
(-0.0051617156 -5.2497696e-08 -3.3554291e-18)
(-0.0049416159 -3.9312999e-08 0)
(-0.0047648571 -3.2237393e-08 0)
(-0.0046145992 -2.7390041e-08 0)
(-0.0044851872 -2.3494128e-08 0)
(-0.0043728713 -2.0344936e-08 0)
(-0.0042741352 -1.7838438e-08 -2.2264984e-18)
(-0.0041862054 -1.5814115e-08 0)
(-0.0041071388 -1.4126859e-08 -1.7571542e-18)
(-0.0040356059 -1.2700306e-08 1.5773136e-18)
(-0.0039704076 -1.1510019e-08 -1.4273451e-18)
(-0.0039104266 -1.0506064e-08 0)
(-0.0038549414 -9.6335799e-09 1.1914892e-18)
(-0.0038033915 -8.8749686e-09 0)
(-0.0037552291 -8.2131709e-09 -5.0667316e-19)
(-0.0037100469 -7.6282081e-09 0)
(-0.0036674999 -7.1087807e-09 -8.7516703e-19)
(-0.0036272915 -6.6441739e-09 8.1713135e-19)
(-0.0035891803 -6.2268727e-09 0)
(-0.0035529433 -5.8500473e-09 0)
(-0.0035184064 -5.5067189e-09 0)
(-0.0034854171 -5.1939374e-09 -6.3638706e-19)
(-0.0034538288 -4.9069399e-09 0)
(-0.0034235366 -4.6415052e-09 0)
(-0.0033944385 -4.3974571e-09 0)
(-0.0033664261 -4.1723786e-09 0)
(-0.0033394195 -3.963048e-09 -4.8363227e-19)
(-0.0033133462 -3.7689948e-09 4.5961014e-19)
(-0.0032881273 -3.5894016e-09 0)
(-0.0032636948 -3.4216586e-09 0)
(-0.00324 -3.2640965e-09 0)
(-0.0032169935 -3.116819e-09 3.7902237e-19)
(-0.0031946214 -2.9789422e-09 0)
(-0.0031728422 -2.8486908e-09 0)
(-0.0031516238 -2.7254433e-09 -3.3079146e-19)
(-0.0031309312 -2.6094936e-09 0)
(-0.0031107247 -2.5003701e-09 0)
(-0.0030909725 -2.3968146e-09 0)
(-0.0030716517 -2.2982616e-09 2.782737e-19)
(-0.0030527374 -2.2049525e-09 -1.3341035e-19)
(-0.0030341999 -2.1168136e-09 2.5600819e-19)
(-0.0030160123 -2.0328625e-09 0)
(-0.0029981589 -1.9524136e-09 0)
(-0.002980623 -1.8757493e-09 -3.3971909e-19)
(-0.0029633818 -1.8030003e-09 0)
(-0.0029464138 -1.73361e-09 2.0909303e-19)
(-0.0029297038 -1.6669916e-09 0)
(-0.0029132394 -1.6030767e-09 0)
(-0.0028970057 -1.5420004e-09 -9.2846887e-20)
(-0.0028809852 -1.4837938e-09 -8.9296455e-20)
(-0.0028651604 -1.4279317e-09 0)
(-0.0028495225 -1.3739805e-09 -1.6520985e-19)
(-0.0028340618 -1.3221404e-09 0)
(-0.0028187639 -1.2724972e-09 0)
(-0.002803615 -1.2249057e-09 0)
(-0.0027886023 -1.1790135e-09 0)
(-0.0027737184 -1.1345982e-09 0)
(-0.0027589549 -1.0918054e-09 0)
(-0.0027442993 -1.0507136e-09 0)
(-0.0027297393 -1.0111389e-09 0)
(-0.0027152653 -9.7282689e-10 0)
(-0.0027008705 -9.3571122e-10 -1.1196708e-19)
(-0.0026865464 -8.9989067e-10 0)
(-0.0026722813 -8.6540647e-10 -5.1727581e-20)
(-0.0026580637 -8.3204759e-10 0)
(-0.0026438868 -7.9964695e-10 -4.7752029e-20)
(-0.0026297431 -7.6825553e-10 9.1711394e-20)
(-0.0026156229 -7.3791849e-10 8.80486e-20)
(-0.0026015152 -7.086109e-10 -4.2255638e-20)
(-0.0025874092 -6.8017447e-10 0)
(-0.0025732981 -6.5250432e-10 0)
(-0.0025591741 -6.2569237e-10 7.4516138e-20)
(-0.0025450248 -5.9976994e-10 -7.1394284e-20)
(-0.0025308387 -5.7460279e-10 0)
(-0.0025166076 -5.5010359e-10 0)
(-0.0025023222 -5.2632045e-10 -6.2561219e-20)
(-0.0024879699 -5.032787e-10 0)
(-0.002473538 -4.8090034e-10 0)
(-0.0024590155 -4.5911602e-10 0)
(-0.0024443913 -4.3794247e-10 0)
(-0.0024296511 -4.1740408e-10 0)
(-0.0024147793 -3.9744133e-10 0)
(-0.0023997623 -3.7799482e-10 0)
(-0.002384586 -3.5911247e-10 0)
(-0.0023692297 -3.4074431e-10 4.0319475e-20)
(-0.0023536796 -3.2301945e-10 -3.8201908e-20)
(-0.0023382516 -3.0636446e-10 0)
(-0.0023234278 -2.9101769e-10 0)
(-0.002309338 -2.7693297e-10 0)
(-0.0022959229 -2.6395969e-10 0)
(-0.00228313 -2.5200625e-10 0)
(-0.0022709096 -2.4099232e-10 0)
(-0.0022592172 -2.3081477e-10 0)
(-0.0022480132 -2.2137507e-10 0)
(-0.0022372632 -2.1260711e-10 -2.5045204e-20)
(-0.0022269344 -2.0446498e-10 0)
(-0.0022169969 -1.9689659e-10 0)
(-0.0022074231 -1.8984608e-10 0)
(-0.0021981888 -1.8326673e-10 0)
(-0.0021892711 -1.7715059e-10 0)
(-0.0021806465 -1.7146043e-10 0)
(-0.0021722961 -1.6629075e-10 0)
(-0.0021641869 -1.6142709e-10 0)
(-0.0021563216 -1.5762596e-10 0)
(-0.0021485914 -1.533714e-10 0)
(-0.0021411519 -1.5320012e-10 0)
(-0.0021334384 -2.7851375e-10 0)
(-0.002126713 -1.7865362e-10 -2.1074645e-20)
(-0.002115708 -2.1351876e-10 0)
)
;
    }
    back
    {
        type            empty;
    }
    front
    {
        type            empty;
    }
    inlet
    {
        type            calculated;
        value           uniform (0 0 0);
    }
    outlet
    {
        type            calculated;
        value           uniform (0 0 0);
    }
    top
    {
        type            calculated;
        value           uniform (0 0 0);
    }
    slipsurface
    {
        type            calculated;
        value           uniform (0 0 0);
    }
}


// ************************************************************************* //
