/*--------------------------------*- C++ -*----------------------------------*\
  =========                 |
  \\      /  F ield         | OpenFOAM: The Open Source CFD Toolbox
   \\    /   O peration     | Website:  https://openfoam.org
    \\  /    A nd           | Version:  12
     \\/     M anipulation  |
\*---------------------------------------------------------------------------*/
FoamFile
{
    format      ascii;
    class       volScalarField;
    location    "1000";
    object      yPlus;
}
// * * * * * * * * * * * * * * * * * * * * * * * * * * * * * * * * * * * * * //

dimensions      [];

internalField   uniform 0;

boundaryField
{
    inlet
    {
        type            calculated;
        value           uniform 0;
    }
    top
    {
        type            calculated;
        value           uniform 0;
    }
    outlet
    {
        type            calculated;
        value           uniform 0;
    }
    slipsurface
    {
        type            calculated;
        value           uniform 0;
    }
    bottom
    {
        type            calculated;
        value           nonuniform List<scalar> 
100
(
116.34522
115.19632
113.92441
112.57431
111.18695
109.79049
108.39525
107.0057
105.62601
104.25976
102.90988
101.57874
100.26894
98.983415
97.725666
96.500327
95.314206
94.177216
93.097787
92.08331
91.140363
90.274509
89.489804
88.789073
88.172366
87.635404
87.169989
86.765031
86.407166
86.082624
85.779515
85.489194
85.206256
84.927787
84.65246
84.379295
84.107019
83.834241
83.559872
83.283625
83.006167
82.728662
82.452244
82.177627
81.905146
81.635032
81.367534
81.102881
80.841253
80.582817
80.32766
80.075756
79.827065
79.581609
79.339398
79.100362
78.86442
78.631536
78.401647
78.174676
77.95056
77.729233
77.510613
77.294633
77.081242
76.870372
76.661964
76.455964
76.252306
76.050932
75.851785
75.654803
75.459932
75.267114
75.076297
74.887429
74.700458
74.515334
74.332009
74.150437
73.97057
73.792366
73.61578
73.440769
73.267292
73.095307
72.924772
72.755643
72.587878
72.421418
72.256237
72.092198
71.929391
71.767273
71.60669
71.444911
71.28699
71.118283
70.97884
70.716145
)
;
    }
    frontandback
    {
        type            empty;
    }
}


// ************************************************************************* //
