# y+ ()         
# Time          	patch           	min             	max             	average         
0               	bottom	1.34387058e+01	1.34387058e+01	1.34387058e+01
1               	bottom	1.30253413e+01	3.47808915e+01	2.71981746e+01
2               	bottom	1.07120539e+01	8.48011244e+01	5.98107985e+01
3               	bottom	5.39849394e+00	8.88908005e+01	7.07926523e+01
4               	bottom	3.76602169e+00	9.52000903e+01	6.90466869e+01
5               	bottom	4.03268689e+00	9.81241034e+01	6.69132643e+01
6               	bottom	3.64987362e+00	1.00504707e+02	6.63358466e+01
7               	bottom	6.24734773e-01	1.01584889e+02	6.61270918e+01
8               	bottom	2.51207738e+00	1.02109372e+02	6.65081945e+01
9               	bottom	2.37055786e+00	1.02340289e+02	6.71346297e+01
10              	bottom	2.31256722e+00	1.02437971e+02	6.77812437e+01
11              	bottom	1.45635089e+00	1.02461045e+02	6.82990627e+01
12              	bottom	2.05430698e+00	1.02484655e+02	6.90391037e+01
13              	bottom	2.18404382e+00	1.02434122e+02	6.96411905e+01
14              	bottom	2.22393071e+00	1.02339032e+02	7.00746376e+01
15              	bottom	1.22233771e+00	1.02266225e+02	7.03170446e+01
16              	bottom	1.55941217e+00	1.02253526e+02	7.07141810e+01
17              	bottom	2.19609830e+00	1.02237740e+02	7.10456145e+01
18              	bottom	2.19472526e+00	1.02172644e+02	7.12284891e+01
19              	bottom	2.36108237e+00	1.02070420e+02	7.12601933e+01
20              	bottom	2.42500786e+00	1.02035563e+02	7.14578441e+01
21              	bottom	2.44768023e+00	1.02035617e+02	7.15953335e+01
22              	bottom	2.45429183e+00	1.02003198e+02	7.16456266e+01
23              	bottom	2.45512055e+00	1.01929030e+02	7.15618346e+01
24              	bottom	2.02759352e+00	1.01835934e+02	7.15234898e+01
25              	bottom	2.36995632e+00	1.01818709e+02	7.15727730e+01
26              	bottom	2.44619868e+00	1.01822068e+02	7.16087503e+01
27              	bottom	2.44014815e+00	1.01796573e+02	7.15813020e+01
28              	bottom	2.43359728e+00	1.01736340e+02	7.14376289e+01
29              	bottom	1.53290626e+00	1.01660902e+02	7.12930495e+01
30              	bottom	2.27524537e+00	1.01592321e+02	7.12698119e+01
31              	bottom	2.41312308e+00	1.01587190e+02	7.12772357e+01
32              	bottom	2.40624357e+00	1.01581699e+02	7.12557371e+01
33              	bottom	2.39940005e+00	1.01547071e+02	7.11707158e+01
34              	bottom	2.39261187e+00	1.01486253e+02	7.09795995e+01
35              	bottom	1.80435053e+00	1.01438427e+02	7.08163216e+01
36              	bottom	2.31977084e+00	1.01415810e+02	7.07640172e+01
37              	bottom	2.37276096e+00	1.01377438e+02	7.07590534e+01
38              	bottom	2.36630755e+00	1.01354682e+02	7.07461797e+01
39              	bottom	2.35991700e+00	1.01329108e+02	7.07028198e+01
40              	bottom	2.35359651e+00	1.01286364e+02	7.05970007e+01
41              	bottom	2.34735353e+00	1.01229311e+02	7.03907573e+01
42              	bottom	1.68953521e+00	1.01191339e+02	7.01993907e+01
43              	bottom	2.29233547e+00	1.01223214e+02	7.01258640e+01
44              	bottom	2.32911834e+00	1.01235698e+02	7.01001566e+01
45              	bottom	2.32319409e+00	1.01202341e+02	7.00919212e+01
46              	bottom	2.31732332e+00	1.01138122e+02	7.00787406e+01
47              	bottom	2.31148110e+00	1.01081080e+02	7.00426177e+01
48              	bottom	2.30565545e+00	1.01032311e+02	6.99619048e+01
49              	bottom	2.29986716e+00	1.00981496e+02	6.97992836e+01
50              	bottom	2.29413541e+00	1.00925762e+02	6.95491508e+01
51              	bottom	2.28847544e+00	1.00928508e+02	6.94207095e+01
52              	bottom	2.28288562e+00	1.00991253e+02	6.93599849e+01
53              	bottom	2.27734447e+00	1.01068494e+02	6.93413075e+01
54              	bottom	2.27183331e+00	1.01061039e+02	6.93448898e+01
55              	bottom	2.26634278e+00	1.01036233e+02	6.93563013e+01
56              	bottom	2.26087180e+00	1.01009113e+02	6.93680986e+01
57              	bottom	2.25542530e+00	1.00988513e+02	6.93772330e+01
58              	bottom	2.25000868e+00	1.00976786e+02	6.93830324e+01
59              	bottom	2.24462596e+00	1.00971946e+02	6.93859680e+01
60              	bottom	2.23927770e+00	1.00970998e+02	6.93868566e+01
61              	bottom	2.23396369e+00	1.00971345e+02	6.93864485e+01
62              	bottom	2.22867866e+00	1.00971530e+02	6.93853089e+01
63              	bottom	2.22341961e+00	1.00971667e+02	6.93838570e+01
64              	bottom	2.21818509e+00	1.00971909e+02	6.93822729e+01
65              	bottom	2.21297527e+00	1.00972274e+02	6.93806309e+01
66              	bottom	2.20778864e+00	1.00972593e+02	6.93789778e+01
67              	bottom	2.20262457e+00	1.00972804e+02	6.93773440e+01
68              	bottom	2.19748163e+00	1.00972935e+02	6.93757393e+01
69              	bottom	2.19235965e+00	1.00973024e+02	6.93741630e+01
70              	bottom	2.18725738e+00	1.00973081e+02	6.93726120e+01
71              	bottom	2.18217478e+00	1.00973112e+02	6.93710805e+01
72              	bottom	2.17711081e+00	1.00973146e+02	6.93695609e+01
73              	bottom	2.17206556e+00	1.00973188e+02	6.93680582e+01
74              	bottom	2.16703803e+00	1.00973296e+02	6.93665817e+01
75              	bottom	2.16202836e+00	1.00973496e+02	6.93651349e+01
76              	bottom	2.15703851e+00	1.00973744e+02	6.93637192e+01
77              	bottom	2.15207151e+00	1.00973977e+02	6.93623346e+01
78              	bottom	2.14712141e+00	1.00974153e+02	6.93609807e+01
79              	bottom	2.14218534e+00	1.00974334e+02	6.93596470e+01
80              	bottom	2.13726259e+00	1.00974440e+02	6.93583351e+01
81              	bottom	2.13235474e+00	1.00974450e+02	6.93570512e+01
82              	bottom	2.12746176e+00	1.00974412e+02	6.93557948e+01
83              	bottom	2.12258382e+00	1.00974358e+02	6.93545648e+01
84              	bottom	2.11771975e+00	1.00974313e+02	6.93533614e+01
85              	bottom	2.11286971e+00	1.00974286e+02	6.93521865e+01
86              	bottom	2.10803310e+00	1.00974269e+02	6.93510410e+01
87              	bottom	2.10321037e+00	1.00974251e+02	6.93499258e+01
88              	bottom	2.09840083e+00	1.00974230e+02	6.93488409e+01
89              	bottom	2.09360480e+00	1.00974208e+02	6.93477864e+01
90              	bottom	2.08882156e+00	1.00974186e+02	6.93467619e+01
91              	bottom	2.08405150e+00	1.00974162e+02	6.93457666e+01
92              	bottom	2.07929393e+00	1.00974137e+02	6.93447996e+01
93              	bottom	2.07454923e+00	1.00974112e+02	6.93438604e+01
94              	bottom	2.06981675e+00	1.00974088e+02	6.93429484e+01
95              	bottom	2.06509687e+00	1.00974063e+02	6.93420629e+01
96              	bottom	2.06038896e+00	1.00974038e+02	6.93412028e+01
97              	bottom	2.05569342e+00	1.00974012e+02	6.93403671e+01
98              	bottom	2.05100962e+00	1.00973986e+02	6.93395546e+01
99              	bottom	2.04633798e+00	1.00973960e+02	6.93387640e+01
100             	bottom	2.04167788e+00	1.00973933e+02	6.93379940e+01
101             	bottom	2.03702975e+00	1.00973905e+02	6.93372434e+01
102             	bottom	2.03239298e+00	1.00973877e+02	6.93365106e+01
103             	bottom	2.02776799e+00	1.00973849e+02	6.93357944e+01
104             	bottom	2.02315421e+00	1.00973820e+02	6.93350935e+01
105             	bottom	2.01855206e+00	1.00973790e+02	6.93344067e+01
106             	bottom	2.01396097e+00	1.00973760e+02	6.93337328e+01
107             	bottom	2.00938136e+00	1.00973729e+02	6.93330707e+01
108             	bottom	2.00481268e+00	1.00973698e+02	6.93324192e+01
109             	bottom	2.00025536e+00	1.00973666e+02	6.93317774e+01
110             	bottom	1.99570888e+00	1.00973634e+02	6.93311445e+01
111             	bottom	1.99117334e+00	1.00973601e+02	6.93305195e+01
112             	bottom	1.98664886e+00	1.00973568e+02	6.93299017e+01
113             	bottom	1.98213552e+00	1.00973534e+02	6.93292904e+01
114             	bottom	1.97763272e+00	1.00973500e+02	6.93286850e+01
115             	bottom	1.97314091e+00	1.00973465e+02	6.93280849e+01
116             	bottom	1.96865956e+00	1.00973431e+02	6.93274896e+01
117             	bottom	1.96418912e+00	1.00973396e+02	6.93268987e+01
118             	bottom	1.95972907e+00	1.00973360e+02	6.93263117e+01
119             	bottom	1.95527985e+00	1.00973325e+02	6.93257284e+01
120             	bottom	1.95084094e+00	1.00973289e+02	6.93251484e+01
121             	bottom	1.94641278e+00	1.00973253e+02	6.93245714e+01
122             	bottom	1.94199486e+00	1.00973217e+02	6.93239972e+01
123             	bottom	1.93758761e+00	1.00973180e+02	6.93234256e+01
124             	bottom	1.93319053e+00	1.00973144e+02	6.93228564e+01
125             	bottom	1.92880405e+00	1.00973107e+02	6.93222895e+01
126             	bottom	1.92442765e+00	1.00973071e+02	6.93217247e+01
127             	bottom	1.92006177e+00	1.00973034e+02	6.93211619e+01
128             	bottom	1.91570591e+00	1.00972997e+02	6.93206010e+01
129             	bottom	1.91136051e+00	1.00972961e+02	6.93200420e+01
130             	bottom	1.90702505e+00	1.00972924e+02	6.93194847e+01
131             	bottom	1.90269998e+00	1.00972887e+02	6.93189291e+01
132             	bottom	1.89838479e+00	1.00972850e+02	6.93183750e+01
133             	bottom	1.89407993e+00	1.00972813e+02	6.93178226e+01
134             	bottom	1.88978488e+00	1.00972777e+02	6.93172717e+01
135             	bottom	1.88550010e+00	1.00972740e+02	6.93167224e+01
136             	bottom	1.88122508e+00	1.00972704e+02	6.93161744e+01
137             	bottom	1.87696027e+00	1.00972667e+02	6.93156280e+01
138             	bottom	1.87270515e+00	1.00972631e+02	6.93150829e+01
139             	bottom	1.86846018e+00	1.00972594e+02	6.93145393e+01
140             	bottom	1.86422486e+00	1.00972558e+02	6.93139970e+01
141             	bottom	1.85999962e+00	1.00972522e+02	6.93134561e+01
142             	bottom	1.85578398e+00	1.00972486e+02	6.93129165e+01
143             	bottom	1.85157837e+00	1.00972450e+02	6.93123782e+01
144             	bottom	1.84738230e+00	1.00972414e+02	6.93118413e+01
145             	bottom	1.84319620e+00	1.00972378e+02	6.93113057e+01
146             	bottom	1.83901960e+00	1.00972343e+02	6.93107714e+01
147             	bottom	1.83485292e+00	1.00972307e+02	6.93102384e+01
148             	bottom	1.83069567e+00	1.00972272e+02	6.93097067e+01
149             	bottom	1.82654829e+00	1.00972237e+02	6.93091763e+01
150             	bottom	1.82241030e+00	1.00972202e+02	6.93086471e+01
151             	bottom	1.81828213e+00	1.00972167e+02	6.93081193e+01
152             	bottom	1.81416330e+00	1.00972132e+02	6.93075927e+01
153             	bottom	1.81005424e+00	1.00972098e+02	6.93070674e+01
154             	bottom	1.80595446e+00	1.00972063e+02	6.93065433e+01
155             	bottom	1.80186441e+00	1.00972029e+02	6.93060206e+01
156             	bottom	1.79778359e+00	1.00971995e+02	6.93054990e+01
157             	bottom	1.79371245e+00	1.00971961e+02	6.93049788e+01
158             	bottom	1.78965049e+00	1.00971927e+02	6.93044597e+01
159             	bottom	1.78559816e+00	1.00971893e+02	6.93039421e+01
160             	bottom	1.78155498e+00	1.00971859e+02	6.93034255e+01
161             	bottom	1.77752137e+00	1.00971826e+02	6.93029103e+01
162             	bottom	1.77349686e+00	1.00971793e+02	6.93023963e+01
163             	bottom	1.76948188e+00	1.00971760e+02	6.93018836e+01
164             	bottom	1.76547595e+00	1.00971727e+02	6.93013720e+01
165             	bottom	1.76147950e+00	1.00971694e+02	6.93008617e+01
166             	bottom	1.75749206e+00	1.00971661e+02	6.93003526e+01
167             	bottom	1.75351405e+00	1.00971629e+02	6.92998448e+01
168             	bottom	1.74954501e+00	1.00971596e+02	6.92993381e+01
169             	bottom	1.74558536e+00	1.00971564e+02	6.92988326e+01
170             	bottom	1.74163462e+00	1.00971532e+02	6.92983283e+01
171             	bottom	1.73769323e+00	1.00971500e+02	6.92978253e+01
172             	bottom	1.73376071e+00	1.00971468e+02	6.92973234e+01
173             	bottom	1.72983749e+00	1.00971436e+02	6.92968228e+01
174             	bottom	1.72592310e+00	1.00971405e+02	6.92963233e+01
175             	bottom	1.72201796e+00	1.00971374e+02	6.92958251e+01
176             	bottom	1.71812161e+00	1.00971342e+02	6.92953281e+01
177             	bottom	1.71423447e+00	1.00971311e+02	6.92948322e+01
178             	bottom	1.71035608e+00	1.00971280e+02	6.92943375e+01
179             	bottom	1.70648684e+00	1.00971249e+02	6.92938441e+01
180             	bottom	1.70262631e+00	1.00971219e+02	6.92933517e+01
181             	bottom	1.69877490e+00	1.00971188e+02	6.92928606e+01
182             	bottom	1.69493215e+00	1.00971158e+02	6.92923706e+01
183             	bottom	1.69109847e+00	1.00971127e+02	6.92918819e+01
184             	bottom	1.68727342e+00	1.00971097e+02	6.92913942e+01
185             	bottom	1.68345739e+00	1.00971067e+02	6.92909078e+01
186             	bottom	1.67964995e+00	1.00971037e+02	6.92904225e+01
187             	bottom	1.67585148e+00	1.00971008e+02	6.92899384e+01
188             	bottom	1.67206156e+00	1.00970978e+02	6.92894554e+01
189             	bottom	1.66828058e+00	1.00970949e+02	6.92889735e+01
190             	bottom	1.66450810e+00	1.00970919e+02	6.92884928e+01
191             	bottom	1.66074452e+00	1.00970890e+02	6.92880133e+01
192             	bottom	1.65698939e+00	1.00970861e+02	6.92875349e+01
193             	bottom	1.65324312e+00	1.00970832e+02	6.92870577e+01
194             	bottom	1.64950527e+00	1.00970803e+02	6.92865815e+01
195             	bottom	1.64577624e+00	1.00970774e+02	6.92861066e+01
196             	bottom	1.64205558e+00	1.00970746e+02	6.92856327e+01
197             	bottom	1.63834369e+00	1.00970717e+02	6.92851600e+01
198             	bottom	1.63464014e+00	1.00970689e+02	6.92846883e+01
199             	bottom	1.63094532e+00	1.00970661e+02	6.92842179e+01
200             	bottom	1.62725879e+00	1.00970633e+02	6.92837485e+01
201             	bottom	1.62358096e+00	1.00970605e+02	6.92832803e+01
202             	bottom	1.61991138e+00	1.00970577e+02	6.92828131e+01
203             	bottom	1.61625045e+00	1.00970549e+02	6.92823471e+01
204             	bottom	1.61259774e+00	1.00970522e+02	6.92818822e+01
205             	bottom	1.60895363e+00	1.00970495e+02	6.92814184e+01
206             	bottom	1.60531771e+00	1.00970467e+02	6.92809556e+01
207             	bottom	1.60169035e+00	1.00970440e+02	6.92804940e+01
208             	bottom	1.59807113e+00	1.00970413e+02	6.92800335e+01
209             	bottom	1.59446043e+00	1.00970386e+02	6.92795741e+01
210             	bottom	1.59085784e+00	1.00970359e+02	6.92791157e+01
211             	bottom	1.58726373e+00	1.00970333e+02	6.92786585e+01
212             	bottom	1.58367768e+00	1.00970306e+02	6.92782023e+01
213             	bottom	1.58010008e+00	1.00970279e+02	6.92777473e+01
214             	bottom	1.57653050e+00	1.00970253e+02	6.92772932e+01
215             	bottom	1.57296933e+00	1.00970227e+02	6.92768403e+01
216             	bottom	1.56941615e+00	1.00970201e+02	6.92763885e+01
217             	bottom	1.56587133e+00	1.00970175e+02	6.92759377e+01
218             	bottom	1.56233445e+00	1.00970149e+02	6.92754880e+01
219             	bottom	1.55880591e+00	1.00970123e+02	6.92750394e+01
220             	bottom	1.55528527e+00	1.00970098e+02	6.92745918e+01
221             	bottom	1.55177292e+00	1.00970072e+02	6.92741453e+01
222             	bottom	1.54826845e+00	1.00970047e+02	6.92736999e+01
223             	bottom	1.54477222e+00	1.00970021e+02	6.92732555e+01
224             	bottom	1.54128383e+00	1.00969996e+02	6.92728121e+01
225             	bottom	1.53780364e+00	1.00969971e+02	6.92723699e+01
226             	bottom	1.53433126e+00	1.00969946e+02	6.92719286e+01
227             	bottom	1.53086705e+00	1.00969921e+02	6.92714885e+01
228             	bottom	1.52741060e+00	1.00969896e+02	6.92710493e+01
229             	bottom	1.52396228e+00	1.00969872e+02	6.92706112e+01
230             	bottom	1.52052168e+00	1.00969847e+02	6.92701742e+01
231             	bottom	1.51708918e+00	1.00969823e+02	6.92697382e+01
232             	bottom	1.51366437e+00	1.00969799e+02	6.92693032e+01
233             	bottom	1.51024761e+00	1.00969774e+02	6.92688692e+01
234             	bottom	1.50683850e+00	1.00969750e+02	6.92684363e+01
235             	bottom	1.50343742e+00	1.00969726e+02	6.92680044e+01
236             	bottom	1.50004395e+00	1.00969703e+02	6.92675735e+01
237             	bottom	1.49665846e+00	1.00969679e+02	6.92671437e+01
238             	bottom	1.49328055e+00	1.00969655e+02	6.92667148e+01
239             	bottom	1.48991058e+00	1.00969632e+02	6.92662870e+01
240             	bottom	1.48654816e+00	1.00969608e+02	6.92658602e+01
241             	bottom	1.48319364e+00	1.00969585e+02	6.92654344e+01
242             	bottom	1.47984663e+00	1.00969562e+02	6.92650096e+01
243             	bottom	1.47650749e+00	1.00969538e+02	6.92645858e+01
244             	bottom	1.47317582e+00	1.00969515e+02	6.92641630e+01
245             	bottom	1.46985199e+00	1.00969493e+02	6.92637413e+01
246             	bottom	1.46653559e+00	1.00969470e+02	6.92633205e+01
247             	bottom	1.46322699e+00	1.00969447e+02	6.92629007e+01
248             	bottom	1.45992580e+00	1.00969424e+02	6.92624819e+01
249             	bottom	1.45663236e+00	1.00969402e+02	6.92620641e+01
250             	bottom	1.45334629e+00	1.00969379e+02	6.92616473e+01
251             	bottom	1.45006795e+00	1.00969357e+02	6.92612315e+01
252             	bottom	1.44679694e+00	1.00969335e+02	6.92608166e+01
253             	bottom	1.44353361e+00	1.00969313e+02	6.92604027e+01
254             	bottom	1.44027758e+00	1.00969291e+02	6.92599898e+01
255             	bottom	1.43702921e+00	1.00969269e+02	6.92595779e+01
256             	bottom	1.43378810e+00	1.00969247e+02	6.92591670e+01
257             	bottom	1.43055460e+00	1.00969225e+02	6.92587570e+01
258             	bottom	1.42732834e+00	1.00969204e+02	6.92583480e+01
259             	bottom	1.42410965e+00	1.00969182e+02	6.92579400e+01
260             	bottom	1.42089817e+00	1.00969161e+02	6.92575329e+01
261             	bottom	1.41769422e+00	1.00969139e+02	6.92571268e+01
262             	bottom	1.41449744e+00	1.00969118e+02	6.92567217e+01
263             	bottom	1.41130817e+00	1.00969097e+02	6.92563175e+01
264             	bottom	1.40812603e+00	1.00969076e+02	6.92559142e+01
265             	bottom	1.40495136e+00	1.00969055e+02	6.92555120e+01
266             	bottom	1.40178379e+00	1.00969034e+02	6.92551106e+01
267             	bottom	1.39862366e+00	1.00969013e+02	6.92547103e+01
268             	bottom	1.39547059e+00	1.00968993e+02	6.92543108e+01
269             	bottom	1.39232493e+00	1.00968972e+02	6.92539124e+01
270             	bottom	1.38918630e+00	1.00968952e+02	6.92535148e+01
271             	bottom	1.38605504e+00	1.00968931e+02	6.92531182e+01
272             	bottom	1.38293077e+00	1.00968911e+02	6.92527225e+01
273             	bottom	1.37981384e+00	1.00968891e+02	6.92523278e+01
274             	bottom	1.37670388e+00	1.00968871e+02	6.92519340e+01
275             	bottom	1.37360122e+00	1.00968851e+02	6.92515412e+01
276             	bottom	1.37050549e+00	1.00968831e+02	6.92511492e+01
277             	bottom	1.36741702e+00	1.00968811e+02	6.92507582e+01
278             	bottom	1.36433546e+00	1.00968791e+02	6.92503681e+01
279             	bottom	1.36126113e+00	1.00968771e+02	6.92499789e+01
280             	bottom	1.35819367e+00	1.00968752e+02	6.92495907e+01
281             	bottom	1.35513341e+00	1.00968732e+02	6.92492033e+01
282             	bottom	1.35207999e+00	1.00968713e+02	6.92488169e+01
283             	bottom	1.34903373e+00	1.00968694e+02	6.92484314e+01
284             	bottom	1.34599428e+00	1.00968674e+02	6.92480468e+01
285             	bottom	1.34296196e+00	1.00968655e+02	6.92476631e+01
286             	bottom	1.33993641e+00	1.00968636e+02	6.92472803e+01
287             	bottom	1.33691797e+00	1.00968617e+02	6.92468984e+01
288             	bottom	1.33390626e+00	1.00968598e+02	6.92465174e+01
289             	bottom	1.33090162e+00	1.00968580e+02	6.92461373e+01
290             	bottom	1.32790369e+00	1.00968561e+02	6.92457581e+01
291             	bottom	1.32491280e+00	1.00968542e+02	6.92453798e+01
292             	bottom	1.32192858e+00	1.00968524e+02	6.92450024e+01
293             	bottom	1.31895137e+00	1.00968505e+02	6.92446259e+01
294             	bottom	1.31598080e+00	1.00968487e+02	6.92442503e+01
295             	bottom	1.31301721e+00	1.00968468e+02	6.92438755e+01
296             	bottom	1.31006023e+00	1.00968450e+02	6.92435016e+01
297             	bottom	1.30711019e+00	1.00968432e+02	6.92431287e+01
298             	bottom	1.30416673e+00	1.00968414e+02	6.92427565e+01
299             	bottom	1.30123018e+00	1.00968396e+02	6.92423853e+01
300             	bottom	1.29830019e+00	1.00968378e+02	6.92420149e+01
301             	bottom	1.29537706e+00	1.00968360e+02	6.92416455e+01
302             	bottom	1.29246047e+00	1.00968342e+02	6.92412768e+01
303             	bottom	1.28955071e+00	1.00968325e+02	6.92409091e+01
304             	bottom	1.28664745e+00	1.00968307e+02	6.92405422e+01
305             	bottom	1.28375100e+00	1.00968290e+02	6.92401762e+01
306             	bottom	1.28086101e+00	1.00968272e+02	6.92398110e+01
307             	bottom	1.27797780e+00	1.00968255e+02	6.92394467e+01
308             	bottom	1.27510103e+00	1.00968238e+02	6.92390833e+01
309             	bottom	1.27223100e+00	1.00968220e+02	6.92387207e+01
310             	bottom	1.26936738e+00	1.00968203e+02	6.92383589e+01
311             	bottom	1.26651047e+00	1.00968186e+02	6.92379981e+01
312             	bottom	1.26365994e+00	1.00968169e+02	6.92376380e+01
313             	bottom	1.26081610e+00	1.00968153e+02	6.92372788e+01
314             	bottom	1.25797859e+00	1.00968136e+02	6.92369205e+01
315             	bottom	1.25514775e+00	1.00968119e+02	6.92365630e+01
316             	bottom	1.25232322e+00	1.00968102e+02	6.92362063e+01
317             	bottom	1.24950531e+00	1.00968086e+02	6.92358505e+01
318             	bottom	1.24669369e+00	1.00968069e+02	6.92354955e+01
319             	bottom	1.24388866e+00	1.00968053e+02	6.92351414e+01
320             	bottom	1.24108989e+00	1.00968036e+02	6.92347880e+01
321             	bottom	1.23829769e+00	1.00968020e+02	6.92344356e+01
322             	bottom	1.23551171e+00	1.00968004e+02	6.92340839e+01
323             	bottom	1.23273226e+00	1.00967988e+02	6.92337331e+01
324             	bottom	1.22995901e+00	1.00967972e+02	6.92333830e+01
325             	bottom	1.22719227e+00	1.00967956e+02	6.92330339e+01
326             	bottom	1.22443170e+00	1.00967940e+02	6.92326855e+01
327             	bottom	1.22167760e+00	1.00967924e+02	6.92323379e+01
328             	bottom	1.21892964e+00	1.00967908e+02	6.92319912e+01
329             	bottom	1.21618813e+00	1.00967892e+02	6.92316453e+01
330             	bottom	1.21345273e+00	1.00967877e+02	6.92313002e+01
331             	bottom	1.21072374e+00	1.00967861e+02	6.92309559e+01
332             	bottom	1.20800084e+00	1.00967846e+02	6.92306124e+01
333             	bottom	1.20528432e+00	1.00967830e+02	6.92302697e+01
334             	bottom	1.20257386e+00	1.00967815e+02	6.92299278e+01
335             	bottom	1.19986976e+00	1.00967800e+02	6.92295868e+01
336             	bottom	1.19717169e+00	1.00967784e+02	6.92292465e+01
337             	bottom	1.19447994e+00	1.00967769e+02	6.92289070e+01
338             	bottom	1.19179419e+00	1.00967754e+02	6.92285683e+01
339             	bottom	1.18911474e+00	1.00967739e+02	6.92282305e+01
340             	bottom	1.18644126e+00	1.00967724e+02	6.92278934e+01
341             	bottom	1.18377405e+00	1.00967709e+02	6.92275571e+01
342             	bottom	1.18111279e+00	1.00967694e+02	6.92272216e+01
343             	bottom	1.17845777e+00	1.00967680e+02	6.92268869e+01
344             	bottom	1.17580866e+00	1.00967665e+02	6.92265529e+01
345             	bottom	1.17316577e+00	1.00967650e+02	6.92262198e+01
346             	bottom	1.17052876e+00	1.00967636e+02	6.92258874e+01
347             	bottom	1.16789794e+00	1.00967621e+02	6.92255558e+01
348             	bottom	1.16527299e+00	1.00967607e+02	6.92252250e+01
349             	bottom	1.16265418e+00	1.00967592e+02	6.92248950e+01
350             	bottom	1.16004122e+00	1.00967578e+02	6.92245657e+01
351             	bottom	1.15743438e+00	1.00967564e+02	6.92242372e+01
352             	bottom	1.15483335e+00	1.00967550e+02	6.92239095e+01
353             	bottom	1.15223842e+00	1.00967536e+02	6.92235826e+01
354             	bottom	1.14964927e+00	1.00967522e+02	6.92232564e+01
355             	bottom	1.14706619e+00	1.00967508e+02	6.92229310e+01
356             	bottom	1.14448887e+00	1.00967494e+02	6.92226063e+01
357             	bottom	1.14191759e+00	1.00967480e+02	6.92222824e+01
358             	bottom	1.13935204e+00	1.00967466e+02	6.92219593e+01
359             	bottom	1.13679251e+00	1.00967452e+02	6.92216369e+01
360             	bottom	1.13423868e+00	1.00967439e+02	6.92213153e+01
361             	bottom	1.13169084e+00	1.00967425e+02	6.92209944e+01
362             	bottom	1.12914867e+00	1.00967412e+02	6.92206743e+01
363             	bottom	1.12661247e+00	1.00967398e+02	6.92203549e+01
364             	bottom	1.12408191e+00	1.00967385e+02	6.92200363e+01
365             	bottom	1.12155729e+00	1.00967371e+02	6.92197185e+01
366             	bottom	1.11903829e+00	1.00967358e+02	6.92194013e+01
367             	bottom	1.11652520e+00	1.00967345e+02	6.92190850e+01
368             	bottom	1.11401771e+00	1.00967331e+02	6.92187693e+01
369             	bottom	1.11151610e+00	1.00967318e+02	6.92184544e+01
370             	bottom	1.10902006e+00	1.00967305e+02	6.92181403e+01
371             	bottom	1.10652987e+00	1.00967292e+02	6.92178269e+01
372             	bottom	1.10404524e+00	1.00967279e+02	6.92175142e+01
373             	bottom	1.10156642e+00	1.00967266e+02	6.92172022e+01
374             	bottom	1.09909313e+00	1.00967254e+02	6.92168910e+01
375             	bottom	1.09662564e+00	1.00967241e+02	6.92165805e+01
376             	bottom	1.09416364e+00	1.00967228e+02	6.92162707e+01
377             	bottom	1.09170742e+00	1.00967215e+02	6.92159617e+01
378             	bottom	1.08925667e+00	1.00967203e+02	6.92156534e+01
379             	bottom	1.08681166e+00	1.00967190e+02	6.92153458e+01
380             	bottom	1.08437210e+00	1.00967178e+02	6.92150389e+01
381             	bottom	1.08193827e+00	1.00967165e+02	6.92147328e+01
382             	bottom	1.07950985e+00	1.00967153e+02	6.92144273e+01
383             	bottom	1.07708713e+00	1.00967141e+02	6.92141226e+01
384             	bottom	1.07466980e+00	1.00967128e+02	6.92138186e+01
385             	bottom	1.07225814e+00	1.00967116e+02	6.92135153e+01
386             	bottom	1.06985185e+00	1.00967104e+02	6.92132127e+01
387             	bottom	1.06745121e+00	1.00967092e+02	6.92129108e+01
388             	bottom	1.06505591e+00	1.00967080e+02	6.92126097e+01
389             	bottom	1.06266623e+00	1.00967068e+02	6.92123092e+01
390             	bottom	1.06028188e+00	1.00967056e+02	6.92120094e+01
391             	bottom	1.05790311e+00	1.00967044e+02	6.92117104e+01
392             	bottom	1.05552964e+00	1.00967032e+02	6.92114120e+01
393             	bottom	1.05316174e+00	1.00967020e+02	6.92111144e+01
394             	bottom	1.05079911e+00	1.00967009e+02	6.92108163e+01
395             	bottom	1.04844202e+00	1.00966997e+02	6.92105200e+01
396             	bottom	1.04609018e+00	1.00966985e+02	6.92102228e+01
397             	bottom	1.04374386e+00	1.00966974e+02	6.92099284e+01
398             	bottom	1.04140276e+00	1.00966962e+02	6.92096320e+01
399             	bottom	1.03906715e+00	1.00966951e+02	6.92093399e+01
400             	bottom	1.03673675e+00	1.00966939e+02	6.92090436e+01
401             	bottom	1.03441180e+00	1.00966928e+02	6.92087544e+01
402             	bottom	1.03209204e+00	1.00966916e+02	6.92084575e+01
403             	bottom	1.02977772e+00	1.00966905e+02	6.92081722e+01
404             	bottom	1.02746855e+00	1.00966894e+02	6.92078733e+01
405             	bottom	1.02516480e+00	1.00966882e+02	6.92075939e+01
406             	bottom	1.02286618e+00	1.00966871e+02	6.92072904e+01
407             	bottom	1.02057295e+00	1.00966860e+02	6.92070202e+01
408             	bottom	1.01828483e+00	1.00966849e+02	6.92067077e+01
409             	bottom	1.01600207e+00	1.00966838e+02	6.92064519e+01
410             	bottom	1.01372440e+00	1.00966827e+02	6.92061217e+01
411             	bottom	1.01145207e+00	1.00966816e+02	6.92058825e+01
412             	bottom	1.00918480e+00	1.00966805e+02	6.92055402e+01
413             	bottom	1.00692284e+00	1.00966794e+02	6.92053146e+01
414             	bottom	1.00466593e+00	1.00966784e+02	6.92049636e+01
415             	bottom	1.00241431e+00	1.00966773e+02	6.92047492e+01
416             	bottom	1.00016770e+00	1.00966762e+02	6.92043909e+01
417             	bottom	9.97926367e-01	1.00966751e+02	6.92041863e+01
418             	bottom	9.95690024e-01	1.00966741e+02	6.92038215e+01
419             	bottom	9.93458924e-01	1.00966730e+02	6.92036259e+01
420             	bottom	9.91232796e-01	1.00966720e+02	6.92032552e+01
421             	bottom	9.89011886e-01	1.00966709e+02	6.92030682e+01
422             	bottom	9.86795925e-01	1.00966699e+02	6.92026916e+01
423             	bottom	9.84585156e-01	1.00966688e+02	6.92025131e+01
424             	bottom	9.82379314e-01	1.00966678e+02	6.92021308e+01
425             	bottom	9.80178641e-01	1.00966667e+02	6.92019605e+01
426             	bottom	9.77982875e-01	1.00966657e+02	6.92015726e+01
427             	bottom	9.75792255e-01	1.00966647e+02	6.92014105e+01
428             	bottom	9.73606520e-01	1.00966637e+02	6.92010171e+01
429             	bottom	9.71425906e-01	1.00966627e+02	6.92008631e+01
430             	bottom	9.69250155e-01	1.00966617e+02	6.92004641e+01
431             	bottom	9.67079504e-01	1.00966607e+02	6.92003182e+01
432             	bottom	9.64913692e-01	1.00966597e+02	6.91999137e+01