#      distance           pMean         UMean_x         UMean_y         UMean_z         nutMean wallShearStr... wallShearStr... wallShearStr...
  3.0219182e-06   1.4834509e-05    0.0055993145    -3.42686e-12   2.5448782e-39   6.2351462e-35               0               0               0
  5.0865428e-06   1.4834509e-05    0.0093914516  -8.2839736e-12  -8.7995657e-40   1.5086149e-35               0               0               0
  7.2269684e-06   1.4834509e-05     0.013286574   -1.575439e-11  -2.7702812e-39   2.3318779e-36               0               0               0
  9.4750924e-06   1.4834509e-05     0.017333146  -2.6241982e-11   -1.964001e-39   2.3284231e-37               0               0               0
  1.1864417e-05   1.4834508e-05     0.021581472  -4.0319378e-11               0   2.4209576e-37               0               0               0
  1.4430548e-05   1.4834508e-05     0.026084212  -5.8766517e-11               0   3.9772512e-37               0               0               0
  1.7211727e-05   1.4834508e-05     0.030896978   -8.259316e-11   6.3458111e-38   8.5241451e-37               0               0               0
  2.0249401e-05   1.4834508e-05     0.036078992  -1.1307428e-10   5.7675569e-38   2.5119628e-36               0               0               0
  2.3588836e-05   1.4834507e-05     0.041693787  -1.5179519e-10   4.9209608e-38   1.0199578e-35               0               0               0
  2.7279799e-05   1.4834507e-05      0.04780993  -2.0069816e-10   -5.210703e-39   5.8448788e-35               0               0               0
  3.1377293e-05   1.4834507e-05     0.054501761  -2.6212485e-10  -1.4307258e-37   4.5428421e-34               0               0               0
  3.5942381e-05   1.4834506e-05     0.061850113  -3.3884572e-10  -8.2869726e-38   4.4563765e-33               0               0               0
  4.1043091e-05   1.4834506e-05     0.069943006  -4.3406317e-10   6.9292073e-38   5.3171568e-32               0               0               0
  4.6755437e-05   1.4834506e-05     0.078876283  -5.5137008e-10   1.8550749e-37   7.7362668e-31               0               0               0
  5.3164546e-05   1.4834505e-05     0.088754154  -6.9463953e-10    2.620047e-38   1.3996158e-29               0               0               0
  6.0365928e-05   1.4834505e-05     0.099689603  -8.6781708e-10  -2.1480015e-37    3.105977e-28               0               0               0
    6.84669e-05   1.4834505e-05      0.11180461  -1.0745849e-09   -1.247852e-37    2.180776e-27               0               0               0
  7.7588184e-05   1.4834505e-05      0.12523011   -1.317869e-09               0   5.2815083e-27               0               0               0
   8.786571e-05   1.4834505e-05      0.14010564  -1.5991666e-09  -1.0224536e-37   5.2764671e-27               0               0               0
  9.9452634e-05   1.4834506e-05      0.15657845   -1.917679e-09   2.9325534e-39   2.2245194e-27               0               0               0
  0.00011252163   1.4834507e-05      0.17480216  -2.2692415e-09   1.0517791e-37   4.0130488e-28               0               0               0
  0.00012726745   1.4834508e-05      0.19493451  -2.6450487e-09   8.5408352e-37   1.4349886e-28               0               0               0
  0.00014390985    1.483451e-05      0.21713433  -3.0301646e-09   1.1893579e-38   2.5235548e-28               0               0               0
  0.00016269684   1.4834514e-05      0.24155718  -3.4018041e-09  -2.3328562e-38   4.7511044e-28               0               0               0
  0.00018390838   1.4834518e-05      0.26834971  -3.7273586e-09   3.3262385e-38   7.4280607e-28               0               0               0
  0.00020786057   1.4834524e-05      0.29764217  -3.9621218e-09    -7.85599e-37   1.5771209e-27               0               0               0
  0.00023491035   1.4834533e-05      0.32953907  -4.0465981e-09               0   6.9417091e-27               0               0               0
  0.00026546084   1.4834544e-05      0.36410748  -3.9030689e-09               0    2.550398e-26               0               0               0
   0.0002999673   1.4834559e-05      0.40136295   -3.430564e-09               0   9.6501883e-26               0               0               0
  0.00033894396    1.483458e-05      0.44125298  -2.4962685e-09               0   3.4470129e-25               0               0               0
  0.00038297165   1.4834607e-05      0.48363836  -9.1934309e-10               0   1.2809661e-24               0               0               0
  0.00043270649   1.4834642e-05      0.52827295   1.5602627e-09               0   6.2416944e-24               0               0               0
  0.00048888965   1.4834687e-05       0.5747834   5.3404664e-09               0   2.4253059e-23               0               0               0
  0.00055235838   1.4834746e-05      0.62265103   1.1062535e-08               0   7.2025563e-23               0               0               0
   0.0006240585   1.4834821e-05      0.67119904   1.9791632e-08               0   1.7595035e-22               0               0               0
  0.00070505852   1.4834917e-05      0.71959015   3.3312011e-08               0   3.7570247e-22               0               0               0
  0.00079656552    1.483504e-05      0.76684025   5.4588983e-08               0   7.3265664e-22               0               0               0
  0.00089994316   1.4835197e-05      0.81185498   8.8451918e-08               0   1.3423927e-21               0               0               0
    0.001016732   1.4835398e-05      0.85349531   1.4250575e-07               0   2.3421441e-21               0               0               0
   0.0011486725   1.4835658e-05      0.89067495   2.2808948e-07               0    3.875029e-21               0               0               0
   0.0012977308   1.4835997e-05      0.92248557    3.606327e-07               0   5.9261374e-21               0               0               0
   0.0014661282   1.4836443e-05      0.94833445   5.5797338e-07               0   8.0151535e-21               0               0               0
   0.0016563743   1.4837031e-05      0.96806544   8.3460855e-07               0    9.190655e-21               0               0               0
   0.0018713042   1.4837796e-05      0.98202331   1.1910226e-06               0   8.8899876e-21               0               0               0
   0.0021141207    1.483877e-05      0.99102272   1.6022621e-06               0   7.5897106e-21               0               0               0
   0.0023884425   1.4839972e-05      0.99620459   2.0168666e-06               0   6.3584821e-21               0               0               0
   0.0026983575   1.4841406e-05      0.99880489   2.3761293e-06               0   8.2086104e-21               0               0               0
   0.0030484842    1.484307e-05      0.99991006   2.6452545e-06   4.0531867e-37   5.3389691e-20               0               0               0
   0.0034440402   1.4844972e-05       1.0002952   2.8297205e-06   6.0803542e-37   1.3241956e-18               0               0               0
   0.0038909203   1.4847124e-05       1.0004013   2.9618706e-06  -1.1504929e-37   6.1085035e-17               0               0               0
    0.004395784   1.4849553e-05       1.0004234   3.0752835e-06  -4.7662869e-37   1.2008454e-16               0               0               0
   0.0049661549    1.485229e-05       1.0004268   3.1907426e-06   2.6561935e-37   6.2583581e-17               0               0               0
   0.0056105328   1.4855372e-05       1.0004273   3.3177575e-06   6.9410234e-37   3.1110313e-18               0               0               0
   0.0063385204   1.4858842e-05       1.0004274    3.460257e-06   -1.912821e-37   1.6790562e-18               0               0               0
   0.0071609664   1.4862746e-05       1.0004275   3.6208374e-06  -5.5864698e-37   1.9158813e-18               0               0               0
   0.0080901272   1.4867136e-05       1.0004275   3.8017045e-06  -9.7744509e-38    2.257126e-18               0               0               0
   0.0091398493   1.4872072e-05       1.0004275   4.0056792e-06               0   2.6177562e-18               0               0               0
    0.010325776   1.4877616e-05       1.0004275   4.2354754e-06               0    2.998678e-18               0               0               0
     0.01166558   1.4883842e-05       1.0004275   4.4947729e-06               0   3.4062503e-18               0               0               0
    0.013179228   1.4890824e-05       1.0004274   4.7869384e-06               0    3.848747e-18               0               0               0
    0.014889277   1.4898659e-05       1.0004274   5.1167131e-06               0   4.3309501e-18               0               0               0
    0.016821209   1.4907429e-05       1.0004273   5.4881872e-06               0   4.8592162e-18               0               0               0
    0.019003816   1.4917258e-05       1.0004272   5.9074366e-06               0   5.4357437e-18               0               0               0
    0.021469624   1.4928238e-05       1.0004271   6.3793781e-06               0   6.0646995e-18               0               0               0
    0.024255377   1.4940534e-05       1.0004269   6.9117998e-06               0   6.7451122e-18               0               0               0
    0.027402591   1.4954237e-05       1.0004268   7.5105509e-06               0   7.4773225e-18               0               0               0
    0.030958166   1.4969571e-05       1.0004266   8.1855883e-06   1.0971371e-36    8.254941e-18               0               0               0
    0.034975088   1.4986622e-05       1.0004263   8.9437496e-06   1.2231445e-36   9.0706667e-18               0               0               0
    0.039513219   1.5005701e-05        1.000426   9.7976762e-06  -8.4512767e-37   9.9088884e-18               0               0               0
    0.044640187   1.5026872e-05       1.0004257   1.0755151e-05  -9.7113502e-37   1.0749115e-17               0               0               0
    0.050432395   1.5050582e-05       1.0004253   1.1832039e-05   4.0402807e-37   1.1562123e-17               0               0               0
    0.056976161   1.5076856e-05       1.0004247    1.303683e-05   2.4835452e-37   1.2308249e-17               0               0               0
    0.064369002   1.5106349e-05       1.0004241   1.4389059e-05   1.9804638e-37   1.2942363e-17               0               0               0
    0.072721087   1.5139031e-05       1.0004234    1.589728e-05    4.148836e-37   1.3404906e-17               0               0               0
    0.082156882   1.5175862e-05       1.0004224   1.7584713e-05  -4.1016775e-37   1.3644272e-17               0               0               0
    0.092817002   1.5216768e-05       1.0004213    1.945846e-05  -4.7132887e-37   1.3600424e-17               0               0               0
