# y+ ()         
# Time          	patch           	min             	max             	average         
0               	lowerWall	1.66077422e-01	1.66077422e-01	1.66077422e-01
