# Selection         : all 
# Volume            : 1.395979868100e-03
# Time              	max(p)	location	cell	max(k)	location	cell	max(omega)	location	cell	max(nut)	location	cell	max(epsilon)	max(nuTilda)
0                   	0.000000000000e+00	(4.000000000000e-02 5.605608193476e-03 1.000000000000e-01)	0	1.500000000000e-04	(4.000000000000e-02 5.605608193476e-03 1.000000000000e-01)	0	7.500000000000e+00	(4.000000000000e-02 5.605608193476e-03 1.000000000000e-01)	0	2.000000000000e-05	(4.000000000000e-02 5.605608193476e-03 1.000000000000e-01)	0
1                   	5.948150069119e-01	(4.000000000000e-02 9.956494065743e-02 1.000000000000e-01)	29	1.065103868119e-02	(4.000000000000e-02 9.956494065743e-02 1.000000000000e-01)	29	9.077691240894e+03	(2.360000000000e+00 9.956494065743e-02 1.000000000000e-01)	899	2.117590996867e-05	(7.960000000000e+00 1.270066360871e-02 1.000000000000e-01)	2971
2                   	6.109447823295e-01	(4.000000000000e-02 9.956494065743e-02 1.000000000000e-01)	29	1.414193684283e-03	(4.000000000000e-02 9.956494065743e-02 1.000000000000e-01)	29	9.077691240894e+03	(2.360000000000e+00 9.956494065743e-02 1.000000000000e-01)	899	5.240578024478e-04	(4.000000000000e-02 8.672354953835e-02 1.000000000000e-01)	19
3                   	5.055785878340e-01	(4.000000000000e-02 9.956494065743e-02 1.000000000000e-01)	29	2.887972169771e-04	(4.000000000000e-02 9.868946523832e-02 1.000000000000e-01)	28	9.077691240894e+03	(2.360000000000e+00 9.956494065743e-02 1.000000000000e-01)	899	3.083481492075e-05	(1.200000000000e-01 8.478723090457e-02 1.000000000000e-01)	48
4                   	4.558792595772e-01	(4.000000000000e-02 9.956494065743e-02 1.000000000000e-01)	29	2.292398032394e-04	(2.000000000000e-01 9.671553434398e-02 1.000000000000e-01)	86	9.077691240894e+03	(2.360000000000e+00 9.956494065743e-02 1.000000000000e-01)	899	5.011592753410e-05	(4.000000000000e-02 9.016425328551e-02 1.000000000000e-01)	21
5                   	4.481700343012e-01	(4.000000000000e-02 9.956494065743e-02 1.000000000000e-01)	29	2.430370396335e-04	(2.800000000000e-01 9.560463532282e-02 1.000000000000e-01)	115	9.077691240894e+03	(2.360000000000e+00 9.956494065743e-02 1.000000000000e-01)	899	2.510189595111e-05	(7.960000000000e+00 5.605608193476e-03 1.000000000000e-01)	2970
6                   	4.495075591912e-01	(4.000000000000e-02 9.956494065743e-02 1.000000000000e-01)	29	2.807409023142e-04	(2.800000000000e-01 9.560463532282e-02 1.000000000000e-01)	115	9.077691240894e+03	(2.360000000000e+00 9.956494065743e-02 1.000000000000e-01)	899	2.651517843336e-05	(7.960000000000e+00 5.605608193476e-03 1.000000000000e-01)	2970
7                   	4.523906255559e-01	(4.000000000000e-02 9.956494065743e-02 1.000000000000e-01)	29	3.325984367686e-04	(4.400000000000e-01 9.440195554410e-02 1.000000000000e-01)	174	9.077691240894e+03	(2.360000000000e+00 9.956494065743e-02 1.000000000000e-01)	899	2.784377897296e-05	(7.960000000000e+00 5.605608193476e-03 1.000000000000e-01)	2970
8                   	4.551033197763e-01	(4.000000000000e-02 9.956494065743e-02 1.000000000000e-01)	29	4.033700385707e-04	(4.400000000000e-01 9.440195554410e-02 1.000000000000e-01)	174	9.077691240894e+03	(2.360000000000e+00 9.956494065743e-02 1.000000000000e-01)	899	2.896759435582e-05	(7.960000000000e+00 5.605608193476e-03 1.000000000000e-01)	2970
9                   	4.588756262379e-01	(4.000000000000e-02 9.956494065743e-02 1.000000000000e-01)	29	4.885373702180e-04	(6.800000000000e-01 9.309991496569e-02 1.000000000000e-01)	263	9.077691240894e+03	(2.360000000000e+00 9.956494065743e-02 1.000000000000e-01)	899	2.975729054524e-05	(7.960000000000e+00 5.605608193476e-03 1.000000000000e-01)	2970
10                  	4.631409576518e-01	(4.000000000000e-02 9.956494065743e-02 1.000000000000e-01)	29	6.078372712163e-04	(7.600000000000e-01 9.309991496569e-02 1.000000000000e-01)	293	9.077691240894e+03	(2.360000000000e+00 9.956494065743e-02 1.000000000000e-01)	899	3.009838587615e-05	(7.960000000000e+00 5.605608193476e-03 1.000000000000e-01)	2970
11                  	4.681593500775e-01	(4.000000000000e-02 9.956494065743e-02 1.000000000000e-01)	29	7.597203542082e-04	(3.000000000000e+00 9.169030822923e-02 1.000000000000e-01)	1132	9.077691240894e+03	(2.360000000000e+00 9.956494065743e-02 1.000000000000e-01)	899	2.991759555962e-05	(7.960000000000e+00 5.605608193476e-03 1.000000000000e-01)	2970
12                  	4.736407629459e-01	(4.000000000000e-02 9.956494065743e-02 1.000000000000e-01)	29	9.811989429746e-04	(7.880000000000e+00 9.016425328551e-02 1.000000000000e-01)	2961	9.077691240894e+03	(2.360000000000e+00 9.956494065743e-02 1.000000000000e-01)	899	2.919823319539e-05	(7.960000000000e+00 5.605608193476e-03 1.000000000000e-01)	2970
13                  	4.798538224384e-01	(4.000000000000e-02 9.956494065743e-02 1.000000000000e-01)	29	1.259438691562e-03	(7.880000000000e+00 9.016425328551e-02 1.000000000000e-01)	2961	9.077691240894e+03	(2.360000000000e+00 9.956494065743e-02 1.000000000000e-01)	899	2.798519590829e-05	(7.960000000000e+00 5.605608193476e-03 1.000000000000e-01)	2970
14                  	4.867971871337e-01	(4.000000000000e-02 9.956494065743e-02 1.000000000000e-01)	29	1.597773963991e-03	(7.880000000000e+00 9.016425328551e-02 1.000000000000e-01)	2961	9.077691240894e+03	(2.360000000000e+00 9.956494065743e-02 1.000000000000e-01)	899	2.638223386656e-05	(7.960000000000e+00 5.605608193476e-03 1.000000000000e-01)	2970
15                  	4.949978365026e-01	(4.000000000000e-02 9.956494065743e-02 1.000000000000e-01)	29	2.026635999890e-03	(7.960000000000e+00 8.851213587209e-02 1.000000000000e-01)	2990	9.077691240894e+03	(2.360000000000e+00 9.956494065743e-02 1.000000000000e-01)	899	2.454130926188e-05	(7.960000000000e+00 5.605608193476e-03 1.000000000000e-01)	2970
16                  	5.047973191647e-01	(4.000000000000e-02 9.956494065743e-02 1.000000000000e-01)	29	2.536017390471e-03	(7.960000000000e+00 8.851213587209e-02 1.000000000000e-01)	2990	9.077691240894e+03	(2.360000000000e+00 9.956494065743e-02 1.000000000000e-01)	899	2.536899986949e-05	(7.960000000000e+00 8.042163427956e-02 1.000000000000e-01)	2986
17                  	5.159356088083e-01	(4.000000000000e-02 9.956494065743e-02 1.000000000000e-01)	29	3.118322093599e-03	(7.960000000000e+00 8.851213587209e-02 1.000000000000e-01)	2990	9.077691240894e+03	(2.360000000000e+00 9.956494065743e-02 1.000000000000e-01)	899	3.288244534419e-05	(7.960000000000e+00 8.269098984244e-02 1.000000000000e-01)	2987
18                  	5.284833388246e-01	(4.000000000000e-02 9.956494065743e-02 1.000000000000e-01)	29	3.762936891262e-03	(7.960000000000e+00 8.851213587209e-02 1.000000000000e-01)	2990	9.077691240894e+03	(2.360000000000e+00 9.956494065743e-02 1.000000000000e-01)	899	4.237160075714e-05	(7.960000000000e+00 8.269098984244e-02 1.000000000000e-01)	2987
19                  	5.422318562799e-01	(4.000000000000e-02 9.956494065743e-02 1.000000000000e-01)	29	4.486338940654e-03	(7.960000000000e+00 8.672354953835e-02 1.000000000000e-01)	2989	9.077691240894e+03	(2.360000000000e+00 9.956494065743e-02 1.000000000000e-01)	899	5.396069675482e-05	(7.960000000000e+00 8.269098984244e-02 1.000000000000e-01)	2987
20                  	5.575430230271e-01	(4.000000000000e-02 9.956494065743e-02 1.000000000000e-01)	29	5.241417238039e-03	(7.960000000000e+00 8.672354953835e-02 1.000000000000e-01)	2989	9.077691240894e+03	(2.360000000000e+00 9.956494065743e-02 1.000000000000e-01)	899	6.798358177901e-05	(7.960000000000e+00 8.042163427956e-02 1.000000000000e-01)	2986
21                  	5.744936931316e-01	(4.000000000000e-02 9.956494065743e-02 1.000000000000e-01)	29	5.995343800406e-03	(7.960000000000e+00 8.672354953835e-02 1.000000000000e-01)	2989	9.077691240894e+03	(2.360000000000e+00 9.956494065743e-02 1.000000000000e-01)	899	8.441253509836e-05	(7.960000000000e+00 8.042163427956e-02 1.000000000000e-01)	2986
22                  	5.930405814711e-01	(4.000000000000e-02 9.956494065743e-02 1.000000000000e-01)	29	6.722378509328e-03	(7.960000000000e+00 8.478723090457e-02 1.000000000000e-01)	2988	9.077691240894e+03	(2.360000000000e+00 9.956494065743e-02 1.000000000000e-01)	899	1.028725625756e-04	(7.960000000000e+00 8.042163427956e-02 1.000000000000e-01)	2986
23                  	6.130021563968e-01	(4.000000000000e-02 9.956494065743e-02 1.000000000000e-01)	29	7.448896117975e-03	(7.960000000000e+00 8.478723090457e-02 1.000000000000e-01)	2988	9.077691240894e+03	(2.360000000000e+00 9.956494065743e-02 1.000000000000e-01)	899	1.232722712636e-04	(7.960000000000e+00 7.796488937169e-02 1.000000000000e-01)	2985
24                  	6.341142906131e-01	(4.000000000000e-02 9.956494065743e-02 1.000000000000e-01)	29	8.111491195510e-03	(7.960000000000e+00 8.478723090457e-02 1.000000000000e-01)	2988	9.077691240894e+03	(2.360000000000e+00 9.956494065743e-02 1.000000000000e-01)	899	1.459830112113e-04	(7.960000000000e+00 7.796488937169e-02 1.000000000000e-01)	2985
25                  	6.559514044898e-01	(4.000000000000e-02 9.956494065743e-02 1.000000000000e-01)	29	8.699800735479e-03	(7.960000000000e+00 8.269098984244e-02 1.000000000000e-01)	2987	9.077691240894e+03	(2.360000000000e+00 9.956494065743e-02 1.000000000000e-01)	899	1.695466607415e-04	(7.960000000000e+00 7.796488937169e-02 1.000000000000e-01)	2985
26                  	6.778592154234e-01	(4.000000000000e-02 9.956494065743e-02 1.000000000000e-01)	29	9.249623912943e-03	(7.960000000000e+00 8.269098984244e-02 1.000000000000e-01)	2987	9.077691240894e+03	(2.360000000000e+00 9.956494065743e-02 1.000000000000e-01)	899	1.953123017413e-04	(7.960000000000e+00 7.530531087350e-02 1.000000000000e-01)	2984
27                  	6.992772800113e-01	(4.000000000000e-02 9.956494065743e-02 1.000000000000e-01)	29	9.712137647151e-03	(7.960000000000e+00 8.269098984244e-02 1.000000000000e-01)	2987	9.077691240894e+03	(2.360000000000e+00 9.956494065743e-02 1.000000000000e-01)	899	2.216020701950e-04	(7.960000000000e+00 7.530531087350e-02 1.000000000000e-01)	2984
28                  	7.197097535290e-01	(4.000000000000e-02 9.956494065743e-02 1.000000000000e-01)	29	1.013660231752e-02	(7.960000000000e+00 8.042163427956e-02 1.000000000000e-01)	2986	9.077691240894e+03	(2.360000000000e+00 9.956494065743e-02 1.000000000000e-01)	899	2.493518678291e-04	(7.960000000000e+00 7.242619270681e-02 1.000000000000e-01)	2983
29                  	7.387185859868e-01	(4.000000000000e-02 9.956494065743e-02 1.000000000000e-01)	29	1.049931104010e-02	(7.960000000000e+00 8.042163427956e-02 1.000000000000e-01)	2986	9.077691240894e+03	(2.360000000000e+00 9.956494065743e-02 1.000000000000e-01)	899	2.778248346649e-04	(7.960000000000e+00 7.242619270681e-02 1.000000000000e-01)	2983
30                  	7.558436289110e-01	(4.000000000000e-02 9.956494065743e-02 1.000000000000e-01)	29	1.083342686854e-02	(7.960000000000e+00 7.796488937169e-02 1.000000000000e-01)	2985	9.077691240894e+03	(2.360000000000e+00 9.956494065743e-02 1.000000000000e-01)	899	3.064771189163e-04	(7.960000000000e+00 6.930946904294e-02 1.000000000000e-01)	2982
31                  	7.707639027734e-01	(4.000000000000e-02 9.956494065743e-02 1.000000000000e-01)	29	1.112941020120e-02	(7.960000000000e+00 7.796488937169e-02 1.000000000000e-01)	2985	9.077691240894e+03	(2.360000000000e+00 9.956494065743e-02 1.000000000000e-01)	899	3.342754135709e-04	(7.960000000000e+00 6.593561181440e-02 1.000000000000e-01)	2981
32                  	7.832197716668e-01	(4.000000000000e-02 9.956494065743e-02 1.000000000000e-01)	29	1.140102482029e-02	(7.960000000000e+00 7.530531087350e-02 1.000000000000e-01)	2984	9.077691240894e+03	(2.360000000000e+00 9.956494065743e-02 1.000000000000e-01)	899	3.614944270918e-04	(7.960000000000e+00 6.593561181440e-02 1.000000000000e-01)	2981
33                  	7.929182846306e-01	(4.000000000000e-02 9.956494065743e-02 1.000000000000e-01)	29	1.164585529432e-02	(7.960000000000e+00 7.530531087350e-02 1.000000000000e-01)	2984	9.077691240894e+03	(2.360000000000e+00 9.956494065743e-02 1.000000000000e-01)	899	3.907504302498e-04	(7.960000000000e+00 6.228352572410e-02 1.000000000000e-01)	2980
34                  	7.997169103730e-01	(4.000000000000e-02 9.956494065743e-02 1.000000000000e-01)	29	1.186064766644e-02	(7.960000000000e+00 7.242619270681e-02 1.000000000000e-01)	2983	9.077691240894e+03	(2.360000000000e+00 9.956494065743e-02 1.000000000000e-01)	899	4.188323092719e-04	(7.960000000000e+00 6.228352572410e-02 1.000000000000e-01)	2980
35                  	8.035937297761e-01	(4.000000000000e-02 9.956494065743e-02 1.000000000000e-01)	29	1.205332004654e-02	(7.960000000000e+00 7.242619270681e-02 1.000000000000e-01)	2983	9.077691240894e+03	(2.360000000000e+00 9.956494065743e-02 1.000000000000e-01)	899	4.495246948255e-04	(7.960000000000e+00 5.833044511334e-02 1.000000000000e-01)	2979
36                  	8.045766416029e-01	(4.000000000000e-02 9.956494065743e-02 1.000000000000e-01)	29	1.219982771080e-02	(7.960000000000e+00 7.242619270681e-02 1.000000000000e-01)	2983	9.077691240894e+03	(2.360000000000e+00 9.956494065743e-02 1.000000000000e-01)	899	4.786473773902e-04	(7.960000000000e+00 5.405184183248e-02 1.000000000000e-01)	2978
37                  	8.030074127112e-01	(4.000000000000e-02 9.956494065743e-02 1.000000000000e-01)	29	1.232334004211e-02	(7.960000000000e+00 6.930946904294e-02 1.000000000000e-01)	2982	9.077691240894e+03	(2.360000000000e+00 9.956494065743e-02 1.000000000000e-01)	899	5.087526938763e-04	(7.960000000000e+00 5.405184183248e-02 1.000000000000e-01)	2978
38                  	7.992052734576e-01	(4.000000000000e-02 9.956494065743e-02 1.000000000000e-01)	29	1.240233063590e-02	(7.960000000000e+00 6.930946904294e-02 1.000000000000e-01)	2982	9.077691240894e+03	(2.360000000000e+00 9.956494065743e-02 1.000000000000e-01)	899	5.375766012535e-04	(7.960000000000e+00 4.942136386056e-02 1.000000000000e-01)	2977
39                  	7.936814258914e-01	(4.000000000000e-02 9.956494065743e-02 1.000000000000e-01)	29	1.243383826522e-02	(7.960000000000e+00 6.930946904294e-02 1.000000000000e-01)	2982	9.077691240894e+03	(2.360000000000e+00 9.956494065743e-02 1.000000000000e-01)	899	5.656292906485e-04	(7.960000000000e+00 4.942136386056e-02 1.000000000000e-01)	2977
40                  	7.869999486219e-01	(4.000000000000e-02 9.956494065743e-02 1.000000000000e-01)	29	1.242113394183e-02	(7.960000000000e+00 6.930946904294e-02 1.000000000000e-01)	2982	9.077691240894e+03	(2.360000000000e+00 9.956494065743e-02 1.000000000000e-01)	899	5.919776895871e-04	(7.960000000000e+00 4.441084981549e-02 1.000000000000e-01)	2976
41                  	7.797465499060e-01	(4.000000000000e-02 9.956494065743e-02 1.000000000000e-01)	29	1.236776941495e-02	(7.960000000000e+00 6.930946904294e-02 1.000000000000e-01)	2982	9.077691240894e+03	(2.360000000000e+00 9.956494065743e-02 1.000000000000e-01)	899	6.164733268567e-04	(7.960000000000e+00 4.441084981549e-02 1.000000000000e-01)	2976
42                  	7.724102884694e-01	(4.000000000000e-02 9.956494065743e-02 1.000000000000e-01)	29	1.227762262194e-02	(7.960000000000e+00 6.930946904294e-02 1.000000000000e-01)	2982	9.077691240894e+03	(2.360000000000e+00 9.956494065743e-02 1.000000000000e-01)	899	6.379539675276e-04	(7.960000000000e+00 3.899053164204e-02 1.000000000000e-01)	2975
43                  	7.654065067170e-01	(4.000000000000e-02 9.956494065743e-02 1.000000000000e-01)	29	1.215478638990e-02	(7.960000000000e+00 6.930946904294e-02 1.000000000000e-01)	2982	9.077691240894e+03	(2.360000000000e+00 9.956494065743e-02 1.000000000000e-01)	899	6.572163510655e-04	(7.960000000000e+00 3.899053164204e-02 1.000000000000e-01)	2975
44                  	7.590144933853e-01	(4.000000000000e-02 9.956494065743e-02 1.000000000000e-01)	29	1.200346376695e-02	(7.960000000000e+00 6.930946904294e-02 1.000000000000e-01)	2982	9.077691240894e+03	(2.360000000000e+00 9.956494065743e-02 1.000000000000e-01)	899	6.714512769846e-04	(7.960000000000e+00 3.899053164204e-02 1.000000000000e-01)	2975
45                  	7.533787527635e-01	(4.000000000000e-02 9.956494065743e-02 1.000000000000e-01)	29	1.182773456706e-02	(7.960000000000e+00 6.930946904294e-02 1.000000000000e-01)	2982	9.077691240894e+03	(2.360000000000e+00 9.956494065743e-02 1.000000000000e-01)	899	6.834262882054e-04	(7.960000000000e+00 3.312973965551e-02 1.000000000000e-01)	2974
46                  	7.484651800443e-01	(4.000000000000e-02 9.956494065743e-02 1.000000000000e-01)	29	1.163726377082e-02	(7.960000000000e+00 7.242619270681e-02 1.000000000000e-01)	2983	9.077691240894e+03	(2.360000000000e+00 9.956494065743e-02 1.000000000000e-01)	899	6.902867279348e-04	(7.960000000000e+00 3.312973965551e-02 1.000000000000e-01)	2974
47                  	7.441555343924e-01	(4.000000000000e-02 9.956494065743e-02 1.000000000000e-01)	29	1.144392529671e-02	(7.960000000000e+00 7.242619270681e-02 1.000000000000e-01)	2983	9.077691240894e+03	(2.360000000000e+00 9.956494065743e-02 1.000000000000e-01)	899	6.925428931321e-04	(7.960000000000e+00 3.312973965551e-02 1.000000000000e-01)	2974
48                  	7.403444520780e-01	(4.000000000000e-02 9.956494065743e-02 1.000000000000e-01)	29	1.123909262082e-02	(7.960000000000e+00 7.242619270681e-02 1.000000000000e-01)	2983	9.077691240894e+03	(2.360000000000e+00 9.956494065743e-02 1.000000000000e-01)	899	6.913598170260e-04	(7.960000000000e+00 2.679914685521e-02 1.000000000000e-01)	2973
49                  	7.369551806562e-01	(4.000000000000e-02 9.956494065743e-02 1.000000000000e-01)	29	1.104488622338e-02	(7.960000000000e+00 7.530531087350e-02 1.000000000000e-01)	2984	9.077691240894e+03	(2.360000000000e+00 9.956494065743e-02 1.000000000000e-01)	899	6.869816292505e-04	(7.960000000000e+00 2.679914685521e-02 1.000000000000e-01)	2973
50                  	7.339315236238e-01	(4.000000000000e-02 9.956494065743e-02 1.000000000000e-01)	29	1.084897554692e-02	(7.960000000000e+00 7.530531087350e-02 1.000000000000e-01)	2984	9.077691240894e+03	(2.360000000000e+00 9.956494065743e-02 1.000000000000e-01)	899	6.796075424500e-04	(7.960000000000e+00 2.679914685521e-02 1.000000000000e-01)	2973
51                  	7.312463842270e-01	(4.000000000000e-02 9.956494065743e-02 1.000000000000e-01)	29	1.067261741968e-02	(7.960000000000e+00 7.796488937169e-02 1.000000000000e-01)	2985	9.077691240894e+03	(2.360000000000e+00 9.956494065743e-02 1.000000000000e-01)	899	6.699328168822e-04	(7.960000000000e+00 2.679914685521e-02 1.000000000000e-01)	2973
52                  	7.288501705497e-01	(4.000000000000e-02 9.956494065743e-02 1.000000000000e-01)	29	1.050326741762e-02	(7.960000000000e+00 8.042163427956e-02 1.000000000000e-01)	2986	9.077691240894e+03	(2.360000000000e+00 9.956494065743e-02 1.000000000000e-01)	899	6.585864706549e-04	(7.960000000000e+00 2.679914685521e-02 1.000000000000e-01)	2973
53                  	7.267106521568e-01	(4.000000000000e-02 9.956494065743e-02 1.000000000000e-01)	29	1.035107543250e-02	(7.960000000000e+00 8.042163427956e-02 1.000000000000e-01)	2986	9.077691240894e+03	(2.360000000000e+00 9.956494065743e-02 1.000000000000e-01)	899	6.461225712624e-04	(7.960000000000e+00 2.679914685521e-02 1.000000000000e-01)	2973
54                  	7.248029113276e-01	(4.000000000000e-02 9.956494065743e-02 1.000000000000e-01)	29	1.021442780494e-02	(7.960000000000e+00 8.269098984244e-02 1.000000000000e-01)	2987	9.077691240894e+03	(2.360000000000e+00 9.956494065743e-02 1.000000000000e-01)	899	6.330183754045e-04	(7.960000000000e+00 2.679914685521e-02 1.000000000000e-01)	2973
55                  	7.231181936469e-01	(4.000000000000e-02 9.956494065743e-02 1.000000000000e-01)	29	1.009001194675e-02	(7.960000000000e+00 8.269098984244e-02 1.000000000000e-01)	2987	9.077691240894e+03	(2.360000000000e+00 9.956494065743e-02 1.000000000000e-01)	899	6.196769373241e-04	(7.960000000000e+00 2.679914685521e-02 1.000000000000e-01)	2973
56                  	7.216431553395e-01	(4.000000000000e-02 9.956494065743e-02 1.000000000000e-01)	29	9.982263731072e-03	(7.960000000000e+00 8.478723090457e-02 1.000000000000e-01)	2988	9.077691240894e+03	(2.360000000000e+00 9.956494065743e-02 1.000000000000e-01)	899	6.065023519663e-04	(7.960000000000e+00 3.312973965551e-02 1.000000000000e-01)	2974
57                  	7.203647038833e-01	(4.000000000000e-02 9.956494065743e-02 1.000000000000e-01)	29	9.886329332020e-03	(7.960000000000e+00 8.478723090457e-02 1.000000000000e-01)	2988	9.077691240894e+03	(2.360000000000e+00 9.956494065743e-02 1.000000000000e-01)	899	5.940266310227e-04	(7.960000000000e+00 3.312973965551e-02 1.000000000000e-01)	2974
58                  	7.192672717213e-01	(4.000000000000e-02 9.956494065743e-02 1.000000000000e-01)	29	9.796892714497e-03	(7.960000000000e+00 8.478723090457e-02 1.000000000000e-01)	2988	9.077691240894e+03	(2.360000000000e+00 9.956494065743e-02 1.000000000000e-01)	899	5.821159094909e-04	(7.960000000000e+00 3.312973965551e-02 1.000000000000e-01)	2974
59                  	7.183431529114e-01	(4.000000000000e-02 9.956494065743e-02 1.000000000000e-01)	29	9.724281796431e-03	(7.960000000000e+00 8.672354953835e-02 1.000000000000e-01)	2989	9.077691240894e+03	(2.360000000000e+00 9.956494065743e-02 1.000000000000e-01)	899	5.709240155240e-04	(7.960000000000e+00 3.312973965551e-02 1.000000000000e-01)	2974
60                  	7.175821306144e-01	(4.000000000000e-02 9.956494065743e-02 1.000000000000e-01)	29	9.660792967738e-03	(7.960000000000e+00 8.672354953835e-02 1.000000000000e-01)	2989	9.077691240894e+03	(2.360000000000e+00 9.956494065743e-02 1.000000000000e-01)	899	5.605649279589e-04	(7.960000000000e+00 3.312973965551e-02 1.000000000000e-01)	2974
61                  	7.169694620867e-01	(4.000000000000e-02 9.956494065743e-02 1.000000000000e-01)	29	9.603995204244e-03	(7.960000000000e+00 8.672354953835e-02 1.000000000000e-01)	2989	9.077691240894e+03	(2.360000000000e+00 9.956494065743e-02 1.000000000000e-01)	899	5.511196940324e-04	(7.960000000000e+00 3.312973965551e-02 1.000000000000e-01)	2974
62                  	7.164904020826e-01	(4.000000000000e-02 9.956494065743e-02 1.000000000000e-01)	29	9.553986703007e-03	(7.960000000000e+00 8.672354953835e-02 1.000000000000e-01)	2989	9.077691240894e+03	(2.360000000000e+00 9.956494065743e-02 1.000000000000e-01)	899	5.426396588507e-04	(7.960000000000e+00 3.312973965551e-02 1.000000000000e-01)	2974
63                  	7.161311597124e-01	(4.000000000000e-02 9.956494065743e-02 1.000000000000e-01)	29	9.510726994416e-03	(7.960000000000e+00 8.672354953835e-02 1.000000000000e-01)	2989	9.077691240894e+03	(2.360000000000e+00 9.956494065743e-02 1.000000000000e-01)	899	5.351464848351e-04	(7.960000000000e+00 3.312973965551e-02 1.000000000000e-01)	2974
64                  	7.158771280582e-01	(4.000000000000e-02 9.956494065743e-02 1.000000000000e-01)	29	9.474053489727e-03	(7.960000000000e+00 8.672354953835e-02 1.000000000000e-01)	2989	9.077691240894e+03	(2.360000000000e+00 9.956494065743e-02 1.000000000000e-01)	899	5.286311669200e-04	(7.960000000000e+00 3.312973965551e-02 1.000000000000e-01)	2974
65                  	7.157131610850e-01	(4.000000000000e-02 9.956494065743e-02 1.000000000000e-01)	29	9.446695811121e-03	(7.240000000000e+00 8.672354953835e-02 1.000000000000e-01)	2719	9.077691240894e+03	(2.360000000000e+00 9.956494065743e-02 1.000000000000e-01)	899	5.230589430253e-04	(7.960000000000e+00 3.312973965551e-02 1.000000000000e-01)	2974
66                  	7.156244254387e-01	(4.000000000000e-02 9.956494065743e-02 1.000000000000e-01)	29	9.433351377048e-03	(7.000000000000e+00 8.672354953835e-02 1.000000000000e-01)	2629	9.077691240894e+03	(2.360000000000e+00 9.956494065743e-02 1.000000000000e-01)	899	5.183763099829e-04	(7.960000000000e+00 3.312973965551e-02 1.000000000000e-01)	2974
67                  	7.155981378826e-01	(4.000000000000e-02 9.956494065743e-02 1.000000000000e-01)	29	9.425802415441e-03	(6.840000000000e+00 8.672354953835e-02 1.000000000000e-01)	2569	9.077691240894e+03	(2.360000000000e+00 9.956494065743e-02 1.000000000000e-01)	899	5.145171888550e-04	(7.960000000000e+00 3.312973965551e-02 1.000000000000e-01)	2974
68                  	7.156206539988e-01	(4.000000000000e-02 9.956494065743e-02 1.000000000000e-01)	29	9.422174068888e-03	(6.760000000000e+00 8.672354953835e-02 1.000000000000e-01)	2539	9.077691240894e+03	(2.360000000000e+00 9.956494065743e-02 1.000000000000e-01)	899	5.114072824067e-04	(7.960000000000e+00 3.312973965551e-02 1.000000000000e-01)	2974
69                  	7.156800818229e-01	(4.000000000000e-02 9.956494065743e-02 1.000000000000e-01)	29	9.421435324141e-03	(6.760000000000e+00 8.672354953835e-02 1.000000000000e-01)	2539	9.077691240894e+03	(2.360000000000e+00 9.956494065743e-02 1.000000000000e-01)	899	5.089673893415e-04	(7.960000000000e+00 3.312973965551e-02 1.000000000000e-01)	2974
70                  	7.157661283861e-01	(4.000000000000e-02 9.956494065743e-02 1.000000000000e-01)	29	9.422520005684e-03	(6.760000000000e+00 8.672354953835e-02 1.000000000000e-01)	2539	9.077691240894e+03	(2.360000000000e+00 9.956494065743e-02 1.000000000000e-01)	899	5.071161285100e-04	(7.960000000000e+00 3.312973965551e-02 1.000000000000e-01)	2974
71                  	7.158695918672e-01	(4.000000000000e-02 9.956494065743e-02 1.000000000000e-01)	29	9.425066573955e-03	(6.680000000000e+00 8.672354953835e-02 1.000000000000e-01)	2509	9.077691240894e+03	(2.360000000000e+00 9.956494065743e-02 1.000000000000e-01)	899	5.057724622528e-04	(7.960000000000e+00 3.312973965551e-02 1.000000000000e-01)	2974
72                  	7.159827074288e-01	(4.000000000000e-02 9.956494065743e-02 1.000000000000e-01)	29	9.428481283310e-03	(6.680000000000e+00 8.672354953835e-02 1.000000000000e-01)	2509	9.077691240894e+03	(2.360000000000e+00 9.956494065743e-02 1.000000000000e-01)	899	5.048576339863e-04	(7.960000000000e+00 3.312973965551e-02 1.000000000000e-01)	2974
73                  	7.160991824144e-01	(4.000000000000e-02 9.956494065743e-02 1.000000000000e-01)	29	9.432390492186e-03	(6.760000000000e+00 8.672354953835e-02 1.000000000000e-01)	2539	9.077691240894e+03	(2.360000000000e+00 9.956494065743e-02 1.000000000000e-01)	899	5.042967217635e-04	(7.960000000000e+00 3.312973965551e-02 1.000000000000e-01)	2974
74                  	7.162139641417e-01	(4.000000000000e-02 9.956494065743e-02 1.000000000000e-01)	29	9.436651183763e-03	(6.760000000000e+00 8.672354953835e-02 1.000000000000e-01)	2539	9.077691240894e+03	(2.360000000000e+00 9.956494065743e-02 1.000000000000e-01)	899	5.040192527610e-04	(7.960000000000e+00 3.312973965551e-02 1.000000000000e-01)	2974
75                  	7.163230839507e-01	(4.000000000000e-02 9.956494065743e-02 1.000000000000e-01)	29	9.440939069130e-03	(6.760000000000e+00 8.672354953835e-02 1.000000000000e-01)	2539	9.077691240894e+03	(2.360000000000e+00 9.956494065743e-02 1.000000000000e-01)	899	5.039631106936e-04	(7.960000000000e+00 3.312973965551e-02 1.000000000000e-01)	2974
76                  	7.164244418768e-01	(4.000000000000e-02 9.956494065743e-02 1.000000000000e-01)	29	9.445058711888e-03	(6.760000000000e+00 8.672354953835e-02 1.000000000000e-01)	2539	9.077691240894e+03	(2.360000000000e+00 9.956494065743e-02 1.000000000000e-01)	899	5.040724765373e-04	(7.960000000000e+00 3.312973965551e-02 1.000000000000e-01)	2974
77                  	7.165156493586e-01	(4.000000000000e-02 9.956494065743e-02 1.000000000000e-01)	29	9.448884609456e-03	(6.840000000000e+00 8.672354953835e-02 1.000000000000e-01)	2569	9.077691240894e+03	(2.360000000000e+00 9.956494065743e-02 1.000000000000e-01)	899	5.042983673547e-04	(7.960000000000e+00 3.312973965551e-02 1.000000000000e-01)	2974
78                  	7.165959487945e-01	(4.000000000000e-02 9.956494065743e-02 1.000000000000e-01)	29	9.452511466176e-03	(6.840000000000e+00 8.672354953835e-02 1.000000000000e-01)	2569	9.077691240894e+03	(2.360000000000e+00 9.956494065743e-02 1.000000000000e-01)	899	5.045995722742e-04	(7.960000000000e+00 3.312973965551e-02 1.000000000000e-01)	2974
79                  	7.166653903202e-01	(4.000000000000e-02 9.956494065743e-02 1.000000000000e-01)	29	9.455702258549e-03	(6.840000000000e+00 8.672354953835e-02 1.000000000000e-01)	2569	9.077691240894e+03	(2.360000000000e+00 9.956494065743e-02 1.000000000000e-01)	899	5.049424121760e-04	(7.960000000000e+00 3.312973965551e-02 1.000000000000e-01)	2974
80                  	7.167237067092e-01	(4.000000000000e-02 9.956494065743e-02 1.000000000000e-01)	29	9.458425433847e-03	(6.840000000000e+00 8.672354953835e-02 1.000000000000e-01)	2569	9.077691240894e+03	(2.360000000000e+00 9.956494065743e-02 1.000000000000e-01)	899	5.053001997302e-04	(7.960000000000e+00 3.312973965551e-02 1.000000000000e-01)	2974
81                  	7.167716328893e-01	(4.000000000000e-02 9.956494065743e-02 1.000000000000e-01)	29	9.460807484787e-03	(6.920000000000e+00 8.672354953835e-02 1.000000000000e-01)	2599	9.077691240894e+03	(2.360000000000e+00 9.956494065743e-02 1.000000000000e-01)	899	5.056526242225e-04	(7.960000000000e+00 3.312973965551e-02 1.000000000000e-01)	2974
82                  	7.168105652317e-01	(4.000000000000e-02 9.956494065743e-02 1.000000000000e-01)	29	9.462787723132e-03	(6.920000000000e+00 8.672354953835e-02 1.000000000000e-01)	2599	9.077691240894e+03	(2.360000000000e+00 9.956494065743e-02 1.000000000000e-01)	899	5.059851398974e-04	(7.960000000000e+00 3.312973965551e-02 1.000000000000e-01)	2974
83                  	7.168408524525e-01	(4.000000000000e-02 9.956494065743e-02 1.000000000000e-01)	29	9.464350729719e-03	(6.920000000000e+00 8.672354953835e-02 1.000000000000e-01)	2599	9.077691240894e+03	(2.360000000000e+00 9.956494065743e-02 1.000000000000e-01)	899	5.062881784221e-04	(7.960000000000e+00 3.312973965551e-02 1.000000000000e-01)	2974
84                  	7.168638136499e-01	(4.000000000000e-02 9.956494065743e-02 1.000000000000e-01)	29	9.465542365850e-03	(6.920000000000e+00 8.672354953835e-02 1.000000000000e-01)	2599	9.077691240894e+03	(2.360000000000e+00 9.956494065743e-02 1.000000000000e-01)	899	5.065563364765e-04	(7.960000000000e+00 3.312973965551e-02 1.000000000000e-01)	2974