#      distance           pMean         UMean_x         UMean_y         UMean_z         nutMean wallShearStr... wallShearStr... wallShearStr...
  3.0219182e-06   0.00010493894     0.020956212   7.3014979e-08   4.0263021e-39   4.6659709e-13               0               0               0
  5.0865428e-06   0.00010495903     0.035252413   1.1990286e-07   5.0559823e-39   4.2780574e-12               0               0               0
  7.2269684e-06   0.00010498723     0.050045057   1.6927059e-07  -4.6902541e-39    2.386738e-11               0               0               0
  9.4750924e-06   0.00010502316     0.065541393   2.2216858e-07  -9.8738142e-39   9.7152765e-11               0               0               0
  1.1864417e-05   0.00010506603     0.081952401   2.7976346e-07               0   3.1938501e-10               0               0               0
  1.4430548e-05   0.00010511509     0.099486362   3.4335685e-07               0   9.0053538e-10               0               0               0
  1.7211727e-05   0.00010516968      0.11833211   4.1435329e-07   1.0085596e-37   2.2568033e-09               0               0               0
  2.0249401e-05   0.00010522943      0.13862577   4.9413926e-07   9.4185046e-38   5.1297164e-09               0               0               0
  2.3588836e-05   0.00010529429      0.16039894   5.8389375e-07   2.3791108e-37   1.0689417e-08               0               0               0
  2.7279799e-05   0.00010536472      0.18352137   6.8424122e-07  -1.3071249e-38   2.0535847e-08               0               0               0
  3.1377293e-05   0.00010544172      0.20767281   7.9498485e-07  -3.7391468e-37   3.6521157e-08               0               0               0
  3.5942381e-05   0.00010552684       0.2323825   9.1517972e-07  -1.1626143e-37   6.0411609e-08               0               0               0
  4.1043091e-05   0.00010562196      0.25713607   1.0434428e-06   2.6562514e-37    9.359809e-08               0               0               0
  4.6755437e-05   0.00010572911      0.28149437   1.1785711e-06   3.7810567e-37   1.3699837e-07               0               0               0
  5.3164546e-05   0.00010585014      0.30517006   1.3202779e-06  -1.3693691e-37    1.908992e-07               0               0               0
  6.0365928e-05    0.0001059866       0.3280257    1.469412e-06  -3.5934621e-37   2.5591018e-07               0               0               0
    6.84669e-05   0.00010613992      0.34999656   1.6274547e-06  -1.0992877e-37   3.3425627e-07               0               0               0
  7.7588184e-05   0.00010631167      0.37102951    1.796053e-06               0   4.2885379e-07               0               0               0
   8.786571e-05   0.00010650355      0.39108948   1.9770802e-06  -2.1554664e-37   5.4225685e-07               0               0               0
  9.9452634e-05   0.00010671721      0.41018021   2.1728768e-06  -9.1038907e-39   6.7667628e-07               0               0               0
  0.00011252163   0.00010695398      0.42835152   2.3864858e-06   2.0644275e-37   8.3333745e-07               0               0               0
  0.00012726745   0.00010721478      0.44569672   2.6218587e-06   1.5303609e-36   1.0122898e-06               0               0               0
  0.00014390985   0.00010750029      0.46232705   2.8837052e-06   4.5609593e-38    1.215056e-06               0               0               0
  0.00016269684   0.00010781136      0.47833611   3.1770008e-06  -3.8460018e-38   1.4457783e-06               0               0               0
  0.00018390838   0.00010814918      0.49379204   3.5068247e-06   3.3139332e-38   1.7086579e-06               0               0               0
  0.00020786057   0.00010851517      0.50875132   3.8788346e-06   -1.413152e-36   2.0073842e-06               0               0               0
  0.00023491035   0.00010891091      0.52326579   4.2995114e-06               0   2.3460586e-06               0               0               0
  0.00026546084   0.00010933821      0.53738258   4.7760978e-06               0   2.7292433e-06               0               0               0
   0.0002999673   0.00010979906      0.55114399   5.3167794e-06               0   3.1620015e-06               0               0               0
  0.00033894396   0.00011029567      0.56458785    5.930898e-06               0   3.6499236e-06               0               0               0
  0.00038297165   0.00011083019      0.57774808   6.6292178e-06               0   4.1991631e-06               0               0               0
  0.00043270649   0.00011140474      0.59065508   7.4239889e-06               0   4.8164787e-06               0               0               0
  0.00048888965   0.00011202182      0.60333602   8.3290765e-06               0   5.5092605e-06               0               0               0
  0.00055235838   0.00011268433      0.61581517    9.360447e-06               0   6.2855424e-06               0               0               0
   0.0006240585   0.00011339545      0.62811441    1.053656e-05               0   7.1540058e-06               0               0               0
  0.00070505852   0.00011415869      0.64025355   1.1878758e-05               0   8.1239716e-06               0               0               0
  0.00079656552   0.00011497792      0.65225067   1.3411728e-05               0    9.205366e-06               0               0               0
  0.00089994316   0.00011585736      0.66412235    1.516393e-05               0   1.0408644e-05               0               0               0
    0.001016732   0.00011680161        0.675884   1.7168032e-05               0   1.1744679e-05               0               0               0
   0.0011486725   0.00011781542      0.68755005   1.9460522e-05               0   1.3224582e-05               0               0               0
   0.0012977308   0.00011890315      0.69913414   2.2081693e-05               0   1.4859424e-05               0               0               0
   0.0014661282   0.00012006837      0.71064945   2.5079112e-05               0   1.6659852e-05               0               0               0
   0.0016563743   0.00012131427      0.72210888   2.8512587e-05               0   1.8635554e-05               0               0               0
   0.0018713042   0.00012264454      0.73352537   3.2455699e-05               0   2.0794558e-05               0               0               0
   0.0021141207   0.00012406373      0.74491209   3.6993761e-05               0   2.3142293e-05               0               0               0
   0.0023884425   0.00012557664      0.75628254    4.222457e-05               0   2.5680351e-05               0               0               0
   0.0026983575   0.00012718762      0.76765071   4.8263864e-05               0   2.8404853e-05               0               0               0
   0.0030484842    0.0001289001      0.77903136   5.5250828e-05   4.5628273e-36   3.1304292e-05               0               0               0
   0.0034440402   0.00013071627      0.79044057   6.3353417e-05      6.8622e-36   3.4356906e-05               0               0               0
   0.0038909203   0.00013263637      0.80189619   7.2775209e-05  -2.0547604e-36   3.7527484e-05               0               0               0
    0.004395784   0.00013465759       0.8134182   8.3764045e-05  -6.5351711e-36   4.0763415e-05               0               0               0
   0.0049661549   0.00013677216      0.82502932   9.6622325e-05   3.5636011e-36   4.3990008e-05               0               0               0
   0.0056105328   0.00013896462      0.83675575   0.00011172257   9.9004235e-36   4.7105085e-05               0               0               0
   0.0063385204   0.00014120849      0.84862822   0.00012953175  -2.9880953e-36   4.9972888e-05               0               0               0
   0.0071609664   0.00014346275      0.86068361   0.00015064484  -8.9491629e-36   5.2416229e-05               0               0               0
   0.0080901272   0.00014567263      0.87297419   0.00017588119  -1.8052829e-36   5.4136888e-05               0               0               0
   0.0091398493   0.00014776809      0.88558647   0.00020640135               0    5.470343e-05               0               0               0
    0.010325776   0.00014965113      0.89864441    0.0002438457               0   5.3779813e-05               0               0               0
     0.01166558   0.00015119871      0.91229016   0.00029054919               0   5.1187263e-05               0               0               0
    0.013179228   0.00015228053      0.92666465   0.00034975102               0    4.683136e-05               0               0               0
    0.014889277    0.0001527466      0.94185195   0.00042553522               0   4.0847797e-05               0               0               0
    0.016821209   0.00015234766      0.95769748   0.00052126108               0   3.3682952e-05               0               0               0
    0.019003816    0.0001510163      0.97360181   0.00063967161               0    2.541479e-05               0               0               0
    0.021469624   0.00014865436      0.98806553   0.00077003196               0   1.5904682e-05               0               0               0
    0.024255377   0.00014456455      0.99807795   0.00086737472               0   7.1157358e-06               0               0               0
    0.027402591   0.00013910421        1.002173   0.00090353776               0   1.8968124e-06               0               0               0
    0.030958166   0.00013360879        1.002888   0.00090688412    4.973775e-35   2.8061947e-07               0               0               0
    0.034975088   0.00012845951       1.0029143   0.00090498895   5.5015737e-35   1.4046656e-07               0               0               0
    0.039513219   0.00012347657       1.0029108   0.00090257123  -3.9182013e-35   1.3994393e-07               0               0               0
    0.044640187   0.00011860774       1.0029091   0.00090054923  -4.4460001e-35   1.3996749e-07               0               0               0
    0.050432395   0.00011396646         1.00291   0.00089902696   2.3031081e-35   1.3996867e-07               0               0               0
    0.056976161   0.00010975252       1.0029115   0.00089764736   6.7353716e-36   1.3996831e-07               0               0               0
    0.064369002   0.00010623692       1.0029106   0.00089483399   7.3781595e-36   1.3996827e-07               0               0               0
    0.072721087   0.00010354326       1.0029062   0.00088933432   2.7986744e-35   1.3996826e-07               0               0               0
    0.082156882    0.0001014517       1.0028986   0.00088213424  -2.8948902e-35   1.3996826e-07               0               0               0
    0.092817002   9.9701832e-05       1.0028886   0.00087468616  -3.3261604e-35   1.3996828e-07               0               0               0
