#      distance           pMean         UMean_x         UMean_y         UMean_z         nutMean wallShearStr... wallShearStr... wallShearStr...
  5.5511169e-17    0.0040450877      0.99969009   1.9244738e-22  -1.0896507e-21   1.2442336e-07               0               0               0
   0.0021021021    0.0040543104      0.99968105   1.9244738e-22  -1.0493963e-21   1.2441267e-07               0               0               0
   0.0042042042    0.0040635332      0.99967201   1.9244738e-22   -1.009142e-21   1.2440198e-07               0               0               0
   0.0063063063    0.0040727559      0.99966298   1.9244738e-22  -9.6888761e-22   1.2439129e-07               0               0               0
   0.0084084084    0.0040819787      0.99965394   1.9244738e-22  -9.2863326e-22    1.243806e-07               0               0               0
    0.010510511    0.0040912014      0.99964491   1.9244738e-22  -8.8837891e-22   1.2436991e-07               0               0               0
    0.012612613    0.0041004242      0.99963587   1.9244738e-22  -8.4812455e-22   1.2435922e-07               0               0               0
    0.014714715     0.004109647      0.99962683   1.9244738e-22   -8.078702e-22   1.2434854e-07               0               0               0
    0.016816817    0.0041188697       0.9996178   1.9244738e-22  -7.6761584e-22   1.2433785e-07               0               0               0
    0.018918919    0.0041280925      0.99960876   1.9244738e-22  -7.2736149e-22   1.2432716e-07               0               0               0
    0.021021021    0.0041373152      0.99959972   1.9244738e-22  -6.8710714e-22   1.2431647e-07               0               0               0
    0.023123123    0.0041508475      0.99958643   2.8356611e-22  -6.3182893e-22   1.2431176e-07               0               0               0
    0.025225225    0.0041645207        0.999573   2.8356611e-22  -5.7605947e-22   1.2430725e-07               0               0               0
    0.027327327    0.0041781939      0.99955957   2.8356611e-22     -5.2029e-22   1.2430274e-07               0               0               0
    0.029429429    0.0041918671      0.99954614   2.8356611e-22  -4.6452054e-22   1.2429823e-07               0               0               0
    0.031531532    0.0042055403      0.99953271   2.8356611e-22  -4.0875108e-22   1.2429372e-07               0               0               0
    0.033633634    0.0042192134      0.99951928   2.8356611e-22  -3.5298161e-22   1.2428921e-07               0               0               0
    0.035735736    0.0042328866      0.99950585   2.8356611e-22  -2.9721215e-22    1.242847e-07               0               0               0
    0.037837838    0.0042465598      0.99949242   2.8356611e-22  -2.4144269e-22   1.2428019e-07               0               0               0
     0.03993994     0.004260233      0.99947899   2.8356611e-22  -1.8567323e-22   1.2427568e-07               0               0               0
    0.042042042    0.0042739062      0.99946556   2.8356611e-22  -1.2990376e-22   1.2427117e-07               0               0               0
    0.044144144    0.0042875794      0.99945213   2.8356611e-22    -7.41343e-23   1.2426666e-07               0               0               0
    0.046246246    0.0043012526       0.9994387   2.8356611e-22  -1.8364837e-23   1.2426215e-07               0               0               0
    0.048348348    0.0043189085      0.99942112   4.1672473e-22  -9.2959347e-23   1.2425869e-07               0               0               0
     0.05045045    0.0043385199      0.99940149   4.1672473e-22  -2.3155966e-22   1.2425575e-07               0               0               0
    0.052552553    0.0043581313      0.99938186   4.1672473e-22  -3.7015997e-22   1.2425281e-07               0               0               0
    0.054654655    0.0043777427      0.99936224   4.1672473e-22  -5.0876029e-22   1.2424987e-07               0               0               0
    0.056756757     0.004397354      0.99934261   4.1672473e-22   -6.473606e-22   1.2424693e-07               0               0               0
    0.058858859    0.0044169654      0.99932298   4.1672473e-22  -7.8596091e-22   1.2424399e-07               0               0               0
    0.060960961    0.0044365768      0.99930336   4.1672473e-22  -9.2456122e-22   1.2424105e-07               0               0               0
    0.063063063    0.0044561882      0.99928373   4.1672473e-22  -1.0631615e-21   1.2423811e-07               0               0               0
    0.065165165    0.0044757995       0.9992641   4.1672473e-22  -1.2017618e-21   1.2423518e-07               0               0               0
    0.067267267      0.00450272      0.99923788   5.5396148e-22   -1.373851e-21   1.2423997e-07               0               0               0
    0.069369369    0.0045308812      0.99921054   5.5396148e-22  -1.5516251e-21   1.2424607e-07               0               0               0
    0.071471471    0.0045590424       0.9991832   5.5396148e-22  -1.7293992e-21   1.2425218e-07               0               0               0
    0.073573574    0.0045872036      0.99915586   5.5396148e-22  -1.9071733e-21   1.2425828e-07               0               0               0
    0.075675676    0.0046153648      0.99912853   5.5396148e-22  -2.0849474e-21   1.2426438e-07               0               0               0
    0.077777778     0.004643526      0.99910119   5.5396148e-22  -2.2627215e-21   1.2427049e-07               0               0               0
     0.07987988    0.0046791227       0.9990634   9.9758961e-22   -2.201069e-21   1.2426142e-07               0               0               0
    0.081981982    0.0047211802      0.99901653   9.9758961e-22  -1.9313773e-21   1.2423918e-07               0               0               0
    0.084084084    0.0047632376      0.99896966   9.9758961e-22  -1.6616857e-21   1.2421693e-07               0               0               0
    0.086186186     0.004805295      0.99892279   9.9758961e-22   -1.391994e-21   1.2419469e-07               0               0               0
    0.088288288    0.0048474925      0.99887586   1.4926062e-21  -1.1219528e-21   1.2417315e-07               0               0               0
     0.09039039    0.0049200872      0.99881536   1.4926062e-21  -7.7601182e-22   1.2430446e-07               0               0               0
    0.092492492     0.004992682      0.99875486   1.4926062e-21  -4.3007086e-22   1.2443577e-07               0               0               0
    0.094594595    0.0050652767      0.99869436   1.4926062e-21  -8.4129908e-23   1.2456709e-07               0               0               0
    0.096696697    0.0051443009      0.83635444     1.43654e-20               0   1.0444812e-07  -8.0862739e-05  -1.4141023e-08    1.713095e-29
    0.098798799    0.0052253911      0.62186792     1.43654e-20               0   7.7821957e-08  -0.00018770977  -3.2826099e-08   3.9766729e-29
      0.1009009    0.0052707485      0.35571125   1.4460813e-20  -8.0381235e-40   4.4624425e-08  -0.00032020022  -6.4868455e-08   4.8493494e-26
       0.103003    0.0052684623     0.020661045   1.4460813e-20  -8.0381235e-40   2.6650631e-09   -0.0004868819  -1.1472052e-07   1.6152201e-25
     0.10510511    0.0052031416   1.1042607e-16   2.4665151e-20  -7.6153598e-38   1.6630871e-10  -0.00049678072   -1.465089e-07   1.6845981e-25
     0.10720721    0.0051472159    1.102005e-16   2.9971726e-20               0   3.3095821e-10  -0.00049654003  -1.7249258e-07   1.2563677e-25
     0.10930931    0.0051114019    1.102005e-16   2.9971726e-20               0   5.9979345e-10  -0.00049654292  -1.9161625e-07   1.9245806e-26
     0.11141141    0.0051076984   1.0996187e-16   3.4387742e-20               0   1.3183565e-09  -0.00049763091  -2.0928793e-07               0
     0.11351351    0.0051138132   1.0971043e-16   3.7910507e-20               0   2.2669257e-09  -0.00049927022  -2.2677406e-07               0
     0.11561562     0.005131763   1.0971043e-16   3.7910507e-20               0   3.7827189e-09  -0.00050226234  -2.4484661e-07               0
     0.11771772    0.0051526024   1.0944627e-16   4.0684304e-20               0   5.5541968e-09  -0.00050583998  -2.6443532e-07   5.7113449e-26
     0.11981982    0.0051762712   1.0944627e-16   4.0684304e-20               0   7.5760292e-09  -0.00050999096  -2.8550857e-07   1.7014967e-25
     0.12192192    0.0052037235    1.091681e-16   4.3179799e-20  -8.4169926e-38   9.8818567e-09  -0.00051475409    -3.09781e-07   3.7529008e-25
     0.12402402    0.0052322957    1.091681e-16   4.3179799e-20  -8.4169926e-38   1.2271746e-08  -0.00051969843  -3.3500037e-07   6.0769304e-25
     0.12612613     0.005267652    1.088744e-16   4.5573985e-20  -1.7373701e-37   1.4937167e-08  -0.00052519407  -3.6357968e-07   7.4226302e-25
     0.12822823    0.0053044057   1.0856354e-16   4.7920907e-20  -1.7978904e-37    1.763883e-08  -0.00053075727  -3.9255166e-07   8.4270755e-25
     0.13033033    0.0053489104   1.0856354e-16   4.7920907e-20  -1.7978904e-37   2.0532214e-08  -0.00053667429  -4.2356603e-07    7.475402e-25
     0.13243243    0.0053963902   1.0823375e-16   5.0354499e-20  -9.3333437e-38   2.3471946e-08  -0.00054266998  -4.5500507e-07   6.2054007e-25
     0.13453453    0.0054530646   1.0823375e-16   5.0354499e-20  -9.3333437e-38   2.6554925e-08  -0.00054890877  -4.8775667e-07   3.9515503e-25
     0.13663664    0.0055149931   1.0788245e-16   5.2891853e-20               0   2.9700844e-08  -0.00055525686  -5.2141896e-07   2.0114823e-25
     0.13873874    0.0055899277   1.0788245e-16   5.2891853e-20               0    3.300257e-08  -0.00056187549  -5.5733569e-07   8.4818147e-26
     0.14084084    0.0056737532   1.0750455e-16   5.6720825e-20               0   3.6395311e-08  -0.00056866799   -5.933167e-07               0
     0.14294294    0.0057815093   1.0750455e-16   5.6720825e-20               0   4.0033029e-08  -0.00057592845  -6.2947078e-07               0
     0.14504505    0.0059005203   1.0709083e-16    5.846815e-20               0   4.4553469e-08  -0.00058526326  -6.7834035e-07               0
     0.14714715    0.0060668723   1.0709083e-16    5.846815e-20               0   5.2786869e-08  -0.00060332332  -7.8069459e-07               0
     0.14924925      0.00623262   1.0663022e-16   9.7177842e-20               0   6.4805675e-08  -0.00063036973  -8.9930475e-07               0
     0.15135135    0.0063867426   1.0663022e-16   9.7177842e-20               0   1.4966141e-07  -0.00083032724  -1.3307035e-06               0
     0.15345345    0.0065408651   1.0663022e-16   9.7177842e-20               0   2.3451715e-07   -0.0010302847  -1.7621022e-06               0
     0.15555556    0.0065572095   1.0569672e-16   1.2697686e-19               0   3.6020849e-07   -0.0013236121  -2.6092004e-06   4.3422576e-25
     0.15765766    0.0065474863   1.0569672e-16   1.2697686e-19               0    4.936259e-07    -0.001634605  -3.5349486e-06   9.5060659e-25
     0.15975976    0.0064520822   1.0442633e-16   1.9154141e-19  -1.2216665e-37   6.0177299e-07    -0.001881598  -4.5382249e-06   1.4935867e-24
     0.16186186    0.0062905906   1.0442633e-16   1.9154141e-19  -1.2216665e-37   6.9042856e-07   -0.0020792268  -5.6013002e-06   2.0570833e-24
     0.16396396    0.0061239968   1.0295106e-16   2.3520501e-19  -1.1556111e-37   7.7142012e-07    -0.002257668  -6.6036449e-06   2.3915006e-24
     0.16606607    0.0059391285   1.0295106e-16   2.3520501e-19  -1.1556111e-37   8.2496215e-07   -0.0023673873  -7.3884762e-06   1.9054442e-24
     0.16816817    0.0057542603   1.0295106e-16   2.3520501e-19  -1.1556111e-37   8.7850419e-07   -0.0024771065  -8.1733076e-06   1.4193879e-24
     0.17027027    0.0055934614   1.0133596e-16   2.5497393e-19               0    9.113268e-07   -0.0025365068  -8.6399163e-06   4.5568104e-25
     0.17237237    0.0054386838   1.0133596e-16   2.5497393e-19               0   9.3896609e-07   -0.0025833189  -9.0269164e-06  -6.2751797e-25
     0.17447447    0.0052936863    9.967319e-17   2.5821189e-19   1.0528934e-37    9.607744e-07   -0.0026165135  -9.3192938e-06  -1.5390707e-24
     0.17657658    0.0051707423    9.967319e-17   2.5821189e-19   1.0528934e-37   9.6943415e-07   -0.0026190014  -9.3983027e-06  -2.0635705e-24
     0.17867868    0.0050477983    9.967319e-17   2.5821189e-19   1.0528934e-37    9.780939e-07   -0.0026214892  -9.4773116e-06  -2.5880704e-24
     0.18078078    0.0049446329    9.799808e-17    2.537317e-19   1.0197684e-37   9.8155104e-07   -0.0026124093   -9.451269e-06  -2.3415105e-24
     0.18288288    0.0048484901    9.799808e-17    2.537317e-19   1.0197684e-37   9.8316096e-07   -0.0025992221   -9.387927e-06  -1.8211797e-24
     0.18498498    0.0047539504   9.6329518e-17   2.4469992e-19               0   9.8450634e-07   -0.0025855105  -9.3176279e-06  -1.3032402e-24
     0.18708709     0.004675662   9.6329518e-17   2.4469992e-19               0   9.8317021e-07   -0.0025664819   -9.176807e-06  -8.0954156e-25
     0.18918919    0.0045973736   9.6329518e-17   2.4469992e-19               0   9.8183408e-07   -0.0025474534  -9.0359861e-06  -3.1584289e-25
     0.19129129     0.004523442    9.468326e-17   2.3208537e-19               0   9.7994189e-07   -0.0025275507   -8.870315e-06               0
     0.19339339    0.0044572474    9.468326e-17   2.3208537e-19               0   9.7706224e-07   -0.0025060955  -8.6605139e-06               0
      0.1954955    0.0043910529    9.468326e-17   2.3208537e-19               0   9.7418259e-07   -0.0024846404  -8.4507129e-06               0
      0.1975976    0.0043295241   9.3071438e-17   2.1349204e-19               0   9.7086707e-07   -0.0024627485  -8.2113626e-06               0
      0.1996997    0.0042718615   9.3071438e-17   2.1349204e-19               0   9.6719036e-07   -0.0024404947  -7.9475264e-06               0
      0.2018018     0.004214199   9.3071438e-17   2.1349204e-19               0   9.6351365e-07   -0.0024182409  -7.6836902e-06               0
      0.2039039    0.0041587911   9.1468811e-17   1.9159519e-19               0   9.5961211e-07   -0.0023960517  -7.4200959e-06               0
     0.20600601    0.0041046132   9.1468811e-17   1.9159519e-19               0   9.5558791e-07   -0.0023738978  -7.1566337e-06               0
     0.20810811    0.0040504354   9.1468811e-17   1.9159519e-19               0   9.5156372e-07   -0.0023517438  -6.8931714e-06               0
     0.21021021    0.0039979704   8.9882963e-17   1.7171689e-19               0   9.4745214e-07   -0.0023300197  -6.6477452e-06  -2.3443211e-25
     0.21231231    0.0039463954   8.9882963e-17   1.7171689e-19               0   9.4329516e-07   -0.0023085188  -6.4116895e-06  -5.9066054e-25
     0.21441441    0.0038948204   8.9882963e-17   1.7171689e-19               0   9.3913819e-07   -0.0022870179  -6.1756338e-06  -9.4688897e-25
     0.21651652    0.0038453623    8.833298e-17    1.532505e-19    9.066564e-38   9.3499245e-07   -0.0022661453   -5.950333e-06  -1.2896644e-24
     0.21861862     0.003797454    8.833298e-17    1.532505e-19    9.066564e-38   9.3085493e-07   -0.0022457326  -5.7329057e-06  -1.6225913e-24
     0.22072072    0.0037495456    8.833298e-17    1.532505e-19    9.066564e-38   9.2671742e-07   -0.0022253199  -5.5154783e-06  -1.9555181e-24
     0.22282282    0.0037032826   8.6839274e-17   1.3545609e-19   8.8885746e-38   9.2263954e-07   -0.0022054937  -5.3024355e-06  -2.0198505e-24
     0.22492492    0.0036594675   8.6839274e-17   1.3545609e-19   8.8885746e-38   9.1865039e-07   -0.0021865404  -5.0959165e-06  -1.6845416e-24
     0.22702703    0.0036156525   8.6839274e-17   1.3545609e-19   8.8885746e-38   9.1466125e-07    -0.002167587  -4.8893974e-06  -1.3492327e-24
     0.22912913    0.0035726471   8.5426699e-17   1.1762893e-19               0   9.1070629e-07    -0.002148854  -4.6854568e-06  -1.0167529e-24
     0.23123123    0.0035351086   8.5426699e-17   1.1762893e-19               0   9.0698213e-07   -0.0021316098  -4.4989265e-06  -7.0337711e-25
     0.23333333    0.0034975701   8.5426699e-17   1.1762893e-19               0   9.0325797e-07   -0.0021143655  -4.3123963e-06  -3.9000133e-25
     0.23543544    0.0034600316   8.5426699e-17   1.1762893e-19               0   8.9953382e-07   -0.0020971212  -4.1258661e-06  -7.6625536e-26
     0.23753754    0.0034269355   8.4099277e-17   1.0208189e-19               0   8.9605248e-07   -0.0020811655   -3.963403e-06               0
     0.23963964    0.0033952773   8.4099277e-17   1.0208189e-19               0   8.9264973e-07   -0.0020656269  -3.8087294e-06               0
     0.24174174     0.003363619   8.4099277e-17   1.0208189e-19               0   8.8924698e-07   -0.0020500882  -3.6540558e-06               0
     0.24384384    0.0033330123   8.2849057e-17   8.9068957e-20               0   8.8593159e-07   -0.0020349936  -3.5064951e-06  -1.4970208e-25
     0.24594595    0.0033051324   8.2849057e-17   8.9068957e-20               0   8.8284274e-07   -0.0020210502  -3.3773766e-06  -6.8755316e-25
     0.24804805    0.0032772525   8.2849057e-17   8.9068957e-20               0   8.7975388e-07   -0.0020071068  -3.2482582e-06  -1.2254042e-24
     0.25015015    0.0032493726   8.2849057e-17   8.9068957e-20               0   8.7666502e-07   -0.0019931633  -3.1191397e-06  -1.7632553e-24
     0.25225225    0.0032241954   8.1683199e-17   7.7559245e-20   1.6661545e-37    8.737895e-07   -0.0019802901  -3.0016587e-06   -2.283322e-24
     0.25435435     0.003200208   8.1683199e-17   7.7559245e-20   1.6661545e-37   8.7100789e-07   -0.0019678879  -2.8893001e-06  -2.7955604e-24
     0.25645646    0.0031762206   8.1683199e-17   7.7559245e-20   1.6661545e-37   8.6822628e-07   -0.0019554857  -2.7769416e-06  -3.3077987e-24
     0.25855856    0.0031522341   8.0608255e-17   6.7072212e-20   1.6440786e-37   8.6544475e-07   -0.0019430839  -2.6645868e-06  -3.8196923e-24
     0.26066066    0.0031315479   8.0608255e-17   6.7072212e-20   1.6440786e-37   8.6297344e-07   -0.0019321767  -2.5660852e-06   -3.068076e-24
     0.26276276    0.0031108617   8.0608255e-17   6.7072212e-20   1.6440786e-37   8.6050213e-07   -0.0019212694  -2.4675836e-06  -2.3164598e-24
     0.26486486    0.0030901755   8.0608255e-17   6.7072212e-20   1.6440786e-37   8.5803082e-07   -0.0019103621   -2.369082e-06  -1.5648436e-24
     0.26696697    0.0030698503   7.9627808e-17    5.762131e-20  -8.1527155e-38   8.5561792e-07   -0.0018997261   -2.273204e-06  -8.1994069e-25
     0.26906907    0.0030510374   7.9627808e-17    5.762131e-20  -8.1527155e-38   8.5344975e-07    -0.001890227  -2.1883177e-06   -1.031631e-25
     0.27117117    0.0030322245   7.9627808e-17    5.762131e-20  -8.1527155e-38   8.5128159e-07   -0.0018807279  -2.1034314e-06    6.136145e-25
     0.27327327    0.0030134116   7.9627808e-17    5.762131e-20  -8.1527155e-38   8.4911342e-07   -0.0018712288  -2.0185451e-06   1.3303921e-24
     0.27537538    0.0029952101   7.8740371e-17   4.9296006e-20  -8.0675512e-38   8.4702136e-07   -0.0018620736  -1.9371231e-06    1.793045e-24
     0.27747748    0.0029786774   7.8740371e-17   4.9296006e-20  -8.0675512e-38   8.4513699e-07   -0.0018538568  -1.8651568e-06   1.5621027e-24
     0.27957958    0.0029621446   7.8740371e-17   4.9296006e-20  -8.0675512e-38   8.4325262e-07   -0.0018456401  -1.7931904e-06   1.3311605e-24
     0.28168168    0.0029456118   7.8740371e-17   4.9296006e-20  -8.0675512e-38   8.4136825e-07   -0.0018374233   -1.721224e-06   1.1002183e-24
     0.28378378    0.0029297199   7.7941328e-17   4.2022286e-20               0   8.3954094e-07   -0.0018294605  -1.6518413e-06    8.715285e-25
     0.28588589    0.0029160609   7.7941328e-17   4.2022286e-20               0   8.3791239e-07   -0.0018223821  -1.5914601e-06   6.5068618e-25
     0.28798799    0.0029024019   7.7941328e-17   4.2022286e-20               0   8.3628384e-07   -0.0018153037  -1.5310789e-06   4.2984386e-25
     0.29009009    0.0028887429   7.7941328e-17   4.2022286e-20               0   8.3465529e-07   -0.0018082253  -1.4706977e-06   2.0900154e-25
     0.29219219    0.0028752094   7.7224663e-17   3.5744412e-20               0   8.3303878e-07   -0.0018012001  -1.4108603e-06               0
     0.29429429    0.0028638898   7.7224663e-17   3.5744412e-20               0   8.3163473e-07   -0.0017951143  -1.3606216e-06               0
      0.2963964    0.0028525703   7.7224663e-17   3.5744412e-20               0   8.3023069e-07   -0.0017890285  -1.3103829e-06               0
      0.2984985    0.0028412508   7.7224663e-17   3.5744412e-20               0   8.2882664e-07   -0.0017829427  -1.2601443e-06               0
      0.3006006    0.0028299312   7.7224663e-17   3.5744412e-20               0    8.274226e-07   -0.0017768569  -1.2099056e-06               0
      0.3027027     0.002820235   7.6583325e-17    3.035334e-20               0   8.2616692e-07   -0.0017714241  -1.1659032e-06               0
      0.3048048    0.0028110622   7.6583325e-17    3.035334e-20               0   8.2495908e-07   -0.0017662019  -1.1239122e-06               0
     0.30690691    0.0028018895   7.6583325e-17    3.035334e-20               0   8.2375125e-07   -0.0017609796  -1.0819213e-06               0
     0.30900901    0.0027927168   7.6583325e-17    3.035334e-20               0   8.2254342e-07   -0.0017557574  -1.0399303e-06               0
     0.31111111    0.0027841197   7.6011742e-17   2.5641482e-20               0   8.2139128e-07   -0.0017507804  -1.0001155e-06               0
     0.31321321    0.0027767092   7.6011742e-17   2.5641482e-20               0   8.2035397e-07    -0.001746309  -9.6478775e-07               0
     0.31531532    0.0027692987   7.6011742e-17   2.5641482e-20               0   8.1931666e-07   -0.0017418376  -9.2945996e-07               0
     0.31741742    0.0027618882   7.6011742e-17   2.5641482e-20               0   8.1827936e-07   -0.0017373662  -8.9413217e-07               0
     0.31951952    0.0027544777   7.6011742e-17   2.5641482e-20               0   8.1724205e-07   -0.0017328948  -8.5880437e-07               0
     0.32162162    0.0027471555   7.5504045e-17   2.1531752e-20               0   8.1631676e-07   -0.0017289157  -8.2790685e-07               0
     0.32372372    0.0027398611   7.5504045e-17   2.1531752e-20               0   8.1542666e-07   -0.0017250912   -7.984008e-07               0
     0.32582583    0.0027325666   7.5504045e-17   2.1531752e-20               0   8.1453655e-07   -0.0017212667  -7.6889476e-07               0
     0.32792793    0.0027252721   7.5504045e-17   2.1531752e-20               0   8.1364644e-07   -0.0017174422  -7.3938871e-07               0
     0.33003003     0.002717955   7.5053562e-17   1.7986428e-20               0   8.1276329e-07   -0.0017136478  -7.1017455e-07               0
     0.33213213    0.0027102491   7.5053562e-17   1.7986428e-20               0   8.1199925e-07   -0.0017103714  -6.8596491e-07               0
     0.33423423    0.0027025431   7.5053562e-17   1.7986428e-20               0   8.1123521e-07   -0.0017070949  -6.6175527e-07               0
     0.33633634    0.0026948372   7.5053562e-17   1.7986428e-20               0   8.1047117e-07   -0.0017038185  -6.3754564e-07               0
     0.33843844    0.0026871313   7.5053562e-17   1.7986428e-20               0   8.0970713e-07    -0.001700542    -6.13336e-07               0
     0.34054054    0.0026795372   7.4652154e-17   1.5004213e-20               0   8.0896475e-07   -0.0016973584  -5.9012992e-07               0
     0.34264264     0.002672378   7.4652154e-17   1.5004213e-20               0   8.0830656e-07   -0.0016945355  -5.7082389e-07               0
     0.34474474    0.0026652188   7.4652154e-17   1.5004213e-20               0   8.0764837e-07   -0.0016917126  -5.5151787e-07               0
     0.34684685    0.0026580596   7.4652154e-17   1.5004213e-20               0   8.0699018e-07   -0.0016888897  -5.3221184e-07               0
     0.34894895    0.0026509004   7.4652154e-17   1.5004213e-20               0   8.0633199e-07   -0.0016860668  -5.1290582e-07               0
     0.35105105    0.0026439443   7.4291528e-17   1.2590004e-20               0   8.0568834e-07   -0.0016833144  -4.9448158e-07               0
     0.35315315    0.0026377751   7.4291528e-17   1.2590004e-20               0   8.0510099e-07   -0.0016808347  -4.7947309e-07               0
     0.35525526    0.0026316058   7.4291528e-17   1.2590004e-20               0   8.0451364e-07   -0.0016783551   -4.644646e-07               0
     0.35735736    0.0026254366   7.4291528e-17   1.2590004e-20               0   8.0392629e-07   -0.0016758754  -4.4945611e-07               0
     0.35945946    0.0026192674   7.4291528e-17   1.2590004e-20               0   8.0333894e-07   -0.0016733958  -4.3444761e-07               0
     0.36156156    0.0026131533   7.3964678e-17   1.0678103e-20               0    8.027544e-07   -0.0016709304  -4.1961178e-07               0
     0.36366366    0.0026080421   7.3964678e-17   1.0678103e-20               0   8.0222074e-07   -0.0016687253   -4.079161e-07               0
     0.36576577    0.0026029308   7.3964678e-17   1.0678103e-20               0   8.0168708e-07   -0.0016665202  -3.9622041e-07               0
     0.36786787    0.0025978196   7.3964678e-17   1.0678103e-20               0   8.0115342e-07   -0.0016643151  -3.8452473e-07               0
     0.36996997    0.0025927084   7.3964678e-17   1.0678103e-20               0   8.0061977e-07     -0.00166211  -3.7282904e-07               0
     0.37207207    0.0025875972   7.3964678e-17   1.0678103e-20               0   8.0008611e-07   -0.0016599049  -3.6113336e-07               0
     0.37417417    0.0025828483   7.3666483e-17   9.1218521e-21               0   7.9959605e-07   -0.0016578871  -3.5134126e-07               0
     0.37627628    0.0025782262   7.3666483e-17   9.1218521e-21               0   7.9912125e-07   -0.0016559349  -3.4221542e-07               0
     0.37837838    0.0025736042   7.3666483e-17   9.1218521e-21               0   7.9864644e-07   -0.0016539826  -3.3308958e-07               0
     0.38048048    0.0025689821   7.3666483e-17   9.1218521e-21               0   7.9817164e-07   -0.0016520304  -3.2396375e-07               0
     0.38258258    0.0025643601   7.3666483e-17   9.1218521e-21               0   7.9769684e-07   -0.0016500782  -3.1483791e-07               0
     0.38468468    0.0025595394   7.3392978e-17    7.896372e-21               0   7.9723515e-07    -0.001648182  -3.0634466e-07               0
     0.38678679    0.0025541712   7.3392978e-17    7.896372e-21               0   7.9680959e-07   -0.0016464402  -2.9959539e-07               0
     0.38888889    0.0025488031   7.3392978e-17    7.896372e-21               0   7.9638404e-07   -0.0016446985  -2.9284612e-07               0
     0.39099099    0.0025434349   7.3392978e-17    7.896372e-21               0   7.9595848e-07   -0.0016429568  -2.8609685e-07               0
     0.39309309    0.0025380667   7.3392978e-17    7.896372e-21               0   7.9553293e-07    -0.001641215  -2.7934758e-07               0
      0.3951952    0.0025326986   7.3392978e-17    7.896372e-21               0   7.9510737e-07   -0.0016394733  -2.7259831e-07               0
      0.3972973    0.0025268382    7.313963e-17    7.024885e-21               0   7.9470468e-07   -0.0016378337  -2.6715659e-07               0
      0.3993994    0.0025206805    7.313963e-17    7.024885e-21               0    7.943158e-07   -0.0016362558  -2.6250468e-07               0
      0.4015015    0.0025145228    7.313963e-17    7.024885e-21               0   7.9392691e-07   -0.0016346778  -2.5785277e-07               0
      0.4036036    0.0025083651    7.313963e-17    7.024885e-21               0   7.9353803e-07   -0.0016330999  -2.5320086e-07               0
     0.40570571    0.0025022074    7.313963e-17    7.024885e-21               0   7.9314915e-07    -0.001631522  -2.4854895e-07               0
     0.40780781    0.0024960498    7.313963e-17    7.024885e-21               0   7.9276026e-07   -0.0016299441  -2.4389703e-07               0
     0.40990991    0.0024901007   7.2901474e-17   6.4409514e-21               0   7.9239302e-07   -0.0016284663  -2.4052993e-07               0
     0.41201201    0.0024842014   7.2901474e-17   6.4409514e-21               0   7.9203094e-07   -0.0016270124  -2.3746948e-07               0
     0.41411411    0.0024783021   7.2901474e-17   6.4409514e-21               0   7.9166886e-07   -0.0016255585  -2.3440902e-07               0
     0.41621622    0.0024724028   7.2901474e-17   6.4409514e-21               0   7.9130678e-07   -0.0016241046  -2.3134856e-07               0
     0.41831832    0.0024665034   7.2901474e-17   6.4409514e-21               0    7.909447e-07   -0.0016226507  -2.2828811e-07               0
     0.42042042    0.0024606041   7.2901474e-17   6.4409514e-21               0   7.9058262e-07   -0.0016211968  -2.2522765e-07               0
     0.42252252    0.0024553698   7.2673979e-17   6.0746363e-21               0   7.9023612e-07   -0.0016198186  -2.2304912e-07               0
     0.42462462    0.0024502889   7.2673979e-17   6.0746363e-21               0   7.8989323e-07   -0.0016184579  -2.2107408e-07               0
     0.42672673    0.0024452079   7.2673979e-17   6.0746363e-21               0   7.8955033e-07   -0.0016170972  -2.1909903e-07               0
     0.42882883     0.002440127   7.2673979e-17   6.0746363e-21               0   7.8920743e-07   -0.0016157365  -2.1712399e-07               0
     0.43093093    0.0024350461   7.2673979e-17   6.0746363e-21               0   7.8886454e-07   -0.0016143757  -2.1514895e-07               0
     0.43303303    0.0024299652   7.2673979e-17   6.0746363e-21               0   7.8852164e-07    -0.001613015  -2.1317391e-07               0