/*--------------------------------*- C++ -*----------------------------------*\
  =========                 |
  \\      /  F ield         | OpenFOAM: The Open Source CFD Toolbox
   \\    /   O peration     | Website:  https://openfoam.org
    \\  /    A nd           | Version:  12
     \\/     M anipulation  |
\*---------------------------------------------------------------------------*/
FoamFile
{
    format      ascii;
    class       volScalarField;
    location    "1800";
    object      epsilon;
}
// * * * * * * * * * * * * * * * * * * * * * * * * * * * * * * * * * * * * * //

dimensions      [0 2 -3 0 0 0 0];

internalField   nonuniform List<scalar> 
13056
(
0.0013699556
0.0011123994
0.00091881085
0.00082561021
0.0007787488
0.00074992801
0.00072951006
0.00071414973
0.00070227433
0.0006929237
0.00068545085
0.00067940535
0.00067446651
0.0006704007
0.00066703396
0.00066423422
0.00066189875
0.00065995564
0.00065829824
0.00065714048
0.00065512107
0.00065827294
0.00064114589
0.0018139645
66.289323
82.083948
76.115834
70.107658
65.635561
62.0007
58.913849
56.276712
54.012516
52.045919
50.316074
48.778824
47.402331
46.160194
45.029406
43.993075
43.038364
42.154023
41.330965
40.561704
39.83997
39.160552
38.518846
37.911046
37.333923
36.784577
36.260677
35.760073
35.28066
34.8207
34.378656
33.95303
33.542513
33.146048
32.762641
32.391296
32.031187
31.681624
31.341905
31.011321
30.689281
30.375294
30.068861
29.76946
29.476632
29.190024
28.909293
28.634041
28.363881
28.098547
27.837788
27.581309
27.328808
27.080021
26.834758
26.592823
26.353969
26.117942
25.884569
25.6537
25.425152
25.198718
24.974197
24.751464
24.530396
24.310817
24.09254
23.875416
23.659337
23.444168
23.229732
23.01585
22.80241
22.589302
22.376356
22.16339
21.950284
21.736928
21.523147
21.308749
21.093586
20.877525
20.660371
20.441901
20.221956
20.000356
19.776855
19.551196
19.323213
19.097596
18.881412
18.676553
18.482068
18.297076
18.1208
17.952578
17.791797
17.637872
17.490276
17.348573
17.212354
17.081217
16.95479
16.832702
16.714681
16.600252
16.489369
16.380599
16.27559
16.167523
16.071495
15.916412
0.0013694352
0.0011119798
0.00091843798
0.0008252382
0.00077837265
0.00074955028
0.00072913215
0.000713772
0.00070189677
0.00069254627
0.00068507349
0.00067902801
0.00067408915
0.00067002327
0.00066665642
0.00066385653
0.00066152088
0.00065957754
0.00065791988
0.00065676181
0.00065474206
0.0006579022
0.0006407278
0.0018063296
38.046004
44.383228
40.646247
37.218167
34.71473
32.700758
31.001746
29.557124
28.321428
27.251435
26.312688
25.480336
24.736546
24.066585
23.457655
22.900417
22.387773
21.913506
21.472618
21.060993
20.675191
20.312355
19.969963
19.645938
19.338515
19.046109
18.76745
18.501368
18.246716
18.002553
17.768045
17.54238
17.324849
17.11488
16.911935
16.715475
16.525055
16.340301
16.160835
15.986274
15.816301
15.650652
15.489057
15.331236
15.176942
15.025987
14.878185
14.733324
14.591197
14.45166
14.31458
14.179799
14.047156
13.916509
13.787758
13.660797
13.535496
13.411719
13.289374
13.168383
13.048647
12.930057
12.812506
12.695929
12.58026
12.465407
12.35127
12.237773
12.124856
12.01245
11.900462
11.788798
11.6774
11.56621
11.455138
11.344091
11.233005
11.121825
11.010458
10.898804
10.786788
10.674341
10.561361
10.447733
10.333376
10.218197
10.102068
9.9848574
9.8664806
9.749373
9.6371991
9.5309351
9.4300837
9.3341818
9.2428245
9.1556637
9.0723797
8.9926662
8.9162485
8.8428979
8.772401
8.7045487
8.6391459
8.5760002
8.5149692
8.4558055
8.3984862
8.3422646
8.2880006
8.23215
8.1825419
8.1024457
0.0013677193
0.0011105868
0.00091716034
0.0008239483
0.00077706368
0.00074823262
0.00072781081
0.00071244845
0.00070057143
0.00069121931
0.00068374502
0.0006776981
0.00067275782
0.00066869054
0.00066532225
0.00066252088
0.00066018367
0.0006582387
0.00065657929
0.0006554192
0.00065339807
0.00065656882
0.00063931642
0.0017967033
35.249401
37.061782
33.172526
30.074544
27.880838
26.143851
24.692643
23.466736
22.423366
21.523594
20.736898
20.041457
19.421737
18.864937
18.359972
17.898826
17.475412
17.084385
16.721483
16.3832
16.066604
15.76927
15.489058
15.224212
14.973239
14.734794
14.50781
14.291299
14.084297
13.886017
13.695761
13.512847
13.336681
13.166788
13.002719
12.844021
12.690324
12.541318
12.396689
12.256117
12.119339
11.986136
11.856287
11.729557
11.605744
11.484691
11.366247
11.250235
11.136483
11.024877
10.915307
10.80764
10.701746
10.597509
10.494847
10.393675
10.293884
10.195364
10.098043
10.001855
9.9067211
9.8125519
9.7192615
9.6267981
9.5351086
9.4441179
9.3537467
9.2639334
9.1746318
9.0857864
8.9973221
8.9091647
8.8212687
8.7335892
8.6460547
8.5585908
8.4711496
8.3836863
8.2961299
8.2084016
8.1204429
8.0322015
7.9435979
7.8545433
7.7649751
7.6748227
7.5839881
7.4923693
7.3999034
7.3084931
7.2209935
7.1381579
7.0595908
6.9849242
6.9138365
6.8460517
6.781316
6.7193871
6.6600475
6.6031166
6.5484255
6.495809
6.4451134
6.3961872
6.3489182
6.3031118
6.2587509
6.215248
6.1732837
6.1300752
6.0917362
6.0298696
0.0013647626
0.0011081848
0.00091494724
0.00082171019
0.00077479124
0.00074594424
0.00072551521
0.00071014826
0.00069826748
0.000688912
0.00068143462
0.00067538479
0.0006704417
0.00066637164
0.00066300056
0.00066019636
0.0006578562
0.00065590816
0.00065424549
0.00065308162
0.00065105804
0.00065424008
0.00063688168
0.0017853916
35.705439
34.576344
30.369905
27.350373
25.266314
23.635952
22.282501
21.143212
20.17586
19.343117
18.616029
17.974009
17.402505
16.889527
16.424668
16.000464
15.611253
15.252036
14.918853
14.608446
14.31809
14.045534
13.78879
13.546233
13.316478
13.098276
12.890639
12.692658
12.503435
12.322248
12.148453
11.981419
11.820596
11.665549
11.515862
11.371118
11.230974
11.095147
10.963347
10.835277
10.710697
10.589408
10.471203
10.355867
10.243214
10.1331
10.025389
9.9199139
9.8165195
9.7151007
9.6155568
9.5177671
9.4216098
9.3269801
9.2338034
9.1420018
9.0514756
8.9621238
8.8738804
8.7866865
8.7004696
8.6151477
8.5306423
8.4469073
8.3638944
8.2815348
8.1997563
8.1185031
8.0377342
7.9573991
7.8774294
7.7977578
7.7183442
7.6391481
7.5601045
7.4811465
7.4022315
7.3233196
7.2443467
7.165242
7.0859537
7.0064354
6.9266156
6.8464152
6.765779
6.6846443
6.6029236
6.5205263
6.4373976
6.355249
6.2766432
6.2022532
6.1317204
6.064711
6.0009335
5.9401378
5.882094
5.8265825
5.7734066
5.7224029
5.6734185
5.6263041
5.5809207
5.5371312
5.4948346
5.4538544
5.414177
5.3752669
5.3377509
5.2990933
5.2648295
5.2095629
0.0013604958
0.0011047193
0.0009117518
0.00081847766
0.00077150858
0.00074263811
0.00072219823
0.0007068243
0.00069493779
0.00068557721
0.00067809513
0.00067204088
0.00066709355
0.00066301933
0.00065964409
0.00065683564
0.0006544911
0.0006525385
0.00065087101
0.00064970155
0.0006476744
0.00065086652
0.00063337596
0.0017715197
35.645335
32.825082
28.428637
25.490546
23.506593
21.970012
20.700629
19.634591
18.730627
17.953126
17.274659
16.675807
16.142917
15.66475
15.23152
14.836245
14.473639
14.139015
13.828672
13.539567
13.269153
13.015331
12.776243
12.550372
12.336429
12.133242
11.939896
11.75554
11.579337
11.410615
11.248779
11.093236
10.943474
10.799089
10.659695
10.5249
10.394386
10.267892
10.145144
10.025869
9.9098398
9.7968737
9.6867789
9.5793534
9.4744234
9.3718576
9.2715272
9.1732784
9.0769642
8.9824887
8.8897585
8.7986607
8.7090813
8.6209228
8.5341167
8.4485905
8.3642507
8.281003
8.1987866
8.1175471
8.0372167
7.9577186
7.8789795
7.8009573
7.7236071
7.6468646
7.5706619
7.4949477
7.4196841
7.3448239
7.2703032
7.196059
7.1220548
7.0482529
6.9745924
6.9010106
6.8274684
6.7539289
6.680332
6.6066117
6.53272
6.458614
6.3842268
6.3094845
6.2343362
6.1587237
6.0825652
6.0057761
5.9283064
5.851751
5.7784976
5.7091732
5.6434439
5.5809987
5.5215657
5.464912
5.4108235
5.3590951
5.3095437
5.262017
5.2163727
5.1724712
5.1301831
5.0893801
5.0499687
5.0117829
4.9748122
4.9385491
4.9035946
4.8675427
4.835616
4.7841286
0.0013548275
0.0011001193
0.00090751332
0.00081419098
0.00076715531
0.00073825347
0.00071779903
0.00070241571
0.00069052148
0.000681154
0.0006736656
0.00066760541
0.00066265238
0.00065857255
0.0006551917
0.00065237757
0.00065002715
0.00064806843
0.00064639448
0.00064521755
0.00064318564
0.00064638416
0.00062873733
0.0017539887
34.706998
31.16592
26.694896
23.852716
21.971008
20.526838
19.338981
18.343384
17.50004
16.775162
16.14288
15.584935
15.088547
14.643213
14.239767
13.871689
13.534051
13.222475
12.933507
12.664313
12.412517
12.176163
11.953518
11.743172
11.543922
11.354676
11.174582
11.00285
10.8387
10.681507
10.530718
10.385782
10.24622
10.111659
9.9817389
9.8560941
9.7344289
9.616501
9.5020576
9.3908404
9.2826411
9.1772893
9.0746069
8.9744051
8.8765218
8.780836
8.6872282
8.5955545
8.5056775
8.4175087
8.3309619
8.2459313
8.1623104
8.0800085
7.9989623
7.9191046
7.8403478
7.7626036
7.6858158
7.6099342
7.5348953
7.4606272
7.3870613
7.3141589
7.2418784
7.1701592
7.0989379
7.0281666
6.9578102
6.8878248
6.8181502
6.7487274
6.6795227
6.610501
6.5416047
6.4727752
6.4039761
6.335173
6.2663092
6.1973227
6.1281688
6.0588073
5.9891752
5.9192029
5.848843
5.7780407
5.7067189
5.6347981
5.5622315
5.4905132
5.4218801
5.3569203
5.2953225
5.2367961
5.1810871
5.127978
5.0772689
5.0287679
4.9823039
4.9377347
4.8949271
4.8537506
4.8140841
4.7758074
4.7388332
4.7030049
4.6683148
4.6342795
4.6014779
4.5676153
4.5376479
4.4893229
0.0013476482
0.0010942996
0.00090216016
0.0008087801
0.00076166064
0.0007327191
0.00071224626
0.00069685112
0.00068494716
0.00067557099
0.0006680746
0.0006620069
0.00065704663
0.00065295972
0.00064957178
0.00064675044
0.00064439257
0.00064242611
0.00064074399
0.00063955759
0.00063751965
0.00064072028
0.00062289058
0.0017316641
33.079413
29.522099
25.058876
22.319687
20.539159
19.184492
18.074853
17.14655
16.360975
15.686173
15.097808
14.578742
14.117026
13.702863
13.327692
12.985428
12.671485
12.381779
12.113095
11.862794
11.628664
11.408885
11.201845
11.006231
10.820927
10.644913
10.4774
10.317653
10.164946
10.018701
9.8784032
9.7435401
9.6136674
9.4884379
9.3675183
9.2505674
9.1373107
9.0275238
8.9209719
8.8174144
8.7166579
8.6185446
8.5229092
8.4295757
8.3383934
8.2492503
8.1620358
8.0766157
7.9928617
7.9106921
7.8300273
7.7507687
7.6728169
7.5960873
7.5205218
7.4460579
7.3726138
7.3001069
7.2284855
7.1577029
7.0877001
7.0184097
6.9497676
6.8817383
6.8142831
6.7473453
6.6808654
6.614799
6.5491135
6.4837681
6.4187061
6.3538725
6.2892358
6.2247636
6.1604018
6.0960951
6.0318098
5.9675138
5.9031538
5.8386717
5.7740255
5.7091776
5.6440689
5.5786338
5.512828
5.4466001
5.3798773
5.3125849
5.244679
5.1775579
5.113315
5.052502
4.9948287
4.9400241
4.8878513
4.8381075
4.7906062
4.7451683
4.7016338
4.6598704
4.6197536
4.5811615
4.5439808
4.5080991
4.4734352
4.4398414
4.4073125
4.3753894
4.3446269
4.3128431
4.2847309
4.2393985
0.0013388336
0.0010871646
0.00089561334
0.00080216836
0.00075494718
0.00072595716
0.00070546196
0.00069005255
0.00067813685
0.00066875019
0.00066124411
0.00065516728
0.00065019823
0.00064610267
0.00064270608
0.00063987594
0.00063750899
0.00063553307
0.00063384098
0.00063264304
0.0006305977
0.00063379647
0.00061575244
0.0017034084
30.977434
27.897672
23.500824
20.866642
19.183963
17.914739
16.879335
16.014737
15.283775
14.656281
14.109395
13.62705
13.198074
12.813343
12.464875
12.146993
11.855431
11.586389
11.336871
11.104427
10.886997
10.682891
10.49061
10.308933
10.136825
9.9733374
9.8177348
9.6693385
9.5274724
9.3916
9.2612458
9.1359329
9.0152483
8.8988703
8.7864899
8.67779
8.5725154
8.4704586
8.3714018
8.2751213
8.1814373
8.0902041
8.0012685
7.9144667
7.8296584
7.7467403
7.66561
7.5861426
7.5082186
7.4317625
7.3567009
7.2829418
7.2103929
7.1389753
7.0686355
6.9993156
6.9309396
6.8634301
6.7967393
6.7308243
6.66563
6.6010936
6.5371552
6.473782
6.4109384
6.3485712
6.286625
6.2250583
6.1638411
6.1029353
6.042288
5.9818475
5.9215849
5.86147
5.801452
5.7414792
5.6815202
5.6215451
5.561504
5.5013422
5.4410207
5.3805045
5.3197377
5.2586591
5.1972272
5.1353937
5.0730903
5.0102467
4.9468218
4.8841219
4.8241024
4.7672797
4.7133839
4.6621625
4.613395
4.5668928
4.5224819
4.4799956
4.4392847
4.400226
4.3627037
4.3266039
4.291821
4.2582499
4.2258152
4.1943782
4.1639355
4.1340527
4.1052589
4.0754876
4.0491676
4.0067247
0.0013282488
0.0010786119
0.00088779053
0.00079427682
0.00074693544
0.00071788766
0.00069736605
0.00068193994
0.00067001053
0.00066061154
0.00065309407
0.00064700646
0.00064202701
0.00063792121
0.00063451435
0.00063167376
0.000629296
0.00062730883
0.00062560487
0.00062439321
0.00062233901
0.00062553228
0.0006072375
0.0016680994
28.564068
26.302538
22.016035
19.48602
17.896773
16.708509
15.743197
14.938658
14.25914
13.676193
13.168363
12.720595
12.32245
11.965434
11.642116
11.347204
11.076728
10.827158
10.595707
10.380098
10.178417
9.9890948
9.8107383
9.6422154
9.4825642
9.3309034
9.1865509
9.0488778
8.9172566
8.7911896
8.6702368
8.553956
8.4419634
8.3339611
8.2296629
8.1287746
8.031059
7.9363242
7.8443686
7.7549845
7.668005
7.5832953
7.5007137
7.4201082
7.3413483
7.2643384
7.188984
7.1151692
7.0427827
6.9717548
6.9020175
6.8334858
6.7660735
6.6997076
6.6343384
6.5699126
6.5063594
6.4436068
6.3816107
6.3203311
6.2597172
6.1997103
6.1402547
6.0813201
6.0228735
5.9648655
5.9072442
5.8499713
5.7930188
5.7363514
5.6799196
5.6236754
5.5675919
5.5116411
5.4557753
5.3999465
5.3441253
5.288284
5.2323758
5.1763497
5.1201692
5.0638016
5.0071948
4.9502912
4.8930523
4.8354328
4.7773686
4.718794
4.6596705
4.6012158
4.545253
4.4922644
4.4419994
4.3942232
4.3487308
4.3053469
4.2639099
4.2242646
4.1862723
4.1498185
4.1147953
4.0810968
4.0486247
4.0172811
3.9869958
3.957639
3.9292088
3.9012956
3.8744016
3.8465772
3.8219876
3.782334
0.0013157535
0.0010685367
0.00087861051
0.00078502905
0.00073754866
0.00070843345
0.00068788132
0.00067243614
0.00066049109
0.00065107799
0.00064354741
0.00063744738
0.00063245588
0.00062833818
0.00062491937
0.0006220666
0.00061967624
0.00061767594
0.00061595815
0.00061473048
0.00061266587
0.00061585036
0.00059726395
0.0016246724
25.958519
24.742557
20.602204
18.173932
16.673218
15.561363
14.662075
13.914061
13.28294
12.741891
12.270798
11.85556
11.486421
11.15548
10.855831
10.582538
10.331913
10.100678
9.886243
9.6864917
9.4996505
9.3242605
9.1590306
9.0029098
8.8550063
8.7145026
8.5807655
8.4532127
8.3312632
8.2144551
8.1023817
7.9946334
7.8908543
7.7907681
7.6941105
7.6006086
7.5100425
7.4222344
7.3369982
7.2541412
7.1735086
7.094976
7.0184121
6.9436762
6.8706473
6.7992368
6.7293575
6.660902
6.593767
6.527888
6.4632022
6.3996309
6.3370942
6.2755242
6.214875
6.1550975
6.0961259
6.0378934
5.980359
5.9234859
5.867227
5.8115277
5.7563363
5.7016248
5.6473626
5.5935038
5.5400002
5.4868161
5.4339258
5.3812963
5.3288818
5.2766374
5.2245382
5.1725581
5.120653
5.0687779
5.0169055
4.96501
4.9130479
4.8609714
4.8087468
4.7563434
4.7037126
4.6508007
4.5975717
4.5439833
4.4899757
4.4354872
4.3804822
4.3260934
4.2740172
4.2247032
4.1779188
4.1334462
4.0910953
4.0507033
4.0121204
3.9752023
3.9398203
3.9058682
3.8732458
3.8418546
3.8116034
3.782401
3.7541824
3.7268263
3.700332
3.6743146
3.6492486
3.6233016
3.6003779
3.5634092
0.0013012074
0.0010568364
0.00086799808
0.00077435638
0.00072671833
0.0006975257
0.00067693896
0.00066147247
0.00064950996
0.00064008105
0.00063253568
0.00062642155
0.00062141635
0.00061728508
0.00061385259
0.00061098588
0.00060858106
0.0006065657
0.00060483204
0.000603586
0.00060150934
0.00060468206
0.00058576005
0.0015721919
23.25065
23.219767
19.257291
16.927669
15.510392
14.470456
13.633269
12.93841
12.35279
11.851132
11.414579
11.029933
10.688074
10.381658
10.104275
9.8513264
9.6193831
9.4054067
9.2069911
9.0221735
8.8493088
8.6870442
8.5341831
8.389751
8.2529218
8.1229382
7.9992124
7.8812064
7.7683823
7.6603122
7.5566202
7.4569277
7.3609047
7.2682956
7.178856
7.0923336
7.0085244
6.9272642
6.8483811
6.7716966
6.6970676
6.6243787
6.5535091
6.4843285
6.4167247
6.3506157
6.2859212
6.222542
6.1603822
6.0993819
6.0394835
5.9806143
5.9227001
5.8656779
5.8095055
5.7541375
5.699513
5.64557
5.5922706
5.5395809
5.4874572
5.4358491
5.3847084
5.3340091
5.2837233
5.2338082
5.1842192
5.1349231
5.085896
5.0371076
4.9885152
4.940077
4.8917702
4.8435705
4.7954368
4.7473273
4.6992167
4.651081
4.6028797
4.5545685
4.5061157
4.4574931
4.4086553
4.3595522
4.3101504
4.2604104
4.2102765
4.1596912
4.1086212
4.0581181
4.0097575
3.9639572
3.920502
3.8791902
3.8398456
3.8023175
3.7664672
3.7321608
3.6992791
3.6677237
3.6374019
3.6082222
3.5800999
3.5529506
3.5267141
3.5012771
3.4766401
3.4524427
3.429131
3.404989
3.3836648
3.3492735
0.0012844754
0.0010434156
0.00085588917
0.00076220341
0.00071438989
0.00068510974
0.00066448441
0.00064899461
0.00063701303
0.00062756672
0.00062000498
0.00061387514
0.0006088546
0.00060470808
0.00060126018
0.00059837772
0.00059595655
0.00059392415
0.00059217253
0.0005909057
0.00058881534
0.0005919735
0.00057267144
0.0015099518
20.512492
21.733138
17.979323
15.74522
14.406225
13.433811
12.654957
12.010037
11.467169
11.002522
10.598429
10.242537
9.9263228
9.6429643
9.3865196
9.1527044
8.9383338
8.7405953
8.5572547
8.3864928
8.2267855
8.0768792
7.9356667
7.8022448
7.675849
7.5557789
7.4414892
7.3324829
7.2282634
7.1284341
7.0326478
6.9405554
6.8518515
6.7662991
6.6836732
6.6037406
6.5263124
6.4512367
6.378355
6.3075029
6.2385473
6.1713819
6.1058955
6.0419675
5.9794942
5.9183998
5.8586103
5.8000341
5.7425826
5.6862003
5.6308341
5.5764169
5.5228802
5.4701658
5.4182343
5.3670442
5.3165393
5.2666621
5.2173774
5.1686542
5.1204519
5.0727241
5.0254261
4.9785337
4.9320213
4.8858494
4.8399765
4.7943718
4.7490135
4.7038733
4.6589119
4.6140904
4.5693876
4.5247811
4.4802329
4.4357041
4.3911712
4.346612
4.3019889
4.2572608
4.2123983
4.1673751
4.1221491
4.0766738
4.0309179
3.9848451
3.9384032
3.8915388
3.844221
3.7974242
3.7526083
3.7101611
3.6698836
3.6315894
3.5951155
3.5603228
3.5270829
3.495272
3.4647799
3.4355155
3.4073931
3.380328
3.354242
3.3290566
3.3047163
3.2811159
3.2582565
3.2358017
3.2141695
3.1917583
3.171966
3.1400429
0.0012654349
0.0010281917
0.00084223616
0.0007485338
0.00070052875
0.00067115119
0.00065048359
0.00063496885
0.0006229669
0.00061350184
0.0006059223
0.00059977525
0.00059473779
0.00059057438
0.00058710937
0.00058420936
0.00058176995
0.00057971853
0.00057794687
0.00057665679
0.0005745511
0.00057769183
0.000557969
0.0014375973
17.805783
20.279132
16.766346
14.625101
13.359247
12.450055
11.725903
11.127842
10.625102
10.195196
9.8215788
9.4926903
9.2005627
8.9388629
8.7020897
8.4862545
8.2883995
8.1059246
7.9367573
7.7792126
7.6318801
7.4935992
7.3633465
7.2402855
7.1237096
7.0129721
6.9075672
6.8070363
6.7109216
6.6188558
6.5305187
6.4455888
6.3637837
6.2848841
6.2086827
6.1349647
6.0635552
5.9943138
5.9270948
5.8617465
5.7981459
5.7361948
5.6757908
5.616823
5.5591954
5.5028378
5.4476822
5.3936445
5.3406427
5.2886253
5.2375435
5.1873358
5.1379387
5.0892985
5.0413787
4.9941413
4.9475344
4.9015051
4.8560205
4.8110521
4.7665628
4.7225096
4.678851
4.6355648
4.5926273
4.5500023
4.5076512
4.4655457
4.4236653
4.3819844
4.3404663
4.2990752
4.2577913
4.2165942
4.1754485
4.1343182
4.0931817
4.0520183
4.0107932
3.9694685
3.9280166
3.8864135
3.84462
3.802593
3.7603036
3.7177178
3.6747876
3.6314631
3.5877157
3.5444463
3.5030049
3.4637503
3.4264992
3.3910795
3.3573409
3.3251548
3.294403
3.2649711
3.2367573
3.2096777
3.183653
3.1586052
3.1344618
3.1111505
3.08862
3.0667729
3.0456105
3.0248202
3.0047916
2.9840356
2.9657068
2.9361411
0.0012439814
0.0010111
0.00082701306
0.00073333594
0.00068512629
0.00065564207
0.00063492908
0.00061938831
0.00060736517
0.00059788038
0.00059028187
0.00058411631
0.00057906052
0.0005748787
0.00057139494
0.00056847565
0.00056601617
0.00056394377
0.00056215004
0.00056083427
0.00055871177
0.00056183168
0.0005416572
0.0013552548
15.182948
18.85334
15.616284
13.566181
12.368411
11.518232
10.845267
10.291104
9.8259693
9.4286306
9.0835865
8.780022
8.5104875
8.2691049
8.0507883
7.8518258
7.6694716
7.5013248
7.3454645
7.2003312
7.064621
6.9372604
6.8173046
6.7039796
6.5966329
6.4946681
6.3976164
6.3050551
6.216563
6.1318
6.0504711
5.9722807
5.8969682
5.8243305
5.7541771
5.6863105
5.6205688
5.5568223
5.4949374
5.4347745
5.3762198
5.3191826
5.263569
5.2092771
5.1562182
5.1043273
5.053542
5.0037852
4.9549812
4.9070821
4.8600434
4.8138083
4.7683187
4.7235248
4.6793929
4.6358879
4.5929626
4.5505678
4.5086733
4.4672527
4.4262721
4.3856917
4.3454733
4.3055964
4.2660392
4.2267682
4.1877482
4.1489526
4.1103627
4.0719549
4.0336955
3.9955513
3.957504
3.9195347
3.881611
3.8436995
3.8057801
3.7678338
3.7298287
3.6917292
3.6535103
3.6151495
3.5766108
3.5378541
3.4988527
3.4595753
3.4199772
3.3800125
3.3396544
3.2997341
3.2614973
3.2252754
3.1908995
3.1582113
3.1270721
3.0973638
3.0689774
3.0418076
3.0157606
2.990759
2.96673
2.9436014
2.9213068
2.8997791
2.8789713
2.8587933
2.8392467
2.8200419
2.8015406
2.782363
2.7654285
2.7381083
0.0012200357
0.00099209933
0.00081022038
0.00071662819
0.00066820552
0.00063860666
0.00061784604
0.00060227897
0.0005902345
0.00058072954
0.00057311132
0.00056692627
0.00056185098
0.00055764942
0.00055414546
0.00055120532
0.00054872406
0.00054662884
0.00054481113
0.00054346731
0.00054132683
0.0005444212
0.00052378234
0.0012636519
12.693205
17.447883
14.526726
12.567491
11.432915
10.637631
10.012444
9.4993176
9.0693608
8.7024937
8.384191
8.1043333
7.8559527
7.6335953
7.432564
7.2494066
7.0815742
6.9268529
6.7834632
6.649963
6.5251483
6.4080266
6.2977267
6.193533
6.0948437
6.0011095
5.9118962
5.8268145
5.7454774
5.6675704
5.5928218
5.5209603
5.4517457
5.3849903
5.3205189
5.2581504
5.1977352
5.1391536
5.0822829
5.0269951
4.9731851
4.9207692
4.8696612
4.8197679
4.7710073
4.7233193
4.6766467
4.630919
4.5860664
4.5420447
4.4988126
4.4563187
4.4145092
4.3733382
4.3327747
4.2927865
4.2533302
4.2143608
4.1758501
4.137774
4.1001012
4.0627955
4.0258215
3.9891601
3.9527913
3.9166847
3.8808076
3.8451356
3.8096513
3.7743332
3.7391501
3.7040716
3.6690807
3.63416
3.5992798
3.5644092
3.5295295
3.4946235
3.4596616
3.4246111
3.3894488
3.3541539
3.3186934
3.2830301
3.2471394
3.2109924
3.1745479
3.1377634
3.1006142
3.0638652
3.0286636
2.9953144
2.9636626
2.9335626
2.9048871
2.8775276
2.8513837
2.8263588
2.8023667
2.7793361
2.7572001
2.7358925
2.715352
2.695517
2.6763442
2.6577507
2.6397382
2.6220391
2.6049881
2.587311
2.571701
2.5465135
0.0011935504
0.0009711768
0.00079188925
0.00069846341
0.00064982587
0.00062010651
0.00059929734
0.0005837049
0.00057163992
0.00056211513
0.00055447707
0.00054827204
0.00054317649
0.00053895422
0.00053542889
0.00053246656
0.00052996203
0.00052784238
0.000525999
0.00052462489
0.00052246585
0.00052552733
0.00050444021
0.0011642011
10.379333
16.054695
13.494684
11.628033
10.552041
9.8076367
9.2269188
8.7520632
8.3549399
8.016523
7.7231935
7.4654808
7.2368646
7.0322843
6.8474066
6.679022
6.524765
6.3825956
6.2508669
6.1282464
6.0136228
5.9060795
5.8048141
5.7091654
5.6185787
5.5325488
5.4506739
5.3725957
5.2979592
5.2264737
5.157889
5.0919569
5.0284562
4.9672132
4.9080674
4.8508528
4.7954313
4.7416923
4.6895238
4.6388083
4.5894489
4.5413683
4.4944877
4.4487218
4.4039951
4.360252
4.31744
4.275495
4.2343527
4.1939719
4.1543151
4.115335
4.0769826
4.0392155
4.002005
3.9653216
3.9291258
3.8933761
3.8580465
3.8231148
3.7885525
3.7543263
3.7204037
3.686767
3.653398
3.6202687
3.5873491
3.5546167
3.5220555
3.4896458
3.4573591
3.4251673
3.3930546
3.3610052
3.3289919
3.2969861
3.2649707
3.2329296
3.2008359
3.1686595
3.1363788
3.1039748
3.0714171
3.0386716
3.0057153
2.9725218
2.9390532
2.9052702
2.8711499
2.8373951
2.8050595
2.7744235
2.7453449
2.7176902
2.6913427
2.6662027
2.6421785
2.6191812
2.5971318
2.5759649
2.5556192
2.5360338
2.5171525
2.4989189
2.4812932
2.464199
2.4476383
2.4313647
2.4156864
2.3994312
2.3850754
2.3619069
0.0011645157
0.00094835219
0.00077208428
0.00067893196
0.00063008675
0.00060024417
0.00057938745
0.00056377212
0.00055168883
0.00054214562
0.00053448847
0.0005282637
0.00052314772
0.00051890425
0.00051535682
0.00051237137
0.00050984246
0.0005076971
0.00050582669
0.00050442032
0.00050224299
0.00050525987
0.000483782
0.0010590226
8.2704287
14.670265
12.516281
10.746588
9.7250176
9.0276024
8.4881495
8.0488917
7.6823398
7.3704226
7.1003599
6.8632842
6.6530902
6.4650812
6.2952626
6.1406523
5.9990547
5.8685917
5.7477402
5.6352692
5.530154
5.4315489
5.3387151
5.2510423
5.1680195
5.089183
5.0141607
4.9426232
4.8742453
4.8087586
4.7459329
4.6855413
4.6273803
4.5712897
4.5171219
4.4647256
4.4139732
4.3647628
4.3169918
4.270553
4.2253569
4.1813323
4.1384072
4.0965037
4.0555523
4.0155016
3.9763037
3.9379
3.9002317
3.8632605
3.826952
3.7912632
3.7561493
3.7215712
3.6875022
3.6539157
3.6207755
3.5880436
3.5556959
3.523712
3.4920661
3.4607275
3.4296667
3.3988669
3.3683116
3.3379753
3.3078306
3.2778567
3.2480387
3.2183587
3.1887908
3.159309
3.1298987
3.1005455
3.0712245
3.0419096
3.0125847
2.9832353
2.9538366
2.9243611
2.8947888
2.8651022
2.8352735
2.8052714
2.7750748
2.7446592
2.7139899
2.6830308
2.6517608
2.6208239
2.591186
2.5631043
2.5364485
2.5110966
2.4869418
2.4638927
2.4418654
2.4207786
2.4005599
2.3811495
2.3624912
2.3445294
2.3272125
2.3104888
2.2943219
2.278642
2.2634507
2.2485221
2.2341389
2.2192264
2.2060544
2.1847908
0.001132965
0.00092368101
0.00075090482
0.00065816291
0.00060912898
0.00057916492
0.00055826426
0.00054263065
0.00053053297
0.00052097422
0.00051329992
0.00050705662
0.00050192088
0.00049765646
0.00049408685
0.0004910779
0.00048852402
0.00048635215
0.00048445388
0.00048301359
0.00048081954
0.00048377372
0.00046201748
0.00095089537
6.389245
13.292095
11.586404
9.9215497
8.9509014
8.2967531
7.795474
7.3892393
7.0510814
6.7637863
6.5153464
6.2974541
6.104388
5.9317869
5.7759711
5.6341708
5.5043476
5.3847736
5.274041
5.1710131
5.0747456
4.9844584
4.8994722
4.8192239
4.7432428
4.6711038
4.6024627
4.5370168
4.4744685
4.4145701
4.3571099
4.3018807
4.2486958
4.197407
4.1478794
4.0999746
4.0535754
4.0085875
3.9649173
3.9224671
3.8811543
3.8409133
3.8016785
3.7633787
3.7259503
3.6893456
3.6535208
3.6184227
3.5839976
3.5502097
3.5170277
3.4844125
3.452323
3.4207235
3.3895893
3.3588958
3.3286106
3.2986987
3.2691376
3.2399089
3.2109888
3.1823498
3.1539644
3.1258172
3.097893
3.0701689
3.0426195
3.0152258
2.9879742
2.9608482
2.9338243
2.9068786
2.8799977
2.8531683
2.8263677
2.7995721
2.7727666
2.7459379
2.7190634
2.6921178
2.6650828
2.6379423
2.610671
2.5832401
2.5556301
2.5278187
2.4997741
2.4714631
2.4428663
2.4145726
2.3874656
2.3617806
2.3373986
2.3142081
2.2921114
2.2710253
2.250873
2.2315802
2.2130809
2.1953203
2.1782472
2.1618106
2.1459636
2.1306588
2.1158629
2.1015122
2.0876081
2.0739442
2.0607785
2.0471296
2.0350709
2.0155985
0.001098978
0.00089725616
0.00072848408
0.00063632274
0.00058713377
0.00055705591
0.0005361183
0.00052047366
0.00050836776
0.00049879821
0.00049111026
0.00048485096
0.00047969726
0.00047541311
0.00047182207
0.00046879006
0.00046621135
0.00046401284
0.00046208653
0.00046061113
0.00045840373
0.00046126837
0.00043941444
0.00084310597
4.7524373
11.91879
10.698709
9.1507732
8.2284915
7.6141136
7.1480475
6.7723681
6.460517
6.1960436
5.9676486
5.7675432
5.5903609
5.4320491
5.2892194
5.1593003
5.0403989
4.9309261
4.829581
4.7353147
4.6472571
4.5646891
4.4869863
4.4136293
4.3441852
4.2782643
4.2155484
4.1557593
4.0986252
4.0439174
3.9914414
3.9410083
3.8924469
3.8456202
3.8004048
3.7566747
3.7143218
3.6732593
3.6334018
3.5946602
3.5569587
3.5202365
3.484434
3.4494864
3.4153354
3.3819368
3.3492506
3.3172287
3.2858218
3.2549969
3.2247252
3.1949712
3.1656976
3.1368716
3.1084702
3.0804711
3.0528448
3.0255596
2.9985946
2.9719327
2.9455525
2.9194289
2.8935369
2.867862
2.8423904
2.8171012
2.7919716
2.7669838
2.7421253
2.7173811
2.6927299
2.6681499
2.6436286
2.6191538
2.5947051
2.5702605
2.5458063
2.5213304
2.4968122
2.4722286
2.4475628
2.4228
2.3979171
2.3728879
2.3476943
2.3223161
2.2967241
2.270888
2.2447899
2.2189672
2.1942265
2.1707827
2.1485271
2.1273582
2.1071869
2.0879373
2.0695394
2.0519256
2.0350354
2.0188191
2.0032298
1.9882212
1.9737504
1.9597742
1.9462624
1.9331565
1.9204582
1.9079792
1.8959542
1.8834899
1.8724747
1.8546806
0.0010626829
0.00086920774
0.00070498588
0.00061361121
0.00056431862
0.00053414217
0.00051317883
0.00049753365
0.00048542841
0.00047585509
0.0004681589
0.00046188778
0.00045671932
0.0004524179
0.00044880734
0.00044575368
0.00044315121
0.0004409268
0.00043897318
0.00043746208
0.00043524695
0.00043798429
0.00041629387
0.0007391788
3.37116
10.548763
9.8466138
8.4314758
7.5562574
6.9784622
6.5448029
6.1973296
5.9097967
5.6664275
5.4565707
5.2729169
5.110428
4.9653343
4.8345165
4.715588
4.6067904
4.5066623
4.4140025
4.3278426
4.2473818
4.171957
4.1009947
4.0340161
3.9706228
3.9104582
3.853228
3.7986767
3.7465561
3.6966553
3.6487957
3.602805
3.5585266
3.5158339
3.4746139
3.4347521
3.3961491
3.3587247
3.3224011
3.2870974
3.2527437
3.2192841
3.1866641
3.1548251
3.1237135
3.0932887
3.0635138
3.0343454
3.0057388
2.977663
2.9500917
2.922993
2.8963328
2.870081
2.8442163
2.8187185
2.7935609
2.7687146
2.7441602
2.7198821
2.6958608
2.6720737
2.6484978
2.6251196
2.6019267
2.5789001
2.5560191
2.5332672
2.5106329
2.4881028
2.4656574
2.4432768
2.4209494
2.3986642
2.3764026
2.3541447
2.3318778
2.3095907
2.2872648
2.2648791
2.242418
2.2198681
2.1972084
2.174415
2.1514712
2.1283586
2.1050507
2.0815197
2.0577491
2.0342285
2.0116926
1.9903373
1.9700636
1.9507792
1.9324028
1.9148654
1.8981034
1.8820552
1.8666658
1.8518898
1.8376847
1.8240084
1.8108216
1.7980852
1.7857715
1.7738276
1.7622547
1.750882
1.7399217
1.7285643
1.7185236
1.7022963
0.001024256
0.00083970102
0.00068059898
0.00059025428
0.00054093007
0.00051067933
0.00048970648
0.00047407495
0.00046198237
0.00045241495
0.00044471824
0.0004384414
0.00043326309
0.00042894839
0.00042532152
0.00042224889
0.00041962486
0.00041737637
0.0004153972
0.00041385057
0.00041163601
0.00041419567
0.00039302065
0.00064250638
2.2535565
9.1806109
9.022937
7.7601016
6.9322822
6.3883036
5.9844312
5.6629485
5.3978533
5.1739615
4.9812128
4.8127414
4.6638132
4.5309177
4.411183
4.3023954
4.2029207
4.1114147
4.0267687
3.9480891
3.8746383
3.8058054
3.7410637
3.6799719
3.6221635