/*--------------------------------*- C++ -*----------------------------------*\
  =========                 |
  \\      /  F ield         | OpenFOAM: The Open Source CFD Toolbox
   \\    /   O peration     | Website:  https://openfoam.org
    \\  /    A nd           | Version:  12
     \\/     M anipulation  |
\*---------------------------------------------------------------------------*/
FoamFile
{
    format      ascii;
    class       volScalarField;
    location    "1800";
    object      epsilon;
}
// * * * * * * * * * * * * * * * * * * * * * * * * * * * * * * * * * * * * * //

dimensions      [0 2 -3 0 0 0 0];

internalField   nonuniform List<scalar> 
7480
(
0.016636891
0.067977289
0.16535745
0.2955263
0.4337886
0.55770126
0.65394799
0.7187515
0.75497454
0.76854762
0.76586003
0.75241398
0.73240981
0.70881416
0.6836108
0.65808122
0.6330597
0.6091194
0.5866391
0.56589138
0.54709083
0.53041606
0.51600766
0.50395612
0.49428853
0.48691803
0.48154653
0.47775253
0.47497481
0.47261606
0.47019072
0.46741928
0.46423181
0.46071839
0.45701955
0.45324612
0.44944495
0.44561074
0.4417201
0.43776375
0.43376029
0.42974721
0.425763
0.42183228
0.41796335
0.41415615
0.41041022
0.40672694
0.40310795
0.39955383
0.39606377
0.39263589
0.38926824
0.38595956
0.38270871
0.37951388
0.37637305
0.37328484
0.37024848
0.36726209
0.36432388
0.36143229
0.35858584
0.35578331
0.35302369
0.35030591
0.3476289
0.34499169
0.3423932
0.33983244
0.33730843
0.33482023
0.3323669
0.32994756
0.32756136
0.32520747
0.32288509
0.32059344
0.31833176
0.31609932
0.31389542
0.31171935
0.30957046
0.30744808
0.30535159
0.30328033
0.30123371
0.29921106
0.2972118
0.29523513
0.29328063
0.29134678
0.28943418
0.28753776
0.2856643
0.28379107
0.28195688
0.28003425
0.27843032
0.27545023
0.00023080946
0.0010242667
0.0033408119
0.007863663
0.014524543
0.022910388
0.032099727
0.040945083
0.048647922
0.054859913
0.059559833
0.063039558
0.065803913
0.068379865
0.071304778
0.075143988
0.080777986
0.088414687
0.096801586
0.1059499
0.11605634
0.12723041
0.13937777
0.15215216
0.16513711
0.1776651
0.1888722
0.19792378
0.20420663
0.20753302
0.20819475
0.20683616
0.20423482
0.20109267
0.19789327
0.19486232
0.1920319
0.18934449
0.18673735
0.18418685
0.18170898
0.17933395
0.17708009
0.17494836
0.17292336
0.17098605
0.16912218
0.16732292
0.16558163
0.16389197
0.16224831
0.16064622
0.15908228
0.15755349
0.15605726
0.15459139
0.15315421
0.15174442
0.15036065
0.14900234
0.14766847
0.14635805
0.14507032
0.14380469
0.1425606
0.14133754
0.14013495
0.13895231
0.13778912
0.13664486
0.13551909
0.13441136
0.13332124
0.13224831
0.13119216
0.1301524
0.12912863
0.12812047
0.12712755
0.12614951
0.12518599
0.12423663
0.12330111
0.12237907
0.1214702
0.12057417
0.11969065
0.11881934
0.11795992
0.11711207
0.11627548
0.11544975
0.11463461
0.11382933
0.11303402
0.11224637
0.11146966
0.11068238
0.10998416
0.10879242
2.4261069e-05
5.9995179e-05
0.00012786545
0.00023332046
0.00037760506
0.00056200866
0.00078595055
0.0010450504
0.001331367
0.0016342593
0.0019418851
0.0022437741
0.0025333411
0.0028095691
0.0030787518
0.0033547467
0.0036671869
0.0040560679
0.0045629716
0.0052398438
0.0061538451
0.0073896711
0.0090729947
0.01146864
0.014771265
0.019238167
0.025708708
0.033461003
0.042226768
0.051687207
0.061315672
0.070515531
0.078716934
0.085440858
0.090422056
0.093680222
0.095468403
0.096176539
0.09621268
0.095909489
0.095473589
0.094993026
0.094484374
0.093934583
0.093337814
0.092703925
0.09205051
0.091391921
0.090734336
0.090077835
0.089420919
0.088763119
0.088104985
0.087447136
0.086789879
0.086133379
0.085477861
0.084823656
0.08417104
0.083520343
0.082872083
0.082226762
0.081584823
0.080946685
0.080312745
0.079683362
0.079058839
0.078439437
0.07782539
0.0772169
0.076614152
0.07601731
0.075426514
0.074841888
0.074263529
0.073691515
0.073125906
0.072566742
0.072014049
0.071467838
0.070928107
0.07039484
0.06986801
0.06934758
0.068833503
0.068325724
0.067824181
0.067328806
0.066839518
0.06635624
0.065878865
0.065407314
0.064941406
0.064481131
0.064026022
0.063576398
0.063131648
0.062685345
0.062287935
0.061606151
1.0515138e-05
1.6334887e-05
2.5582999e-05
3.8095393e-05
5.3634815e-05
7.2034377e-05
9.3154656e-05
0.00011680083
0.0001426873
0.00017044091
0.00019961717
0.00022973977
0.00026035483
0.00029109455
0.00032174139
0.00035225175
0.00038294017
0.00041445636
0.00044802356
0.00048557942
0.00052960906
0.00058409755
0.00065439215
0.00074934005
0.00088275117
0.0010729597
0.0013664256
0.001812755
0.0024810657
0.0034529151
0.0048949499
0.0069738758
0.0098326576
0.013931968
0.018854106
0.024335637
0.030022235
0.035558423
0.04059906
0.044863331
0.048211376
0.050662689
0.052362946
0.053518347
0.05432566
0.054923097
0.055382128
0.05572813
0.055969241
0.056115492
0.056182872
0.056188308
0.056144538
0.056059273
0.055937424
0.055783186
0.055600653
0.055393546
0.055164959
0.054917406
0.054653158
0.054374323
0.054082812
0.053780335
0.053468415
0.053148418
0.05282156
0.052488936
0.052151532
0.051810232
0.05146584
0.051119085
0.050770626
0.05042106
0.050070925
0.049720704
0.04937083
0.04902169
0.048673633
0.048326967
0.047981966
0.047638872
0.047297898
0.046959229
0.046623028
0.046289434
0.045958566
0.045630529
0.045305406
0.044983272
0.044664167
0.044348168
0.044035219
0.043725522
0.043418661
0.043115469
0.042814858
0.042514287
0.042247452
0.041785718
8.0615233e-06
9.7008601e-06
1.228343e-05
1.5666322e-05
1.972734e-05
2.4382805e-05
2.9577722e-05
3.5270494e-05
4.1421895e-05
4.7989486e-05
5.4925837e-05
6.2178804e-05
6.9693483e-05
7.7415643e-05
8.5296523e-05
9.3295482e-05
0.00010138938
0.00010957708
0.00011788969
0.00012641469
0.00013527337
0.00014469501
0.00015498152
0.00016658088
0.00018018337
0.00019664141
0.00021758481
0.00024525653
0.00028287856
0.0003349746
0.00040925757
0.00051842163
0.00068022993
0.000936467
0.0013396684
0.0019482986
0.0028957617
0.0042796914
0.0062317034
0.0089085349
0.012098221
0.015595854
0.019172175
0.022598223
0.025672646
0.028273653
0.030372731
0.03202339
0.03332428
0.034374436
0.035244456
0.03597242
0.036576559
0.037069849
0.037466848
0.037782789
0.038030545
0.038219565
0.038356937
0.038448645
0.038500122
0.038516206
0.038501051
0.038458225
0.038390873
0.038301794
0.038193465
0.038068086
0.037927616
0.037773807
0.037608235
0.037432317
0.037247334
0.037054439
0.036854674
0.036648981
0.036438212
0.036223134
0.036004442
0.035782763
0.035558664
0.035332654
0.035105192
0.03487669
0.034647519
0.034418012
0.034188467
0.033959152
0.033730305
0.033502143
0.033274843
0.033048605
0.032823503
0.032599842
0.032377372
0.032156975
0.031937802
0.031718336
0.031524869
0.031185472
7.3910317e-06
7.9436019e-06
8.8946403e-06
1.0196766e-05
1.1788189e-05
1.3619562e-05
1.5657073e-05
1.787812e-05
2.0266499e-05
2.2808995e-05
2.5493826e-05
2.8309422e-05
3.1243988e-05
3.4285432e-05
3.7421766e-05
4.0641457e-05
4.3934315e-05
4.7292356e-05
5.0710861e-05
5.4191608e-05
5.7742275e-05
6.138222e-05
6.5143291e-05
6.9073404e-05
7.3246817e-05
7.7761498e-05
8.2765644e-05
8.8483973e-05
9.5215675e-05
0.00010336913
0.00011349511
0.000126476
0.00014337744
0.00016618823
0.00019788637
0.00024249492
0.00030759361
0.00040440252
0.00055143274
0.00078451302
0.0011465421
0.0017189011
0.0025840313
0.0038339667
0.0055588553
0.007652094
0.0099806993
0.012399735
0.014756999
0.01692285
0.018818629
0.020425263
0.021771837
0.022908358
0.023880239
0.024717144
0.025436146
0.026049659
0.026570154
0.027010046
0.027380056
0.027688692
0.027942908
0.028148812
0.028311883
0.028436922
0.028528086
0.028589028
0.028622994
0.02863287
0.028621228
0.028590363
0.028542334
0.028478992
0.028402001
0.028312862
0.028212931
0.028103431
0.027985468
0.027860043
0.027728061
0.027590342
0.027447625
0.02730058
0.027149814
0.026995875
0.026839258
0.026680412
0.026519743
0.02635762
0.026194364
0.026030302
0.025865645
0.025700781
0.025535647
0.02537108
0.025206587
0.025040927
0.024896036
0.024637021
7.1705742e-06
7.3619291e-06
7.7356618e-06
8.2980669e-06
9.0283182e-06
9.8996519e-06
1.0889285e-05
1.198042e-05
1.3161288e-05
1.4423591e-05
1.576082e-05
1.7167605e-05
1.8639227e-05
2.0171295e-05
2.1759589e-05
2.3399999e-05
2.5088591e-05
2.6821737e-05
2.8596278e-05
3.0410074e-05
3.2262208e-05
3.4153771e-05
3.6088547e-05
3.8073587e-05
4.0120969e-05
4.2248604e-05
4.4482273e-05
4.6860813e-05
4.9437309e-05
5.2285264e-05
5.5493533e-05
5.9201113e-05
6.3557678e-05
6.8789735e-05
7.5226243e-05
8.3306406e-05
9.368188e-05
0.00010728191
0.00012543251
0.00015038957
0.00018547297
0.00023666145
0.00031317769
0.00043009026
0.0006152583
0.00090208758
0.0013615694
0.0020487251
0.0030661051
0.0043771897
0.0059250678
0.0076209135
0.0093609361
0.011043349
0.012591595
0.013967664
0.015170647
0.016220813
0.017141685
0.017950599
0.018659028
0.019276525
0.019812796
0.020277249
0.020678063
0.02102209
0.021315294
0.021563045
0.021770132
0.021940779
0.022078729
0.022187327
0.022269569
0.022328137
0.022365439
0.022383643
0.022384703
0.02237038
0.022342269
0.022301809
0.022250303
0.022188931
0.022118761
0.022040761
0.021955808
0.021864698
0.021768154
0.02166683
0.02156132
0.021452166
0.021339851
0.021224839
0.021107492
0.02098829
0.020867355
0.020745489
0.020622529
0.020497373
0.020388665
0.020189243
7.080481e-06
7.1468825e-06
7.2913105e-06
7.5349433e-06
7.8810432e-06
8.3214368e-06
8.8441815e-06
9.4379924e-06
1.0093761e-05
1.0804594e-05
1.1565275e-05
1.2371778e-05
1.322088e-05
1.4109907e-05
1.5036526e-05
1.5998624e-05
1.6994235e-05
1.8021514e-05
1.9078741e-05
2.0164413e-05
2.1277327e-05
2.2416732e-05
2.3582551e-05
2.4775574e-05
2.599784e-05
2.7253058e-05
2.8546954e-05
2.9888276e-05
3.1289402e-05
3.2767895e-05
3.4345462e-05
3.6051537e-05
3.7931608e-05
4.0042366e-05
4.2449747e-05
4.5244657e-05
4.8543314e-05
5.2504905e-05
5.7326642e-05
6.3294616e-05
7.0807195e-05
8.0491797e-05
9.3260587e-05
0.00011045523
0.0001343135
0.0001681102
0.00021829901
0.00029376995
0.00041294956
0.00059909822
0.00089510699
0.0013491248
0.0020317859
0.0029394416
0.0040429587
0.0052863807
0.0065972455
0.0079003267
0.0091339501
0.010262914
0.011278376
0.012187011
0.012999142
0.013723157
0.014365793
0.014933816
0.015434323
0.015874036
0.016258898
0.016594201
0.01688477
0.017134989
0.017348798
0.017529741
0.017681016
0.017805511
0.017905837
0.017984353
0.018043193
0.01808429
0.018109394
0.018120093
0.018117826
0.018103898
0.018079495
0.018045695
0.018003474
0.017953723
0.017897248
0.017834787
0.017767003
0.017694519
0.017617859
0.017537613
0.017454087
0.017368084
0.017279718
0.017188068
0.017108869
0.016957846
7.028501e-06
7.052821e-06
7.1071035e-06
7.2082966e-06
7.3672937e-06
7.587143e-06
7.8652762e-06
8.196544e-06
8.5753315e-06
8.996577e-06
9.4560627e-06
9.9503842e-06
1.0476805e-05
1.1033111e-05
1.1617469e-05
1.2228318e-05
1.2864291e-05
1.3524161e-05
1.4206805e-05
1.4911206e-05
1.5636468e-05
1.6381846e-05
1.7146813e-05
1.793113e-05
1.8734965e-05
1.9559052e-05
2.0404823e-05
2.1274674e-05
2.2172202e-05
2.3102687e-05
2.4073082e-05
2.5092419e-05
2.6173755e-05
2.7334641e-05
2.8595779e-05
2.9983834e-05
3.1531396e-05
3.327899e-05
3.5281172e-05
3.7615234e-05
4.0367157e-05
4.3655857e-05
4.7650187e-05
5.2574788e-05
5.873921e-05
6.6582196e-05
7.6858835e-05
9.0581476e-05
0.00010955144
0.00013637155
0.00017580126
0.00023495056
0.00032773776
0.00047242494
0.00070190496
0.0010565196
0.0015833501
0.002284162
0.0031377349
0.0041051587
0.0051322434
0.0061620954
0.007149035
0.0080671771
0.0089083011
0.009673497
0.010366243
0.010990121
0.011549185
0.012048196
0.012492109
0.012885612
0.013233058
0.013538526
0.013805801
0.014038362
0.014239391
0.014411798
0.01455824
0.014681141
0.014782705
0.014864945
0.01492969
0.014978608
0.015013215
0.015034895
0.015044905
0.015044391
0.015034398
0.015015878
0.014989693
0.014956645
0.014917433
0.01487278
0.014823175
0.014769459
0.014711978
0.014650081
0.014596709
0.014487842
6.9848369e-06
6.995737e-06
7.0168424e-06
7.0574186e-06
7.1267878e-06
7.231464e-06
7.3743068e-06
7.55522e-06
7.7723444e-06
8.0230715e-06
8.304679e-06
8.6146491e-06
8.950781e-06
9.3112028e-06
9.6943346e-06
1.0098836e-05
1.0523555e-05
1.0967488e-05
1.1429741e-05
1.1909518e-05
1.2406107e-05
1.2918883e-05
1.3447325e-05
1.3991036e-05
1.4549787e-05
1.5123577e-05
1.5712694e-05
1.6317801e-05
1.6940037e-05
1.7581181e-05
1.8243739e-05
1.8931031e-05
1.964765e-05
2.0399932e-05
2.1195775e-05
2.204518e-05
2.2960426e-05
2.3956363e-05
2.5051388e-05
2.6270346e-05
2.7642407e-05
2.9201896e-05
3.099614e-05
3.3078788e-05
3.5542189e-05
3.848532e-05
4.2057548e-05
4.6453812e-05
5.1976707e-05
5.901833e-05
6.8241934e-05
8.0580354e-05
9.7661294e-05
0.00012188474
0.00015751857
0.00021135142
0.0002955938
0.00042631748
0.00063367606
0.00095407135
0.00140943
0.002000845
0.0027104683
0.0035046656
0.0043396293
0.0051724415
0.0059719719
0.0067218379
0.007416129
0.0080536885
0.0086350882
0.0091620619
0.0096373815
0.010064373
0.010446473
0.010787075
0.011089476
0.011356825
0.011592082
0.011798007
0.011977162
0.012131914
0.012264444
0.012376755
0.012470687
0.012547924
0.01261001
0.012658355
0.01269425
0.012718876
0.012733308
0.012738539
0.012735456
0.01272493
0.012707637
0.012684492
0.012656032
0.012621971
0.012592463
0.012522329
6.9404011e-06
6.9471607e-06
6.9569843e-06
6.9738376e-06
7.003205e-06
7.0505555e-06
7.1201279e-06
7.2144373e-06
7.3343954e-06
7.4797375e-06
7.6494931e-06
7.8423608e-06
8.0569506e-06
8.2919211e-06
8.5460417e-06
8.8182115e-06
9.1074556e-06
9.4129112e-06
9.7338116e-06
1.0069474e-05
1.0419287e-05
1.078271e-05
1.1159266e-05
1.1548555e-05
1.1950263e-05
1.2364191e-05
1.2790278e-05
1.3228633e-05
1.3679586e-05
1.4143741e-05
1.4622035e-05
1.5115786e-05
1.5626811e-05
1.6157645e-05
1.6711593e-05
1.7292898e-05
1.7906858e-05
1.855994e-05
1.9259932e-05
2.0016786e-05
2.0842663e-05
2.1751405e-05
2.2760938e-05
2.3891186e-05
2.5171146e-05
2.6634562e-05
2.8325571e-05
3.0298958e-05
3.2627098e-05
3.542488e-05
3.8838254e-05
4.3061722e-05
4.839533e-05
5.5254642e-05
6.4291396e-05
7.6500961e-05
9.3547369e-05
0.0001179592
0.00015418039
0.0002099632
0.00029658226
0.00043253865
0.0006453454
0.00095993058
0.0013862997
0.0019193294
0.0025396929
0.0032155957
0.0039110449
0.0045961462
0.0052519362
0.0058687904
0.0064424067
0.0069710943
0.0074548481
0.007894937
0.0082933946
0.0086526104
0.0089751307
0.0092635505
0.009520428
0.0097482298
0.0099493026
0.010125858
0.010279966
0.010413551
0.010528399
0.010626159
0.010708354
0.010776383
0.010831533
0.010874992
0.010907834
0.010931093
0.010945629
0.010952457
0.010952274
0.010945246
0.010938688
0.010905587
6.8927212e-06
6.8981132e-06
6.9043148e-06
6.9126778e-06
6.9257599e-06
6.9468399e-06
6.9792813e-06
7.0259736e-06
7.0890042e-06
7.1695899e-06
7.268195e-06
7.3847316e-06
7.5187564e-06
7.6696309e-06
7.836631e-06
8.0190169e-06
8.216072e-06
8.4271219e-06
8.6515425e-06
8.8887616e-06
9.1382579e-06
9.3995593e-06
9.6722416e-06
9.9559313e-06
1.025031e-05
1.0555126e-05
1.0870205e-05
1.1195463e-05
1.1530929e-05
1.1876766e-05
1.2233305e-05
1.260106e-05
1.2980786e-05
1.3373553e-05
1.3780817e-05
1.4204495e-05
1.4647042e-05
1.5111517e-05
1.5601628e-05
1.612197e-05
1.667823e-05
1.7276972e-05
1.792632e-05
1.8635478e-05
1.9416286e-05
2.028294e-05
2.1252985e-05
2.2347696e-05
2.3592596e-05
2.5024339e-05
2.6689672e-05
2.8647059e-05
3.0975101e-05
3.3784735e-05
3.724111e-05
4.1562179e-05
4.7075809e-05
5.4258547e-05
6.3834797e-05
7.7031976e-05
9.5728014e-05
0.00012304086
0.00016440371
0.0002283493
0.00032777231
0.00048421658
0.00071864404
0.0010438047
0.0014609941
0.0019590874
0.0025146878
0.0030985837
0.0036845578
0.0042542682
0.0047969489
0.0053067499
0.0057806631
0.0062175888
0.0066177895
0.0069823823
0.0073129704
0.0076114343
0.0078797946
0.0081201135
0.0083344303
0.0085247228
0.0086928821
0.0088406983
0.0089698534
0.0090819198
0.0091783593
0.0092605328
0.0093296906
0.0093870193
0.0094335542
0.0094704264
0.0094984657
0.0095183552
0.009534495
0.0095378236
6.8412688e-06
6.8460698e-06
6.8510745e-06
6.8565983e-06
6.8636323e-06
6.8737589e-06
6.8889741e-06
6.9114214e-06
6.9431077e-06
6.9856869e-06
7.040357e-06
7.1078619e-06
7.1885555e-06
7.2824925e-06
7.3895176e-06
7.5093396e-06
7.6415886e-06
7.7858552e-06
7.9417175e-06
8.1087582e-06
8.2865756e-06
8.4747898e-06
8.6730466e-06
8.8810219e-06
9.0984258e-06
9.3250088e-06
9.5605679e-06
9.8049535e-06
1.0058079e-05
1.0319932e-05
1.0590587e-05
1.0870218e-05
1.1159122e-05
1.1457753e-05
1.1766759e-05
1.208703e-05
1.2419744e-05
1.2766409e-05
1.3128893e-05
1.3509501e-05
1.3911097e-05
1.4337059e-05
1.4791491e-05
1.5279134e-05
1.5805737e-05
1.6378169e-05
1.7004703e-05
1.7695258e-05
1.8461334e-05
1.931786e-05
2.0283747e-05
2.1382123e-05
2.2642065e-05
2.4101015e-05
2.5811607e-05
2.7841046e-05
3.0279942e-05
3.3252593e-05
3.6952625e-05
4.1651354e-05
4.7744815e-05
5.5832964e-05
6.6871498e-05
8.2397509e-05
0.00010485025
0.00013857768
0.00019038827
0.00027052925
0.00039656149
0.00058506014
0.00084867508
0.0011911668
0.0016053631
0.002072926
0.0025699854
0.0030743881
0.0035698237
0.004045916
0.0044964568
0.0049179289
0.0053086989
0.0056684534
0.0059977307
0.0062976008
0.0065694619
0.0068148974
0.0070355772
0.0072331912
0.0074094057
0.0075658346
0.0077040211
0.0078254305
0.0079314374
0.0080233501
0.0081023501
0.008169679
0.0082262642
0.008273358
0.0083123368
0.0083521898
6.7860257e-06
6.7904568e-06
6.7949682e-06
6.7995338e-06
6.8044702e-06
6.8104224e-06
6.8183608e-06
6.8295272e-06
6.8453158e-06
6.8671231e-06
6.8962142e-06
6.9336358e-06
6.9801784e-06
7.0363808e-06
7.1025595e-06
7.1788502e-06
7.2652501e-06
7.3616561e-06
7.4678966e-06
7.583756e-06
7.708994e-06
7.8433588e-06
7.9865973e-06
8.1384632e-06
8.2987233e-06
8.4671644e-06
8.6435986e-06
8.8278678e-06
9.0198501e-06
9.2194659e-06
9.4266836e-06
9.6415276e-06
9.8640889e-06
1.0094541e-05
1.0333163e-05
1.0580362e-05
1.0836705e-05
1.1102946e-05
1.1380049e-05
1.1669221e-05
1.1971968e-05
1.2290113e-05
1.2625863e-05
1.2981815e-05
1.3361053e-05
1.3767237e-05
1.420471e-05
1.4678642e-05
1.5194989e-05
1.5760995e-05
1.6385611e-05
1.7079664e-05
1.7856354e-05
1.8731677e-05
1.9726895e-05
2.0868541e-05
2.2190421e-05
2.3736201e-05
2.556721e-05
2.7766685e-05
3.0446572e-05
3.3764998e-05
3.7973128e-05
4.34228e-05
5.0637025e-05
6.046505e-05
7.4251544e-05
9.4104831e-05
0.00012386526
0.00016926049
0.00023951823
0.00034889212
0.00051139475
0.00073804403
0.0010328139
0.0013897524
0.0017933156
0.0022235962
0.002662147
0.0030951037
0.0035132254
0.0039106756
0.0042839926
0.0046314223
0.0049523996
0.0052471482
0.005516409
0.0057612526
0.005982947
0.006182865
0.0063624212
0.0065230303
0.0066660755
0.0067929037
0.0069047762
0.0070030087
0.0070885742
0.0071633212
0.007225462
0.0073023285
6.7270912e-06
6.7312331e-06
6.7354489e-06
6.7396237e-06
6.7438271e-06
6.7482847e-06
6.7533995e-06
6.7597722e-06
6.7681867e-06
6.7795565e-06
6.7948481e-06
6.8150045e-06
6.8408803e-06
6.8732006e-06
6.9125422e-06
6.9593326e-06
7.013863e-06
7.0763071e-06
7.1467421e-06
7.2251699e-06
7.3115358e-06
7.4057441e-06
7.507671e-06
7.6171758e-06
7.7341097e-06
7.8583241e-06
7.9896766e-06
8.1280368e-06
8.2732913e-06
8.4253484e-06
8.5841418e-06
8.7496359e-06
8.9218316e-06
9.1007752e-06
9.2865697e-06
9.4793904e-06
9.6795018e-06
9.887276e-06
1.010321e-05
1.0327944e-05
1.0562289e-05
1.0807252e-05
1.1064063e-05
1.1334193e-05
1.1619393e-05
1.1921734e-05
1.2243664e-05
1.258808e-05
1.2958332e-05
1.3358362e-05
1.3792914e-05
1.4267656e-05
1.4789392e-05
1.5366129e-05
1.6007955e-05
1.6727296e-05
1.7539289e-05
1.8463157e-05
1.9523378e-05
2.0752398e-05
2.2192231e-05
2.3897555e-05
2.5947656e-05
2.8450688e-05
3.1552059e-05
3.5478111e-05
4.0574276e-05
4.7327385e-05
5.6559084e-05
6.9509311e-05
8.8210757e-05
0.00011620976
0.00015868559
0.00022475735
0.00032595916
0.00047462463
0.00067978973
0.00094427654
0.0012617071
0.0016180769
0.0019964936
0.0023817418
0.002762371
0.0031305455
0.0034811747
0.0038111805
0.0041189451
0.0044038691
0.0046660466
0.0049060367
0.0051247017
0.005323091
0.0055023611
0.0056637237
0.0058083869
0.0059376497
0.0060524429
0.0061552023
0.0062408058
0.0063552882
6.6645925e-06
6.6684903e-06
6.6724754e-06
6.6764202e-06
6.6803163e-06
6.6842287e-06
6.688303e-06
6.6927904e-06
6.6980656e-06
6.7046261e-06
6.7130706e-06
6.7240636e-06
6.7382921e-06
6.7564236e-06
6.7790721e-06
6.8067742e-06
6.839977e-06
6.8790354e-06
6.9242161e-06
6.9757063e-06
7.033625e-06
7.0980339e-06
7.168949e-06
7.2463508e-06
7.3301936e-06
7.4204145e-06
7.5169402e-06
7.6196933e-06
7.7285979e-06
7.8435839e-06
7.9645911e-06
8.0915725e-06
8.2244992e-06
8.3633659e-06
8.5081972e-06
8.6590576e-06
8.8160619e-06
8.9793865e-06
9.1492822e-06
9.3260858e-06
9.5102373e-06
9.7022954e-06
9.9029568e-06
1.0113072e-05
1.0333661e-05
1.0565943e-05
1.0811355e-05
1.1071604e-05
1.1348669e-05
1.1644858e-05
1.1962892e-05
1.2305988e-05
1.267796e-05
1.3083252e-05
1.3527236e-05
1.4016439e-05
1.4558614e-05
1.5163371e-05
1.5842427e-05
1.6610612e-05
1.7486847e-05
1.8494483e-05
1.9665158e-05
2.1040719e-05
2.2674767e-05
2.4642478e-05
2.7052838e-05
3.0052015e-05
3.3855168e-05
3.8813051e-05
4.5420697e-05
5.4497859e-05
6.7265641e-05
8.5871361e-05
0.00011369504
0.00015603487
0.00022146962
0.00032042038
0.0004631563
0.00065687777
0.0009021393
0.0011914964
0.0015119113
0.0018490008
0.0021903762
0.0025267929
0.0028518476
0.0031613411
0.0034527276
0.0037246591
0.0039766319
0.0042087249
0.0044214174
0.004615451
0.0047917264
0.004951344
0.0050950373
0.0052257626
0.005334866
0.0054873631
6.5986688e-06
6.6023563e-06
6.6061424e-06
6.6099065e-06
6.6136189e-06
6.61729e-06
6.6209651e-06
6.6247368e-06
6.628762e-06
6.6332746e-06
6.6385902e-06
6.6451004e-06
6.6532578e-06
6.6635536e-06
6.6764918e-06
6.6925657e-06
6.7122367e-06
6.7359201e-06
6.7639758e-06
6.7967051e-06
6.834351e-06
6.8771018e-06
6.9250962e-06
6.9784298e-06
7.0371623e-06
7.1013244e-06
7.170924e-06
7.2459527e-06
7.3263906e-06
7.4122113e-06
7.5033857e-06
7.5998856e-06
7.7016873e-06
7.8087763e-06
7.9211513e-06
8.038831e-06
8.161861e-06
8.2903212e-06
8.4243343e-06
8.5640747e-06
8.7097788e-06
8.8617565e-06
9.0204038e-06
9.1862147e-06
9.3597933e-06
9.541868e-06
9.7333078e-06
9.9351454e-06
1.0148591e-05
1.0375054e-05
1.0616183e-05
1.0873907e-05
1.1150499e-05
1.1448595e-05
1.1771305e-05
1.2122349e-05
1.2506086e-05
1.2927792e-05
1.3393772e-05
1.3911709e-05
1.4491202e-05
1.5143765e-05
1.588433e-05
1.6731882e-05
1.7710222e-05
1.8850448e-05
2.0195258e-05
2.1800347e-05
2.374069e-05
2.6129192e-05
2.9119947e-05
3.2942053e-05
3.7938139e-05
4.4663318e-05
5.3964388e-05
6.7174165e-05
8.6538252e-05
0.00011552462
0.00015997808
0.0002279726
0.00032890978
0.00047135836
0.00065995463
0.00089263036
0.0011608232
0.0014524263
0.0017553604
0.0020597125
0.0023581758
0.0026456885
0.0029189488
0.0031759732
0.0034157401
0.0036379048
0.0038425964
0.0040303752
0.0042015055
0.0043593011
0.0044913452
0.0046816451
6.5294708e-06
6.532975e-06
6.5365847e-06
6.5401893e-06
6.5437547e-06
6.5472747e-06
6.5507596e-06
6.5542396e-06
6.5577732e-06
6.5614581e-06
6.5654396e-06
6.5699177e-06
6.5751474e-06
6.5814337e-06
6.5891217e-06
6.5985821e-06
6.6101957e-06
6.624339e-06
6.6413708e-06
6.6616226e-06
6.6853917e-06
6.7129376e-06
6.7444807e-06
6.7802033e-06
6.8202518e-06
6.8647411e-06
6.9137579e-06
6.9673655e-06
7.0256076e-06
7.0885127e-06
7.1560975e-06
7.2283701e-06
7.3053335e-06
7.3869891e-06
7.4733405e-06
7.564398e-06
7.6601835e-06
7.7607358e-06
7.8661167e-06
7.9764172e-06
8.0917646e-06
8.2123311e-06
8.3383422e-06
8.4700856e-06
8.6079205e-06
8.7522869e-06
8.9037164e-06
9.0628461e-06
9.2304303e-06
9.4073516e-06
9.5946425e-06
9.7935082e-06
1.000536e-05
1.0231835e-05
1.047484e-05
1.0736624e-05
1.1019808e-05
1.1327498e-05
1.1663366e-05
1.2031775e-05
1.2438051e-05
1.2888496e-05
1.3390974e-05
1.3955229e-05
1.4593238e-05
1.5320014e-05
1.6155061e-05
1.7123614e-05
1.8257615e-05
1.9601745e-05
2.1215509e-05
2.318111e-05
2.5613342e-05
2.8684284e-05
3.2643574e-05
3.7864182e-05
4.4962963e-05
5.4861467e-05
6.9110398e-05
9.013524e-05
0.00012193006
0.00017059662
0.00024395094
0.00035034563
0.00049626153
0.00068327608
0.00090680475
0.0011575656
0.001424669
0.0016982318
0.0019704851
0.002235787
0.0024902775
0.0027314749
0.0029579279
0.0031690513
0.0033641677
0.0035466263
0.0036999644
0.0039266723
6.45716e-06
6.4605028e-06
6.4639544e-06
6.4674133e-06
6.4708463e-06
6.4742421e-06
6.4775999e-06
6.4809276e-06
6.4842451e-06
6.4875891e-06
6.4910197e-06
6.4946269e-06
6.4985369e-06
6.5029146e-06
6.5079634e-06
6.5139218e-06
6.521056e-06
6.5296515e-06
6.5400032e-06
6.5524061e-06
6.5671467e-06
6.5844958e-06
6.6047033e-06
6.6279947e-06
6.6545696e-06
6.6846012e-06
6.7182372e-06
6.7556018e-06
6.796797e-06
6.8419061e-06
6.8909953e-06
6.9441165e-06
7.0013102e-06
7.0626079e-06
7.1280356e-06
7.1976169e-06
7.2713768e-06
7.3493457e-06
7.4315637e-06
7.5180851e-06
7.6089839e-06
7.7043596e-06
7.8043435e-06
7.9091059e-06
8.0188621e-06
8.1338801e-06
8.2544883e-06
8.3810843e-06
8.5141437e-06
8.6542284e-06
8.8019986e-06
8.9582265e-06
9.1238147e-06
9.2998116e-06
9.4874329e-06
9.6881002e-06
9.9034622e-06
1.0135448e-05
1.0386319e-05
1.0658722e-05
1.0955823e-05
1.1281337e-05
1.1639764e-05
1.2036568e-05
1.2478365e-05
1.2973231e-05
1.3531164e-05
1.4165057e-05
1.4890556e-05
1.5728344e-05
1.67053e-05
1.7856868e-05
1.9229966e-05
2.089039e-05
2.2929425e-05
2.547426e-05
2.8718992e-05
3.2943495e-05
3.8580624e-05
4.6336692e-05
5.7315918e-05
7.3311773e-05
9.7195894e-05
0.0001335469
0.00018864872
0.00026999188
0.00038452295
0.00053592846
0.00072264743
0.00093811251
0.0011730519
0.0014181318
0.0016655225
0.0019092801
0.0021451714
0.0023704915
0.0025828398
0.002785029
0.0029561809
0.0032158607
6.381908e-06
6.385107e-06
6.3884157e-06
6.3917402e-06
6.3950495e-06
6.3983311e-06
6.4015807e-06
6.4047988e-06
6.4079912e-06
6.4111706e-06
6.4143597e-06
6.417595e-06
6.4209323e-06
6.4244504e-06
6.4282551e-06
6.4324806e-06
6.4372889e-06
6.4428675e-06
6.4494248e-06
6.4571849e-06
6.4663812e-06
6.4772499e-06
6.4900243e-06
6.5049295e-06
6.5221784e-06
6.5419688e-06
6.5644813e-06
6.5898785e-06
6.6183048e-06
6.6498864e-06
6.6847328e-06
6.7229372e-06
6.7645787e-06
6.8097236e-06
6.8584282e-06
6.9107403e-06
6.9667032e-06
7.0263573e-06
7.0897441e-06
7.1569095e-06
7.2279073e-06
7.3028041e-06
7.381684e-06
7.4646531e-06
7.5518457e-06
7.6434286e-06
7.7396082e-06
7.840636e-06
7.9468158e-06
8.0585095e-06
8.1761451e-06
8.3002261e-06
8.4313417e-06
8.5701781e-06
8.7175311e-06
8.8743272e-06
9.041639e-06
9.2207119e-06
9.4129966e-06
9.6201767e-06
9.8442353e-06
1.0087485e-05
1.0352668e-05
1.0643061e-05
1.0962576e-05
1.1315913e-05
1.1708709e-05
1.2148073e-05
1.2642538e-05
1.3202853e-05
1.3842642e-05
1.4579309e-05
1.5435076e-05
1.6439484e-05
1.7632025e-05
1.9065114e-05
2.0813189e-05
2.2979508e-05
2.5711542e-05
2.9234603e-05
3.3886361e-05
4.0187888e-05
4.899109e-05
6.1657661e-05
8.0388861e-05
0.00010866796
0.00015153823
0.00021546946
0.00030717071
0.00043134568
0.00058848889
0.0007742972
0.00098117949
0.0012006542
0.0014251182
0.0016487247
0.0018662962
0.0020792262
0.0022617468
0.0025476345
6.3038945e-06
6.306964e-06
6.3101423e-06
6.3133421e-06
6.3165348e-06
6.3197079e-06
6.3228561e-06
6.3259773e-06
6.3290726e-06
6.3321457e-06
6.3352047e-06
6.338263e-06
6.3413431e-06
6.3444788e-06
6.3477191e-06
6.3511312e-06
6.3548023e-06
6.3588408e-06
6.3633764e-06
6.368558e-06
6.3745515e-06
6.3815357e-06
6.3896985e-06
6.3992326e-06
6.4103311e-06
6.4231839e-06
6.4379744e-06
6.454877e-06
6.4740548e-06
6.4956586e-06
6.5198259e-06
6.5466805e-06
6.5763326e-06
6.6088798e-06
6.6444076e-06
6.6829915e-06
6.7246979e-06
6.7695867e-06
6.8177132e-06
6.8691304e-06
6.9238921e-06
6.9820558e-06
7.0436868e-06
7.1088612e-06
7.1776708e-06
7.2502265e-06
7.3266636e-06
7.4071463e-06
7.4918728e-06
7.5810803e-06
7.6750507e-06
7.7741169e-06
7.87867e-06
7.9891665e-06
8.1061376e-06
8.2302005e-06
8.3620699e-06
8.5025727e-06
8.6526682e-06
8.8134649e-06
8.9862547e-06
9.1725365e-06
9.3740636e-06
9.5929029e-06
9.8314937e-06
1.0092732e-05
1.0380027e-05
1.0697567e-05
1.1050356e-05
1.1444495e-05
1.1887527e-05
1.2388859e-05
1.2960206e-05
1.3616518e-05
1.4377165e-05
1.526701e-05
1.6319441e-05
1.7579203e-05
1.91067e-05
2.0988229e-05
2.3347144e-05
2.6361993e-05
3.0306487e-05
3.5601238e-05
4.2911006e-05
5.3315161e-05
6.8553119e-05
9.137436e-05
0.00012589046
0.00017762285
0.00025275066
0.00035631738
0.00049008627
0.00065147968
0.00083439312
0.0010314982
0.0012347188
0.0014432756
0.0016261418
0.001926238
6.2233058e-06
6.2262573e-06
6.2293157e-06
6.2323992e-06
6.2354814e-06
6.2385507e-06
6.2416012e-06
6.2446301e-06
6.2476366e-06
6.2506214e-06
6.2535868e-06
6.2565378e-06
6.2594822e-06
6.2624334e-06
6.2654119e-06
6.2684476e-06
6.2715826e-06
6.2748727e-06
6.2783897e-06
6.2822213e-06
6.2864722e-06
6.2912621e-06
6.2967248e-06
6.3030053e-06
6.3102575e-06
6.3186408e-06
6.3283174e-06
6.3394493e-06
6.3521954e-06
6.3667098e-06
6.383139e-06
6.4016211e-06
6.4222846e-06
6.4452477e-06
6.4706183e-06
6.4984945e-06
6.5289648e-06
6.5621097e-06
6.5980023e-06
6.6367103e-06
6.6782973e-06
6.7228255e-06
6.770358e-06
6.8209617e-06
6.8747102e-06
6.931687e-06
6.9919892e-06
7.0557313e-06
7.1230489e-06
7.1941029e-06
7.2690837e-06
7.3482163e-06
7.4317649e-06
7.5200384e-06
7.6133971e-06
7.7122596e-06
7.8171112e-06
7.9285125e-06
8.0471127e-06
8.1736603e-06
8.3090219e-06
8.4541994e-06
8.6103548e-06
8.7788434e-06
8.9612502e-06
9.159439e-06
9.3755814e-06
9.6122834e-06
9.8726398e-06
1.0160351e-05
1.0479894e-05
1.083674e-05
1.1237574e-05
1.1690682e-05
1.2206512e-05
1.2798146e-05
1.348245e-05
1.4281337e-05
1.5223267e-05
1.634674e-05
1.7704495e-05
1.9369091e-05
2.1444832e-05
2.4083672e-05
2.7512108e-05
3.2079497e-05
3.8334867e-05
4.7156309e-05
5.9959192e-05
7.8995429e-05
0.0001076873
0.0001507726
0.00021383168
0.00030188155
0.00041734192
0.00055908903
0.00072119087
0.0009027319
0.0010686799
0.0013632428
6.1403332e-06
6.1431763e-06
6.1461236e-06
6.149098e-06
6.1520753e-06
6.1550447e-06
6.1580005e-06
6.1609396e-06
6.1638603e-06
6.166762e-06
6.1696453e-06
6.1725114e-06
6.1753631e-06
6.1782051e-06
6.1810448e-06
6.1838945e-06
6.1867721e-06
6.1897034e-06
6.1927238e-06
6.1958799e-06
6.1992303e-06
6.202847e-06
6.206815e-06
6.211232e-06
6.2162072e-06
6.2218601e-06
6.2283184e-06
6.2357157e-06
6.2441896e-06
6.2538789e-06
6.2649219e-06
6.2774541e-06