/*--------------------------------*- C++ -*----------------------------------*\
  =========                 |
  \\      /  F ield         | OpenFOAM: The Open Source CFD Toolbox
   \\    /   O peration     | Website:  https://openfoam.org
    \\  /    A nd           | Version:  12
     \\/     M anipulation  |
\*---------------------------------------------------------------------------*/
FoamFile
{
    format      ascii;
    class       volScalarField;
    location    "1800";
    object      k;
}
// * * * * * * * * * * * * * * * * * * * * * * * * * * * * * * * * * * * * * //

dimensions      [0 2 -2 0 0 0 0];

internalField   nonuniform List<scalar> 
13056
(
0.00011846605
8.2489e-05
6.683364e-05
5.963979e-05
5.5550519e-05
5.2787968e-05
5.0761197e-05
4.9215306e-05
4.8006637e-05
4.7043023e-05
4.6262136e-05
4.5620479e-05
4.5086863e-05
4.4638348e-05
4.42577e-05
4.39316e-05
4.3649937e-05
4.3403475e-05
4.3189483e-05
4.2987629e-05
4.2847789e-05
4.2583124e-05
4.2696791e-05
4.1375969e-05
0.00016649523
0.00020616584
0.00019117611
0.00017608573
0.00016485342
0.00015572394
0.00014797087
0.00014134732
0.00013566046
0.00013072106
0.0001263763
0.00012251527
0.00011905801
0.0001159382
0.00011309805
0.00011049515
0.00010809726
0.0001058761
0.00010380887
0.00010187675
0.00010006401
9.8357551e-05
9.674581e-05
9.5219229e-05
9.3769697e-05
9.2389932e-05
9.107408e-05
8.9816739e-05
8.8612621e-05
8.7457363e-05
8.6347103e-05
8.5278083e-05
8.4247009e-05
8.3251229e-05
8.2288245e-05
8.1355559e-05
8.0451094e-05
7.9573115e-05
7.8719863e-05
7.7889555e-05
7.7080706e-05
7.6292084e-05
7.5522434e-05
7.4770447e-05
7.4034971e-05
7.3315115e-05
7.2610022e-05
7.1918689e-05
7.1240147e-05
7.0573725e-05
6.9918796e-05
6.9274616e-05
6.8640427e-05
6.8015568e-05
6.7399558e-05
6.6791908e-05
6.6191996e-05
6.5599184e-05
6.5013039e-05
6.4433183e-05
6.3859158e-05
6.3290442e-05
6.272653e-05
6.2167111e-05
6.1611871e-05
6.1060373e-05
6.0512143e-05
5.9966813e-05
5.9424103e-05
5.8883682e-05
5.8345101e-05
5.7807911e-05
5.7271832e-05
5.6736588e-05
5.6201749e-05
5.5666859e-05
5.5131619e-05
5.459575e-05
5.4058816e-05
5.352033e-05
5.2979922e-05
5.2437261e-05
5.1891851e-05
5.1343139e-05
5.0790719e-05
5.0234144e-05
4.9672794e-05
4.9106023e-05
4.8533415e-05
4.7966749e-05
4.7423775e-05
4.6909243e-05
4.642077e-05
4.5956135e-05
4.5513396e-05
4.5090882e-05
4.4687058e-05
4.4300453e-05
4.3929746e-05
4.3573838e-05
4.3231703e-05
4.2902334e-05
4.2584792e-05
4.2278151e-05
4.1981723e-05
4.1694316e-05
4.1415818e-05
4.1142624e-05
4.0878877e-05
4.0607451e-05
4.0366259e-05
3.9976744e-05
0.00011847521
8.2501817e-05
6.6843916e-05
5.9647482e-05
5.5556526e-05
5.2792839e-05
5.0765221e-05
4.9218657e-05
4.8009438e-05
4.7045368e-05
4.6264098e-05
4.5622115e-05
4.508822e-05
4.4639463e-05
4.4258602e-05
4.3932314e-05
4.3650484e-05
4.3403868e-05
4.3189737e-05
4.298775e-05
4.2847792e-05
4.2582995e-05
4.2696758e-05
4.1367913e-05
0.0018126657
0.002232135
0.0020725493
0.0019118018
0.0017918924
0.0016942537
0.0016112046
0.0015401566
0.0014790828
0.0014259807
0.001379228
0.0013376464
0.0013003855
0.001266739
0.00123609
0.0012079855
0.001182081
0.0011580744
0.0011357215
0.0011148209
0.0010952039
0.0010767302
0.0010592758
0.0010427381
0.0010270302
0.0010120739
0.00099780624
0.00098416929
0.00097110615
0.00095856991
0.00094651906
0.00093491309
0.00092371657
0.00091290095
0.00090243934
0.00089230481
0.00088247495
0.00087293112
0.00086365434
0.00085462535
0.00084582816
0.00083724945
0.00082887571
0.00082069278
0.00081268822
0.00080485242
0.00079717611
0.00078964846
0.00078225897
0.0007750004
0.00076786598
0.00076084765
0.00075393719
0.00074712745
0.00074041323
0.00073378923
0.00072724872
0.00072078476
0.00071439266
0.00070806833
0.00070180678
0.00069560236
0.00068944958
0.00068334505
0.00067728538
0.00067126579
0.00066528115
0.00065932743
0.0006534016
0.00064750004
0.00064161785
0.00063575017
0.0006298939
0.00062404604
0.00061820191
0.00061235652
0.00060650659
0.00060064908
0.00059477922
0.00058889166
0.00058298237
0.00057704771
0.00057108226
0.00056507993
0.00055903629
0.00055294641
0.00054680351
0.00054060047
0.00053433273
0.00052812923
0.00052218433
0.00051655016
0.0005112007
0.00050611176
0.00050126211
0.00049663354
0.0004922093
0.00048797332
0.00048391117
0.00048001086
0.00047626118
0.00047265113
0.00046917045
0.00046580901
0.0004625593
0.00045940827
0.00045635472
0.00045335912
0.00045046694
0.00044749035
0.00044484516
0.000440573
0.00011850324
8.2538395e-05
6.6871179e-05
5.966638e-05
5.5570128e-05
5.2802871e-05
5.0772571e-05
4.9223873e-05
4.8012912e-05
4.7047396e-05
4.6264912e-05
4.5621898e-05
4.5087118e-05
4.4637593e-05
4.4256059e-05
4.3929174e-05
4.3646808e-05
4.3399704e-05
4.3185125e-05
4.2982709e-05
4.2842368e-05
4.2577107e-05
4.2690857e-05
4.1346821e-05
0.0039020432
0.0047313354
0.0044085448
0.0040850742
0.0038426987
0.0036444412
0.0034750859
0.0033296335
0.0032041606
0.0030947234
0.0029981014
0.0029119483
0.00283457
0.0027645512
0.0027006471
0.0026419435
0.0025877457
0.0025374407
0.0024905328
0.0024466124
0.002405336
0.0023664177
0.0023296038
0.0022946847
0.0022614823
0.0022298364
0.0021996182
0.0021707088
0.0021429908
0.0021163676
0.0020907539
0.0020660657
0.0020422297
0.002019187
0.0019968821
0.0019752589
0.0019542711
0.0019338801
0.0019140464
0.0018947299
0.0018758973
0.0018575211
0.0018395729
0.0018220232
0.001804846
0.0017880213
0.0017715296
0.0017553484
0.0017394554
0.0017238355
0.0017084747
0.0016933558
0.0016784616
0.001663777
0.001649291
0.0016349925
0.0016208672
0.0016069004
0.0015930821
0.0015794037
0.0015658546
0.0015524227
0.0015390963
0.0015258681
0.001512731
0.0014996747
0.0014866882
0.0014737627
0.0014608918
0.0014480678
0.0014352799
0.0014225176
0.0014097743
0.0013970433
0.0013843146
0.0013715773
0.001358824
0.0013460483
0.0013332396
0.0013203862
0.0013074792
0.0012945106
0.0012814684
0.0012683392
0.0012551132
0.0012417793
0.0012283225
0.0012147271
0.0012009828
0.0011873723
0.0011743227
0.0011619491
0.0011501954
0.0011390092
0.0011283445
0.0011181619
0.0011084251
0.0010990993
0.0010901529
0.0010815601
0.0010732965
0.001065338
0.0010576625
0.0010502477
0.0010430773
0.0010361227
0.0010293815
0.0010227665
0.0010163782
0.0010098017
0.001003956
0.00099451215
0.000118551
8.2600024e-05
6.6916541e-05
5.9697376e-05
5.5592067e-05
5.2818704e-05
5.0783813e-05
4.923146e-05
4.8017513e-05
4.7049521e-05
4.6264957e-05
4.5620176e-05
4.5083879e-05
4.4633037e-05
4.4250349e-05
4.392244e-05
4.3639155e-05
4.3391215e-05
4.3175866e-05
4.2972715e-05
4.2831715e-05
4.2565628e-05
4.2679295e-05
4.1314768e-05
0.0057825763
0.0069368269
0.0064919291
0.0060487166
0.0057157175
0.0054422815
0.0052077607
0.0050055447
0.0048304679
0.004677259
0.0045415801
0.0044202636
0.0043110219
0.0042119343
0.0041212989
0.0040378657
0.0039606851
0.0038889156
0.0038218749
0.0037589992
0.0036998146
0.003643926
0.0035909823
0.0035406932
0.003492812
0.0034471157
0.0034034262
0.003361578
0.0033214072
0.0032827791
0.0032455741
0.0032096748
0.0031749782
0.0031414019
0.0031088679
0.0030772975
0.0030466252
0.0030167971
0.0029877575
0.0029594496
0.0029318263
0.0029048487
0.0028784769
0.0028526688
0.0028273874
0.0028026043
0.0027782922
0.0027544185
0.0027309514
0.0027078696
0.0026851528
0.0026627768
0.0026407164
0.0026189499
0.0025974617
0.0025762358
0.0025552515
0.0025344873
0.0025139288
0.0024935635
0.0024733761
0.0024533487
0.0024334642
0.002413712
0.0023940815
0.0023745577
0.0023551242
0.002335768
0.0023164796
0.0022972474
0.0022780554
0.0022588878
0.0022397347
0.002220586
0.0022014264
0.0021822395
0.0021630142
0.0021437403
0.0021244019
0.002104981
0.0020854639
0.0020658381
0.0020460852
0.0020261844
0.0020061203
0.0019858758
0.0019654275
0.0019447508
0.0019238293
0.0019030932
0.0018831943
0.0018643106
0.0018463588
0.0018292606
0.0018129478
0.0017973616
0.0017824477
0.0017681539
0.0017544333
0.001741247
0.0017285585
0.0017163317
0.0017045332
0.0016931295
0.0016820961
0.0016713894
0.0016610062
0.0016508124
0.0016409637
0.0016308197
0.0016217993
0.0016072184
0.00011861983
8.2688711e-05
6.6981742e-05
5.9741868e-05
5.562351e-05
5.2841347e-05
5.079984e-05
4.9242219e-05
4.8023968e-05
4.7052404e-05
4.6264841e-05
4.5617512e-05
4.5079026e-05
4.4626286e-05
4.4241931e-05
4.3912545e-05
4.3627934e-05
4.3378784e-05
4.3162324e-05
4.295811e-05
4.2816158e-05
4.2548846e-05
4.2662417e-05
4.1273094e-05
0.0072345842
0.0086681863
0.0081390987
0.0076139715
0.0072195812
0.0068952601
0.0066165174
0.0063756296
0.0061666183
0.0059833466
0.0058207428
0.0056750984
0.005543736
0.0054244029
0.0053150936
0.0052143342
0.0051210061
0.0050341154
0.0049528554
0.0048765586
0.0048046637
0.0047367026
0.0046722585
0.0046109865
0.004552594
0.0044968157
0.00444344
0.0043922701
0.0043431103
0.0042958
0.0042501966
0.0042061596
0.0041635656
0.0041223163
0.0040823184
0.0040434772
0.0040057145
0.0039689656
0.0039331638
0.0038982406
0.0038641394
0.0038308135
0.003798215
0.0037662929
0.0037350024
0.0037043094
0.003674181
0.0036445778
0.003615461
0.0035868049
0.0035585849
0.0035307716
0.0035033343
0.0034762464
0.0034494891
0.0034230429
0.0033968822
0.0033709808
0.0033453209
0.0033198874
0.0032946611
0.0032696202
0.0032447433
0.0032200174
0.0031954295
0.0031709606
0.0031465904
0.0031223028
0.0030980856
0.0030739243
0.0030497991
0.0030256897
0.0030015835
0.0029774681
0.0029533237
0.0029291295
0.0029048713
0.0028805361
0.0028561033
0.0028315499
0.0028068582
0.0027820119
0.0027569873
0.0027317573
0.002706302
0.0026805989
0.0026546175
0.0026283256
0.0026017017
0.0025752927
0.0025499301
0.0025258432
0.0025029283
0.0024810879
0.0024602367
0.0024403012
0.0024212138
0.0024029091
0.0023853282
0.0023684224
0.0023521458
0.0023364533
0.0023213026
0.0023066516
0.0022924695
0.0022787007
0.0022653418
0.0022522205
0.0022395377
0.0022264686
0.0022148423
0.0021960391
0.00011871151
8.280717e-05
6.7069166e-05
5.9801798e-05
5.5666093e-05
5.2872233e-05
5.0821929e-05
4.9257304e-05
4.803333e-05
4.7057017e-05
4.6265463e-05
4.5614743e-05
4.5073345e-05
4.4618077e-05
4.4231505e-05
4.390015e-05
4.3613773e-05
4.3363014e-05
4.3145074e-05
4.2939444e-05
4.2796223e-05
4.2527238e-05
4.2640782e-05
4.1222923e-05
0.0082922998
0.010020288
0.00943388
0.0088496545
0.0084114279
0.0080509051
0.0077407127
0.0074722963
0.0072390971
0.0070343722
0.0068525339
0.0066894912
0.0065422912
0.0064084479
0.0062857431
0.0061725433
0.0060676106
0.0059698439
0.0058783479
0.0057923819
0.0057113228
0.0056346507
0.0055619022
0.0054926938
0.0054267
0.0053636258
0.0053032356
0.0052453106
0.0051896326
0.0051360222
0.0050843206
0.0050343709
0.0049860353
0.0049392037
0.0048937723
0.0048496351
0.0048067045
0.0047649081
0.0047241715
0.0046844179
0.0046455837
0.0046076167
0.0045704633
0.004534066
0.0044983745
0.0044633507
0.0044289576
0.0043951507
0.0043618864
0.0043291356
0.0042968709
0.0042650589
0.004233665
0.0042026592
0.00417202
0.0041417254
0.0041117466
0.0040820536
0.0040526263
0.0040234475
0.0039944955
0.0039657452
0.0039371723
0.0039087619
0.0038804991
0.0038523622
0.0038243278
0.0037963774
0.0037684971
0.00374067
0.0037128732
0.0036850835
0.0036572861
0.0036294664
0.0036016016
0.0035736675
0.0035456474
0.0035175262
0.0034892796
0.0034608809
0.0034323091
0.0034035452
0.003374561
0.0033453249
0.0033158131
0.003285999
0.0032558466
0.0032253178
0.0031943866
0.0031636884
0.0031341904
0.0031061616
0.0030794829
0.0030540429
0.0030297437
0.0030065011
0.0029842375
0.0029628778
0.0029423543
0.0029226109
0.0029035951
0.0028852547
0.0028675411
0.0028504056
0.0028338126
0.0028176979
0.0028020575
0.0027866904
0.0027718321
0.0027565158
0.0027428864
0.0027208351
0.00011882824
8.2958822e-05
6.718188e-05
5.98797e-05
5.5721979e-05
5.2913272e-05
5.0851809e-05
4.9278296e-05
4.8047057e-05
4.7064713e-05
4.6268091e-05
4.5613064e-05
4.5067965e-05
4.4609484e-05
4.4220094e-05
4.3886238e-05
4.3597615e-05
4.3344809e-05
4.3124987e-05
4.2917556e-05
4.2772722e-05
4.2501553e-05
4.2615255e-05
4.1165502e-05
0.0090293077
0.011097272
0.010474994
0.0098463542
0.0093751989
0.0089875074
0.0086536908
0.0083645656
0.0081131442
0.0078922399
0.0076958836
0.0075196991
0.0073605258
0.0072157052
0.0070828616
0.006960241
0.0068465157
0.006740505
0.006641247
0.006547946
0.0064599325
0.0063766474
0.0062975927
0.0062223556
0.0061505859
0.0060819664
0.0060162432
0.005953181
0.0058925446
0.0058341406
0.0057777978
0.005723347
0.0056706393
0.0056195563
0.0055699855
0.0055218129
0.0054749435
0.0054292995
0.0053848002
0.0053413627
0.0052989181
0.0052574101
0.0052167806
0.0051769675
0.0051379162
0.0050995853
0.0050619348
0.0050249167
0.0049884834
0.0049526033
0.0049172468
0.0048823776
0.0048479581
0.0048139554
0.0047803464
0.0047471072
0.0047142062
0.0046816107
0.0046492989
0.0046172518
0.0045854458
0.0045538536
0.0045224483
0.0044912137
0.0044601335
0.0044291838
0.004398339
0.0043675785
0.0043368872
0.0043062464
0.0042756308
0.0042450148
0.0042143819
0.0041837162
0.0041529922
0.0041221831
0.0040912705
0.0040602372
0.0040290565
0.0039976985
0.0039661398
0.003934359
0.0039023247
0.0038700018
0.0038373632
0.0038043793
0.0037710097
0.0037372116
0.0037029557
0.0036689453
0.0036362528
0.0036051775
0.0035755892
0.0035473654
0.0035203988
0.0034945969
0.0034698745
0.0034461491
0.0034233461
0.0034014041
0.0033802651
0.0033598718
0.0033401705
0.0033211076
0.0033026439
0.0032847083
0.0032672968
0.0032501855
0.0032336374
0.0032165753
0.0032013891
0.0031768123
0.0001189726
8.3147795e-05
6.7323665e-05
5.9978761e-05
5.5793929e-05
5.296694e-05
5.0891739e-05
4.9307284e-05
4.8067099e-05
4.7077327e-05
4.6274459e-05
4.5614122e-05
4.506446e-05
4.4602017e-05
4.420915e-05
4.3872207e-05
4.3580813e-05
4.3325482e-05
4.3103336e-05
4.2893684e-05
4.2746861e-05
4.2472928e-05
4.2587126e-05
4.1102442e-05
0.0095054174
0.011971251
0.011332119
0.010669692
0.010173065
0.0097642787
0.009412054
0.0091067441
0.0088410451
0.0086074408
0.0083996737
0.0082131481
0.0080445418
0.0078910641
0.0077502197
0.0076201597
0.007499486
0.0073869575
0.0072815595
0.0071824537
0.0070889343
0.0070004118
0.0069163608
0.0068363457
0.0067599971
0.0066869802
0.006617027
0.0065498889
0.0064853178
0.0064231088
0.0063630812
0.0063050562
0.0062488763
0.0061944159
0.0061415564
0.0060901771
0.0060401774
0.0059914747
0.005943984
0.0058976173
0.0058523017
0.0058079772
0.0057645825
0.0057220518
0.0056803272
0.0056393645
0.0055991216
0.0055595473
0.0055205913
0.0054822198
0.0054444013
0.0054070974
0.0053702681
0.0053338784
0.0052979035
0.0052623181
0.0052270887
0.0051921802
0.0051575694
0.005123236
0.005089155
0.005055297
0.0050216333
0.0049881466
0.0049548193
0.0049216262
0.0048885394
0.0048555371
0.0048226029
0.0047897168
0.0047568516
0.0047239798
0.0046910836
0.0046581457
0.0046251388
0.0045920339
0.0045588111
0.0045254518
0.0044919271
0.0044582048
0.0044242594
0.0043900676
0.0043555956
0.0043208049
0.0042856666
0.004250148
0.0042142054
0.0041777922
0.0041408765
0.0041042159
0.0040689669
0.0040354533
0.0040035357
0.0039730832
0.0039439805
0.003916129
0.0038894372
0.0038638165
0.0038391873
0.0038154835
0.003792643
0.0037706043
0.0037493098
0.0037287018
0.0037087383
0.0036893427
0.0036705108
0.0036520009
0.0036340974
0.0036156355
0.0035992005
0.0035725967
0.00011914753
8.3378918e-05
6.749907e-05
6.0102893e-05
5.5885387e-05
5.3036363e-05
5.0944614e-05
4.9346979e-05
4.8096012e-05
4.7097283e-05
4.6286882e-05
4.5620138e-05
4.5064969e-05
4.4597742e-05
4.4200675e-05
4.3860005e-05
4.3565265e-05
4.3306881e-05
4.3081929e-05
4.2869595e-05
4.2720367e-05
4.2443014e-05
4.2558251e-05
4.1035905e-05
0.00976307
0.012688566
0.012051039
0.011363347
0.010846807
0.010421361
0.010054493
0.0097362431
0.0094590825
0.0092152533
0.0089982797
0.0088033962
0.0086271521
0.0084666541
0.0083193152
0.0081832102
0.0080568849
0.0079390507
0.0078286511
0.0077248135
0.0076268035
0.0075340068
0.0074458768
0.0073619589
0.0072818685
0.0072052571
0.0071318448
0.0070613725
0.0069935818
0.0069282586
0.006865214
0.0068042619
0.0067452378
0.0066880103
0.0066324556
0.0065784478
0.0065258817
0.0064746709
0.0064247268
0.0063759573
0.0063282861
0.0062816505
0.0062359865
0.0061912251
0.0061473058
0.0061041824
0.0060618105
0.0060201369
0.0059791087
0.0059386904
0.0058988491
0.0058595447
0.005820735
0.0057823833
0.0057444637
0.0057069495
0.0056698056
0.0056329953
0.0055964939
0.0055602801
0.0055243277
0.0054886057
0.0054530841
0.0054177443
0.005382568
0.0053475284
0.0053125964
0.0052777488
0.0052429681
0.0052082334
0.005173516
0.0051387865
0.0051040263
0.0050692169
0.0050343295
0.0049993334
0.0049642072
0.0049289313
0.004893475
0.0048578041
0.0048218914
0.0047857121
0.0047492303
0.004712405
0.0046752052
0.0046375962
0.0045995314
0.0045609611
0.004521851
0.0044830037
0.004445645
0.004410119
0.0043762789
0.0043439865
0.0043131205
0.0042835767
0.0042552587
0.004228073
0.0042019356
0.0041767767
0.0041525308
0.004129133
0.0041065222
0.0040846378
0.0040634352
0.0040428332
0.0040228277
0.0040031624
0.0039841387
0.0039645213
0.003947054
0.0039187744
0.00011935627
8.3657712e-05
6.7713452e-05
6.0256808e-05
5.600057e-05
5.3125425e-05
5.1014072e-05
4.940082e-05
4.8137075e-05
4.7127725e-05
4.6308387e-05
4.5634038e-05
4.507233e-05
4.4599421e-05
4.4197366e-05
4.3852266e-05
4.3553547e-05
4.3291537e-05
4.3063248e-05
4.2847727e-05
4.2695641e-05
4.2414137e-05
4.2531214e-05
4.0968772e-05
0.0098318769
0.013278348
0.012661856
0.011956368
0.011424388
0.010985754
0.010607152
0.010278448
0.0099919706
0.0097397935
0.0095152796
0.0093135331
0.0091310011
0.0089647105
0.0088120052
0.0086708978
0.0085398887
0.0084176528
0.0083030995
0.0081953285
0.0080935824
0.0079972271
0.0079056986
0.007818527
0.0077353152
0.0076557039
0.0075794032
0.0075061456
0.0074356644
0.0073677374
0.0073021695
0.0072387685
0.0071773639
0.0071178197
0.0070600078
0.0070037982
0.0069490817
0.0068957688
0.0068437678
0.0067929836
0.0067433368
0.0066947624
0.0066471942
0.0066005608
0.0065547993
0.0065098617
0.0064657022
0.0064222654
0.0063794966
0.0063373588
0.0062958179
0.0062548321
0.0062143578
0.0061743569
0.0061348022
0.0060956661
0.0060569121
0.0060185021
0.0059804102
0.0059426143
0.0059050871
0.0058677965
0.0058307111
0.0057938114
0.0057570783
0.0057204841
0.0056839982
0.0056475964
0.0056112605
0.0055749685
0.0055386904
0.0055023957
0.0054660647
0.0054296779
0.0053932054
0.0053566148
0.0053198839
0.0052829918
0.0052459065
0.0052085921
0.0051710199
0.005133164
0.0050949863
0.0050564441
0.0050175046
0.0049781311
0.0049382748
0.0048978832
0.0048569202
0.004816226
0.0047770855
0.0047398596
0.0047043953
0.0046705484
0.0046381923
0.0046072184
0.004577526
0.0045490175
0.0045216052
0.0044952162
0.0044697821
0.0044452351
0.0044215115
0.0043985476
0.0043762971
0.0043546751
0.004333677
0.0043130349
0.0042930636
0.0042724704
0.00425413
0.0042244318
0.00011960231
8.3990372e-05
6.7973026e-05
6.0446103e-05
5.6144568e-05
5.3238875e-05
5.1104613e-05
4.9473113e-05
4.8194429e-05
4.7172654e-05
4.6342855e-05
4.5659601e-05
4.5090233e-05
4.4610665e-05
4.4202762e-05
4.3852468e-05
4.3549084e-05
4.328282e-05
4.3050616e-05
4.2831359e-05
4.2675922e-05
4.238948e-05
4.2509513e-05
4.0904766e-05
0.0097330256
0.013758161
0.013184791
0.012468406
0.011924839
0.011475912
0.011087959
0.010750817
0.010456752
0.010197731
0.0099670058
0.0097595847
0.0095718345
0.0094007217
0.0092435393
0.0090982499
0.0089633171
0.0088373881
0.0087193449
0.0086082648
0.008503372
0.0084040162
0.0083096196
0.0082196998
0.0081338493
0.0080517004
0.0079729549
0.0078973381
0.0078245767
0.0077544421
0.0076867334
0.0076212538
0.007557828
0.0074963157
0.0074365856
0.0073785041
0.007321959
0.0072668578
0.0072131063
0.007160607
0.0071092781
0.0070590523
0.0070098617
0.006961633
0.0069143013
0.0068678169
0.0068221327
0.0067771919
0.0067329382
0.006689333
0.0066463412
0.00660392
0.0065620244
0.0065206149
0.0064796635
0.0064391416
0.0063990117
0.0063592345
0.006319783
0.0062806345
0.0062417607
0.0062031285
0.0061647054
0.0061264712
0.006088406
0.0060504813
0.0060126654
0.0059749332
0.0059372656
0.00589964
0.0058620254
0.0058243899
0.0057867131
0.0057489747
0.0057111438
0.0056731867
0.0056350801
0.0055968024
0.0055583203
0.0055195963
0.0054806008
0.0054413064
0.0054016737
0.0053616583
0.0053212255
0.0052803375
0.005238943
0.0051969877
0.0051544332
0.0051121528
0.0050714814
0.005032795
0.004995935
0.0049607521
0.0049271153
0.004894912
0.004864038
0.0048343922
0.0048058836
0.0047784367
0.0047519807
0.0047264453
0.0047017644
0.004677872
0.00465472
0.0046322204
0.0046103685
0.0045888863
0.0045680996
0.0045466686
0.004527577
0.0044966572
0.00011988931
8.4383736e-05
6.8284898e-05
6.067733e-05
5.6323443e-05
5.338244e-05
5.1221724e-05
4.9569155e-05
4.8273213e-05
4.7237076e-05
4.6395177e-05
4.5701618e-05
4.5123379e-05
4.4636099e-05
4.4221419e-05
4.3865106e-05
4.3556313e-05
4.3285118e-05
4.3048373e-05
4.2824787e-05
4.2665462e-05
4.2373289e-05
4.2497757e-05
4.0848496e-05
0.0094824536
0.014137806
0.013633459
0.012912986
0.012361378
0.01190471
0.011509465
0.011165609
0.010865419
0.010600818
0.010364994
0.010152888
0.0099608066
0.0097856736
0.0096247471
0.0094759501
0.0093377172
0.0092086754
0.0090876846
0.0089738045
0.0088662449
0.0087643426
0.0086675088
0.0085752509
0.008487153
0.008402841
0.0083220094
0.0082443779
0.0081696681
0.0080976455
0.0080281048
0.0079608451
0.0078956877
0.0078324882
0.0077711126
0.0077114248
0.0076533097
0.0075966723
0.0075414167
0.0074874431
0.0074346675
0.0073830211
0.0073324341
0.007282832
0.0072341482
0.0071863314
0.0071393334
0.0070930962
0.0070475622
0.0070026915
0.0069584481
0.0069147883
0.0068716659
0.0068290405
0.006786883
0.0067451641
0.0067038456
0.0066628869
0.0066222604
0.0065819425
0.0065419043
0.0065021119
0.0064625317
0.0064231429
0.0063839249
0.0063448486
0.0063058813
0.0062669971
0.0062281763
0.0061893956
0.0061506229
0.0061118257
0.0060729825
0.0060340726
0.0059950639
0.0059559218
0.0059166221
0.0058771423
0.0058374483
0.0057975012
0.0057572702
0.0057167271
0.0056758311
0.0056345361
0.0055928064
0.0055506025
0.0055078715
0.0054645571
0.0054206194
0.0053769597
0.0053349571
0.0052950004
0.0052569263
0.0052205811
0.0051858299
0.0051525567
0.0051206542
0.0050900184
0.0050605555
0.0050321875
0.0050048417
0.0049784455
0.0049529308
0.0049282298
0.0049042926
0.0048810287
0.0048584328
0.0048362194
0.0048147223
0.0047925636
0.0047728176
0.0047408324
0.00012022106
8.4845229e-05
6.8657081e-05
6.0958064e-05
5.6544314e-05
5.3562927e-05
5.1371993e-05
4.9695362e-05
4.8379701e-05
4.7327142e-05
4.64714e-05
4.5766042e-05
4.5177643e-05
4.4681524e-05
4.4259076e-05
4.3895859e-05
4.3580863e-05
4.3304012e-05
4.3062056e-05
4.2833506e-05
4.2669717e-05
4.2371114e-05
4.250188e-05
4.0805363e-05
0.009094208
0.014420861
0.014016978
0.013299522
0.012743345
0.012281309
0.011880641
0.011531611
0.011226592
0.010957522
0.010717568
0.010501636
0.010305991
0.010127527
0.0099634851
0.009811757
0.0096707552
0.0095390934
0.009415615
0.0092993658
0.0091895449
0.0090854789
0.0089865708
0.0088923194
0.0088023026
0.0087161415
0.0086335244
0.0085541666
0.0084777857
0.0084041422
0.0083330271
0.0082642365
0.0081975886
0.0081329358
0.0080701417
0.0080090685
0.0079495984
0.0078916345
0.0078350791
0.007779831
0.0077258043
0.0076729284
0.0076211326
0.007570341
0.0075204855
0.0074715138
0.0074233764
0.0073760146
0.0073293696
0.0072834003
0.00723807
0.0071933341
0.0071491457
0.0071054633
0.0070622571
0.0070194971
0.0069771444
0.0069351577
0.0068935083
0.0068521721
0.0068111197
0.0067703164
0.006729728
0.0066893327
0.0066491097
0.006609029
0.0065690574
0.0065291681
0.0064893409
0.0064495517
0.006409768
0.0063699563
0.0063300942
0.0062901606
0.0062501226
0.0062099447
0.0061696019
0.0061290709
0.0060883168
0.0060472996
0.0060059875
0.0059643513
0.0059223493
0.005879934
0.0058370682
0.0057937116
0.0057498095
0.0057053038
0.0056601533
0.0056152841
0.005572114
0.005531043
0.0054919035
0.0054545383
0.0054188089
0.0053845965
0.005351791
0.0053202858
0.0052899847
0.0052608078
0.0052326802
0.0052055278
0.0051792806
0.005153869
0.0051292418
0.0051053063
0.0050820567
0.0050592013
0.0050370795
0.0050142838
0.0049939628
0.0049610398
0.00012060133
8.5382776e-05
6.9098486e-05
6.129694e-05
5.681542e-05
5.3788308e-05
5.156321e-05
4.9859382e-05
4.8521424e-05
4.7450284e-05
4.6578866e-05
4.5860138e-05
4.526022e-05
4.4754076e-05
4.4322812e-05
4.3951759e-05
4.362972e-05
4.3346445e-05
4.3098568e-05
4.2864386e-05
4.269552e-05
4.2389849e-05
4.2529202e-05
4.0781855e-05
0.0085817665
0.014606163
0.014341257
0.013634561
0.013077412
0.012612327
0.012208008
0.011855243
0.011546591
0.011274068
0.011030863
0.010811879
0.010613358
0.01043218
0.01026558
0.01011143
0.009968128
0.0098342797
0.0097087166
0.0095904751
0.0094787465
0.0093728499
0.0092721825
0.0091762367
0.0090845855
0.0089968466
0.0089127037
0.0088318682
0.008754055
0.0086790205
0.0086065523
0.0085364447
0.0084685132
0.0084026075
0.0083385895
0.0082763197
0.0082156786
0.0081565672
0.0080988865
0.0080425344
0.0079874233
0.0079334811
0.0078806361
0.0078288115
0.0077779381
0.0077279623
0.0076788339
0.0076304934
0.0075828812
0.0075359551
0.0074896775
0.0074440035
0.0073988854
0.007354281
0.0073101594
0.0072664903
0.0072232343
0.0071803492
0.0071378058
0.0070955792
0.0070536396
0.0070119518
0.0069704809
0.0069292045
0.0068881011
0.0068471405
0.0068062888
0.0067655185
0.0067248087
0.006684135
0.0066434642
0.0066027621
0.0065620056
0.006521173
0.0064802309
0.006439143
0.0063978833
0.0063564282
0.0063147419
0.0062727835
0.0062305202
0.0061879221
0.0061449464
0.0061015445
0.0060576783
0.0060133059
0.0059683717
0.005922816
0.0058765962
0.0058306602
0.00578646
0.0057444056
0.0057043259
0.0056660601
0.0056294671
0.0055944251
0.005560822
0.0055285488
0.0054975071
0.0054676152
0.0054387967
0.0054109758
0.005384081
0.0053580411
0.0053328038
0.0053082746
0.005284447
0.0052610243
0.0052383501
0.0052149939
0.0051941646
0.005160411
0.00012103383
8.6004685e-05
6.9618864e-05
6.170365e-05
5.7146153e-05
5.4067762e-05
5.1804421e-05
5.0070168e-05
4.8707255e-05
4.7615304e-05
4.6726316e-05
4.5992594e-05
4.5379749e-05
4.4862348e-05
4.4421182e-05
4.4041324e-05
4.3711367e-05
4.3420871e-05
4.3166336e-05
4.2925827e-05
4.2751241e-05
4.2437678e-05
4.2588737e-05
4.0785726e-05
0.0079584232
0.014688894
0.01460979
0.013922537
0.013368356
0.012902588
0.012496371
0.012141268
0.011830131
0.011555117
0.011309489
0.011088177
0.010887416
0.010704091
0.010535445
0.01037934
0.010234163
0.010098521
0.0099712377
0.009851343
0.0097380242
0.0096305954
0.0095284504
0.0094310768
0.0093380442
0.0092489687
0.0091635301
0.0090814371
0.0090024027
0.0089261801
0.0088525541
0.0087813177
0.0087122846
0.0086453023
0.0085802309
0.0085169303
0.0084552792
0.008395177
0.0083365239
0.0082792168
0.0082231667
0.0081683005
0.0081145455
0.0080618243
0.0080100669
0.0079592185
0.007909228
0.0078600357
0.0078115813
0.0077638214
0.0077167179
0.0076702255
0.0076242959
0.0075788862
0.0075339649
0.007489501
0.0074454548
0.0074017838
0.0073584577
0.0073154513
0.0072727343
0.0072302712
0.0071880265
0.007145977
0.007104101
0.0070623679
0.0070207432
0.0069791987
0.0069377132
0.0068962617
0.0068548107
0.0068133251
0.0067717813
0.0067301571
0.0066884186
0.0066465288
0.006604461
0.0065621911
0.0065196825
0.0064768936
0.0064337908
0.0063903433
0.0063465077
0.0063022342
0.0062574836
0.0062122133
0.0061663664
0.0061198817
0.0060727156
0.0060258351
0.0059807226
0.0059377971
0.0058968843
0.0058578204
0.0058204617
0.0057846843
0.0057503738
0.0057174193
0.0056857205
0.0056551942
0.0056257626
0.0055973483
0.0055698787
0.0055432811
0.0055175021
0.0054924458
0.0054681049
0.0054441795
0.0054210145
0.0053971636
0.0053758833
0.0053413906
0.00012152202
8.6719475e-05
7.02287e-05
6.218889e-05
5.7547029e-05
5.4411674e-05
5.2105945e-05
5.0337997e-05
4.8947441e-05
4.7832422e-05
4.6923945e-05
4.617358e-05
4.5546378e-05
4.5016467e-05
4.4564292e-05
4.4174642e-05
4.3835877e-05
4.3537348e-05
4.3275398e-05
4.3027858e-05
4.2846888e-05
4.2524281e-05
4.2691171e-05
4.0824632e-05
0.007238364
0.014660849
0.014824057
0.014166222
0.013619534
0.013155603
0.01274929
0.012393256
0.012080772
0.011804213
0.011556967
0.011334022
0.011131633
0.010946701
0.010776493
0.010618871
0.010472219
0.010335149
0.010206483
0.010085249
0.0099706332
0.0098619466
0.0097585823
0.0096600247
0.0095658415
0.009475649
0.0093891238
0.0093059729
0.0092259086
0.0091486812
0.0090740735
0.0090018781
0.0089319072
0.0088640064
0.0087980348
0.0087338518
0.008671335
0.0086103822
0.008550893
0.0084927638
0.0084359047
0.0083802412
0.0083257
0.0082722036
0.0082196811
0.0081680766
0.0081173385
0.0080674069
0.008018221
0.0079697363
0.0079219143
0.0078747093
0.0078280726
0.0077819609
0.0077363418
0.007691184
0.0076464476
0.0076020895
0.0075580788
0.0075143899
0.0074709923
0.0074278498
0.0073849268
0.0073421993
0.0072996453
0.0072572339
0.0072149301
0.0071727054
0.0071305378
0.0070884022
0.0070462644
0.0070040891
0.0069618518
0.0069195299
0.0068770893
0.0068344923
0.0067917115
0.0067487222
0.0067054874
0.0066619648
0.00661812
0.0065739215
0.0065293251
0.0064842803
0.0064387469
0.0063926813
0.0063460256
0.0062987177
0.0062507123
0.006202994
0.0061570719
0.0061133732
0.0060717204
0.0060319477
0.0059939087
0.0059574777
0.0059225383
0.005888978
0.0058566949
0.0058256043
0.0057956271
0.0057666848
0.0057387035
0.0057116096
0.0056853485
0.0056598232
0.0056350254
0.0056106531
0.005587051
0.0055627634
0.005541082
0.0055059298
0.00012206898
8.7535654e-05
7.0939037e-05
6.2764233e-05
5.8029589e-05
5.4831546e-05
5.2479294e-05
5.0674414e-05
4.9253557e-05
4.8113238e-05
4.7183373e-05
4.641473e-05
4.5771751e-05
4.5228088e-05
4.4763805e-05
4.436338e-05
4.4014921e-05
4.370755e-05
4.3437434e-05
4.3182163e-05
4.2994137e-05
4.2661341e-05
4.2848263e-05
4.0910037e-05
0.0064379698
0.014511767
0.014982977
0.014366953
0.013833184
0.013373873
0.01296938
0.012613881
0.012301219
0.012024074
0.011776015
0.011552131
0.011348716
0.011162706
0.010991408
0.010832693
0.010684949
0.010546802
0.010417077
0.010294801
0.010179165
0.010069479
0.0099651384
0.0098656252
0.0097705073
0.0096794022
0.009591985
0.0095079613
0.009427044
0.0093489812
0.0092735543
0.0092005558
0.0091297977
0.0090611235
0.0089943918
0.0089294622
0.0088662113
0.0088045357