/*--------------------------------*- C++ -*----------------------------------*\
  =========                 |
  \\      /  F ield         | OpenFOAM: The Open Source CFD Toolbox
   \\    /   O peration     | Website:  https://openfoam.org
    \\  /    A nd           | Version:  12
     \\/     M anipulation  |
\*---------------------------------------------------------------------------*/
FoamFile
{
    format      ascii;
    class       volScalarField;
    location    "1800";
    object      nut;
}
// * * * * * * * * * * * * * * * * * * * * * * * * * * * * * * * * * * * * * //

dimensions      [0 2 -1 0 0 0 0];

internalField   nonuniform List<scalar> 
7480
(
2.2967456e-06
3.6717726e-06
4.9381244e-06
5.992655e-06
6.8105129e-06
7.4054976e-06
7.8091073e-06
8.0589764e-06
8.1921466e-06
8.2409485e-06
8.2313311e-06
8.1828745e-06
8.1097038e-06
8.0216629e-06
7.9254376e-06
7.8255244e-06
7.7250596e-06
7.6264266e-06
7.5314273e-06
7.4415713e-06
7.3582312e-06
7.2827014e-06
7.2161518e-06
7.1595301e-06
7.1134527e-06
7.0779184e-06
7.0517951e-06
7.0332264e-06
7.0195692e-06
7.00793e-06
6.9959219e-06
6.9821495e-06
6.9662421e-06
6.9486235e-06
6.929978e-06
6.9108525e-06
6.8914787e-06
6.8718256e-06
6.8517678e-06
6.8312499e-06
6.8103616e-06
6.7892936e-06
6.7682471e-06
6.747354e-06
6.7266623e-06
6.7061757e-06
6.6858958e-06
6.6658345e-06
6.646005e-06
6.6264151e-06
6.607065e-06
6.5879486e-06
6.5690594e-06
6.5503946e-06
6.5319518e-06
6.5137249e-06
6.495706e-06
6.477891e-06
6.4602791e-06
6.4428628e-06
6.4256351e-06
6.4085901e-06
6.3917222e-06
6.3750271e-06
6.3585017e-06
6.3421424e-06
6.3259458e-06
6.3099083e-06
6.2940262e-06
6.2782959e-06
6.2627138e-06
6.2472765e-06
6.2319805e-06
6.2168225e-06
6.2017994e-06
6.1869081e-06
6.1721456e-06
6.1575088e-06
6.1429948e-06
6.128601e-06
6.1143245e-06
6.1001626e-06
6.0861127e-06
6.0721723e-06
6.0583387e-06
6.0446093e-06
6.0309816e-06
6.0174528e-06
6.0040204e-06
5.9906805e-06
5.9774314e-06
5.9642643e-06
5.9511844e-06
5.9381582e-06
5.9252333e-06
5.9122534e-06
5.8994884e-06
5.8860485e-06
5.8747894e-06
5.8537545e-06
9.4574397e-06
2.7045423e-06
1.2723189e-06
9.5216304e-07
9.6054961e-07
1.0785947e-06
1.2399471e-06
1.4225208e-06
1.6135476e-06
1.805557e-06
1.9978368e-06
2.1920674e-06
2.3896513e-06
2.5960362e-06
2.8220851e-06
3.0839008e-06
3.4093835e-06
3.821502e-06
4.2904358e-06
4.8136285e-06
5.3953177e-06
6.0385544e-06
6.7414318e-06
7.5048473e-06
8.3126297e-06
9.1354414e-06
9.9391632e-06
1.0687646e-05
1.1347436e-05
1.1903193e-05
1.2360594e-05
1.2738668e-05
1.3060809e-05
1.3345892e-05
1.3604054e-05
1.3836948e-05
1.404217e-05
1.4218337e-05
1.4367796e-05
1.4496407e-05
1.4611093e-05
1.4717114e-05
1.4817342e-05
1.4911981e-05
1.500056e-05
1.5083151e-05
1.5160491e-05
1.5233438e-05
1.5302505e-05
1.5367821e-05
1.542938e-05
1.548728e-05
1.5541735e-05
1.5592938e-05
1.5640984e-05
1.5685936e-05
1.57279e-05
1.5767005e-05
1.5803262e-05
1.5836927e-05
1.586804e-05
1.589666e-05
1.5922887e-05
1.5946831e-05
1.5968593e-05
1.5988263e-05
1.600593e-05
1.6021673e-05
1.6035566e-05
1.6047685e-05
1.6058101e-05
1.6066883e-05
1.60741e-05
1.6079817e-05
1.6084097e-05
1.6087001e-05
1.6088589e-05
1.6088916e-05
1.6088036e-05
1.6086004e-05
1.6082869e-05
1.6078679e-05
1.6073482e-05
1.6067323e-05
1.6060244e-05
1.6052288e-05
1.6043494e-05
1.6033901e-05
1.6023546e-05
1.6012467e-05
1.6000694e-05
1.5988271e-05
1.5975205e-05
1.5961585e-05
1.5947306e-05
1.5932712e-05
1.5917205e-05
1.5901651e-05
1.5887487e-05
1.5856665e-05
8.2022011e-05
3.3707156e-05
1.614828e-05
9.0647673e-06
5.7560217e-06
3.9847104e-06
2.9396404e-06
2.2810391e-06
1.8456968e-06
1.5474943e-06
1.3379313e-06
1.188059e-06
1.0797678e-06
1.0014963e-06
9.4602494e-07
9.088389e-07
8.8940772e-07
8.8286587e-07
9.2087069e-07
1.0138238e-06
1.1664267e-06
1.3846369e-06
1.6764965e-06
2.030265e-06
2.4735308e-06
3.0451287e-06
3.8240915e-06
4.7848248e-06
5.8901281e-06
7.0979355e-06
8.365877e-06
9.6415278e-06
1.0862964e-05
1.1981166e-05
1.2969171e-05
1.3826027e-05
1.4571332e-05
1.5234762e-05
1.5843643e-05
1.6415046e-05
1.695422e-05
1.7459155e-05
1.7926313e-05
1.8356557e-05
1.8754837e-05
1.9127561e-05
1.9479778e-05
1.9814028e-05
2.0131117e-05
2.0431615e-05
2.0716655e-05
2.0987727e-05
2.1246098e-05
2.1492571e-05
2.172768e-05
2.1951956e-05
2.2165982e-05
2.2370299e-05
2.2565315e-05
2.2751202e-05
2.2928448e-05
2.3097493e-05
2.3258705e-05
2.3412411e-05
2.3558911e-05
2.3698485e-05
2.3831395e-05
2.3957886e-05
2.4078189e-05
2.4192526e-05
2.4301109e-05
2.4404143e-05
2.4501824e-05
2.4594344e-05
2.4681887e-05
2.476463e-05
2.4842744e-05
2.4916397e-05
2.4985749e-05
2.5050955e-05
2.5112166e-05
2.516953e-05
2.5223185e-05
2.5273271e-05
2.5319918e-05
2.5363255e-05
2.5403406e-05
2.5440493e-05
2.5474633e-05
2.5505943e-05
2.5534526e-05
2.5560512e-05
2.5583958e-05
2.5605097e-05
2.5623761e-05
2.5640696e-05
2.5654521e-05
2.5668931e-05
2.5676949e-05
2.5687735e-05
0.00018777447
0.00012131189
7.7743424e-05
5.2384464e-05
3.7316555e-05
2.7851234e-05
2.1572702e-05
1.7218443e-05
1.4089605e-05
1.1775801e-05
1.0023375e-05
8.6682451e-06
7.6000013e-06
6.7426406e-06
6.0414934e-06
5.4567326e-06
4.9577861e-06
4.5204608e-06
4.1268534e-06
3.767226e-06
3.4217863e-06
3.1089299e-06
2.8032683e-06
2.5131045e-06
2.2420849e-06
2.0037785e-06
1.8106487e-06
1.6837948e-06
1.7071139e-06
1.9138035e-06
2.2844078e-06
2.8313779e-06
3.5957044e-06
4.6603302e-06
5.9619365e-06
7.4039021e-06
8.9272119e-06
1.0456703e-05
1.1916834e-05
1.3257648e-05
1.4461694e-05
1.554121e-05
1.6525691e-05
1.7445672e-05
1.8321027e-05
1.9157822e-05
1.9953564e-05
2.0705054e-05
2.1413297e-05
2.2083316e-05
2.2720947e-05
2.3330119e-05
2.3912567e-05
2.4469219e-05
2.500139e-05
2.5510833e-05
2.5999167e-05
2.6467576e-05
2.6916969e-05
2.7348135e-05
2.7761938e-05
2.8159206e-05
2.8540669e-05
2.8906987e-05
2.925878e-05
2.9596619e-05
2.9921032e-05
3.0232506e-05
3.0531501e-05
3.0818452e-05
3.1093771e-05
3.1357848e-05
3.1611061e-05
3.1853767e-05
3.2086314e-05
3.2309033e-05
3.2522245e-05
3.272626e-05
3.2921378e-05
3.310789e-05
3.3286077e-05
3.3456214e-05
3.3618565e-05
3.3773387e-05
3.3920932e-05
3.4061441e-05
3.4195152e-05
3.4322296e-05
3.4443097e-05
3.4557778e-05
3.4666544e-05
3.476963e-05
3.486718e-05
3.4959547e-05
3.5046586e-05
3.5129373e-05
3.5205752e-05
3.5282926e-05
3.5340577e-05
3.5440315e-05
0.0002444817
0.00020349179
0.00016093604
0.00012632403
0.00010039759
8.1264638e-05
6.6996977e-05
5.6165279e-05
4.7787486e-05
4.1195083e-05
3.592725e-05
3.1660107e-05
2.8160333e-05
2.5254977e-05
2.281595e-05
2.0746211e-05
1.8970041e-05
1.7427534e-05
1.607068e-05
1.4859412e-05
1.376104e-05
1.2748326e-05
1.1796384e-05
1.0883459e-05
9.9863165e-06
9.0959326e-06
8.1833601e-06
7.2707685e-06
6.348802e-06
5.469438e-06
4.6568045e-06
3.9365714e-06
3.3491714e-06
2.9058727e-06
2.6690453e-06
2.7490273e-06
3.0749707e-06
3.670571e-06
4.581392e-06
5.8491519e-06
7.3483954e-06
8.9888802e-06
1.0684024e-05
1.2343931e-05
1.3907949e-05
1.5351879e-05
1.6684119e-05
1.7930838e-05
1.9118137e-05
2.0260305e-05
2.1359188e-05
2.2411316e-05
2.3415323e-05
2.437427e-05
2.5293276e-05
2.6176358e-05
2.7025545e-05
2.7842019e-05
2.8627256e-05
2.9383025e-05
3.0110934e-05
3.0812251e-05
3.1488078e-05
3.2139493e-05
3.2767529e-05
3.3373111e-05
3.3957076e-05
3.4520202e-05
3.5063222e-05
3.558682e-05
3.6091637e-05
3.657828e-05
3.7047327e-05
3.7499326e-05
3.7934802e-05
3.8354257e-05
3.8758175e-05
3.9147023e-05
3.9521251e-05
3.9881297e-05
4.0227583e-05
4.0560522e-05
4.0880512e-05
4.1187943e-05
4.1483192e-05
4.1766629e-05
4.2038615e-05
4.2299503e-05
4.2549634e-05
4.2789352e-05
4.3018974e-05
4.3238852e-05
4.3449235e-05
4.3650601e-05
4.3842847e-05
4.4027396e-05
4.4201125e-05
4.4375914e-05
4.4511984e-05
4.4751429e-05
0.00026645293
0.00024816421
0.00022180637
0.0001935843
0.00016750032
0.00014499088
0.00012610873
0.00011040572
9.7340007e-05
8.6419464e-05
7.7234658e-05
6.945638e-05
6.2825367e-05
5.7134653e-05
5.2218848e-05
4.7945278e-05
4.4206338e-05
4.0913883e-05
3.7995018e-05
3.5387749e-05
3.3040195e-05
3.090639e-05
2.8946658e-05
2.7124944e-05
2.5409092e-05
2.3773207e-05
2.2186014e-05
2.0620613e-05
1.9049887e-05
1.7466667e-05
1.5842162e-05
1.4219762e-05
1.2574561e-05
1.0934349e-05
9.3317208e-06
7.8564393e-06
6.5417969e-06
5.4354832e-06
4.5838237e-06
3.9832983e-06
3.7870643e-06
3.9480571e-06
4.4589568e-06
5.3584863e-06
6.6706731e-06
8.2411478e-06
9.9853549e-06
1.1798693e-05
1.3590962e-05
1.5304225e-05
1.691997e-05
1.8449371e-05
1.9914367e-05
2.1330734e-05
2.2702447e-05
2.402662e-05
2.5301225e-05
2.6528246e-05
2.7711732e-05
2.8854869e-05
2.9959309e-05
3.1026239e-05
3.2057174e-05
3.305379e-05
3.4017538e-05
3.4949619e-05
3.5851154e-05
3.6723235e-05
3.7566873e-05
3.8382993e-05
3.9172464e-05
3.9936109e-05
4.0674704e-05
4.1388984e-05
4.2079648e-05
4.2747364e-05
4.3392774e-05
4.4016494e-05
4.461912e-05
4.5201229e-05
4.5763379e-05
4.6306115e-05
4.6829963e-05
4.7335439e-05
4.7823045e-05
4.8293274e-05
4.8746605e-05
4.9183513e-05
4.9604458e-05
5.0009899e-05
5.040027e-05
5.0776037e-05
5.1137556e-05
5.1485435e-05
5.181961e-05
5.2141894e-05
5.2447954e-05
5.2755603e-05
5.2999551e-05
5.3430151e-05
0.00027451583
0.0002675724
0.00025478166
0.000237588
0.00021840051
0.00019917612
0.00018104852
0.00016451231
0.0001496872
0.00013650716
0.00012483168
0.00011449627
0.00010533876
9.7209583e-05
8.9975385e-05
8.3519368e-05
7.7740046e-05
7.2549442e-05
6.7871295e-05
6.3638741e-05
5.9793308e-05
5.6282917e-05
5.3061025e-05
5.0085543e-05
4.7317626e-05
4.4722364e-05
4.226601e-05
3.9914969e-05
3.7635774e-05
3.5398936e-05
3.3176159e-05
3.0950161e-05
2.8705614e-05
2.643352e-05
2.4099329e-05
2.1764606e-05
1.9389612e-05
1.7029086e-05
1.4734454e-05
1.25356e-05
1.0520056e-05
8.7375966e-06
7.2430341e-06
6.0949535e-06
5.2890144e-06
5.0181572e-06
5.1628975e-06
5.7507341e-06
6.8366101e-06
8.2977171e-06
1.0020773e-05
1.19006e-05
1.3831049e-05
1.573257e-05
1.7566546e-05
1.9329905e-05
2.1036378e-05
2.2697491e-05
2.4315139e-05
2.5885816e-05
2.7407495e-05
2.8881715e-05
3.0311292e-05
3.1698154e-05
3.3043367e-05
3.4348029e-05
3.5613518e-05
3.6841174e-05
3.8032144e-05
3.9187485e-05
4.0308237e-05
4.1395389e-05
4.2449864e-05
4.3472536e-05
4.4464244e-05
4.5425786e-05
4.6357931e-05
4.7261418e-05
4.813696e-05
4.8985249e-05
4.9806954e-05
5.0602728e-05
5.1373207e-05
5.2119013e-05
5.2840753e-05
5.3539025e-05
5.4214416e-05
5.4867501e-05
5.5498848e-05
5.610902e-05
5.6698554e-05
5.7268024e-05
5.7817886e-05
5.8348865e-05
5.8860928e-05
5.9356321e-05
5.9829259e-05
6.030466e-05
6.0686142e-05
6.1359076e-05
0.00027791744
0.0002754859
0.0002701343
0.00026145345
0.00024998712
0.00023674548
0.00022271871
0.00020865312
0.00019502798
0.00018211294
0.00017003737
0.00015884296
0.00014851986
0.00013902955
0.00013031893
0.00012232884
0.00011499902
0.00010827079
0.00010208855
9.6400104e-05
9.1156968e-05
8.6314095e-05
8.1829581e-05
7.7664378e-05
7.3781703e-05
7.0146964e-05
6.672731e-05
6.3490703e-05
6.0405401e-05
5.7440435e-05
5.4566134e-05
5.1757352e-05
4.8978072e-05
4.6199975e-05
4.3396763e-05
4.0566112e-05
3.7689742e-05
3.4763709e-05
3.1789927e-05
2.8804181e-05
2.5800995e-05
2.2819876e-05
1.9903427e-05
1.7110838e-05
1.4476167e-05
1.212015e-05
1.0068688e-05
8.4136784e-06
7.1614038e-06
6.4738951e-06
6.3274651e-06
6.6997855e-06
7.6390048e-06
9.0272326e-06
1.0747082e-05
1.2685087e-05
1.4724799e-05
1.6775076e-05
1.8787645e-05
2.0751793e-05
2.267359e-05
2.455731e-05
2.6400265e-05
2.8197868e-05
2.9948454e-05
3.1653044e-05
3.3312951e-05
3.4928856e-05
3.6501356e-05
3.8031349e-05
3.9519843e-05
4.0967758e-05
4.2375968e-05
4.3745356e-05
4.5076788e-05
4.6371095e-05
4.7629089e-05
4.8851558e-05
5.0039274e-05
5.1192984e-05
5.2313422e-05
5.3401303e-05
5.445733e-05
5.5482193e-05
5.6476571e-05
5.7441135e-05
5.8376545e-05
5.9283456e-05
6.0162513e-05
6.1014361e-05
6.1839619e-05
6.2638946e-05
6.3412879e-05
6.4162249e-05
6.4887031e-05
6.5589932e-05
6.6263507e-05
6.6940805e-05
6.7489298e-05
6.8455023e-05
0.00027990524
0.00027905637
0.00027700503
0.00027315394
0.00026726418
0.00025950142
0.0002502869
0.00024011608
0.00022943893
0.0002186112
0.00020789093
0.00019745355
0.00018741108
0.00017782937
0.00016874176
0.0001601593
0.00015207805
0.00014448434
0.00013735823
0.00013067596
0.00012441157
0.00011853792
0.00011302742
0.00010785241
0.00010298533
9.8398839e-05
9.4065972e-05
8.9959927e-05
8.6053817e-05
8.2320606e-05
7.8733342e-05
7.5267092e-05
7.1893388e-05
6.8583492e-05
6.5309574e-05
6.2051093e-05
5.8788272e-05
5.5505219e-05
5.2182034e-05
4.880509e-05
4.5374589e-05
4.1876274e-05
3.8366193e-05
3.4806251e-05
3.124912e-05
2.7742227e-05
2.4305888e-05
2.1009404e-05
1.7883154e-05
1.5042604e-05
1.2554374e-05
1.0511483e-05
8.937776e-06
8.005391e-06
7.6920222e-06
7.983024e-06
8.9066176e-06
1.0310091e-05
1.2095686e-05
1.4132535e-05
1.6293967e-05
1.8487299e-05
2.0666247e-05
2.2818495e-05
2.4942901e-05
2.7035587e-05
2.9089924e-05
3.1101272e-05
3.3068221e-05
3.499066e-05
3.6868406e-05
3.8701345e-05
4.0489745e-05
4.22341e-05
4.3934949e-05
4.5592871e-05
4.7208507e-05
4.8782522e-05
5.0315594e-05
5.1808406e-05
5.3261648e-05
5.4676011e-05
5.6052185e-05
5.7390859e-05
5.8692724e-05
5.9958466e-05
6.1188773e-05
6.2384331e-05
6.3545821e-05
6.4673932e-05
6.5769331e-05
6.6832728e-05
6.7864717e-05
6.88662e-05
6.9837141e-05
7.0780718e-05
7.168764e-05
7.2599972e-05
7.3344472e-05
7.4652425e-05
0.00028160456
0.00028125279
0.00028046588
0.00027887802
0.00027616083
0.00027214001
0.00026682786
0.00026038229
0.00025303803
0.00024504712
0.00023664228
0.0002280205
0.00021933942
0.00021072016
0.00020225266
0.00019400159
0.00018601157
0.00017831175
0.00017091942
0.00016384278
0.00015708314
0.00015063664
0.00014449542
0.00013864861
0.00013308293
0.00012778324
0.00012273293
0.0001179142
0.0001133082
0.00010889506
0.00010465402
0.00010056449
9.6604505e-05
9.2750598e-05
8.8978463e-05
8.5265429e-05
8.1590041e-05
7.7933024e-05
7.4274752e-05
7.0595175e-05
6.6881386e-05
6.3117136e-05
5.9311828e-05
5.5460261e-05
5.1538156e-05
4.7561871e-05
4.3548526e-05
3.9515037e-05
3.5482584e-05
3.1509171e-05
2.7626069e-05
2.3907271e-05
2.0390994e-05
1.7202047e-05
1.442077e-05
1.2143e-05
1.041063e-05
9.4456952e-06
9.133456e-06
9.5283629e-06
1.0564706e-05
1.2114547e-05
1.4057031e-05
1.6246767e-05
1.8556633e-05
2.0905853e-05
2.3258284e-05
2.5600794e-05
2.7924345e-05
3.0219113e-05
3.2477427e-05
3.469522e-05
3.6870451e-05
3.9001646e-05
4.1087758e-05
4.312829e-05
4.5123108e-05
4.7072259e-05
4.8975943e-05
5.0834482e-05
5.2648281e-05
5.4417806e-05
5.6143574e-05
5.7826139e-05
5.9466082e-05
6.106401e-05
6.2620549e-05
6.413634e-05
6.5612036e-05
6.7048305e-05
6.8445812e-05
6.9805266e-05
7.1127276e-05
7.2412777e-05
7.3661681e-05
7.4877632e-05
7.6049335e-05
7.722862e-05
7.819737e-05
7.9895707e-05
0.00028337072
0.00028315769
0.0002827992
0.00028212939
0.00028093672
0.00027902229
0.00027625285
0.00027258474
0.00026805702
0.00026276709
0.00025684344
0.00025042367
0.00024364004
0.00023661171
0.00022944139
0.00022221499
0.00021500262
0.00020786032
0.00020083202
0.00019395131
0.00018724314
0.00018072525
0.00017440938
0.00016830225
0.00016240638
0.0001567207
0.00015124118
0.00014596125
0.00014087216
0.00013596324
0.00013122209
0.0001266352
0.00012218769
0.00011786303
0.00011364308
0.00010950903
0.0001054419
0.00010142324
9.7434843e-05
9.3457658e-05
8.947481e-05
8.5469138e-05
8.1431626e-05
7.7356493e-05
7.3226449e-05
6.9036308e-05
6.4786728e-05
6.0481883e-05
5.6126347e-05
5.1718421e-05
4.7259751e-05
4.2797733e-05
3.8350447e-05
3.39735e-05
2.9723719e-05
2.5675016e-05
2.1877237e-05
1.8486112e-05
1.5578441e-05
1.3228786e-05
1.1606917e-05
1.0765146e-05
1.0685594e-05
1.1361558e-05
1.2665199e-05
1.448647e-05
1.6667324e-05
1.9056057e-05
2.1544683e-05
2.407478e-05
2.6618825e-05
2.915977e-05
3.1683174e-05
3.4178074e-05
3.6637694e-05
3.9057859e-05
4.1435568e-05
4.376869e-05
4.6055859e-05
4.8296228e-05
5.0489287e-05
5.2634794e-05
5.4732714e-05
5.6783159e-05
5.8786363e-05
6.0742648e-05
6.2652413e-05
6.4516116e-05
6.6334259e-05
6.8107392e-05
6.9836084e-05
7.1520969e-05
7.3162601e-05
7.4761885e-05
7.6318635e-05
7.7836926e-05
7.9303314e-05
8.0780032e-05
8.2000257e-05
8.4135577e-05
0.00028531001
0.00028512831
0.00028489775
0.00028455661
0.00028400309
0.00028310933
0.00028174774
0.00027981747
0.00027726047
0.00027406455
0.0002702568
0.00026589245
0.00026104351
0.00025578926
0.00025020946
0.00024437992
0.00023837002
0.00023224152
0.00022604824
0.00021983629
0.00021364446
0.00020750492
0.00020144383
0.00019548197
0.0001896353
0.00018391551
0.00017833052
0.00017288489
0.00016758025
0.0001624156
0.00015738761
0.00015249098
0.00014771859
0.00014306146
0.00013850863
0.00013404753
0.00012966434
0.0001253445
0.00012107301
0.00011683404
0.00011261179
0.00010839018
0.00010415547
9.9897532e-05
9.560275e-05
9.1259706e-05
8.6860527e-05
8.2400538e-05
7.7879223e-05
7.3292009e-05
6.8631576e-05
6.3906515e-05
5.9133689e-05
5.4313703e-05
4.9462951e-05
4.4616477e-05
3.9803399e-05
3.5096294e-05
3.0573516e-05
2.6287254e-05
2.236054e-05
1.8920727e-05
1.6059179e-05
1.3913371e-05
1.2630391e-05
1.216631e-05
1.25394e-05
1.3641435e-05
1.5366481e-05
1.7543986e-05
2.000481e-05
2.262198e-05
2.5319754e-05
2.8057267e-05
3.0808668e-05
3.3554241e-05
3.627963e-05
3.8975412e-05
4.1635256e-05
4.425459e-05
4.6830151e-05
4.9359675e-05
5.1841592e-05
5.4274826e-05
5.6658684e-05
5.8992759e-05
6.1276867e-05
6.3510993e-05
6.5695262e-05
6.7829909e-05
6.991525e-05
7.1951708e-05
7.393967e-05
7.5879907e-05
7.7772058e-05
7.9620563e-05
8.1409689e-05
8.3212603e-05
8.4710208e-05
8.7327219e-05
0.000287452
0.00028727272
0.00028707382
0.00028683636
0.00028651993
0.0002860614
0.00028538098
0.00028439454
0.00028302711
0.00028122317
0.0002789516
0.00027620569
0.00027299969
0.00026936381
0.00026533899
0.00026097237
0.00025631367
0.00025141253
0.00024631668
0.00024107076
0.00023571567
0.00023028817
0.0002248208
0.00021934192
0.00021387584
0.000208443
0.0002030602
0.00019774088
0.00019249537
0.00018733117
0.00018225317
0.00017726396
0.00017236393
0.00016755143
0.00016282271
0.00015817198
0.00015359164
0.00014907259
0.00014460456
0.00014017609
0.00013577489
0.00013138784
0.00012700191
0.00012260572
0.00011818719
0.0001137343
0.00010923636
0.00010468433
0.00010007236
9.5394048e-05
9.0641115e-05
8.5810349e-05
8.0905843e-05
7.5921468e-05
7.0871836e-05
6.5747416e-05
6.0572509e-05
5.5378937e-05
5.0167727e-05
4.4975054e-05
3.9860784e-05
3.4906087e-05
3.0195046e-05
2.5826386e-05
2.195817e-05
1.8682486e-05
1.6149957e-05
1.452829e-05
1.3793131e-05
1.3958658e-05
1.4944925e-05
1.6636397e-05
1.8849248e-05
2.1402543e-05
2.4157655e-05
2.7027267e-05
2.9959986e-05
3.2922062e-05
3.5888872e-05
3.8843007e-05
4.1772669e-05
4.4669593e-05
4.7527786e-05
5.034293e-05
5.3111918e-05
5.5832501e-05
5.8503071e-05
6.1122503e-05
6.3690036e-05
6.6205199e-05
6.866774e-05
7.1077611e-05
7.3434824e-05
7.5739844e-05
7.7991988e-05
8.0195953e-05
8.2333537e-05
8.4489297e-05
8.6288478e-05
8.9429558e-05
0.00028980466
0.00028962134
0.0002894267
0.00028921675
0.00028897791
0.00028868422
0.00028829609
0.00028776284
0.00028702827
0.00028603759
0.0002847438
0.00028311197
0.00028112129
0.0002787649
0.0002760483
0.00027298705
0.00026960426
0.00026592821
0.00026199032
0.00025782346
0.00025346067
0.0002489342
0.00024427474
0.000239511
0.00023466935
0.0002297736
0.00022484492
0.00021990185
0.00021496031
0.00021003373
0.00020513315
0.00020026736
0.00019544302
0.00019066473
0.00018593503
0.00018125438
0.00017662127
0.00017203233
0.00016748256
0.0001629655
0.00015847333
0.00015399697
0.00014952647
0.00014505194
0.00014056316
0.00013604949
0.00013150043
0.00012690597
0.00012225774
0.00011754804
0.00011276818
0.0001079106
0.000102972
9.7946202e-05
9.2835545e-05
8.7634592e-05
8.2333191e-05
7.6980015e-05
7.1531941e-05
6.6024408e-05
6.0479158e-05
5.4926531e-05
4.9381293e-05
4.3899381e-05
3.8573153e-05
3.3488262e-05
2.8756039e-05
2.4547273e-05
2.0954306e-05
1.8171411e-05
1.6329287e-05
1.5448864e-05
1.5527003e-05
1.651084e-05
1.8256205e-05
2.0565759e-05
2.3251385e-05
2.6169399e-05
2.9226513e-05
3.2364359e-05
3.5543325e-05
3.8735125e-05
4.1920018e-05
4.5084296e-05
4.8218144e-05
5.1314418e-05
5.4367909e-05
5.7374788e-05
6.0332232e-05
6.3238168e-05
6.609109e-05
6.8889949e-05
7.1633967e-05
7.4322961e-05
7.6955663e-05
7.9536816e-05
8.2045504e-05
8.4578026e-05
8.6700718e-05
9.0405261e-05
0.00029237092
0.00029218289
0.00029198587
0.00029178055
0.00029156317
0.00029132459
0.00029104826
0.00029070925
0.00029027503
0.00028970784
0.00028896827
0.00028801898
0.00028682786
0.00028537025
0.00028362991
0.00028159913
0.00027927804
0.00027667356
0.00027379812
0.00027066842
0.00026730418
0.00026372711
0.00025995996
0.00025602579
0.00025194734
0.00024774655
0.0002434442
0.00023905964
0.00023461062
0.00023011318
0.0002255816
0.00022102844
0.00021646446
0.00021189869
0.00020733837
0.00020278888
0.00019825377
0.00019373472
0.0001892317
0.00018474304
0.00018026553
0.00017579445
0.00017132375
0.00016684657
0.00016235536
0.00015784185
0.00015329732
0.00014871276
0.00014407964
0.00013938994
0.00013463527
0.00012980716
0.000124899
0.00011990371
0.00011481736
0.00010963489
0.00010434575
9.8966253e-05
9.3481971e-05
8.7892244e-05
8.2216936e-05
7.6456919e-05
7.0628769e-05
6.4745401e-05
5.8851674e-05
5.2978327e-05
4.7160214e-05
4.1505673e-05
3.6092123e-05
3.1072097e-05
2.6605604e-05
2.2804296e-05
1.9908516e-05
1.7980719e-05
1.7086544e-05
1.7223029e-05
1.8327332e-05
2.022241e-05
2.2699234e-05
2.5566602e-05
2.868137e-05
3.1948995e-05
3.5307509e-05
3.8713931e-05
4.2137951e-05
4.5558404e-05
4.8960295e-05
5.2332763e-05
5.5667857e-05
5.8959708e-05
6.2203944e-05
6.5397317e-05
6.8537348e-05
7.1622516e-05
7.4650427e-05
7.7625456e-05
8.0523562e-05
8.3453009e-05
8.5918042e-05
9.0221446e-05
0.00029515309
0.00029496089
0.00029476043
0.00029455378
0.00029434031
0.00029411726
0.00029387866
0.00029361405
0.00029330771
0.0002929386
0.00029248136
0.000291908
0.00029119006
0.00029030064
0.00028921618
0.00028791771
0.00028639154
0.00028462939
0.00028262824
0.00028038985
0.0002779201
0.00027522828
0.0002723264
0.00026922847
0.00026594986
0.00026250676
0.00025891568
0.00025519303
0.00025135481
0.00024741638
0.0002433922
0.00023929579
0.00023513953
0.0002309346
0.0002266909
0.00022241691
0.00021811962
0.00021380447
0.00020947534
0.00020513455
0.00020078294
0.00019641979
0.00019204294
0.00018764899
0.00018323354
0.00017879119
0.00017431574
0.00016980025
0.00016523752
0.00016062033
0.0001559412
0.00015119219
0.00014636596
0.00014145503
0.00013645314
0.00013135437
0.00012614909
0.00012083898
0.00011541744
0.00010987911
0.00010422737
9.8452314e-05
9.2582847e-05
8.6596175e-05
8.0518531e-05
7.4368929e-05
6.8156233e-05
6.1929175e-05
5.573904e-05
4.9612745e-05
4.3663386e-05
3.7979719e-05
3.275046e-05
2.811282e-05
2.4240418e-05
2.134595e-05
1.9480423e-05
1.8720829e-05
1.9076437e-05
2.0424989e-05
2.2565986e-05
2.5281107e-05
2.8381459e-05
3.1729621e-05
3.5233502e-05
3.8830589e-05
4.2477115e-05
4.6142367e-05
4.980468e-05
5.3448473e-05
5.7062372e-05
6.0637991e-05
6.4169029e-05
6.7651062e-05
7.10794e-05
7.445719e-05
7.7756495e-05
8.1097514e-05
8.3919235e-05
8.8851222e-05
0.00029815381
0.00029795807
0.00029775436
0.00029754522
0.00029733087
0.00029711064
0.00029688264
0.0002966431
0.00029638544
0.00029609971
0.0002957723
0.0002953862
0.00029492181
0.00029435801
0.00029367346
0.00029284784
0.00029186288
0.00029070319
0.00028935677
0.00028781521
0.00028607373
0.00028413095
0.00028198862
0.00027965121
0.00027712546
0.00027441997
0.00027154475
0.00026851081
0.0002653298
0.00026201374
0.00025857468
0.00025502455
0.00025137493
0.0002476369
0.00024382085
0.00023993635
0.00023599202
0.00023199536
0.0002279527
0.00022386913
0.00021974844
0.00021559309
0.00021140417
0.00020718147
0.00020292362
0.00019862816
0.00019429157
0.00018990943
0.00018547658
0.00018098742
0.00017643587
0.00017181532
0.000167119
0.00016233992
0.00015747133
0.00015250691
0.00014743818
0.000142261
0.00013696963
0.00013155728
0.00012602122
0.00012035349
0.00011456234
0.00010863693
0.00010258034
9.6403905e-05
9.0104062e-05
8.3708518e-05
7.7237525e-05
7.0702725e-05
6.4152538e-05
5.7639634e-05
5.1241056e-05
4.5036563e-05
3.9156553e-05
3.3792649e-05
2.9093168e-05
2.5301222e-05
2.2522795e-05
2.0880944e-05
2.0446115e-05
2.1167348e-05
2.2876143e-05
2.5349754e-05
2.8366312e-05
3.1746135e-05
3.5361777e-05
3.9126308e-05
4.297941e-05
4.6878747e-05
5.0794497e-05
5.4705351e-05
5.8595783e-05
6.2454676e-05
6.6272317e-05
7.0048683e-05
7.3750359e-05
7.7508906e-05
8.0694771e-05
8.6276521e-05
0.00030137607
0.00030117728
0.0003009707
0.00030075907
0.0003005428
0.00030032179
0.00030009555
0.00029986287
0.00029962139
0.000299367
0.0002990934
0.00029879176
0.00029845076
0.00029805681
0.00029759459
0.00029704778
0.00029639984
0.00029563481
0.00029473796
0.0002936964
0.00029249943
0.0002911388
0.00028960878
0.0002879061
0.00028602987
0.00028398133
0.00028176359
0.00027938141
0.00027684085
0.00027414905
0.00027131395
0.00026834407
0.00026524831
0.00026203572
0.00025871531
0.00025529592
0.00025178595
0.0002481933
0.00024452514
0.00024078785
0.0002369869
0.00023312673
0.00022921067
0.00022524097
0.00022121872
0.00021714397
0.00021301571
0.0002088319
0.00020458963
0.00020028524
0.00019591442
0.00019147218
0.00018695304
0.00018235108
0.00017766015
0.00017287416
0.0001679858
0.0001629891
0.00015787801
0.00015264562
0.00014728661
0.00014179321
0.00013616464
0.00013039379
0.0001244777
0.00011841698
0.00011219571
0.00010585396
9.9367678e-05
9.2753619e-05
8.6030089e-05
7.9221479e-05
7.2366036e-05
6.5503791e-05
5.8697771e-05
5.2053531e-05
4.5644608e-05
3.9657804e-05
3.4246639e-05
2.9646578e-05
2.6035533e-05
2.3555813e-05
2.2338335e-05
2.2399252e-05
2.361682e-05
2.5782617e-05
2.8657245e-05
3.202511e-05
3.572214e-05
3.963338e-05
4.3679086e-05
4.7803388e-05
5.1966911e-05
5.6141945e-05
6.030692e-05
6.4453952e-05
6.854059e-05
7.2707898e-05
7.625407e-05
8.2493089e-05
0.0003048231
0.00030462164
0.00030441251
0.00030419858
0.00030398031
0.00030375771
0.00030353068
0.00030329888
0.00030306158
0.00030281731
0.0003025635
0.00030229617
0.00030200963
0.00030169635
0.00030134702
0.00030095073
0.00030049533
0.0002999679
0.00029935526
0.00029864449
0.00029782342
0.00029688099
0.0002958076
0.00029459529
0.00029323789
0.00029173102
0.00029007209
0.00028826014
0.00028629581
0.00028418108
0.00028191915
0.00027951429
0.00027697161
0.00027429692
0.00027149651
0.00026857703
0.00026554526
0.00026240796
0.00025917173
0.00025584281
0.00025242698
0.0002489294
0.00024535453
0.00024170599
0.0002379865
0.00023419793
0.00023034116
0.00022641616
0.000222422
0.00021835689
0.00021421831
0.00021000297
0.00020570694
0.00020132568
0.00019685414
0.00019228703
0.00018761822
0.00018284171
0.00017795148
0.0001729409
0.00016780385
0.00016253284
0.00015712325
0.00015156851
0.00014586258
0.00014000228
0.00013397636
0.00012779497
0.00012144994
0.00011494221
0.00010827787
0.00010146485
9.4520175e-05
8.7462845e-05
8.0320417e-05
7.3147782e-05
6.5985807e-05
5.8927848e-05
5.2077461e-05
4.5550871e-05
3.952953e-05
3.4221625e-05
2.9852215e-05
2.6598835e-05
2.4639418e-05
2.4045065e-05
2.4747773e-05
2.6566529e-05
2.9258285e-05
3.2580492e-05
3.6334659e-05
4.037622e-05
4.4603827e-05
4.89468e-05
5.3353688e-05
5.7796688e-05
6.2215707e-05
6.6756134e-05
7.0638967e-05
7.7519394e-05
0.0003084983
0.00030829444
0.00030808302
0.00030786699
0.00030764683
0.00030742255
0.00030719412
0.00030696146
0.00030672439
0.00030648244
0.00030623471
0.0003059796
0.0003057146
0.00030543604
0.00030513896
0.00030481705
0.00030446262
0.00030406685
0.00030361993
0.00030311142
0.00030253059
0.00030186673
0.00030110957
0.00030024949
0.00029927782
0.00029818697
0.00029697065
0.00029562383
0.00029414283
0.00029252529
0.00029077008
0.00028887727
0.000286848
0.00028468439
0.00028238938
0.00027996662
0.00027742032
0.00027475508
0.00027197577
0.00026908735
0.00026609476
0.00026300271
0.00025981564
0.00025653747
0.00025317162
0.00024972084
0.0002461872
0.00024257198
0.00023887571
0.00023509813
0.00023123823
0.00022729427
0.00022326378
0.00021914364
0.00021493009
0.00021061891
0.0002062052
0.00020168367
0.00019704881
0.00019229459
0.00018741496
0.00018240297
0.00017725262
0.00017195731
0.00016651006
0.00016090547
0.00015513386
0.00014919437
0.00014308168
0.00013679086
0.0001303193
0.00012366708
0.00011684027
0.00010984474
0.00010269024
9.5401973e-05
8.8001313e-05
8.0531409e-05
7.3051817e-05
6.5625384e-05
5.8350727e-05
5.136336e-05
4.480911e-05
3.8889944e-05
3.3836914e-05
2.9880902e-05
2.7235001e-05
2.6016821e-05
2.6210955e-05
2.7670465e-05
3.0158758e-05
3.3415175e-05
3.7211051e-05
4.1373009e-05
4.5775441e-05
5.033975e-05
5.4966498e-05
5.9791388e-05
6.3949971e-05
7.1413243e-05
0.0003124052
0.00031219916
0.00031198564
0.00031176767
0.00031154573
0.00031131984
0.00031108994
0.00031085602
0.00031061802
0.00031037583
0.00031012918
0.0003098775
0.0003096198
0.00030935449
0.00030907924
0.00030879077
0.00030848484
0.00030815614
0.00030779833
0.00030740416
0.0003069656
0.00030647406
0.00030592061
0.00030529627
0.00030459218
0.00030379988
0.00030291151
0.0003019199
0.0003008188
0.00029960288
0.0002982678
0.00029681028
0.00029522805
0.0002935198
0.0002916852
0.00028972475
0.00028763972
0.00028543207
0.00028310428
0.00028065929
0.00027810034
0.00027543081
0.00027265417
0.00026977374
0.00026679266
0.00026371373
0.00026053936
0.0002572714
0.00025391119
0.00025045941
0.00024691613
0.00024328076
0.00023955204
0.00023572807
0.0002318063
0.00022778363
0.00022365631
0.00021942005
0.00021507013
0.00021060133
0.00020600811
0.00020128426
0.00019642361
0.00019141969
0.00018626549
0.00018095461
0.00017547838
0.0001698314
0.00016400753
0.00015800009
0.00015180304
0.00014541227
0.00013882446
0.00013203919
0.00012505826
0.00011788915
0.00011054069
0.00010303031
9.5388039e-05
8.7647153e-05
7.9856678e-05
7.2091668e-05
6.4437186e-05
5.7013051e-05
4.997584e-05
4.3513735e-05
3.7862562e-05
3.328311e-05
3.001639e-05
2.8224524e-05
2.7940455e-05
2.9053002e-05
3.1338001e-05
3.4524293e-05
3.8356144e-05
4.2642162e-05
4.7194209e-05
5.2102278e-05
5.6400608e-05
6.4304214e-05
0.00031654747
0.00031633942
0.00031612393
0.00031590413
0.00031568052
0.00031545308
0.00031522176
0.00031498652
0.00031474732
0.00031450416
0.00031425696
0.00031400555
0.00031374957