/*--------------------------------*- C++ -*----------------------------------*\
  =========                 |
  \\      /  F ield         | OpenFOAM: The Open Source CFD Toolbox
   \\    /   O peration     | Website:  https://openfoam.org
    \\  /    A nd           | Version:  12
     \\/     M anipulation  |
\*---------------------------------------------------------------------------*/
FoamFile
{
    format      ascii;
    class       volScalarField;
    location    "1800";
    object      nut;
}
// * * * * * * * * * * * * * * * * * * * * * * * * * * * * * * * * * * * * * //

dimensions      [0 2 -1 0 0 0 0];

internalField   nonuniform List<scalar> 
13056
(
9.2198503e-07
5.5052094e-07
4.3752878e-07
3.8773916e-07
3.5663287e-07
3.3442045e-07
3.1788859e-07
3.0524855e-07
2.9535089e-07
2.8744022e-07
2.8100727e-07
2.7569775e-07
2.7125775e-07
2.675003e-07
2.6428483e-07
2.6150217e-07
2.5907064e-07
2.5690749e-07
2.5502094e-07
2.5308784e-07
2.5221899e-07
2.4791999e-07
2.5590343e-07
8.4939575e-08
3.7635918e-11
4.6603411e-11
4.3215023e-11
3.9803875e-11
3.7264836e-11
3.5201138e-11
3.3448571e-11
3.1951329e-11
3.0665825e-11
2.9549284e-11
2.8567159e-11
2.769438e-11
2.6912871e-11
2.6207643e-11
2.5565633e-11
2.4977252e-11
2.4435211e-11
2.3933122e-11
2.3465828e-11
2.3029076e-11
2.2619308e-11
2.2233566e-11
2.1869234e-11
2.1524153e-11
2.1196488e-11
2.0884594e-11
2.0587148e-11
2.0302928e-11
2.0030739e-11
1.9769595e-11
1.9518623e-11
1.9276972e-11
1.90439e-11
1.8818806e-11
1.8601125e-11
1.8390293e-11
1.8185841e-11
1.7987375e-11
1.77945e-11
1.760681e-11
1.7423972e-11
1.7245706e-11
1.7071728e-11
1.6901744e-11
1.6735491e-11
1.657277e-11
1.6413386e-11
1.6257112e-11
1.610373e-11
1.5953087e-11
1.5805042e-11
1.5659428e-11
1.5516071e-11
1.5374824e-11
1.5235577e-11
1.509822e-11
1.4962612e-11
1.482861e-11
1.4696114e-11
1.456504e-11
1.4435284e-11
1.4306728e-11
1.4179258e-11
1.4052804e-11
1.3927294e-11
1.380263e-11
1.3678705e-11
1.3555436e-11
1.3432759e-11
1.3310599e-11
1.3188855e-11
1.3067426e-11
1.2946248e-11
1.2825258e-11
1.270436e-11
1.2583451e-11
1.2462463e-11
1.2341332e-11
1.221996e-11
1.2098238e-11
1.1976081e-11
1.1853415e-11
1.1730127e-11
1.1606093e-11
1.1481221e-11
1.1355409e-11
1.1228518e-11
1.1100402e-11
1.0970966e-11
1.0842873e-11
1.0720136e-11
1.0603827e-11
1.0493409e-11
1.038838e-11
1.02883e-11
1.0192792e-11
1.0101508e-11
1.0014117e-11
9.9303196e-12
9.8498672e-12
9.7725282e-12
9.6980748e-12
9.626295e-12
9.5569792e-12
9.4899721e-12
9.4250041e-12
9.3620499e-12
9.3002946e-12
9.2406748e-12
9.1793191e-12
9.1247975e-12
9.0367479e-12
9.2247801e-07
5.5089984e-07
4.3784102e-07
3.8801401e-07
3.5688237e-07
3.3465073e-07
3.1810377e-07
3.0545168e-07
2.9554425e-07
2.8762554e-07
2.811859e-07
2.7587075e-07
2.7142594e-07
2.6766435e-07
2.6444529e-07
2.6165946e-07
2.5922512e-07
2.5705942e-07
2.5517059e-07
2.5323518e-07
2.5236502e-07
2.4805819e-07
2.5607002e-07
8.5265381e-08
7.7726458e-09
1.010333e-08
9.5111229e-09
8.8383924e-09
8.3243926e-09
7.9002636e-09
7.5362922e-09
7.222875e-09
6.9520414e-09
6.7155319e-09
6.5065301e-09
6.3200423e-09
6.1524438e-09
6.0007059e-09
5.862166e-09
5.7348564e-09
5.6172804e-09
5.5081226e-09
5.4063136e-09
5.3109699e-09
5.2213512e-09
5.1368394e-09
5.0568878e-09
4.9810425e-09
4.9089188e-09
4.8401707e-09
4.7745194e-09
4.7117072e-09
4.6514806e-09
4.59363e-09
4.5379697e-09
4.4843187e-09
4.4325181e-09
4.3824399e-09
4.3339635e-09
4.286968e-09
4.2413527e-09
4.1970334e-09
4.1539248e-09
4.1119402e-09
4.071007e-09
4.0310652e-09
3.9920536e-09
3.9539082e-09
3.9165724e-09
3.8800026e-09
3.8441568e-09
3.8089857e-09
3.7744415e-09
3.7404912e-09
3.7071037e-09
3.6742426e-09
3.6418701e-09
3.6099533e-09
3.5784686e-09
3.5473916e-09
3.5166915e-09
3.4863362e-09
3.456304e-09
3.4265762e-09
3.3971298e-09
3.3679386e-09
3.3389771e-09
3.3102296e-09
3.2816804e-09
3.2533072e-09
3.2250862e-09
3.1969984e-09
3.1690297e-09
3.1411632e-09
3.1133759e-09
3.0856448e-09
3.0579555e-09
3.0302936e-09
3.0026372e-09
2.9749626e-09
2.9472542e-09
2.9194975e-09
2.8916698e-09
2.8637458e-09
2.835706e-09
2.8075331e-09
2.779201e-09
2.7506807e-09
2.7219508e-09
2.6929875e-09
2.6637582e-09
2.6342287e-09
2.6043767e-09
2.5748162e-09
2.5464746e-09
2.5196023e-09
2.494077e-09
2.4697847e-09
2.4466258e-09
2.4245144e-09
2.4033716e-09
2.3831215e-09
2.3636961e-09
2.3450388e-09
2.3270965e-09
2.3098174e-09
2.2931528e-09
2.2770548e-09
2.2614879e-09
2.2463899e-09
2.2317553e-09
2.217396e-09
2.203528e-09
2.1892562e-09
2.1765669e-09
2.1560664e-09
9.2407238e-07
5.5208005e-07
4.3880867e-07
3.8886775e-07
3.5765862e-07
3.3536748e-07
3.1877358e-07
3.06084e-07
2.9614621e-07
2.8820256e-07
2.8174215e-07
2.7640949e-07
2.7194977e-07
2.6817535e-07
2.6494513e-07
2.6214948e-07
2.5970643e-07
2.5753285e-07
2.5563699e-07
2.5369443e-07
2.5282011e-07
2.4849322e-07
2.565644e-07
8.5634821e-08
3.8875404e-08
5.436053e-08
5.2729602e-08
4.9939405e-08
4.7666071e-08
4.5723014e-08
4.4015539e-08
4.2518967e-08
4.120693e-08
4.0047131e-08
3.9011384e-08
3.8078562e-08
3.7233068e-08
3.6461659e-08
3.5752479e-08
3.5096599e-08
3.4487227e-08
3.3918369e-08
3.3385066e-08
3.2883204e-08
3.2409322e-08
3.1960512e-08
3.1534186e-08
3.1128178e-08
3.0740657e-08
3.0369975e-08
3.0014787e-08
2.9673851e-08
2.9345934e-08
2.9030001e-08
2.872514e-08
2.843046e-08
2.8145172e-08
2.7868638e-08
2.7600261e-08
2.7339437e-08
2.7085661e-08
2.683851e-08
2.6597555e-08
2.6362358e-08
2.6132546e-08
2.5907815e-08
2.5687854e-08
2.5472333e-08
2.526096e-08
2.5053508e-08
2.4849763e-08
2.4649469e-08
2.4452374e-08
2.4258302e-08
2.4067094e-08
2.3878557e-08
2.369249e-08
2.3508718e-08
2.3327112e-08
2.3147545e-08
2.2969848e-08
2.2793849e-08
2.2619427e-08
2.244648e-08
2.2274883e-08
2.2104491e-08
2.193516e-08
2.1766803e-08
2.1599331e-08
2.1432619e-08
2.1266532e-08
2.110096e-08
2.0935821e-08
2.0771017e-08
2.0606414e-08
2.0441879e-08
2.0277322e-08
2.011266e-08
1.9947761e-08
1.9782483e-08
1.9616729e-08
1.9450411e-08
1.928339e-08
1.911551e-08
1.8946648e-08
1.8776695e-08
1.8605489e-08
1.8432847e-08
1.8258631e-08
1.8082687e-08
1.7904809e-08
1.7724777e-08
1.7542442e-08
1.7361551e-08
1.7187806e-08
1.7022782e-08
1.6865772e-08
1.6716111e-08
1.6573218e-08
1.6436591e-08
1.6305768e-08
1.6180304e-08
1.6059797e-08
1.5943911e-08
1.5832337e-08
1.5724763e-08
1.5620902e-08
1.5520467e-08
1.5423245e-08
1.5328861e-08
1.5237284e-08
1.5147362e-08
1.5060415e-08
1.4970933e-08
1.4891238e-08
1.4762325e-08
9.2682097e-07
5.5410324e-07
4.4046705e-07
3.9033214e-07
3.5899091e-07
3.3659807e-07
3.1992384e-07
3.0717008e-07
2.9718031e-07
2.8919393e-07
2.8269794e-07
2.773353e-07
2.7285005e-07
2.6905365e-07
2.6580431e-07
2.6299186e-07
2.6053388e-07
2.5834681e-07
2.5643889e-07
2.5448408e-07
2.5360261e-07
2.4924327e-07
2.5740574e-07
8.6043816e-08
8.4285112e-08
1.2525214e-07
1.2489545e-07
1.2039425e-07
1.1637029e-07
1.1277983e-07
1.0954199e-07
1.0665328e-07
1.0408517e-07
1.0178854e-07
9.9717054e-08
9.7834919e-08
9.6115006e-08
9.4534036e-08
9.3070945e-08
9.1709362e-08
9.0436843e-08
8.9242496e-08
8.8117061e-08
8.7052842e-08
8.6043358e-08
8.508311e-08
8.4167201e-08
8.3291478e-08
8.2452444e-08
8.1646977e-08
8.0872474e-08
8.0126528e-08
7.940675e-08
7.8711084e-08
7.8037721e-08
7.7384916e-08
7.6751102e-08
7.6134996e-08
7.553541e-08
7.4951154e-08
7.43812e-08
7.3824693e-08
7.3280774e-08
7.2748555e-08
7.2227273e-08
7.1716296e-08
7.1214992e-08
7.0722688e-08
7.0238773e-08
6.9762773e-08
6.9294239e-08
6.8832643e-08
6.8377454e-08
6.7928293e-08
6.748482e-08
6.7046631e-08
6.6613296e-08
6.6184431e-08
6.5759757e-08
6.5338994e-08
6.4921782e-08
6.4507736e-08
6.4096583e-08
6.3688093e-08
6.328199e-08
6.2877946e-08
6.2475636e-08
6.2074849e-08
6.1675382e-08
6.1276951e-08
6.0879236e-08
6.0481975e-08
6.0084969e-08
5.9687981e-08
5.9290697e-08
5.8892787e-08
5.8494026e-08
5.8094201e-08
5.7692991e-08
5.7290045e-08
5.6885107e-08
5.6477943e-08
5.6068204e-08
5.565549e-08
5.5239477e-08
5.4819866e-08
5.4396238e-08
5.3968111e-08
5.3535106e-08
5.3096806e-08
5.2652659e-08
5.2202076e-08
5.1744624e-08
5.1289688e-08
5.0851683e-08
5.0434715e-08
5.0037126e-08
4.9657355e-08
4.9294029e-08
4.8945966e-08
4.8612071e-08
4.8291282e-08
4.7982637e-08
4.7685337e-08
4.7398636e-08
4.712179e-08
4.6854099e-08
4.6594864e-08
4.634357e-08
4.6099293e-08
4.5861954e-08
4.5628683e-08
4.5402747e-08
4.5170286e-08
4.4962701e-08
4.4626313e-08
9.3080763e-07
5.5703567e-07
4.4287254e-07
3.9245808e-07
3.609263e-07
3.3838651e-07
3.215961e-07
3.087495e-07
2.9868448e-07
2.9063625e-07
2.8408875e-07
2.786827e-07
2.7416046e-07
2.7033221e-07
2.6705517e-07
2.6421837e-07
2.6173876e-07
2.5953213e-07
2.5760675e-07
2.5563419e-07
2.5474236e-07
2.5033764e-07
2.586258e-07
8.6542726e-08
1.3214994e-07
2.0601231e-07
2.0971964e-07
2.0468493e-07
1.9956153e-07
1.9476617e-07
1.9033466e-07
1.8632314e-07
1.8271926e-07
1.7946954e-07
1.7651835e-07
1.7382108e-07
1.7134269e-07
1.6905301e-07
1.6692489e-07
1.6493629e-07
1.6307048e-07
1.6131312e-07
1.5965163e-07
1.5807552e-07
1.5657603e-07
1.5514562e-07
1.537776e-07
1.5246621e-07
1.5120664e-07
1.4999466e-07
1.4882662e-07
1.4769915e-07
1.4660897e-07
1.4555313e-07
1.4452905e-07
1.4353432e-07
1.4256671e-07
1.4162437e-07
1.4070563e-07
1.3980881e-07
1.3893244e-07
1.3807527e-07
1.3723609e-07
1.3641364e-07
1.3560679e-07
1.3481463e-07
1.3403623e-07
1.3327064e-07
1.3251697e-07
1.3177449e-07
1.3104255e-07
1.3032039e-07
1.2960724e-07
1.289025e-07
1.2820566e-07
1.2751615e-07
1.2683331e-07
1.2615657e-07
1.2548549e-07
1.2481964e-07
1.241585e-07
1.2350147e-07
1.2284812e-07
1.2219808e-07
1.2155094e-07
1.2090619e-07
1.2026333e-07
1.19622e-07
1.1898188e-07
1.1834252e-07
1.1770342e-07
1.1706415e-07
1.1642438e-07
1.1578371e-07
1.1514165e-07
1.1449765e-07
1.1385132e-07
1.132023e-07
1.1255007e-07
1.1189404e-07
1.1123376e-07
1.1056882e-07
1.0989863e-07
1.0922251e-07
1.085399e-07
1.0785025e-07
1.0715285e-07
1.0644686e-07
1.057316e-07
1.0500632e-07
1.0427006e-07
1.0352177e-07
1.0276065e-07
1.0200228e-07
1.0127077e-07
1.0057315e-07
9.9906814e-08
9.9269285e-08
9.8658395e-08
9.8072268e-08
9.7509166e-08
9.6967396e-08
9.644542e-08
9.5941957e-08
9.5455813e-08
9.4985793e-08
9.4530766e-08
9.4089603e-08
9.3661462e-08
9.3244847e-08
9.2839603e-08
9.2441067e-08
9.2054437e-08
9.1657054e-08
9.1301162e-08
9.0723502e-08
9.3614725e-07
5.6096867e-07
4.4610318e-07
3.9531628e-07
3.6353037e-07
3.4079429e-07
3.2384854e-07
3.108777e-07
3.0071196e-07
2.9258091e-07
2.8596439e-07
2.8050017e-07
2.7592835e-07
2.7205742e-07
2.6874324e-07
2.6587378e-07
2.6336517e-07
2.6113228e-07
2.5918348e-07
2.5718709e-07
2.5628139e-07
2.5181764e-07
2.6026969e-07
8.7195343e-08
1.783099e-07
2.899499e-07
3.0005092e-07
2.9549988e-07
2.8982242e-07
2.841907e-07
2.7885011e-07
2.7394995e-07
2.6950837e-07
2.6547673e-07
2.6179652e-07
2.5841856e-07
2.5530236e-07
2.5241308e-07
2.4971974e-07
2.4719602e-07
2.4482181e-07
2.425804e-07
2.4045664e-07
2.3843788e-07
2.3651357e-07
2.3467458e-07
2.3291286e-07
2.3122132e-07
2.2959411e-07
2.2802617e-07
2.2651297e-07
2.2505036e-07
2.2363437e-07
2.2226126e-07
2.209278e-07
2.1963105e-07
2.1836826e-07
2.1713707e-07
2.1593539e-07
2.1476119e-07
2.136126e-07
2.1248804e-07
2.1138598e-07
2.1030487e-07
2.0924328e-07
2.0820003e-07
2.0717394e-07
2.0616385e-07
2.0516861e-07
2.0418727e-07
2.0321901e-07
2.0226286e-07
2.0131786e-07
2.0038321e-07
1.9945824e-07
1.9854222e-07
1.9763433e-07
1.9673382e-07
1.958401e-07
1.949526e-07
1.9407065e-07
1.931935e-07
1.9232054e-07
1.9145129e-07
1.9058519e-07
1.897216e-07
1.8885985e-07
1.8799944e-07
1.8713992e-07
1.8628073e-07
1.8542119e-07
1.845607e-07
1.8369879e-07
1.8283495e-07
1.8196849e-07
1.8109868e-07
1.8022496e-07
1.7934682e-07
1.7846356e-07
1.7757436e-07
1.7667858e-07
1.7577564e-07
1.7486473e-07
1.739449e-07
1.7301533e-07
1.7207525e-07
1.7112366e-07
1.7015938e-07
1.6918141e-07
1.6818868e-07
1.6717983e-07
1.6615337e-07
1.6510811e-07
1.6406539e-07
1.6305847e-07
1.6209716e-07
1.6117797e-07
1.6029763e-07
1.5945326e-07
1.5864233e-07
1.5786255e-07
1.5711165e-07
1.5638757e-07
1.5568858e-07
1.5501309e-07
1.543595e-07
1.5372629e-07
1.5311193e-07
1.5251527e-07
1.5193434e-07
1.5136883e-07
1.5081263e-07
1.5027233e-07
1.4971798e-07
1.4922012e-07
1.4841101e-07
9.4298604e-07
5.6601953e-07
4.5025979e-07
3.9899852e-07
3.6688847e-07
3.4390163e-07
3.2675718e-07
3.1362731e-07
3.0333255e-07
2.9509534e-07
2.8839034e-07
2.828515e-07
2.7821607e-07
2.7429035e-07
2.7092849e-07
2.6801709e-07
2.6547122e-07
2.6320462e-07
2.6122571e-07
2.591987e-07
2.5827521e-07
2.5373691e-07
2.6239825e-07
8.8073589e-08
2.2181639e-07
3.7542891e-07
3.9408372e-07
3.9093568e-07
3.8514195e-07
3.7894023e-07
3.7288119e-07
3.6724217e-07
3.6208599e-07
3.5737656e-07
3.5305763e-07
3.4907873e-07
3.4539574e-07
3.419706e-07
3.3877011e-07
3.3576452e-07
3.3293098e-07
3.3025114e-07
3.277077e-07
3.2528625e-07
3.2297481e-07
3.2076289e-07
3.1864133e-07
3.1660193e-07
3.1463789e-07
3.1274358e-07
3.1091364e-07
3.0914324e-07
3.0742783e-07
3.0576297e-07
3.0414483e-07
3.0257001e-07
3.0103533e-07
2.9953794e-07
2.9807537e-07
2.9664533e-07
2.9524558e-07
2.938742e-07
2.925294e-07
2.912094e-07
2.8991249e-07
2.8863719e-07
2.8738215e-07
2.8614599e-07
2.8492736e-07
2.8372509e-07
2.8253816e-07
2.8136548e-07
2.802059e-07
2.7905841e-07
2.779222e-07
2.7679642e-07
2.7568008e-07
2.7457228e-07
2.7347226e-07
2.7237935e-07
2.7129274e-07
2.7021154e-07
2.6913497e-07
2.6806243e-07
2.6699327e-07
2.6592669e-07
2.6486187e-07
2.6379819e-07
2.6273507e-07
2.6167184e-07
2.6060766e-07
2.5954179e-07
2.5847363e-07
2.5740251e-07
2.5632762e-07
2.5524805e-07
2.5416305e-07
2.5307199e-07
2.5197399e-07
2.5086804e-07
2.4975332e-07
2.4862905e-07
2.4749425e-07
2.463477e-07
2.4518836e-07
2.4401522e-07
2.4282702e-07
2.4162228e-07
2.4039968e-07
2.3915785e-07
2.3789506e-07
2.366094e-07
2.352993e-07
2.3399147e-07
2.3272771e-07
2.3152043e-07
2.3036534e-07
2.2925842e-07
2.2819612e-07
2.2717533e-07
2.2619322e-07
2.25247e-07
2.2433412e-07
2.2345245e-07
2.2260002e-07
2.2177486e-07
2.2097508e-07
2.201988e-07
2.1944459e-07
2.1871002e-07
2.1799465e-07
2.1729118e-07
2.1660709e-07
2.1590679e-07
2.1527614e-07
2.1425027e-07
9.515022e-07
5.7233286e-07
4.5546756e-07
4.0361934e-07
3.7110759e-07
3.4780938e-07
3.3041784e-07
3.1708998e-07
3.0663448e-07
2.9826492e-07
2.9144955e-07
2.8581759e-07
2.8110274e-07
2.7710858e-07
2.7368716e-07
2.7072334e-07
2.681309e-07
2.6582214e-07
2.6380558e-07
2.6174023e-07
2.6079459e-07
2.5616341e-07
2.6508981e-07
8.9260431e-08
2.6250614e-07
4.6233169e-07
4.9179227e-07
4.910138e-07
4.8552073e-07
4.7897447e-07
4.7234138e-07
4.6606764e-07
4.602768e-07
4.5495329e-07
4.500481e-07
4.4551259e-07
4.4130065e-07
4.3737221e-07
4.3369319e-07
4.3023116e-07
4.2696094e-07
4.238631e-07
4.2091858e-07
4.1811143e-07
4.1542851e-07
4.1285816e-07
4.1039029e-07
4.0801565e-07
4.0572667e-07
4.0351722e-07
4.013812e-07
3.9931315e-07
3.9730802e-07
3.9536069e-07
3.9346674e-07
3.9162241e-07
3.8982409e-07
3.8806847e-07
3.8635273e-07
3.8467434e-07
3.8303073e-07
3.8141963e-07
3.7983903e-07
3.7828692e-07
3.7676132e-07
3.7526049e-07
3.7378287e-07
3.7232692e-07
3.7089108e-07
3.6947397e-07
3.6807438e-07
3.666911e-07
3.6532281e-07
3.639683e-07
3.6262661e-07
3.6129675e-07
3.5997763e-07
3.5866818e-07
3.5736747e-07
3.5607471e-07
3.5478899e-07
3.5350928e-07
3.5223464e-07
3.5096434e-07
3.4969761e-07
3.4843355e-07
3.4717121e-07
3.4590979e-07
3.4464863e-07
3.4338693e-07
3.4212372e-07
3.4085812e-07
3.3958936e-07
3.3831668e-07
3.3703911e-07
3.3575557e-07
3.3446516e-07
3.3316709e-07
3.3186034e-07
3.305437e-07
3.2921617e-07
3.278768e-07
3.2652442e-07
3.2515758e-07
3.2377498e-07
3.2237543e-07
3.2095739e-07
3.1951909e-07
3.1805891e-07
3.1657518e-07
3.1506583e-07
3.1352854e-07
3.1196136e-07
3.1039621e-07
3.0888321e-07
3.0743728e-07
3.0605333e-07
3.0472663e-07
3.0345296e-07
3.0222867e-07
3.0105038e-07
2.9991481e-07
2.9881894e-07
2.9776022e-07
2.9673632e-07
2.9574492e-07
2.9478376e-07
2.9385065e-07
2.9294385e-07
2.9206056e-07
2.912001e-07
2.903543e-07
2.89531e-07
2.8869032e-07
2.8793126e-07
2.8669558e-07
9.6190719e-07
5.8008256e-07
4.6187832e-07
4.093185e-07
3.7631885e-07
3.5264156e-07
3.3494868e-07
3.2137902e-07
3.1072702e-07
3.0219555e-07
2.9524505e-07
2.8949901e-07
2.8468682e-07
2.8060875e-07
2.7711426e-07
2.7408611e-07
2.714365e-07
2.6907598e-07
2.6701316e-07
2.649007e-07
2.6392798e-07
2.5918222e-07
2.6844262e-07
9.0854955e-08
3.0032761e-07
5.5089644e-07
5.9368e-07
5.9639209e-07
5.9165922e-07
5.8499707e-07
5.7792297e-07
5.7110209e-07
5.6473825e-07
5.5884562e-07
5.5338796e-07
5.4832188e-07
5.4360112e-07
5.3918486e-07
5.3503937e-07
5.311303e-07
5.274306e-07
5.2392025e-07
5.2057874e-07
5.1738887e-07
5.1433653e-07
5.1140903e-07
5.085955e-07
5.0588577e-07
5.0327154e-07
5.0074634e-07
4.9830333e-07
4.9593645e-07
4.9364025e-07
4.9140893e-07
4.8923747e-07
4.8712178e-07
4.8505789e-07
4.8304201e-07
4.8107098e-07
4.7914205e-07
4.7725236e-07
4.7539927e-07
4.7358053e-07
4.7179396e-07
4.7003731e-07
4.6830855e-07
4.6660592e-07
4.6492775e-07
4.6327228e-07
4.6163788e-07
4.6002317e-07
4.5842681e-07
4.5684736e-07
4.5528336e-07
4.537337e-07
4.5219729e-07
4.506729e-07
4.4915932e-07
4.4765545e-07
4.4616035e-07
4.4467304e-07
4.4319235e-07
4.4171716e-07
4.4024661e-07
4.3877983e-07
4.3731581e-07
4.3585347e-07
4.3439183e-07
4.3293013e-07
4.3146747e-07
4.3000275e-07
4.2853491e-07
4.2706306e-07
4.2558631e-07
4.2410355e-07
4.2261355e-07
4.211152e-07
4.1960758e-07
4.1808955e-07
4.1655969e-07
4.150168e-07
4.1345977e-07
4.1188723e-07
4.1029752e-07
4.0868909e-07
4.0706051e-07
4.0541002e-07
4.0373554e-07
4.0203514e-07
4.0030686e-07
3.9854827e-07
3.9675667e-07
3.949297e-07
3.9310457e-07
3.9133979e-07
3.8965282e-07
3.8803778e-07
3.8648918e-07
3.8500217e-07
3.8357249e-07
3.8219625e-07
3.8086964e-07
3.7958918e-07
3.783519e-07
3.7715511e-07
3.7599611e-07
3.748723e-07
3.7378114e-07
3.727206e-07
3.7168752e-07
3.7068095e-07
3.6969202e-07
3.6872855e-07
3.6774736e-07
3.6685917e-07
3.6541229e-07
9.7444752e-07
5.8947451e-07
4.6967347e-07
4.1626417e-07
3.8268084e-07
3.5854881e-07
3.4049361e-07
3.2663279e-07
3.1574388e-07
3.0701701e-07
2.9990331e-07
2.9401939e-07
2.8908948e-07
2.8490988e-07
2.8132692e-07
2.7822087e-07
2.7550198e-07
2.730787e-07
2.709598e-07
2.6879014e-07
2.6778479e-07
2.6289878e-07
2.7257861e-07
9.2978514e-08
3.351471e-07
6.4133661e-07
7.0036361e-07
7.0793301e-07
7.0451297e-07
6.979987e-07
6.9062879e-07
6.8335074e-07
6.764732e-07
6.7005139e-07
6.640684e-07
6.5849025e-07
6.5327278e-07
6.4837579e-07
6.4376734e-07
6.3941204e-07
6.3528145e-07
6.3135553e-07
6.2761268e-07
6.2403469e-07
6.2060671e-07
6.173152e-07
6.1414865e-07
6.1109607e-07
6.0814853e-07
6.0529929e-07
6.0254086e-07
5.998666e-07
5.972707e-07
5.9474668e-07
5.9228895e-07
5.8989311e-07
5.8755486e-07
5.852699e-07
5.8303476e-07
5.8084651e-07
5.7870196e-07
5.7659813e-07
5.7453254e-07
5.7250283e-07
5.7050648e-07
5.6854118e-07
5.6660496e-07
5.6469601e-07
5.628124e-07
5.6095223e-07
5.5911392e-07
5.5729605e-07
5.5549703e-07
5.5371516e-07
5.5194917e-07
5.5019786e-07
5.4845987e-07
5.4673385e-07
5.450185e-07
5.4331276e-07
5.4161555e-07
5.3992557e-07
5.3824152e-07
5.365624e-07
5.3488724e-07
5.3321491e-07
5.3154421e-07
5.2987397e-07
5.2820331e-07
5.2653123e-07
5.2485651e-07
5.2317793e-07
5.2149443e-07
5.1980498e-07
5.1810837e-07
5.1640318e-07
5.1468811e-07
5.1296208e-07
5.1122382e-07
5.0947172e-07
5.0770436e-07
5.0592047e-07
5.0411847e-07
5.0229648e-07
5.0045269e-07
4.9858543e-07
4.966927e-07
4.9477211e-07
4.928214e-07
4.9083831e-07
4.8882006e-07
4.8676353e-07
4.8466596e-07
4.8257002e-07
4.8054301e-07
4.7860504e-07
4.7674938e-07
4.7496978e-07
4.7326069e-07
4.7161724e-07
4.7003499e-07
4.685096e-07
4.670371e-07
4.6561407e-07
4.6423743e-07
4.6290412e-07
4.6161118e-07
4.6035571e-07
4.5913535e-07
4.5794663e-07
4.5678823e-07
4.5565078e-07
4.5454167e-07
4.5341527e-07
4.5239307e-07
4.5072685e-07
9.8940735e-07
6.0075e-07
4.7906777e-07
4.2465696e-07
3.9038389e-07
3.657127e-07
3.4722677e-07
3.3301916e-07
3.2184767e-07
3.1288747e-07
3.0557868e-07
2.9952981e-07
2.9445897e-07
2.9015772e-07
2.8646873e-07
2.8326924e-07
2.8046723e-07
2.7796862e-07
2.7578235e-07
2.7354392e-07
2.7249966e-07
2.6744322e-07
2.776483e-07
9.5782193e-08
3.6669344e-07
7.3367787e-07
8.1244467e-07
8.2654638e-07
8.2513464e-07
8.1909581e-07
8.1160687e-07
8.0397878e-07
7.9665642e-07
7.8975024e-07
7.8327094e-07
7.7719911e-07
7.7149553e-07
7.6612242e-07
7.6105127e-07
7.5624675e-07
7.5167968e-07
7.4733064e-07
7.4317741e-07
7.3920104e-07
7.3538626e-07
7.3171884e-07
7.2818686e-07
7.2477858e-07
7.2148452e-07
7.1829787e-07
7.1521051e-07
7.1221525e-07
7.0930599e-07
7.0647557e-07
7.0371783e-07
7.0102809e-07
6.9840176e-07
6.9583404e-07
6.9332112e-07
6.9085993e-07
6.8844698e-07
6.8607892e-07
6.8375302e-07
6.8146679e-07
6.7921744e-07
6.7700232e-07
6.748193e-07
6.7266641e-07
6.7054156e-07
6.6844256e-07
6.6636765e-07
6.6431528e-07
6.6228377e-07
6.6027114e-07
6.5827593e-07
6.5629686e-07
6.5433243e-07
6.5238115e-07
6.5044151e-07
6.4851231e-07
6.4659237e-07
6.4468028e-07
6.4277454e-07
6.4087398e-07
6.3897754e-07
6.3708396e-07
6.3519193e-07
6.3330008e-07
6.3140739e-07
6.2951278e-07
6.2761487e-07
6.2571227e-07
6.2380377e-07
6.2188819e-07
6.1996418e-07
6.1803017e-07
6.1608461e-07
6.1412628e-07
6.1215377e-07
6.1016527e-07
6.0815912e-07
6.0613386e-07
6.0408774e-07
6.020186e-07
5.9992438e-07
5.9780314e-07
5.9565263e-07
5.9347015e-07
5.9125308e-07
5.8899883e-07
5.8670425e-07
5.8436579e-07
5.8198025e-07
5.7959613e-07
5.7729006e-07
5.75085e-07
5.7297331e-07
5.7094792e-07
5.6900255e-07
5.6713168e-07
5.6533027e-07
5.6359344e-07
5.6191666e-07
5.6029607e-07
5.5872816e-07
5.572095e-07
5.5573671e-07
5.5430654e-07
5.529163e-07
5.5156216e-07
5.5024239e-07
5.4894727e-07
5.4768339e-07
5.4640341e-07
5.4523896e-07
5.4333973e-07
1.0071117e-06
6.1418993e-07
4.9031401e-07
4.3473494e-07
3.9965533e-07
3.7435118e-07
3.55358e-07
3.4074104e-07
3.2923545e-07
3.1999899e-07
3.1245898e-07
3.062144e-07
3.0097619e-07
2.9653039e-07
2.9271529e-07
2.8940462e-07
2.8650364e-07
2.8391527e-07
2.816487e-07
2.7932819e-07
2.7823791e-07
2.7297608e-07
2.83837e-07
9.9456134e-08
3.9451683e-07
8.2772129e-07
9.3042484e-07
9.5311896e-07
9.5461032e-07
9.4946931e-07
9.4208943e-07
9.3424985e-07
9.265722e-07
9.1924031e-07
9.12303e-07
9.0576205e-07
8.9958692e-07
8.9374453e-07
8.8821186e-07
8.8295508e-07
8.7794513e-07
8.73164e-07
8.6858942e-07
8.6420214e-07
8.5998679e-07
8.5592874e-07
8.5201585e-07
8.4823582e-07
8.4457875e-07
8.4103789e-07
8.376046e-07
8.3427117e-07
8.3103128e-07
8.2787715e-07
8.24802e-07
8.2180095e-07
8.1886911e-07
8.1600123e-07
8.1319314e-07
8.1044166e-07
8.0774304e-07
8.0509351e-07
8.0249011e-07
7.9993025e-07
7.9741084e-07
7.9492893e-07
7.9248215e-07
7.9006844e-07
7.8768551e-07
7.8533091e-07
7.8300263e-07
7.8069907e-07
7.784184e-07
7.7615837e-07
7.7391732e-07
7.7169386e-07
7.6948641e-07
7.6729328e-07
7.6511277e-07
7.629435e-07
7.607842e-07
7.5863337e-07
7.5648926e-07
7.5435054e-07
7.5221604e-07
7.5008441e-07
7.4795418e-07
7.4582377e-07
7.43692e-07
7.4155772e-07
7.394194e-07
7.3727547e-07
7.3512452e-07
7.3296522e-07
7.307961e-07
7.2861539e-07
7.2642131e-07
7.2421246e-07
7.2198728e-07
7.1974377e-07
7.1748e-07
7.151943e-07
7.1288473e-07
7.1054886e-07
7.0818432e-07
7.0578892e-07
7.0336011e-07
7.0089487e-07
6.9839018e-07
6.958431e-07
6.932501e-07
6.9060716e-07
6.8791057e-07
6.8521515e-07
6.8260763e-07
6.8011405e-07
6.7772577e-07
6.7543486e-07
6.7323424e-07
6.711177e-07
6.6907953e-07
6.6711428e-07
6.6521684e-07
6.6338283e-07
6.6160832e-07
6.5988943e-07
6.5822239e-07
6.5660355e-07
6.5502982e-07
6.5349708e-07
6.5200309e-07
6.505379e-07
6.491069e-07
6.4766181e-07
6.4634392e-07
6.441932e-07
1.0279306e-06
6.3012001e-07
5.0370852e-07
4.4677969e-07
4.1076594e-07
3.8472531e-07
3.6513965e-07
3.5004333e-07
3.3814572e-07
3.285846e-07
3.2077247e-07
3.1429732e-07
3.0886174e-07
3.0424529e-07
3.0028122e-07
2.968391e-07
2.9382103e-07
2.911264e-07
2.8876471e-07
2.8634681e-07
2.8520253e-07
2.7969587e-07
2.9137261e-07
1.0424128e-07
4.1803361e-07
9.2294441e-07
1.0546609e-06
1.0884681e-06
1.0940253e-06
1.0903365e-06
1.0833679e-06
1.0755027e-06
1.067592e-06
1.0599165e-06
1.0525765e-06
1.0456037e-06
1.038981e-06
1.0326831e-06
1.0266951e-06
1.0209866e-06
1.0155297e-06
1.0103088e-06
1.0053026e-06
1.0004918e-06
9.9586158e-07
9.9139721e-07
9.8708663e-07
9.8291718e-07
9.7887872e-07
9.749648e-07
9.7116636e-07
9.6747524e-07
9.6388498e-07
9.6038723e-07
9.5697461e-07
9.5364204e-07
9.5038447e-07
9.4719614e-07
9.4407255e-07
9.4101046e-07
9.3800586e-07
9.3505458e-07
9.3215343e-07
9.292997e-07
9.2649007e-07
9.2372121e-07
9.2099055e-07
9.1829593e-07
9.156349e-07
9.1300469e-07
9.1040306e-07
9.0782832e-07
9.0527855e-07
9.027512e-07
9.0024438e-07
8.9775661e-07
8.9528619e-07
8.9283128e-07
8.9038992e-07
8.8796057e-07
8.8554189e-07
8.8313223e-07
8.8072962e-07
8.7833255e-07
8.7593971e-07
8.7354966e-07
8.7116078e-07
8.6877126e-07
8.6637976e-07
8.6398502e-07
8.6158537e-07
8.5917905e-07
8.5676442e-07
8.5434e-07
8.5190417e-07
8.4945499e-07
8.469904e-07
8.4450878e-07
8.4200845e-07
8.3948719e-07
8.3694278e-07
8.3437331e-07
8.3177663e-07
8.2915004e-07
8.2649083e-07
8.237965e-07
8.2106421e-07
8.1829059e-07
8.1547217e-07
8.1260563e-07
8.0968702e-07
8.0671182e-07
8.0367578e-07
8.0064056e-07
7.9770397e-07
7.9489542e-07
7.9220516e-07
7.8962434e-07
7.8714502e-07
7.847602e-07
7.8246349e-07
7.802488e-07
7.7811039e-07
7.7604331e-07
7.7404316e-07
7.7210562e-07
7.7022643e-07
7.6840155e-07
7.6662747e-07
7.6489972e-07
7.6321549e-07
7.6156479e-07
7.599513e-07
7.5832667e-07
7.5684144e-07
7.5441622e-07
1.0522837e-06
6.4891668e-07
5.1959768e-07
4.6112336e-07
4.2403755e-07
3.9714716e-07
3.7687487e-07
3.6122125e-07
3.4886685e-07
3.3892674e-07
3.3079648e-07
3.2405139e-07
3.1838447e-07
3.1356782e-07
3.094288e-07
3.0583217e-07
3.0267637e-07
2.9985664e-07
2.9738287e-07
2.9485004e-07
2.9364277e-07
2.8784589e-07
3.005332e-07
1.1044741e-07
4.3655585e-07
1.018419e-06
1.1853299e-06
1.2332957e-06
1.2444351e-06
1.2429312e-06
1.2367783e-06
1.2291403e-06
1.221166e-06
1.2132636e-06
1.2056025e-06
1.1982551e-06
1.1912246e-06
1.1844974e-06
1.1780699e-06
1.1719175e-06
1.1660154e-06
1.1603517e-06
1.1549067e-06
1.1496623e-06
1.1446045e-06
1.1397191e-06
1.1349945e-06
1.130418e-06
1.1259794e-06
1.1216728e-06
1.117489e-06
1.1134194e-06
1.1094576e-06
1.1055947e-06
1.1018228e-06
1.0981366e-06
1.094531e-06
1.0909998e-06
1.0875381e-06
1.0841427e-06
1.0808094e-06
1.0775336e-06
1.0743119e-06
1.0711415e-06
1.0680188e-06
1.0649401e-06
1.0619027e-06
1.0589043e-06
1.0559423e-06
1.0530136e-06
1.0501158e-06
1.0472469e-06
1.0444052e-06
1.0415876e-06
1.038792e-06
1.0360169e-06
1.0332605e-06
1.0305208e-06
1.0277955e-06
1.0250829e-06
1.0223815e-06
1.0196897e-06
1.0170052e-06
1.0143263e-06
1.0116515e-06
1.0089793e-06
1.0063079e-06
1.0036353e-06
1.0009599e-06
9.9828043e-07
9.9559498e-07
9.929016e-07
9.9019842e-07
9.8748378e-07
9.8475592e-07
9.8201268e-07
9.7925173e-07
9.764712e-07
9.7366927e-07
9.7084347e-07
9.6799129e-07
9.6511055e-07
9.6219886e-07
9.5925322e-07
9.5627057e-07
9.5324804e-07
9.501825e-07
9.4707017e-07
9.439071e-07
9.4068955e-07
9.3741312e-07
9.3407273e-07
9.3066352e-07
9.2725468e-07
9.2395622e-07
9.2080123e-07
9.1777882e-07
9.1487907e-07
9.1209313e-07
9.0941313e-07
9.0683195e-07
9.0434275e-07
9.0193916e-07
8.9961558e-07
8.973671e-07
8.9518889e-07
8.930762e-07
8.9102456e-07
8.8902995e-07
8.8708762e-07
8.8519401e-07
8.8333933e-07
8.8152499e-07
8.7970351e-07
8.7803431e-07
8.7530711e-07
1.0806462e-06
6.7101399e-07
5.3838532e-07
4.7815679e-07
4.3985188e-07
4.1198922e-07
3.9092721e-07
3.7463031e-07
3.6174724e-07
3.513676e-07
3.4286772e-07
3.3580854e-07
3.2987207e-07
3.2482186e-07
3.2047853e-07
3.1670129e-07
3.1338433e-07
3.1041809e-07
3.0781296e-07
3.0514512e-07
3.038648e-07
2.9772185e-07
3.1166009e-07
1.1847629e-07
4.4908161e-07
1.1129559e-06
1.3223996e-06
1.3881318e-06
1.4068298e-06
1.4084817e-06
1.4036869e-06
1.3966199e-06
1.3888167e-06
1.3808531e-06
1.3729899e-06
1.3653547e-06
1.3579797e-06
1.3508681e-06
1.344032e-06
1.3374561e-06
1.3311205e-06
1.325019e-06
1.3191348e-06
1.3134519e-06
1.3079581e-06
1.3026402e-06
1.2974877e-06
1.2924883e-06
1.2876321e-06
1.2829141e-06
1.2783251e-06
1.2738564e-06
1.2695016e-06
1.2652515e-06
1.2610976e-06
1.2570347e-06
1.2530576e-06
1.2491597e-06
1.2453358e-06
1.2415828e-06
1.2378963e-06
1.2342713e-06
1.2307042e-06
1.2271921e-06
1.2237313e-06
1.2203178e-06
1.2169484e-06
1.2136209e-06
1.2103326e-06
1.20708e-06
1.2038604e-06
1.2006719e-06
1.1975126e-06
1.1943791e-06
1.191269e-06
1.1881808e-06
1.1851125e-06
1.1820619e-06
1.1790266e-06
1.1760045e-06
1.1729942e-06
1.1699939e-06
1.1670009e-06
1.1640134e-06
1.1610298e-06
1.1580485e-06
1.1550674e-06
1.1520843e-06
1.1490975e-06
1.1461054e-06
1.1431062e-06
1.1400975e-06
1.1370772e-06
1.1340436e-06
1.1309946e-06
1.1279279e-06
1.1248409e-06
1.1217314e-06
1.1185974e-06
1.1154362e-06
1.112245e-06
1.1090212e-06
1.1057623e-06
1.1024649e-06
1.0991256e-06
1.095741e-06
1.0923077e-06
1.0888216e-06
1.085278e-06
1.0816729e-06
1.0780013e-06
1.0742574e-06
1.0704359e-06
1.0666141e-06
1.0629156e-06
1.0593776e-06
1.0559879e-06
1.0527355e-06
1.0496104e-06
1.0466039e-06
1.043708e-06
1.0409151e-06
1.038218e-06
1.0356106e-06
1.0330873e-06
1.0306427e-06
1.0282716e-06
1.025969e-06
1.0237303e-06
1.0215505e-06
1.0194251e-06
1.0173449e-06
1.0153082e-06
1.0132697e-06
1.0113971e-06
1.0083359e-06
1.1135551e-06
6.9691127e-07
5.6054092e-07
4.9833852e-07
4.5866048e-07
4.2969509e-07
4.0773191e-07
3.9069786e-07
3.7720717e-07
3.6632114e-07
3.5739458e-07
3.4997217e-07
3.437235e-07
3.3840242e-07
3.3382183e-07
3.2983463e-07
3.2633011e-07
3.2319318e-07
3.2043485e-07
3.1760919e-07
3.1624464e-07
3.0968571e-07
3.2516886e-07
1.2884247e-07
4.5431169e-07
1.2049213e-06
1.4655948e-06
1.5532607e-06
1.5820877e-06
1.5881797e-06
1.5854691e-06
1.5794392e-06
1.5721304e-06
1.5643379e-06
1.5564434e-06
1.5486484e-06
1.5410254e-06
1.5336017e-06
1.5264103e-06
1.5194497e-06
1.5127079e-06
1.5061863e-06
1.4998731e-06
1.4937557e-06
1.4878248e-06
1.4820693e-06
1.4764803e-06
1.4710463e-06
1.4657585e-06
1.4606131e-06
1.4556013e-06
1.4507144e-06
1.4459464e-06
1.4412879e-06
1.4367298e-06
1.4322672e-06
1.4278949e-06
1.4236061e-06
1.4193952e-06
1.4152594e-06
1.4111941e-06
1.4071941e-06
1.4032554e-06
1.3993752e-06
1.3955497e-06
1.3917743e-06
1.3880459e-06
1.3843621e-06
1.38072e-06
1.377116e-06
1.3735469e-06
1.3700109e-06