/*--------------------------------*- C++ -*----------------------------------*\
  =========                 |
  \\      /  F ield         | OpenFOAM: The Open Source CFD Toolbox
   \\    /   O peration     | Website:  https://openfoam.org
    \\  /    A nd           | Version:  12
     \\/     M anipulation  |
\*---------------------------------------------------------------------------*/
FoamFile
{
    format      ascii;
    class       volVectorField;
    location    "1800";
    object      wallShearStress;
}
// * * * * * * * * * * * * * * * * * * * * * * * * * * * * * * * * * * * * * //

dimensions      [0 2 -2 0 0 0 0];

internalField   uniform (0 0 0);

boundaryField
{
    bottom
    {
        type            calculated;
        value           nonuniform List<vector> 
112
(
(-0.0077572997 -3.5553949e-05 0)
(-0.0059330713 -2.2044042e-07 -1.4325316e-17)
(-0.0054661366 -7.5055255e-08 9.9545763e-18)
(-0.0051582291 -5.2340297e-08 -3.3452887e-18)
(-0.0049386396 -3.924391e-08 0)
(-0.0047620951 -3.2211755e-08 0)
(-0.0046119272 -2.737618e-08 0)
(-0.004482621 -2.3468215e-08 0)
(-0.0043705178 -2.0297415e-08 0)
(-0.0042721069 -1.7769935e-08 -2.2173471e-18)
(-0.0041846054 -1.5727732e-08 0)
(-0.0041060503 -1.4026941e-08 -1.74436e-18)
(-0.0040350889 -1.2589974e-08 1.5633672e-18)
(-0.0039705158 -1.1390463e-08 -1.412388e-18)
(-0.0039112102 -1.0379796e-08 0)
(-0.0038564306 -9.5039151e-09 1.1754936e-18)
(-0.003805603 -8.7436596e-09 0)
(-0.0037581751 -8.0815182e-09 -4.9864024e-19)
(-0.0037137313 -7.4975993e-09 0)
(-0.0036719203 -6.9800651e-09 -8.5960228e-19)
(-0.0036324428 -6.5178848e-09 8.0192555e-19)
(-0.0035950543 -6.1035244e-09 0)
(-0.0035595293 -5.730124e-09 0)
(-0.0035256903 -5.3907084e-09 0)
(-0.0034933822 -5.082081e-09 -6.2312154e-19)
(-0.0034624578 -4.7992564e-09 0)
(-0.0034328121 -4.5381406e-09 0)
(-0.0034043409 -4.2986021e-09 0)
(-0.0033769349 -4.0780144e-09 0)
(-0.0033505146 -3.8732238e-09 -4.7316678e-19)
(-0.0033250054 -3.6837786e-09 4.4971933e-19)
(-0.0033003284 -3.5085678e-09 0)
(-0.0032764175 -3.3449636e-09 0)
(-0.0032532243 -3.1915123e-09 0)
(-0.0032306983 -3.0483631e-09 3.712084e-19)
(-0.0032087852 -2.9144318e-09 0)
(-0.0031874451 -2.7879423e-09 0)
(-0.0031666459 -2.6685292e-09 -3.2438856e-19)
(-0.0031463502 -2.5564035e-09 0)
(-0.0031265192 -2.4507875e-09 0)
(-0.0031071238 -2.3504861e-09 0)
(-0.0030881411 -2.2552049e-09 2.7354701e-19)
(-0.0030695442 -2.1651741e-09 -1.3124417e-19)
(-0.0030513036 -2.0800532e-09 2.520373e-19)
(-0.0030333951 -1.998895e-09 0)
(-0.0030158027 -1.921234e-09 0)
(-0.0029985087 -1.847359e-09 -3.3525969e-19)
(-0.0029814894 -1.7773766e-09 0)
(-0.0029647225 -1.7104968e-09 2.0674419e-19)
(-0.0029481968 -1.6461468e-09 0)
(-0.0029318993 -1.5845758e-09 0)
(-0.0029158122 -1.5258958e-09 -9.2084987e-20)
(-0.0028999177 -1.4698532e-09 -8.8660923e-20)
(-0.0028842014 -1.4159237e-09 0)
(-0.0028686545 -1.3638925e-09 -1.6438793e-19)
(-0.0028532658 -1.3139813e-09 0)
(-0.00283802 -1.266299e-09 0)
(-0.0028229013 -1.2204609e-09 0)
(-0.0028079013 -1.1760907e-09 0)
(-0.0027930118 -1.1332635e-09 0)
(-0.0027782216 -1.0921149e-09 0)
(-0.0027635167 -1.0526075e-09 0)
(-0.0027488851 -1.0143977e-09 0)
(-0.0027343205 -9.7727363e-10 0)
(-0.0027198154 -9.4139796e-10 -1.1295556e-19)
(-0.0027053575 -9.0686325e-10 0)
(-0.0026909346 -8.7350297e-10 -5.2357857e-20)
(-0.0026765378 -8.4109583e-10 0)
(-0.0026621602 -8.0960052e-10 -4.8484172e-20)
(-0.0026477932 -7.7914505e-10 9.3279011e-20)
(-0.0026334235 -7.4976979e-10 8.9721494e-20)
(-0.0026190391 -7.2125138e-10 -4.3134938e-20)
(-0.0026046332 -6.9343764e-10 0)
(-0.0025901979 -6.6644377e-10 0)
(-0.0025757203 -6.4034748e-10 7.6488076e-20)
(-0.0025611871 -6.1498521e-10 -7.3424607e-20)
(-0.0025465902 -5.9021134e-10 0)
(-0.0025319212 -5.6610895e-10 0)
(-0.0025171665 -5.4275549e-10 -6.4709892e-20)
(-0.0025023112 -5.2005058e-10 0)
(-0.0024873441 -4.9787192e-10 0)
(-0.0024722552 -4.7626794e-10 0)
(-0.0024570279 -4.5531056e-10 0)
(-0.0024416447 -4.3489222e-10 0)
(-0.0024260928 -4.1493398e-10 0)
(-0.0024103569 -3.9550178e-10 0)
(-0.0023944166 -3.7662386e-10 0)
(-0.0023782497 -3.5817153e-10 4.2510141e-20)
(-0.0023618426 -3.4026279e-10 -4.0362765e-20)
(-0.0023455315 -3.2334428e-10 0)
(-0.0023298306 -3.0764985e-10 0)
(-0.0023148859 -2.9316702e-10 0)
(-0.002300638 -2.7983697e-10 0)
(-0.0022870302 -2.6756463e-10 0)
(-0.0022740126 -2.5620708e-10 0)
(-0.002261543 -2.4566416e-10 0)
(-0.0022495816 -2.359012e-10 0)
(-0.0022380897 -2.2686902e-10 -2.6801017e-20)
(-0.0022270325 -2.1846368e-10 0)
(-0.0022163819 -2.1060863e-10 0)
(-0.0022061108 -2.0329608e-10 0)
(-0.0021961916 -1.9650671e-10 0)
(-0.0021865995 -1.9022548e-10 0)
(-0.0021773085 -1.8437836e-10 0)
(-0.002168301 -1.7907526e-10 0)
(-0.0021595401 -1.7411575e-10 0)
(-0.0021510287 -1.703788e-10 0)
(-0.0021426414 -1.6629423e-10 0)
(-0.0021345404 -1.6669459e-10 0)
(-0.0021261122 -3.0589578e-10 0)
(-0.0021186605 -1.9597825e-10 -2.3194284e-20)
(-0.0021066075 -2.3365925e-10 0)
)
;
    }
    back
    {
        type            empty;
    }
    front
    {
        type            empty;
    }
    inlet
    {
        type            calculated;
        value           uniform (0 0 0);
    }
    outlet
    {
        type            calculated;
        value           uniform (0 0 0);
    }
    top
    {
        type            calculated;
        value           uniform (0 0 0);
    }
    slipsurface
    {
        type            calculated;
        value           uniform (0 0 0);
    }
}


// ************************************************************************* //
