#      distance             U_x             U_y             U_z wallShearStr... wallShearStr... wallShearStr...               p         epsilon               k             nut
              0       0.9999728               0               0               0               0               0    0.0020641741    0.0069300693   0.00012442162   2.0104655e-07
   0.0021021021      0.99997179               0               0               0               0               0    0.0020807378    0.0069301743   0.00012442236    2.010459e-07
   0.0042042042      0.99997078               0               0               0               0               0    0.0020973014    0.0069302793   0.00012442311   2.0104526e-07
   0.0063063063      0.99996977               0               0               0               0               0     0.002113865    0.0069303843   0.00012442385   2.0104461e-07
   0.0084084084      0.99996876               0               0               0               0               0    0.0021304287    0.0069304892   0.00012442459   2.0104396e-07
    0.010510511      0.99996751               0               0               0               0               0    0.0021495488    0.0069306113   0.00012442561   2.0104372e-07
    0.012612613      0.99996612               0               0               0               0               0    0.0021702568     0.006930744    0.0001244268   2.0104372e-07
    0.014714715      0.99996473               0               0               0               0               0    0.0021909648    0.0069308767     0.000124428   2.0104373e-07
    0.016816817      0.99996334               0               0               0               0               0    0.0022116728    0.0069310094   0.00012442919   2.0104373e-07
    0.018918919      0.99996195               0               0               0               0               0    0.0022323808    0.0069311421   0.00012443038   2.0104374e-07
    0.021021021      0.99996049               0               0               0               0               0    0.0022537577     0.006931279   0.00012443164   2.0104383e-07
    0.023123123      0.99995857               0               0               0               0               0    0.0022796316    0.0069314447   0.00012443332   2.0104447e-07
    0.025225225      0.99995664               0               0               0               0               0    0.0023055056    0.0069316103   0.00012443501   2.0104512e-07
    0.027327327      0.99995471               0               0               0               0               0    0.0023313796    0.0069317759    0.0001244367   2.0104577e-07
    0.029429429      0.99995279               0               0               0               0               0    0.0023572536    0.0069319416   0.00012443838   2.0104641e-07
    0.031531532      0.99995067               0               0               0               0               0    0.0023847851    0.0069321171   0.00012444021   2.0104723e-07
    0.033633634      0.99994799               0               0               0               0               0    0.0024171578    0.0069323214   0.00012444245   2.0104853e-07
    0.035735736      0.99994531               0               0               0               0               0    0.0024495305    0.0069325258   0.00012444468   2.0104983e-07
    0.037837838      0.99994263               0               0               0               0               0    0.0024819032    0.0069327301   0.00012444692   2.0105114e-07
     0.03993994      0.99993995               0               0               0               0               0    0.0025142759    0.0069329344   0.00012444916   2.0105244e-07
    0.042042042      0.99993628               0               0               0               0               0    0.0025542006    0.0069331798   0.00012445196   2.0105437e-07
    0.044144144      0.99993252               0               0               0               0               0     0.002594833    0.0069334289   0.00012445481   2.0105637e-07
    0.046246246      0.99992876               0               0               0               0               0    0.0026354654     0.006933678   0.00012445767   2.0105836e-07
    0.048348348      0.99992494               0               0               0               0               0    0.0026764896    0.0069339291   0.00012446054   2.0106038e-07
     0.05045045      0.99991961               0               0               0               0               0    0.0027277971     0.006934229   0.00012446408   2.0106311e-07
    0.052552553      0.99991427               0               0               0               0               0    0.0027791047    0.0069345288   0.00012446762   2.0106584e-07
    0.054654655      0.99990894               0               0               0               0               0    0.0028304122    0.0069348287   0.00012447116   2.0106858e-07
    0.056756757      0.99990228               0               0               0               0               0    0.0028895425    0.0069351601   0.00012447511   2.0107175e-07
    0.058858859      0.99989456               0               0               0               0               0    0.0029548402    0.0069355163    0.0001244794   2.0107528e-07
    0.060960961      0.99988685               0               0               0               0               0    0.0030201378    0.0069358724   0.00012448369   2.0107881e-07
    0.063063063      0.99987763               0               0               0               0               0    0.0030935393    0.0069362545   0.00012448832    2.010827e-07
    0.065165165      0.99986637               0               0               0               0               0    0.0031778971    0.0069366716   0.00012449343   2.0108709e-07
    0.067267267      0.99985512               0               0               0               0               0    0.0032622548    0.0069370887   0.00012449853   2.0109148e-07
    0.069369369      0.99984025               0               0               0               0               0    0.0033618541    0.0069375452   0.00012450415   2.0109642e-07
    0.071471471      0.99982279               0               0               0               0               0    0.0034723202    0.0069380299   0.00012451015   2.0110174e-07
    0.073573574      0.99980534               0               0               0               0               0    0.0035827864    0.0069385146   0.00012451615   2.0110707e-07
    0.075675676      0.99977901               0               0               0               0               0    0.0037330128    0.0069390745   0.00012452319   2.0111359e-07
    0.077777778      0.99975259               0               0               0               0               0    0.0038836906    0.0069396352   0.00012453024   2.0112013e-07
     0.07987988      0.99971231               0               0               0               0               0    0.0040684518    0.0069402643   0.00012453813   2.0112737e-07
    0.081981982      0.99966271               0               0               0               0               0    0.0042761278    0.0069409393   0.00012454657   2.0113508e-07
    0.084084084      0.99960319               0               0               0               0               0    0.0045291049    0.0069417987   0.00012455705   2.0114402e-07
    0.086186186      0.99952694               0               0               0               0               0    0.0048583914    0.0069429685   0.00012457096   2.0115504e-07
    0.088288288      0.99940962               0   -9.416139e-22               0               0               0    0.0052289132    0.0069429137    0.0001245784    2.011807e-07
     0.09039039      0.99918463               0  -4.3507778e-21               0               0               0    0.0057074945      0.00693965   0.00012456891   2.0124472e-07
    0.092492492      0.99901782               0   1.5821994e-17               0               0               0    0.0064941341    0.0069818372   0.00012478342   2.0077152e-07
    0.094594595      0.99900439               0   7.3389172e-17               0               0               0    0.0080930802    0.0071438722    0.0001255886   1.9888172e-07
    0.096696697      0.91098119               0   1.1160005e-16  -0.00064802265  -3.1485312e-06               0    0.0092631762       4.4534693   0.00011514884    1.798772e-07
    0.098798799      0.64923585               0   1.1160362e-16   -0.0025751744  -1.2511935e-05               0    0.0095867667       17.676058    8.251276e-05      1.2709e-07
      0.1009009      0.38746292               0   8.6543732e-17   -0.0042527233  -1.7895342e-05  -1.9504598e-18    0.0085775394       31.258314   4.9523682e-05   7.5160769e-08
       0.103003      0.12565318               0   2.8065899e-17   -0.0055974683  -1.7972088e-05  -6.5015328e-18    0.0057912217       45.320128   1.6063945e-05   2.4375489e-08
     0.10510511               0               0               0   -0.0058621071  -1.3192636e-05  -7.2350399e-18      0.00339291        51.18974   5.0911524e-09   1.4223111e-12
     0.10720721               0               0               0    -0.005129961  -3.9316031e-06  -4.4454755e-18    0.0013526727       49.499112   4.7825063e-09   1.1556396e-12
     0.10930931               0               0               0   -0.0047035528  -1.6020075e-07  -6.1078247e-19   0.00034815281       46.588617   4.2577914e-09   1.0056882e-12
     0.11141141               0               0               0   -0.0044842867  -1.0811057e-07   3.9320019e-18   4.5347941e-05       42.851644   3.5866864e-09   9.3481647e-13
     0.11351351               0               0               0   -0.0043356823  -8.0961839e-08   3.6942759e-18  -6.0142629e-05       40.192804   3.1440823e-09   8.8781789e-13
     0.11561562               0               0               0   -0.0042241081  -6.6883709e-08    9.513184e-19  -6.2230439e-05       38.098963   2.8212243e-09   8.5333004e-13
     0.11771772               0               0               0   -0.0041326938  -5.1306426e-08   8.2059417e-20  -5.0659348e-05       36.409439   2.5757097e-09   8.2550397e-13
     0.11981982               0               0               0   -0.0040499395  -3.5085162e-08   1.7669531e-20  -3.3220916e-05       34.893595   2.3634188e-09   8.0053954e-13
     0.12192192               0               0               0   -0.0039806144  -2.8187788e-08               0  -2.1367929e-05       33.660189   2.1991365e-09    7.798896e-13
     0.12402402               0               0               0   -0.0039163682  -2.4816687e-08               0  -1.1627345e-05       32.533601    2.053011e-09   7.6087138e-13
     0.12612613               0               0               0   -0.0038622918  -2.2118871e-08               0  -4.9353808e-06       31.606278   1.9376599e-09   7.4503127e-13
     0.12822823               0               0               0   -0.0038119066   -1.966543e-08               0   6.5004952e-07        30.75128   1.8334788e-09    7.303447e-13
     0.13033033               0               0               0   -0.0037687037  -1.7716306e-08               0   7.9530627e-06       30.029023   1.7484238e-09   7.1785893e-13
     0.13243243               0               0               0   -0.0037282502  -1.5960237e-08               0   1.5913576e-05        29.35758   1.6706904e-09   7.0621565e-13
     0.13453453               0               0               0   -0.0036928228  -1.4528529e-08  -2.2790811e-19   2.4115797e-05       28.775929   1.6051769e-09   6.9608859e-13
     0.13663664               0               0               0   -0.0036596188  -1.3240313e-08  -5.5663854e-19   3.2424945e-05       28.234001   1.5450692e-09   6.8663227e-13
     0.13873874               0               0               0   -0.0036299303  -1.2154397e-08  -6.7387553e-19   3.9906217e-05       27.753607     1.49293e-09   6.7822257e-13
     0.14084084               0               0               0   -0.0036021906  -1.1180622e-08  -6.7387559e-19   4.6928574e-05       27.307323    1.445208e-09   6.7039303e-13
     0.14294294               0               0               0    -0.003576874  -1.0332229e-08   -6.232816e-19   5.3531525e-05       26.902785   1.4026621e-09   6.6327667e-13
     0.14504505               0               0               0   -0.0035533659   -9.577416e-09  -5.3492646e-19   5.9821449e-05       26.529404   1.3639793e-09    6.566926e-13
     0.14714715               0               0               0   -0.0035314679  -8.8982587e-09   -3.929051e-19   6.6076725e-05        26.18335   1.3285575e-09   6.5057769e-13
     0.14924925               0               0               0    -0.003511312  -8.3009647e-09  -1.9281447e-19   7.2294511e-05       25.866862   1.2966642e-09   6.4497044e-13
     0.15135135               0               0               0   -0.0034921451   -7.746358e-09  -4.5389247e-20   7.8500881e-05       25.566925   1.2666799e-09    6.396488e-13
     0.15345345               0               0               0   -0.0034746943  -7.2658246e-09   1.0648022e-20   8.4687443e-05       25.295708   1.2400083e-09   6.3482278e-13
     0.15555556               0               0               0   -0.0034577479  -6.8054595e-09   9.3615327e-21   9.0851159e-05        25.03283   1.2142699e-09   6.3014131e-13
     0.15765766               0               0               0   -0.0034425125  -6.4135013e-09  -1.8635621e-19   9.6937386e-05       24.798239   1.1916964e-09   6.2595011e-13
     0.15975976               0               0               0    -0.003427398  -6.0260378e-09  -3.4947923e-19   0.00010301301       24.565625    1.169338e-09    6.217933e-13
     0.16186186               0               0               0    -0.003414001   -5.702444e-09   -4.943182e-20   0.00010893794       24.361097   1.1500369e-09   6.1812513e-13
     0.16396396               0               0               0   -0.0034006039  -5.3788502e-09   2.5061559e-19   0.00011486288        24.15657   1.1307357e-09   6.1445696e-13
     0.16606607               0               0               0    -0.003388563  -5.1023565e-09   2.8696191e-19   0.00012064196       23.973998   1.1137656e-09   6.1117216e-13
     0.16816817               0               0               0    -0.003376709  -4.8323548e-09   2.8696194e-19   0.00012640093       23.794453   1.0971167e-09    6.079402e-13
     0.17027027               0               0               0   -0.0033657264  -4.5907873e-09   1.6769614e-19   0.00013199316       23.628885   1.0819181e-09   6.0495314e-13
     0.17237237               0               0               0   -0.0033551806  -4.3634706e-09  -1.1343971e-20   0.00013750181       23.470321   1.0674466e-09   6.0208883e-13
     0.17447447               0               0               0   -0.0033451119  -4.1508624e-09   -1.140007e-19   0.00014286934       23.319345    1.053746e-09   5.9935791e-13
     0.17657658               0               0               0   -0.0033356846   -3.958022e-09  -1.1400071e-19   0.00014804722       23.178565   1.0410818e-09   5.9680626e-13
     0.17867868               0               0               0   -0.0033264107  -3.7696635e-09   -1.188829e-19   0.00015318518       23.040206   1.0286589e-09   5.9429732e-13
     0.18078078               0               0               0   -0.0033179465  -3.6049502e-09  -1.4952162e-19   0.00015811257        22.91462   1.0175095e-09   5.9201365e-13
     0.18288288               0               0               0   -0.0033094824  -3.4402369e-09  -1.8016034e-19   0.00016303996       22.789033   1.0063601e-09   5.8972998e-13
     0.18498498               0               0               0   -0.0033017391  -3.2955543e-09  -1.2248047e-19   0.00016773483       22.674731   9.9631609e-10   5.8764597e-13
     0.18708709               0               0               0   -0.0032941101   -3.154044e-09  -5.0813538e-20   0.00017239288       22.562216   9.8644718e-10   5.8559359e-13
     0.18918919               0               0               0   -0.0032868723  -3.0229272e-09   2.4374293e-20   0.00017687539       22.455781   9.7716432e-10   5.8364912e-13
     0.19129129               0               0               0   -0.0032799713  -2.9007581e-09   1.0259322e-19   0.00018120681        22.35458   9.6838599e-10   5.8179756e-13
     0.19339339               0               0               0   -0.0032731855  -2.7815181e-09   1.5409297e-19   0.00018549321       22.255156   9.5977647e-10   5.7997764e-13
      0.1954955               0               0               0   -0.0032669224  -2.6755728e-09   8.4316167e-20   0.00018957532       22.163802   9.5193317e-10   5.7830136e-13
      0.1975976               0               0               0   -0.0032606593  -2.5696275e-09   1.4539366e-20   0.00019365743       22.072448   9.4408987e-10   5.7662508e-13
      0.1996997               0               0               0   -0.0032548406  -2.4745263e-09               0    0.0001975906        21.98791   9.3688497e-10   5.7507048e-13
      0.2018018               0               0               0   -0.0032491388  -2.3822795e-09               0   0.00020148457       21.905167   9.2984811e-10   5.7354792e-13
      0.2039039               0               0               0   -0.0032436202  -2.2943407e-09  -1.7290506e-20   0.00020529132       21.825217    9.230696e-10   5.7207538e-13
     0.20600601               0               0               0   -0.0032384144  -2.2137543e-09  -6.4089261e-20   0.00020894924       21.750036   9.1673198e-10   5.7068821e-13
     0.20810811               0               0               0   -0.0032332086  -2.1331679e-09  -1.1088802e-19   0.00021260715       21.674854   9.1039437e-10   5.6930104e-13
     0.21021021               0               0               0   -0.0032284043  -2.0616986e-09  -1.1496826e-19   0.00021602803       21.605758   9.0461283e-10   5.6802311e-13
     0.21231231               0               0               0   -0.0032236382  -1.9911002e-09  -1.1496828e-19   0.00021942626       21.537244   8.9888441e-10   5.6675562e-13
     0.21441441               0               0               0   -0.0032190366  -1.9241087e-09  -9.5861126e-20   0.00022274327       21.471208   8.9338006e-10   5.6553275e-13
     0.21651652               0               0               0   -0.0032146617    -1.86209e-09  -5.0410519e-20   0.00022594829       21.408591   8.8818466e-10    5.643714e-13
     0.21861862               0               0               0   -0.0032102867  -1.8000714e-09  -4.9599119e-21   0.00022915331       21.345973   8.8298925e-10   5.6321005e-13
     0.22072072               0               0               0   -0.0032062225  -1.7446456e-09               0   0.00023222972       21.288018   8.7821095e-10   5.6213282e-13
     0.22282282               0               0               0   -0.0032021964  -1.6900273e-09               0   0.00023529039       21.230634   8.7348374e-10   5.6106589e-13
     0.22492492               0               0               0   -0.0031982709  -1.6374824e-09               0   0.00023829443       21.174754   8.6888978e-10   5.6002617e-13
     0.22702703               0               0               0   -0.0031945567  -1.5892859e-09               0   0.00024117973       21.122026   8.6457528e-10   5.5904349e-13
     0.22912913               0               0               0   -0.0031908424  -1.5410894e-09               0   0.00024406503       21.069299   8.6026079e-10   5.5806081e-13
     0.23123123               0               0               0    -0.003187328  -1.4968902e-09  -2.0699725e-20   0.00024680265       21.019542   8.5620723e-10     5.57132e-13
     0.23333333               0               0               0   -0.0031838932  -1.4542852e-09   -4.965441e-20   0.00024948138       20.970969   8.5225774e-10   5.5622466e-13
     0.23543544               0               0               0    -0.003180475  -1.4119997e-09  -7.4979768e-20   0.00025214835       20.922639   8.4832945e-10   5.5532175e-13
     0.23753754               0               0               0   -0.0031772914  -1.3742737e-09  -4.8514013e-20   0.00025464758       20.877782   8.4470375e-10   5.5448195e-13
     0.23963964               0               0               0   -0.0031741078  -1.3365477e-09  -2.2048259e-20   0.00025714681       20.832924   8.4107804e-10   5.5364215e-13
     0.24174174               0               0               0   -0.0031710084  -1.3004118e-09   4.9998077e-21   0.00025959779       20.789309   8.3755978e-10   5.5282498e-13
     0.24384384               0               0               0   -0.0031680508  -1.2669482e-09   3.3026561e-20   0.00026196768       20.747782    8.342221e-10   5.5204584e-13
     0.24594595               0               0               0   -0.0031650931  -1.2334847e-09   6.1053314e-20   0.00026433758       20.706255   8.3088443e-10    5.512667e-13
     0.24804805               0               0               0    -0.003162265  -1.2023943e-09   5.4978901e-20   0.00026663205        20.66663   8.2771011e-10   5.5052229e-13
     0.25015015               0               0               0   -0.0031595111  -1.1726627e-09   2.9379261e-20   0.00026888334       20.628094   8.2462933e-10   5.4979777e-13
     0.25225225               0               0               0   -0.0031567572   -1.142931e-09    3.779622e-21   0.00027113463       20.589558   8.2154855e-10   5.4907324e-13
     0.25435435               0               0               0   -0.0031541603  -1.1159984e-09               0   0.00027326044       20.553317   8.1866356e-10    5.483907e-13
     0.25645646               0               0               0   -0.0031515905  -1.0895507e-09               0   0.00027536452       20.517472   8.1581248e-10   5.4771544e-13
     0.25855856               0               0               0   -0.0031490241  -1.0631626e-09   3.8763551e-22   0.00027746531       20.481678   8.1296564e-10   5.4704109e-13
     0.26066066               0               0               0   -0.0031466209  -1.0396106e-09   1.9209564e-20   0.00027940946       20.448262   8.1032045e-10   5.4641034e-13
     0.26276276               0               0               0   -0.0031442177  -1.0160587e-09   3.8031492e-20   0.00028135361       20.414845   8.0767526e-10   5.4577958e-13
     0.26486486               0               0               0   -0.0031418355  -9.9286047e-10   5.4242264e-20   0.00028327796       20.381733   8.0505573e-10   5.4515442e-13
     0.26696697               0               0               0   -0.0031395833  -9.7185783e-10   5.4242276e-20   0.00028507937        20.35051    8.025955e-10   5.4456396e-13
     0.26906907               0               0               0   -0.0031373312  -9.5085519e-10   5.4242289e-20   0.00028688077       20.319286   8.0013528e-10    5.439735e-13
     0.27117117               0               0               0   -0.0031351071  -9.3031211e-10   5.0524926e-20   0.00028865921        20.28847   7.9770917e-10   5.4339053e-13
     0.27327327               0               0               0    -0.003132992  -9.1155359e-10    3.237216e-20   0.00029034846       20.259231   7.9541551e-10   5.4283661e-13
     0.27537538               0               0               0    -0.003130877  -8.9279508e-10   1.4219395e-20   0.00029203771       20.229993   7.9312185e-10   5.4228269e-13
     0.27747748               0               0               0    -0.003128789  -8.7446593e-10  -3.2165974e-21   0.00029370654       20.201145   7.9086076e-10   5.4173597e-13
     0.27957958               0               0               0   -0.0031267987  -8.5768898e-10  -1.8061407e-20   0.00029530158       20.173708   7.8871742e-10   5.4121526e-13
     0.28168168               0               0               0   -0.0031248084  -8.4091203e-10  -3.2906217e-20   0.00029689662        20.14627   7.8657407e-10   5.4069455e-13
     0.28378378               0               0               0   -0.0031228378  -8.2443713e-10  -4.5193974e-20   0.00029847314       20.119114   7.8445415e-10   5.4017904e-13
     0.28588589               0               0               0   -0.0031209612  -8.0941366e-10  -4.5193986e-20   0.00029996072       20.093312   7.8244677e-10   5.3968856e-13
     0.28798799               0               0               0   -0.0031190846  -7.9439019e-10  -4.5193998e-20    0.0003014483        20.06751   7.8043939e-10   5.3919808e-13
     0.29009009               0               0               0   -0.0031172153  -7.7947436e-10  -4.4205379e-20   0.00030292724       20.041812   7.7844054e-10   5.3870951e-13
     0.29219219               0               0               0   -0.0031154425  -7.6600599e-10  -2.9921752e-20   0.00030429002       20.017499    7.765564e-10   5.3824659e-13
     0.29429429               0               0               0   -0.0031136697  -7.5253762e-10  -1.5638125e-20   0.00030565281       19.993187   7.7467227e-10   5.3778368e-13
      0.2963964               0               0               0    -0.003111897  -7.3906926e-10  -1.3544978e-21    0.0003070156       19.968874   7.7278813e-10   5.3732077e-13
      0.2984985               0               0               0   -0.0031102101  -7.2684787e-10               0   0.00030826813       19.945791   7.7100534e-10   5.3688066e-13
      0.3006006               0               0               0   -0.0031085323  -7.1475712e-10               0   0.00030950911       19.922837   7.6923318e-10   5.3644294e-13
      0.3027027               0               0               0   -0.0031068544  -7.0266637e-10               0   0.00031075009       19.899882   7.6746101e-10   5.3600521e-13
      0.3048048               0               0               0   -0.0031052355  -6.9140203e-10    7.487224e-21   0.00031191897       19.877769   7.6575792e-10   5.3558312e-13
     0.30690691               0               0               0   -0.0031036447  -6.8053088e-10   1.8536741e-20   0.00031305356       19.856056    7.640877e-10   5.3516846e-13
     0.30900901               0               0               0   -0.0031020539  -6.6965973e-10   2.9586259e-20   0.00031418814       19.834343   7.6241748e-10    5.347538e-13
     0.31111111               0               0               0   -0.0031004937  -6.5920322e-10    3.441776e-20   0.00031528914       19.813066   7.6078298e-10   5.3434726e-13
     0.31321321               0               0               0   -0.0030989827  -6.4941225e-10   2.9269136e-20   0.00031633624       19.792489    7.592058e-10   5.3395375e-13
     0.31531532               0               0               0   -0.0030974717  -6.3962127e-10   2.4120511e-20   0.00031738333       19.771913   7.5762862e-10   5.3356025e-13
     0.31741742               0               0               0   -0.0030959623  -6.2985057e-10   1.9059996e-20   0.00031842878       19.751358   7.5605325e-10   5.3316715e-13
     0.31951952               0               0               0   -0.0030945247  -6.2101695e-10   1.8070888e-20   0.00031939773       19.731825   7.5456117e-10   5.3279309e-13
     0.32162162               0               0               0   -0.0030930872  -6.1218332e-10   1.7081781e-20   0.00032036669       19.712291   7.5306909e-10   5.3241904e-13
     0.32372372               0               0               0   -0.0030916497   -6.033497e-10   1.6092673e-20   0.00032133564       19.692758   7.5157701e-10   5.3204498e-13
     0.32582583               0               0               0   -0.0030902519  -5.9501615e-10   1.8577601e-20    0.0003222534       19.673787    7.501307e-10   5.3168143e-13
     0.32792793               0               0               0   -0.0030888822  -5.8703503e-10   2.3510787e-20   0.00032313509       19.655213   7.4871665e-10   5.3132529e-13
     0.33003003               0               0               0   -0.0030875124   -5.790539e-10   2.8443974e-20   0.00032401677       19.636639    7.473026e-10   5.3096916e-13
     0.33213213               0               0               0   -0.0030861475  -5.7113124e-10   3.2288553e-20   0.00032489089       19.618133   7.4589406e-10   5.3061429e-13
     0.33423423               0               0               0   -0.0030848403  -5.6390897e-10    2.309154e-20   0.00032567439       19.600442   7.4455171e-10    5.302747e-13
     0.33633634               0               0               0   -0.0030835332   -5.566867e-10   1.3894527e-20   0.00032645788       19.582752   7.4320936e-10   5.2993511e-13
     0.33843844               0               0               0    -0.003082226  -5.4946443e-10   4.6975136e-21   0.00032724138       19.565062     7.41867e-10   5.2959551e-13
     0.34054054               0               0               0   -0.0030809472  -5.4257341e-10  -5.7606414e-21   0.00032797768       19.547771   7.4055696e-10   5.2926341e-13
     0.34264264               0               0               0    -0.003079698  -5.3602823e-10  -1.7535439e-20   0.00032866471       19.530897   7.3928065e-10   5.2893912e-13
     0.34474474               0               0               0   -0.0030784489  -5.2948305e-10  -2.9310236e-20   0.00032935174       19.514023   7.3800434e-10   5.2861484e-13
     0.34684685               0               0               0   -0.0030771997  -5.2293787e-10  -4.1085034e-20   0.00033003877       19.497149   7.3672803e-10   5.2829056e-13
     0.34894895               0               0               0   -0.0030759946  -5.1688769e-10  -4.3207568e-20   0.00033065443       19.480895    7.355017e-10   5.2797791e-13
     0.35105105               0               0               0   -0.0030747992  -5.1094636e-10  -4.3207585e-20   0.00033125439       19.464777   7.3428637e-10   5.2766782e-13
     0.35315315               0               0               0   -0.0030736038  -5.0500503e-10  -4.3207602e-20   0.00033185435       19.448658   7.3307103e-10   5.2735773e-13