# Wall shear stress
# Time          	patch           	min             	max             
3.00000000e+03	lowerWall	(-3.89323017e+00 -9.03044852e-01 0.00000000e+00)	(-5.71691271e-02 -1.55650073e-08 0.00000000e+00)
