/*--------------------------------*- C++ -*----------------------------------*\
  =========                 |
  \\      /  F ield         | OpenFOAM: The Open Source CFD Toolbox
   \\    /   O peration     | Website:  https://openfoam.org
    \\  /    A nd           | Version:  12
     \\/     M anipulation  |
\*---------------------------------------------------------------------------*/
FoamFile
{
    format      ascii;
    class       volScalarField;
    location    "1700";
    object      k;
}
// * * * * * * * * * * * * * * * * * * * * * * * * * * * * * * * * * * * * * //

dimensions      [0 2 -2 0 0 0 0];

internalField   nonuniform List<scalar> 
7480
(
9.132036e-06
9.5179002e-06
1.0336643e-05
1.2715215e-05
0.0017676073
0.0035112376
0.0049554752
0.0060289769
0.006762731
0.007223832
0.0074852306
0.0076042552
0.0076238165
0.0075751939
0.0074810262
0.0073574782
0.0072161383
0.0070661591
0.0069173033
0.0067705446
0.0066277867
0.0064895229
0.0063578625
0.0062347176
0.006121367
0.0060185839
0.005926648
0.0058453521
0.0057741235
0.0057121412
0.0056584214
0.0056119408
0.0055718172
0.0055373195
0.005507573
0.0054815607
0.0054582144
0.0054366434
0.0054162006
0.0053964281
0.0053769169
0.0053572963
0.0053372813
0.0053166595
0.0052953269
0.0052732445
0.0052503735
0.0052265784
0.0052017282
0.0051758392
0.0051490403
0.0051214551
0.0050931856
0.005064397
0.0050353415
0.0050062251
0.0049771165
0.0049480272
0.0049190161
0.0048901759
0.0048615487
0.0048331596
0.0048050809
0.0047773869
0.0047500821
0.0047231596
0.0046966231
0.004670433
0.0046445213
0.0046188794
0.004593547
0.0045685193
0.0045437975
0.0045194396
0.0044954209
0.0044716749
0.004448205
0.0044249963
0.0044020262
0.0043793372
0.0043569441
0.0043348203
0.0043129677
0.0042913557
0.0042699563
0.004248793
0.0042278771
0.0042072084
0.0041867667
0.0041665286
0.0041464998
0.004126674
0.0041070591
0.0040876279
0.0040684004
0.004049161
0.0040305955
0.0040107593
0.003993296
0.0039668023
8.9479434e-06
8.8222283e-06
8.706773e-06
8.6318711e-06
4.7739638e-05
0.00014931627
0.0003120775
0.00052025307
0.00075169378
0.00098615916
0.0012045662
0.0013985245
0.0015688369
0.0017226259
0.0018691852
0.0020188777
0.0021844857
0.0023870901
0.0026128822
0.0028404958
0.0030741806
0.003313232
0.0035546467
0.0037950181
0.0040309643
0.0042582362
0.0044728512
0.0046715189
0.0048516707
0.0050116138
0.0051507037
0.0052695273
0.0053698777
0.0054548863
0.0055250305
0.0055800836
0.0056199171
0.0056465663
0.0056616391
0.0056665642
0.0056629162
0.0056523667
0.0056363629
0.005615862
0.0055916777
0.0055645508
0.0055351758
0.005504151
0.0054719875
0.0054393536
0.0054068517
0.0053749047
0.0053437758
0.0053136504
0.0052846894
0.0052567785
0.0052295321
0.0052027547
0.0051764043
0.0051505468
0.005125282
0.0051006602
0.0050766346
0.0050531061
0.0050299933
0.0050072106
0.004984459
0.0049615918
0.0049386565
0.0049157732
0.0048930589
0.0048705939
0.0048484032
0.0048264894
0.0048047183
0.0047829612
0.0047611989
0.004739506
0.0047179789
0.0046966699
0.0046756141
0.004654741
0.0046339437
0.0046132054
0.0045925825
0.004572128
0.0045518888
0.0045318375
0.0045118996
0.0044920545
0.0044723344
0.0044527847
0.0044334273
0.0044141949
0.0043950953
0.0043759866
0.0043573259
0.004337814
0.0043221243
0.0042880676
8.943396e-06
8.8096734e-06
8.6758714e-06
8.5428166e-06
9.0513565e-06
1.1697504e-05
1.8654982e-05
3.1946456e-05
5.2805708e-05
8.1720881e-05
0.00011804537
0.00016044865
0.00020748415
0.00025789548
0.00031073658
0.00036554558
0.0004226409
0.00048391134
0.00054884224
0.00061893274
0.00069626274
0.00078458465
0.00088742107
0.0010087759
0.0011534124
0.0013105435
0.0014770848
0.0016535417
0.0018399549
0.0020359241
0.0022406922
0.0024535042
0.0026715685
0.0028850626
0.0030921799
0.0032899295
0.0034739472
0.0036411183
0.0037923191
0.0039272309
0.0040469711
0.004152845
0.0042443319
0.004320497
0.0043831274
0.0044339508
0.0044747002
0.0045040325
0.0045255552
0.0045413352
0.0045525825
0.0045601254
0.0045647243
0.0045672487
0.0045683911
0.0045683863
0.0045671912
0.0045648417
0.0045615533
0.0045576263
0.0045532704
0.0045485583
0.0045434448
0.0045378608
0.0045318088
0.0045252484
0.004517817
0.0045095349
0.0045005959
0.0044911959
0.0044814637
0.0044714599
0.0044612091
0.0044507292
0.0044397926
0.0044283069
0.0044163635
0.0044041026
0.0043916538
0.0043790837
0.0043664276
0.0043535591
0.00434037
0.0043268978
0.0043132576
0.0042995337
0.0042857846
0.0042719486
0.0042579352
0.00424376
0.0042294947
0.0042152095
0.0042009258
0.0041865598
0.0041720932
0.004157542
0.0041430657
0.0041280259
0.0041154944
0.0040889119
8.9432903e-06
8.809231e-06
8.6750728e-06
8.5409258e-06
8.4160164e-06
8.3326044e-06
8.3606548e-06
8.6167289e-06
9.2641992e-06
1.0526213e-05
1.2643197e-05
1.5842651e-05
2.0315127e-05
2.6203803e-05
3.3610403e-05
4.2608875e-05
5.3273882e-05
6.5755835e-05
8.0216151e-05
9.6858218e-05
0.00011593057
0.00013783118
0.00016312291
0.00019257418
0.00022725126
0.00026786024
0.00031514571
0.00037021291
0.00043469745
0.00051096402
0.00060237821
0.00071355475
0.00084291814
0.00098580576
0.0011432124
0.0013165029
0.0015063047
0.0017099896
0.0019169691
0.002122726
0.0023236121
0.0025166327
0.0026988089
0.0028687177
0.0030250069
0.003166619
0.0032942774
0.003408426
0.0035095404
0.0035961024
0.0036701959
0.0037337367
0.0037885949
0.0038367334
0.0038791716
0.0039154941
0.0039458023
0.003971773
0.0039945741
0.0040150458
0.004033512
0.0040500554
0.0040647182
0.0040776559
0.004089106
0.0040991376
0.0041076383
0.0041146307
0.0041203203
0.0041249115
0.0041285268
0.0041312115
0.0041330092
0.0041339773
0.0041338821
0.0041327351
0.0041307151
0.0041279844
0.0041246673
0.0041208322
0.0041165204
0.0041115613
0.004105897
0.0040996376
0.0040929263
0.0040858583
0.0040784967
0.0040707446
0.004062522
0.0040538934
0.0040449624
0.0040358109
0.0040264514
0.0040167849
0.0040068007
0.0039966065
0.0039862281
0.0039753693
0.0039660471
0.0039455153
8.9432985e-06
8.8092298e-06
8.6750848e-06
8.5409364e-06
8.4069711e-06
8.2738259e-06
8.1431668e-06
8.018498e-06
7.9059723e-06
7.8156227e-06
7.7621116e-06
7.7653392e-06
7.8505483e-06
8.0482271e-06
8.3942356e-06
8.9297937e-06
9.7018157e-06
1.0764376e-05
1.2180555e-05
1.4021751e-05
1.636652e-05
1.9308395e-05
2.2963531e-05
2.747847e-05
3.3049599e-05
3.9923731e-05
4.8388958e-05
5.879714e-05
7.1600176e-05
8.7397984e-05
0.00010700723
0.00013158346
0.00016239805
0.00020071157
0.00024821545
0.00030732574
0.00038145514
0.0004752479
0.00059229793
0.0007259401
0.00087562359
0.0010401628
0.0012193568
0.0014080737
0.0016000843
0.0017911983
0.0019777201
0.0021564404
0.0023251397
0.0024838329
0.0026300345
0.002763181
0.0028842774
0.0029953168
0.0030953808
0.0031835868
0.0032610219
0.0033294896
0.0033909493
0.0034465969
0.0034967203
0.0035417781
0.0035823692
0.0036192442
0.0036529331
0.0036833751
0.0037100943
0.0037339956
0.0037556446
0.0037753352
0.003793181
0.0038092352
0.0038236386
0.0038365177
0.0038478579
0.0038577093
0.003866224
0.0038735528
0.0038798097
0.0038850676
0.0038893812
0.0038925945
0.0038947428
0.0038959876
0.0038964685
0.0038962777
0.003895479
0.0038939524
0.003891661
0.0038887235
0.0038852594
0.0038813511
0.0038769981
0.0038720933
0.0038666626
0.0038608639
0.0038546703
0.0038479361
0.0038421591
0.0038264404
8.9433211e-06
8.8092621e-06
8.6751273e-06
8.5409802e-06
8.4068835e-06
8.2729074e-06
8.1391443e-06
8.0057354e-06
7.8729154e-06
7.7410741e-06
7.6108387e-06
7.4831747e-06
7.3594922e-06
7.2417535e-06
7.1325956e-06
7.0354493e-06
6.9546849e-06
6.8958071e-06
6.8657671e-06
6.8732026e-06
6.9284686e-06
7.0442388e-06
7.2364595e-06
7.5254062e-06
7.9381241e-06
8.5104508e-06
9.2883929e-06
1.03315e-05
1.171884e-05
1.3556724e-05
1.5989134e-05
1.9218327e-05
2.3520502e-05
2.9266722e-05
3.6954199e-05
4.7272375e-05
6.119497e-05
8.0103122e-05
0.00010585697
0.00014011728
0.00018485481
0.00024252387
0.00031659582
0.00041009617
0.00052525979
0.00065790449
0.00080705629
0.00097011058
0.0011440048
0.0013215737
0.0014991676
0.0016733663
0.0018414788
0.0020018337
0.0021552665
0.0022995719
0.0024330552
0.0025557891
0.0026692889
0.0027736646
0.0028674513
0.0029520565
0.0030288491
0.0030992227
0.0031636755
0.0032221127
0.0032745194
0.0033219158
0.0033652335
0.0034048277
0.003440917
0.0034737949
0.0035038754
0.0035314051
0.0035560462
0.0035782264
0.0035983715
0.0036167125
0.0036333711
0.003648438
0.0036620023
0.0036740906
0.0036847848
0.0036942117
0.0037024898
0.0037097129
0.0037159461
0.0037210914
0.0037251852
0.0037283786
0.003730785
0.0037324809
0.0037334573
0.0037336195
0.0037330473
0.0037319203
0.0037301842
0.0037277679
0.0037259009
0.0037147209
8.943353e-06
8.809299e-06
8.6751655e-06
8.5410179e-06
8.4069188e-06
8.2729308e-06
8.1391144e-06
8.00553e-06
7.8722408e-06
7.7393151e-06
7.6068293e-06
7.4748726e-06
7.3435606e-06
7.213038e-06
7.0834921e-06
6.9551682e-06
6.8283876e-06
6.7035684e-06
6.5812552e-06
6.4621508e-06
6.3471359e-06
6.2373116e-06
6.1340711e-06
6.0391854e-06
5.9549728e-06
5.8845055e-06
5.8317893e-06
5.8021258e-06
5.8026921e-06
5.8433825e-06
5.9380171e-06
6.1066216e-06
6.3786118e-06
6.796637e-06
7.4228219e-06
8.3497429e-06
9.7173541e-06
1.1738206e-05
1.4737831e-05
1.9173572e-05
2.5685366e-05
3.5169371e-05
4.8897823e-05
6.8549603e-05
9.628638e-05
0.00013422033
0.0001848191
0.0002510739
0.00033685862
0.00044292078
0.00056605202
0.00070561564
0.00085927073
0.0010229529
0.0011888092
0.0013542447
0.0015166746
0.0016740325
0.001824989
0.0019707883
0.0021091601
0.0022387357
0.0023596938
0.0024731798
0.002578332
0.0026740197
0.0027610779
0.0028407724
0.0029140326
0.0029807664
0.0030414405
0.0030968626
0.0031477845
0.0031945105
0.0032368648
0.0032752992
0.0033104554
0.0033426996
0.0033722249
0.0033992438
0.0034239885
0.0034463199
0.0034665598
0.0034850029
0.0035018136
0.0035171073
0.0035309532
0.0035433891
0.0035545054
0.0035644173
0.0035732203
0.0035809916
0.0035877306
0.0035933935
0.0035981046
0.0036020365
0.0036051194
0.0036073226
0.0036097716
0.0036031893
8.9433951e-06
8.8093465e-06
8.6752167e-06
8.5410719e-06
8.4069748e-06
8.2729872e-06
8.139169e-06
8.0055791e-06
7.8722768e-06
7.739322e-06
7.6067743e-06
7.4746938e-06
7.3431404e-06
7.2121761e-06
7.0818629e-06
6.952265e-06
6.8234503e-06
6.6954914e-06
6.5684682e-06
6.442471e-06
6.317603e-06
6.1939832e-06
6.0717523e-06
5.9510796e-06
5.8321742e-06
5.7153e-06
5.6007908e-06
5.4890752e-06
5.3807173e-06
5.2764755e-06
5.177387e-06
5.0849227e-06
5.0012179e-06
4.9293714e-06
4.873929e-06
4.8417372e-06
4.8433629e-06
4.8954056e-06
5.0249737e-06
5.2758833e-06
5.7176405e-06
6.4621609e-06
7.6909749e-06
9.6928321e-06
1.2916137e-05
1.8015545e-05
2.5933192e-05
3.8005917e-05
5.6117463e-05
8.2546362e-05
0.00011955654
0.00016977014
0.00023636181
0.00032384201
0.00042946959
0.00055122533
0.0006881737
0.00083776415
0.00099521453
0.0011515932
0.0013065423
0.0014584166
0.0016059475
0.0017488318
0.0018875975
0.0020197218
0.0021442569
0.002261515
0.0023721127
0.0024732194
0.0025659141
0.0026514052
0.0027304455
0.0028029853
0.0028690581
0.0029293318
0.0029845796
0.0030351555
0.0030813927
0.0031237683
0.003162743
0.0031982626
0.0032306279
0.0032602813
0.0032875219
0.0033125293
0.0033354455
0.0033562382
0.003375161
0.0033924515
0.003408235
0.0034226071
0.0034356141
0.0034473203
0.0034578236
0.0034672695
0.0034755884
0.0034827805
0.0034900068
0.0034882151
8.9434439e-06
8.8094018e-06
8.6752766e-06
8.5411347e-06
8.407039e-06
8.2730509e-06
8.139231e-06
8.0056391e-06
7.8723347e-06
7.7393774e-06
7.6068266e-06
7.4747413e-06
7.3431802e-06
7.2122012e-06
7.0818613e-06
6.9522168e-06
6.8233229e-06
6.6952339e-06
6.5680033e-06
6.4416838e-06
6.3163278e-06
6.191987e-06
6.0687129e-06
5.9465573e-06
5.8255733e-06
5.7058164e-06
5.5873456e-06
5.470225e-06
5.3545262e-06
5.2403329e-06
5.1277459e-06
5.0168934e-06
4.907946e-06
4.8011361e-06
4.6967887e-06
4.5953742e-06
4.4975967e-06
4.404536e-06
4.3179276e-06
4.2406032e-06
4.1771288e-06
4.1350476e-06
4.1270753e-06
4.1749219e-06
4.3162215e-06
4.6154582e-06
5.1823644e-06
6.2041461e-06
7.9970657e-06
1.1066813e-05
1.6169582e-05
2.4411006e-05
3.7372175e-05
5.7382863e-05
8.6825357e-05
0.00012818537
0.0001843741
0.00025927701
0.00035530347
0.00046717786
0.00059367753
0.000733016
0.00088147447
0.0010325687
0.0011806485
0.0013269161
0.0014702458
0.0016095002
0.0017461345
0.0018774104
0.0020020401
0.0021200375
0.0022319248
0.0023355749
0.002431062
0.0025193124
0.0026008837
0.002675639
0.0027440546
0.0028068795
0.0028647077
0.0029175322
0.0029657198
0.0030098825
0.0030504319
0.0030876476
0.0031218453
0.0031531179
0.0031817149
0.0032079538
0.0032320814
0.0032542555
0.0032745144
0.0032929281
0.0033097811
0.0033252336
0.0033392336
0.0033518425
0.0033643838
0.0033675831
8.9434979e-06
8.8094627e-06
8.6753424e-06
8.5412036e-06
8.4071092e-06
8.2731211e-06
8.1393003e-06
8.0057069e-06
7.8724007e-06
7.7394413e-06
7.6068883e-06
7.4748005e-06
7.3432366e-06
7.2122545e-06
7.081911e-06
6.9522623e-06
6.8233629e-06
6.6952665e-06
6.5680252e-06
6.44169e-06
6.3163105e-06
6.1919345e-06
6.0686081e-06
5.9463759e-06
5.8252808e-06
5.7053644e-06
5.5866672e-06
5.4692279e-06
5.3530843e-06
5.2382731e-06
5.1248302e-06
5.0127919e-06
4.9021954e-06
4.7930803e-06
4.6854905e-06
4.5794769e-06
4.4751032e-06
4.3724541e-06
4.2716518e-06
4.1728827e-06
4.0764365e-06
3.9827802e-06
3.8926917e-06
3.807498e-06
3.7295266e-06
3.6628725e-06
3.6147321e-06
3.5979635e-06
3.635864e-06
3.7707987e-06
4.0786841e-06
4.6944228e-06
5.8563791e-06
7.9846067e-06
1.1742838e-05
1.8136031e-05
2.8632605e-05
4.5392108e-05
7.1229351e-05
0.00010871137
0.00016064626
0.00023078094
0.0003213362
0.00042993359
0.00055208678
0.00068616849
0.00082867828
0.0009750367
0.0011173887
0.0012584969
0.0013973636
0.0015328153
0.0016662291
0.0017951131
0.0019181091
0.0020350209
0.0021461049
0.0022490133
0.0023442507
0.0024325722
0.0025143796
0.002589419
0.0026582317
0.0027214509
0.0027794225
0.0028325414
0.0028813494
0.0029260936
0.0029670066
0.0030045125
0.0030390161
0.0030707639
0.0030998884
0.003126518
0.0031509817
0.003173518
0.0031941746
0.0032129141
0.0032314091
0.0032396435
8.943556e-06
8.8095282e-06
8.6754131e-06
8.5412775e-06
8.4071848e-06
8.273197e-06
8.1393754e-06
8.0057805e-06
7.8724724e-06
7.7395108e-06
7.6069553e-06
7.4748651e-06
7.3432987e-06
7.212314e-06
7.0819679e-06
6.9523165e-06
6.8234145e-06
6.6953153e-06
6.5680711e-06
6.4417329e-06
6.31635e-06
6.19197e-06
6.0686389e-06
5.9464008e-06
5.8252982e-06
5.7053719e-06
5.5866611e-06
5.4692031e-06
5.3530335e-06
5.238186e-06
5.1246924e-06
5.0125829e-06
4.9018861e-06
4.792629e-06
4.6848373e-06
4.578535e-06
4.4737452e-06
4.3704905e-06
4.2687936e-06
4.1686796e-06
4.0701782e-06
3.9733273e-06
3.878181e-06
3.7848235e-06
3.6933958e-06
3.6041421e-06
3.5174915e-06
3.4342142e-06
3.3557213e-06
3.2846401e-06
3.2258567e-06
3.1884117e-06
3.1892139e-06
3.2606041e-06
3.4633663e-06
3.9102733e-06
4.8088871e-06
6.5382585e-06
9.7509808e-06
1.5469096e-05
2.5205429e-05
4.1209848e-05
6.6406785e-05
0.00010386415
0.00015641985
0.00022802242
0.00031908895
0.00042885988
0.00055101264
0.00068329579
0.00082224627
0.00096397403
0.0011019376
0.0012382556
0.0013727468
0.0015045952
0.0016345269
0.0017599698
0.0018798427
0.0019941131
0.0021024418
0.0022027805
0.0022960045
0.00238253
0.0024622778
0.0025356211
0.0026031624
0.0026652083
0.0027219994
0.0027740548
0.0028218745
0.0028657838
0.0029060868
0.0029430167
0.0029769078
0.0030081034
0.0030368149
0.0030629642
0.0030886036
0.0031028829
8.9436175e-06
8.8095972e-06
8.6754876e-06
8.5413554e-06
8.4072646e-06
8.2732772e-06
8.139455e-06
8.0058588e-06
7.8725488e-06
7.7395851e-06
7.6070273e-06
7.4749346e-06
7.3433657e-06
7.2123783e-06
7.0820295e-06
6.9523753e-06
6.8234704e-06
6.6953683e-06
6.5681213e-06
6.4417801e-06
6.3163942e-06
6.1920113e-06
6.0686773e-06
5.9464363e-06
5.8253309e-06
5.7054017e-06
5.586688e-06
5.4692271e-06
5.3530543e-06
5.2382031e-06
5.1247052e-06
5.0125904e-06
4.9018867e-06
4.7926204e-06
4.684816e-06
4.5784959e-06
4.4736807e-06
4.3703889e-06
4.2686376e-06
4.168442e-06
4.0698165e-06
3.9727735e-06
3.8773249e-06
3.7834823e-06
3.691259e-06
3.6006727e-06
3.5117502e-06
3.4245362e-06
3.3391109e-06
3.2556245e-06
3.1743621e-06
3.0958623e-06
3.0211514e-06
2.9522262e-06
2.89298e-06
2.8509473e-06
2.8407558e-06
2.8912849e-06
3.0596919e-06
3.456981e-06
4.2951712e-06
5.9749514e-06
9.2054678e-06
1.5149495e-05
2.5536259e-05
4.2975384e-05
7.0584297e-05
0.00011184447
0.00016988353
0.00024769836
0.00034437087
0.00045871991
0.00058361513
0.00071572555
0.00085218408
0.00098947947
0.0011229213
0.0012551456
0.0013854204
0.001514086
0.0016400208
0.0017612593
0.0018772088
0.0019878887
0.0020915066
0.0021878928
0.0022775361
0.0023605508
0.0024369942
0.0025073433
0.0025720394
0.002631409
0.002685926
0.002735943
0.0027817807
0.002823882
0.0028626391
0.0028979793
0.0029323617
0.0029543718
8.9436819e-06
8.809669e-06
8.675565e-06
8.5414366e-06
8.4073478e-06
8.2733611e-06
8.1395384e-06
8.005941e-06
7.8726293e-06
7.7396636e-06
7.6071035e-06
7.4750083e-06
7.3434367e-06
7.2124466e-06
7.082095e-06
6.9524379e-06
6.82353e-06
6.695425e-06
6.568175e-06
6.4418309e-06
6.3164421e-06
6.1920563e-06
6.0687193e-06
5.9464756e-06
5.8253674e-06
5.7054357e-06
5.5867196e-06
5.4692563e-06
5.3530812e-06
5.238228e-06
5.1247281e-06
5.0126114e-06
4.9019058e-06
4.7926377e-06
4.6848314e-06
4.5785092e-06
4.4736915e-06
4.3703967e-06
4.2686415e-06
4.1684405e-06
4.0698071e-06
3.9727524e-06
3.8772857e-06
3.7834146e-06
3.6911452e-06
3.6004824e-06
3.51143e-06
3.4239913e-06
3.3381699e-06
3.2539719e-06
3.1714099e-06
3.09051e-06
3.0113253e-06
2.9339648e-06
2.8586516e-06
2.7858333e-06
2.7164042e-06
2.6521707e-06
2.596815e-06
2.5578018e-06
2.5502126e-06
2.6049823e-06
2.785638e-06
3.2212796e-06
4.1674043e-06
6.1218119e-06
9.9693243e-06
1.7176921e-05
2.9957324e-05
5.1392808e-05
8.4926894e-05
0.00013436794
0.00020332936
0.00029112018
0.00039696465
0.00051755871
0.00064501226
0.00077689705
0.00091098954
0.0010433154
0.0011726933
0.0013010721
0.001427756
0.0015529026
0.0016742025
0.0017905801
0.0019019683
0.0020073058
0.0021053923
0.0021966868
0.0022814201
0.0023595804
0.0024316238
0.002497925
0.0025587548
0.0026146013
0.0026659764
0.0027128473
0.0027580625
0.00279006
8.9437486e-06
8.8097432e-06
8.6756449e-06
8.5415203e-06
8.4074337e-06
8.2734479e-06
8.1396251e-06
8.0060266e-06
7.8727133e-06
7.7397455e-06
7.6071831e-06
7.4750854e-06
7.3435112e-06
7.2125183e-06
7.0821639e-06
6.9525038e-06
6.823593e-06
6.6954849e-06
6.5682319e-06
6.4418848e-06
6.3164929e-06
6.192104e-06
6.0687641e-06
5.9465174e-06
5.8254065e-06
5.7054721e-06
5.5867534e-06
5.4692877e-06
5.3531104e-06
5.2382549e-06
5.1247531e-06
5.0126346e-06
4.9019274e-06
4.7926578e-06
4.6848501e-06
4.5785265e-06
4.4737076e-06
4.3704116e-06
4.2686552e-06
4.1684531e-06
4.0698185e-06
3.9727624e-06
3.877294e-06
3.7834206e-06
3.6911481e-06
3.6004805e-06
3.5114204e-06
3.4239689e-06
3.3381252e-06
3.2538875e-06
3.1712531e-06
3.0902188e-06
3.0107813e-06
2.9329395e-06
2.8566974e-06
2.7820714e-06
2.7091033e-06
2.6378886e-06
2.5686367e-06
2.5017935e-06
2.4382919e-06
2.3800967e-06
2.3313767e-06
2.3009562e-06
2.3074428e-06
2.390783e-06
2.6360298e-06
3.2225446e-06
4.518187e-06
7.2320333e-06
1.2612661e-05
2.2686366e-05
4.0496949e-05
6.9524728e-05
0.00011355898
0.00017696163
0.00025972622
0.00036061122
0.0004771121
0.00060215159
0.00073073749
0.00086154464
0.00099212809
0.0011195151
0.0012454835
0.0013699615
0.0014936584
0.001614157
0.0017300887
0.0018412559
0.0019468681
0.002045304
0.0021370495
0.0022223402
0.0023010699
0.0023736314
0.0024405397
0.0025017178
0.0025602806
0.002605001
8.9438175e-06
8.8098194e-06
8.6757268e-06
8.5416062e-06
8.407522e-06
8.2735373e-06
8.1397143e-06
8.006115e-06
7.8728002e-06
7.7398305e-06
7.6072658e-06
7.4751657e-06
7.3435888e-06
7.2125932e-06
7.0822358e-06
6.9525728e-06
6.8236589e-06
6.6955477e-06
6.5682916e-06
6.4419414e-06
6.3165464e-06
6.1921544e-06
6.0688114e-06
5.9465617e-06
5.8254479e-06
5.7055107e-06
5.5867894e-06
5.4693212e-06
5.3531415e-06
5.2382839e-06
5.12478e-06
5.0126596e-06
4.9019508e-06
4.7926796e-06
4.6848704e-06
4.5785455e-06
4.4737253e-06
4.3704282e-06
4.2686707e-06
4.1684677e-06
4.0698321e-06
3.9727751e-06
3.8773059e-06
3.7834317e-06
3.6911583e-06
3.6004899e-06
3.5114288e-06
3.423976e-06
3.3381306e-06
3.2538902e-06
3.1712515e-06
3.0902096e-06
3.0107581e-06
2.9328896e-06
2.856596e-06
2.7818687e-06
2.7086996e-06
2.6370826e-06
2.5670172e-06
2.4985162e-06
2.4316211e-06
2.3664354e-06
2.3031995e-06
2.2424492e-06
2.1853559e-06
2.134506e-06
2.0956219e-06
2.0813294e-06
2.1196294e-06
2.2727857e-06
2.6779095e-06
3.6319573e-06
5.7504229e-06
1.0172732e-05
1.8809997e-05
3.4725267e-05
6.1582681e-05
0.00010326791
0.00016428491
0.00024514445
0.00034408471
0.0004582951
0.00058203272
0.00070845337
0.00083648713
0.0009648312
0.001090216
0.001213732
0.0013361377
0.0014581086
0.0015772041
0.0016919863
0.0018021841
0.0019069903
0.0020047477
0.0020958991
0.002180769
0.002258862
0.0023333387
0.0023938327
8.9438882e-06
8.8098973e-06
8.6758104e-06
8.5416938e-06
8.4076121e-06
8.2736286e-06
8.1398059e-06
8.0062058e-06
7.8728896e-06
7.7399181e-06
7.6073512e-06
7.4752487e-06
7.3436691e-06
7.2126707e-06
7.0823104e-06
6.9526444e-06
6.8237274e-06
6.6956131e-06
6.5683538e-06
6.4420004e-06
6.3166022e-06
6.192207e-06
6.0688609e-06
5.9466082e-06
5.8254914e-06
5.7055514e-06
5.5868274e-06
5.4693566e-06
5.3531745e-06
5.2383146e-06
5.1248086e-06
5.0126862e-06
4.9019756e-06
4.7927027e-06
4.684892e-06
4.5785657e-06
4.4737442e-06
4.3704459e-06
4.2686874e-06
4.1684833e-06
4.0698468e-06
3.9727889e-06
3.8773188e-06
3.7834438e-06
3.6911697e-06
3.6005005e-06
3.5114388e-06
3.4239853e-06
3.3381392e-06
3.2538982e-06
3.1712588e-06
3.0902159e-06
3.0107632e-06
2.9328929e-06
2.8565962e-06
2.7818631e-06
2.7086828e-06
2.6370434e-06
2.5669324e-06
2.4983373e-06
2.4312466e-06
2.3656512e-06
2.3015497e-06
2.2389579e-06
2.1779298e-06
2.1186069e-06
2.0613295e-06
2.0068845e-06
1.9570755e-06
1.916056e-06
1.893381e-06
1.9110462e-06
2.0202791e-06
2.3387032e-06
3.1307e-06
4.976174e-06
9.0002046e-06
1.7145351e-05
3.2587216e-05
5.9238547e-05
0.00010115748
0.00016287755
0.00024461495
0.0003441841
0.00045804821
0.00058112104
0.0007058983
0.00083154592
0.00095744257
0.0010806545
0.0012019075
0.0013224905
0.0014425807
0.001559832
0.001672976
0.001781614
0.0018848204
0.0019808324
0.0020728785
0.0021518553
8.9439607e-06
8.8099766e-06
8.6758954e-06
8.5417829e-06
8.4077039e-06
8.2737218e-06
8.1398993e-06
8.0062987e-06
7.8729813e-06
7.740008e-06
7.607439e-06
7.4753341e-06
7.3437519e-06
7.2127507e-06
7.0823875e-06
6.9527184e-06
6.8237983e-06
6.6956808e-06
6.5684183e-06
6.4420616e-06
6.3166602e-06
6.1922618e-06
6.0689125e-06
5.9466566e-06
5.8255368e-06
5.7055939e-06
5.5868671e-06
5.4693937e-06
5.3532091e-06
5.2383468e-06
5.1248386e-06
5.0127143e-06
4.9020018e-06
4.7927272e-06
4.6849149e-06
4.5785872e-06
4.4737643e-06
4.3704647e-06
4.268705e-06
4.1684999e-06
4.0698624e-06
3.9728035e-06
3.8773325e-06
3.7834568e-06
3.6911819e-06
3.600512e-06
3.5114495e-06
3.4239953e-06
3.3381486e-06
3.253907e-06
3.171267e-06
3.0902236e-06
3.0107703e-06
2.9328995e-06
2.8566021e-06
2.7818683e-06
2.7086871e-06
2.6370461e-06
2.5669323e-06
2.4983318e-06
2.4312301e-06
2.3656116e-06
2.3014608e-06
2.2387625e-06
2.1775031e-06
2.1176735e-06
2.0592763e-06
2.0023409e-06
1.9469597e-06
1.8933742e-06
1.8421769e-06
1.7947829e-06
1.7545942e-06
1.7297782e-06
1.7398135e-06
1.8320091e-06
2.1195796e-06
2.8668932e-06
4.6746793e-06
8.74903e-06
1.7211718e-05
3.351887e-05
6.1862183e-05
0.00010651621
0.0001714917
0.0002566792
0.00035892548
0.00047379442
0.00059640244
0.00071973364
0.00084331391
0.00096673056
0.0010877291
0.0012068686
0.0013258733
0.0014439679
0.0015591447
0.0016700799
0.0017789402
0.0018771699
8.9440347e-06
8.8100573e-06
8.6759816e-06
8.5418733e-06
8.407797e-06
8.2738164e-06
8.1399944e-06
8.0063934e-06
7.8730749e-06
7.7401e-06
7.607529e-06
7.4754216e-06
7.3438369e-06
7.2128329e-06
7.0824667e-06
6.9527946e-06
6.8238713e-06
6.6957506e-06
6.5684848e-06
6.4421249e-06
6.3167202e-06
6.1923185e-06
6.0689659e-06
5.9467069e-06
5.825584e-06
5.7056381e-06
5.5869085e-06
5.4694324e-06
5.3532452e-06
5.2383805e-06
5.1248701e-06
5.0127437e-06
4.9020292e-06
4.7927529e-06
4.684939e-06
4.5786097e-06
4.4737854e-06
4.3704845e-06
4.2687236e-06
4.1685174e-06
4.0698788e-06
3.972819e-06
3.8773471e-06
3.7834704e-06
3.6911947e-06
3.600524e-06
3.5114608e-06
3.424006e-06
3.3381586e-06
3.2539164e-06
3.1712758e-06
3.0902318e-06
3.0107779e-06
2.9329065e-06
2.8566087e-06
2.7818744e-06
2.7086927e-06
2.6370512e-06
2.5669369e-06
2.4983358e-06
2.4312331e-06
2.3656131e-06
2.3014594e-06
2.238755e-06
2.1774824e-06
2.1176238e-06
2.0591614e-06
2.002079e-06
1.9463631e-06
1.8920093e-06
1.8390343e-06
1.7875061e-06
1.737619e-06
1.6898778e-06
1.6455415e-06
1.6077614e-06
1.584419e-06
1.5950671e-06
1.6890044e-06
1.9889164e-06
2.7917404e-06
4.7869205e-06
9.3779108e-06
1.9048911e-05
3.7666464e-05
6.9742924e-05
0.00011977057
0.00019050862
0.00028107678
0.00038722403
0.00050367232
0.00062562294
0.00074747752
0.00086917417
0.00099014718
0.0011089106
0.0012261914
0.0013435958
0.0014617957
0.0015740281
8.9441102e-06
8.8101392e-06
8.676069e-06
8.5419647e-06
8.4078913e-06
8.2739123e-06
8.1400909e-06
8.0064896e-06
7.8731702e-06
7.7401937e-06
7.6076208e-06
7.4755112e-06
7.3439239e-06
7.2129171e-06
7.082548e-06
6.9528728e-06
6.8239464e-06
6.6958224e-06
6.5685533e-06
6.4421901e-06
6.316782e-06
6.192377e-06
6.0690211e-06
5.9467588e-06
5.8256328e-06
5.7056839e-06
5.5869514e-06
5.4694725e-06
5.3532827e-06
5.2384156e-06
5.1249028e-06
5.0127742e-06
4.9020578e-06
4.7927797e-06
4.684964e-06
4.5786332e-06
4.4738074e-06
4.3705052e-06
4.268743e-06
4.1685357e-06
4.069896e-06
3.9728351e-06
3.8773623e-06
3.7834847e-06
3.6912081e-06
3.6005367e-06
3.5114727e-06
3.4240171e-06
3.338169e-06
3.2539262e-06
3.1712849e-06
3.0902403e-06
3.0107859e-06
2.932914e-06
2.8566156e-06
2.7818809e-06
2.7086986e-06
2.6370567e-06
2.566942e-06
2.4983405e-06
2.4312375e-06
2.365617e-06
2.3014628e-06
2.2387578e-06
2.1774843e-06
2.1176238e-06
2.0591576e-06
2.0020667e-06
1.9463315e-06
1.8919328e-06
1.8388521e-06
1.7870741e-06
1.7365903e-06
1.6874118e-06
1.6395967e-06
1.5933244e-06
1.5490844e-06
1.5081497e-06
1.4738337e-06
1.454755e-06
1.4731622e-06
1.5872379e-06
1.9470324e-06
2.9275735e-06
5.4020446e-06
1.1126555e-05
2.3176123e-05
4.5909029e-05
8.4098846e-05
0.00014226408
0.00022081933
0.00031790095
0.00042804399
0.00054600782
0.00066694105
0.00078721155
0.00090726835
0.0010255534
0.0011444194
0.0012604
8.944187e-06
8.8102223e-06
8.6761573e-06
8.5420572e-06
8.4079866e-06
8.2740093e-06
8.1401887e-06
8.0065873e-06
7.873267e-06
7.7402892e-06
7.6077144e-06
7.4756025e-06
7.3440127e-06
7.2130032e-06
7.0826312e-06
6.9529529e-06
6.8240232e-06
6.695896e-06
6.5686236e-06
6.442257e-06
6.3168456e-06
6.1924371e-06
6.0690779e-06
5.9468124e-06
5.8256831e-06
5.7057312e-06
5.5869957e-06
5.469514e-06
5.3533215e-06
5.2384518e-06
5.1249367e-06
5.012806e-06
4.9020875e-06
4.7928075e-06
4.6849901e-06
4.5786576e-06
4.4738303e-06
4.3705267e-06
4.2687633e-06
4.1685547e-06
4.0699139e-06
3.972852e-06
3.8773781e-06
3.7834996e-06
3.6912221e-06
3.6005498e-06
3.5114851e-06
3.4240287e-06
3.3381799e-06
3.2539364e-06
3.1712945e-06
3.0902493e-06
3.0107943e-06
2.9329218e-06
2.8566229e-06
2.7818876e-06
2.7087049e-06
2.6370625e-06
2.5669474e-06
2.4983455e-06
2.431242e-06
2.3656212e-06
2.3014667e-06
2.2387613e-06
2.1774874e-06
2.1176266e-06
2.05916e-06
2.0020684e-06
1.9463319e-06
1.8919305e-06
1.8388437e-06
1.7870511e-06
1.7365322e-06
1.6872676e-06
1.6392407e-06
1.5924418e-06
1.5468806e-06
1.5026169e-06
1.4598416e-06
1.4190971e-06
1.3818484e-06
1.352058e-06
1.3404371e-06
1.3757995e-06
1.5360409e-06
2.0279664e-06
3.3794179e-06
6.7921733e-06
1.4600716e-05
3.0708469e-05
5.986975e-05
0.00010704044
0.00017510891
0.00026297533
0.00036685186
0.00048046539
0.00059965767
0.00071879805
0.00083974964
0.00095726118
8.9442652e-06
8.8103064e-06
8.6762465e-06
8.5421504e-06
8.4080827e-06
8.2741073e-06
8.1402876e-06
8.0066862e-06
7.8733652e-06
7.740386e-06
7.6078095e-06
7.4756955e-06
7.3441032e-06
7.213091e-06
7.082716e-06
6.9530347e-06
6.8241018e-06
6.6959714e-06
6.5686956e-06
6.4423256e-06
6.3169107e-06
6.1924989e-06
6.0691363e-06
5.9468674e-06
5.8257349e-06
5.7057799e-06
5.5870413e-06
5.4695567e-06
5.3533615e-06
5.2384893e-06
5.1249718e-06
5.0128387e-06
4.9021182e-06
4.7928362e-06
4.685017e-06
4.5786829e-06
4.473854e-06
4.370549e-06
4.2687842e-06
4.1685743e-06
4.0699324e-06
3.9728694e-06
3.8773944e-06
3.783515e-06
3.6912366e-06
3.6005634e-06
3.5114979e-06
3.4240407e-06
3.3381912e-06
3.253947e-06
3.1713044e-06
3.0902585e-06
3.0108029e-06
2.9329298e-06
2.8566304e-06
2.7818946e-06
2.7087114e-06
2.6370685e-06
2.5669529e-06
2.4983506e-06
2.4312467e-06
2.3656256e-06
2.3014707e-06
2.238765e-06
2.1774908e-06
2.1176297e-06
2.0591628e-06
2.0020709e-06
1.9463341e-06
1.8919323e-06
1.838845e-06
1.7870514e-06
1.7365304e-06
1.6872608e-06
1.6392214e-06
1.5923912e-06
1.5467503e-06
1.5022819e-06
1.4589769e-06
1.4168485e-06
1.3759693e-06
1.3365746e-06
1.2993515e-06
1.2662262e-06
1.2426014e-06
1.2436025e-06
1.3116348e-06
1.5647039e-06
2.3229842e-06
4.3994814e-06
9.5462134e-06
2.1001532e-05
4.3446862e-05
8.1937597e-05
0.00014098314
0.00022049447
0.00031816225
0.00042748078
0.00054587779
0.00066441496
8.9443446e-06
8.8103915e-06
8.6763365e-06
8.5422444e-06
8.4081797e-06
8.2742062e-06
8.1403874e-06
8.0067861e-06
7.8734645e-06
7.7404842e-06
7.6079059e-06
7.4757899e-06
7.3441952e-06
7.2131803e-06
7.0828025e-06
6.9531181e-06
6.824182e-06
6.6960483e-06
6.5687691e-06
6.4423957e-06
6.3169774e-06
6.1925621e-06
6.0691961e-06
5.9469239e-06
5.8257881e-06
5.7058298e-06
5.5870883e-06
5.4696007e-06
5.3534027e-06
5.2385278e-06
5.1250078e-06
5.0128725e-06
4.9021498e-06
4.7928659e-06
4.6850448e-06
4.5787089e-06
4.4738785e-06
4.3705719e-06
4.2688058e-06
4.1685946e-06
4.0699515e-06
3.9728873e-06
3.8774113e-06
3.7835309e-06
3.6912516e-06
3.6005775e-06
3.5115111e-06
3.4240531e-06
3.3382028e-06
3.2539579e-06
3.1713146e-06
3.0902681e-06
3.0108118e-06
2.9329381e-06
2.8566381e-06
2.7819018e-06
2.708718e-06
2.6370747e-06
2.5669586e-06
2.4983559e-06
2.4312516e-06
2.3656301e-06
2.3014748e-06
2.2387687e-06
2.1774942e-06