/*--------------------------------*- C++ -*----------------------------------*\
  =========                 |
  \\      /  F ield         | OpenFOAM: The Open Source CFD Toolbox
   \\    /   O peration     | Website:  https://openfoam.org
    \\  /    A nd           | Version:  12
     \\/     M anipulation  |
\*---------------------------------------------------------------------------*/
FoamFile
{
    format      ascii;
    class       volVectorField;
    location    "1700";
    object      U;
}
// * * * * * * * * * * * * * * * * * * * * * * * * * * * * * * * * * * * * * //

dimensions      [0 1 -1 0 0 0 0];

internalField   nonuniform List<vector> 
7480
(
(0.98222963 0.00075730628 0)
(0.96970444 0.001402071 0)
(0.9564714 0.0017614038 0)
(0.94236612 0.0020803788 0)
(0.92839474 0.0024834229 0)
(0.91491901 0.0027336925 0)
(0.90196217 0.0027630597 0)
(0.88951191 0.0026980544 0)
(0.87747538 0.0025891564 0)
(0.86575762 0.0024382176 0)
(0.85415774 0.0022628661 0)
(0.8425873 0.0020983333 0)
(0.83101395 0.0019450611 0)
(0.81944241 0.0018010997 0)
(0.80789614 0.0016650954 0)
(0.79641731 0.0015347782 0)
(0.78507895 0.0014031083 0)
(0.77403141 0.0012725762 0)
(0.76315527 0.0011558738 0)
(0.75262494 0.0010453593 0)
(0.7425054 0.00093927617 0)
(0.73285169 0.00083781831 0)
(0.72371991 0.00074153398 0)
(0.7151583 0.00065130267 0)
(0.70720964 0.00056640999 0)
(0.69991374 0.0004870129 0)
(0.69328246 0.00041477095 0)
(0.68730148 0.00034950228 0)
(0.68194411 0.00029114589 0)
(0.67717415 0.00024064427 0)
(0.67294478 0.00019786061 0)
(0.66920588 0.00016161961 0)
(0.66591809 0.00013082638 0)
(0.66303827 0.00010540136 0)
(0.66050972 8.4506024e-05 0)
(0.65827007 6.8155887e-05 0)
(0.65625712 5.6658675e-05 0)
(0.65441375 4.9150638e-05 0)
(0.65270377 4.3658427e-05 0)
(0.65110034 4.0223829e-05 0)
(0.64956811 3.9286197e-05 0)
(0.6480706 4.0042064e-05 0)
(0.6465802 4.2003726e-05 0)
(0.64507744 4.4646153e-05 0)
(0.64355283 4.7394758e-05 0)
(0.64199956 5.0388391e-05 0)
(0.64040749 5.4148488e-05 0)
(0.63875478 5.8535832e-05 0)
(0.63702523 6.2814914e-05 0)
(0.63521814 6.6454726e-05 0)
(0.63334046 6.9566158e-05 0)
(0.63139574 7.2258055e-05 0)
(0.62938692 7.4309225e-05 0)
(0.62732626 7.5319827e-05 0)
(0.62523447 7.528817e-05 0)
(0.62312708 7.4688813e-05 0)
(0.62100879 7.3763319e-05 0)
(0.61888076 7.2555479e-05 0)
(0.61674981 7.1003074e-05 0)
(0.61462386 6.9314712e-05 0)
(0.61250355 6.7703799e-05 0)
(0.61038983 6.5925968e-05 0)
(0.60829071 6.3877074e-05 0)
(0.60621384 6.1746255e-05 0)
(0.60415886 5.9722665e-05 0)
(0.60212619 5.7595842e-05 0)
(0.60012044 5.5423919e-05 0)
(0.59813934 5.3502145e-05 0)
(0.5961761 5.1750307e-05 0)
(0.59423007 4.9988207e-05 0)
(0.59230451 4.8264452e-05 0)
(0.59039711 4.6701647e-05 0)
(0.58850789 4.504688e-05 0)
(0.58664328 4.3338626e-05 0)
(0.5848014 4.1839476e-05 0)
(0.5829775 4.0364909e-05 0)
(0.58117372 3.8891278e-05 0)
(0.57938761 3.7611684e-05 0)
(0.57761582 3.6334956e-05 0)
(0.57586271 3.5002968e-05 0)
(0.57412879 3.3794072e-05 0)
(0.57241205 3.2583788e-05 0)
(0.5707148 3.1378075e-05 0)
(0.56903417 3.0324673e-05 0)
(0.56736702 2.9280615e-05 0)
(0.56571559 2.8241218e-05 0)
(0.56408019 2.7258121e-05 0)
(0.56246112 2.6275591e-05 0)
(0.56085746 2.5366815e-05 0)
(0.55926742 2.4485163e-05 0)
(0.55769158 2.3629451e-05 0)
(0.5561286 2.2830598e-05 0)
(0.55457918 2.2029665e-05 0)
(0.55304142 2.1290881e-05 0)
(0.55151779 2.0599589e-05 0)
(0.54998736 1.9973556e-05 0)
(0.54851834 1.9136948e-05 0)
(0.54691785 5.0007086e-05 0)
(0.54552178 9.4084087e-05 0)
(0.54341092 9.0482146e-05 0)
(0.99620132 0.0027562419 0)
(0.99709622 0.003844894 0)
(0.99771606 0.0042242814 0)
(0.99795753 0.0041369318 0)
(0.99738127 0.0039218872 0)
(0.99593846 0.0035839952 0)
(0.99370038 0.003269241 0)
(0.99071665 0.0030124696 0)
(0.98708044 0.0028105249 0)
(0.98288102 0.0026633496 0)
(0.97829576 0.0025757157 0)
(0.97341854 0.0025246938 0)
(0.96829162 0.0024906528 0)
(0.96292757 0.0024611587 0)
(0.95732899 0.0024295393 0)
(0.95149043 0.0023912123 0)
(0.94540497 0.0023431002 0)
(0.93900815 0.0022853029 0)
(0.93241124 0.0022112386 0)
(0.92550137 0.0021177029 0)
(0.91839671 0.0020086603 0)
(0.91114167 0.0018879939 0)
(0.90377182 0.0017584899 0)
(0.89632233 0.0016234614 0)
(0.88883905 0.0014849384 0)
(0.88136322 0.0013471315 0)
(0.87393479 0.0012142684 0)
(0.86659093 0.0010873833 0)
(0.85937147 0.00096794514 0)
(0.85231847 0.00085729388 0)
(0.84547159 0.0007564649 0)
(0.83886897 0.00066432634 0)
(0.83255805 0.00058313954 0)
(0.82649285 0.00051560696 0)
(0.82067062 0.00045847879 0)
(0.81509824 0.00040941341 0)
(0.80978171 0.00036812524 0)
(0.80472486 0.00033415956 0)
(0.79991847 0.00030455077 0)
(0.79535033 0.00027921194 0)
(0.79100063 0.00025948959 0)
(0.78684593 0.00024400428 0)
(0.78286445 0.00023189193 0)
(0.7790385 0.00022202082 0)
(0.77535852 0.0002131286 0)
(0.77181298 0.00020552909 0)
(0.76839246 0.0002012783 0)
(0.76502203 0.00019996252 0)
(0.76168458 0.00019882022 0)
(0.75839052 0.0001963698 0)
(0.75515318 0.0001933724 0)
(0.75197459 0.00019042604 0)
(0.74884714 0.00018720243 0)
(0.74576543 0.00018292079 0)
(0.74273448 0.00017769596 0)
(0.73975384 0.00017262935 0)
(0.73680764 0.00016785917 0)
(0.73388515 0.00016296484 0)
(0.73098783 0.00015762551 0)
(0.72812345 0.00015222284 0)
(0.72529453 0.00014712225 0)
(0.72250056 0.00014181487 0)
(0.71974545 0.00013617679 0)
(0.71703424 0.00013061082 0)
(0.71436543 0.00012541633 0)
(0.71173685 0.00012017827 0)
(0.70914685 0.00011506743 0)
(0.70659176 0.00011054744 0)
(0.7040662 0.00010634592 0)
(0.70157028 0.00010212566 0)
(0.69910876 9.803079e-05 0)
(0.69668115 9.4283468e-05 0)
(0.69428578 9.039906e-05 0)
(0.69192796 8.6519936e-05 0)
(0.68960552 8.3120787e-05 0)
(0.68731114 7.980451e-05 0)
(0.68504544 7.655053e-05 0)
(0.68280812 7.3682666e-05 0)
(0.68059619 7.0819036e-05 0)
(0.678413 6.7905417e-05 0)
(0.67626005 6.5263389e-05 0)
(0.67413391 6.2647856e-05 0)
(0.6720349 6.0097773e-05 0)
(0.66996083 5.7848907e-05 0)
(0.66790855 5.5621733e-05 0)
(0.6658799 5.3433609e-05 0)
(0.66387569 5.1368564e-05 0)
(0.66189556 4.9332932e-05 0)
(0.65993787 4.7458108e-05 0)
(0.65800023 4.5645576e-05 0)
(0.65608326 4.3898985e-05 0)
(0.654186 4.2263581e-05 0)
(0.65230893 4.0648125e-05 0)
(0.65044897 3.9150124e-05 0)
(0.64861061 3.7797619e-05 0)
(0.64676491 3.6385745e-05 0)
(0.64499794 3.5659581e-05 0)
(0.64308117 6.9844264e-05 0)
(0.6414867 0.00011833099 0)
(0.63857043 9.8427968e-05 0)
(0.99631476 0.0026086501 0)
(0.99684682 0.0030868021 0)
(0.99746477 0.0030461712 0)
(0.99789851 0.0029373563 0)
(0.99816823 0.0029152147 0)
(0.99849183 0.0029455613 0)
(0.99870035 0.0030085251 0)
(0.99878972 0.0030934755 0)
(0.99876537 0.0031630907 0)
(0.99861715 0.0032362399 0)
(0.99833499 0.0032783075 0)
(0.9979116 0.0032953463 0)
(0.99733711 0.003290291 0)
(0.99659699 0.0032686296 0)
(0.9956758 0.0032309149 0)
(0.99455488 0.0031776667 0)
(0.99321174 0.0031107239 0)
(0.99159521 0.0030376144 0)
(0.98972401 0.0029657656 0)
(0.98751209 0.0028870421 0)
(0.98492178 0.0027945574 0)
(0.98192022 0.0026925762 0)
(0.97848375 0.0025851261 0)
(0.97458943 0.0024720618 0)
(0.97024703 0.0023517423 0)
(0.96534698 0.0022207153 0)
(0.95995863 0.0020841154 0)
(0.95415071 0.0019466622 0)
(0.94797076 0.0018106723 0)
(0.94147294 0.0016771814 0)
(0.93471981 0.0015473631 0)
(0.92778551 0.0014204392 0)
(0.92075297 0.0012965394 0)
(0.91371405 0.0011818382 0)
(0.90673302 0.0010788681 0)
(0.89986545 0.00098578797 0)
(0.89315931 0.00090159101 0)
(0.88666718 0.00082929208 0)
(0.88033747 0.00076620015 0)
(0.8741891 0.00070991374 0)
(0.86824455 0.00066137513 0)
(0.86251635 0.00061823373 0)
(0.85701765 0.00057974741 0)
(0.8517492 0.00054548123 0)
(0.84669794 0.00051399201 0)
(0.84184929 0.00048603281 0)
(0.8371854 0.0004630392 0)
(0.83269577 0.00044506872 0)
(0.82836662 0.00043012658 0)
(0.82418936 0.00041509175 0)
(0.82015609 0.00040031589 0)
(0.81625071 0.00038669567 0)
(0.81245239 0.00037381887 0)
(0.80874662 0.00036033392 0)
(0.80513389 0.00034640185 0)
(0.80159911 0.00033389612 0)
(0.79811403 0.00032255627 0)
(0.79467777 0.00031120492 0)
(0.79129473 0.00029928275 0)
(0.78797133 0.00028738918 0)
(0.78470808 0.00027613242 0)
(0.78150186 0.00026481886 0)
(0.77835298 0.00025327863 0)
(0.77526302 0.00024208711 0)
(0.77222872 0.00023168142 0)
(0.76924619 0.00022156763 0)
(0.76630724 0.00021193866 0)
(0.76340941 0.00020324756 0)
(0.76055055 0.00019506357 0)
(0.75773207 0.00018689069 0)
(0.75495866 0.00017894524 0)
(0.7522296 0.0001715905 0)
(0.74954222 0.0001641367 0)
(0.74690097 0.00015680652 0)
(0.74430133 0.00015032644 0)
(0.7417349 0.00014409623 0)
(0.73920288 0.00013802201 0)
(0.73670619 0.00013254245 0)
(0.73424234 0.00012712108 0)
(0.7318141 0.00012167784 0)
(0.72942292 0.00011668576 0)
(0.72706405 0.00011182392 0)
(0.72473653 0.0001071356 0)
(0.7224387 0.00010293012 0)
(0.72016799 9.880045e-05 0)
(0.71792621 9.4760574e-05 0)
(0.71571419 9.0932355e-05 0)
(0.71353084 8.7203542e-05 0)
(0.71137382 8.3760411e-05 0)
(0.70924071 8.0447135e-05 0)
(0.70713235 7.7257814e-05 0)
(0.70504801 7.4252433e-05 0)
(0.70298796 7.1321575e-05 0)
(0.70094839 6.8577181e-05 0)
(0.69893396 6.6155093e-05 0)
(0.69691467 6.3489221e-05 0)
(0.6949786 6.1760942e-05 0)
(0.69289226 9.2345048e-05 0)
(0.69116164 0.0001402209 0)
(0.68793717 0.00010728071 0)
(0.99646621 0.0023663993 0)
(0.99691493 0.0028578615 0)
(0.99748396 0.0030698495 0)
(0.99791051 0.0031895446 0)
(0.99820292 0.0032941984 0)
(0.9984505 0.0033746755 0)
(0.99867465 0.0033906118 0)
(0.9988706 0.0033768708 0)
(0.99904107 0.0033395207 0)
(0.99918138 0.0032862157 0)
(0.99934049 0.0032325788 0)
(0.99947576 0.0031846362 0)
(0.99958843 0.0031435152 0)
(0.99968251 0.0031022178 0)
(0.99975268 0.0030680774 0)
(0.99979529 0.0030368122 0)
(0.99980504 0.0030030028 0)
(0.99977331 0.0029708015 0)
(0.99969201 0.0029415847 0)
(0.9995508 0.0029089437 0)
(0.99933063 0.0028652935 0)
(0.99900609 0.0028122908 0)
(0.9985519 0.002752784 0)
(0.9979391 0.0026879976 0)
(0.99713977 0.0026216107 0)
(0.99608945 0.002558599 0)
(0.99473391 0.0024948458 0)
(0.9930234 0.0024253675 0)
(0.99091023 0.0023507336 0)
(0.98834964 0.0022733181 0)
(0.98529403 0.002192119 0)
(0.98171982 0.0021046913 0)
(0.97749742 0.002011644 0)
(0.97265199 0.0019136718 0)
(0.96727562 0.0018105413 0)
(0.96142959 0.0017046695 0)
(0.95519205 0.0015976219 0)
(0.94865518 0.0014907247 0)
(0.94196021 0.0013861107 0)
(0.93520307 0.0012878566 0)
(0.92846388 0.0011988789 0)
(0.92180486 0.0011168779 0)
(0.91529361 0.0010433177 0)
(0.90891492 0.00097923985 0)
(0.90266217 0.00092050046 0)
(0.89657459 0.00086617063 0)
(0.89067439 0.00081877954 0)
(0.88501183 0.00077768184 0)
(0.87960299 0.00073991466 0)
(0.87442699 0.00070346831 0)
(0.86945599 0.00066939913 0)
(0.86466359 0.00063904531 0)
(0.86002817 0.00061144287 0)
(0.85554064 0.00058422538 0)
(0.85120253 0.00055703098 0)
(0.84700722 0.00053229438 0)
(0.84293632 0.00051057757 0)
(0.83896907 0.00049035048 0)
(0.83509443 0.00047000888 0)
(0.83131254 0.00044993053 0)
(0.82762013 0.00043094674 0)
(0.82400971 0.00041225919 0)
(0.82047653 0.00039364984 0)
(0.81701793 0.00037579566 0)
(0.81362914 0.00035922998 0)
(0.81030352 0.00034355226 0)
(0.80702264 0.00032871065 0)
(0.80379438 0.00031492206 0)
(0.80061985 0.00030175339 0)
(0.79749998 0.00028865648 0)
(0.79443808 0.00027594184 0)
(0.79143209 0.00026413169 0)
(0.78847786 0.0002523417 0)
(0.78557896 0.00024091839 0)
(0.78272604 0.00023082444 0)
(0.77991122 0.00022114454 0)
(0.77713808 0.00021167257 0)
(0.7744086 0.00020298964 0)
(0.77172028 0.00019445638 0)
(0.76907513 0.00018595984 0)
(0.76647424 0.00017813493 0)
(0.76391048 0.00017061566 0)
(0.76138202 0.00016339772 0)
(0.75888833 0.00015683403 0)
(0.75642763 0.00015041444 0)
(0.75400165 0.00014414636 0)
(0.7516111 0.00013819808 0)
(0.74925361 0.00013245674 0)
(0.74692606 0.00012714384 0)
(0.74462639 0.00012203828 0)
(0.74235584 0.0001171198 0)
(0.74011384 0.00011246618 0)
(0.7379003 0.00010796736 0)
(0.73571055 0.00010373274 0)
(0.73354908 0.00010003904 0)
(0.73138643 9.5831041e-05 0)
(0.72930962 9.2983373e-05 0)
(0.72708613 0.00011869135 0)
(0.72523535 0.00016580036 0)
(0.72180233 0.00012568158 0)
(0.99664654 0.0022647411 0)
(0.99702768 0.0027802228 0)
(0.99753318 0.0030271394 0)
(0.99792902 0.003111123 0)
(0.99820384 0.0031509766 0)
(0.99843561 0.0031541395 0)
(0.99865198 0.0031310878 0)
(0.99884751 0.0031070395 0)
(0.99902109 0.0030849072 0)
(0.99917787 0.0030720329 0)
(0.99932296 0.0030669185 0)
(0.99945992 0.0030679106 0)
(0.99959267 0.003068657 0)
(0.99972117 0.0030677148 0)
(0.99984439 0.003060746 0)
(0.99996216 0.003045222 0)
(1.0000748 0.0030232583 0)
(1.0001772 0.0029956605 0)
(1.0002865 0.0029644401 0)
(1.000394 0.0029279024 0)
(1.0004905 0.0028814332 0)
(1.0005687 0.0028271543 0)
(1.0006263 0.0027689113 0)
(1.0006586 0.0027082181 0)
(1.0006667 0.0026506921 0)
(1.0006469 0.0025980602 0)
(1.0005899 0.0025435524 0)
(1.0004803 0.002485968 0)
(1.0002995 0.0024286064 0)
(1.0000257 0.0023734845 0)
(0.99962977 0.0023204053 0)
(0.99907759 0.0022728848 0)
(0.99830251 0.0022308801 0)
(0.99723025 0.0021933736 0)
(0.99578994 0.0021538757 0)
(0.99390713 0.0021105733 0)
(0.99151189 0.0020619637 0)
(0.98852378 0.0020096346 0)
(0.98497149 0.0019512404 0)
(0.9806532 0.0018828906 0)
(0.975717 0.0018032258 0)
(0.97024603 0.001716058 0)
(0.96433144 0.0016238725 0)
(0.95810493 0.0015304549 0)
(0.95170179 0.0014388834 0)
(0.94522 0.0013518739 0)
(0.93874223 0.0012718817 0)
(0.93234186 0.001197654 0)
(0.92608827 0.0011313158 0)
(0.9199225 0.001070641 0)
(0.91388631 0.0010134673 0)
(0.90801988 0.00096071535 0)
(0.90234433 0.00091161894 0)
(0.89688016 0.00086408122 0)
(0.89162214 0.00081855598 0)
(0.88655946 0.00077770842 0)
(0.8816832 0.0007415034 0)
(0.8769684 0.00070788991 0)
(0.8724036 0.00067492299 0)
(0.86798956 0.00064301795 0)
(0.86371303 0.00061334911 0)
(0.8595546 0.00058502061 0)
(0.85550097 0.00055752336 0)
(0.85154701 0.00053131327 0)
(0.84769019 0.00050685203 0)
(0.84392571 0.00048355842 0)
(0.84025061 0.00046172254 0)
(0.83665784 0.0004417086 0)
(0.83313978 0.000422658 0)
(0.82969416 0.00040381867 0)
(0.82632227 0.00038557229 0)
(0.8230198 0.0003686223 0)
(0.81978047 0.00035188086 0)
(0.81660694 0.00033590655 0)
(0.81348134 0.00032176562 0)
(0.81040149 0.00030808483 0)
(0.80737468 0.00029461058 0)
(0.80440256 0.00028213831 0)
(0.80148173 0.00026995754 0)
(0.79861311 0.00025791462 0)
(0.7957971 0.00024684966 0)
(0.79302245 0.00023635143 0)
(0.79028775 0.00022626576 0)
(0.78759464 0.00021697653 0)
(0.78494197 0.00020791227 0)
(0.782331 0.00019908129 0)
(0.77976211 0.00019071365 0)
(0.77723085 0.00018270652 0)
(0.77473341 0.00017528167 0)
(0.77226872 0.0001681412 0)
(0.76983852 0.00016125547 0)
(0.76744222 0.00015472756 0)
(0.76507911 0.00014846095 0)
(0.76274326 0.00014255166 0)
(0.76043926 0.00013741744 0)
(0.7581386 0.0001314727 0)
(0.75592684 0.00012751144 0)
(0.75357241 0.00014898046 0)
(0.75160699 0.0001959523 0)
(0.74797974 0.00015044158 0)
(0.99681649 0.0021856699 0)
(0.99713731 0.0026676476 0)
(0.99757866 0.00291026 0)
(0.99794548 0.0029994294 0)
(0.99821359 0.0030548888 0)
(0.99844275 0.0030977282 0)
(0.99865785 0.0031234176 0)
(0.99885255 0.0031378674 0)
(0.99902476 0.0031466042 0)
(0.99917899 0.003146325 0)
(0.99932044 0.0031427981 0)
(0.99945362 0.0031359579 0)
(0.99958268 0.0031243729 0)
(0.99970849 0.0031060236 0)
(0.9998305 0.0030816204 0)
(0.9999487 0.003052153 0)
(1.0000628 0.0030186078 0)
(1.0001722 0.0029814142 0)
(1.0002772 0.0029426879 0)
(1.00038 0.0029020983 0)
(1.0004803 0.0028552612 0)
(1.0005739 0.0028024839 0)
(1.0006577 0.0027463511 0)
(1.0007314 0.0026880014 0)
(1.000796 0.0026309536 0)
(1.0008517 0.0025764178 0)
(1.0009101 0.0025210133 0)
(1.0009629 0.0024651157 0)
(1.0009992 0.0024112357 0)
(1.0010223 0.0023610068 0)
(1.0010315 0.0023146297 0)
(1.0010261 0.002274943 0)
(1.0010038 0.0022448434 0)
(1.0009573 0.0022184581 0)
(1.0008706 0.0021917829 0)
(1.000721 0.0021654578 0)
(1.0004785 0.0021408614 0)
(1.0001 0.0021161696 0)
(0.99953565 0.002094932 0)
(0.99868236 0.0020790104 0)
(0.99745277 0.002058951 0)
(0.99575524 0.0020308575 0)
(0.9934952 0.0019962901 0)
(0.99064033 0.0019563834 0)
(0.9871419 0.0019066111 0)
(0.98288354 0.00184434 0)
(0.97800782 0.0017705751 0)
(0.97261615 0.0016891322 0)
(0.96682786 0.0016023706 0)
(0.96080773 0.0015151447 0)
(0.95465664 0.0014319011 0)
(0.94846479 0.0013539385 0)
(0.94230441 0.0012798845 0)
(0.9362562 0.0012103157 0)
(0.93026588 0.001145831 0)
(0.92435077 0.0010860814 0)
(0.91856395 0.0010301704 0)
(0.91294469 0.00097709599 0)
(0.90752738 0.00092582075 0)
(0.90230714 0.00087762775 0)
(0.89725658 0.00083352711 0)
(0.89235215 0.00079228664 0)
(0.88758581 0.00075287021 0)
(0.88296283 0.00071537821 0)
(0.87848427 0.00068048204 0)
(0.87413842 0.00064767258 0)
(0.86993081 0.00061706815 0)
(0.86584297 0.00058880176 0)
(0.86186489 0.00056197966 0)
(0.85799089 0.00053580606 0)
(0.85421622 0.00051075591 0)
(0.85053029 0.00048760587 0)
(0.84692513 0.00046495316 0)
(0.84340188 0.00044324534 0)
(0.83995792 0.00042385992 0)
(0.83658555 0.00040534748 0)
(0.83328296 0.00038725796 0)
(0.83004812 0.00037044848 0)
(0.82687629 0.00035410835 0)
(0.82376705 0.00033804523 0)
(0.82071965 0.00032338054 0)
(0.81771642 0.00030956952 0)
(0.81476003 0.00029620097 0)
(0.81185505 0.00028374028 0)
(0.80899968 0.00027161326 0)
(0.80619421 0.00025983284 0)
(0.80343847 0.00024872257 0)
(0.80072471 0.00023818795 0)
(0.79804933 0.00022838086 0)
(0.79541309 0.00021891995 0)
(0.79281795 0.00020979036 0)
(0.79026296 0.00020113388 0)
(0.78774638 0.00019288263 0)
(0.78526066 0.00018510177 0)
(0.7828111 0.00017833302 0)
(0.78037036 0.00017044799 0)
(0.77802225 0.00016529385 0)
(0.7755358 0.00018305777 0)
(0.77345383 0.00023086344 0)
(0.76963668 0.0001794993 0)
(0.99697416 0.0021162862 0)
(0.99724514 0.0025600756 0)
(0.99763044 0.002809807 0)
(0.9979702 0.0029228297 0)
(0.99823064 0.0029965692 0)
(0.99845371 0.003052219 0)
(0.99866241 0.0030802681 0)
(0.99885263 0.0030891572 0)
(0.99902215 0.0030864292 0)
(0.99917492 0.0030783592 0)
(0.99931582 0.0030673571 0)
(0.99944898 0.0030543006 0)
(0.9995777 0.0030425707 0)
(0.99970297 0.003028385 0)
(0.99982442 0.0030114781 0)
(0.99994184 0.0029904118 0)
(1.0000548 0.0029654532 0)
(1.0001627 0.0029367569 0)
(1.0002659 0.0029058235 0)
(1.0003665 0.002872099 0)
(1.0004643 0.0028315493 0)
(1.0005563 0.0027839491 0)
(1.00064 0.0027318201 0)
(1.0007148 0.0026767246 0)
(1.0007811 0.0026218765 0)
(1.0008414 0.0025688862 0)
(1.0008972 0.0025155884 0)
(1.0009473 0.0024621938 0)
(1.0009905 0.002410331 0)
(1.0010267 0.0023612027 0)
(1.0010567 0.0023150435 0)
(1.0010816 0.0022744877 0)
(1.001103 0.0022408821 0)
(1.0011289 0.0022108803 0)
(1.0011552 0.0021824484 0)
(1.0011761 0.0021564689 0)
(1.0011909 0.0021338824 0)
(1.0011962 0.0021137662 0)
(1.0011895 0.0021013195 0)
(1.0011663 0.0020954325 0)
(1.0011106 0.0020873552 0)
(1.0009938 0.0020768033 0)
(1.0007766 0.0020639629 0)
(1.000409 0.0020496421 0)
(0.99981624 0.0020370051 0)
(0.99888488 0.0020239954 0)
(0.99751218 0.002003998 0)
(0.99559705 0.0019753397 0)
(0.99305203 0.0019395486 0)
(0.98986101 0.0018954552 0)
(0.98590201 0.0018386602 0)
(0.98132377 0.0017697149 0)
(0.97623078 0.001692052 0)
(0.97075421 0.0016072353 0)
(0.96504204 0.0015216509 0)
(0.95918827 0.0014417409 0)
(0.95326998 0.0013669449 0)
(0.94735756 0.0012947353 0)
(0.94153816 0.0012264461 0)
(0.93574304 0.0011636459 0)
(0.92999484 0.0011047018 0)
(0.92434516 0.0010476484 0)
(0.91883914 0.00099213305 0)
(0.91350834 0.00093953421 0)
(0.90833635 0.00089112127 0)
(0.90330218 0.00084548588 0)
(0.89840923 0.00080269996 0)
(0.89366492 0.00076314879 0)
(0.8890766 0.00072587787 0)
(0.8846323 0.00069014108 0)
(0.88031776 0.00065651221 0)
(0.87611726 0.00062555548 0)
(0.87202779 0.00059542191 0)
(0.8680493 0.00056668422 0)
(0.86418976 0.00054089371 0)
(0.86043447 0.00051631324 0)
(0.85677411 0.00049246741 0)
(0.85320345 0.0004703381 0)
(0.84971467 0.00044899869 0)
(0.84630404 0.00042820693 0)
(0.84296761 0.00040912389 0)
(0.83969985 0.00039116551 0)
(0.83649992 0.00037390887 0)
(0.83336493 0.00035782099 0)
(0.83029001 0.00034222734 0)
(0.82727429 0.00032711708 0)
(0.82431678 0.00031295858 0)
(0.82140495 0.00029961499 0)
(0.81853764 0.00028709257 0)
(0.81571816 0.00027495996 0)
(0.81294773 0.00026325748 0)
(0.81022457 0.00025218127 0)
(0.80754542 0.00024170997 0)
(0.80490083 0.0002318372 0)
(0.80229798 0.00022319872 0)
(0.79971057 0.00021313371 0)
(0.79722007 0.00020675435 0)
(0.79459621 0.00022093072 0)
(0.79239144 0.00027046908 0)
(0.78838245 0.00021207816 0)
(0.99712075 0.0020583723 0)
(0.99735143 0.0024661859 0)
(0.99768756 0.0027191748 0)
(0.99799958 0.0028477123 0)
(0.99824951 0.0029289121 0)
(0.99846526 0.0029883476 0)
(0.99866748 0.0030219312 0)
(0.99885406 0.0030372314 0)
(0.99902206 0.003043352 0)
(0.99917429 0.0030447312 0)
(0.99931524 0.0030434029 0)
(0.99944853 0.0030413929 0)
(0.99957671 0.0030358666 0)
(0.99970101 0.0030272125 0)
(0.99982149 0.0030130564 0)
(0.99993793 0.0029937765 0)
(1.0000499 0.0029693191 0)
(1.000157 0.0029402161 0)
(1.0002596 0.0029078872 0)
(1.0003592 0.002872116 0)
(1.0004558 0.0028299297 0)
(1.0005468 0.0027811604 0)
(1.0006298 0.0027282257 0)
(1.0007041 0.0026728707 0)
(1.0007702 0.0026178284 0)
(1.0008301 0.002564633 0)
(1.0008851 0.0025115769 0)
(1.0009345 0.0024584694 0)
(1.0009775 0.0024066716 0)
(1.0010143 0.0023575266 0)
(1.0010454 0.0023115791 0)
(1.0010718 0.0022711278 0)
(1.0010962 0.0022373331 0)
(1.0011211 0.0022078551 0)
(1.0011464 0.0021806774 0)
(1.001171 0.0021558403 0)
(1.001194 0.0021337472 0)
(1.0012154 0.002113684 0)
(1.0012356 0.0020993768 0)
(1.0012581 0.0020905318 0)
(1.0012869 0.0020802837 0)
(1.0013208 0.0020688412 0)
(1.0013464 0.0020577186 0)
(1.0013602 0.0020481033 0)
(1.00136 0.0020437161 0)
(1.0013358 0.0020415904 0)
(1.0012628 0.0020365759 0)
(1.0011011 0.0020280878 0)
(1.0007947 0.0020167147 0)
(1.0002646 0.002005242 0)
(0.99938873 0.0019913547 0)
(0.9980574 0.0019696689 0)
(0.99616263 0.0019381574 0)
(0.9936265 0.0018972636 0)
(0.99032733 0.0018483735 0)
(0.98633651 0.0017880316 0)
(0.98178116 0.0017188798 0)
(0.97677834 0.0016418346 0)
(0.97145979 0.0015594385 0)
(0.96594595 0.0014797253 0)
(0.96030968 0.0014059509 0)
(0.95461625 0.001335079 0)
(0.94893801 0.0012656802 0)
(0.94331294 0.0012012254 0)
(0.93766925 0.0011415457 0)
(0.9320602 0.0010829556 0)
(0.92654783 0.0010258513 0)
(0.92118862 0.00097235756 0)
(0.91597787 0.0009224089 0)
(0.9109014 0.00087486006 0)
(0.90595695 0.00083037131 0)
(0.90114836 0.00078923809 0)
(0.89648653 0.00074941995 0)
(0.89196618 0.00071154472 0)
(0.88757985 0.00067731093 0)
(0.8833182 0.00064487149 0)
(0.87918381 0.00061364586 0)
(0.87517192 0.00058481627 0)
(0.87126845 0.00055732992 0)
(0.86746546 0.00053079545 0)
(0.86375738 0.00050640275 0)
(0.8601508 0.00048342892 0)
(0.85664051 0.00046140369 0)
(0.85321501 0.00044092261 0)
(0.84986592 0.00042120017 0)
(0.84659064 0.00040218627 0)
(0.84338511 0.00038436043 0)
(0.84024497 0.00036758745 0)
(0.83716737 0.00035188407 0)
(0.83414923 0.00033672433 0)
(0.83118907 0.00032213415 0)
(0.82828406 0.0003083612 0)
(0.82542887 0.00029543771 0)
(0.82261215 0.00028321469 0)
(0.81984487 0.00027242314 0)
(0.81710086 0.00025990426 0)
(0.81445874 0.00025214298 0)
(0.81168846 0.0002627428 0)
(0.80935145 0.00031464813 0)
(0.80514484 0.00024802592 0)
(0.99725718 0.0020084896 0)
(0.99745514 0.0023821571 0)
(0.99774816 0.0026325796 0)
(0.99803274 0.0027719134 0)
(0.99827095 0.0028607749 0)
(0.9984795 0.0029269525 0)
(0.99867549 0.0029696521 0)
(0.99885804 0.0029933007 0)
(0.99902379 0.0030057291 0)
(0.99917464 0.0030111995 0)
(0.99931462 0.0030121406 0)
(0.9994471 0.003009501 0)
(0.99957432 0.0030036109 0)
(0.99969756 0.0029931572 0)
(0.99981709 0.0029782001 0)
(0.99993266 0.0029586006 0)
(1.0000439 0.0029344424 0)
(1.0001505 0.0029062747 0)
(1.0002528 0.0028751292 0)
(1.0003519 0.0028407997 0)
(1.0004477 0.0028009041 0)
(1.0005381 0.0027550227 0)
(1.000621 0.0027051113 0)
(1.0006954 0.0026528324 0)
(1.0007619 0.002600452 0)
(1.0008221 0.002549376 0)
(1.0008773 0.0024983526 0)
(1.000927 0.0024471424 0)
(1.0009703 0.0023970575 0)
(1.0010075 0.0023494974 0)
(1.0010392 0.0023051104 0)
(1.0010662 0.0022657927 0)
(1.0010909 0.0022326446 0)
(1.0011157 0.0022037345 0)
(1.0011408 0.0021769772 0)
(1.0011652 0.0021522163 0)
(1.0011886 0.00213002 0)
(1.0012106 0.002110034 0)
(1.001232 0.0020953834 0)
(1.0012564 0.002086185 0)
(1.0012854 0.0020763453 0)
(1.0013163 0.0020655551 0)
(1.0013464 0.0020548892 0)
(1.001375 0.0020453091 0)
(1.0014038 0.002039667 0)
(1.0014351 0.0020359038 0)
(1.001471 0.002029412 0)
(1.0015119 0.0020213294 0)
(1.0015385 0.0020132758 0)
(1.0015474 0.0020089234 0)
(1.0015302 0.0020060287 0)
(1.0014582 0.0019990542 0)
(1.0012849 0.0019871143 0)
(1.0009445 0.0019727697 0)
(1.0003232 0.0019582926 0)
(0.99930114 0.0019391498 0)
(0.99776277 0.0019118983 0)
(0.99562155 0.0018741434 0)
(0.99271066 0.0018270036 0)
(0.98904672 0.0017710107 0)
(0.98480578 0.001707458 0)
(0.98011225 0.0016360101 0)
(0.97508834 0.0015584284 0)
(0.969838 0.001481151 0)
(0.96443977 0.001409062 0)
(0.95894941 0.0013402529 0)
(0.95342732 0.0012724542 0)
(0.94795206 0.0012096565 0)
(0.94242287 0.0011506822 0)
(0.93689278 0.0010922751 0)
(0.93143348 0.0010354885 0)
(0.9261048 0.00098220175 0)
(0.92090401 0.0009311541 0)
(0.91582291 0.00088259467 0)
(0.91086318 0.00083830097 0)
(0.90603708 0.00079610562 0)
(0.90136309 0.00075562822 0)
(0.89683346 0.00071847993 0)
(0.8924311 0.00068340508 0)
(0.8881531 0.00064971984 0)
(0.88399933 0.0006185523 0)
(0.87996787 0.00058910671 0)
(0.87605385 0.00056110419 0)
(0.87224943 0.00053518548 0)
(0.86854665 0.00051040448 0)
(0.86493973 0.00048669698 0)
(0.86141978 0.00046453512 0)
(0.85799145 0.00044367507 0)
(0.85465068 0.00042412546 0)
(0.85138655 0.00040536525 0)
(0.84819366 0.00038740577 0)
(0.84506738 0.00037047182 0)
(0.8420042 0.00035458809 0)
(0.83899832 0.00033959646 0)
(0.83605287 0.00032635874 0)
(0.83313941 0.00031112339 0)
(0.83033354 0.00030181988 0)
(0.82740455 0.00030876715 0)
(0.82492315 0.00036328316 0)
(0.82051098 0.000287455 0)
(0.99738449 0.0019651522 0)
(0.99755571 0.0023071122 0)
(0.99781131 0.0025513468 0)
(0.99806966 0.0026987632 0)
(0.99829534 0.0027953146 0)
(0.99849635 0.0028676936 0)
(0.99868574 0.0029173876 0)
(0.99886352 0.0029470213 0)
(0.9990264 0.0029637711 0)
(0.99917553 0.0029727022 0)
(0.99931441 0.002976521 0)
(0.99944607 0.0029765343 0)
(0.99957251 0.0029730898 0)
(0.99969491 0.0029656904 0)
(0.99981358 0.0029538431 0)
(0.9999283 0.0029372615 0)
(1.0000388 0.00291603 0)
(1.0001448 0.0028905581 0)
(1.0002466 0.0028615773 0)
(1.000345 0.0028289423 0)
(1.0004399 0.0027908205 0)
(1.0005296 0.0027467507 0)
(1.0006121 0.0026984255 0)
(1.0006865 0.0026475581 0)
(1.0007533 0.0025961904 0)
(1.0008139 0.0025457005 0)
(1.0008693 0.0024952917 0)
(1.0009193 0.0024447639 0)
(1.0009631 0.0023953132 0)
(1.0010009 0.0023482867 0)
(1.0010333 0.0023043858 0)
(1.0010612 0.002265227 0)
(1.0010867 0.0022318493 0)
(1.001112 0.0022026549 0)
(1.0011374 0.0021757131 0)
(1.0011622 0.0021508448 0)
(1.0011858 0.0021286506 0)
(1.0012082 0.0021089206 0)
(1.00123 0.0020941865 0)
(1.0012543 0.0020846053 0)
(1.0012827 0.0020747667 0)
(1.0013128 0.0020639427 0)
(1.0013427 0.0020531714 0)
(1.0013716 0.0020434487 0)
(1.0014011 0.0020373219 0)
(1.0014342 0.002033067 0)
(1.0014709 0.0020265569 0)
(1.0015082 0.0020186278 0)
(1.0015439 0.0020107204 0)
(1.0015793 0.002005502 0)
(1.0016177 0.0020010369 0)
(1.0016546 0.0019929859 0)
(1.0017035 0.0019820111 0)
(1.0017306 0.0019727918 0)
(1.0017339 0.0019666567 0)
(1.0016973 0.0019588461 0)
(1.00158 0.0019466898 0)
(1.0013218 0.0019319002 0)
(1.0008144 0.0019161687 0)
(0.99992391 0.0018982828 0)
(0.99852995 0.0018724353 0)
(0.99654074 0.0018364378 0)
(0.99378967 0.0017895176 0)
(0.99022743 0.0017326819 0)
(0.98609775 0.0016714191 0)
(0.98155135 0.0016033763 0)
(0.97669522 0.0015301769 0)
(0.97161776 0.0014573012 0)
(0.96638772 0.0013883392 0)
(0.9610542 0.0013221828 0)
(0.95567292 0.0012572846 0)
(0.95031735 0.0011967113 0)
(0.94489107 0.0011381076 0)
(0.93944947 0.0010801339 0)
(0.93406538 0.001025195 0)
(0.92879351 0.00097224329 0)
(0.92363446 0.00092163454 0)
(0.91858609 0.00087491166 0)
(0.91365651 0.00083063391 0)
(0.90886573 0.00078809545 0)
(0.90421943 0.0007487053 0)
(0.89970501 0.00071160382 0)
(0.89531979 0.00067638562 0)
(0.89106799 0.00064373773 0)
(0.88694442 0.00061274567 0)
(0.88293907 0.0005833593 0)
(0.8790424 0.000555839 0)
(0.87525683 0.00052979738 0)
(0.8715798 0.00050548069 0)
(0.86800055 0.00048236672 0)
(0.86451239 0.00046037118 0)
(0.86110856 0.00043969866 0)
(0.85778624 0.00042033822 0)
(0.85454575 0.00040206397 0)
(0.8513819 0.00038590039 0)
(0.84826304 0.00036756303 0)
(0.84525938 0.0003563527 0)
(0.84214771 0.00035938257 0)
(0.83950751 0.00041624133 0)
(0.83488096 0.00033064576 0)
(0.99750363 0.0019270265 0)
(0.99765286 0.0022399655 0)
(0.99787621 0.0024756117 0)
(0.99810993 0.0026282739 0)
(0.99832245 0.002731343 0)
(0.99851543 0.0028088014 0)
(0.99869801 0.0028641955 0)
(0.99887062 0.0028995264 0)
(0.99903031 0.002921164 0)
(0.99917752 0.0029343619 0)
(0.99931511 0.002941826 0)
(0.99944575 0.0029447967 0)
(0.99957122 0.0029436733 0)
(0.99969259 0.0029381623 0)
(0.99981019 0.002927781 0)
(0.9999239 0.0029124157 0)
(1.0000335 0.0028922704 0)
(1.0001388 0.0028677627 0)
(1.00024 0.002839516 0)
(1.0003377 0.0028074963 0)
(1.0004318 0.0027703436 0)
(1.0005208 0.0027276284 0)
(1.0006029 0.0026807975 0)
(1.0006774 0.0026315242 0)
(1.0007445 0.0025816218 0)
(1.0008053 0.0025323621 0)
(1.000861 0.0024832547 0)
(1.0009113 0.0024341112 0)
(1.0009557 0.0023859728 0)
(1.0009941 0.00234012 0)
(1.0010273 0.0022973127 0)
(1.001056 0.0022589556 0)
(1.0010823 0.0022260042 0)
(1.0011082 0.0021971537 0)
(1.001134 0.0021706487 0)
(1.0011591 0.0021462346 0)
(1.0011832 0.0021244438 0)
(1.0012061 0.0021051726 0)
(1.0012284 0.0020904695 0)
(1.001253 0.0020805314 0)
(1.0012814 0.0020706717 0)
(1.0013115 0.0020599141 0)
(1.0013413 0.0020492843 0)
(1.0013704 0.0020397858 0)
(1.0014 0.0020336052 0)