/*--------------------------------*- C++ -*----------------------------------*\
  =========                 |
  \\      /  F ield         | OpenFOAM: The Open Source CFD Toolbox
   \\    /   O peration     | Website:  https://openfoam.org
    \\  /    A nd           | Version:  12
     \\/     M anipulation  |
\*---------------------------------------------------------------------------*/
FoamFile
{
    format      ascii;
    class       volVectorField;
    location    "1700";
    object      wallShearStress;
}
// * * * * * * * * * * * * * * * * * * * * * * * * * * * * * * * * * * * * * //

dimensions      [0 2 -2 0 0 0 0];

internalField   uniform (0 0 0);

boundaryField
{
    inlet
    {
        type            calculated;
        value           uniform (0 0 0);
    }
    top
    {
        type            calculated;
        value           uniform (0 0 0);
    }
    outlet
    {
        type            calculated;
        value           uniform (0 0 0);
    }
    slipsurface
    {
        type            calculated;
        value           uniform (0 0 0);
    }
    bottom
    {
        type            calculated;
        value           nonuniform List<vector> 
100
(
(-0.003344586 -3.5329963e-06 0)
(-0.00327122 -6.5061315e-06 0)
(-0.0031943073 -8.1522918e-06 0)
(-0.0031132896 -9.5775817e-06 0)
(-0.00303391 -1.130629e-05 0)
(-0.0029581436 -1.2316467e-05 0)
(-0.002886134 -1.2348627e-05 0)
(-0.0028176952 -1.1972219e-05 0)
(-0.0027522183 -1.1414935e-05 0)
(-0.0026891218 -1.069444e-05 0)
(-0.0026272892 -9.8895217e-06 0)
(-0.0025662418 -9.1427133e-06 0)
(-0.0025058082 -8.4524833e-06 0)
(-0.0024460152 -7.8084868e-06 0)
(-0.0023869833 -7.2034492e-06 0)
(-0.0023289217 -6.6263481e-06 0)
(-0.0022721848 -6.0464782e-06 0)
(-0.0022174974 -5.4788345e-06 0)
(-0.0021642284 -4.971179e-06 0)
(-0.0021131919 -4.4878855e-06 0)
(-0.002064648 -4.0257029e-06 0)
(-0.0020187985 -3.5853648e-06 0)
(-0.0019758421 -3.168754e-06 0)
(-0.0019359346 -2.7790315e-06 0)
(-0.0018992026 -2.4134175e-06 0)
(-0.0018657579 -2.0728246e-06 0)
(-0.001835585 -1.7639281e-06 0)
(-0.0018085554 -1.4862797e-06 0)
(-0.0017844931 -1.2394034e-06 0)
(-0.0017631874 -1.026234e-06 0)
(-0.0017443897 -8.4576228e-07 0)
(-0.001727845 -6.9300577e-07 0)
(-0.0017133532 -5.6340622e-07 0)
(-0.0017007033 -4.5638178e-07 0)
(-0.0016896301 -3.6883797e-07 0)
(-0.0016798484 -3.0038883e-07 0)
(-0.0016710778 -2.5150479e-07 0)
(-0.0016630636 -2.1843877e-07 0)
(-0.0016556443 -1.9375656e-07 0)
(-0.0016487003 -1.7737504e-07 0)
(-0.0016420766 -1.7071008e-07 0)
(-0.0016356142 -1.707715e-07 0)
(-0.0016291935 -1.7557262e-07 0)
(-0.0016227307 -1.8304902e-07 0)
(-0.0016161853 -1.9108245e-07 0)
(-0.0016095287 -2.00114e-07 0)
(-0.0016027184 -2.119987e-07 0)
(-0.0015956618 -2.2626284e-07 0)
(-0.0015882917 -2.4021654e-07 0)
(-0.0015806071 -2.5188725e-07 0)
(-0.0015726394 -2.6163052e-07 0)
(-0.0015644058 -2.6986168e-07 0)
(-0.0015559205 -2.7580151e-07 0)
(-0.0015472372 -2.7803269e-07 0)
(-0.0015384443 -2.7657831e-07 0)
(-0.001529608 -2.731523e-07 0)
(-0.0015207483 -2.6866222e-07 0)
(-0.0015118704 -2.6324658e-07 0)
(-0.0015030031 -2.5667309e-07 0)
(-0.0014941792 -2.4967187e-07 0)
(-0.0014854012 -2.429806e-07 0)
(-0.001476673 -2.3576839e-07 0)
(-0.0014680272 -2.2767224e-07 0)
(-0.0014594948 -2.1935559e-07 0)
(-0.0014510737 -2.1146365e-07 0)
(-0.0014427648 -2.0329533e-07 0)
(-0.0014345864 -1.9504993e-07 0)
(-0.0014265283 -1.8771644e-07 0)
(-0.0014185624 -1.8102123e-07 0)
(-0.0014106855 -1.7434311e-07 0)
(-0.0014029102 -1.678421e-07 0)
(-0.0013952267 -1.619153e-07 0)
(-0.0013876345 -1.5572883e-07 0)
(-0.0013801589 -1.4941317e-07 0)
(-0.0013727917 -1.4383059e-07 0)
(-0.0013655133 -1.3838246e-07 0)
(-0.0013583318 -1.3298438e-07 0)
(-0.0013512368 -1.282529e-07 0)
(-0.0013442147 -1.23567e-07 0)
(-0.0013372823 -1.1873438e-07 0)
(-0.0013304412 -1.1432606e-07 0)
(-0.0013236828 -1.0994924e-07 0)
(-0.0013170159 -1.0562338e-07 0)
(-0.0013104288 -1.0181503e-07 0)
(-0.0013039086 -9.8067808e-08 0)
(-0.0012974639 -9.4357763e-08 0)
(-0.0012910954 -9.0846951e-08 0)
(-0.0012848039 -8.7366715e-08 0)
(-0.0012785855 -8.4143125e-08 0)
(-0.0012724329 -8.1028835e-08 0)
(-0.0012663479 -7.8017893e-08 0)
(-0.0012603252 -7.520232e-08 0)
(-0.001254367 -7.2403675e-08 0)
(-0.0012484658 -6.9811249e-08 0)
(-0.0012426307 -6.7413528e-08 0)
(-0.0012367816 -6.5145148e-08 0)
(-0.0012311787 -6.2475497e-08 0)
(-0.001225087 -1.5427848e-07 0)
(-0.0012197834 -2.8605702e-07 0)
(-0.0012117838 -2.7231311e-07 0)
)
;
    }
    frontandback
    {
        type            empty;
    }
}


// ************************************************************************* //
