#      distance             U_x             U_y             U_z wallShearStr... wallShearStr... wallShearStr...               p             nut         nuTilda
              0      0.99944101               0               0               0               0               0    0.0046996197   1.4765828e-06   2.0028298e-06
   0.0021021021      0.99942483               0               0               0               0               0    0.0047176521   1.4767158e-06   2.0029307e-06
   0.0042042042      0.99940865               0               0               0               0               0    0.0047356846   1.4768489e-06   2.0030316e-06
   0.0063063063      0.99939247               0               0               0               0               0     0.004753717   1.4769819e-06   2.0031325e-06
   0.0084084084      0.99937628               0               0               0               0               0    0.0047717494    1.477115e-06   2.0032334e-06
    0.010510511      0.99935789               0               0               0               0               0    0.0047921822   1.4772616e-06   2.0033446e-06
    0.012612613      0.99933811               0               0               0               0               0    0.0048141057   1.4774167e-06   2.0034623e-06
    0.014714715      0.99931834               0               0               0               0               0    0.0048360292   1.4775719e-06   2.0035799e-06
    0.016816817      0.99929857               0               0               0               0               0    0.0048579528    1.477727e-06   2.0036975e-06
    0.018918919       0.9992788               0               0               0               0               0    0.0048798763   1.4778821e-06   2.0038152e-06
    0.021021021      0.99925845               0               0               0               0               0      0.00490241   1.4780402e-06   2.0039351e-06
    0.023123123      0.99923427               0               0               0               0               0    0.0049290456   1.4782186e-06   2.0040704e-06
    0.025225225      0.99921008               0               0               0               0               0    0.0049556812    1.478397e-06   2.0042057e-06
    0.027327327      0.99918589               0               0               0               0               0    0.0049823168   1.4785755e-06   2.0043411e-06
    0.029429429       0.9991617               0               0               0               0               0    0.0050089524   1.4787539e-06   2.0044764e-06
    0.031531532      0.99913612               0               0               0               0               0    0.0050370594   1.4789386e-06   2.0046165e-06
    0.033633634      0.99910645               0               0               0               0               0    0.0050694641   1.4791417e-06   2.0047705e-06
    0.035735736      0.99907679               0               0               0               0               0    0.0051018688   1.4793448e-06   2.0049246e-06
    0.037837838      0.99904712               0               0               0               0               0    0.0051342736   1.4795479e-06   2.0050786e-06
     0.03993994      0.99901746               0               0               0               0               0    0.0051666783   1.4797509e-06   2.0052327e-06
    0.042042042      0.99898149               0               0               0               0               0    0.0052056281   1.4799779e-06   2.0054048e-06
    0.044144144      0.99894493               0               0               0               0               0    0.0052451914   1.4802071e-06   2.0055787e-06
    0.046246246      0.99890837               0               0               0               0               0    0.0052847547   1.4804363e-06   2.0057526e-06
    0.048348348      0.99887149               0               0               0               0               0    0.0053246497   1.4806666e-06   2.0059273e-06
     0.05045045      0.99882614               0               0               0               0               0    0.0053732539   1.4809235e-06   2.0061222e-06
    0.052552553      0.99878079               0               0               0               0               0     0.005421858   1.4811804e-06   2.0063171e-06
    0.054654655      0.99873545               0               0               0               0               0    0.0054704622   1.4814373e-06    2.006512e-06
    0.056756757      0.99868363               0               0               0               0               0    0.0055255828   1.4817108e-06   2.0067194e-06
    0.058858859      0.99862671               0               0               0               0               0    0.0055858409   1.4819972e-06   2.0069367e-06
    0.060960961      0.99856978               0               0               0               0               0     0.005646099   1.4822836e-06    2.007154e-06
    0.063063063      0.99850639               0               0               0               0               0    0.0057129626   1.4825835e-06   2.0073815e-06
    0.065165165      0.99843424               0               0               0               0               0    0.0057887568   1.4829014e-06   2.0076228e-06
    0.067267267       0.9983621               0               0               0               0               0     0.005864551   1.4832194e-06    2.007864e-06
    0.069369369      0.99827675               0               0               0               0               0    0.0059527595    1.483557e-06   2.0081201e-06
    0.071471471      0.99818198               0               0               0               0               0    0.0060498192   1.4839085e-06   2.0083868e-06
    0.073573574      0.99808721               0               0               0               0               0    0.0061468789     1.48426e-06   2.0086535e-06
    0.075675676      0.99796385               0               0               0               0               0    0.0062753708    1.484649e-06   2.0089487e-06
    0.077777778      0.99784017               0               0               0               0               0    0.0064042196   1.4850385e-06   2.0092442e-06
     0.07987988      0.99767912               0               0               0               0               0    0.0065609491   1.4854478e-06   2.0095547e-06
    0.081981982      0.99749296               0               0               0               0               0    0.0067364234   1.4858703e-06   2.0098754e-06
    0.084084084      0.99728485               0               0               0               0               0    0.0069473001   1.4863155e-06   2.0102131e-06
    0.086186186      0.99703978               0               0               0               0               0     0.007217812   1.4867986e-06   2.0105797e-06
    0.088288288      0.99667361               0  -1.7885063e-22               0               0               0     0.007522733   1.4872559e-06   2.0109267e-06
     0.09039039       0.9959901               0  -8.2638898e-22               0               0               0    0.0079178249   1.4876456e-06   2.0112224e-06
    0.092492492      0.99533476               0   1.9815553e-17               0               0               0    0.0085463269    1.487807e-06   2.0113447e-06
    0.094594595      0.99475366               0   9.1886644e-17               0               0               0    0.0097902983   1.4873662e-06   2.0110098e-06
    0.096696697      0.90673009               0   1.3972339e-16  -0.00050236547  -3.0967443e-06               0     0.010657179    1.355918e-06   1.8334984e-06
    0.098798799      0.64610419               0   1.3972406e-16    -0.001996348  -1.2306139e-05               0     0.010779723    9.658747e-07   1.3062594e-06
      0.1009009      0.38553053               0   1.0834822e-16   -0.0031730771  -1.7611724e-05  -2.0825944e-18    0.0098904635   5.7614815e-07   7.7930377e-07
       0.103003      0.12502651               0   3.5137035e-17   -0.0039268015  -1.7712231e-05  -6.9419813e-18    0.0076521341   1.8684391e-07   2.5272611e-07
     0.10510511               0               0               0   -0.0038661007  -1.3022761e-05  -9.3436589e-18    0.0058794684   7.8315715e-13               0
     0.10720721               0               0               0    -0.003053801  -3.9128219e-06  -9.4772196e-18    0.0045365443   5.3896754e-13               0
     0.10930931               0               0               0   -0.0026640423  -1.7738852e-07  -6.8327539e-18      0.00404831   4.2544994e-13               0
     0.11141141               0               0               0   -0.0025605617  -8.3268175e-08  -2.3061311e-18    0.0041391416   4.0046469e-13               0
     0.11351351               0               0               0   -0.0024978464  -3.9117571e-08  -6.6346309e-19    0.0042657675   3.8555485e-13               0
     0.11561562               0               0               0   -0.0024564942   -2.115366e-08  -5.3213452e-19    0.0044111514   3.7592504e-13               0
     0.11771772               0               0               0   -0.0024236066  -1.4451972e-08   -3.180806e-19    0.0044674502   3.6834129e-13               0
     0.11981982               0               0               0   -0.0023943549  -1.2588103e-08  -6.8491045e-20    0.0044854815   3.6163644e-13               0
     0.12192192               0               0               0   -0.0023683069  -1.1468916e-08               0    0.0044678282   3.5571404e-13               0
     0.12402402               0               0               0   -0.0023434706  -1.0631368e-08               0    0.0044366791   3.5008755e-13               0
     0.12612613               0               0               0   -0.0023208872   -9.956394e-09               0     0.004402602   3.4500852e-13               0
     0.12822823               0               0               0   -0.0022991215  -9.3404292e-09               0    0.0043674621    3.401282e-13               0
     0.13033033               0               0               0   -0.0022791472   -8.811994e-09               0    0.0043333834   3.3567854e-13               0
     0.13243243               0               0               0   -0.0022598585  -8.3170656e-09               0     0.004299711   3.3139374e-13               0
     0.13453453               0               0               0   -0.0022419699  -7.8875434e-09  -1.2570971e-19    0.0042661095   3.2744252e-13               0
     0.13663664               0               0               0   -0.0022247007  -7.4869555e-09  -3.0703105e-19    0.0042325396   3.2363888e-13               0
     0.13873874               0               0               0   -0.0022084976  -7.1325101e-09  -3.7169671e-19    0.0041993065   3.2008737e-13               0
     0.14084084               0               0               0   -0.0021928854  -6.8036427e-09  -3.7169674e-19    0.0041662603   3.1667562e-13               0
     0.14294294               0               0               0   -0.0021780706  -6.5049918e-09   -3.548397e-19    0.0041339732   3.1345104e-13               0
     0.14504505               0               0               0   -0.0021638507  -6.2288931e-09  -3.2540127e-19    0.0041022527   3.1036615e-13               0
     0.14714715               0               0               0   -0.0021502045   -5.972147e-09  -2.4528503e-19    0.0040713925   3.0741494e-13               0
     0.14924925               0               0               0    -0.002137179   -5.736341e-09  -1.1033309e-19    0.0040414632   3.0460839e-13               0
     0.15135135               0               0               0   -0.0021245331  -5.5123257e-09  -1.6786657e-20     0.004012211   3.0188966e-13               0
     0.15345345               0               0               0   -0.0021125457  -5.3087701e-09   4.9106352e-21    0.0039841338   2.9932332e-13               0
     0.15555556               0               0               0   -0.0021007656   -5.111246e-09  -8.3890198e-21    0.0039564424    2.968046e-13               0
     0.15765766               0               0               0   -0.0020896883  -4.9341799e-09  -1.4039165e-19    0.0039300599   2.9444741e-13               0
     0.15975976               0               0               0   -0.0020786639  -4.7585566e-09  -2.4894598e-19    0.0039037795   2.9210228e-13               0
     0.16186186               0               0               0   -0.0020683903  -4.6034353e-09  -2.4300619e-20    0.0038789511    2.899286e-13               0
     0.16396396               0               0               0   -0.0020581167   -4.448314e-09   2.0034475e-19    0.0038541227   2.8775492e-13               0
     0.16606607               0               0               0   -0.0020484715  -4.3093061e-09   2.2755722e-19    0.0038305648   2.8572385e-13               0
     0.16816817               0               0               0    -0.002038913  -4.1725193e-09   2.2755725e-19    0.0038071819   2.8371242e-13               0
     0.17027027               0               0               0   -0.0020297808  -4.0460865e-09   1.3033171e-19    0.0037846997   2.8179718e-13               0
     0.17237237               0               0               0   -0.0020208623   -3.924843e-09  -1.5621884e-20    0.0037626689   2.7993015e-13               0
     0.17447447               0               0               0   -0.0020121893  -3.8092965e-09  -9.9307702e-20      0.00374116    2.781182e-13               0
     0.17657658               0               0               0   -0.0020038463  -3.7014067e-09  -9.9307714e-20    0.0037203527   2.7638028e-13               0
     0.17867868               0               0               0   -0.0019955862  -3.5953509e-09  -1.0456273e-19     0.003699726   2.7466084e-13               0
     0.18078078               0               0               0   -0.0019877628  -3.4989713e-09   -1.375412e-19    0.0036800522   2.7303886e-13               0
     0.18288288               0               0               0   -0.0019799394  -3.4025917e-09  -1.7051966e-19    0.0036603785   2.7141688e-13               0
     0.18498498               0               0               0   -0.0019725228  -3.3148274e-09  -1.1385192e-19    0.0036415951   2.6988518e-13               0
     0.18708709               0               0               0   -0.0019651706  -3.2284275e-09  -4.2986856e-20    0.0036229528   2.6836779e-13               0
     0.18918919               0               0               0   -0.0019580487    -3.14669e-09     2.97048e-20    0.0036048139   2.6690127e-13               0
     0.19129129               0               0               0    -0.001951125  -3.0689662e-09   1.0396894e-19    0.0035871083   2.6547855e-13               0
     0.19339339               0               0               0    -0.001944272  -2.9926006e-09   1.5236885e-19    0.0035695655   2.6407138e-13               0
      0.1954955               0               0               0     -0.00193774  -2.9223998e-09    8.337277e-20    0.0035527612   2.6273476e-13               0
      0.1975976               0               0               0   -0.0019312079   -2.852199e-09   1.4376688e-20     0.003535957   2.6139814e-13               0
      0.1996997               0               0               0   -0.0019249602  -2.7872731e-09               0    0.0035197678   2.6012375e-13               0
      0.2018018               0               0               0   -0.0019187873  -2.7237355e-09               0    0.0035037405   2.5886575e-13               0
      0.2039039               0               0               0   -0.0019127363  -2.6623782e-09  -1.9830649e-20    0.0034879803    2.576343e-13               0
     0.20600601               0               0               0   -0.0019068932  -2.6047417e-09  -7.3504596e-20    0.0034726761   2.5644817e-13               0
     0.20810811               0               0               0   -0.0019010501  -2.5471051e-09  -1.2717854e-19    0.0034573719   2.5526204e-13               0
     0.21021021               0               0               0   -0.0018954847  -2.4941685e-09  -1.3185821e-19     0.003442728   2.5413616e-13               0
     0.21231231               0               0               0   -0.0018899458  -2.4416808e-09  -1.3185823e-19    0.0034281472   2.5301603e-13               0
     0.21441441               0               0               0   -0.0018845252  -2.3911381e-09  -1.0994406e-19    0.0034138231   2.5192148e-13               0
     0.21651652               0               0               0   -0.0018792678   -2.343277e-09  -5.7816314e-20    0.0033998529   2.5086218e-13               0
     0.21861862               0               0               0   -0.0018740104   -2.295416e-09  -5.6885711e-21    0.0033858828   2.4980289e-13               0
     0.22072072               0               0               0   -0.0018689851  -2.2512771e-09               0    0.0033724103   2.4879356e-13               0
     0.22282282               0               0               0   -0.0018639882  -2.2075942e-09               0    0.0033589988   2.4779034e-13               0
     0.22492492               0               0               0   -0.0018590693  -2.1650959e-09               0    0.0033457722   2.4680387e-13               0
     0.22702703               0               0               0   -0.0018543142  -2.1250819e-09               0    0.0033329333   2.4585251e-13               0
     0.22912913               0               0               0   -0.0018495591   -2.085068e-09               0    0.0033200944   2.4490114e-13               0
     0.23123123               0               0               0   -0.0018449651  -2.0474012e-09  -2.7746043e-20    0.0033076214   2.4398421e-13               0
     0.23333333               0               0               0   -0.0018404354  -2.0106706e-09  -6.6557089e-20    0.0032952944   2.4308101e-13               0
     0.23543544               0               0               0   -0.0018359195   -1.974138e-09  -1.0043905e-19    0.0032829959   2.4218074e-13               0
     0.23753754               0               0               0      -0.0018316  -1.9404326e-09  -6.3982214e-20    0.0032711051   2.4132229e-13               0
     0.23963964               0               0               0   -0.0018272805  -1.9067271e-09  -2.7525374e-20    0.0032592143   2.4046384e-13               0
     0.24174174               0               0               0   -0.0018230342  -1.8740332e-09   9.3456869e-21    0.0032474888   2.3962091e-13               0
     0.24384384               0               0               0   -0.0018189108  -1.8430395e-09   4.6912927e-20    0.0032360412   2.3880406e-13               0
     0.24594595               0               0               0   -0.0018147875  -1.8120458e-09   8.4480166e-20    0.0032245935   2.3798721e-13               0
     0.24804805               0               0               0   -0.0018107809  -1.7825687e-09    7.573398e-20    0.0032134306   2.3719506e-13               0
     0.25015015               0               0               0   -0.0018068413  -1.7539598e-09   4.0470224e-20    0.0032024308   2.3641706e-13               0
     0.25225225               0               0               0   -0.0018029017   -1.725351e-09   5.2064668e-21     0.003191431   2.3563906e-13               0
     0.25435435               0               0               0   -0.0017991093  -1.6986132e-09               0    0.0031807464   2.3489209e-13               0
     0.25645646               0               0               0   -0.0017953424  -1.6721994e-09               0    0.0031701165   2.3415049e-13               0
     0.25855856               0               0               0   -0.0017915789   -1.645828e-09   5.8733981e-22    0.0031594933   2.3340959e-13               0
     0.26066066               0               0               0   -0.0017879741  -1.6214665e-09   2.9106057e-20    0.0031491901   2.3270203e-13               0
     0.26276276               0               0               0   -0.0017843693  -1.5971051e-09   5.7624775e-20     0.003138887   2.3199448e-13               0
     0.26486486               0               0               0   -0.0017807857  -1.5729977e-09   8.2187105e-20    0.0031286332   2.3129135e-13               0
     0.26696697               0               0               0   -0.0017773332  -1.5504676e-09   8.2187124e-20    0.0031186858   2.3061567e-13               0
     0.26906907               0               0               0   -0.0017738807  -1.5279375e-09   8.2187144e-20    0.0031087385      2.2994e-13               0
     0.27117117               0               0               0   -0.0017704576  -1.5057389e-09   7.6554648e-20    0.0030988631   2.2927046e-13               0
     0.27327327               0               0               0   -0.0017671488  -1.4848276e-09   4.9049836e-20    0.0030892671   2.2862478e-13               0
     0.27537538               0               0               0     -0.00176384  -1.4639162e-09   2.1545025e-20    0.0030796711   2.2797911e-13               0
     0.27747748               0               0               0   -0.0017605607  -1.4433324e-09  -5.1579536e-21    0.0030701373   2.2733956e-13               0
     0.27957958               0               0               0   -0.0017573879  -1.4239322e-09  -2.8962251e-20    0.0030608281   2.2672218e-13               0
     0.28168168               0               0               0   -0.0017542151   -1.404532e-09  -5.2766548e-20    0.0030515189    2.261048e-13               0
     0.28378378               0               0               0   -0.0017510644  -1.3853786e-09  -7.2470499e-20    0.0030422532     2.25492e-13               0
     0.28588589               0               0               0     -0.00174802  -1.3674109e-09  -7.2470519e-20    0.0030331969   2.2490126e-13               0
     0.28798799               0               0               0   -0.0017449756  -1.3494431e-09  -7.2470538e-20    0.0030241405   2.2431051e-13               0
     0.29009009               0               0               0   -0.0017419396  -1.3315644e-09  -7.0885245e-20    0.0030151038    2.237215e-13               0
     0.29219219               0               0               0   -0.0017390165  -1.3148824e-09  -4.7980829e-20    0.0030063302   2.2315584e-13               0
     0.29429429               0               0               0   -0.0017360933  -1.2982004e-09  -2.5076412e-20    0.0029975566   2.2259018e-13               0
      0.2963964               0               0               0   -0.0017331702  -1.2815183e-09   -2.171996e-21     0.002988783   2.2202452e-13               0
      0.2984985               0               0               0   -0.0017303513  -1.2658631e-09               0    0.0029802713   2.2148034e-13               0
      0.3006006               0               0               0   -0.0017275432  -1.2503153e-09               0    0.0029717871   2.2093842e-13               0
      0.3027027               0               0               0   -0.0017247352  -1.2347676e-09               0    0.0029633028    2.203965e-13               0
      0.3048048               0               0               0   -0.0017220014  -1.2199411e-09   1.2705561e-20    0.0029549755   2.1986984e-13               0
     0.30690691               0               0               0   -0.0017193029  -1.2054578e-09   3.1456211e-20    0.0029467228   2.1935044e-13               0
     0.30900901               0               0               0   -0.0017166045  -1.1909744e-09   5.0206861e-20    0.0029384701   2.1883105e-13               0
     0.31111111               0               0               0   -0.0017139459  -1.1768823e-09   5.8368675e-20    0.0029302947   2.1831984e-13               0
     0.31321321               0               0               0   -0.0017113514  -1.1634181e-09    4.953505e-20    0.0029222432   2.1782178e-13               0
     0.31531532               0               0               0   -0.0017087569  -1.1499539e-09   4.0701424e-20    0.0029141918   2.1732371e-13               0
     0.31741742               0               0               0   -0.0017061645  -1.1365094e-09   3.2026616e-20     0.002906145   2.1682608e-13               0
     0.31951952               0               0               0   -0.0017036688  -1.1239764e-09   3.0690607e-20    0.0028983146    2.163482e-13               0
     0.32162162               0               0               0    -0.001701173  -1.1114434e-09   2.9354598e-20    0.0028904841   2.1587033e-13               0
     0.32372372               0               0               0   -0.0016986772  -1.0989103e-09   2.8018589e-20    0.0028826537   2.1539246e-13               0
     0.32582583               0               0               0   -0.0016962366  -1.0868635e-09   3.2431291e-20      0.00287496   2.1492583e-13               0
     0.32792793               0               0               0   -0.0016938349  -1.0751593e-09   4.0895284e-20    0.0028673625   2.1446714e-13               0
     0.33003003               0               0               0   -0.0016914332  -1.0634551e-09   4.9359278e-20    0.0028597651   2.1400845e-13               0
     0.33213213               0               0               0   -0.0016890384  -1.0518096e-09   5.5943555e-20    0.0028521835   2.1355116e-13               0
     0.33423423               0               0               0   -0.0016867265  -1.0408671e-09   4.0008693e-20    0.0028447922   2.1311075e-13               0
     0.33633634               0               0               0   -0.0016844147  -1.0299246e-09   2.4073832e-20     0.002837401   2.1267034e-13               0
     0.33843844               0               0               0   -0.0016821028  -1.0189821e-09   8.1389714e-21    0.0028300097   2.1222992e-13               0
     0.34054054               0               0               0    -0.001679833  -1.0083962e-09  -1.0206677e-20    0.0028227023   2.1179803e-13               0
     0.34264264               0               0               0    -0.001677607  -9.9818256e-10  -3.1069206e-20    0.0028154826   2.1137504e-13               0
     0.34474474               0               0               0    -0.001675381  -9.8796892e-10  -5.1931735e-20    0.0028082629   2.1095205e-13               0
     0.34684685               0               0               0   -0.0016731551  -9.7775528e-10  -7.2794264e-20    0.0028010432   2.1052906e-13               0
     0.34894895               0               0               0   -0.0016709962   -9.681085e-10  -7.6554961e-20      0.00279396   2.1011966e-13               0
     0.35105105               0               0               0   -0.0016688522  -9.5858637e-10   -7.655499e-20    0.0027869069   2.0971325e-13               0
     0.35315315               0               0               0   -0.0016667081  -9.4906425e-10   -7.655502e-20    0.0027798537   2.0930683e-13               0
     0.35525526               0               0               0   -0.0016645691  -9.3958264e-10  -7.4461787e-20    0.0027728127   2.0890144e-13               0
     0.35735736               0               0               0   -0.0016625033  -9.3068474e-10   -4.221778e-20    0.0027659463   2.0851081e-13               0
     0.35945946               0               0               0   -0.0016604374  -9.2178684e-10  -9.9737727e-21      0.00275908   2.0812017e-13               0
     0.36156156               0               0               0   -0.0016583715  -9.1288893e-10   2.2270234e-20    0.0027522136   2.0772953e-13               0
     0.36366366               0               0               0   -0.0016563222  -9.0411418e-10   4.7390737e-20    0.0027453894   2.0734223e-13               0
     0.36576577               0               0               0   -0.0016543312  -8.9577368e-10   4.7390757e-20    0.0027387137   2.0696669e-13               0
     0.36786787               0               0               0   -0.0016523403  -8.8743319e-10   4.7390777e-20    0.0027320379   2.0659114e-13               0
     0.36996997               0               0               0   -0.0016503494   -8.790927e-10   4.7390797e-20    0.0027253621    2.062156e-13               0
     0.37207207               0               0               0    -0.001648379  -8.7090239e-10   4.4058768e-20    0.0027187292   2.0584416e-13               0
     0.37417417               0               0               0   -0.0016464601  -8.6309128e-10   3.2313239e-20    0.0027122042   2.0548308e-13               0
     0.37627628               0               0               0   -0.0016445412  -8.5528018e-10   2.0567709e-20    0.0027056792   2.0512199e-13               0
     0.37837838               0               0               0   -0.0016426224  -8.4746907e-10   8.8221801e-21    0.0026991542   2.0476091e-13               0
     0.38048048               0               0               0   -0.0016407207  -8.3978557e-10  -1.2771756e-21    0.0026926623   2.0440327e-13               0
     0.38258258               0               0               0   -0.0016388709  -8.3248715e-10  -6.4086539e-21    0.0026862705   2.0405602e-13               0
     0.38468468               0               0               0   -0.0016370211  -8.2518873e-10  -1.1540132e-20    0.0026798787   2.0370877e-13               0
     0.38678679               0               0               0   -0.0016351713   -8.178903e-10  -1.6671611e-20    0.0026734869   2.0336151e-13               0
     0.38888889               0               0               0   -0.0016333288  -8.1064525e-10  -2.1768666e-20    0.0026671115   2.0301574e-13               0