/*--------------------------------*- C++ -*----------------------------------*\
  =========                 |
  \\      /  F ield         | OpenFOAM: The Open Source CFD Toolbox
   \\    /   O peration     | Website:  https://openfoam.org
    \\  /    A nd           | Version:  12
     \\/     M anipulation  |
\*---------------------------------------------------------------------------*/
FoamFile
{
    format      ascii;
    class       volScalarField;
    location    "1100";
    object      k;
}
// * * * * * * * * * * * * * * * * * * * * * * * * * * * * * * * * * * * * * //

dimensions      [0 2 -2 0 0 0 0];

internalField   nonuniform List<scalar> 
7480
(
4.8454599e-08
4.7277133e-08
4.613429e-08
4.5160987e-08
4.4474018e-08
4.4158187e-08
4.4334655e-08
4.482418e-08
4.5765246e-08
4.6765681e-08
4.986658e-08
4.7733944e-08
5.4426921e-05
0.0014634927
0.003759013
0.005827783
0.0072544251
0.0080447426
0.0084667654
0.0084516686
0.0083613944
0.0081940165
0.0079883505
0.0077712133
0.0075516086
0.0073339958
0.0071224474
0.0069224744
0.006739477
0.0065708316
0.0064162926
0.0062763864
0.0061513141
0.0060406493
0.0059433863
0.00585819
0.0057834719
0.0057177498
0.0056600218
0.0056095345
0.0055652936
0.0055261302
0.0054910177
0.0054589389
0.0054294533
0.0054012663
0.0053741143
0.0053475574
0.0053211651
0.0052946554
0.0052677216
0.005239999
0.0052112521
0.0051814737
0.0051508355
0.005119571
0.005087905
0.0050560655
0.0050242548
0.0049926048
0.0049611792
0.0049300095
0.0048991375
0.004868635
0.004838572
0.0048089854
0.0047799107
0.0047513737
0.004723343
0.0046957421
0.0046685137
0.0046416499
0.0046151635
0.004589061
0.0045633625
0.0045380903
0.0045132191
0.0044886952
0.004464484
0.0044405837
0.0044170052
0.0043937669
0.0043708826
0.0043483282
0.004326059
0.0043040596
0.0042823291
0.0042608822
0.004239734
0.0042188598
0.0041982243
0.0041778165
0.0041576428
0.0041376917
0.0041179859
0.0040983356
0.0040791272
0.0040588265
0.0040416497
0.0040102666
4.8922212e-08
4.8619084e-08
4.8305663e-08
4.7980903e-08
4.7643984e-08
4.7295116e-08
4.6936904e-08
4.656967e-08
4.6200157e-08
4.5804482e-08
4.5491962e-08
4.4833876e-08
5.3472109e-07
1.3721608e-05
8.4834996e-05
0.00028316433
0.00060083231
0.00096825452
0.0013222568
0.0016039403
0.0018119338
0.001967696
0.0020990389
0.0022247635
0.0023815027
0.0025548621
0.0027520261
0.003000188
0.0032669392
0.0035413655
0.0038140654
0.0040763452
0.0043204828
0.004540604
0.0047330541
0.004896889
0.0050317512
0.005141151
0.0052319576
0.0053079764
0.0053685879
0.0054143663
0.0054472586
0.0054677851
0.0054799588
0.0054781291
0.0054707784
0.0054571087
0.0054380561
0.0054145563
0.0053872402
0.0053565912
0.0053237507
0.0052901185
0.0052568239
0.0052244714
0.005193349
0.0051636042
0.0051348264
0.0051067353
0.0050792712
0.0050524697
0.0050263389
0.0050008713
0.004976062
0.0049518796
0.0049283057
0.0049050895
0.0048818673
0.0048584977
0.004835073
0.0048117512
0.0047886535
0.0047658477
0.0047434007
0.0047212486
0.0046991903
0.0046771174
0.0046550839
0.00463321
0.0046115789
0.0045902615
0.004569202
0.0045482563
0.0045273643
0.0045065805
0.0044859833
0.0044656552
0.0044455591
0.0044255903
0.0044057116
0.004385962
0.0043664137
0.0043470764
0.004327881
0.0043087689
0.0042897865
0.0042705549
0.0042534534
0.0042232978
4.9048393e-08
4.8749204e-08
4.8445478e-08
4.8135658e-08
4.7819363e-08
4.7496543e-08
4.7166896e-08
4.6831539e-08
4.6485551e-08
4.6148349e-08
4.5732851e-08
4.5616382e-08
3.9840968e-08
5.8007599e-08
4.2544201e-07
2.7204771e-06
1.1368291e-05
2.9929102e-05
6.0315861e-05
0.00010173961
0.00015139911
0.00020583594
0.00026233514
0.00031885885
0.00037789301
0.00044132225
0.00051119438
0.00059405109
0.00069344594
0.00081632663
0.00097680564
0.0011592794
0.001357768
0.0015705365
0.0017963172
0.0020330662
0.0022790977
0.0025332011
0.0027859049
0.0030295782
0.0032580658
0.0034643061
0.0036443737
0.0038001686
0.0039354526
0.0040541036
0.0041555398
0.0042395499
0.0043075136
0.0043616074
0.0043997227
0.0044265178
0.0044457922
0.0044596963
0.0044692569
0.0044751028
0.004478135
0.0044792651
0.0044790177
0.0044775268
0.0044749764
0.0044715599
0.004467409
0.00446269
0.0044575363
0.0044519887
0.0044460637
0.0044394263
0.0044318193
0.0044233517
0.0044142367
0.0044046278
0.0043946313
0.0043843307
0.00437383
0.004363007
0.0043516394
0.0043397289
0.0043274305
0.0043148974
0.0043022157
0.0042894812
0.00427659
0.0042633894
0.0042498773
0.0042361668
0.0042223626
0.0042085707
0.0041947166
0.0041806845
0.0041664748
0.0041521667
0.0041378621
0.0041235659
0.0041091813
0.0040947105
0.0040801151
0.0040654443
0.0040520177
0.0040284587
4.9688782e-08
4.9384539e-08
4.9075579e-08
4.8760524e-08
4.843907e-08
4.8111154e-08
4.7776772e-08
4.7435941e-08
4.7088722e-08
4.6734874e-08
4.6375886e-08
4.6003673e-08
4.5660919e-08
4.5013197e-08
4.506902e-08
4.7054786e-08
6.2377296e-08
1.4181834e-07
4.6405452e-07
1.2970386e-06
2.8764006e-06
5.3511905e-06
8.8129114e-06
1.3328683e-05
1.900618e-05
2.6112823e-05
3.4985469e-05
4.617392e-05
6.0421142e-05
7.8693707e-05
0.00010270906
0.00013445398
0.00017698064
0.00023265199
0.00030418329
0.0003950831
0.00051090251
0.00065814285
0.00082605722
0.0010116978
0.0012179701
0.001445949
0.001691497
0.0019404092
0.0021844364
0.0024178425
0.0026349272
0.0028299844
0.0030037711
0.0031568878
0.0032905821
0.0034085291
0.0035087185
0.0035930025
0.0036636595
0.0037229883
0.0037737526
0.0038175671
0.0038538864
0.0038845153
0.0039107749
0.003933656
0.0039538975
0.0039719802
0.0039880782
0.004002292
0.0040147395
0.0040254876
0.0040345298
0.004041995
0.0040480431
0.0040528081
0.004056431
0.0040590402
0.0040607608
0.0040614535
0.0040609877
0.0040595029
0.0040571948
0.0040542024
0.0040506082
0.0040465304
0.0040418235
0.0040363771
0.0040302751
0.0040236704
0.0040166704
0.0040093907
0.004001715
0.0039935495
0.0039849489
0.0039760236
0.0039668896
0.0039575327
0.0039478465
0.0039378837
0.003927586
0.0039172247
0.0039074105
0.0038899981
5.0264386e-08
4.9956933e-08
4.9644808e-08
4.932655e-08
4.9001826e-08
4.8670566e-08
4.8332767e-08
4.7988441e-08
4.7637629e-08
4.7280283e-08
4.6916705e-08
4.6545881e-08
4.6171159e-08
4.5784263e-08
4.5390886e-08
4.4999245e-08
4.4624326e-08
4.4236676e-08
4.4160956e-08
4.4937077e-08
4.8004447e-08
5.6227516e-08
7.4782381e-08
1.1230491e-07
1.8182572e-07
3.0152721e-07
4.9531094e-07
7.9527237e-07
1.24649e-06
1.9124024e-06
2.8913121e-06
4.3346779e-06
6.4807518e-06
9.7217389e-06
1.4668105e-05
2.2212e-05
3.3764745e-05
5.1139752e-05
7.8028432e-05
0.00011791102
0.00017431892
0.0002521495
0.00035833118
0.00050092486
0.00066892391
0.00085591935
0.0010625379
0.0012894573
0.0015224169
0.0017536351
0.0019761253
0.0021844827
0.0023729849
0.0025423765
0.002693539
0.0028281865
0.0029500138
0.0030568198
0.0031490496
0.0032287289
0.0032983747
0.0033602394
0.0034156709
0.0034652516
0.0035094704
0.0035490781
0.0035848823
0.0036167066
0.0036448735
0.0036700594
0.0036926404
0.0037129218
0.0037311518
0.0037474969
0.0037620788
0.0037749568
0.0037861719
0.0037958602
0.0038041784
0.0038112515
0.0038171853
0.0038221196
0.0038259154
0.0038285598
0.003830207
0.0038310137
0.0038310772
0.0038305177
0.003829189
0.0038270576
0.0038242356
0.0038208487
0.0038170137
0.0038126911
0.0038077864
0.0038024045
0.0037964878
0.0037904485
0.0037842942
0.0037729733
5.0401794e-08
5.0094319e-08
4.9782295e-08
4.9464206e-08
4.9139693e-08
4.8808682e-08
4.8471169e-08
4.8127174e-08
4.7776727e-08
4.741987e-08
4.7056648e-08
4.6687167e-08
4.6311417e-08
4.5929939e-08
4.5542878e-08
4.5144511e-08
4.4737806e-08
4.4328436e-08
4.391716e-08
4.3506942e-08
4.3096457e-08
4.2689217e-08
4.2295762e-08
4.1936683e-08
4.165365e-08
4.1520378e-08
4.1656411e-08
4.225569e-08
4.3639659e-08
4.6349406e-08
5.1340907e-08
6.0361692e-08
7.6780673e-08
1.0716954e-07
1.6472609e-07
2.7447494e-07
4.8695806e-07
8.8819574e-07
1.6543513e-06
3.092816e-06
5.7142869e-06
1.039337e-05
1.8766897e-05
3.3179086e-05
5.8778386e-05
0.00010032595
0.00016230633
0.0002511906
0.00037480581
0.00052820011
0.00070448987
0.00089804759
0.0011105567
0.0013295449
0.0015446228
0.0017494209
0.0019403329
0.0021139934
0.0022728355
0.0024175768
0.0025493798
0.0026688455
0.002774861
0.0028689954
0.0029531255
0.0030291885
0.0030983016
0.0031604567
0.003215886
0.0032655657
0.0033104861
0.0033512958
0.0033883464
0.003421941
0.0034524562
0.0034798643
0.0035044236
0.0035266068
0.0035466545
0.0035647528
0.0035810696
0.0035957541
0.0036088447
0.0036203941
0.0036305418
0.0036394208
0.0036471297
0.0036537968
0.0036593017
0.0036636942
0.0036671178
0.0036696935
0.003671532
0.0036725797
0.0036727815
0.0036722914
0.0036710533
0.0036695769
0.003667307
0.003662355
5.0345045e-08
5.0038147e-08
4.9726728e-08
4.9409267e-08
4.9085407e-08
4.875507e-08
4.8418255e-08
4.8074982e-08
4.7725282e-08
4.73692e-08
4.7006793e-08
4.6638149e-08
4.6263402e-08
4.5882755e-08
4.5496395e-08
4.5104341e-08
4.4706489e-08
4.4302927e-08
4.3893594e-08
4.3474301e-08
4.3048079e-08
4.2616714e-08
4.2181178e-08
4.1743591e-08
4.1304264e-08
4.0862352e-08
4.0419363e-08
3.997642e-08
3.9532407e-08
3.9088662e-08
3.864829e-08
3.8216784e-08
3.7804621e-08
3.7430428e-08
3.7138948e-08
3.7013639e-08
3.7236012e-08
3.8174044e-08
4.0681997e-08
4.6784724e-08
6.1803527e-08
9.8468235e-08
1.9328196e-07
4.252721e-07
1.0052005e-06
2.3716714e-06
5.2520813e-06
1.109354e-05
2.2232353e-05
4.3671236e-05
8.1534824e-05
0.00014062283
0.00022795939
0.00035122714
0.00050103399
0.00067285859
0.0008603322
0.0010639026
0.0012696842
0.0014676763
0.0016536568
0.0018256928
0.0019831859
0.0021306256
0.0022674948
0.0023944649
0.0025090788
0.0026121851
0.0027050754
0.0027893618
0.0028660014
0.0029354294
0.0029981551
0.0030549804
0.0031068015
0.0031538553
0.00319635
0.0032348331
0.0032698383
0.0033017554
0.0033308605
0.0033574097
0.0033812926
0.0034028734
0.0034224676
0.0034402384
0.0034563236
0.0034708647
0.003483907
0.0034955124
0.0035058067
0.0035149018
0.0035229056
0.0035297906
0.0035355624
0.0035404023
0.0035442463
0.0035476841
0.0035496101
0.0035514821
5.0323833e-08
5.0016947e-08
4.9705516e-08
4.938803e-08
4.9064135e-08
4.8733755e-08
4.8396889e-08
4.8053557e-08
4.7703792e-08
4.7347634e-08
4.6985135e-08
4.6616368e-08
4.6241433e-08
4.5860455e-08
4.5473547e-08
4.5080815e-08
4.4682372e-08
4.4278323e-08
4.3868793e-08
4.3453795e-08
4.3033371e-08
4.2607597e-08
4.2176547e-08
4.1740283e-08
4.1298733e-08
4.0851612e-08
4.039781e-08
3.9937209e-08
3.9472318e-08
3.9004015e-08
3.8532854e-08
3.8059528e-08
3.7584823e-08
3.7111043e-08
3.6636295e-08
3.6160858e-08
3.5687566e-08
3.5216497e-08
3.4748231e-08
3.4287186e-08
3.3846852e-08
3.3454133e-08
3.320503e-08
3.3336019e-08
3.4495412e-08
3.8848286e-08
5.2481818e-08
9.6772519e-08
2.3234749e-07
6.4035353e-07
1.8000036e-06
4.5143939e-06
1.0514667e-05
2.244453e-05
4.6988696e-05
9.0306734e-05
0.00015726888
0.00025859835
0.00039102434
0.00054720259
0.00072157539
0.00090924687
0.0011061663
0.0012961613
0.0014748966
0.0016417584
0.0017962076
0.0019426281
0.0020804851
0.0022094401
0.0023266828
0.002433048
0.0025299338
0.0026186324
0.0026998965
0.0027737728
0.0028405888
0.0029011787
0.0029563334
0.0030065603
0.0030523053
0.0030940954
0.0031320487
0.003166526
0.0031979435
0.0032266363
0.0032528678
0.0032768549
0.0032984957
0.0033181418
0.0033360226
0.0033522701
0.0033670034
0.0033803084
0.0033922307
0.0034029296
0.0034123282
0.0034211052
0.0034276091
0.0034368906
5.0342074e-08
5.0035022e-08
4.9723415e-08
4.9405744e-08
4.9081655e-08
4.8751073e-08
4.8413998e-08
4.8070449e-08
4.7720458e-08
4.7364063e-08
4.7001316e-08
4.6632279e-08
4.6257039e-08
4.5875696e-08
4.5488354e-08
4.5095108e-08
4.4696063e-08
4.429134e-08
4.3881063e-08
4.3465369e-08
4.3044392e-08
4.2618266e-08
4.2187125e-08
4.1751102e-08
4.1310325e-08
4.086493e-08
4.0415027e-08
3.99607e-08
3.950209e-08
3.9039372e-08
3.8572729e-08
3.8102348e-08
3.7628384e-08
3.7151009e-08
3.6670152e-08
3.6185651e-08
3.5695699e-08
3.5201783e-08
3.4706128e-08
3.4209901e-08
3.3713761e-08
3.3222187e-08
3.2732517e-08
3.2246008e-08
3.1766646e-08
3.129468e-08
3.0843326e-08
3.0447663e-08
3.0276145e-08
3.0734187e-08
3.3865848e-08
4.488536e-08
9.013974e-08
2.3725332e-07
7.6322144e-07
2.2984173e-06
6.0666465e-06
1.4350859e-05
3.2759525e-05
6.8335725e-05
0.00012704836
0.00021720239
0.00034190684
0.00049071406
0.00065784818
0.00083665597
0.0010243292
0.0012061798
0.001377106
0.0015373627
0.0016869693
0.0018299959
0.0019656171
0.0020926773
0.0022091591
0.0023158846
0.0024138807
0.0025038319
0.0025860138
0.0026607812
0.002728882
0.002791169
0.0028479086
0.0028994294
0.0029463055
0.0029890993
0.0030282233
0.0030640403
0.0030965827
0.0031262409
0.0031533577
0.0031781751
0.0032009003
0.0032215524
0.0032403096
0.0032574546
0.0032729254
0.0032875258
0.0032990629
0.0033164534
5.0365928e-08
5.0058739e-08
4.9746992e-08
4.9429178e-08
4.9104943e-08
4.8774212e-08
4.8436985e-08
4.8093281e-08
4.7743132e-08
4.7386578e-08
4.702367e-08
4.6654472e-08
4.6279065e-08
4.589755e-08
4.551003e-08
4.5116604e-08
4.4717374e-08
4.4312456e-08
4.3901973e-08
4.3486047e-08
4.3064806e-08
4.2638382e-08
4.2206916e-08
4.1770558e-08
4.1329463e-08
4.0883796e-08
4.0433731e-08
3.997945e-08
3.9521134e-08
3.9058966e-08
3.859313e-08
3.8123816e-08
3.7651214e-08
3.7175512e-08
3.66969e-08
3.621558e-08
3.5731692e-08
3.5245386e-08
3.4756862e-08
3.4266351e-08
3.3774027e-08
3.3280103e-08
3.2784478e-08
3.2285879e-08
3.178229e-08
3.1278476e-08
3.0775628e-08
3.028104e-08
2.9790317e-08
2.9307188e-08
2.8835251e-08
2.8378097e-08
2.7991967e-08
2.7814508e-08
2.8621991e-08
3.2874112e-08
5.3024537e-08
1.2810086e-07
4.3933547e-07
1.5223891e-06
4.5689424e-06
1.1593915e-05
2.8429881e-05
6.2686847e-05
0.00012085345
0.00021212349
0.00033641511
0.00048473544
0.00065006911
0.00082491501
0.0010052425
0.0011778021
0.0013396423
0.0014920602
0.0016358833
0.0017745602
0.0019065408
0.002029504
0.0021427293
0.002247026
0.0023432883
0.0024319139
0.0025129308
0.0025867806
0.0026542102
0.0027157503
0.0027718576
0.0028231297
0.002869849
0.0029124039
0.0029512433
0.0029867841
0.0030193832
0.0030491303
0.0030762509
0.003101127
0.0031237794
0.0031451938
0.0031623542
0.0031886519
5.0391915e-08
5.0084572e-08
4.9772669e-08
4.9454694e-08
4.9130294e-08
4.8799395e-08
4.8461995e-08
4.8118115e-08
4.7767788e-08
4.7411053e-08
4.7047962e-08
4.6678576e-08
4.6302977e-08
4.5921261e-08
4.553353e-08
4.5139888e-08
4.4740439e-08
4.43353e-08
4.3924591e-08
4.3508436e-08
4.3086962e-08
4.2660302e-08
4.2228596e-08
4.179199e-08
4.1350639e-08
4.0904707e-08
4.045436e-08
3.9999774e-08
3.9541133e-08
3.9078627e-08
3.8612451e-08
3.8142807e-08
3.7669903e-08
3.7193952e-08
3.6715171e-08
3.6233785e-08
3.575003e-08
3.5264144e-08
3.4776357e-08
3.4286899e-08
3.3795999e-08
3.3303867e-08
3.2810717e-08
3.2316745e-08
3.182203e-08
3.1326754e-08
3.0831069e-08
3.033518e-08
2.9839069e-08
2.9338868e-08
2.8836672e-08
2.8336134e-08
2.7845554e-08
2.7359927e-08
2.6887696e-08
2.6425528e-08
2.5997582e-08
2.5674813e-08
2.5867415e-08
2.83217e-08
4.1690259e-08
9.9930523e-08
3.6167353e-07
1.3851039e-06
4.5251802e-06
1.201704e-05
3.1157788e-05
6.9677621e-05
0.00013544886
0.00023549965
0.00036751047
0.00052096837
0.00068787879
0.00086031045
0.0010325964
0.0011942857
0.0013467362
0.0014912359
0.0016300279
0.0017632997
0.0018894985
0.002006556
0.0021149836
0.0022155032
0.0023083299
0.002393401
0.002471179
0.0025424749
0.002607654
0.0026670365
0.0027211777
0.0027706388
0.0028159045
0.0028572225
0.0028948996
0.0029294064
0.0029608778
0.0029905527
0.0030146399
0.0030514807
5.0423106e-08
5.0115573e-08
4.9803475e-08
4.9485301e-08
4.9160696e-08
4.8829586e-08
4.8491971e-08
4.8147872e-08
4.779732e-08
4.7440357e-08
4.7077032e-08
4.6707408e-08
4.6331563e-08
4.5949587e-08
4.5561585e-08
4.5167658e-08
4.4767914e-08
4.4362469e-08
4.3951446e-08
4.3534968e-08
4.3113166e-08
4.2686171e-08
4.2254125e-08
4.1817177e-08
4.1375481e-08
4.0929199e-08
4.0478501e-08
4.0023561e-08
3.9564562e-08
3.9101691e-08
3.8635145e-08
3.8165124e-08
3.7691835e-08
3.7215491e-08
3.6736311e-08
3.6254518e-08
3.5770341e-08
3.5284013e-08
3.4795774e-08
3.4305863e-08
3.3814527e-08
3.3322011e-08
3.2828564e-08
3.2334439e-08
3.1839903e-08
3.1345204e-08
3.0850585e-08
3.0356241e-08
2.9862397e-08
2.9369146e-08
2.8876545e-08
2.8384778e-08
2.7893798e-08
2.7404305e-08
2.6908996e-08
2.6414468e-08
2.5925217e-08
2.5446704e-08
2.4977043e-08
2.4522635e-08
2.4088952e-08
2.3755371e-08
2.3768673e-08
2.6206045e-08
4.0712697e-08
1.09147e-07
4.3647268e-07
1.7758015e-06
5.8129544e-06
1.635172e-05
4.2504451e-05
9.2234925e-05
0.00017629353
0.0002922892
0.00043686967
0.00059748372
0.0007645412
0.00093188018
0.0010921124
0.0012431733
0.0013869317
0.0015242916
0.0016573249
0.0017846151
0.0019033488
0.0020137899
0.0021165131
0.0022117525
0.0022993624
0.0023796421
0.002453238
0.0025205561
0.0025820684
0.0026382511
0.0026895094
0.0027363491
0.0027790164
0.0028190497
0.0028518172
0.0029016151
5.0457059e-08
5.0149324e-08
4.9837021e-08
4.9518637e-08
4.9193816e-08
4.8862487e-08
4.8524647e-08
4.8180318e-08
4.7829533e-08
4.7472333e-08
4.7108768e-08
4.67389e-08
4.6362804e-08
4.5980572e-08
4.5592302e-08
4.5198101e-08
4.4798075e-08
4.439234e-08
4.3981018e-08
4.3564234e-08
4.3142118e-08
4.2714803e-08
4.2282431e-08
4.1845151e-08
4.1403117e-08
4.0956494e-08
4.0505449e-08
4.0050158e-08
3.9590804e-08
3.9127576e-08
3.8660669e-08
3.8190284e-08
3.771663e-08
3.7239917e-08
3.6760365e-08
3.6278197e-08
3.579364e-08
3.5306928e-08
3.4818296e-08
3.4327984e-08
3.3836236e-08
3.3343298e-08
3.2849417e-08
3.2354843e-08
3.1859828e-08
3.1364626e-08
3.0869488e-08
3.0374669e-08
2.9880416e-08
2.9386995e-08
2.8894661e-08
2.8403662e-08
2.7914158e-08
2.7426405e-08
2.6940334e-08
2.6456031e-08
2.597353e-08
2.5493201e-08
2.5012642e-08
2.4528871e-08
2.4049202e-08
2.3582572e-08
2.3124161e-08
2.2682305e-08
2.2267268e-08
2.1953903e-08
2.2176658e-08
2.6057336e-08
4.9496573e-08
1.7493358e-07
7.6697447e-07
3.1530893e-06
9.7883072e-06
2.8640036e-05
6.9040588e-05
0.00014177544
0.00024885459
0.00038574338
0.00054232802
0.0007060949
0.00086877345
0.0010261759
0.0011745446
0.0013162506
0.0014514538
0.0015831746
0.0017097871
0.0018286121
0.0019395946
0.0020431513
0.0021393211
0.0022278594
0.002309186
0.0023838751
0.0024522201
0.0025147
0.0025716274
0.0026247977
0.0026685511
0.0027346764
5.0490031e-08
5.0182105e-08
4.9869609e-08
4.9551028e-08
4.9226006e-08
4.8894471e-08
4.8556421e-08
4.8211879e-08
4.7860878e-08
4.7503459e-08
4.7139673e-08
4.6769581e-08
4.639326e-08
4.6010797e-08
4.5622292e-08
4.5227851e-08
4.4827582e-08
4.4421599e-08
4.4010024e-08
4.3592982e-08
4.3170602e-08
4.2743018e-08
4.2310372e-08
4.1872813e-08
4.1430496e-08
4.0983585e-08
4.0532248e-08
4.0076661e-08
3.9617007e-08
3.9153475e-08
3.8686261e-08
3.8215566e-08
3.7741598e-08
3.726457e-08
3.6784699e-08
3.630221e-08
3.581733e-08
3.5330292e-08
3.4841333e-08
3.4350692e-08
3.3858613e-08
3.3365341e-08
3.2871124e-08
3.237621e-08
3.1880849e-08
3.1385293e-08
3.0889791e-08
3.0394594e-08
2.989995e-08
2.9406109e-08
2.8913319e-08
2.8421826e-08
2.7931875e-08
2.7443696e-08
2.6957558e-08
2.6473697e-08
2.5992311e-08
2.5513563e-08
2.5037568e-08
2.4564223e-08
2.4093583e-08
2.3625702e-08
2.3159763e-08
2.2689913e-08
2.2225228e-08
2.1773621e-08
2.1333985e-08
2.0908713e-08
2.0535578e-08
2.0287456e-08
2.1431817e-08
3.1298666e-08
9.0200973e-08
4.3581534e-07
1.9700768e-06
6.8922724e-06
2.2253265e-05
5.7906241e-05
0.00012558868
0.00022900001
0.00036214797
0.00051711313
0.00067830314
0.00083659323
0.00098996726
0.001134796
0.0012735323
0.0014063608
0.0015359958
0.0016609779
0.0017786345
0.001888826
0.0019918852
0.0020876436
0.0021759261
0.0022572041
0.0023316503
0.0024011361
0.0024585954
0.0025452661
5.0520868e-08
5.0212766e-08
4.990009e-08
4.9581326e-08
4.9256117e-08
4.8924392e-08
4.8586148e-08
4.8241409e-08
4.7890208e-08
4.7532587e-08
4.7168596e-08
4.6798299e-08
4.6421769e-08
4.6039095e-08
4.5650375e-08
4.5255714e-08
4.4855222e-08
4.4449012e-08
4.4037205e-08
4.3619926e-08
4.3197305e-08
4.2769476e-08
4.2336581e-08
4.1898768e-08
4.1456195e-08
4.1009024e-08
4.0557424e-08
4.0101571e-08
3.9641647e-08
3.9177844e-08
3.8710356e-08
3.8239384e-08
3.7765137e-08
3.7287828e-08
3.6807674e-08
3.63249e-08
3.5839734e-08
3.5352409e-08
3.4863161e-08
3.437223e-08
3.387986e-08
3.3386297e-08
3.2891787e-08
3.239658e-08
3.1900926e-08
3.1405076e-08
3.090928e-08
3.0413788e-08
2.9918849e-08
2.942471e-08
2.8931617e-08
2.8439811e-08
2.7949533e-08
2.746102e-08
2.6974505e-08
2.6490222e-08
2.6008398e-08
2.5529254e-08
2.5053011e-08
2.4579908e-08
2.4110146e-08
2.3643833e-08
2.3181119e-08
2.2721837e-08
2.2265879e-08
2.1813694e-08
2.1362241e-08
2.0908993e-08
2.0464584e-08
2.0031603e-08
1.9615149e-08
1.9231894e-08
1.8886076e-08
1.9272523e-08
2.4523332e-08
6.057291e-08
3.1126492e-07
1.5060439e-06
5.7524648e-06
2.0211796e-05
5.5073118e-05
0.00012358583
0.00022829712
0.000361977
0.0005170372
0.00067583255
0.00082960362
0.00097784352
0.0011186606
0.0012540189
0.0013840396
0.0015112835
0.0016339423
0.0017494728
0.0018579501
0.0019595806
0.0020536929
0.0021421
0.0022158197
0.0023275076
5.0549658e-08
5.024139e-08
4.9928548e-08
4.9609613e-08
4.928423e-08
4.8952326e-08
4.8613902e-08
4.8268979e-08
4.7917591e-08
4.7559781e-08
4.71956e-08
4.6825111e-08
4.6448387e-08
4.6065515e-08
4.5676593e-08
4.5281726e-08
4.4881023e-08
4.4474598e-08
4.4062572e-08
4.3645068e-08
4.3222217e-08
4.2794154e-08
4.2361022e-08
4.1922969e-08
4.1480151e-08
4.1032732e-08
4.0580881e-08
4.0124775e-08
3.9664596e-08
3.9200534e-08
3.8732785e-08
3.8261552e-08
3.7787041e-08
3.7309465e-08
3.6829045e-08
3.6346002e-08
3.5860567e-08
3.5372971e-08
3.4883452e-08
3.4392249e-08
3.3899606e-08
3.340577e-08
3.2910986e-08
3.2415506e-08
3.1919578e-08
3.1423455e-08
3.0927385e-08
3.0431621e-08
2.993641e-08
2.9442e-08
2.8948636e-08
2.8456561e-08
2.7966015e-08
2.7477234e-08
2.6990451e-08
2.6505892e-08
2.6023783e-08
2.554434e-08
2.5067779e-08
2.459431e-08
2.412414e-08
2.3657469e-08
2.3194487e-08
2.2735419e-08
2.2280427e-08
2.1829629e-08
2.138302e-08
2.0940519e-08
2.0501634e-08
2.0068077e-08
1.9629638e-08
1.9194658e-08
1.8776201e-08
1.8364143e-08
1.8006694e-08
1.756608e-08
1.7768193e-08
2.1537566e-08
5.0501605e-08
2.8250071e-07
1.4376143e-06
5.7887969e-06
2.1623704e-05
5.9732471e-05
0.00013485586
0.00024516146
0.00038280117
0.00053790456
0.00069339013
0.00084212151
0.00098540513
0.0011220275
0.0012536726
0.0013809838
0.0015054731
0.0016251119
0.0017376755
0.0018454548
0.0019365426
0.0020765215
5.0576558e-08
5.0268136e-08
4.9955138e-08
4.9636044e-08
4.9310498e-08
4.8978429e-08
4.8639836e-08
4.8294742e-08
4.7943181e-08
4.7585195e-08
4.7220837e-08
4.6850168e-08
4.6473263e-08
4.6090207e-08
4.5701098e-08
4.5306038e-08
4.4905138e-08
4.4498511e-08
4.4086277e-08
4.3668561e-08
4.3245494e-08
4.2817211e-08
4.2383853e-08
4.1945572e-08
4.1502523e-08
4.1054868e-08
4.060278e-08
4.0146433e-08
3.9686011e-08
3.9221704e-08
3.8753708e-08
3.8282225e-08
3.7807463e-08
3.7329635e-08
3.6848961e-08
3.6365664e-08
3.5879972e-08
3.539212e-08
3.4902343e-08
3.4410882e-08
3.3917981e-08
3.3423885e-08
3.2928842e-08
3.2433102e-08
3.1936915e-08
3.1440531e-08
3.0944203e-08
3.0448179e-08
2.995271e-08
2.9458041e-08
2.896442e-08
2.8472089e-08
2.7981287e-08
2.7492253e-08
2.7005216e-08
2.6520407e-08
2.6038049e-08
2.5558359e-08
2.5081551e-08
2.4607831e-08
2.4137402e-08
2.3670459e-08
2.3207192e-08
2.2747785e-08
2.2292421e-08
2.1841271e-08
2.1394504e-08
2.0952326e-08
2.051481e-08
2.0082129e-08
1.9654059e-08
1.9230038e-08
1.8811406e-08
1.8393321e-08
1.7971395e-08
1.7567674e-08
1.7167627e-08
1.6827205e-08
1.6376415e-08
1.6566485e-08
2.0291821e-08
5.1583404e-08
3.3051785e-07
1.7244539e-06
7.1481635e-06
2.6900055e-05
7.3372785e-05
0.00015893477
0.00027848101
0.00042177163
0.0005766849
0.00072743043
0.00087060838
0.0010086912
0.0011412092
0.0012691802
0.001393613
0.0015172015
0.0016231499
0.0017911282
5.0601695e-08
5.029313e-08
4.9979986e-08
4.9660744e-08
4.9335048e-08
4.9002824e-08
4.8664074e-08
4.8318821e-08
4.7967098e-08
4.7608949e-08
4.7244426e-08
4.6873591e-08
4.6496518e-08
4.6113291e-08
4.5724006e-08
4.5328767e-08
4.4927682e-08
4.4520866e-08
4.4108438e-08
4.3690523e-08
4.3267252e-08
4.283876e-08
4.2405192e-08
4.1966695e-08
4.1523427e-08
4.1075551e-08
4.0623238e-08
4.0166664e-08
3.9706012e-08
3.9241474e-08
3.8773244e-08
3.8301526e-08
3.7826527e-08
3.7348461e-08
3.6867547e-08
3.638401e-08
3.5898077e-08
3.5409982e-08
3.4919962e-08
3.4428258e-08
3.3935113e-08
3.3440772e-08
3.2945485e-08
3.24495e-08
3.1953068e-08
3.145644e-08
3.0959867e-08
3.0463599e-08
2.9967885e-08
2.9472973e-08
2.8979109e-08
2.8486535e-08
2.7995492e-08
2.7506216e-08
2.701894e-08
2.6533893e-08
2.6051297e-08
2.5571371e-08
2.5094329e-08
2.4620378e-08
2.4149719e-08
2.3682548e-08
2.3219054e-08
2.2759418e-08
2.2303816e-08
2.1852416e-08
2.1405379e-08
2.0962864e-08
2.0525028e-08
2.0091995e-08
1.9663956e-08
1.9241041e-08
1.8823268e-08
1.8410799e-08
1.8002452e-08
1.760017e-08
1.7200755e-08
1.6795122e-08
1.6406344e-08
1.6023791e-08
1.5693781e-08
1.5284305e-08
1.5616843e-08
2.0737723e-08
6.7849659e-08
4.9238885e-07
2.5496686e-06
1.1220943e-05
3.8565205e-05
9.9205662e-05
0.00019871195
0.00032884183
0.00047683116
0.00062904928
0.00077400609
0.00091217651
0.0010449837
0.0011756327
0.0012883817
0.0014776947
5.0625191e-08
5.0316492e-08
5.0003213e-08
4.9683833e-08
4.9357996e-08
4.9025629e-08
4.8686733e-08
4.8341331e-08
4.7989458e-08
4.7631157e-08
4.726648e-08
4.689549e-08
4.651826e-08
4.6134874e-08
4.5745426e-08
4.535002e-08
4.4948762e-08
4.4541769e-08
4.4129159e-08
4.3711057e-08
4.3287594e-08
4.2858907e-08
4.2425139e-08
4.1986439e-08
4.1542965e-08
4.109488e-08
4.0642355e-08
4.0185567e-08
3.9724699e-08
3.9259942e-08
3.8791492e-08
3.8319551e-08
3.7844329e-08
3.7366039e-08
3.6884899e-08
3.6401135e-08
3.5914974e-08
3.5426651e-08
3.4936403e-08
3.4444469e-08
3.3951094e-08
3.3456524e-08
3.2961006e-08
3.2464791e-08
3.1968129e-08
3.1471271e-08
3.0974467e-08
3.0477969e-08
2.9982026e-08
2.9486885e-08
2.8992792e-08
2.849999e-08
2.800872e-08
2.7519218e-08
2.7031717e-08
2.6546445e-08
2.6063626e-08
2.5583478e-08
2.5106215e-08
2.4632045e-08
2.4161168e-08
2.3693782e-08
2.3230073e-08
2.2770226e-08
2.2314414e-08
2.1862807e-08
2.1415565e-08
2.097284e-08
2.053478e-08
2.0101522e-08
1.9673199e-08
1.9249947e-08
1.8831874e-08
1.8419113e-08
1.8011821e-08
1.7609969e-08
1.7213852e-08
1.6822058e-08
1.6436716e-08
1.6054446e-08
1.566667e-08
1.5295238e-08
1.4934254e-08
1.4613713e-08
1.4274346e-08
1.507078e-08
2.4718715e-08
1.3208216e-07
9.2664546e-07
4.4508209e-06
1.9469021e-05
6.0228911e-05
0.00014011793
0.00025582928
0.00039593619
0.00054587937
0.00069200536
0.00083292197
0.00095385457
0.0011532837
5.0647158e-08
5.0338335e-08
5.0024929e-08
4.9705421e-08
4.9379452e-08
4.9046952e-08
4.870792e-08
4.836238e-08
4.8010367e-08
4.7651925e-08
4.7287106e-08
4.6915972e-08
4.6538596e-08
4.6155061e-08
4.5765462e-08
4.5369898e-08
4.496848e-08
4.4561321e-08
4.414854e-08
4.3730263e-08
4.330662e-08
4.2877749e-08
4.2443793e-08
4.2004901e-08
4.1561233e-08
4.111295e-08
4.0660225e-08
4.0203235e-08
3.9742162e-08
3.9277199e-08
3.880854e-08
3.8336391e-08
3.7860958e-08
3.7382455e-08
3.6901102e-08
3.6417124e-08
3.5930749e-08
3.5442211e-08
3.4951747e-08
3.4459598e-08
3.3966006e-08
3.3471219e-08
3.2975485e-08
3.2479053e-08
3.1982174e-08
3.1485099e-08
3.098808e-08
3.0491366e-08
2.9995206e-08
2.949985e-08
2.9005542e-08
2.8512526e-08
2.8021042e-08
2.7531327e-08
2.7043614e-08
2.6558131e-08
2.6075102e-08
2.5594746e-08
2.5117276e-08
2.4642899e-08
2.4171818e-08
2.3704229e-08
2.3240319e-08
2.2780272e-08
2.2324263e-08
2.187246e-08
2.1425024e-08
2.0982108e-08
2.0543859e-08
2.0110415e-08
1.9681907e-08
1.9258456e-08
1.8840179e-08
1.8427181e-08
1.8019576e-08
1.7617451e-08
1.7220903e-08
1.6830076e-08
1.6444946e-08
1.6065769e-08
1.5691096e-08
1.5323308e-08
1.4956674e-08
1.4588546e-08
1.4233277e-08
1.3903216e-08
1.357488e-08
1.3423324e-08
1.5673966e-08
4.0011603e-08
3.2544704e-07
2.0442949e-06
9.6378213e-06
3.6275067e-05
9.8550762e-05
0.00019958175
0.00033024777
0.00047874742
0.00061287213
0.00082791348
5.0667704e-08
5.0358764e-08
5.0045242e-08
4.9725613e-08
4.9399523e-08
4.9066898e-08
4.872774e-08
4.8382071e-08
4.8029928e-08
4.7671354e-08
4.7306402e-08
4.6935134e-08
4.6557623e-08
4.617395e-08
4.5784208e-08
4.5388499e-08
4.498693e-08
4.4579616e-08
4.4166675e-08
4.3748233e-08
4.3324421e-08
4.2895376e-08
4.2461243e-08
4.2022172e-08
4.157832e-08
4.1129851e-08
4.0676937e-08
4.0219755e-08
3.975849e-08
3.9293331e-08
3.8824477e-08
3.8352129e-08
3.7876497e-08
3.7397794e-08
3.691624e-08
3.643206e-08
3.5945483e-08
3.5456742e-08
3.4966075e-08
3.4473722e-08
3.3979926e-08
3.3484936e-08
3.2988997e-08
3.2492361e-08
3.1995278e-08
3.1497999e-08
3.1000776e-08
3.0503858e-08
3.0007496e-08
2.9511937e-08
2.9017427e-08
2.852421e-08
2.8032525e-08
2.754261e-08
2.7054697e-08
2.6569016e-08
2.608579e-08
2.5605237e-08
2.5127572e-08
2.4653002e-08
2.4181729e-08
2.3713948e-08
2.3249849e-08
2.2789615e-08
2.2333419e-08
2.1881432e-08
2.1433813e-08
2.0990717e-08
2.055229e-08
2.011867e-08
1.9689988e-08
1.9266366e-08
1.884792e-08
1.8434757e-08
1.8026975e-08
1.7624669e-08
1.7227916e-08
1.6836811e-08
1.6451414e-08
1.6071804e-08
1.5698092e-08
1.5330276e-08
1.496845e-08
1.4611161e-08
1.426177e-08
1.390704e-08
1.3562588e-08
1.3223122e-08
1.2934877e-08
1.2563966e-08
1.2993462e-08
2.0522315e-08
1.1404328e-07
9.2151006e-07
4.8706909e-06
2.2129603e-05
6.8683457e-05
0.000159937
0.00026690617
0.00049148772
5.0686892e-08
5.0377844e-08
5.0064212e-08
4.9744472e-08
4.9418269e-08
4.9085528e-08
4.8746253e-08
4.8400465e-08
4.8048202e-08
4.7689506e-08
4.7324431e-08
4.6953038e-08
4.65754e-08
4.6191599e-08
4.5801726e-08
4.5405882e-08
4.5004173e-08
4.4596714e-08
4.4183624e-08
4.3765028e-08
4.3341058e-08
4.2911851e-08
4.2477552e-08
4.2038311e-08
4.1594287e-08
4.1145644e-08
4.0692552e-08
4.0235191e-08
3.9773744e-08
3.9308402e-08
3.8839363e-08
3.8366829e-08
3.7891009e-08
3.7412118e-08
3.6930376e-08
3.6446006e-08
3.5959238e-08
3.5470306e-08
3.4979448e-08
3.4486903e-08
3.3992917e-08
3.3497734e-08
3.3001604e-08
3.2504777e-08
3.2007502e-08
3.1510032e-08
3.1012617e-08
3.0515508e-08
3.0018955e-08
2.9523206e-08
2.9028506e-08
2.8535099e-08
2.8043226e-08
2.7553123e-08
2.7065024e-08
2.6579156e-08
2.6095745e-08
2.5615008e-08
2.513716e-08
2.4662407e-08