/*--------------------------------*- C++ -*----------------------------------*\
  =========                 |
  \\      /  F ield         | OpenFOAM: The Open Source CFD Toolbox
   \\    /   O peration     | Website:  https://openfoam.org
    \\  /    A nd           | Version:  12
     \\/     M anipulation  |
\*---------------------------------------------------------------------------*/
FoamFile
{
    format      ascii;
    class       volScalarField;
    location    "1100";
    object      k;
}
// * * * * * * * * * * * * * * * * * * * * * * * * * * * * * * * * * * * * * //

dimensions      [0 2 -2 0 0 0 0];

internalField   nonuniform List<scalar> 
13056
(
7.9785152e-05
2.7419329e-05
1.6375938e-05
1.2631046e-05
1.1146588e-05
1.0419465e-05
9.9863447e-06
9.6919979e-06
9.4766402e-06
9.3125792e-06
9.1844527e-06
9.0825671e-06
9.0003348e-06
8.9330922e-06
8.8774462e-06
8.8308865e-06
8.7914761e-06
8.7578744e-06
8.7284159e-06
8.7043275e-06
8.6761305e-06
8.6761506e-06
8.5721312e-06
1.1005207e-05
1.3709394e-09
1.6524373e-08
3.094442e-08
3.4767776e-08
3.3831928e-08
3.1871584e-08
3.0090789e-08
2.8587228e-08
2.7287064e-08
2.615011e-08
2.5149433e-08
2.4260084e-08
2.3440029e-08
2.2688881e-08
2.2000193e-08
2.1368667e-08
2.0788182e-08
2.0251101e-08
1.9752059e-08
1.9287089e-08
1.8851326e-08
1.8442089e-08
1.8056657e-08
1.7692824e-08
1.7348741e-08
1.7022173e-08
1.6712113e-08
1.6416742e-08
1.6134461e-08
1.5864738e-08
1.5606383e-08
1.5358214e-08
1.5119841e-08
1.4890445e-08
1.4669032e-08
1.4455287e-08
1.4248773e-08
1.4048761e-08
1.3854771e-08
1.3666658e-08
1.3482906e-08
1.3303355e-08
1.3128473e-08
1.2958157e-08
1.2792076e-08
1.2629876e-08
1.2471396e-08
1.2316484e-08
1.216484e-08
1.2016198e-08
1.1870464e-08
1.1727542e-08
1.1587175e-08
1.144916e-08
1.1313413e-08
1.117991e-08
1.1048469e-08
1.0918861e-08
1.0790986e-08
1.0664888e-08
1.0540455e-08
1.0417437e-08
1.0295736e-08
1.0175385e-08
1.0056351e-08
9.9384563e-09
9.8215464e-09
9.7056044e-09
9.59068e-09
9.4766256e-09
9.3632296e-09
9.2504464e-09
9.1383729e-09
9.0268952e-09
8.9156871e-09
8.8047751e-09
8.6942803e-09
8.5840959e-09
8.4739966e-09
8.3639126e-09
8.2539372e-09
8.1439196e-09
8.0336169e-09
7.9230314e-09
7.81218e-09
7.7008536e-09
7.5888976e-09
7.4763686e-09
7.3631001e-09
7.2512727e-09
7.1445392e-09
7.043646e-09
6.9473605e-09
6.8560149e-09
6.7693178e-09
6.6868339e-09
6.6081398e-09
6.5329677e-09
6.4611434e-09
6.3924112e-09
6.3264674e-09
6.2630908e-09
6.2021643e-09
6.1435636e-09
6.087111e-09
6.0325591e-09
5.9798134e-09
5.9284329e-09
5.879031e-09
5.8287795e-09
5.7841409e-09
5.7119138e-09
7.9785137e-05
2.7419722e-05
1.6375292e-05
1.2629971e-05
1.1145266e-05
1.041798e-05
9.9847479e-06
9.6903203e-06
9.4749021e-06
9.3107938e-06
9.1826294e-06
9.0807126e-06
8.9984543e-06
8.9311896e-06
8.8755247e-06
8.8289486e-06
8.789524e-06
8.7559096e-06
8.7264398e-06
8.7023408e-06
8.6741472e-06
8.6742012e-06
8.5698832e-06
1.0993409e-05
1.2807081e-08
4.9596921e-07
9.2877713e-07
1.0435326e-06
1.0154441e-06
9.5660598e-07
9.0315686e-07
8.5802865e-07
8.1900522e-07
7.848804e-07
7.5484581e-07
7.2815262e-07
7.0353925e-07
6.8099407e-07
6.6032355e-07
6.4136873e-07
6.2394589e-07
6.0782575e-07
5.9284734e-07
5.7889155e-07
5.658124e-07
5.5352942e-07
5.4196094e-07
5.3104071e-07
5.2071329e-07
5.1091155e-07
5.0160529e-07
4.9273993e-07
4.8426742e-07
4.7617185e-07
4.6841749e-07
4.6096884e-07
4.5381423e-07
4.4692906e-07
4.4028346e-07
4.3386804e-07
4.2766965e-07
4.2166639e-07
4.158439e-07
4.1019781e-07
4.046826e-07
3.9929347e-07
3.9404449e-07
3.8893257e-07
3.8394773e-07
3.7907939e-07
3.7432271e-07
3.696731e-07
3.651216e-07
3.6066022e-07
3.5628609e-07
3.5199637e-07
3.4778332e-07
3.4364089e-07
3.3956651e-07
3.3555948e-07
3.3161437e-07
3.2772426e-07
3.2388614e-07
3.2010139e-07
3.163666e-07
3.1267429e-07
3.0902151e-07
3.0540924e-07
3.018365e-07
2.9829795e-07
2.9478896e-07
2.9130902e-07
2.8785963e-07
2.8443635e-07
2.8103283e-07
2.776477e-07
2.7428388e-07
2.7093793e-07
2.6760008e-07
2.6427112e-07
2.6095467e-07
2.5764755e-07
2.5434298e-07
2.5103886e-07
2.4773801e-07
2.4443589e-07
2.4112521e-07
2.3780605e-07
2.344789e-07
2.3113749e-07
2.2777719e-07
2.2439969e-07
2.21e-07
2.1764356e-07
2.1444001e-07
2.1141175e-07
2.0852179e-07
2.057801e-07
2.0317793e-07
2.0070222e-07
1.9834025e-07
1.96084e-07
1.9392823e-07
1.9186527e-07
1.89886e-07
1.8798378e-07
1.861551e-07
1.8439623e-07
1.8270184e-07
1.8106449e-07
1.7948135e-07
1.7793919e-07
1.7645642e-07
1.7494815e-07
1.7360834e-07
1.7144048e-07
7.9785089e-05
2.7420945e-05
1.6373022e-05
1.2626262e-05
1.1140745e-05
1.0412933e-05
9.9793421e-06
9.684659e-06
9.4690496e-06
9.3047922e-06
9.1765075e-06
9.0744919e-06
8.992151e-06
8.9248165e-06
8.8690919e-06
8.822464e-06
8.7829939e-06
8.7493391e-06
8.7198336e-06
8.6957002e-06
8.6674913e-06
8.6676157e-06
8.562726e-06
1.0966571e-05
5.979507e-08
3.5392168e-06
6.6271174e-06
7.4458474e-06
7.2454582e-06
6.8256768e-06
6.4443379e-06
6.122361e-06
5.8439369e-06
5.6004615e-06
5.3861678e-06
5.1957137e-06
5.0200979e-06
4.8592378e-06
4.7117529e-06
4.576509e-06
4.4521954e-06
4.3371764e-06
4.2303035e-06
4.1307267e-06
4.0374048e-06
3.9497634e-06
3.8672199e-06
3.7893017e-06
3.7156131e-06
3.6456753e-06
3.5792727e-06
3.5160159e-06
3.4555621e-06
3.3977979e-06
3.3424681e-06
3.2893196e-06
3.2382691e-06
3.1891411e-06
3.1417224e-06
3.0959461e-06
3.0517183e-06
3.0088829e-06
2.9673372e-06
2.9270501e-06
2.8876969e-06
2.8492433e-06
2.8117896e-06
2.7753139e-06
2.739745e-06
2.7050072e-06
2.6710662e-06
2.6378892e-06
2.6054121e-06
2.5735782e-06
2.5423667e-06
2.5117576e-06
2.4816954e-06
2.4521372e-06
2.4230645e-06
2.3944724e-06
2.366322e-06
2.338564e-06
2.3111771e-06
2.284171e-06
2.2575213e-06
2.2311747e-06
2.2051102e-06
2.1793347e-06
2.1538412e-06
2.1285917e-06
2.1035531e-06
2.0787218e-06
2.0541085e-06
2.0296814e-06
2.0053953e-06
1.9812405e-06
1.9572376e-06
1.9333623e-06
1.9095448e-06
1.8857906e-06
1.8621258e-06
1.8385274e-06
1.8149473e-06
1.7913704e-06
1.7678167e-06
1.7442541e-06
1.7206303e-06
1.6969459e-06
1.6732045e-06
1.6493615e-06
1.6253835e-06
1.6012828e-06
1.5770238e-06
1.5530733e-06
1.5302138e-06
1.5086051e-06
1.4879833e-06
1.4684194e-06
1.4498512e-06
1.4321852e-06
1.415331e-06
1.399231e-06
1.3838481e-06
1.3691274e-06
1.3550038e-06
1.3414302e-06
1.3283812e-06
1.3158304e-06
1.3037397e-06
1.292056e-06
1.2807592e-06
1.2697547e-06
1.2591741e-06
1.2484114e-06
1.2388509e-06
1.2233816e-06
7.9785008e-05
2.7423039e-05
1.636907e-05
1.2619822e-05
1.1132904e-05
1.0404187e-05
9.96998e-06
9.6748584e-06
9.4589211e-06
9.2944075e-06
9.1659166e-06
9.0637314e-06
8.9812488e-06
8.9137945e-06
8.8579672e-06
8.8112503e-06
8.7717023e-06
8.7379782e-06
8.7084112e-06
8.6842186e-06
8.6559747e-06
8.6561982e-06
8.5504738e-06
1.0923895e-05
1.841378e-07
1.3184146e-05
2.4679176e-05
2.7726714e-05
2.6981202e-05
2.5418989e-05
2.3999725e-05
2.2801301e-05
2.1764916e-05
2.0858575e-05
2.0060832e-05
1.9351809e-05
1.8698002e-05
1.8099112e-05
1.7550005e-05
1.7046461e-05
1.6583603e-05
1.6155343e-05
1.5757406e-05
1.538663e-05
1.5039138e-05
1.4712793e-05
1.4405427e-05
1.4115279e-05
1.3840878e-05
1.3580441e-05
1.3333166e-05
1.3097603e-05
1.2872476e-05
1.2657362e-05
1.2451312e-05
1.2253384e-05
1.2063267e-05
1.1880308e-05
1.1703714e-05
1.1533234e-05
1.136852e-05
1.120899e-05
1.1054263e-05
1.0904222e-05
1.0757658e-05
1.0614443e-05
1.0474951e-05
1.0339101e-05
1.0206627e-05
1.0077248e-05
9.9508361e-06
9.8272687e-06
9.7063075e-06
9.5877408e-06
9.471492e-06
9.3574861e-06
9.245517e-06
9.135424e-06
9.0271388e-06
8.9206433e-06
8.8157926e-06
8.7124029e-06
8.6103948e-06
8.5098044e-06
8.4105413e-06
8.3124065e-06
8.2153221e-06
8.1193137e-06
8.0243555e-06
7.9303054e-06
7.8370407e-06
7.7445477e-06
7.6528659e-06
7.5618778e-06
7.4714145e-06
7.3814395e-06
7.2920302e-06
7.2030959e-06
7.1143761e-06
7.0258922e-06
6.9377406e-06
6.8498362e-06
6.7619994e-06
6.6741741e-06
6.5864352e-06
6.4986622e-06
6.4106612e-06
6.3224341e-06
6.2339944e-06
6.1451754e-06
6.0558535e-06
5.9660741e-06
5.8757041e-06
5.7864835e-06
5.7013265e-06
5.6208289e-06
5.544007e-06
5.4711262e-06
5.4019539e-06
5.3361429e-06
5.2733554e-06
5.2133778e-06
5.156071e-06
5.1012312e-06
5.048616e-06
4.998049e-06
4.9494368e-06
4.9026801e-06
4.8576372e-06
4.8141108e-06
4.7720254e-06
4.7310292e-06
4.6916116e-06
4.6515161e-06
4.6158989e-06
4.5582686e-06
7.9784891e-05
2.7426066e-05
1.6363348e-05
1.26105e-05
1.1121556e-05
1.0391529e-05
9.9564315e-06
9.6606758e-06
9.444264e-06
9.27938e-06
9.1505907e-06
9.0481601e-06
8.9654726e-06
8.8978448e-06
8.841869e-06
8.7950234e-06
8.7553626e-06
8.7215381e-06
8.691882e-06
8.667604e-06
8.639304e-06
8.6396471e-06
8.532827e-06
1.0864066e-05
4.4581402e-07
3.5502438e-05
6.6407437e-05
7.4597169e-05
7.2598113e-05
6.840417e-05
6.459295e-05
6.1373922e-05
5.85895e-05
5.6154027e-05
5.4010052e-05
5.2104272e-05
5.0346673e-05
4.8736542e-05
4.7260112e-05
4.5906078e-05
4.4661352e-05
4.3509582e-05
4.2439294e-05
4.1441994e-05
4.0507269e-05
3.9629379e-05
3.8802501e-05
3.8021907e-05
3.7283644e-05
3.6582919e-05
3.591758e-05
3.5283729e-05
3.4677936e-05
3.4099068e-05
3.3544571e-05
3.3011913e-05
3.2500261e-05
3.2007856e-05
3.1532567e-05
3.1073723e-05
3.0630384e-05
3.0200988e-05
2.9784507e-05
2.9380631e-05
2.8986103e-05
2.860058e-05
2.8225072e-05
2.7859359e-05
2.7502727e-05
2.7154418e-05
2.6814089e-05
2.6481413e-05
2.6155746e-05
2.5836519e-05
2.5523528e-05
2.5216569e-05
2.4915089e-05
2.4618654e-05
2.4327082e-05
2.4040323e-05
2.3757989e-05
2.3479583e-05
2.3204894e-05
2.2934017e-05
2.266671e-05
2.2402437e-05
2.2140988e-05
2.1882433e-05
2.1626702e-05
2.1373412e-05
2.1122233e-05
2.0873129e-05
2.0626206e-05
2.0381147e-05
2.0137498e-05
1.989516e-05
1.9654342e-05
1.94148e-05
1.9175832e-05
1.8937495e-05
1.870005e-05
1.8463268e-05
1.8226663e-05
1.7990086e-05
1.7753738e-05
1.7517295e-05
1.7280233e-05
1.704256e-05
1.6804309e-05
1.6565033e-05
1.6324398e-05
1.6082527e-05
1.5839061e-05
1.5598688e-05
1.5369259e-05
1.515238e-05
1.4945401e-05
1.4749037e-05
1.4562663e-05
1.4385344e-05
1.4216169e-05
1.4054563e-05
1.3900151e-05
1.3752386e-05
1.3610613e-05
1.3474358e-05
1.3343369e-05
1.3217379e-05
1.3096005e-05
1.2978717e-05
1.2865311e-05
1.275484e-05
1.2648621e-05
1.2540575e-05
1.2444597e-05
1.2289296e-05
7.9784734e-05
2.7430112e-05
1.6355739e-05
1.2598097e-05
1.1106452e-05
1.0374678e-05
9.9383911e-06
9.6417883e-06
9.4247426e-06
9.2593635e-06
9.1301756e-06
9.027417e-06
8.9444555e-06
8.8765959e-06
8.8204216e-06
8.7734039e-06
8.7335923e-06
8.6996336e-06
8.6698585e-06
8.6454661e-06
8.6170874e-06
8.6175598e-06
8.5093834e-06
1.0786106e-05
9.264827e-07
7.9229276e-05
0.00014796584
0.00016615573
0.00016174331
0.00015245629
0.00014401058
0.00013687236
0.00013069414
0.00012528755
0.00012052616
0.00011629228
0.00011238622
0.00010880688
0.00010552393
0.00010251244
9.9743473e-05
9.7180786e-05
9.4798959e-05
9.2579189e-05
9.0498361e-05
8.854377e-05
8.6702498e-05
8.4964059e-05
8.3319691e-05
8.1758751e-05
8.0276468e-05
7.8864186e-05
7.7514284e-05
7.6224251e-05
7.4988416e-05
7.3801147e-05
7.2660601e-05
7.1562868e-05
7.0503207e-05
6.9480133e-05
6.8491555e-05
6.7533996e-05
6.6605175e-05
6.5704403e-05
6.4824414e-05
6.3964453e-05
6.3126779e-05
6.2310904e-05
6.1515239e-05
6.0738098e-05
5.9978719e-05
5.9236372e-05
5.8509626e-05
5.7797213e-05
5.7098677e-05
5.641357e-05
5.5740655e-05
5.5078968e-05
5.4428102e-05
5.3787952e-05
5.3157646e-05
5.2536083e-05
5.1922785e-05
5.1317972e-05
5.0721103e-05
5.0130982e-05
4.9547139e-05
4.8969733e-05
4.8398609e-05
4.7832912e-05
4.7271906e-05
4.6715507e-05
4.6163957e-05
4.5616549e-05
4.5072265e-05
4.4530888e-05
4.3992884e-05
4.3457707e-05
4.2923791e-05
4.2391263e-05
4.1860704e-05
4.1331604e-05
4.080288e-05
4.0274195e-05
3.9746e-05
3.9217568e-05
3.8687734e-05
3.8156508e-05
3.7623971e-05
3.7089117e-05
3.6551205e-05
3.6010504e-05
3.5466215e-05
3.4928815e-05
3.4415862e-05
3.3930947e-05
3.3468149e-05
3.3029069e-05
3.2612313e-05
3.221579e-05
3.1837467e-05
3.1476061e-05
3.1130734e-05
3.080026e-05
3.0483181e-05
3.0178434e-05
2.9885458e-05
2.9603655e-05
2.9332174e-05
2.9069824e-05
2.8816152e-05
2.8569039e-05
2.8331435e-05
2.808974e-05
2.7875034e-05
2.7527613e-05
7.9784534e-05
2.7435283e-05
1.6346105e-05
1.2582373e-05
1.1087291e-05
1.0353291e-05
9.9154858e-06
9.6178011e-06
9.3999456e-06
9.233934e-06
9.1042367e-06
9.0010591e-06
8.9177475e-06
8.8495917e-06
8.7931636e-06
8.745926e-06
8.7059217e-06
8.6717914e-06
8.6418643e-06
8.6173258e-06
8.5888435e-06
8.5894385e-06
8.4796512e-06
1.0688569e-05
1.7280116e-06
0.00015636505
0.00029109245
0.00032662751
0.00031813079
0.00030011624
0.00028370672
0.00026981696
0.00025777902
0.00024723306
0.00023793717
0.00022966461
0.00022202651
0.00021502281
0.00020859533
0.00020269623
0.00019726958
0.00019224492
0.00018757292
0.00018321711
0.00017913245
0.0001752943
0.0001716775
0.00016826167
0.00016502975
0.00016196097
0.00015904608
0.00015626816
0.00015361231
0.00015107368
0.00014864118
0.00014630379
0.00014405794
0.00014189597
0.0001398086
0.00013779294
0.0001358449
0.00013395767
0.00013212678
0.00013035091
0.00012861571
0.00012691973
0.00012526747
0.00012365798
0.00012208812
0.00012055461
0.00011905594
0.0001175907
0.00011615606
0.00011474954
0.00011337025
0.00011201731
0.00011068828
0.00010938128
0.0001080955
0.00010683074
0.0001055853
0.00010435699
0.00010314488
0.00010194941
0.00010076952
9.9602846e-05
9.8448458e-05
9.7306678e-05
9.6177205e-05
9.5058351e-05
9.3948659e-05
9.284797e-05
9.1756764e-05
9.0673644e-05
8.95966e-05
8.8525199e-05
8.746037e-05
8.6401034e-05
8.5344088e-05
8.4289786e-05
8.3239282e-05
8.2191563e-05
8.1144485e-05
8.0097382e-05
7.9051147e-05
7.8004342e-05
7.6954654e-05
7.5902103e-05
7.4846849e-05
7.3786901e-05
7.2720782e-05
7.1649028e-05
7.057005e-05
6.950462e-05
6.8487556e-05
6.7525993e-05
6.6608194e-05
6.5737358e-05
6.4910727e-05
6.4124168e-05
6.3373657e-05
6.2656652e-05
6.1971501e-05
6.1315777e-05
6.0686592e-05
6.0081841e-05
5.9500413e-05
5.894113e-05
5.8402302e-05
5.7881571e-05
5.737804e-05
5.6887505e-05
5.641582e-05
5.5936004e-05
5.5509741e-05
5.4819947e-05
7.9784286e-05
2.7441708e-05
1.6334288e-05
1.2563052e-05
1.1063728e-05
1.0326972e-05
9.8872849e-06
9.5882575e-06
9.3693966e-06
9.2025997e-06
9.0722698e-06
8.9685717e-06
8.8848254e-06
8.8163016e-06
8.7595583e-06
8.7120475e-06
8.6718038e-06
8.6374605e-06
8.6073444e-06
8.5826246e-06
8.5540111e-06
8.5546982e-06
8.443064e-06
1.056961e-05
2.9581142e-06
0.00028178691
0.00052141044
0.00058418854
0.0005696012
0.00053822612
0.0005095565
0.00048522098
0.00046407565
0.00044551196
0.00042911985
0.0004145097
0.00040099916
0.00038859516
0.00037719865
0.00036672819
0.00035708704
0.00034815207
0.00033983731
0.00033207931
0.00032479893
0.00031795327
0.0003114983
0.00030539826
0.00029962337
0.00029413698
0.000288923
0.00028395156
0.00027919633
0.00027464891
0.0002702897
0.00026609918
0.00026207114
0.00025819204
0.00025444537
0.00025082611
0.00024732704
0.000243936
0.00024064513
0.00023745213
0.00023433118
0.00023127977
0.00022830614
0.00022540863
0.00022258166
0.00021981934
0.00021711907
0.00021447831
0.00021189202
0.00020935575
0.00020686794
0.00020442707
0.00020202876
0.0001996696
0.00019734819
0.00019506421
0.00019281459
0.0001905954
0.00018840498
0.00018624415
0.00018411101
0.00018200129
0.00017991333
0.00017784773
0.00017580397
0.00017377899
0.00017177017
0.00016977723
0.00016780104
0.0001658391
0.00016388776
0.00016194624
0.00016001624
0.0001580958
0.00015617931
0.00015426722
0.00015236162
0.0001504607
0.00014856055
0.00014665997
0.00014476057
0.00014285976
0.00014095331
0.00013904127
0.00013712392
0.00013519764
0.00013325973
0.00013131117
0.00012934905
0.00012741116
0.00012556085
0.00012381116
0.00012214075
0.00012055554
0.00011905053
0.00011761825
0.00011625139
0.00011494536
0.00011369717
0.00011250243
0.0001113559
0.00011025375
0.00010919397
0.00010817444
0.00010719209
0.00010624263
0.00010532443
0.00010442984
0.00010356954
0.00010269436
0.00010191676
0.00010065825
7.9783983e-05
2.7449537e-05
1.6320118e-05
1.2539835e-05
1.1035382e-05
1.0295285e-05
9.8533112e-06
9.5526501e-06
9.3325653e-06
9.1648123e-06
9.0337121e-06
8.9293803e-06
8.8451045e-06
8.7761324e-06
8.7190051e-06
8.6711616e-06
8.6306261e-06
8.5960234e-06
8.5656773e-06
8.5407367e-06
8.5119613e-06
8.5127065e-06
8.3989659e-06
1.042701e-05
4.6959153e-06
0.00047028886
0.00086120518
0.00096244112
0.00094006189
0.00089071489
0.00084539267
0.00080674698
0.00077302592
0.00074331852
0.00071700939
0.00069349976
0.00067170293
0.00065164862
0.00063318748
0.00061619657
0.00060052585
0.00058598058
0.00057242562
0.0005597615
0.00054786203
0.00053665992
0.00052608534
0.00051608161
0.00050660163
0.00049758663
0.00048901142
0.00048082795
0.00047299384
0.00046549607
0.00045830304
0.00045138324
0.00044472699
0.00043831236
0.00043211258
0.00042611981
0.00042032232
0.00041470036
0.00040924126
0.00040394148
0.00039875807
0.00039368719
0.0003887429
0.00038392264
0.00037921723
0.00037461708
0.00037011804
0.00036571604
0.00036140274
0.00035717082
0.00035301787
0.00034894144
0.00034493427
0.00034099073
0.0003371086
0.00033328746
0.0003295222
0.00032580628
0.00032213698
0.00031851579
0.00031493955
0.00031140115
0.00030789781
0.00030443062
0.00030099874
0.00029759707
0.0002942212
0.00029087072
0.00028754714
0.00028424626
0.00028096194
0.0002776929
0.00027444201
0.00027120602
0.00026797544
0.00026475105
0.0002615364
0.00025832841
0.00025512051
0.00025191064
0.00024870154
0.00024548882
0.00024226534
0.00023903113
0.00023578668
0.00023252584
0.00022924401
0.00022594281
0.00022261731
0.00021933152
0.000216193
0.00021322402
0.00021038846
0.00020769658
0.00020514007
0.00020270635
0.0002003831
0.00019816261
0.00019603989
0.00019400754
0.00019205669
0.00019018091
0.00018837683
0.00018664087
0.00018496786
0.00018335053
0.00018178613
0.00018026168
0.00017879535
0.00017730348
0.00017597766
0.0001738313
7.978362e-05
2.7458942e-05
1.6303423e-05
1.2512406e-05
1.1001853e-05
1.0257766e-05
9.8130544e-06
9.5104343e-06
9.2888809e-06
9.1199804e-06
8.9879557e-06
8.8828632e-06
8.7979516e-06
8.7284412e-06
8.6708529e-06
8.6226097e-06
8.581724e-06
8.5468096e-06
8.5161874e-06
8.4909819e-06
8.4620103e-06
8.4627746e-06
8.3466538e-06
1.0258182e-05
6.9374558e-06
0.00072987693
0.0013161812
0.0014655059
0.0014349381
0.0013649
0.00130013
0.0012445604
0.0011957894
0.001152615
0.001114223
0.0010797919
0.0010477509
0.0010181819
0.0009908867
0.00096570183
0.000942419
0.00092076004
0.00090053368
0.00088159988
0.0008637762
0.00084696791
0.000831075
0.00081601628
0.00080172465
0.00078811453
0.00077515061
0.00076276258
0.00075088841
0.00073951019
0.00072858158
0.00071805621
0.00070792064
0.00069814249
0.00068868213
0.00067952859
0.00067066463
0.0006620608
0.00065369859
0.00064557321
0.00063761853
0.00062982937
0.0006222283
0.00061481176
0.00060756593
0.00060047644
0.00059353742
0.00058674287
0.00058008008
0.00057353807
0.00056711343
0.00056080265
0.00055459464
0.00054848079
0.00054245794
0.00053652569
0.00053067618
0.00052489937
0.00051919119
0.00051355412
0.00050798342
0.00050246801
0.00049700366
0.00049159218
0.00048623244
0.00048091648
0.00047563745
0.00047039478
0.00046519096
0.00046001943
0.00045487061
0.00044974248
0.00044463965
0.00043955706
0.00043447975
0.00042940895
0.00042435031
0.00041929899
0.0004142446
0.00040918387
0.00040412114
0.00039904946
0.00039395748
0.00038884523
0.00038371343
0.0003785523
0.00037335447
0.00036812243
0.00036284828
0.00035763353
0.00035264917
0.00034793099
0.00034342184
0.00033913867
0.00033506864
0.00033119203
0.00032748952
0.00032394904
0.00032056288
0.00031731941
0.00031420469
0.00031120857
0.00030832583
0.00030555087
0.00030287553
0.00030028831
0.0002977849
0.00029534461
0.00029299654
0.00029060708
0.00028848272
0.00028504208
7.9783188e-05
2.7470112e-05
1.6284033e-05
1.2480451e-05
1.0962731e-05
1.0213938e-05
9.7659854e-06
9.4610427e-06
9.2377469e-06
9.0674845e-06
8.9343625e-06
8.8283668e-06
8.7427003e-06
8.6725507e-06
8.6144147e-06
8.5656968e-06
8.5243951e-06
8.4891107e-06
8.4581605e-06
8.4326406e-06
8.4034349e-06
8.4041709e-06
8.2854012e-06
1.0060077e-05
9.5358654e-06
0.0010533033
0.0018644116
0.0020668948
0.00202963
0.0019395509
0.0018556021
0.0017830712
0.0017189807
0.0016619245
0.0016109476
0.0015650372
0.0015221241
0.0014823803
0.0014455726
0.0014115088
0.0013799288
0.0013504722
0.0013228945
0.0012970181
0.0012726033
0.0012495303
0.0012276693
0.0012069151
0.0011871815
0.0011683552
0.0011503919
0.0011331979
0.0011166907
0.0011008486
0.0010856095
0.0010709115
0.0010567379
0.0010430453
0.00102978
0.0010169285
0.0010044676
0.00099235726
0.00098057298
0.00096910911
0.00095787164
0.00094685454
0.00093609153
0.00092557829
0.00091529564
0.00090522398
0.00089535588
0.00088568331
0.00087618849
0.00086685622
0.00085768233
0.0008486623
0.00083978049
0.00083102478
0.00082239114
0.00081387948
0.00080547871
0.00079717449
0.00078896126
0.000780843
0.00077281306
0.00076485558
0.00075696451
0.00074914278
0.00074138897
0.00073369164
0.00072604089
0.00071843601
0.00071088085
0.00070336593
0.00069587731
0.00068841207
0.00068097709
0.00067356504
0.00066615402
0.00065874581
0.00065134869
0.00064395565
0.00063655134
0.00062913088
0.00062170067
0.00061425041
0.00060676331
0.00059923922
0.00059167917
0.00058406854
0.00057639626
0.00056866581
0.00056086529
0.0005531448
0.00054575807
0.0005387591
0.00053206353
0.00052569794
0.00051964409
0.00051387337
0.00050835761
0.00050307935
0.00049802761
0.0004931855
0.00048853256
0.00048405398
0.00047974225
0.0004755893
0.00047158319
0.00046770692
0.00046395419
0.0004602943
0.00045677082
0.00045318407
0.00044999335
0.00044482201
7.978268e-05
2.7483258e-05
1.6261791e-05
1.2443663e-05
1.0917615e-05
1.0163325e-05
9.7115744e-06
9.4039033e-06
9.1785589e-06
9.0066948e-06
8.8722819e-06
8.7652236e-06
8.6786687e-06
8.6077667e-06
8.548986e-06
8.4997092e-06
8.4579177e-06
8.4221978e-06
8.3908616e-06
8.3649718e-06
8.3354901e-06
8.3361377e-06
8.214489e-06
9.8329368e-06
1.2270697e-05
0.001414485
0.0024601299
0.0027159963
0.0026749399
0.0025684565
0.0024684835
0.0023815065
0.0023041165
0.002234831
0.002172638
0.0021163931
0.0020635843
0.0020145025
0.0019688994
0.0019265711
0.0018872191
0.0018504133
0.0018158676
0.0017833755
0.0017526474
0.0017235449
0.0016959134
0.0016696278
0.0016445869
0.0016206526
0.0015977746
0.0015758381
0.0015547424
0.0015344635
0.0015149256
0.0014960523
0.0014778253
0.0014601906
0.0014430817
0.0014264838
0.0014103681
0.0013946843
0.0013794031
0.0013645185
0.0013499072
0.0013355629
0.0013215323
0.0013078107
0.0012943734
0.001281196
0.0012682701
0.0012555858
0.00124312
0.0012308534
0.0012187816
0.0012068993
0.0011951861
0.0011836262
0.001172215
0.0011609531
0.0011498261
0.0011388149
0.0011279126
0.0011171251
0.0011064438
0.0010958476
0.0010853285
0.0010748909
0.0010645333
0.0010542403
0.0010439987
0.0010338077
0.0010236728
0.0010135813
0.0010035143
0.00099346799
0.00098345179
0.00097345586
0.00096345048
0.00095343792
0.00094342946
0.00093341559
0.00092337526
0.00091330168
0.00090320347
0.00089306651
0.00088286758
0.00087260618
0.00086228353
0.00085187935
0.00084137798
0.00083078386
0.00082008018
0.00080947278
0.00079931121
0.00078967128
0.00078043745
0.0007716489
0.00076328186
0.00075529801
0.00074765943
0.00074034282
0.00073333384
0.00072660986
0.00072014311
0.00071391358
0.00070791136
0.00070212579
0.00069654067
0.0006911327
0.00068589341
0.00068078043
0.00067585451
0.0006708381
0.00066637202
0.00065912683
7.9782086e-05
2.7498609e-05
1.6236566e-05
1.2401764e-05
1.0866129e-05
1.0105477e-05
9.6493104e-06
9.3384598e-06
9.1107253e-06
8.9369918e-06
8.8010718e-06
8.6927728e-06
8.6051801e-06
8.5333992e-06
8.4738652e-06
8.4239353e-06
8.3815714e-06
8.3453425e-06
8.3135556e-06
8.2872337e-06
8.25743e-06
8.2579103e-06
8.1332464e-06
9.5845086e-06
1.4916078e-05
0.0017833371
0.0030520546
0.0033590649
0.0033175085
0.0031994527
0.0030879043
0.0029902332
0.0029027487
0.0028240184
0.0027530533
0.00268864
0.0026279208
0.0025713132
0.0025185708
0.0024694926
0.0024237554
0.0023808764
0.0023405416
0.0023025259
0.0022665007
0.0022323168
0.0021998015
0.0021688151
0.0021392463
0.0021109377
0.0020838356
0.0020578085
0.0020327415
0.0020086102
0.0019853272
0.0019628053
0.0019410256
0.0019199253
0.0018994275
0.0018795174
0.0018601612
0.0018413002
0.0018229016
0.0018049601
0.0017873246
0.0017699896
0.0017530146
0.0017363948
0.0017201007
0.0017041034
0.0016883947
0.0016729631
0.0016577806
0.0016428244
0.0016280901
0.0016135723
0.0015992459
0.0015850917
0.001571105
0.0015572875
0.0015436213
0.0015300832
0.0015166649
0.0015033744
0.0014902016
0.0014771202
0.0014641202
0.0014512077
0.0014383812
0.0014256216
0.0014129123
0.0014002525
0.0013876493
0.0013750871
0.0013625421
0.0013500093
0.0013375008
0.0013250044
0.0013124823
0.0012999374
0.0012873838
0.0012748094
0.0012621875
0.0012495091
0.001236785
0.0012239971
0.0012111156
0.0011981393
0.0011850695
0.0011718801
0.0011585502
0.0011450851
0.0011314626
0.0011179444
0.0011049771
0.0010926594
0.0010808444
0.0010695856
0.0010588545
0.0010486037
0.0010387857
0.0010293719
0.001020345
0.0010116769
0.0010033326
0.00099528729
0.00098752874
0.00098004396
0.00097281262
0.00096580514
0.00095901092
0.00095237579
0.00094597829
0.00093946068
0.00093365277
0.00092422034
7.9781396e-05
2.7516407e-05
1.6208261e-05
1.235452e-05
1.0807946e-05
1.0039987e-05
9.5787257e-06
9.2641957e-06
9.0336917e-06
8.8577908e-06
8.7201232e-06
8.6103848e-06
8.5215881e-06
8.448787e-06
8.3883784e-06
8.3376901e-06
8.2946617e-06
8.257842e-06
8.2255317e-06
8.1987084e-06
8.1685333e-06
8.1687393e-06
8.0411045e-06
9.3236481e-06
1.7233663e-05
0.0021358151
0.0036062918
0.0039569762
0.0039178184
0.0037926635
0.0036737462
0.0035689801
0.0034745266
0.003389116
0.0033118476
0.0032414914
0.0031750063
0.0031128664
0.0030548395
0.0030007377
0.0029502229
0.0029027748
0.0028580635
0.0028158545
0.0027757902
0.0027377176
0.0027014514
0.002666842
0.0026337724
0.0026020712
0.0025716835
0.0025424652
0.0025142912
0.0024871383
0.0024609101
0.0024355117
0.0024109245
0.0023870785
0.0023638896
0.0023413437
0.0023194028
0.0022980016
0.0022771058
0.0022567107
0.0022366429
0.0022168973
0.0021975445
0.0021785797
0.0021599687
0.0021416799
0.0021237056
0.0021060332
0.0020886303
0.0020714712
0.0020545523
0.0020378681
0.0020213897
0.0020050946
0.0019889785
0.0019730444
0.0019572715
0.0019416324
0.0019261184
0.0019107393
0.0018954837
0.0018803207
0.0018652388
0.0018502454
0.0018353395
0.0018204984
0.0018057025
0.0017909512
0.0017762531
0.00176159
0.0017469335
0.0017322778
0.0017176372
0.0017029975
0.001688314
0.0016735895
0.0016588408
0.0016440536
0.0016291958
0.0016142564
0.0015992481
0.0015841492
0.0015689237
0.0015535697
0.0015380883
0.0015224478
0.0015066228
0.0014906187
0.0014744084
0.0014583025
0.0014428346
0.0014281244
0.0014139967
0.0014005195
0.0013876606
0.0013753649
0.0013635769
0.0013522635
0.0013414052
0.0013309693
0.0013209148
0.0013112123
0.0013018482
0.0012928074
0.0012840661
0.0012755892
0.0012673643
0.0012593268
0.0012515711
0.0012436677
0.0012366185
0.0012251569
7.9780598e-05
2.7536909e-05
1.6176828e-05
1.2301764e-05
1.0742809e-05
9.9665238e-06
9.4994233e-06
9.1806629e-06
8.9469696e-06
8.7685713e-06
8.6288892e-06
8.5174911e-06
8.4273055e-06
8.3533271e-06
8.2919091e-06
8.2403454e-06
8.1965499e-06
8.159048e-06
8.1261338e-06
8.0987316e-06
8.0681327e-06
8.067917e-06
7.9376677e-06
9.0531594e-06
1.900545e-05
0.0024459365
0.0040992892
0.004493535
0.0044582338
0.0043286963
0.0042051252
0.0040955942
0.003996227
0.0039059895
0.0038240984
0.0037493321
0.003678883
0.0036128953
0.0035511618
0.0034935145
0.0034396079
0.0033888949
0.0033410403
0.0032958064
0.003252815
0.0032119146
0.0031729114
0.00313565
0.0031000107
0.0030658119
0.0030329997
0.0030014201
0.0029709419
0.0029415433
0.0029131213
0.0028855758
0.0028588894
0.0028329861
0.0028077769
0.0027832496
0.0027593619
0.0027360437
0.0027132606
0.002691009
0.0026691075
0.0026475474
0.0026264026
0.002605668
0.0025853056
0.0025652817
0.0025455898
0.0025262167
0.0025071259
0.0024882896
0.0024697055
0.0024513681
0.0024332452
0.0024153115
0.0023975636
0.0023800057
0.0023626144
0.0023453592
0.0023282306
0.0023112408
0.0022943769
0.0022776046
0.0022609105
0.0022443038
0.0022277838
0.0022113249
0.0021949049
0.0021785234
0.0021621906
0.0021458858
0.0021295771
0.0021132576
0.002096944
0.0020806203
0.0020642359
0.0020477936
0.0020313125
0.0020147765
0.0019981488
0.0019814167
0.0019645946
0.0019476577
0.0019305648
0.0019133133
0.0018959042
0.0018783012
0.0018604746
0.00184243
0.001824136
0.0018059426
0.0017884534
0.0017718059
0.0017558029
0.0017405234
0.0017259328
0.0017119701
0.0016985736
0.0016857066
0.0016733484
0.0016614626
0.0016500034
0.0016389378
0.0016282512
0.0016179271
0.001607939
0.0015982473
0.001588838
0.0015796385
0.0015707558
0.0015617033
0.0015536229
0.0015404699
7.977968e-05
2.7560377e-05
1.6142283e-05
1.2243414e-05
1.0670561e-05
9.8848562e-06
9.4111092e-06
9.0875147e-06
8.8501702e-06
8.6689104e-06
8.5269193e-06
8.413618e-06
8.321839e-06
8.2465096e-06
8.1839327e-06
8.131364e-06
8.0866875e-06
8.0484024e-06
8.0147949e-06
7.9867274e-06
7.9556505e-06
7.9548087e-06
7.8228089e-06
8.7762161e-06
2.0060505e-05
0.0026895945
0.0045105493
0.0049563128
0.0049279738
0.0047974128
0.004672283
0.0045606131
0.0044585929
0.0043655189
0.0042807796
0.0042032032
0.0041299638
0.0040612335
0.0039968344
0.0039366215
0.0038802446
0.0038271372
0.0037769653
0.0037294918
0.003684323
0.0036413126
0.0036002607
0.0035610081
0.0035234346
0.003487351
0.0034527054
0.0034193358
0.0033871072
0.0033560001
0.0033259056
0.0032967205
0.0032684289
0.0032409498
0.0032141906
0.0031881415
0.0031627565
0.0031379616
0.0031137233
0.0030900388
0.0030667693
0.0030438825
0.003021426
0.002999395
0.0029777473
0.0029564484
0.0029354936
0.0029148688
0.0028945341
0.00287446
0.002854646
0.002835087
0.0028157474
0.0027965999
0.0027776419
0.0027588793
0.0027402864
0.0027218297
0.0027034996
0.0026853102
0.002667248
0.0026492751
0.002631377
0.0026135645
0.0025958375
0.0025781676
0.0025605307
0.0025429265
0.0025253667
0.0025078287
0.0024902777
0.0024727059
0.002455132
0.0024375387
0.0024198707
0.0024021309
0.0023843401
0.0023664807
0.0023485124
0.002330421
0.0023122222
0.0022938889
0.0022753758
0.0022566795
0.0022378012