/*--------------------------------*- C++ -*----------------------------------*\
  =========                 |
  \\      /  F ield         | OpenFOAM: The Open Source CFD Toolbox
   \\    /   O peration     | Website:  https://openfoam.org
    \\  /    A nd           | Version:  12
     \\/     M anipulation  |
\*---------------------------------------------------------------------------*/
FoamFile
{
    format      ascii;
    class       volScalarField;
    location    "1100";
    object      nut;
}
// * * * * * * * * * * * * * * * * * * * * * * * * * * * * * * * * * * * * * //

dimensions      [0 2 -1 0 0 0 0];

internalField   nonuniform List<scalar> 
13056
(
1.9249729e-07
1.6717512e-07
1.6810147e-07
1.5669777e-07
1.4902861e-07
1.4380483e-07
1.4002331e-07
1.3715019e-07
1.3490429e-07
1.3311892e-07
1.3168177e-07
1.3051133e-07
1.295469e-07
1.2874304e-07
1.2806549e-07
1.2748811e-07
1.2699082e-07
1.2655741e-07
1.2617639e-07
1.2583402e-07
1.2553285e-07
1.2520233e-07
1.2494853e-07
8.1198625e-08
8.6082959e-17
1.0375856e-15
1.943038e-15
2.1831111e-15
2.1243481e-15
2.0012557e-15
1.8894374e-15
1.795027e-15
1.7133881e-15
1.6419974e-15
1.5791637e-15
1.5233203e-15
1.4718281e-15
1.4246626e-15
1.381419e-15
1.3417647e-15
1.3053154e-15
1.2715914e-15
1.240256e-15
1.2110599e-15
1.1836978e-15
1.1580013e-15
1.1337996e-15
1.110954e-15
1.0893487e-15
1.0688431e-15
1.049374e-15
1.0308273e-15
1.0131025e-15
9.9616629e-16
9.7994387e-16
9.6436102e-16
9.4939332e-16
9.3498927e-16
9.2108645e-16
9.0766516e-16
8.9469789e-16
8.8213886e-16
8.69958e-16
8.5814618e-16
8.4660817e-16
8.353339e-16
8.2435285e-16
8.1365853e-16
8.0323009e-16
7.9304534e-16
7.8309419e-16
7.7336706e-16
7.6384515e-16
7.5451179e-16
7.4536096e-16
7.3638673e-16
7.2757289e-16
7.1890679e-16
7.1038303e-16
7.020002e-16
6.9374689e-16
6.8560864e-16
6.7757918e-16
6.6966135e-16
6.6184805e-16
6.541236e-16
6.4648187e-16
6.3892488e-16
6.3145059e-16
6.2404782e-16
6.1670691e-16
6.0942677e-16
6.0221052e-16
5.9504891e-16
5.8792864e-16
5.8084684e-16
5.7380961e-16
5.6680979e-16
5.5982689e-16
5.528626e-16
5.4592449e-16
5.3900588e-16
5.3209261e-16
5.251803e-16
5.1827481e-16
5.1136667e-16
5.0444063e-16
4.9749683e-16
4.9053633e-16
4.8354601e-16
4.7651616e-16
4.6945033e-16
4.6233806e-16
4.5531628e-16
4.4861435e-16
4.4227915e-16
4.3623326e-16
4.3049756e-16
4.2505374e-16
4.1987448e-16
4.1493318e-16
4.1021303e-16
4.0570309e-16
4.0138731e-16
3.9724662e-16
3.9326713e-16
3.8944148e-16
3.8576187e-16
3.8221714e-16
3.7879176e-16
3.754798e-16
3.7225355e-16
3.6915155e-16
3.6599619e-16
3.6319328e-16
3.5865805e-16
1.9249736e-07
1.6717309e-07
1.6809922e-07
1.5670144e-07
1.4903316e-07
1.4380898e-07
1.4002685e-07
1.3715314e-07
1.349067e-07
1.3312085e-07
1.3168327e-07
1.3051245e-07
1.2954769e-07
1.2874353e-07
1.2806572e-07
1.2748812e-07
1.2699063e-07
1.2655704e-07
1.2617586e-07
1.2583327e-07
1.2553237e-07
1.2520128e-07
1.2494772e-07
8.3082438e-08
4.6947327e-15
1.8209185e-13
3.4100797e-13
3.831414e-13
3.7282953e-13
3.5122808e-13
3.3160501e-13
3.1503674e-13
3.0070965e-13
2.8818095e-13
2.771539e-13
2.6735358e-13
2.5831683e-13
2.5003937e-13
2.4245018e-13
2.3549088e-13
2.2909404e-13
2.2317547e-13
2.1767609e-13
2.1255215e-13
2.0775006e-13
2.0324028e-13
1.9899284e-13
1.9498339e-13
1.911916e-13
1.875928e-13
1.8417593e-13
1.8092092e-13
1.7781016e-13
1.7483779e-13
1.7199069e-13
1.6925583e-13
1.6662894e-13
1.6410096e-13
1.6166095e-13
1.5930545e-13
1.5702963e-13
1.5482545e-13
1.5268764e-13
1.506146e-13
1.4858962e-13
1.4661092e-13
1.4468368e-13
1.4280676e-13
1.409765e-13
1.3918901e-13
1.3744252e-13
1.3573535e-13
1.3406419e-13
1.3242612e-13
1.3082008e-13
1.2924504e-13
1.2769815e-13
1.2617718e-13
1.246812e-13
1.2320995e-13
1.2176143e-13
1.2033311e-13
1.1892387e-13
1.1753423e-13
1.1616293e-13
1.1480723e-13
1.1346604e-13
1.1213972e-13
1.1082792e-13
1.0952867e-13
1.0824028e-13
1.0696255e-13
1.0569603e-13
1.0443911e-13
1.0318943e-13
1.0194651e-13
1.0071141e-13
9.9482881e-14
9.8257317e-14
9.7035016e-14
9.5817311e-14
9.4603027e-14
9.3389681e-14
9.2176501e-14
9.0964519e-14
8.9752071e-14
8.853648e-14
8.7317772e-14
8.6096132e-14
8.4869257e-14
8.3635443e-14
8.2395314e-14
8.1147034e-14
7.9914635e-14
7.8738373e-14
7.7626475e-14
7.6565355e-14
7.5558674e-14
7.4603222e-14
7.3694202e-14
7.2826948e-14
7.1998507e-14
7.1206961e-14
7.044949e-14
6.972275e-14
6.9024302e-14
6.8352856e-14
6.770704e-14
6.7084898e-14
6.6483703e-14
6.5902412e-14
6.5336168e-14
6.4791728e-14
6.4237925e-14
6.3745979e-14
6.2949991e-14
1.9249757e-07
1.671657e-07
1.6809413e-07
1.5671501e-07
1.4904924e-07
1.4382354e-07
1.4003933e-07
1.3716365e-07
1.3491541e-07
1.3312796e-07
1.3168896e-07
1.3051687e-07
1.2955102e-07
1.287459e-07
1.2806725e-07
1.2748891e-07
1.2699076e-07
1.2655659e-07
1.2617488e-07
1.2583173e-07
1.2553081e-07
1.2519901e-07
1.249456e-07
8.5231141e-08
6.5563017e-14
3.8874302e-12
7.2802812e-12
8.179718e-12
7.9598168e-12
7.4989389e-12
7.0802388e-12
6.7266935e-12
6.4209509e-12
6.1535715e-12
5.9182286e-12
5.709059e-12
5.5161783e-12
5.3394987e-12
5.1775053e-12
5.0289537e-12
4.8924048e-12
4.7660628e-12
4.6486665e-12
4.5392829e-12
4.4367685e-12
4.3404926e-12
4.2498157e-12
4.1642185e-12
4.0832669e-12
4.0064347e-12
3.9334854e-12
3.8639913e-12
3.7975759e-12
3.7341146e-12
3.6733273e-12
3.614936e-12
3.5588491e-12
3.5048737e-12
3.4527761e-12
3.4024824e-12
3.3538897e-12
3.3068264e-12
3.2611798e-12
3.2169158e-12
3.1736774e-12
3.1314271e-12
3.0902753e-12
3.0501978e-12
3.0111163e-12
2.9729478e-12
2.9356545e-12
2.8992005e-12
2.8635154e-12
2.8285366e-12
2.7942417e-12
2.7606085e-12
2.7275761e-12
2.6950972e-12
2.6631516e-12
2.631734e-12
2.6008017e-12
2.5703003e-12
2.5402066e-12
2.510531e-12
2.4812471e-12
2.452296e-12
2.4236548e-12
2.395331e-12
2.3673171e-12
2.339571e-12
2.3120567e-12
2.28477e-12
2.2577226e-12
2.2308799e-12
2.2041919e-12
2.1776481e-12
2.1512711e-12
2.1250343e-12
2.0988607e-12
2.0727567e-12
2.0467508e-12
2.0208178e-12
1.9949047e-12
1.968995e-12
1.9431108e-12
1.9172165e-12
1.891255e-12
1.8652267e-12
1.8391358e-12
1.8129329e-12
1.7865817e-12
1.7600955e-12
1.733435e-12
1.7071136e-12
1.6819911e-12
1.6582431e-12
1.6355796e-12
1.6140786e-12
1.5936718e-12
1.5742566e-12
1.5557334e-12
1.5380391e-12
1.5211327e-12
1.5049542e-12
1.4894319e-12
1.4745139e-12
1.4601726e-12
1.4463786e-12
1.4330903e-12
1.4202494e-12
1.4078335e-12
1.395739e-12
1.3841102e-12
1.3722815e-12
1.3617738e-12
1.3447721e-12
1.9249794e-07
1.671528e-07
1.6808591e-07
1.5673882e-07
1.4907735e-07
1.43849e-07
1.4006119e-07
1.3718208e-07
1.3493075e-07
1.3314053e-07
1.3169906e-07
1.3052481e-07
1.2955705e-07
1.2875028e-07
1.2807018e-07
1.2749057e-07
1.2699129e-07
1.265561e-07
1.2617348e-07
1.2582943e-07
1.2552816e-07
1.2519555e-07
1.2494214e-07
8.7448713e-08
4.338248e-13
3.1251501e-11
5.8531268e-11
6.5760361e-11
6.4001089e-11
6.0305918e-11
5.6947784e-11
5.4111354e-11
5.1657718e-11
4.9511448e-11
4.7621977e-11
4.5942363e-11
4.4393284e-11
4.2974134e-11
4.1672796e-11
4.0479314e-11
3.9382158e-11
3.836692e-11
3.7423488e-11
3.6544381e-11
3.572042e-11
3.494655e-11
3.4217637e-11
3.3529517e-11
3.2878706e-11
3.226098e-11
3.1674442e-11
3.1115657e-11
3.0581603e-11
3.007128e-11
2.9582439e-11
2.9112847e-11
2.8661769e-11
2.8227657e-11
2.7808632e-11
2.7404102e-11
2.7013239e-11
2.6634665e-11
2.6267476e-11
2.5911398e-11
2.5563558e-11
2.5223655e-11
2.489258e-11
2.4570139e-11
2.4255703e-11
2.3948604e-11
2.3648538e-11
2.3355218e-11
2.3068077e-11
2.2786613e-11
2.2510645e-11
2.2239994e-11
2.1974173e-11
2.1712799e-11
2.1455711e-11
2.1202866e-11
2.0953921e-11
2.070844e-11
2.0466233e-11
2.0227387e-11
1.9991688e-11
1.9758663e-11
1.9528127e-11
1.9300141e-11
1.9074645e-11
1.8851301e-11
1.8629817e-11
1.8410161e-11
1.8192427e-11
1.7976336e-11
1.7761488e-11
1.7547794e-11
1.733544e-11
1.712421e-11
1.6913486e-11
1.6703317e-11
1.6493933e-11
1.6285133e-11
1.6076489e-11
1.5867868e-11
1.5659448e-11
1.5450943e-11
1.5241892e-11
1.50323e-11
1.4822198e-11
1.4611191e-11
1.4398985e-11
1.4185687e-11
1.3970982e-11
1.3759003e-11
1.3556674e-11
1.3365413e-11
1.318288e-11
1.3009709e-11
1.2845347e-11
1.2688969e-11
1.2539773e-11
1.2397252e-11
1.2261076e-11
1.213076e-11
1.2005728e-11
1.1885563e-11
1.1770041e-11
1.1658927e-11
1.1551885e-11
1.1448446e-11
1.134843e-11
1.1251002e-11
1.1157324e-11
1.1062035e-11
1.0977387e-11
1.0840422e-11
1.9249847e-07
1.6713411e-07
1.680741e-07
1.5677345e-07
1.4911826e-07
1.4388612e-07
1.4009311e-07
1.3720907e-07
1.3495326e-07
1.3315902e-07
1.3171398e-07
1.3053659e-07
1.2956609e-07
1.2875692e-07
1.2807472e-07
1.2749326e-07
1.2699234e-07
1.2655569e-07
1.2617176e-07
1.2582641e-07
1.2552446e-07
1.2519095e-07
1.249374e-07
8.9694341e-08
1.8711177e-12
1.5149487e-10
2.8382014e-10
3.188588e-10
3.1044859e-10
2.9266929e-10
2.7649587e-10
2.6282347e-10
2.5098653e-10
2.4062552e-10
2.3149927e-10
2.2338286e-10
2.1589363e-10
2.0902999e-10
2.0273405e-10
1.9695821e-10
1.9164709e-10
1.8673125e-10
1.8216201e-10
1.7790338e-10
1.7391106e-10
1.7016072e-10
1.6662762e-10
1.6329167e-10
1.6013608e-10
1.5714045e-10
1.5429565e-10
1.5158508e-10
1.4899413e-10
1.4651799e-10
1.441458e-10
1.4186674e-10
1.396773e-10
1.3756997e-10
1.3553567e-10
1.3357154e-10
1.3167358e-10
1.2983511e-10
1.2805177e-10
1.2632224e-10
1.2463256e-10
1.2298127e-10
1.2137274e-10
1.1980603e-10
1.1827808e-10
1.1678568e-10
1.1532734e-10
1.1390168e-10
1.1250595e-10
1.1113772e-10
1.097961e-10
1.0848025e-10
1.0718779e-10
1.0591686e-10
1.0466669e-10
1.0343708e-10
1.0222635e-10
1.0103239e-10
9.985428e-11
9.8692447e-11
9.7545852e-11
9.6412195e-11
9.5290577e-11
9.4181302e-11
9.3084074e-11
9.1997251e-11
9.0919418e-11
8.9850417e-11
8.8790711e-11
8.7738941e-11
8.6693155e-11
8.5652933e-11
8.4619172e-11
8.3590823e-11
8.2564877e-11
8.1541577e-11
8.0522043e-11
7.9505291e-11
7.8489241e-11
7.7473246e-11
7.6458171e-11
7.5442623e-11
7.4424358e-11
7.3403397e-11
7.2379894e-11
7.135192e-11
7.0318043e-11
6.9278785e-11
6.8232607e-11
6.7199649e-11
6.621366e-11
6.5281547e-11
6.4391923e-11
6.3547878e-11
6.2746731e-11
6.1984465e-11
6.1257177e-11
6.0562397e-11
5.9898519e-11
5.9263187e-11
5.8653597e-11
5.8067709e-11
5.7504442e-11
5.6962651e-11
5.6440697e-11
5.5936295e-11
5.5448571e-11
5.4973453e-11
5.451661e-11
5.4051904e-11
5.3639077e-11
5.2971074e-11
1.9249918e-07
1.6710931e-07
1.6805806e-07
1.5681965e-07
1.4917305e-07
1.4393597e-07
1.4013608e-07
1.3724547e-07
1.349837e-07
1.331841e-07
1.3173431e-07
1.3055273e-07
1.2957857e-07
1.2876619e-07
1.2808119e-07
1.2749725e-07
1.2699414e-07
1.2655553e-07
1.2616984e-07
1.2582279e-07
1.2551981e-07
1.2518533e-07
1.2493148e-07
9.1960876e-08
6.1333259e-12
5.4232815e-10
1.016814e-09
1.1423307e-09
1.1131743e-09
1.0505794e-09
9.935116e-10
9.4517836e-10
9.032578e-10
8.6650995e-10
8.3410265e-10
8.0525139e-10
7.7860089e-10
7.5415605e-10
7.3171655e-10
7.1111712e-10
6.9216348e-10
6.7461037e-10
6.5828621e-10
6.4306427e-10
6.2878758e-10
6.1537045e-10
6.0272538e-10
5.9078129e-10
5.794789e-10
5.6874573e-10
5.5854962e-10
5.4883154e-10
5.3953956e-10
5.3065678e-10
5.2214452e-10
5.1396433e-10
5.0610379e-10
4.9853617e-10
4.9122904e-10
4.8417239e-10
4.7735193e-10
4.7074381e-10
4.6433253e-10
4.5811344e-10
4.5203623e-10
4.4609586e-10
4.4030822e-10
4.3467002e-10
4.291703e-10
4.2379752e-10
4.1854652e-10
4.1341232e-10
4.0838504e-10
4.0345596e-10
3.9862201e-10
3.9388016e-10
3.8922187e-10
3.8464046e-10
3.801332e-10
3.7569941e-10
3.7133308e-10
3.6702657e-10
3.6277661e-10
3.5858478e-10
3.5444736e-10
3.5035605e-10
3.4630761e-10
3.4230318e-10
3.383417e-10
3.3441727e-10
3.3052476e-10
3.2666363e-10
3.2283557e-10
3.1903568e-10
3.152569e-10
3.1149773e-10
3.0776142e-10
3.040442e-10
3.0033516e-10
2.9663521e-10
2.9294839e-10
2.8927116e-10
2.8559598e-10
2.8192051e-10
2.7824789e-10
2.7457308e-10
2.7088794e-10
2.6719255e-10
2.6348746e-10
2.5976569e-10
2.5602202e-10
2.5225836e-10
2.4846911e-10
2.4472722e-10
2.4115499e-10
2.377775e-10
2.3455351e-10
2.3149433e-10
2.2859031e-10
2.2582693e-10
2.2319009e-10
2.2067085e-10
2.1826345e-10
2.1595935e-10
2.1374841e-10
2.1162327e-10
2.0958001e-10
2.076145e-10
2.0572082e-10
2.0389069e-10
2.0212095e-10
2.0039685e-10
1.9873893e-10
1.9705244e-10
1.9555408e-10
1.9312936e-10
1.9250008e-07
1.6707798e-07
1.6803691e-07
1.5687834e-07
1.4924308e-07
1.4399989e-07
1.4019135e-07
1.3729243e-07
1.3502309e-07
1.3321668e-07
1.3176083e-07
1.3057392e-07
1.2959508e-07
1.2877861e-07
1.2809002e-07
1.2750293e-07
1.2699703e-07
1.2655591e-07
1.2616796e-07
1.2581875e-07
1.2551435e-07
1.2517859e-07
1.2492486e-07
9.4245842e-08
1.6513204e-11
1.5788064e-09
2.9646965e-09
3.3312706e-09
3.2516849e-09
3.0751979e-09
2.913599e-09
2.7762553e-09
2.6567286e-09
2.5516582e-09
2.4587884e-09
2.3759472e-09
2.2992681e-09
2.2288233e-09
2.1640672e-09
2.1045466e-09
2.0497178e-09
1.9988849e-09
1.9515633e-09
1.9073957e-09
1.865934e-09
1.8269366e-09
1.7901548e-09
1.7553863e-09
1.722463e-09
1.6911772e-09
1.6614381e-09
1.6330762e-09
1.6059422e-09
1.5799889e-09
1.5551049e-09
1.5311795e-09
1.5081778e-09
1.4860226e-09
1.4646203e-09
1.4439426e-09
1.4239483e-09
1.4045682e-09
1.3857579e-09
1.3675045e-09
1.3496595e-09
1.3322091e-09
1.3152011e-09
1.2986263e-09
1.2824529e-09
1.2666472e-09
1.2511947e-09
1.2360809e-09
1.221277e-09
1.2067575e-09
1.1925139e-09
1.1785374e-09
1.164803e-09
1.1512912e-09
1.137994e-09
1.1249099e-09
1.1120212e-09
1.0993054e-09
1.086753e-09
1.0743689e-09
1.0621422e-09
1.0500484e-09
1.038078e-09
1.0262346e-09
1.0145152e-09
1.0029022e-09
9.9138068e-10
9.7994899e-10
9.6861229e-10
9.5735612e-10
9.4615957e-10
9.3501817e-10
9.2394171e-10
9.1291902e-10
9.0191778e-10
8.909406e-10
8.7999959e-10
8.6908424e-10
8.5817215e-10
8.4725635e-10
8.3634618e-10
8.2542667e-10
8.1447359e-10
8.034871e-10
7.9246888e-10
7.8139808e-10
7.7025914e-10
7.5905764e-10
7.4777687e-10
7.36634e-10
7.2599349e-10
7.1593039e-10
7.0632191e-10
6.9720247e-10
6.8854361e-10
6.8030238e-10
6.724369e-10
6.6492077e-10
6.5773694e-10
6.5086015e-10
6.4426031e-10
6.3791547e-10
6.3181416e-10
6.2594412e-10
6.2028775e-10
6.1482043e-10
6.0953277e-10
6.0438083e-10
5.9942595e-10
5.9438541e-10
5.8990628e-10
5.8265675e-10
1.9250121e-07
1.6703971e-07
1.6800956e-07
1.5695059e-07
1.4932997e-07
1.4407955e-07
1.4026047e-07
1.3735136e-07
1.3507271e-07
1.3325791e-07
1.3179458e-07
1.3060106e-07
1.2961642e-07
1.2879489e-07
1.2810185e-07
1.2751085e-07
1.2700147e-07
1.2655725e-07
1.261665e-07
1.2581462e-07
1.2550837e-07
1.2517059e-07
1.249184e-07
9.6543197e-08
3.8087333e-11
3.9191553e-09
7.379194e-09
8.2975327e-09
8.1220035e-09
7.7071884e-09
7.3245424e-09
6.9974725e-09
6.7112348e-09
6.4584539e-09
6.2341872e-09
6.0334906e-09
5.8470826e-09
5.6753776e-09
5.517173e-09
5.3714576e-09
5.2369705e-09
5.1120578e-09
4.9955778e-09
4.8866921e-09
4.7843255e-09
4.6879109e-09
4.5968559e-09
4.5106784e-09
4.4289796e-09
4.351258e-09
4.2773005e-09
4.2066961e-09
4.139083e-09
4.0743516e-09
4.0122314e-09
3.9524531e-09
3.894935e-09
3.8394884e-09
3.7858843e-09
3.7340568e-09
3.683905e-09
3.6352587e-09
3.5880105e-09
3.542131e-09
3.4972434e-09
3.4533165e-09
3.4104768e-09
3.368703e-09
3.3279152e-09
3.2880309e-09
3.2490157e-09
3.2108345e-09
3.1734148e-09
3.1366935e-09
3.1006504e-09
3.0652651e-09
3.0304744e-09
2.9962291e-09
2.9625108e-09
2.9293165e-09
2.8966016e-09
2.8643094e-09
2.8324163e-09
2.8009359e-09
2.769841e-09
2.7390695e-09
2.7085973e-09
2.6784341e-09
2.6485732e-09
2.61897e-09
2.5895861e-09
2.5604178e-09
2.531479e-09
2.5027328e-09
2.4741258e-09
2.4456466e-09
2.4173207e-09
2.3891199e-09
2.360961e-09
2.332851e-09
2.3048209e-09
2.2768441e-09
2.2488629e-09
2.2208593e-09
2.1928573e-09
2.1648186e-09
2.1366807e-09
2.1084436e-09
2.0801118e-09
2.0516313e-09
2.0229618e-09
1.9941173e-09
1.9650546e-09
1.936333e-09
1.9088932e-09
1.8829302e-09
1.8581275e-09
1.8345773e-09
1.8122077e-09
1.790909e-09
1.7705739e-09
1.7511353e-09
1.73255e-09
1.7147533e-09
1.6976681e-09
1.6812382e-09
1.6654344e-09
1.6502255e-09
1.6355663e-09
1.6213935e-09
1.6076829e-09
1.5943213e-09
1.5814674e-09
1.5683901e-09
1.5567652e-09
1.5379449e-09
1.9250258e-07
1.6699408e-07
1.6797459e-07
1.5703755e-07
1.4943559e-07
1.4417692e-07
1.4034533e-07
1.3742402e-07
1.3513416e-07
1.3330923e-07
1.3183684e-07
1.3063532e-07
1.2964366e-07
1.2881597e-07
1.2811753e-07
1.2752176e-07
1.2700815e-07
1.2656014e-07
1.2616599e-07
1.2581086e-07
1.255023e-07
1.2516164e-07
1.2491287e-07
9.8838854e-08
7.7171592e-11
8.4892179e-09
1.6052856e-08
1.8084172e-08
1.7775137e-08
1.694909e-08
1.6178258e-08
1.5513933e-08
1.4927752e-08
1.4406565e-08
1.3941627e-08
1.3523584e-08
1.3133291e-08
1.2772387e-08
1.2438737e-08
1.2130497e-08
1.184521e-08
1.1579526e-08
1.1331166e-08
1.1098466e-08
1.0879219e-08
1.0672302e-08
1.0476511e-08
1.0290868e-08
1.0114569e-08
9.9465755e-09
9.7864658e-09
9.6333826e-09
9.4865725e-09
9.3458235e-09
9.2105697e-09
9.0802467e-09
8.9546953e-09
8.833517e-09
8.7162275e-09
8.6026991e-09
8.4927178e-09
8.3859207e-09
8.2820863e-09
8.1811592e-09
8.082296e-09
7.9854403e-09
7.8908922e-09
7.7986108e-09
7.7084225e-09
7.6201506e-09
7.5337271e-09
7.4490789e-09
7.3660461e-09
7.2844927e-09
7.2043798e-09
7.1256661e-09
7.0482123e-09
6.97191e-09
6.8967224e-09
6.8226472e-09
6.749586e-09
6.6774122e-09
6.6060759e-09
6.5356107e-09
6.4659576e-09
6.3969776e-09
6.3286171e-09
6.2609005e-09
6.1938152e-09
6.1272608e-09
6.0611512e-09
5.9954794e-09
5.9302782e-09
5.8654655e-09
5.8009203e-09
5.7366172e-09
5.6726152e-09
5.6088511e-09
5.5451363e-09
5.481486e-09
5.4179717e-09
5.3545332e-09
5.2910389e-09
5.2274473e-09
5.1638136e-09
5.1000503e-09
5.0360139e-09
4.971704e-09
4.9071303e-09
4.842169e-09
4.7767263e-09
4.7108335e-09
4.6443903e-09
4.5786753e-09
4.5158448e-09
4.4563511e-09
4.3994687e-09
4.3454222e-09
4.2940524e-09
4.2451121e-09
4.1983589e-09
4.1536415e-09
4.1108641e-09
4.069881e-09
4.0305168e-09
3.9926441e-09
3.9561976e-09
3.9211076e-09
3.8872716e-09
3.8545446e-09
3.8228722e-09
3.7919947e-09
3.7622778e-09
3.7320397e-09
3.705145e-09
3.6615827e-09
1.9250423e-07
1.6694068e-07
1.6793027e-07
1.5714044e-07
1.4956209e-07
1.4429431e-07
1.4044818e-07
1.3751251e-07
1.3520939e-07
1.3337243e-07
1.3188927e-07
1.306782e-07
1.2967814e-07
1.2884309e-07
1.2813818e-07
1.275367e-07
1.2701802e-07
1.2656546e-07
1.2616722e-07
1.2580821e-07
1.254968e-07
1.2515225e-07
1.2490939e-07
1.0110681e-07
1.3972083e-10
1.6242928e-08
3.0925766e-08
3.4976824e-08
3.4568951e-08
3.3163388e-08
3.182943e-08
3.0667408e-08
2.9630876e-08
2.8700981e-08
2.7865488e-08
2.7109656e-08
2.6399022e-08
2.573858e-08
2.5125368e-08
2.4556671e-08
2.4028431e-08
2.3534797e-08
2.3071877e-08
2.2636867e-08
2.222584e-08
2.1836907e-08
2.146797e-08
2.1117319e-08
2.0783569e-08
2.0464855e-08
2.0160471e-08
1.9868863e-08
1.958867e-08
1.9319553e-08
1.906048e-08
1.8810425e-08
1.8569131e-08
1.8335859e-08
1.810972e-08
1.7890508e-08
1.7677827e-08
1.7470998e-08
1.726963e-08
1.707364e-08
1.6881338e-08
1.6692647e-08
1.6508215e-08
1.6327981e-08
1.6151608e-08
1.5978766e-08
1.5809345e-08
1.5643211e-08
1.5480054e-08
1.5319614e-08
1.5161831e-08
1.5006635e-08
1.4853754e-08
1.4702976e-08
1.4554238e-08
1.4407548e-08
1.4262715e-08
1.4119486e-08
1.3977768e-08
1.3837639e-08
1.3698985e-08
1.3561529e-08
1.3425164e-08
1.3289948e-08
1.315586e-08
1.3022699e-08
1.2890294e-08
1.2758632e-08
1.2627785e-08
1.249759e-08
1.2367801e-08
1.2238367e-08
1.2109412e-08
1.198081e-08
1.1852176e-08
1.1723542e-08
1.1595054e-08
1.146659e-08
1.1337881e-08
1.1208841e-08
1.1079582e-08
1.0949927e-08
1.0819579e-08
1.0688534e-08
1.0556811e-08
1.0424155e-08
1.0290369e-08
1.0155512e-08
1.0019377e-08
9.8845797e-09
9.7555565e-09
9.6332511e-09
9.5161685e-09
9.4048136e-09
9.2988754e-09
9.1978584e-09
9.1012734e-09
9.008818e-09
8.9203042e-09
8.8354396e-09
8.7538678e-09
8.6753316e-09
8.5997013e-09
8.5268384e-09
8.4565352e-09
8.3884952e-09
8.3226082e-09
8.2583406e-09
8.1964494e-09
8.1334596e-09
8.0773872e-09
7.9865015e-09
1.9250619e-07
1.6687922e-07
1.6787447e-07
1.5726047e-07
1.4971181e-07
1.4443434e-07
1.4057165e-07
1.3761936e-07
1.3530078e-07
1.3344972e-07
1.319539e-07
1.3073158e-07
1.2972161e-07
1.2887785e-07
1.2816528e-07
1.2755703e-07
1.2703234e-07
1.265744e-07
1.2617129e-07
1.2580768e-07
1.2549285e-07
1.2514319e-07
1.2490962e-07
1.0330453e-07
2.2072755e-10
2.7720561e-08
5.3369449e-08
6.0801307e-08
6.0498197e-08
5.8433346e-08
5.6424794e-08
5.4652235e-08
5.304984e-08
5.1596542e-08
5.0279631e-08
4.9079729e-08
4.7941555e-08
4.6877561e-08
4.5884811e-08
4.4960156e-08
4.4097831e-08
4.3288867e-08
4.2527507e-08
4.1809671e-08
4.1129224e-08
4.0483442e-08
3.9869132e-08
3.9283688e-08
3.8725042e-08
3.819025e-08
3.7678309e-08
3.718673e-08
3.671336e-08
3.625775e-08
3.5818243e-08
3.53932e-08
3.4982272e-08
3.4584255e-08
3.4197703e-08
3.3822353e-08
3.3457551e-08
3.3102173e-08
3.2755622e-08
3.2417807e-08
3.2085652e-08
3.1759107e-08
3.143945e-08
3.1126608e-08
3.0820004e-08
3.0519091e-08
3.0223723e-08
2.9933689e-08
2.9648447e-08
2.9367559e-08
2.9090952e-08
2.8818529e-08
2.8549813e-08
2.8284429e-08
2.8022294e-08
2.7763448e-08
2.7507553e-08
2.7254162e-08
2.700312e-08
2.6754586e-08
2.6508368e-08
2.6263971e-08
2.6021202e-08
2.578018e-08
2.5540884e-08
2.530295e-08
2.5066067e-08
2.4830222e-08
2.4595552e-08
2.4361767e-08
2.412842e-08
2.3895418e-08
2.3662992e-08
2.3430919e-08
2.3198495e-08
2.2965773e-08
2.2733022e-08
2.2500024e-08
2.226628e-08
2.2031628e-08
2.1796274e-08
2.155989e-08
2.1321924e-08
2.1082362e-08
2.0841236e-08
2.0598066e-08
2.0352478e-08
2.0104577e-08
1.9853962e-08
1.9605449e-08
1.9367241e-08
1.9141112e-08
1.8924273e-08
1.8717778e-08
1.8521091e-08
1.8333326e-08
1.8153599e-08
1.7981372e-08
1.7816318e-08
1.7657914e-08
1.750551e-08
1.7358642e-08
1.7217082e-08
1.7080585e-08
1.6948774e-08
1.6821105e-08
1.6697377e-08
1.6576607e-08
1.6460203e-08
1.6341707e-08
1.6236101e-08
1.6064771e-08
1.925085e-07
1.6680953e-07
1.678046e-07
1.5739876e-07
1.4988732e-07
1.4460003e-07
1.407188e-07
1.3774756e-07
1.3541118e-07
1.3354382e-07
1.3203328e-07
1.3079785e-07
1.297763e-07
1.2892235e-07
1.2820079e-07
1.2758461e-07
1.2705285e-07
1.2658856e-07
1.2617975e-07
1.2581071e-07
1.2549182e-07
1.2513559e-07
1.2491583e-07
1.0540841e-07
3.1638378e-10
4.1309537e-08
8.362715e-08
9.6416918e-08
9.6696696e-08
9.4047494e-08
9.136937e-08
8.8967851e-08
8.6761376e-08
8.4734118e-08
8.2879167e-08
8.1175568e-08
7.9541918e-08
7.800503e-08
7.6563782e-08
7.5215562e-08
7.3953169e-08
7.2764241e-08
7.1641219e-08
7.0578883e-08
6.9568613e-08
6.8606975e-08
6.7689633e-08
6.6813035e-08
6.5974451e-08
6.5169709e-08
6.4397567e-08
6.3654437e-08
6.2937265e-08
6.2245568e-08
6.1576941e-08
6.0929043e-08
6.0301487e-08
5.9692486e-08
5.9099937e-08
5.8523585e-08
5.7962444e-08
5.7414832e-08
5.6879958e-08
5.6357771e-08
5.5843092e-08
5.5336003e-08
5.4838843e-08
5.4351564e-08
5.3873252e-08
5.3403094e-08
5.294095e-08
5.2486521e-08
5.2038943e-08
5.1597548e-08
5.1162281e-08
5.0733033e-08
5.0309044e-08
4.9889711e-08
4.9474946e-08
4.9064863e-08
4.8658921e-08
4.8256395e-08
4.785706e-08
4.7461206e-08
4.7068542e-08
4.6678265e-08
4.6290059e-08
4.5904142e-08
4.5520505e-08
4.5138557e-08
4.4757782e-08
4.4378171e-08
4.3999968e-08
4.3622701e-08
4.3245634e-08
4.286861e-08
4.2492024e-08
4.2115514e-08
4.1737918e-08
4.1359309e-08
4.0980139e-08
4.0600048e-08
4.0218203e-08
3.9834323e-08
3.9448749e-08
3.9060934e-08
3.8669947e-08
3.8275747e-08
3.7878378e-08
3.7477032e-08
3.7071059e-08
3.6660612e-08
3.6245004e-08
3.5832205e-08
3.5435887e-08
3.5059044e-08
3.4696928e-08
3.4351583e-08
3.4022192e-08
3.3707331e-08
3.3405567e-08
3.3116038e-08
3.2838244e-08
3.2571341e-08
3.2314267e-08
3.2066266e-08
3.1826979e-08
3.1596024e-08
3.1372786e-08
3.1156362e-08
3.0946425e-08
3.0741345e-08
3.0543479e-08
3.0342028e-08
3.016223e-08
2.9870218e-08
1.9251119e-07
1.6673162e-07
1.6771758e-07
1.5755625e-07
1.5009131e-07
1.4479473e-07
1.4089319e-07
1.3790066e-07
1.3554405e-07
1.3365801e-07
1.3213054e-07
1.3087998e-07
1.2984503e-07
1.2897924e-07
1.2824725e-07
1.2762182e-07
1.2708182e-07
1.2661014e-07
1.2619465e-07
1.258193e-07
1.2549562e-07
1.251311e-07
1.2493121e-07
1.0746332e-07
4.341824e-10
5.5672638e-08
1.180482e-07
1.4156999e-07
1.4345789e-07
1.4049165e-07
1.3728246e-07
1.3434104e-07
1.3158123e-07
1.2900419e-07
1.2661871e-07
1.2440795e-07
1.2225801e-07
1.2022145e-07
1.1830177e-07
1.164984e-07
1.1480335e-07
1.1320088e-07
1.1168201e-07
1.1024075e-07
1.0886593e-07
1.0755372e-07
1.0629872e-07
1.0509649e-07
1.0394378e-07
1.0283513e-07
1.0176918e-07
1.0074115e-07
9.9747074e-08
9.8786538e-08
9.7856312e-08
9.6953328e-08
9.6077255e-08
9.5225618e-08
9.439561e-08
9.3587094e-08
9.2798684e-08
9.2028041e-08
9.1274243e-08
9.0537361e-08
8.9809103e-08
8.9089899e-08
8.8383796e-08
8.769083e-08
8.7009653e-08
8.6339149e-08
8.567925e-08
8.5029578e-08
8.4388851e-08
8.3756124e-08
8.3131414e-08
8.2514627e-08
8.1904649e-08
8.1300574e-08
8.0702336e-08
8.0110187e-08
7.9523327e-08
7.8940669e-08
7.8361908e-08
7.7787531e-08
7.7217137e-08
7.6649521e-08
7.6084203e-08
7.5521547e-08
7.4961584e-08
7.4403423e-08
7.384628e-08
7.3290157e-08
7.273545e-08
7.2181457e-08
7.1627064e-08
7.1072026e-08
7.0516958e-08
6.9961333e-08
6.9403383e-08
6.8843202e-08
6.8281479e-08
6.7717679e-08
6.7150522e-08
6.6579562e-08
6.6005321e-08
6.5426962e-08
6.4843053e-08
6.4253499e-08
6.3658362e-08
6.3056395e-08
6.2446567e-08
6.1829083e-08
6.1202865e-08
6.0579887e-08
5.998085e-08
5.9410298e-08
5.8860718e-08
5.8335838e-08
5.7834536e-08
5.7354732e-08
5.6894308e-08
5.6452015e-08
5.6027156e-08
5.56185e-08
5.5224465e-08
5.4843929e-08
5.4476385e-08
5.4121291e-08
5.3777734e-08
5.3444358e-08
5.3120673e-08
5.2804237e-08
5.2498605e-08
5.2187466e-08
5.1909305e-08
5.1457051e-08
1.9251429e-07
1.6664581e-07
1.676098e-07
1.5773356e-07
1.5032656e-07
1.4502214e-07
1.4109888e-07
1.3808281e-07
1.3570349e-07
1.3379631e-07
1.3224956e-07
1.3098168e-07
1.2993134e-07
1.2905194e-07
1.2830791e-07
1.2767179e-07
1.2712227e-07
1.2664202e-07
1.262188e-07
1.2583611e-07
1.2550686e-07
1.2513199e-07
1.2496005e-07
1.0952237e-07
5.7518329e-10
7.1886341e-08
1.5593552e-07
1.9150094e-07
1.9737531e-07
1.952814e-07
1.923991e-07
1.8962467e-07
1.8688069e-07
1.84215e-07
1.8168371e-07
1.792951e-07
1.766491e-07
1.7412191e-07
1.7172628e-07
1.6946594e-07
1.6733315e-07
1.6530914e-07
1.6338416e-07
1.6155209e-07
1.5979932e-07
1.5812207e-07
1.5651411e-07
1.5497031e-07
1.5348704e-07
1.5205764e-07
1.5068083e-07
1.4935052e-07
1.480619e-07
1.4681482e-07
1.4560514e-07
1.4442908e-07
1.4328652e-07
1.4217418e-07
1.4108852e-07
1.4002971e-07
1.3899588e-07
1.3798393e-07
1.3699293e-07
1.3602318e-07
1.3506169e-07
1.3410967e-07
1.331739e-07
1.3225459e-07
1.3134985e-07
1.3045822e-07
1.2957982e-07
1.2871421e-07
1.2785959e-07
1.2701468e-07
1.2617964e-07
1.2535445e-07
1.2453756e-07
1.2372768e-07
1.2292481e-07
1.2212942e-07
1.213404e-07
1.205562e-07
1.1977644e-07
1.1900189e-07
1.1823202e-07
1.1746515e-07
1.1670057e-07
1.1593885e-07
1.1518012e-07
1.144231e-07
1.1366668e-07
1.1291088e-07
1.1215631e-07
1.1140199e-07
1.1064635e-07
1.0988902e-07
1.0913092e-07
1.0837132e-07
1.0760772e-07
1.0684022e-07
1.0606983e-07
1.0529579e-07
1.0451628e-07
1.0373065e-07
1.0293965e-07
1.021421e-07
1.0133594e-07
1.0052102e-07
9.9697423e-08
9.8863365e-08
9.8017345e-08
9.7159623e-08
9.628864e-08
9.5420997e-08
9.4585607e-08
9.3788716e-08
9.3019013e-08
9.2282986e-08
9.1579225e-08
9.0904911e-08
9.0257141e-08
8.9634224e-08
8.9035272e-08
8.8458615e-08
8.7902067e-08
8.7364089e-08
8.6844014e-08
8.6341135e-08
8.5854196e-08
8.5381316e-08
8.4921807e-08
8.4472322e-08
8.4037741e-08
8.3595549e-08
8.3199513e-08
8.2555011e-08
1.9251784e-07
1.6655274e-07
1.674771e-07
1.5793077e-07
1.5059577e-07
1.4528628e-07
1.4134047e-07
1.3829883e-07
1.3589438e-07
1.3396354e-07
1.3239505e-07
1.3110755e-07
1.3003969e-07
1.2914474e-07
1.2838692e-07
1.2773855e-07
1.2717808e-07
1.2668797e-07
1.2625583e-07
1.2586471e-07
1.2552901e-07
1.2514139e-07
1.2500813e-07
1.115635e-07
7.4056059e-10
8.9842872e-08
1.9843161e-07
2.4967432e-07
2.6077668e-07
2.59687e-07
2.5697219e-07
2.5415202e-07
2.5120266e-07
2.4822649e-07
2.4533117e-07
2.4255266e-07
2.3972199e-07
2.3697362e-07
2.3434297e-07
2.3184403e-07
2.2947271e-07
2.2720921e-07
2.2504558e-07
2.2297798e-07
2.2099188e-07
2.1908516e-07
2.172518e-07
2.1548677e-07
2.1378705e-07
2.1214539e-07
2.1056122e-07
2.0902743e-07
2.0753893e-07
2.0609631e-07
2.0469465e-07
2.0332994e-07
2.0200262e-07
2.0070853e-07
1.9944372e-07
1.982092e-07
1.9700245e-07
1.9581956e-07
1.9466011e-07
1.9352508e-07
1.923464e-07
1.9114696e-07
1.899668e-07
1.8880649e-07
1.8766344e-07
1.8653582e-07
1.8542405e-07
1.8432769e-07
1.8324428e-07
1.8217217e-07
1.8111177e-07
1.8006318e-07
1.7902434e-07
1.7799348e-07
1.7697071e-07
1.7595684e-07
1.7495039e-07
1.7394924e-07
1.7295295e-07
1.7196264e-07
1.7097768e-07
1.6999582e-07
1.6901606e-07
1.6803926e-07
1.6706567e-07
1.660936e-07
1.651215e-07
1.6414945e-07
1.6317833e-07
1.6220685e-07
1.612329e-07
1.6025597e-07
1.5927734e-07
1.5829609e-07
1.5730885e-07
1.5631574e-07
1.5531811e-07
1.5431502e-07
1.53304e-07
1.5228415e-07
1.5125649e-07
1.5021949e-07
1.4917037e-07
1.4810888e-07
1.4703516e-07
1.4594682e-07
1.4484182e-07
1.4372048e-07
1.425807e-07
1.4144413e-07
1.4034873e-07
1.3930237e-07
1.3828836e-07
1.3731776e-07
1.3638893e-07
1.3549823e-07
1.3464189e-07
1.3381774e-07
1.3302471e-07
1.3226065e-07
1.3152271e-07
1.3080889e-07
1.3011835e-07
1.2945022e-07
1.2880287e-07
1.2817384e-07
1.2756221e-07
1.2696371e-07
1.2638453e-07
1.2579579e-07
1.252675e-07
1.244072e-07
1.9252186e-07
1.6645352e-07
1.673148e-07
1.5814724e-07
1.509014e-07
1.4559139e-07
1.4162311e-07
1.385543e-07
1.3612246e-07
1.3416547e-07
1.3257274e-07
1.3126322e-07
1.3017559e-07
1.2926303e-07
1.2848955e-07
1.2782722e-07
1.2725425e-07
1.2675287e-07
1.2631054e-07
1.2590975e-07
1.2556664e-07
1.2516353e-07
1.2508307e-07
1.1355868e-07
9.3201516e-10
1.1023432e-07
2.4437454e-07
3.1609056e-07
3.3520831e-07
3.3618802e-07
3.3410161e-07
3.3150872e-07
3.2852822e-07
3.2534724e-07
3.2214709e-07
3.190066e-07
3.158172e-07
3.1267331e-07
3.0963356e-07
3.0672471e-07
3.0394791e-07
3.0128224e-07
2.9872156e-07
2.9626445e-07
2.9389513e-07
2.9161297e-07
2.8941198e-07
2.8728727e-07
2.8523631e-07
2.8325091e-07
2.813314e-07
2.7946919e-07
2.7765854e-07
2.7590102e-07
2.7419062e-07
2.7252272e-07
2.7089852e-07
2.693128e-07
2.6776075e-07
2.6624431e-07
2.6476036e-07
2.6330385e-07
2.618747e-07
2.6047462e-07
2.5907774e-07
2.5768658e-07
2.5631629e-07
2.5496845e-07
2.5363944e-07
2.52327e-07
2.5103239e-07