/*--------------------------------*- C++ -*----------------------------------*\
  =========                 |
  \\      /  F ield         | OpenFOAM: The Open Source CFD Toolbox
   \\    /   O peration     | Website:  https://openfoam.org
    \\  /    A nd           | Version:  12
     \\/     M anipulation  |
\*---------------------------------------------------------------------------*/
FoamFile
{
    format      ascii;
    class       volScalarField;
    location    "1100";
    object      omega;
}
// * * * * * * * * * * * * * * * * * * * * * * * * * * * * * * * * * * * * * //

dimensions      [0 0 -1 0 0 0 0];

internalField   nonuniform List<scalar> 
7480
(
99.668428
99.668428
99.668428
99.668428
99.668428
99.668428
99.668428
99.668428
99.668428
99.668428
99.668428
99.668428
99.668428
425.17686
681.41431
848.44954
946.62034
996.85136
1022.6643
1021.7522
1016.2807
1006.0574
993.35135
979.75784
965.81527
951.79772
937.97002
924.70884
912.40452
900.91641
890.25908
880.49961
871.68241
863.80585
856.82338
850.66009
845.21782
840.40167
836.14843
832.41087
829.12187
826.19942
823.57045
821.16125
818.94056
816.81203
814.7564
812.74079
810.73272
808.71068
806.65111
804.52572
802.31585
800.02025
797.65147
795.227
792.76383
790.27943
787.78945
785.30421
782.82879
780.36576
777.91858
775.49311
773.09512
770.72786
768.39445
766.09729
763.83415
761.59915
759.38786
757.19986
755.03638
752.89817
750.78712
748.70528
746.65081
744.61947
742.60859
740.61817
738.64929
736.70368
734.78266
732.88442
731.00534
729.14427
727.30127
725.47774
723.67511
721.89142
720.12377
718.37136
716.63484
714.91333
713.20891
711.50522
709.83589
708.06735
706.56751
703.81895
24.729692
24.770059
24.831147
24.899965
24.973199
25.050129
25.130118
25.213349
25.298969
25.39392
25.468117
25.681067
25.299712
27.772795
39.055034
67.4672
115.63952
179.13993
251.76876
316.42346
363.37421
394.72424
415.46956
429.71124
438.53345
441.28282
439.30655
434.22186
429.55007
428.31984
429.82704
432.58046
435.26367
436.99574
437.32039
436.11147
433.48015
429.71008
425.2753
420.41943
414.94458
408.9014
402.61134
396.27972
390.01688
383.91757
378.06098
372.50342
367.26877
362.3498
357.79817
353.60446
349.74675
346.20291
342.9494
339.95503
337.18606
334.60796
332.17286
329.85793
327.65511
325.55864
323.55793
321.64202
319.80342
318.03575
316.33334
314.68514
313.0805
311.51599
309.99286
308.51292
307.07678
305.68312
304.33016
303.01423
301.73011
300.4746
299.2479
298.05103
296.88413
295.74676
294.63614
293.54931
292.48435
291.44126
290.42081
289.42283
288.44566
287.48738
286.54646
285.62288
284.71733
283.82849
282.95598
282.09519
281.256
280.40805
279.66655
278.40854
24.644349
24.494649
24.343583
24.190471
24.035128
23.877529
23.717683
23.555618
23.391356
23.224958
23.056388
22.885966
22.713381
22.53875
22.395685
22.573407
23.517973
25.953205
30.629432
38.732654
50.899917
66.752323
85.598727
106.44375
129.01968
149.5114
167.06029
181.95609
195.10176
208.06271
222.71945
237.03798
248.92839
258.2313
265.12755
269.75606
272.12676
272.06279
269.65509
265.68273
261.70049
258.24665
255.00346
251.73671
248.38732
245.10107
241.70676
238.14077
234.47778
230.77766
227.11365
223.5873
220.25523
217.13347
214.20971
211.46172
208.87486
206.44095
204.17756
202.07451
200.11377
198.27585
196.54242
194.90105
193.34364
191.86238
190.44858
189.08863
187.77487
186.50809
185.2894
184.11725
182.98897
181.90199
180.85439
179.84096
178.856
177.89817
176.9686
176.06795
175.19557
174.35081
173.53018
172.73023
171.94988
171.18968
170.45016
169.73141
169.03122
168.34727
167.67866
167.02562
166.38878
165.76712
165.15942
164.56326
163.98368
163.4026
162.91091
162.04433
24.638761
24.480104
24.318873
24.154932
23.988297
23.818982
23.647003
23.472379
23.295131
23.115284
22.932864
22.747919
22.560474
22.37076
22.1786
21.985581
21.792115
21.60564
21.446617
21.362087
21.413972
21.667387
22.182371
23.048291
24.283589
26.366666
29.470355
33.71367
39.223724
46.158163
54.855002
65.566634
78.795342
93.081982
107.97016
123.2896
138.99602
155.0821
168.34144
177.82222
184.17762
188.17496
190.25248
190.67564
189.68979
187.54416
185.15697
182.81145
180.43644
177.90977
175.24149
172.59533
169.86847
167.11506
164.37335
161.67014
159.04653
156.5309
154.15067
151.91268
149.80539
147.81721
145.94296
144.17923
142.5163
140.94123
139.43963
138.01265
136.66159
135.38129
134.16409
133.00258
131.89178
130.82834
129.80886
128.8273
127.8801
126.96771
126.09031
125.2465
124.43416
123.65185
122.89519
122.16129
121.45002
120.76187
120.09662
119.4538
118.83038
118.22416
117.63475
117.06245
116.50757
115.9687
115.44425
114.93255
114.43768
113.94396
113.53581
112.80639
24.638343
24.47912
24.317341
24.152858
23.985642
23.815692
23.643013
23.467619
23.289523
23.108741
22.925292
22.739196
22.550479
22.359112
22.165278
21.96795
21.76742
21.564489
21.361242
21.156698
20.951329
20.746513
20.541806
20.338819
20.139974
19.950686
19.778579
19.636798
19.542184
19.516911
19.591148
19.81648
20.234702
21.15993
22.797445
25.375324
29.200528
34.736599
42.436631
53.077381
66.338045
80.94316
96.398053
112.73914
126.28206
135.8219
141.9216
145.36053
146.82577
146.85868
145.85099
144.28124
142.56987
140.73097
138.71329
136.54459
134.37677
132.1569
129.91143
127.669
125.46457
123.33666
121.31386
119.39512
117.56421
115.81111
114.13359
112.54046
111.0369
109.61683
108.26933
106.98781
105.76867
104.60769
103.4977
102.43874
101.43198
100.47365
99.559175
98.684316
97.845955
97.041602
96.267483
95.522327
94.806039
94.117792
93.456045
92.819437
92.204498
91.609727
91.035083
90.480413
89.945383
89.427979
88.926613
88.440015
87.972185
87.506798
87.128039
86.448624
24.638309
24.479025
24.317178
24.152629
23.985347
23.815333
23.642595
23.467145
23.288998
23.108173
22.924689
22.738572
22.549852
22.358566
22.164763
21.968479
21.769752
21.568603
21.365041
21.158907
20.94977
20.736906
20.521787
20.304912
20.086669
19.867429
19.64832
19.428578
19.20813
18.987326
18.767362
18.547652
18.328547
18.112063
17.902474
17.707356
17.541721
17.431054
17.425283
17.575058
18.101011
19.347099
21.654093
25.568835
31.72565
41.246506
54.047561
68.450665
84.013053
97.772513
107.84094
114.18476
117.66019
119.0765
119.14729
118.35695
117.15649
115.78084
114.25369
112.56932
110.79626
109.00734
107.19556
105.36415
103.52764
101.72226
99.980683
98.307779
96.695746
95.142637
93.65324
92.233314
90.881558
89.591969
88.357687
87.180512
86.064239
85.005528
83.998023
83.037015
82.119631
81.241663
80.405138
79.608761
78.849204
78.123122
77.427746
76.760733
76.119677
75.503971
74.912973
74.345483
73.800226
73.274828
72.76813
72.279039
71.811368
71.347252
70.972446
70.302968
24.638316
24.479023
24.317167
24.152607
23.985314
23.815288
23.642537
23.467073
23.288913
23.108073
22.924574
22.738442
22.549709
22.358419
22.164622
21.968375
21.769735
21.568761
21.365501
21.16
20.952298
20.742403
20.530349
20.316187
20.099971
19.881744
19.66155
19.439378
19.215112
18.988648
18.759299
18.528361
18.296438
18.063874
17.831023
17.598686
17.367332
17.13627
16.905917
16.67811
16.452426
16.23203
16.026285
15.853237
15.766196
15.831487
16.306113
17.610295
20.268626
24.949736
32.866938
44.461058
57.825865
72.326037
84.034744
92.104852
96.83027
99.054813
99.684351
99.379111
98.547109
97.503214
96.285778
94.946115
93.51726
92.084329
90.623288
89.126601
87.596678
86.065902
84.570002
83.120499
81.712981
80.346342
79.027603
77.760977
76.546779
75.384124
74.272315
73.211001
72.198543
71.230281
70.307521
69.431145
68.598034
67.803822
67.045464
66.319629
65.628828
64.970855
64.342737
63.74194
63.166227
62.613779
62.08415
61.575766
61.091817
60.612652
60.22669
59.543738
24.63833
24.479038
24.317181
24.15262
23.985326
23.815298
23.642545
23.467079
23.288917
23.108076
22.924578
22.738447
22.549717
22.358429
22.164633
21.968383
21.769734
21.568743
21.365468
21.159964
20.952289
20.742508
20.530681
20.316872
20.101143
19.88356
19.664182
19.443075
19.220301
18.995928
18.769995
18.542566
18.313727
18.083572
17.852184
17.619637
17.385969
17.151074
16.914767
16.675965
16.436616
16.19751
15.959356
15.723997
15.490075
15.258494
15.031211
14.811485
14.611029
14.470337
14.46158
14.822862
16.013041
18.653269
23.417334
32.217901
43.531156
56.501939
68.160252
76.609012
81.763449
84.272539
85.031036
84.880323
84.25909
83.441363
82.466494
81.379754
80.214761
79.036608
77.822321
76.56494
75.272993
73.975683
72.702317
71.453585
70.224324
69.021023
67.854877
66.731021
65.649337
64.608976
63.609821
62.654262
61.741907
60.870848
60.039743
59.245405
58.4892
57.770387
57.086128
56.433375
55.809132
55.214256
54.648239
54.107558
53.594452
53.087647
52.679608
51.96651
24.638347
24.479057
24.317202
24.152642
23.985348
23.815321
23.642568
23.467103
23.288942
23.108102
22.924605
22.738478
22.549751
22.358467
22.164676
21.968432
21.769788
21.5688
21.365526
21.160019
20.952336
20.742536
20.530682
20.316838
20.101074
19.883461
19.664074
19.442989
19.220287
18.99605
18.770367
18.543326
18.315013
18.085512
17.854913
17.6233
17.390759
17.157374
16.923231
16.688369
16.452864
16.216814
15.980286
15.74335
15.505838
15.267087
15.026719
14.786824
14.549413
14.315495
14.084035
13.858268
13.640872
13.443295
13.322237
13.354173
13.953096
15.658596
19.102165
25.870332
35.803562
47.560062
58.431644
66.265257
70.957976
73.124339
73.712933
73.543524
73.016066
72.333806
71.506912
70.582947
69.603497
68.608134
67.580525
66.509066
65.405036
64.294306
63.191565
62.098608
61.019953
59.966044
58.940821
57.945486
56.982371
56.055176
55.165846
54.313033
53.49492
52.713308
51.967864
51.256724
50.577509
49.930658
49.315937
48.730149
48.175233
47.628896
47.189557
46.432212
24.638366
24.479078
24.317225
24.152667
23.985375
23.815348
23.642597
23.467133
23.288973
23.108135
22.924642
22.738518
22.549797
22.35852
22.164735
21.968496
21.769856
21.568872
21.365598
21.160091
20.952407
20.742605
20.530746
20.316896
20.101122
19.883496
19.664091
19.442985
19.220258
18.99599
18.770269
18.543182
18.314819
18.085274
17.85464
17.623015
17.390496
17.157186
16.923186
16.688606
16.453551
16.218118
15.982407
15.746503
15.510495
15.274452
15.038407
14.802413
14.566569
14.330777
14.094849
13.856638
13.619097
13.385182
13.155326
12.928871
12.709909
12.502976
12.341249
12.2943
12.681711
14.042794
16.995165
23.246646
32.485263
43.550747
53.049649
59.521753
63.045942
64.485751
64.724545
64.44879
63.941228
63.31897
62.578644
61.775235
60.944447
60.08661
59.185803
58.244542
57.283792
56.322947
55.362495
54.40287
53.453679
52.524023
51.617681
50.737155
49.883515
49.059664
48.267259
47.507293
46.779912
46.083753
45.418885
44.784365
44.183165
43.592811
43.114609
42.299073
24.638387
24.479101
24.31725
24.152694
23.985403
23.815378
23.642629
23.467167
23.289008
23.108173
22.924683
22.738564
22.549849
22.358578
22.1648
21.968568
21.769934
21.568953
21.365682
21.160176
20.952493
20.74269
20.53083
20.316977
20.101202
19.883573
19.664165
19.443056
19.220323
18.99605
18.770321
18.543224
18.314849
18.085287
17.854632
17.622982
17.390435
17.157092
16.923055
16.688427
16.453316
16.217826
15.982066
15.746144
15.510169
15.27425
15.038503
14.803033
14.567933
14.333279
14.099161
13.865567
13.632517
13.400122
13.168237
12.936307
12.70281
12.471201
12.245375
12.022678
11.808043
11.60331
11.43672
11.376301
11.764881
13.179959
16.27519
23.171134
32.401634
42.346727
50.002728
54.660584
56.758735
57.390401
57.297646
56.921605
56.422336
55.831192
55.166692
54.462603
53.738174
52.976106
52.172407
51.340583
50.498976
49.65011
48.795906
47.946523
47.108718
46.285326
45.480027
44.697966
43.942475
43.213037
42.510589
41.836108
41.194423
40.563796
40.047952
39.170089
24.638409
24.479125
24.317277
24.152722
23.985434
23.815411
23.642662
23.467202
23.289046
23.108214
22.924727
22.738614
22.549905
22.358642
22.164871
21.968645
21.770016
21.56904
21.365772
21.160267
20.952583
20.742779
20.530917
20.317063
20.101285
19.883653
19.664243
19.44313
19.220394
18.996118
18.770386
18.543286
18.314908
18.085343
17.854685
17.623032
17.390482
17.157134
16.923091
16.688456
16.453334
16.21783
15.982052
15.746106
15.5101
15.274143
15.038344
14.802812
14.567655
14.332981
14.098897
13.86552
13.632953
13.401279
13.170567
12.940881
12.712177
12.4845
12.257791
12.032113
11.804195
11.577958
11.358282
11.14191
10.934502
10.737206
10.588504
10.568007
11.182034
12.946464
17.197944
24.774372
34.430476
42.54508
47.871141
50.324571
51.217695
51.276205
50.996886
50.582472
50.092032
49.527545
48.926421
48.307322
47.652819
46.956015
46.227621
45.486059
44.733982
43.972153
43.209219
42.452883
41.707582
40.976182
40.262408
39.568731
38.90218
38.242564
37.69937
36.768289
24.638432
24.479151
24.317305
24.152753
23.985466
23.815445
23.642698
23.46724
23.289087
23.108257
22.924775
22.738666
22.549965
22.358709
22.164945
21.968726
21.770103
21.569131
21.365866
21.160362
20.952679
20.742874
20.531011
20.317155
20.101374
19.88374
19.664327
19.44321
19.220471
18.996192
18.770456
18.543353
18.314971
18.085403
17.854743
17.623087
17.390534
17.157184
16.923139
16.688502
16.453379
16.217874
15.982094
15.746146
15.510138
15.274178
15.038373
14.802831
14.567659
14.332964
14.098852
13.865429
13.6328
13.401069
13.170337
12.940706
12.712284
12.485166
12.259397
12.035068
11.812089
11.59047
11.370173
11.151389
10.930341
10.711725
10.499779
10.29199
10.093479
9.9138913
9.7979784
10.005609
11.122965
13.933533
20.293484
28.979983
37.021298
42.503671
45.083459
46.067211
46.186866
45.949807
45.586096
45.161479
44.671547
44.150936
43.611023
43.039658
42.42901
41.787523
41.13028
40.458517
39.775409
39.089228
38.405738
37.727898
37.065419
36.399797
35.847384
34.884475
24.638457
24.479178
24.317335
24.152784
23.9855
23.815481
23.642736
23.467281
23.28913
23.108304
22.924826
22.738723
22.550027
22.358779
22.165023
21.968811
21.770194
21.569227
21.365964
21.160462
20.952779
20.742974
20.531109
20.317251
20.101468
19.883831
19.664415
19.443295
19.220553
18.996269
18.770531
18.543423
18.315038
18.085466
17.854803
17.623144
17.390588
17.157235
16.923188
16.688549
16.453423
16.217916
15.982134
15.746185
15.510176
15.274215
15.038409
14.802867
14.567694
14.332999
14.098885
13.865459
13.632822
13.401078
13.170327
12.940667
12.712197
12.485014
12.259212
12.034879
11.812121
11.591027
11.371626
11.15401
10.938045
10.723743
10.511047
10.299764
10.086838
9.8780721
9.6749419
9.479272
9.2950501
9.1496239
9.1805461
9.9585247
12.093106
17.671573
25.676843
33.319308
38.51704
40.874506
41.740752
41.829492
41.601412
41.268468
40.887054
40.455809
39.999213
39.524609
39.019994
38.476911
37.905183
37.316074
36.710892
36.0933
35.475883
34.839729
34.306262
33.348233
24.638483
24.479207
24.317366
24.152818
23.985535
23.815518
23.642776
23.467323
23.289175
23.108353
22.924879
22.738782
22.550093
22.358853
22.165105
21.968899
21.770289
21.569326
21.366066
21.160566
20.952883
20.743077
20.531212
20.317352
20.101566
19.883927
19.664507
19.443384
19.220638
18.996351
18.770609
18.543498
18.315109
18.085534
17.854867
17.623205
17.390646
17.15729
16.92324
16.688599
16.45347
16.217961
15.982177
15.746226
15.510215
15.274252
15.038445
14.802901
14.567728
14.333031
14.098917
13.865489
13.632853
13.401108
13.170356
12.940695
12.712221
12.485029
12.259211
12.034857
11.812056
11.590895
11.37146
11.153825
10.93809
10.724329
10.51256
10.302837
10.095032
9.8890507
9.6852133
9.4806695
9.2771523
9.0808683
8.8886548
8.7118468
8.5427532
8.5191576
9.1532141
11.068815
16.308009
23.977063
31.013079
35.510232
37.418865
38.046106
38.052995
37.819811
37.508347
37.161129
36.775892
36.370886
35.948712
35.493403
35.00279
34.486961
33.957243
33.390719
32.911322
32.008435
24.638511
24.479238
24.317399
24.152853
23.985573
23.815558
23.642819
23.467368
23.289223
23.108405
22.924936
22.738844
22.550163
22.35893
22.165189
21.968991
21.770386
21.569428
21.366172
21.160673
20.952991
20.743185
20.531318
20.317457
20.101669
19.884026
19.664603
19.443477
19.220728
18.996437
18.770691
18.543576
18.315184
18.085605
17.854934
17.623269
17.390707
17.157348
16.923295
16.688651
16.453521
16.218009
15.982223
15.74627
15.510257
15.274292
15.038483
14.802938
14.567763
14.333065
14.098949
13.86552
13.632882
13.401137
13.170384
12.940722
12.712247
12.485055
12.259237
12.034882
11.812078
11.590909
11.371459
11.153805
10.938026
10.724198
10.512394
10.302679
10.095144
9.889823
9.6867664
9.4858873
9.287054
9.0903544
8.8950783
8.6980521
8.5093816
8.3212445
8.1612283
7.9543159
7.9565849
8.5907581
10.621854
15.910992
23.501889
29.709835
33.091012
34.451607
34.816926
34.74177
34.506674
34.21591
33.896989
33.548026
33.181766
32.796993
32.383783
31.919527
31.527295
30.732395
24.638541
24.47927
24.317433
24.15289
23.985612
23.8156
23.642863
23.467416
23.289274
23.108459
22.924995
22.738909
22.550235
22.359009
22.165277
21.969086
21.770487
21.569534
21.366281
21.160784
20.953103
20.743296
20.531428
20.317565
20.101775
19.884129
19.664703
19.443574
19.220821
18.996526
18.770776
18.543658
18.315262
18.085679
17.855005
17.623336
17.390771
17.157409
16.923353
16.688707
16.453573
16.218059
15.982271
15.746316
15.510301
15.274335
15.038524
14.802977
14.5678
14.3331
14.098983
13.865553
13.632914
13.401167
13.170412
12.940749
12.712274
12.48508
12.259261
12.034905
11.812101
11.590932
11.371481
11.153826
10.938044
10.724208
10.512388
10.302652
10.095065
9.889692
9.6865887
9.4858245
9.2874625
9.0914962
8.8979766
8.7065836
8.5175389
8.3307668
8.1406388
7.9582882
7.78064
7.6152244
7.4685165
7.4964024
8.233832
10.785084
16.521094
23.520416
28.640845
30.987721
31.867441
31.990555
31.835366
31.588724
31.310458
31.011901
30.697945
30.350645
30.064107
29.418672
24.638573
24.479304
24.31747
24.152929
23.985654
23.815644
23.64291
23.467465
23.289328
23.108517
22.925058
22.738978
22.55031
22.359092
22.165368
21.969184
21.770591
21.569643
21.366393
21.160898
20.953217
20.743411
20.531542
20.317677
20.101884
19.884236
19.664807
19.443674
19.220917
18.996619
18.770865
18.543743
18.315343
18.085757
17.855079
17.623407
17.390838
17.157473
16.923414
16.688765
16.453629
16.218112
15.982322
15.746365
15.510348
15.274379
15.038567
14.803018
14.567839
14.333138
14.099019
13.865588
13.632947
13.401198
13.170443
12.940778
12.712301
12.485107
12.259286
12.034929
11.812123
11.590954
11.371501
11.153846
10.938064
10.724227
10.512407
10.30267
10.09508
9.8896969
9.6865786
9.4857801
9.2873559
9.0913556
8.897823
8.7068377
8.5183524
8.3325409
8.1487545
7.9677908
7.7888683
7.6079363
7.4345006
7.2652852
7.1117443
6.9718128
7.1575473
8.1237593
11.861721
18.174747
24.159748
27.672195
29.060059
29.460333
29.42503
29.23679
28.999431
28.724739
28.502145
28.012668
24.638606
24.47934
24.317508
24.15297
23.985698
23.815691
23.64296
23.467518
23.289384
23.108577
22.925123
22.739049
22.550388
22.359178
22.165461
21.969284
21.770698
21.569754
21.366508
21.161015
20.953336
20.743529
20.531659
20.317792
20.101998
19.884347
19.664914
19.443778
19.221018
18.996716
18.770958
18.543832
18.315428
18.085837
17.855156
17.62348
17.390908
17.15754
16.923478
16.688825
16.453687
16.218168
15.982375
15.746415
15.510396
15.274426
15.038611
14.80306
14.56788
14.333177
14.099057
13.865624
13.632982
13.401232
13.170475
12.940809
12.71233
12.485134
12.259312
12.034954
11.812147
11.590976
11.371523
11.153867
10.938083
10.724246
10.512425
10.302687
10.095097
9.8897135
9.686595
9.4857953
9.2873647
9.0913511
8.8977981
8.7067512
8.5182488
8.3323247
8.1490442
7.9683977
7.7904379
7.6148017
7.4417534
7.2702763
7.0978783
6.9322332
6.7737598
6.6309667
6.532743
6.9556701
8.6824022
13.530353
19.834299
24.453069
26.476455
27.185698
27.269079
27.116827
26.95433
26.559992
24.638642
24.479378
24.317549
24.153014
23.985744
23.81574
23.643011
23.467573
23.289443
23.108641
22.925192
22.739124
22.55047
22.359267
22.165557
21.969387
21.770807
21.569868
21.366625
21.161135
20.953457
20.74365
20.53178
20.317911
20.102114
19.884461
19.665025
19.443885
19.221121
18.996815
18.771054
18.543924
18.315515
18.085921
17.855236
17.623556
17.390981
17.157609
16.923544
16.688889
16.453747
16.218225
15.98243
15.746468
15.510447
15.274474
15.038658
14.803105
14.567923
14.333218
14.099096
13.865662
13.633018
13.401266
13.170508
12.94084
12.712361
12.485163
12.25934
12.034981
11.812172
11.591
11.371546
11.153888
10.938104
10.724265
10.512443
10.302705
10.095113
9.8897291
9.68661
9.4858098
9.2873791
9.0913653
8.8978123
8.7067605
8.5182481
8.3323075
8.148976
7.9682815
7.790247
7.6149314
7.4423024
7.2724054
7.1047424
6.940167
6.7749667
6.6124822
6.454298
6.3120683
6.1678182
6.2707738
7.0328703
10.48059
16.32922
21.447101
24.081306
25.043985
25.328963
25.125176
24.63868
24.479418
24.317592
24.153059
23.985792
23.815791
23.643066
23.467631
23.289504
23.108707
22.925263
22.739201
22.550554
22.359358
22.165656
21.969493
21.770919
21.569985
21.366746
21.161258
20.953581
20.743774
20.531903
20.318033
20.102234
19.884578
19.665139
19.443996
19.221228
18.996918
18.771153
18.544018
18.315606
18.086008
17.855319
17.623635
17.391056
17.157681
16.923613
16.688954
16.45381
16.218285
15.982487
15.746523
15.510499
15.274524
15.038706
14.803151
14.567967
14.333261
14.099137
13.865701
13.633055
13.401302
13.170542
12.940873
12.712392
12.485193
12.259369
12.035008
11.812198
11.591025
11.371569
11.153911
10.938125
10.724286
10.512463
10.302723
10.09513
9.8897453
9.6866253
9.4858242
9.2873928
9.0913783
8.8978248
8.706773
8.5182601
8.3323205
8.1489845
7.9682806
7.7902319
7.614865
7.4421978
7.2722551
7.1050589
6.9406309
6.7788378
6.6193082
6.4629613
6.3038312
6.1515758
6.0061231
5.8707708
5.7883096
6.2015441
8.15392
13.035173
18.384581
21.853494
23.262156
24.63872
24.479461
24.317637
24.153107
23.985843
23.815845
23.643123
23.467692
23.289569
23.108776
22.925338
22.739282
22.550641
22.359453
22.165758
21.969602
21.771033
21.570104
21.366869
21.161384
20.953708
20.743901
20.532029
20.318158
20.102357
19.884698
19.665256
19.44411
19.221338
18.997024
18.771255
18.544116
18.3157
18.086098
17.855405
17.623717
17.391134
17.157756
16.923684
16.689022
16.453875
16.218348
15.982547
15.74658
15.510554
15.274577
15.038756
14.803199
14.568013
14.333305
14.09918
13.865741
13.633094
13.40134
13.170578
12.940907
12.712425
12.485224
12.259398
12.035036
11.812225
11.591051
11.371594
11.153934
10.938147
10.724306
10.512482
10.302741
10.095148
9.889762
9.6866411
9.4858391
9.2874068
9.0913915
8.8978373
8.7067847
8.5182713
8.3323312
8.1489952
7.968291
7.7902431
7.6148726
7.4421984
7.2722347
7.1050015
6.9404999
6.7787733
6.6197785
6.4636485
6.3097879
6.1589541
6.0084904
5.8599395
5.7155884
5.5861996
5.4595934
5.6356771
7.0332389
10.27817
17.276088
24.638762
24.479506
24.317685
24.153158
23.985896
23.815901
23.643183
23.467755
23.289637
23.108849
22.925415
22.739365
22.550731
22.35955
22.165862
21.969713
21.77115
21.570226
21.366995
21.161512
20.953837
20.744031
20.532159
20.318286
20.102483
19.884821
19.665377
19.444226
19.221451
18.997134
18.77136
18.544217
18.315797
18.08619
17.855493
17.623802
17.391215
17.157833
16.923758
16.689093
16.453942
16.218412
15.982609
15.746639
15.51061
15.274631
15.038808
14.803249
14.568061
14.333351
14.099223
13.865784
13.633135
13.401378
13.170615
12.940943
12.712459
12.485257
12.259429
12.035065
11.812253
11.591077
11.371619
11.153958
10.93817
10.724328
10.512503
10.302761
10.095166
9.8897792
9.6866573
9.4858545
9.2874213
9.0914052
8.8978501
8.7067968
8.5182826
8.3323418
8.1490052
7.9683004
7.7902521
7.6148817
7.4422074
7.2722445
7.1050057
6.9404998
6.7787353
6.6197213
6.4634559
6.3099672
6.1592548
6.0112053
5.8654966
5.7228339
5.5776475
5.4397592
5.3050281
5.2046862
5.1619312
8.3140297
24.638807
24.479553
24.317735
24.15321
23.985952
23.81596
23.643245
23.467822
23.289708
23.108924
22.925496
22.739452
22.550825
22.35965
22.165969
21.969826
21.77127
21.57035
21.367123
21.161643
20.953969
20.744164
20.532291
20.318417
20.102612
19.884948
19.6655
19.444346
19.221567
18.997246
18.771468
18.544321
18.315896
18.086286
17.855585
17.62389
17.391299
17.157913
16.923834
16.689166
16.454012
16.218479
15.982672
15.7467
15.510669
15.274687
15.038862
14.803301
14.568111
14.333398
14.099269
13.865827
13.633176
13.401418
13.170653
12.940979
12.712493
12.48529
12.259461
12.035096
11.812282
11.591104
11.371645
11.153982
10.938193
10.72435
10.512524
10.302781
10.095185
9.889797
9.6866741
9.4858703
9.2874362
9.0914192
8.8978633
8.7068092
8.5182943
8.3323527
8.1490154
7.96831
7.7902611
7.6148901
7.4422153
7.2722522
7.1050131
6.9405078
6.7787427
6.6197227
6.4634469
6.3099217
6.1591372
6.0111184
5.8658052
5.7233882
5.582927
5.446726
5.3048536
5.1877722
4.9849338
5.0146213
24.638854
24.479603
24.317787
24.153266
23.986011
23.816022
23.643311
23.467891
23.289781
23.109003
22.92558
22.739542
22.550921
22.359753
22.166079
21.969942
21.771391
21.570477
21.367253
21.161776
20.954104
20.744299
20.532426
20.318551
20.102744
19.885077
19.665626
19.444469
19.221687
18.997361
18.771579
18.544428
18.315999
18.086384
17.855679
17.62398
17.391385
17.157995
16.923913
16.689241
16.454084
16.218548
15.982738
15.746763
15.510729
15.274745
15.038917
14.803354
14.568162
14.333447
14.099316
13.865872
13.633219
13.401459
13.170692
12.941017
12.712529
12.485324
12.259493
12.035127
11.812312
11.591133
11.371672
11.154008
10.938217
10.724373
10.512545
10.302801
10.095204
9.8898152
9.6866913
9.4858865
9.2874515
9.0914336
8.8978768
8.7068219
8.5183062
8.3323639
8.1490259
7.9683198
7.7902702
7.6148986
7.4422232
7.2722595
7.10502
6.9405143
6.7787491
6.6197287
6.4634545
6.3099255
6.1591376
6.0110867
5.8657667
5.7231726
5.5832991
5.4461645
5.311801
5.1777158
5.0594251
4.8591131
24.638904
24.479655
24.317843
24.153324
23.986072
23.816087
23.643379
23.467964
23.289858
23.109084
22.925667
22.739635
22.55102
22.359859
22.166191
21.970061
21.771516
21.570606
21.367386
21.161912
20.954241
20.744437
20.532564
20.318687
20.102879
19.88521
19.665756
19.444595
19.221809
18.997479
18.771693
18.544538
18.316105
18.086486
17.855776
17.624072
17.391474
17.15808
16.923994
16.689319
16.454158
16.218619
15.982806
15.746828
15.510792
15.274805
15.038974
14.803409
14.568214
14.333497
14.099364
13.865918
13.633264
13.401502
13.170733
12.941056
12.712566
12.485359
12.259527
12.035159
11.812342
11.591162
11.371699
11.154034
10.938242
10.724396
10.512567
10.302822
10.095224
9.8898338
9.6867089
9.4859031
9.2874671
9.0914483
8.8978906
8.7068348
8.5183183
8.3323753
8.1490365
7.9683298
7.7902795
7.6149072
7.4422313
7.272267
7.105027
6.9405207
6.7787551
6.6197343
6.4634598
6.3099307
6.1591435
6.0110916
5.8657707
5.7231535
5.5833015
5.4458947
5.3122798
5.1765304
5.0644439
4.8640913
24.638957
24.479711
24.317901
24.153385
23.986136
23.816155
23.643451
23.468039
23.289938
23.109169
22.925757
22.739731
22.551122
22.359967
22.166306
21.970182
21.771642
21.570738
21.367521
21.16205
20.954381
20.744578
20.532704
20.318827
20.103016
19.885345
19.665888
19.444724
19.221934
18.997601
18.77181
18.544651
18.316213
18.08659
17.855876
17.624168
17.391565
17.158168
16.924078
16.689399
16.454235
16.218692
15.982876
15.746895
15.510856
15.274866
15.039033
14.803465
14.568268
14.333549
14.099414
13.865966
13.633309
13.401545
13.170775
12.941096
12.712604
12.485396
12.259562
12.035192
11.812373
11.591191
11.371727
11.15406
10.938267
10.72442
10.51259
10.302843
10.095244
9.8898529
9.6867269
9.48592
9.287483
9.0914632
8.8979047
8.706848
8.5183307
8.3323868
8.1490473
7.9683398
7.7902889
7.614916
7.4422394
7.2722746
7.105034
6.9405272
6.7787611
6.6197398
6.4634649
6.3099353
6.1591479
6.0110959
5.8657747
5.7231595
5.5833014
5.4459041
5.3122007
5.176635
5.0638567
4.8637913
24.639012
24.479769
24.317962
24.153449
23.986204
23.816226
23.643525
23.468118
23.290021
23.109257
22.925851
22.73983
22.551227
22.360079
22.166423
21.970305
21.771771
21.570871
21.367659
21.16219
20.954523
20.744721
20.532847
20.318968
20.103156
19.885482
19.666023
19.444856
19.222062
18.997725
18.77193
18.544766
18.316324
18.086696
17.855978
17.624266
17.391659
17.158258
16.924164
16.689481
16.454313
16.218767
15.982948
15.746964
15.510922
15.274929
15.039094
14.803523
14.568324
14.333603
14.099465
13.866015
13.633356
13.40159
13.170817
12.941136
12.712643
12.485433
12.259597
12.035225
11.812405
11.591222
11.371756
11.154088
10.938293
10.724445
10.512613
10.302865
10.095265
9.8898724
9.6867452
9.4859372
9.2874992
9.0914784
8.8979189
8.7068614
8.5183432
8.3323985
8.1490582
7.96835
7.7902984
7.6149248
7.4422476
7.2722822
7.105041
6.9405337
6.7787671
6.6197453
6.46347
6.30994
6.1591521
6.0110998
5.8657781
5.7231633
5.5833035
5.4459122
5.3121919
5.1766584
5.0638049
4.8636282
24.63907
24.47983
24.318026
24.153517
23.986274
23.8163
23.643603
23.4682
23.290108
23.109348
22.925947
22.739932
22.551335
22.360193
22.166544
21.970431
21.771903
21.571007
21.367799
21.162332
20.954668
20.744866
20.532992
20.319113
20.103299
19.885623
19.666161
19.44499
19.222193
18.997852
18.772053
18.544885
18.316438
18.086806
17.856083
17.624367
17.391755
17.15835
16.924252
16.689565
16.454394
16.218845
15.983022
15.747035
15.51099
15.274994
15.039156
14.803583
14.568381
14.333657
14.099517
13.866065
13.633404
13.401636
13.170861
12.941178
12.712683
12.485471
12.259633
12.03526
11.812438
11.591253
11.371786
11.154116
10.938319
10.72447
10.512637
10.302888
10.095286
9.8898922
9.6867638
9.4859548
9.2875157
9.0914939
8.8979334
8.7068749
8.5183559
8.3324103
8.1490693
7.9683603
7.7903079
7.6149337
7.4422558
7.2722898
7.105048
6.9405402
6.778773
6.6197508
6.463475
6.3099445
6.1591562
6.0111036
5.8657815
5.7231664
5.5833061
5.4459149
5.3121953
5.1766618
5.0638113
4.8636294
24.639132
24.479894
24.318093
24.153587
23.986348
23.816377
23.643684
23.468285
23.290197
23.109443
22.926047
22.740037
22.551446
22.36031
22.166667
21.97056
21.772036
21.571146
21.367941
21.162477
20.954814
20.745013
20.533139
20.31926
20.103444
19.885766
19.666301
19.445127
19.222326
18.997981
18.772178
18.545006
18.316555
18.086918
17.856191
17.62447
17.391854
17.158445
16.924343
16.689652
16.454477
16.218924
15.983099
15.747108
15.51106
15.275061
15.03922
14.803644
14.56844
14.333714
14.099571
13.866117
13.633453
13.401683
13.170906
12.941221
12.712724
12.48551
12.25967
12.035295
11.812472
11.591285