/*--------------------------------*- C++ -*----------------------------------*\
  =========                 |
  \\      /  F ield         | OpenFOAM: The Open Source CFD Toolbox
   \\    /   O peration     | Website:  https://openfoam.org
    \\  /    A nd           | Version:  12
     \\/     M anipulation  |
\*---------------------------------------------------------------------------*/
FoamFile
{
    format      ascii;
    class       volVectorField;
    location    "1100";
    object      U;
}
// * * * * * * * * * * * * * * * * * * * * * * * * * * * * * * * * * * * * * //

dimensions      [0 1 -1 0 0 0 0];

internalField   nonuniform List<vector> 
7480
(
(0.99717945 8.1009976e-05 1.4989613e-17)
(0.99545433 0.00018548407 0)
(0.99352817 0.0002551961 1.7968818e-19)
(0.99145701 0.00029810011 0)
(0.9892703 0.0003299967 0)
(0.98699018 0.00035201338 0)
(0.98462126 0.00036778991 0)
(0.98215797 0.00038027069 0)
(0.97959609 0.00039202625 0)
(0.97690715 0.00040065077 0)
(0.97413467 0.00042251401 0)
(0.97096983 0.0004042726 0)
(0.96835529 0.00063374947 0)
(0.96221098 0.00086042093 1.1769478e-16)
(0.95210888 0.001457766 -2.6590169e-18)
(0.9396021 0.0019806432 0)
(0.92554247 0.0023183315 0)
(0.91058376 0.0025039091 0)
(0.89509478 0.0025823784 0)
(0.87950601 0.002550811 0)
(0.86401363 0.0024702529 0)
(0.84878137 0.002336994 0)
(0.83385058 0.0021313231 0)
(0.81901946 0.0018956753 0)
(0.80437182 0.0016871625 0)
(0.7900709 0.0015032246 0)
(0.77630223 0.0013244808 0)
(0.76341489 0.0011579374 0)
(0.75123167 0.0010172089 0)
(0.73978952 0.00089410807 0)
(0.72915568 0.00078231537 0)
(0.71938106 0.00067977185 0)
(0.71048709 0.00058587531 0)
(0.70246357 0.00050140513 0)
(0.69527267 0.0004270663 0)
(0.68885864 0.00036287222 0)
(0.68314878 0.0003081929 0)
(0.67807234 0.00026163589 0)
(0.67357165 0.00022150603 0)
(0.6695934 0.00018648403 0)
(0.66607432 0.00015658205 0)
(0.66294433 0.00013213058 0)
(0.6601369 0.00011270879 0)
(0.65759297 9.7060212e-05 0)
(0.65527363 8.500233e-05 0)
(0.6531118 7.6606136e-05 0)
(0.65106851 7.1163857e-05 0)
(0.64910429 6.8014078e-05 0)
(0.64718493 6.6436698e-05 0)
(0.64528825 6.6509238e-05 0)
(0.64338248 6.8237561e-05 0)
(0.64143425 7.0839999e-05 0)
(0.63941999 7.3817907e-05 0)
(0.6373319 7.6664113e-05 0)
(0.63517457 7.9035622e-05 0)
(0.63295892 8.0661896e-05 0)
(0.6306977 8.1438513e-05 0)
(0.62840661 8.1216238e-05 0)
(0.62610471 8.0099665e-05 0)
(0.62380334 7.8522776e-05 0)
(0.62150663 7.6758663e-05 0)
(0.61921643 7.4900165e-05 0)
(0.61693676 7.2858055e-05 0)
(0.61467451 7.0629686e-05 0)
(0.61243532 6.8313105e-05 0)
(0.61022202 6.5939825e-05 0)
(0.60803819 6.3464434e-05 0)
(0.60588889 6.0927022e-05 0)
(0.60377492 5.8504873e-05 0)
(0.60169142 5.6288083e-05 0)
(0.59963371 5.4224244e-05 0)
(0.5976005 5.2259439e-05 0)
(0.59559167 5.0379281e-05 0)
(0.59360693 4.8547063e-05 0)
(0.59164771 4.6710301e-05 0)
(0.58971673 4.488623e-05 0)
(0.58781369 4.3156667e-05 0)
(0.58593543 4.1536039e-05 0)
(0.58407908 4.001742e-05 0)
(0.58224362 3.8561597e-05 0)
(0.58042912 3.7149837e-05 0)
(0.57863646 3.5755922e-05 0)
(0.57686754 3.4375464e-05 0)
(0.57512177 3.3078511e-05 0)
(0.57339612 3.1858492e-05 0)
(0.57168921 3.0693981e-05 0)
(0.57000017 2.9587932e-05 0)
(0.56832944 2.8490454e-05 0)
(0.56667886 2.7414647e-05 0)
(0.56504725 2.6409916e-05 0)
(0.56343216 2.5454577e-05 0)
(0.56183257 2.4543989e-05 0)
(0.56024821 2.3677723e-05 0)
(0.55867778 2.2831742e-05 0)
(0.55712439 2.2057909e-05 0)
(0.55557038 2.137373e-05 0)
(0.55405323 2.0236571e-05 0)
(0.55242743 3.3336315e-05 3.8779385e-20)
(0.55106545 2.2114595e-05 -2.1941031e-19)
(0.54855518 3.3067928e-05 -5.1017264e-18)
(0.99846853 0.00034770389 0)
(0.99849085 0.00051626222 0)
(0.99854971 0.00061643688 -2.3247958e-19)
(0.99854879 0.00061384509 -2.9373961e-18)
(0.99852172 0.00062361597 0)
(0.99847416 0.00062984387 0)
(0.99840992 0.00063286501 0)
(0.99832514 0.00063560956 0)
(0.99821493 0.00064096195 0)
(0.99806512 0.00064672506 0)
(0.99787323 0.00067121742 0)
(0.99755918 0.00067975452 0)
(0.9971574 0.00088025602 0)
(0.99657922 0.0014057253 0)
(0.99574401 0.0020269051 0)
(0.99422765 0.0024020448 0)
(0.99176633 0.0025371435 0)
(0.98835977 0.0025551973 0)
(0.98411886 0.0025103837 0)
(0.97916974 0.002435352 0)
(0.97353948 0.0023488119 0)
(0.96722997 0.002265482 0)
(0.96031091 0.0022159981 0)
(0.95302518 0.0022010208 0)
(0.94537645 0.002178216 0)
(0.93740462 0.0021234886 0)
(0.92912305 0.0020394489 0)
(0.9204782 0.001926001 0)
(0.91165395 0.001797598 0)
(0.90273199 0.0016631337 0)
(0.89378347 0.0015234496 0)
(0.8848649 0.0013841513 0)
(0.87603989 0.0012466964 0)
(0.86737483 0.0011131619 0)
(0.85893401 0.00098677838 0)
(0.85077558 0.00087020389 0)
(0.84294991 0.00076426094 0)
(0.83552426 0.00067122928 0)
(0.82846955 0.00059225643 0)
(0.82175433 0.00052422534 0)
(0.81538128 0.00046482613 0)
(0.80935289 0.00041378393 0)
(0.80366657 0.0003706039 0)
(0.79830091 0.00033388664 0)
(0.79322373 0.00030230389 0)
(0.78841907 0.00027600295 0)
(0.78386002 0.00025498438 0)
(0.77951861 0.00023805852 0)
(0.77537583 0.00022374246 0)
(0.77142354 0.00021347169 0)
(0.76757065 0.00020721502 0)
(0.76380286 0.00020261652 0)
(0.76012076 0.00019854959 0)
(0.75652725 0.00019437924 0)
(0.7530234 0.00019000489 0)
(0.74960515 0.00018531931 0)
(0.74626565 0.00018027459 0)
(0.74299924 0.00017488208 0)
(0.73978722 0.00016926111 0)
(0.73661969 0.00016358166 0)
(0.73349515 0.00015792665 0)
(0.73041532 0.00015229709 0)
(0.72738256 0.00014651193 0)
(0.72440022 0.00014062082 0)
(0.72147052 0.00013481103 0)
(0.71859333 0.00012907911 0)
(0.71577007 0.00012335119 0)
(0.71299953 0.00011776434 0)
(0.71027608 0.00011257919 0)
(0.7075942 0.00010781673 0)
(0.70495222 0.00010331131 0)
(0.70235146 9.898579e-05 0)
(0.69979287 9.4851323e-05 0)
(0.69727587 9.0856601e-05 0)
(0.69480111 8.6926541e-05 0)
(0.69236872 8.3121748e-05 0)
(0.68997517 7.957256e-05 0)
(0.68761656 7.625285e-05 0)
(0.68529136 7.312455e-05 0)
(0.68299976 7.0122215e-05 0)
(0.68074191 6.7228269e-05 0)
(0.67851826 6.4408436e-05 0)
(0.67632865 6.1669611e-05 0)
(0.67417071 5.9122042e-05 0)
(0.67204138 5.6722714e-05 0)
(0.66994008 5.4431249e-05 0)
(0.66786647 5.2256243e-05 0)
(0.66582082 5.0120164e-05 0)
(0.66380337 4.8060092e-05 0)
(0.66181187 4.6146908e-05 0)
(0.65984387 4.4327059e-05 0)
(0.65789884 4.2593706e-05 0)
(0.65597683 4.0950732e-05 0)
(0.65407565 3.935914e-05 0)
(0.65219751 3.7926692e-05 0)
(0.6503242 3.6556916e-05 0)
(0.64849423 3.5719116e-05 0)
(0.64655961 3.6774e-05 0)
(0.6449114 3.4834986e-05 0)
(0.64194839 3.7422637e-05 0)
(0.99850257 0.00034301213 0)
(0.99850923 0.00043731711 0)
(0.99854077 0.00045981919 0)
(0.99855509 0.00046016528 0)
(0.99854025 0.00046305917 0)
(0.99850538 0.00046795639 0)
(0.99845646 0.00047439011 0)
(0.99839036 0.00048345897 0)
(0.99830186 0.00049710935 0)
(0.99817968 0.00051502973 0)
(0.99801535 0.00055116671 0)
(0.9977628 0.00060768034 0)
(0.99741828 0.00084917457 0)
(0.9971792 0.0014285123 0)
(0.99721833 0.0020441406 0)
(0.99745912 0.0024942876 0)
(0.99771833 0.0027848499 0)
(0.99786218 0.0029912411 0)
(0.99783897 0.0031354291 0)
(0.99761515 0.0032216975 0)
(0.99715933 0.003265799 0)
(0.996451 0.0032847526 0)
(0.99547212 0.003278737 0)
(0.99420692 0.0032531806 0)
(0.99263317 0.0031963254 0)
(0.99063858 0.0031118623 0)
(0.98813667 0.003000138 0)
(0.98498275 0.0028762477 0)
(0.98119512 0.0027555273 0)
(0.97675037 0.0026322142 0)
(0.97160718 0.0024939379 0)
(0.96582319 0.0023389426 0)
(0.95943928 0.0021793893 0)
(0.95251451 0.0020194829 0)
(0.94513109 0.0018610699 0)
(0.93739012 0.001705569 0)
(0.9294086 0.0015538989 0)
(0.92130581 0.0014082972 0)
(0.913211 0.0012719164 0)
(0.90523131 0.0011464536 0)
(0.89745186 0.001032064 0)
(0.8899404 0.00092900858 0)
(0.88274196 0.00084081058 0)
(0.87579455 0.00076717664 0)
(0.86909653 0.00070383588 0)
(0.86267203 0.00064821508 0)
(0.85653423 0.00059906724 0)
(0.85069827 0.00055615549 0)
(0.84514819 0.0005186721 0)
(0.8398552 0.00048643736 0)
(0.8348 0.00046064727 0)
(0.82996421 0.00044031166 0)
(0.82532486 0.0004225913 0)
(0.8208695 0.00040550235 0)
(0.81658662 0.00038878257 0)
(0.81245771 0.00037266262 0)
(0.80846501 0.00035731243 0)
(0.8045887 0.00034324616 0)
(0.80078162 0.00032999008 0)
(0.79704912 0.00031682372 0)
(0.79339688 0.00030377919 0)
(0.78982451 0.00029102181 0)
(0.78632816 0.00027837368 0)
(0.78290626 0.00026588294 0)
(0.77955834 0.00025379243 0)
(0.77628226 0.00024204076 0)
(0.77307757 0.00023062843 0)
(0.76993546 0.00021986592 0)
(0.76684661 0.00020995145 0)
(0.76380847 0.00020072128 0)
(0.76082229 0.00019188724 0)
(0.75788993 0.0001833673 0)
(0.75501176 0.00017521872 0)
(0.75218642 0.00016737927 0)
(0.74941412 0.00015976116 0)
(0.74669246 0.0001524996 0)
(0.74401555 0.00014576641 0)
(0.74137997 0.00013945708 0)
(0.73878553 0.00013347226 0)
(0.73623297 0.00012771661 0)
(0.7337222 0.00012217655 0)
(0.7312534 0.00011681935 0)
(0.72882471 0.00011168024 0)
(0.72643259 0.00010690919 0)
(0.72407428 0.00010241009 0)
(0.72174984 9.8105118e-05 0)
(0.71945916 9.4003993e-05 0)
(0.71720242 9.0008493e-05 0)
(0.71497872 8.6188545e-05 0)
(0.71278506 8.2639924e-05 0)
(0.71061919 7.9267492e-05 0)
(0.70848089 7.6047499e-05 0)
(0.70637038 7.2994347e-05 0)
(0.7042849 7.0053347e-05 0)
(0.70222605 6.742297e-05 0)
(0.7001754 6.4842568e-05 0)
(0.69817207 6.3330651e-05 0)
(0.69606608 6.0976965e-05 0)
(0.69426339 6.4404975e-05 0)
(0.69104732 5.9079732e-05 -4.1179958e-20)
(0.99853107 0.00033360641 0)
(0.99852831 0.00042234837 0)
(0.99855209 0.00047740333 0)
(0.99856391 0.00050945429 0)
(0.99854877 0.00053423934 0)
(0.99851363 0.00055697743 0)
(0.99846438 0.00057785095 0)
(0.99839836 0.00059827287 0)
(0.99831023 0.0006216585 0)
(0.9981904 0.00064951048 0)
(0.99802908 0.00069927311 0)
(0.99779664 0.00077051308 0)
(0.99749647 0.0010220958 0)
(0.99728431 0.0015264428 0)
(0.99731757 0.0020616148 0)
(0.9975672 0.0024751102 0)
(0.99789627 0.0027438277 0)
(0.99821174 0.0029168679 0)
(0.99849473 0.0030178145 0)
(0.99874541 0.0030587267 0)
(0.99895976 0.003064 0)
(0.99913589 0.0030496112 0)
(0.99927434 0.0030266598 0)
(0.99937444 0.0029967765 0)
(0.99943419 0.0029628821 0)
(0.99944182 0.0029248339 0)
(0.99937755 0.0028824635 0)
(0.99921296 0.0028388142 0)
(0.99891585 0.0027931266 0)
(0.99844483 0.0027403241 0)
(0.99775661 0.0026805613 0)
(0.99673415 0.002616477 0)
(0.99528843 0.0025471321 0)
(0.99333072 0.0024716107 0)
(0.99077137 0.0023897576 0)
(0.98752539 0.0023017616 0)
(0.98351927 0.002206003 0)
(0.97869264 0.0020975026 0)
(0.97310692 0.0019796631 0)
(0.96683373 0.0018582094 0)
(0.95995512 0.0017334966 0)
(0.95259623 0.0016061467 0)
(0.94492389 0.0014783794 0)
(0.93712612 0.0013575922 0)
(0.92934743 0.0012482876 0)
(0.92170285 0.0011478963 0)
(0.91428115 0.0010553132 0)
(0.90716814 0.00097499248 0)
(0.90027405 0.00090720727 0)
(0.89359893 0.00084901272 0)
(0.88721395 0.00079879455 0)
(0.88113714 0.00075351225 0)
(0.87537356 0.00071202608 0)
(0.86989709 0.00067393825 0)
(0.86466607 0.00063874822 0)
(0.8596452 0.00060623936 0)
(0.85481633 0.00057632612 0)
(0.85016161 0.00054876595 0)
(0.84567442 0.00052329778 0)
(0.84134294 0.00049942733 0)
(0.83714945 0.00047668837 0)
(0.8330767 0.00045513797 0)
(0.82910945 0.0004342624 0)
(0.82524387 0.00041381719 0)
(0.82147877 0.00039413033 0)
(0.81780916 0.00037517823 0)
(0.81423013 0.00035726309 0)
(0.81071851 0.00034072303 0)
(0.807268 0.00032529865 0)
(0.80388529 0.0003106061 0)
(0.80057248 0.00029642936 0)
(0.79732889 0.00028278714 0)
(0.79415286 0.00026978241 0)
(0.79104209 0.00025730904 0)
(0.78799627 0.00024532496 0)
(0.78500836 0.00023407817 0)
(0.78207047 0.00022365569 0)
(0.77918189 0.00021380154 0)
(0.776344 0.00020438978 0)
(0.77355735 0.00019533635 0)
(0.77082106 0.00018663948 0)
(0.76813502 0.00017828936 0)
(0.76549471 0.00017035967 0)
(0.76289566 0.00016299328 0)
(0.76033614 0.00015601995 0)
(0.75781694 0.00014933042 0)
(0.75533793 0.00014294434 0)
(0.75289916 0.00013676116 0)
(0.75049801 0.00013088809 0)
(0.74813092 0.00012542646 0)
(0.7457961 0.00012022977 0)
(0.74349372 0.00011525552 0)
(0.74122409 0.0001105401 0)
(0.73898368 0.00010601805 0)
(0.73677339 0.00010198689 0)
(0.73457487 9.7965753e-05 0)
(0.73242765 9.5657914e-05 0)
(0.73018048 9.1422484e-05 0)
(0.72825263 9.993576e-05 0)
(0.72483009 8.5155834e-05 3.308999e-20)
(0.99855874 0.00033731033 0)
(0.99854956 0.0004246483 0)
(0.99856419 0.00048249522 0)
(0.99856969 0.00051102456 0)
(0.99855194 0.00052790129 0)
(0.99851576 0.00054309592 0)
(0.99846602 0.00055788383 0)
(0.99840024 0.00057391428 0)
(0.9983132 0.00059505917 0)
(0.99819634 0.00062483285 0)
(0.99804081 0.00067823636 0)
(0.99782751 0.00077044194 0)
(0.99756459 0.0010088955 0)
(0.99737686 0.0014592698 0)
(0.99740135 0.0019620201 0)
(0.99762451 0.0023703474 0)
(0.99793118 0.0026436311 0)
(0.99823412 0.0028222195 0)
(0.99851465 0.0029360264 0)
(0.99877469 0.0029992559 0)
(0.99901024 0.0030308306 0)
(0.99922038 0.0030450333 0)
(0.99940875 0.0030459779 0)
(0.99958158 0.0030400516 0)
(0.99974349 0.0030244628 0)
(0.99989426 0.0029969211 0)
(1.0000313 0.0029572066 0)
(1.0001523 0.0029076589 0)
(1.0002566 0.0028518556 0)
(1.0003448 0.0027921188 0)
(1.0004149 0.002729419 0)
(1.0004596 0.0026648574 0)
(1.0004693 0.0026001973 0)
(1.0004302 0.0025371523 0)
(1.0003204 0.0024770753 0)
(1.0001064 0.0024204711 0)
(0.99974083 0.0023670104 0)
(0.99914629 0.002316847 0)
(0.9981883 0.0022683944 0)
(0.99674424 0.002217713 0)
(0.99468624 0.0021620883 0)
(0.99187838 0.0021001513 0)
(0.98819186 0.0020335066 0)
(0.98361049 0.0019563156 0)
(0.97820638 0.0018635918 0)
(0.97206216 0.001762081 0)
(0.96529024 0.0016539998 0)
(0.958059 0.0015413355 0)
(0.95058931 0.0014321514 0)
(0.94304917 0.0013328564 0)
(0.93559604 0.0012414156 0)
(0.92834343 0.0011559585 0)
(0.92140616 0.0010801356 0)
(0.91470876 0.0010151934 0)
(0.90822212 0.00095691052 0)
(0.90197037 0.00090239795 0)
(0.89597633 0.00085120977 0)
(0.89026316 0.00080413289 0)
(0.88484226 0.00076146359 0)
(0.87966342 0.00072191273 0)
(0.87468428 0.00068523276 0)
(0.86988083 0.00065132724 0)
(0.86523945 0.00061894713 0)
(0.8607589 0.00058760839 0)
(0.85642693 0.00055788708 0)
(0.85222687 0.00052995858 0)
(0.84814143 0.00050372335 0)
(0.84416475 0.00047933828 0)
(0.8402949 0.00045672237 0)
(0.83652697 0.00043536346 0)
(0.83285285 0.00041491521 0)
(0.82926599 0.00039534292 0)
(0.82576306 0.00037671887 0)
(0.82234122 0.00035887411 0)
(0.81899877 0.00034194247 0)
(0.81571999 0.00032624348 0)
(0.81249807 0.00031157364 0)
(0.80933867 0.00029752521 0)
(0.80624335 0.00028405654 0)
(0.80321091 0.00027113747 0)
(0.80023914 0.00025876217 0)
(0.79732746 0.00024698846 0)
(0.79446679 0.00023592271 0)
(0.79165305 0.0002256018 0)
(0.78888663 0.00021577502 0)
(0.78616887 0.00020633245 0)
(0.78349908 0.00019731497 0)
(0.78087695 0.00018864297 0)
(0.77829711 0.00018046028 0)
(0.77575594 0.00017283542 0)
(0.77325268 0.0001655652 0)
(0.77078779 0.000158594 0)
(0.76836153 0.00015199275 0)
(0.76596909 0.000145691 0)
(0.7636106 0.00014008109 0)
(0.76126818 0.00013442651 0)
(0.75898174 0.00013123461 0)
(0.75659886 0.00012491119 1.7994098e-20)
(0.75455161 0.00013917771 0)
(0.75093337 0.0001130969 0)
(0.99858485 0.00034324473 0)
(0.99857018 0.00042451447 0)
(0.99857619 0.00048056283 0)
(0.99857615 0.00051127022 0)
(0.99855703 0.0005330521 0)
(0.99852106 0.00055527496 0)
(0.99847176 0.00057866178 0)
(0.99840694 0.00060419726 0)
(0.99832164 0.00063565482 0)
(0.99820844 0.00067744668 0)
(0.99805989 0.00074428475 0)
(0.99786431 0.00085477672 0)
(0.99763372 0.0010885499 0)
(0.99746956 0.0015026096 0)
(0.99748892 0.0019750225 0)
(0.99768896 0.0023667529 0)
(0.99797261 0.0026337149 0)
(0.99825929 0.0028102938 0)
(0.99852703 0.0029260115 0)
(0.99877624 0.002992321 0)
(0.99900446 0.0030251988 0)
(0.99921073 0.0030341581 0)
(0.99939809 0.0030295491 0)
(0.9995716 0.0030149934 0)
(0.99973568 0.002990561 0)
(0.99989119 0.0029547399 0)
(1.0000356 0.0029084345 0)
(1.0001664 0.00285481 0)
(1.0002839 0.0027983107 0)
(1.0003903 0.0027406863 0)
(1.0004865 0.0026808461 0)
(1.0005721 0.002619196 0)
(1.0006467 0.0025577046 0)
(1.0007107 0.002497955 0)
(1.0007654 0.0024410928 0)
(1.0008114 0.0023878867 0)
(1.0008484 0.00233903 0)
(1.0008742 0.0022945898 0)
(1.0008826 0.0022540335 0)
(1.0008628 0.0022176565 0)
(1.0007961 0.0021856774 0)
(1.0006497 0.0021577916 0)
(1.0003658 0.0021328568 0)
(0.99985935 0.0021092112 0)
(0.99895517 0.0020841736 0)
(0.99748842 0.0020540465 0)
(0.99530193 0.0020155552 0)
(0.99221761 0.0019709284 0)
(0.98820113 0.0019167976 0)
(0.98330171 0.0018447893 0)
(0.9776078 0.0017595427 0)
(0.97123626 0.0016645236 0)
(0.96436626 0.0015622298 0)
(0.95723229 0.0014613085 0)
(0.95002647 0.0013680773 0)
(0.94290337 0.0012809794 0)
(0.93596136 0.0011985401 0)
(0.92930562 0.0011247528 0)
(0.92284557 0.0010604572 0)
(0.91655943 0.0010013919 0)
(0.91048849 0.00094545456 0)
(0.90466551 0.00089265811 0)
(0.8991153 0.00084304841 0)
(0.89379926 0.00079699334 0)
(0.88867524 0.00075413003 0)
(0.88372331 0.00071442937 0)
(0.8789302 0.00067732328 0)
(0.87431501 0.00064264216 0)
(0.86987349 0.00061030117 0)
(0.86558136 0.00058017747 0)
(0.86141538 0.00055179588 0)
(0.8573674 0.0005247394 0)
(0.85343441 0.00049906426 0)
(0.84961002 0.00047467948 0)
(0.84588455 0.00045163952 0)
(0.84225126 0.00043024949 0)
(0.83870649 0.00041033784 0)
(0.83524686 0.00039135681 0)
(0.83186793 0.00037321456 0)
(0.82856532 0.00035588141 0)
(0.82533555 0.00033930748 0)
(0.82217736 0.00032370105 0)
(0.81907438 0.00030912429 0)
(0.81602673 0.00029540046 0)
(0.81303771 0.0002822455 0)
(0.81010787 0.00026960606 0)
(0.80723523 0.00025755051 0)
(0.80441885 0.00024606108 0)
(0.80164914 0.00023529537 0)
(0.79892404 0.00022521299 0)
(0.79624423 0.00021556929 0)
(0.79361009 0.00020631444 0)
(0.79102146 0.00019757316 0)
(0.78847157 0.00018927374 0)
(0.78596 0.00018188225 0)
(0.78346978 0.00017438 0)
(0.78104125 0.00017015858 0)
(0.77852021 0.0001612164 0)
(0.77635232 0.00018214212 4.7348962e-20)
(0.77253701 0.00014294684 0)
(0.99860938 0.00035050682 0)
(0.99859035 0.00042574434 0)
(0.99858912 0.00048128753 0)
(0.99858423 0.00051597073 0)
(0.99856362 0.00054206607 0)
(0.99852744 0.00056751134 0)
(0.99847815 0.00059352636 0)
(0.99841394 0.00062146234 0)
(0.9983303 0.00065550313 0)
(0.99822093 0.00070128477 0)
(0.99807985 0.00077308099 0)
(0.99790089 0.00089096063 0)
(0.99769871 0.0011161023 0)
(0.99755609 0.0014939885 0)
(0.99757201 0.00193059 0)
(0.99775135 0.0023016046 0)
(0.99801388 0.0025622516 0)
(0.9982859 0.0027386415 0)
(0.99854327 0.0028573062 0)
(0.9987846 0.0029288688 0)
(0.9990075 0.0029656592 0)
(0.99921032 0.0029810568 0)
(0.99939513 0.0029820293 0)
(0.99956631 0.0029733826 0)
(0.99972771 0.0029552508 0)
(0.99987994 0.0029265208 0)
(1.0000213 0.002887952 0)
(1.00015 0.0028421439 0)
(1.0002664 0.002792577 0)
(1.0003725 0.0027402824 0)
(1.0004695 0.0026842792 0)
(1.0005567 0.0026253845 0)
(1.0006338 0.0025657994 0)
(1.0007017 0.0025071376 0)
(1.000761 0.0024505688 0)
(1.0008128 0.0023970241 0)
(1.0008584 0.0023471613 0)
(1.0008986 0.0023008738 0)
(1.0009346 0.0022584018 0)
(1.000967 0.0022202843 0)
(1.0009967 0.0021863983 0)
(1.0010239 0.0021566204 0)
(1.0010482 0.0021307918 0)
(1.0010675 0.0021084153 0)
(1.0010742 0.0020891858 0)
(1.0010523 0.0020727297 0)
(1.0009754 0.0020588242 0)
(1.0007894 0.002046607 0)
(1.0004189 0.0020338423 0)
(0.99968565 0.0020180931 0)
(0.99838998 0.00199632 0)
(0.99635439 0.0019652097 0)
(0.99337642 0.0019253627 0)
(0.98941582 0.0018731214 0)
(0.98458177 0.0018034906 0)
(0.97897897 0.0017210936 0)
(0.97275397 0.0016279862 0)
(0.96610572 0.0015289435 0)
(0.95926778 0.0014333154 0)
(0.9524103 0.0013451605 0)
(0.9456557 0.0012632418 0)
(0.93909021 0.0011864596 0)
(0.93278599 0.0011183981 0)
(0.92658301 0.0010572538 0)
(0.92052064 0.0009986331 0)
(0.91465334 0.00094230286 0)
(0.90902843 0.00088906197 0)
(0.90363141 0.00083991512 0)
(0.89843134 0.00079455845 0)
(0.89341118 0.00075281917 0)
(0.88856175 0.00071370024 0)
(0.88388606 0.00067659698 0)
(0.87937402 0.00064173043 0)
(0.87500775 0.00060914238 0)
(0.8707681 0.00057860954 0)
(0.86666271 0.00055011762 0)
(0.86269233 0.00052349108 0)
(0.85884056 0.0004983072 0)
(0.85509366 0.00047445975 0)
(0.85144424 0.00045179104 0)
(0.84788796 0.0004302016 0)
(0.84441951 0.00040986838 0)
(0.8410332 0.00039092125 0)
(0.83772462 0.00037316376 0)
(0.83449043 0.00035617841 0)
(0.83132779 0.00033990205 0)
(0.82823294 0.00032440398 0)
(0.82520405 0.00030978154 0)
(0.82222553 0.00029611788 0)
(0.81930038 0.00028320929 0)
(0.81643023 0.00027082443 0)
(0.81361452 0.00025894473 0)
(0.81085223 0.00024777789 0)
(0.80813368 0.00023724262 0)
(0.80545873 0.00022783084 0)
(0.80281184 0.00021822527 0)
(0.80023364 0.00021277913 0)
(0.79756715 0.00020080003 0)
(0.79527285 0.0002291767 4.4501239e-20)
(0.79125179 0.00017515623 0)
(0.99863257 0.00035911432 0)
(0.99861018 0.00042897887 0)
(0.99860286 0.00048387787 0)
(0.99859346 0.00052135092 0)
(0.99857114 0.00055038902 0)
(0.99853467 0.00057835918 0)
(0.99848559 0.0006074715 0)
(0.99842234 0.00063951862 0)
(0.9983409 0.00067880085 0)
(0.99823597 0.00073157753 0)
(0.99810305 0.00081130773 0)
(0.99793995 0.00093798574 0)
(0.99776282 0.0011586815 0)
(0.99763964 0.0015080362 0)
(0.99765355 0.0019139132 0)
(0.99781455 0.0022681264 0)
(0.99805713 0.0025250129 0)
(0.99831465 0.0027023966 0)
(0.99856161 0.0028240932 0)
(0.99879514 0.0029004439 0)
(0.99901278 0.0029426022 0)
(0.9992123 0.0029621646 0)
(0.99939495 0.0029665198 0)
(0.99956447 0.0029601669 0)
(0.9997242 0.0029435012 0)
(0.99987477 0.0029158125 0)
(1.0000146 0.0028778805 0)
(1.0001423 0.0028321586 0)
(1.0002579 0.0027819052 0)
(1.0003633 0.0027285067 0)
(1.0004594 0.0026716738 0)
(1.0005459 0.0026123945 0)
(1.0006223 0.0025527236 0)
(1.0006893 0.0024942191 0)
(1.0007481 0.0024380361 0)
(1.0007999 0.0023850735 0)
(1.0008458 0.0023358991 0)
(1.000887 0.0022904968 0)
(1.0009243 0.0022490481 0)
(1.0009587 0.0022118041 0)
(1.0009907 0.0021784689 0)
(1.0010211 0.0021489036 0)
(1.0010503 0.0021229946 0)
(1.0010788 0.0021004749 0)
(1.0011074 0.0020809846 0)
(1.0011361 0.0020640682 0)
(1.0011648 0.0020494168 0)
(1.0011931 0.0020365763 0)
(1.0012192 0.0020253141 0)
(1.0012367 0.0020158209 0)
(1.0012286 0.0020079114 0)
(1.001166 0.0020009463 0)
(1.0009872 0.0019937807 0)
(1.0005969 0.0019841086 0)
(0.99977557 0.0019683968 0)
(0.9983112 0.0019432794 0)
(0.99601335 0.0019075278 0)
(0.99266726 0.0018585606 0)
(0.98835834 0.0017963433 0)
(0.98324431 0.0017222904 0)
(0.97747388 0.0016374909 0)
(0.97122792 0.0015450422 0)
(0.96472925 0.0014515217 0)
(0.95816993 0.0013641668 0)
(0.95166152 0.0012843236 0)
(0.94527611 0.0012088906 0)
(0.93911268 0.0011406142 0)
(0.93302632 0.0010788316 0)
(0.92703469 0.001019765 0)
(0.9212078 0.00096289701 0)
(0.91560993 0.00090907458 0)
(0.91022402 0.00085917974 0)
(0.90501677 0.00081278878 0)
(0.89997559 0.00076965303 0)
(0.89509929 0.00072904573 0)
(0.89039828 0.00069083941 0)
(0.88586727 0.00065533998 0)
(0.88148743 0.00062227623 0)
(0.87724575 0.00059119366 0)
(0.87313661 0.00056178283 0)
(0.86915289 0.00053400126 0)
(0.86528121 0.00050799871 0)
(0.86152699 0.00048374431 0)
(0.85788316 0.0004609718 0)
(0.85433785 0.00043932254 0)
(0.85088242 0.00041871939 0)
(0.84751092 0.00039917589 0)
(0.84421895 0.00038072286 0)
(0.84100227 0.00036351925 0)
(0.83785625 0.00034733791 0)
(0.83477735 0.00033184215 0)
(0.83176297 0.00031700211 0)
(0.82881084 0.00030313748 0)
(0.82590735 0.00029010794 0)
(0.82305443 0.00027838675 0)
(0.82023824 0.00026637279 0)
(0.81749914 0.00025947052 0)
(0.81467608 0.00024406325 -7.3681474e-21)
(0.81224613 0.00028064661 0)
(0.80800517 0.0002100671 -1.1979878e-20)
(0.99865462 0.00036872866 0)
(0.99862965 0.00043382551 0)
(0.99861722 0.00048772753 0)
(0.99860375 0.00052729919 0)
(0.99857973 0.00055916955 0)
(0.99854304 0.00059001589 0)
(0.99849434 0.0006225351 0)
(0.99843225 0.00065867094 0)
(0.99835325 0.00070262242 0)
(0.99825299 0.00076094649 0)
(0.99812837 0.0008462921 0)
(0.9979801 0.00097768393 0)
(0.99782493 0.0011915953 0)
(0.99771907 0.0015139485 0)
(0.99773207 0.0018893693 0)
(0.99787684 0.0022250462 0)
(0.99810062 0.0024753601 0)
(0.99834389 0.0026512507 0)
(0.99858055 0.0027739183 0)
(0.99880628 0.0028535535 0)
(0.99901846 0.0028996683 0)
(0.99921445 0.0029226534 0)
(0.99939481 0.002929946 0)
(0.99956259 0.0029259036 0)
(0.99972072 0.0029113584 0)
(0.99986982 0.0028859988 0)
(1.0000086 0.00285067 0)
(1.0001355 0.0028077088 0)
(1.0002509 0.0027601446 0)
(1.0003561 0.0027094674 0)
(1.0004521 0.0026555781 0)
(1.0005386 0.0025992525 0)
(1.0006152 0.0025422848 0)
(1.0006825 0.0024861763 0)
(1.0007417 0.0024320514 0)
(1.0007938 0.0023807754 0)
(1.00084 0.0023329196 0)
(1.0008814 0.0022885607 0)
(1.0009189 0.0022478576 0)
(1.0009531 0.0022110528 0)
(1.0009849 0.0021780068 0)
(1.0010151 0.0021486816 0)
(1.0010443 0.0021230166 0)
(1.0010733 0.0021006722 0)
(1.0011025 0.0020811783 0)
(1.0011325 0.0020640029 0)
(1.0011632 0.0020487513 0)
(1.0011947 0.0020351779 0)
(1.0012268 0.0020232486 0)
(1.0012596 0.0020129209 0)
(1.0012934 0.0020038254 0)
(1.001328 0.0019955109 0)
(1.0013627 0.0019872934 0)
(1.0013952 0.0019787537 0)
(1.0014153 0.0019699882 0)
(1.0014005 0.0019610665 0)
(1.0013051 0.0019514741 0)
(1.0010521 0.0019410517 0)
(1.0004438 0.0019268163 0)
(0.99924387 0.0019039411 0)
(0.9972338 0.001871125 0)
(0.99421762 0.0018236307 0)
(0.99012053 0.0017612485 0)
(0.98520689 0.0016907789 0)
(0.97966015 0.0016107608 0)
(0.97366154 0.0015235344 0)
(0.96742162 0.0014346289 0)
(0.96111522 0.0013507343 0)
(0.95484021 0.0012742313 0)
(0.94865692 0.0012021575 0)
(0.94266026 0.0011364689 0)
(0.93670692 0.0010761366 0)
(0.93082862 0.001017724 0)
(0.92510181 0.00096117693 0)
(0.91958559 0.00090771652 0)
(0.91425041 0.00085813729 0)
(0.90907764 0.00081201199 0)
(0.90406933 0.00076896999 0)
(0.89923452 0.0007285375 0)
(0.89457023 0.00069052928 0)
(0.89006267 0.00065502337 0)
(0.88569497 0.00062179952 0)
(0.88147079 0.00059055938 0)
(0.87738879 0.00056138982 0)
(0.87343495 0.00053397659 0)
(0.86959756 0.00050806512 0)
(0.86586989 0.0004836049 0)
(0.86224308 0.0004605933 0)
(0.85872359 0.00043914869 0)
(0.85529955 0.00041898977 0)
(0.85196119 0.00039978684 0)
(0.8487023 0.00038149139 0)
(0.84551768 0.00036440437 0)
(0.84240098 0.00034836448 0)
(0.83935183 0.00033395159 0)
(0.83635042 0.00031921936 0)
(0.83343578 0.00031064227 0)
(0.83044141 0.00029141248 0)
(0.82786343 0.00033697966 4.2733147e-20)
(0.82338375 0.00024800226 0)
(0.99867572 0.00037919142 0)
(0.99864879 0.00044012014 0)
(0.99863214 0.00049286282 0)
(0.99861508 0.00053411224 0)
(0.99858943 0.00056864714 0)
(0.99855254 0.00060225862 0)
(0.99850436 0.0006378846 0)
(0.99844358 0.0006776942 0)
(0.99836724 0.00072587553 0)
(0.99827189 0.0007891509 0)
(0.99815569 0.00087936841 0)
(0.99802135 0.0010140461 0)
(0.99788559 0.0012216212 0)
(0.99779523 0.0015210314 0)
(0.99780818 0.0018692816 0)
(0.99793874 0.0021876058 0)
(0.99814498 0.00243168 0)
(0.99837436 0.0026067341 0)
(0.99860085 0.002731093 0)
(0.99881878 0.0028145221 0)
(0.99902532 0.0028650969 0)
(0.99921754 0.0028921843 0)
(0.99939537 0.0029030483 0)
(0.99956124 0.0029019357 0)
(0.99971764 0.0028900073 0)
(0.99986518 0.0028672372 0)
(1.0000027 0.0028344931 0)
(1.0001289 0.0027939628 0)
(1.0002438 0.0027484311 0)
(1.0003488 0.0026994192 0)
(1.0004446 0.0026470157 0)
(1.0005311 0.0025919608 0)
(1.0006079 0.0025359838 0)
(1.0006756 0.0024806399 0)
(1.0007353 0.0024270868 0)
(1.0007879 0.0023762085 0)
(1.0008347 0.0023286103 0)
(1.0008767 0.0022844442 0)
(1.0009147 0.0022438766 0)
(1.0009494 0.0022071601 0)
(1.0009817 0.002174216 0)
(1.0010123 0.0021449813 0)
(1.0010418 0.0021193536 0)
(1.0010709 0.0020969827 0)
(1.0011002 0.002077426 0)
(1.0011299 0.0020602148 0)
(1.0011603 0.0020450319 0)
(1.0011913 0.0020316748 0)
(1.0012233 0.0020199955 0)
(1.0012564 0.0020097708 0)
(1.0012911 0.0020005449 0)
(1.0013277 0.0019918196 0)
(1.0013659 0.0019831013 0)
(1.0014048 0.0019741062 0)
(1.0014442 0.0019648825 0)
(1.0014837 0.0019553039 0)
(1.0015224 0.0019455622 0)
(1.0015594 0.0019355386 0)
(1.0015886 0.0019250423 0)
(1.0015908 0.0019144374 0)
(1.0015225 0.0019034727 0)
(1.0013142 0.0018917061 0)
(1.0007595 0.001877481 0)
(0.99959982 0.0018551282 0)
(0.9975989 0.0018226467 0)
(0.99455946 0.0017738192 0)
(0.9904299 0.0017093722 0)
(0.98548529 0.0016388625 0)
(0.9799705 0.0015612618 0)
(0.97408368 0.0014781615 0)
(0.96802375 0.0013940013 0)
(0.9619272 0.0013151987 0)
(0.95586695 0.0012432107 0)
(0.94989491 0.0011751406 0)
(0.94407012 0.0011126743 0)
(0.93824333 0.0010541028 0)
(0.93249121 0.0009967763 0)
(0.92690009 0.00094174245 0)
(0.92148956 0.00089025984 0)
(0.91623885 0.00084215283 0)
(0.91114466 0.00079717369 0)
(0.90621321 0.00075490751 0)
(0.90145146 0.00071510288 0)
(0.89685392 0.00067813617 0)
(0.89240649 0.00064361517 0)
(0.88810554 0.00061106721 0)
(0.88394631 0.00058053578 0)
(0.87991442 0.00055185436 0)
(0.87600939 0.00052500522 0)
(0.87222607 0.00049990457 0)
(0.86855414 0.00047619398 0)
(0.86498364 0.00045375881 0)
(0.86150598 0.0004328501 0)
(0.85812244 0.00041323287 0)
(0.85482971 0.00039558639 0)
(0.85160103 0.00037765702 0)
(0.84847266 0.00036705437 0)
(0.84527201 0.00034335912 0)
(0.84252879 0.00039857943 0)
(0.83778709 0.00028927907 0)
(0.99869605 0.00039036771 0)
(0.99866765 0.00044769262 0)
(0.99864756 0.00049922011 0)
(0.99862739 0.00054177096 0)
(0.99860024 0.00057869302 0)
(0.9985632 0.0006148909 0)
(0.99851564 0.00065342974 0)
(0.99845636 0.00069672157 0)
(0.9983829 0.00074891574 0)
(0.99829265 0.00081667081 0)
(0.99818481 0.00091093834 0)
(0.99806349 0.0010474323 0)
(0.99794492 0.0012484036 0)
(0.9978683 0.0015273 0)
(0.99788176 0.0018502957 0)
(0.99799989 0.0021512117 0)
(0.9981898 0.002388066 0)
(0.9984057 0.0025613931 0)
(0.99862213 0.0026865144 0)
(0.99883226 0.0027726531 0)
(0.99903299 0.0028267973 0)
(0.99922124 0.0028573141 0)
(0.99939634 0.0028711599 0)
(0.99956014 0.0028725055 0)
(0.99971473 0.0028627686 0)
(0.99986063 0.0028421885 0)
(0.99999685 0.0028116864 0)
(1.0001222 0.0027733385 0)
(1.0002367 0.002729738 0)
(1.0003413 0.0026824466 0)
(1.0004369 0.0026317566 0)
(1.0005234 0.0025784162 0)