/*--------------------------------*- C++ -*----------------------------------*\
  =========                 |
  \\      /  F ield         | OpenFOAM: The Open Source CFD Toolbox
   \\    /   O peration     | Website:  https://openfoam.org
    \\  /    A nd           | Version:  12
     \\/     M anipulation  |
\*---------------------------------------------------------------------------*/
FoamFile
{
    format      ascii;
    class       volVectorField;
    location    "1100";
    object      U;
}
// * * * * * * * * * * * * * * * * * * * * * * * * * * * * * * * * * * * * * //

dimensions      [0 1 -1 0 0 0 0];

internalField   nonuniform List<vector> 
13056
(
(1 2.3264763e-10 3.7129345e-24)
(0.99998251 8.4418715e-10 0)
(0.99994199 1.5297484e-09 0)
(0.99988838 2.1498932e-09 0)
(0.99982498 2.8228738e-09 0)
(0.99975274 3.598313e-09 0)
(0.99967233 4.4968933e-09 0)
(0.99958427 5.5475379e-09 0)
(0.9994887 6.7935436e-09 0)
(0.9993854 8.2889514e-09 0)
(0.99927388 1.009983e-08 0)
(0.99915333 1.231215e-08 0)
(0.99902257 1.5042274e-08 0)
(0.99887989 1.8459365e-08 0)
(0.99872281 2.2796757e-08 0)
(0.99854789 2.8476592e-08 0)
(0.99834909 3.5954796e-08 0)
(0.99812 4.6945732e-08 0)
(0.9978392 6.1283836e-08 0)
(0.99750587 9.1761613e-08 0)
(0.99698621 1.2151505e-07 0)
(0.99643474 3.6434748e-07 0)
(0.99395416 3.0509925e-07 -4.7564858e-21)
(0.99391857 0.00012201705 1.2459398e-16)
(0.02618672 0.00012479577 0)
(0.012821468 1.2806873e-06 -5.0083239e-17)
(0.012496486 7.8109806e-09 1.448772e-20)
(0.012512804 5.6115156e-09 6.351739e-21)
(0.012262072 1.3931407e-08 0)
(0.011940403 1.5099862e-08 0)
(0.0116398 1.3484227e-08 0)
(0.011380433 1.1526828e-08 0)
(0.011155827 9.9550614e-09 0)
(0.010958016 8.7336789e-09 0)
(0.010781532 7.7498622e-09 0)
(0.010622469 6.9957053e-09 0)
(0.010475357 6.4094616e-09 0)
(0.010338871 5.8891033e-09 0)
(0.010211843 5.4208101e-09 0)
(0.010093526 4.9932629e-09 0)
(0.0099831707 4.6128458e-09 0)
(0.0098797113 4.2797821e-09 0)
(0.0097823318 3.9828753e-09 0)
(0.0096904236 3.7196068e-09 0)
(0.009603264 3.4848151e-09 0)
(0.0095204134 3.2724256e-09 0)
(0.0094414551 3.0777856e-09 0)
(0.0093661032 2.8988189e-09 0)
(0.0092940325 2.7374955e-09 0)
(0.0092248822 2.5872116e-09 0)
(0.009158563 2.4479158e-09 0)
(0.0090947406 2.3237362e-09 0)
(0.0090331269 2.206913e-09 0)
(0.0089737039 2.0967849e-09 0)
(0.0089162479 1.9976042e-09 0)
(0.0088605232 1.9044021e-09 0)
(0.0088065161 1.8152021e-09 0)
(0.008754106 1.7340076e-09 0)
(0.0087030611 1.6593328e-09 0)
(0.0086533332 1.5865931e-09 0)
(0.0086049158 1.5179292e-09 0)
(0.0085576526 1.4557316e-09 0)
(0.0085113997 1.3968773e-09 0)
(0.0084661631 1.3410662e-09 0)
(0.0084217888 1.2899605e-09 0)
(0.0083781899 1.2414185e-09 0)
(0.0083353657 1.1935778e-09 0)
(0.0082933277 1.1465581e-09 0)
(0.0082520583 1.1019978e-09 0)
(0.0082114627 1.0607492e-09 0)
(0.0081714715 1.021287e-09 0)
(0.0081320746 9.8292509e-10 0)
(0.0080932474 9.4628959e-10 0)
(0.0080549306 9.1179085e-10 0)
(0.0080170758 8.7884778e-10 0)
(0.0079796569 8.4712978e-10 0)
(0.0079426459 8.1637756e-10 0)
(0.007906026 7.8691799e-10 0)
(0.0078697492 7.5893957e-10 0)
(0.0078337892 7.318427e-10 0)
(0.0077981285 7.0567081e-10 0)
(0.0077627357 6.8053787e-10 0)
(0.0077275798 6.5628442e-10 0)
(0.0076926522 6.3279016e-10 0)
(0.0076579241 6.1032787e-10 0)
(0.0076233526 5.8857451e-10 0)
(0.0075889325 5.6734297e-10 0)
(0.0075546485 5.4685194e-10 0)
(0.0075204769 5.2704954e-10 0)
(0.0074863888 5.0794598e-10 0)
(0.0074523571 4.893834e-10 0)
(0.0074183708 4.7122134e-10 0)
(0.007384427 4.5362032e-10 0)
(0.0073504849 4.368142e-10 0)
(0.0073164994 4.2051614e-10 0)
(0.0072824634 4.0443381e-10 0)
(0.0072483835 3.8878851e-10 0)
(0.0072142171 3.7400043e-10 0)
(0.0071798825 3.5971414e-10 0)
(0.0071453908 3.4541255e-10 0)
(0.0071107599 3.314021e-10 0)
(0.0070759456 3.1800594e-10 0)
(0.0070408877 3.0505536e-10 0)
(0.0070055661 2.9224575e-10 0)
(0.0069699902 2.7974485e-10 0)
(0.0069340993 2.6783184e-10 0)
(0.0068978195 2.5623153e-10 0)
(0.0068611476 2.4474675e-10 0)
(0.0068240648 2.3362923e-10 0)
(0.0067864905 2.2292498e-10 0)
(0.0067483713 2.1237414e-10 0)
(0.0067097056 2.0202634e-10 0)
(0.0066704178 1.9219355e-10 0)
(0.0066312669 1.8284968e-10 0)
(0.0065935526 1.7410658e-10 0)
(0.0065575993 1.6647767e-10 0)
(0.006523115 1.5944193e-10 0)
(0.0064901375 1.5250468e-10 0)
(0.0064585873 1.4606742e-10 0)
(0.0064283344 1.4022356e-10 0)
(0.0063992578 1.3482617e-10 0)
(0.0063712876 1.2970654e-10 0)
(0.0063443763 1.2488704e-10 0)
(0.0063184463 1.204689e-10 0)
(0.0062934049 1.1642006e-10 0)
(0.0062691883 1.1258832e-10 0)
(0.0062457673 1.0892231e-10 0)
(0.0062231016 1.0548774e-10 0)
(0.0062011353 1.0238825e-10 0)
(0.0061797814 9.9539735e-11 0)
(0.0061590228 9.7194988e-11 0)
(0.006138657 9.4593275e-11 0)
(0.006119017 9.4432442e-11 0)
(0.0060986906 3.4182138e-10 0)
(0.0060807393 1.0932927e-10 1.5017016e-22)
(0.0060515459 2.6411167e-10 0)
(1 7.013954e-10 0)
(0.99998251 2.5451778e-09 0)
(0.99994199 4.6123393e-09 0)
(0.99988837 6.4825401e-09 0)
(0.99982495 8.5121963e-09 0)
(0.99975269 1.0850845e-08 0)
(0.99967225 1.356079e-08 0)
(0.99958415 1.672921e-08 0)
(0.99948854 2.0486632e-08 0)
(0.99938521 2.499598e-08 0)
(0.99927365 3.0456441e-08 0)
(0.99915305 3.71272e-08 0)
(0.99902224 4.5359066e-08 0)
(0.99887953 5.5662035e-08 0)
(0.9987224 6.8739551e-08 0)
(0.99854744 8.5864273e-08 0)
(0.9983486 1.0841069e-07 0)
(0.99811947 1.4154708e-07 0)
(0.99783863 1.847743e-07 0)
(0.99750526 2.7665589e-07 0)
(0.99698555 3.6633916e-07 0)
(0.99643405 1.0983671e-06 0)
(0.99395353 9.2046141e-07 1.7605075e-20)
(0.99391796 0.00036118038 -1.31182e-20)
(0.076499803 0.00036834802 0)
(0.038656885 7.24502e-06 0)
(0.037676155 1.6216067e-07 2.2518141e-20)
(0.037725299 1.2008063e-07 0)
(0.036968923 2.9310289e-07 -4.5653862e-21)
(0.035998218 3.162059e-07 0)
(0.035092189 2.8187773e-07 0)
(0.034310484 2.4126203e-07 0)
(0.033633369 2.0851388e-07 0)
(0.033036991 1.8290672e-07 0)
(0.032504935 1.6227834e-07 0)
(0.032025402 1.4649551e-07 0)
(0.031581896 1.3422051e-07 0)
(0.031170422 1.233269e-07 0)
(0.030787463 1.135153e-07 0)
(0.030430768 1.0456514e-07 0)
(0.030098072 9.6600859e-08 0)
(0.029786165 8.9626535e-08 0)
(0.029492586 8.3411931e-08 0)
(0.029215502 7.7895824e-08 0)
(0.028952733 7.2983804e-08 0)
(0.028702955 6.8530918e-08 0)
(0.028464913 6.4457351e-08 0)
(0.028237739 6.0714728e-08 0)
(0.028020459 5.7326844e-08 0)
(0.027811986 5.4184996e-08 0)
(0.027612043 5.1272561e-08 0)
(0.02741963 4.8662598e-08 0)
(0.027233878 4.6220746e-08 0)
(0.027054726 4.391879e-08 0)
(0.026881504 4.1835098e-08 0)
(0.026713506 3.9883979e-08 0)
(0.026550683 3.8020208e-08 0)
(0.026392673 3.6318723e-08 0)
(0.026238782 3.4749654e-08 0)
(0.026088862 3.3230014e-08 0)
(0.025942889 3.179549e-08 0)
(0.025800396 3.0489223e-08 0)
(0.025660952 2.9253692e-08 0)
(0.025524573 2.8088376e-08 0)
(0.025390789 2.7020654e-08 0)
(0.025259343 2.6000567e-08 0)
(0.025130236 2.4996732e-08 0)
(0.025003499 2.4014316e-08 0)
(0.024879076 2.3083432e-08 0)
(0.024756685 2.2217213e-08 0)
(0.024636118 2.1389362e-08 0)
(0.024517343 2.0586733e-08 0)
(0.024400284 1.9821343e-08 0)
(0.024284763 1.9098214e-08 0)
(0.024170635 1.8407083e-08 0)
(0.024057824 1.7741921e-08 0)
(0.023946241 1.7099481e-08 0)
(0.023835836 1.6483647e-08 0)
(0.023726465 1.5895889e-08 0)
(0.023618051 1.5327894e-08 0)
(0.02351054 1.4780243e-08 0)
(0.023403835 1.4254859e-08 0)
(0.023297843 1.3746492e-08 0)
(0.023192541 1.3253838e-08 0)
(0.023087841 1.2782829e-08 0)
(0.022983613 1.2328099e-08 0)
(0.02287984 1.1884128e-08 0)
(0.022776477 1.1453955e-08 0)
(0.022673455 1.1038961e-08 0)
(0.022570684 1.063907e-08 0)
(0.022468083 1.0250807e-08 0)
(0.022365617 9.870241e-09 0)
(0.022263281 9.5012329e-09 0)
(0.02216095 9.1490429e-09 0)
(0.022058488 8.8081615e-09 0)
(0.021955873 8.4715329e-09 0)
(0.021853126 8.1434088e-09 0)
(0.021750119 7.8334769e-09 0)
(0.021646605 7.534562e-09 0)
(0.021542616 7.2352325e-09 0)
(0.021438207 6.9415032e-09 0)
(0.021333246 6.6607543e-09 0)
(0.021227551 6.3897168e-09 0)
(0.02112106 6.1215573e-09 0)
(0.021013803 5.8595487e-09 0)
(0.020905596 5.6098905e-09 0)
(0.020796217 5.3671027e-09 0)
(0.020685655 5.1266332e-09 0)
(0.020573854 4.8935788e-09 0)
(0.020460572 4.6694026e-09 0)
(0.020345647 4.4485008e-09 0)
(0.020229074 4.2317073e-09 0)
(0.020110626 4.0257017e-09 0)
(0.01999259 3.8300684e-09 0)
(0.019878885 3.6469288e-09 0)
(0.01977049 3.4870358e-09 0)
(0.019666524 3.3397097e-09 0)
(0.0195671 3.194458e-09 0)
(0.01947198 3.0595772e-09 0)
(0.019380771 2.9371247e-09 0)
(0.019293108 2.8241138e-09 0)
(0.019208781 2.7169177e-09 0)
(0.019127646 2.6159241e-09 0)
(0.01904947 2.5233499e-09 0)
(0.018973974 2.4385301e-09 0)
(0.018900964 2.3583108e-09 0)
(0.018830352 2.2815276e-09 0)
(0.018762018 2.2095167e-09 0)
(0.018695792 2.1445722e-09 0)
(0.018631413 2.0847986e-09 0)
(0.01856883 2.0358183e-09 0)
(0.018507432 1.9805954e-09 0)
(0.01844822 1.9781475e-09 0)
(0.018386954 1.9242373e-09 0)
(0.018332833 2.3264874e-09 -2.3385959e-22)
(0.018244818 1.4777008e-09 4.2404509e-23)
(1 1.1805815e-09 0)
(0.99998251 4.2841462e-09 0)
(0.99994199 7.7639998e-09 0)
(0.99988836 1.0912715e-08 0)
(0.99982492 1.4330079e-08 0)
(0.99975263 1.8267686e-08 0)
(0.99967216 2.2830329e-08 0)
(0.99958403 2.8164711e-08 0)
(0.99948837 3.4490525e-08 0)
(0.99938499 4.2082004e-08 0)
(0.99927339 5.1274416e-08 0)
(0.99915275 6.2504018e-08 0)
(0.99902189 7.6361285e-08 0)
(0.99887912 9.3704629e-08 0)
(0.99872195 1.1571807e-07 0)
(0.99854694 1.4454369e-07 0)
(0.99834806 1.8249498e-07 0)
(0.99811888 2.3827076e-07 0)
(0.997838 3.1103119e-07 0)
(0.99750458 4.6568015e-07 0)
(0.99698483 6.1666978e-07 0)
(0.9964333 1.8485695e-06 0)
(0.99395285 1.5502437e-06 -9.3015117e-21)
(0.99391738 0.00059122002 5.7302397e-54)
(0.12551472 0.00061005269 -8.1655504e-54)
(0.065072096 1.9776692e-05 0)
(0.063418842 4.7100355e-07 -1.1996832e-20)
(0.063499975 3.493115e-07 0)
(0.062226098 8.5153634e-07 0)
(0.060590999 9.1811694e-07 0)
(0.059066364 8.180797e-07 0)
(0.057750987 7.002975e-07 0)
(0.056611357 6.053253e-07 0)
(0.055607555 5.3098763e-07 0)
(0.054712047 4.7109167e-07 0)
(0.053904946 4.2527646e-07 0)
(0.053158475 3.8964444e-07 0)
(0.052465916 3.5802128e-07 0)
(0.051821351 3.2953691e-07 0)
(0.051220995 3.0355551e-07 0)
(0.050661026 2.8043627e-07 0)
(0.050136048 2.6019037e-07 0)
(0.049641915 2.421502e-07 0)
(0.049175545 2.2613646e-07 0)
(0.048733267 2.1187788e-07 0)
(0.048312855 1.9894973e-07 0)
(0.047912197 1.8712501e-07 0)
(0.047529828 1.7626141e-07 0)
(0.047164114 1.6642356e-07 0)
(0.046813226 1.5730429e-07 0)
(0.046476687 1.4885079e-07 0)
(0.046152826 1.4127116e-07 0)
(0.045840179 1.3418368e-07 0)
(0.045538634 1.2750248e-07 0)
(0.045247074 1.2145131e-07 0)
(0.044964308 1.1578716e-07 0)
(0.04469025 1.1037816e-07 0)
(0.044424289 1.0543813e-07 0)
(0.044165267 1.0088126e-07 0)
(0.04391293 9.6470913e-08 0)
(0.04366723 9.2307734e-08 0)
(0.043427387 8.8514161e-08 0)
(0.043192682 8.4926166e-08 0)
(0.042963134 8.1544493e-08 0)
(0.042737949 7.8445807e-08 0)
(0.042516701 7.5483124e-08 0)
(0.042299394 7.2568065e-08 0)
(0.042086076 6.9716964e-08 0)
(0.041876648 6.7015419e-08 0)
(0.041670639 6.4499884e-08 0)
(0.041467705 6.209588e-08 0)
(0.041267788 5.9766127e-08 0)
(0.041070755 5.7544857e-08 0)
(0.04087631 5.5445368e-08 0)
(0.040684213 5.3438346e-08 0)
(0.040494332 5.1507017e-08 0)
(0.04030652 4.9642598e-08 0)
(0.040120685 4.7855187e-08 0)
(0.039936593 4.6148232e-08 0)
(0.039754114 4.4498978e-08 0)
(0.039573154 4.2909323e-08 0)
(0.039393548 4.138446e-08 0)
(0.039215143 3.9908494e-08 0)
(0.0390379 3.8477947e-08 0)
(0.038861671 3.7110365e-08 0)
(0.038686237 3.5790581e-08 0)
(0.038511566 3.4501937e-08 0)
(0.038337586 3.3252743e-08 0)
(0.03816418 3.20478e-08 0)
(0.037991198 3.0886975e-08 0)
(0.0378185 2.9759997e-08 0)
(0.03764603 2.8655109e-08 0)
(0.037473778 2.7583654e-08 0)
(0.037301537 2.6561135e-08 0)
(0.037129075 2.5571693e-08 0)
(0.036956352 2.4594494e-08 0)
(0.036783408 2.3641734e-08 0)
(0.036610028 2.274187e-08 0)
(0.036435794 2.1874197e-08 0)
(0.03626076 2.1005281e-08 0)
(0.036085019 2.0152434e-08 0)
(0.035908351 1.9337307e-08 0)
(0.035730445 1.8550522e-08 0)
(0.0355512 1.7772068e-08 0)
(0.035370664 1.7011346e-08 0)
(0.035188531 1.6286496e-08 0)
(0.035004424 1.558171e-08 0)
(0.034818326 1.4883617e-08 0)
(0.034630143 1.4206957e-08 0)
(0.034439468 1.3556139e-08 0)
(0.034246025 1.2914856e-08 0)
(0.03404981 1.228545e-08 0)
(0.033850438 1.1687368e-08 0)
(0.03365176 1.1119441e-08 0)
(0.033460372 1.0587751e-08 0)
(0.033277921 1.0123518e-08 0)
(0.033102925 9.695816e-09 0)
(0.032935575 9.2741463e-09 0)
(0.032775468 8.8825457e-09 0)
(0.032621945 8.5270257e-09 0)
(0.032474391 8.1989505e-09 0)
(0.032332452 7.8877556e-09 0)
(0.032195885 7.5945369e-09 0)
(0.032064299 7.3257595e-09 0)
(0.031937224 7.0795083e-09 0)
(0.031814333 6.8466322e-09 0)
(0.031695479 6.6237157e-09 0)
(0.031580459 6.4146269e-09 0)
(0.031468989 6.2260565e-09 0)
(0.031360628 6.052491e-09 0)
(0.031255288 5.9102618e-09 0)
(0.031151949 5.749835e-09 0)
(0.031052282 5.7426985e-09 0)
(0.030949183 5.4953787e-09 0)
(0.030858085 6.7613742e-09 0)
(0.030709937 4.211246e-09 0)
(1 1.6773584e-09 7.9571638e-24)
(0.99998251 6.0870516e-09 0)
(0.99994199 1.1031832e-08 0)
(0.99988834 1.5506701e-08 0)
(0.99982489 2.0363694e-08 0)
(0.99975257 2.596009e-08 0)
(0.99967207 3.2444648e-08 0)
(0.99958389 4.0025746e-08 0)
(0.99948819 4.9015508e-08 0)
(0.99938476 5.980356e-08 0)
(0.9992731 7.2866252e-08 0)
(0.99915241 8.8823415e-08 0)
(0.9990215 1.0851399e-07 0)
(0.99887868 1.3315761e-07 0)
(0.99872146 1.6443653e-07 0)
(0.9985464 2.0539419e-07 0)
(0.99834746 2.5931759e-07 0)
(0.99811824 3.3856579e-07 0)
(0.99783731 4.419459e-07 0)
(0.99750384 6.616693e-07 0)
(0.99698404 8.7622946e-07 0)
(0.99643247 2.6263035e-06 0)
(0.9939521 2.2032326e-06 0)
(0.99391682 0.0008163501 -2.9632684e-54)
(0.17387413 0.00085492372 4.2526584e-54)
(0.092455492 3.9258963e-05 0)
(0.090108053 9.7057973e-07 0)
(0.0902173 7.2099587e-07 0)
(0.088406155 1.7548471e-06 0)
(0.086081641 1.8912438e-06 0)
(0.08391633 1.6845515e-06 0)
(0.082048267 1.4421564e-06 0)
(0.080429432 1.2467179e-06 0)
(0.079003445 1.093623e-06 0)
(0.077731333 9.7024684e-07 0)
(0.076584816 8.7589164e-07 0)
(0.075524408 8.025103e-07 0)
(0.074540581 7.3738198e-07 0)
(0.07362493 6.7871513e-07 0)
(0.07277208 6.2520605e-07 0)
(0.071976598 5.7759228e-07 0)
(0.071230817 5.3589558e-07 0)
(0.070528851 4.9874166e-07 0)
(0.069866323 4.6575981e-07 0)
(0.069238017 4.3639437e-07 0)
(0.068640771 4.0976597e-07 0)
(0.068071591 3.8541327e-07 0)
(0.067528383 3.6304029e-07 0)
(0.067008839 3.4277463e-07 0)
(0.066510359 3.2399469e-07 0)
(0.066032255 3.0658568e-07 0)
(0.065572163 2.9097083e-07 0)
(0.065128007 2.7637507e-07 0)
(0.064699613 2.6261644e-07 0)
(0.064285405 2.5015037e-07 0)
(0.063883697 2.3848432e-07 0)
(0.063494353 2.2734616e-07 0)
(0.063116508 2.171707e-07 0)
(0.062748527 2.0778267e-07 0)
(0.062390044 1.9870076e-07 0)
(0.062040982 1.9012809e-07 0)
(0.06170024 1.8231263e-07 0)
(0.061366805 1.7492089e-07 0)
(0.061040695 1.6795779e-07 0)
(0.060720776 1.6157705e-07 0)
(0.06040645 1.5547305e-07 0)
(0.06009773 1.4946771e-07 0)
(0.059794675 1.4359683e-07 0)
(0.059497141 1.3803388e-07 0)
(0.059204464 1.3285153e-07 0)
(0.05891616 1.2789901e-07 0)
(0.058632142 1.2310104e-07 0)
(0.058352219 1.1852705e-07 0)
(0.058075968 1.1420255e-07 0)
(0.057803056 1.1006778e-07 0)
(0.057533297 1.0608944e-07 0)
(0.057266474 1.0225032e-07 0)
(0.057002455 9.8569438e-08 0)
(0.056740913 9.5052741e-08 0)
(0.056481666 9.1655288e-08 0)
(0.056224577 8.8381474e-08 0)
(0.05596941 8.524131e-08 0)
(0.055715947 8.2201113e-08 0)
(0.055464135 7.9254116e-08 0)
(0.055213768 7.6437054e-08 0)
(0.054964529 7.371923e-08 0)
(0.054716368 7.1065384e-08 0)
(0.054469191 6.8491924e-08 0)
(0.054222833 6.600982e-08 0)
(0.053977076 6.3619044e-08 0)
(0.05373172 6.1298103e-08 0)
(0.053486688 5.902228e-08 0)
(0.053241966 5.681512e-08 0)
(0.052997261 5.4708938e-08 0)
(0.05275224 5.2671247e-08 0)
(0.052506849 5.0658619e-08 0)
(0.052261142 4.8695952e-08 0)
(0.052014818 4.6842351e-08 0)
(0.051767281 4.505537e-08 0)
(0.051518603 4.3265769e-08 0)
(0.051268923 4.1508984e-08 0)
(0.051017925 3.982994e-08 0)
(0.050765171 3.8209496e-08 0)
(0.05051051 3.6606174e-08 0)
(0.050254016 3.5039189e-08 0)
(0.049995255 3.3546117e-08 0)
(0.049733689 3.2094543e-08 0)
(0.049469292 3.06567e-08 0)
(0.049201933 2.9262867e-08 0)
(0.048931034 2.7922351e-08 0)
(0.048656203 2.6601524e-08 0)
(0.048377431 2.5305087e-08 0)
(0.048094176 2.4073174e-08 0)
(0.047811906 2.2903434e-08 0)
(0.047539992 2.180828e-08 0)
(0.047280776 2.0852028e-08 0)
(0.047032153 1.9971101e-08 0)
(0.04679439 1.9102584e-08 0)
(0.046566918 1.829596e-08 0)
(0.046348802 1.756365e-08 0)
(0.046139166 1.688792e-08 0)
(0.045937505 1.6246958e-08 0)
(0.045743478 1.5642976e-08 0)
(0.045556528 1.5089333e-08 0)
(0.045375986 1.4582111e-08 0)
(0.04520139 1.4102465e-08 0)
(0.045032528 1.364331e-08 0)
(0.044869114 1.3212596e-08 0)
(0.044710744 1.2824143e-08 0)
(0.044556792 1.24666e-08 0)
(0.044407132 1.2173565e-08 0)
(0.044260318 1.1843028e-08 0)
(0.044118717 1.1827963e-08 0)
(0.043972271 1.132798e-08 0)
(0.043842843 1.3934302e-08 0)
(0.043632361 8.6717343e-09 0)
(1 2.1991241e-09 0)
(0.99998251 7.9807645e-09 0)
(0.99994198 1.4464589e-08 0)
(0.99988833 2.0333124e-08 0)
(0.99982485 2.6703268e-08 0)
(0.9997525 3.4043174e-08 0)
(0.99967196 4.2547689e-08 0)
(0.99958373 5.2489925e-08 0)
(0.99948798 6.4279077e-08 0)
(0.9993845 7.8425971e-08 0)
(0.99927278 9.5555134e-08 0)
(0.99915203 1.1647921e-07 0)
(0.99902107 1.4229812e-07 0)
(0.99887819 1.7461087e-07 0)
(0.99872091 2.1562302e-07 0)
(0.9985458 2.6932476e-07 0)
(0.99834681 3.4002558e-07 0)
(0.99811753 4.4392898e-07 0)
(0.99783654 5.7947123e-07 0)
(0.99750302 8.6754495e-07 0)
(0.99698316 1.1488699e-06 0)
(0.99643155 3.4431476e-06 0)
(0.99395128 2.8891693e-06 0)
(0.99391628 0.0010393632 0)
(0.22210391 0.0011032483 0)
(0.12120733 6.5627651e-05 0)
(0.11813174 1.6838422e-06 0)
(0.11825846 1.254215e-06 1.2619274e-20)
(0.11588239 3.0445818e-06 0)
(0.11283442 3.2798317e-06 0)
(0.10999813 2.9203116e-06 0)
(0.1075512 2.5003192e-06 0)
(0.10543019 2.1617337e-06 0)
(0.1035617 1.8963081e-06 0)
(0.10189485 1.6823621e-06 0)
(0.10039256 1.5187677e-06 0)
(0.099003062 1.3915422e-06 0)
(0.097713889 1.2786185e-06 0)
(0.096514038 1.1768939e-06 0)
(0.095396467 1.0841155e-06 0)
(0.094354053 1.0015601e-06 0)
(0.093376753 9.2926313e-07 0)
(0.092456856 8.6484213e-07 0)
(0.091588631 8.0765338e-07 0)
(0.090765243 7.5673657e-07 0)
(0.089982552 7.1056159e-07 0)
(0.089236637 6.6833685e-07 0)
(0.088524744 6.2954469e-07 0)
(0.087843862 5.9439926e-07 0)
(0.087190586 5.6183804e-07 0)
(0.086563996 5.3165349e-07 0)
(0.085961014 5.0457189e-07 0)
(0.085378919 4.7926504e-07 0)
(0.084817466 4.5541044e-07 0)
(0.084274605 4.3378968e-07 0)
(0.083748131 4.1356021e-07 0)
(0.08323785 3.9424991e-07 0)
(0.082742634 3.7660393e-07 0)
(0.082260351 3.6032086e-07 0)
(0.081790517 3.4457505e-07 0)
(0.081333017 3.2971264e-07 0)
(0.08088642 3.1615702e-07 0)
(0.080449407 3.0333653e-07 0)
(0.080021992 2.9126507e-07 0)
(0.07960268 2.8020271e-07 0)
(0.079190698 2.6961497e-07 0)
(0.078786071 2.5919911e-07 0)
(0.078388867 2.490207e-07 0)
(0.07799889 2.393761e-07 0)
(0.077615276 2.3038764e-07 0)
(0.0772374 2.2179772e-07 0)
(0.076865141 2.1347843e-07 0)
(0.076498242 2.0554836e-07 0)
(0.076136154 1.9804889e-07 0)
(0.075778443 1.9087718e-07 0)
(0.075424868 1.8397765e-07 0)
(0.075075138 1.7732169e-07 0)
(0.074729077 1.7093955e-07 0)
(0.074386263 1.6483978e-07 0)
(0.074046461 1.589473e-07 0)
(0.073709487 1.532707e-07 0)
(0.073375026 1.4782614e-07 0)
(0.073042796 1.4255379e-07 0)
(0.072712733 1.3744244e-07 0)
(0.072384565 1.3255686e-07 0)
(0.072057873 1.278446e-07 0)
(0.07173259 1.23243e-07 0)
(0.071408597 1.1877948e-07 0)
(0.071085678 1.1447465e-07 0)
(0.070763548 1.1032897e-07 0)
(0.07044194 1.0630455e-07 0)
(0.070120754 1.023578e-07 0)
(0.069799975 9.8529762e-08 0)
(0.06947922 9.4877159e-08 0)
(0.069158049 9.1343883e-08 0)
(0.068836388 8.7853825e-08 0)
(0.068514314 8.4449818e-08 0)
(0.068191433 8.1235128e-08 0)
(0.06786696 7.8136462e-08 0)
(0.067540989 7.5033153e-08 0)
(0.067213703 7.1986316e-08 0)
(0.066884692 6.9074362e-08 0)
(0.066553377 6.6264381e-08 0)
(0.06621956 6.3484037e-08 0)
(0.065883339 6.0766411e-08 0)
(0.065544148 5.8177006e-08 0)
(0.065201279 5.5659829e-08 0)
(0.064854695 5.3166377e-08 0)
(0.06450423 5.0749043e-08 0)
(0.064149123 4.84243e-08 0)
(0.063788861 4.6133774e-08 0)
(0.063423432 4.3885435e-08 0)
(0.063052126 4.1749002e-08 0)
(0.062682109 3.9720478e-08 0)
(0.062325666 3.7821225e-08 0)
(0.061985869 3.616279e-08 0)
(0.061659958 3.4635084e-08 0)
(0.061348282 3.3128926e-08 0)
(0.061050094 3.1730012e-08 0)
(0.060764171 3.0459972e-08 0)
(0.060489364 2.9288133e-08 0)
(0.060225011 2.8176587e-08 0)
(0.059970664 2.7129102e-08 0)
(0.059725595 2.6168905e-08 0)
(0.059488925 2.5289252e-08 0)
(0.05926005 2.4457465e-08 0)
(0.05903869 2.3661173e-08 0)
(0.058824473 2.2914145e-08 0)
(0.058616868 2.2240392e-08 0)
(0.058415057 2.1620268e-08 0)
(0.05821887 2.111191e-08 0)
(0.058026421 2.0538613e-08 0)
(0.057840796 2.0511582e-08 0)
(0.057648863 1.9652619e-08 0)
(0.057479196 2.4173373e-08 -3.0114582e-22)
(0.057203272 1.5035746e-08 5.4606225e-23)
(1 2.7536506e-09 0)
(0.99998251 9.993519e-09 0)
(0.99994198 1.8113521e-08 0)
(0.99988832 2.5464176e-08 0)
(0.99982482 3.344378e-08 0)
(0.99975243 4.2638177e-08 0)
(0.99967184 5.3291088e-08 0)
(0.99958357 6.5744375e-08 0)
(0.99948776 8.0510387e-08 0)
(0.99938421 9.8228756e-08 0)
(0.99927243 1.1968149e-07 0)
(0.99915162 1.4588617e-07 0)
(0.99902059 1.7822005e-07 0)
(0.99887765 2.1868538e-07 0)
(0.9987203 2.7004389e-07 0)
(0.99854513 3.3729195e-07 0)
(0.99834608 4.2582575e-07 0)
(0.99811673 5.5593463e-07 0)
(0.99783569 7.2566086e-07 0)
(0.99750211 1.086378e-06 0)
(0.99698219 1.4386358e-06 0)
(0.99643053 4.3112611e-06 0)
(0.99395038 3.6184087e-06 0)
(0.99391581 0.0012620587 0)
(0.27062175 0.00135851 0)
(0.15172897 9.9223919e-05 0)
(0.14786466 2.6550896e-06 0)
(0.14798368 1.9844385e-06 0)
(0.14500807 4.7943838e-06 0)
(0.14119618 5.1622161e-06 0)
(0.13765274 4.5946329e-06 0)
(0.13459556 3.9342269e-06 0)
(0.13194475 3.4019145e-06 0)
(0.12960923 2.9842999e-06 0)
(0.12752571 2.6476024e-06 0)
(0.1256478 2.3901869e-06 0)
(0.12391078 2.1900047e-06 0)
(0.12229911 2.0123107e-06 0)
(0.12079905 1.8522329e-06 0)
(0.1194018 1.7062358e-06 0)
(0.11809845 1.5763269e-06 0)
(0.11687648 1.4625587e-06 0)
(0.11572623 1.3611821e-06 0)
(0.11464056 1.2711841e-06 -6.2768081e-33)
(0.11361093 1.1910569e-06 0)
(0.11263215 1.1183861e-06 0)
(0.11169935 1.0519378e-06 0)
(0.11080906 9.9089052e-07 0)
(0.10995753 9.3557187e-07 0)
(0.10914052 8.8433134e-07 0)
(0.10835685 8.3683025e-07 0)
(0.1076027 7.9420084e-07 0)
(0.10687467 7.5437524e-07 0)
(0.10617242 7.1683628e-07 0)
(0.10549342 6.828019e-07 0)
(0.10483491 6.5096281e-07 0)
(0.10419664 6.2057624e-07 0)
(0.1035772 5.9280128e-07 0)
(0.10297394 5.6716761e-07 0)
(0.10238624 5.4238906e-07 0)
(0.10181394 5.1900154e-07 0)
(0.10125528 4.9766113e-07 0)
(0.10070862 4.7747824e-07 0)
(0.10017395 4.5848306e-07 0)
(0.099649394 4.4107499e-07 0)
(0.099134008 4.2440575e-07 0)
(0.098627829 4.0800814e-07 0)
(0.098130929 3.9199099e-07 0)
(0.097643052 3.7681368e-07 0)
(0.097163132 3.6266321e-07 0)
(0.096690392 3.4913987e-07 0)
(0.096224676 3.3604662e-07 0)
(0.095765654 3.2356724e-07 0)
(0.095312643 3.1176245e-07 0)
(0.094865108 3.0047147e-07 0)
(0.094422748 2.8961044e-07 0)
(0.093985193 2.7913608e-07 0)
(0.093552216 2.6909175e-07 0)
(0.093123298 2.5948829e-07 0)
(0.092698152 2.5021178e-07 0)
(0.092276539 2.4127744e-07 0)
(0.091858064 2.3270872e-07 0)
(0.091442373 2.244093e-07 0)
(0.091029392 2.1636224e-07 0)
(0.090618784 2.0867133e-07 0)
(0.090210017 2.0125509e-07 0)
(0.089803004 1.9401259e-07 0)
(0.089397602 1.869854e-07 0)
(0.088993546 1.8020835e-07 0)
(0.088590473 1.7368303e-07 0)
(0.088188048 1.6734883e-07 0)
(0.087786145 1.6113596e-07 0)
(0.087384751 1.5510941e-07 0)
(0.086983386 1.4935951e-07 0)
(0.086581496 1.437983e-07 0)
(0.086178986 1.3830471e-07 0)
(0.085775957 1.3294567e-07 0)
(0.085371919 1.278849e-07 0)
(0.084965883 1.2300753e-07 0)
(0.084557968 1.1812268e-07 0)
(0.084148404 1.1332605e-07 0)
(0.083736681 1.0874184e-07 0)
(0.083322071 1.0431868e-07 0)
(0.082904324 9.9942087e-08 0)
(0.082483566 9.5663752e-08 0)
(0.08205909 9.1587326e-08 0)
(0.081630007 8.7624993e-08 0)
(0.081196271 8.3699867e-08 0)
(0.080757674 7.9894249e-08 0)
(0.080313266 7.6234573e-08 0)
(0.079862402 7.2628871e-08 0)
(0.079405067 6.9089406e-08 0)
(0.078940374 6.5726113e-08 0)
(0.078477291 6.2532819e-08 0)
(0.078031191 5.9542903e-08 0)
(0.077605922 5.6931991e-08 0)
(0.077198031 5.4527009e-08 0)
(0.076807951 5.2156006e-08 0)
(0.07643475 4.9953682e-08 0)
(0.076076899 4.795423e-08 0)
(0.075732958 4.6109491e-08 0)
(0.075402098 4.4359664e-08 0)
(0.075083759 4.2710571e-08 0)
(0.074777033 4.1198875e-08 0)
(0.074480818 3.981404e-08 0)
(0.074194356 3.850462e-08 0)
(0.0739173 3.7251015e-08 0)
(0.073649183 3.6074871e-08 0)
(0.073389342 3.5014054e-08 0)
(0.073136753 3.4037717e-08 0)
(0.072891203 3.3237115e-08 0)
(0.072650338 3.2334562e-08 0)
(0.072418003 3.229029e-08 0)
(0.072177828 3.0937475e-08 0)
(0.071965464 3.8065112e-08 0)
(0.0716201 2.3661945e-08 -3.1138519e-23)
(1 3.3491992e-09 0)
(0.99998251 1.2155333e-08 0)
(0.99994198 2.2033144e-08 0)
(0.9998883 3.097669e-08 0)
(0.99982477 4.0686372e-08 0)
(0.99975235 5.1874255e-08 0)
(0.99967171 6.4836422e-08 0)
(0.99958338 7.9988514e-08 0)
(0.9994875 9.7953643e-08 0)
(0.99938389 1.1950978e-07 0)
(0.99927205 1.4560806e-07 0)
(0.99915116 1.7748615e-07 0)
(0.99902005 2.168192e-07 0)
(0.99887705 2.6604251e-07 0)
(0.99871963 3.2851511e-07 0)
(0.99854438 4.1031403e-07 0)
(0.99834526 5.180026e-07 0)
(0.99811585 6.7625814e-07 0)
(0.99783474 8.8270008e-07 0)
(0.99750109 1.3214356e-06 0)
(0.9969811 1.749894e-06 0)
(0.9964294 5.2435046e-06 0)
(0.99394937 4.4019475e-06 0)
(0.99391542 0.0014856439 0)
(0.31973529 0.0016226738 0)
(0.18439965 0.0001410789 0)
(0.17962084 3.9601162e-06 0)
(0.17967698 2.9663934e-06 -3.2942015e-20)
(0.17606321 7.1059325e-06 1.5310185e-20)
(0.17144717 7.6457757e-06 0)
(0.16716068 6.8025531e-06 0)
(0.16346169 5.8255227e-06 0)
(0.16025304 5.0381155e-06 0)
(0.15742542 4.4198624e-06 0)
(0.15490264 3.9212684e-06 0)
(0.15262854 3.5401368e-06 0)
(0.15052481 3.2437531e-06 0)
(0.1485727 2.9806383e-06 0)
(0.14675556 2.7435965e-06 0)
(0.14506281 2.527404e-06 0)
(0.14348366 2.3350341e-06 0)
(0.14200295 2.1665601e-06 0)
(0.14060904 2.0164301e-06 0)
(0.13929329 1.8831462e-06 6.7216425e-33)
(0.13804534 1.7644795e-06 0)
(0.13685896 1.6568463e-06 0)
(0.13572823 1.558436e-06 0)
(0.13464895 1.468022e-06 0)
(0.13361661 1.3860773e-06 0)
(0.13262607 1.3101877e-06 0)
(0.13167587 1.2398348e-06 0)
(0.13076143 1.1766805e-06 0)
(0.12987862 1.1176938e-06 0)
(0.12902703 1.0620953e-06 0)
(0.12820358 1.0116715e-06 0)
(0.12740497 9.6450704e-07 0)
(0.12663086 9.1950269e-07 0)
(0.12587954 8.7835511e-07 0)
(0.12514783 8.4037379e-07 0)
(0.12443498 8.0367292e-07 0)
(0.12374077 7.6903353e-07 0)
(0.12306307 7.3741217e-07 0)
(0.12239992 7.0750605e-07 0)
(0.12175129 6.793724e-07 0)
(0.1211149 6.5358809e-07 0)
(0.12048962 6.2888594e-07 0)
(0.11987551 6.0458767e-07 0)
(0.11927263 5.8086309e-07 0)
(0.11868067 5.5838208e-07 0)
(0.11809835 5.3741345e-07 0)
(0.11752473 5.1737345e-07 0)
(0.11695962 4.9797686e-07 0)
(0.11640261 4.7949149e-07 0)
(0.11585287 4.6200079e-07 0)
(0.11530977 4.4526801e-07 0)
(0.11477295 4.2917455e-07 0)
(0.11424194 4.1365887e-07 0)
(0.11371646 3.9877878e-07 0)
(0.11319589 3.845465e-07 0)
(0.1126799 3.7079946e-07 0)
(0.11216819 3.5756301e-07 0)
(0.11166026 3.4486878e-07 0)
(0.1111557 3.3257087e-07 0)
(0.11065443 3.2064517e-07 0)
(0.11015602 3.0924836e-07 0)
(0.10965984 2.9826128e-07 0)
(0.10916577 2.8753087e-07 0)
(0.10867364 2.7711644e-07 0)
(0.10818315 2.6707304e-07 0)
(0.10769383 2.5740455e-07 0)
(0.10720529 2.4801955e-07 0)
(0.10671737 2.388129e-07 0)
(0.10623006 2.2988142e-07 0)
(0.10574278 2.2136068e-07 0)
(0.10525484 2.1312075e-07 0)
(0.10476614 2.0498041e-07 0)
(0.10427681 1.9703801e-07 0)
(0.10378624 1.89538e-07 0)
(0.10329323 1.823109e-07 0)
(0.10279793 1.7507242e-07 0)
(0.10230061 1.6796359e-07 0)
(0.10180067 1.6116968e-07 0)
(0.10129721 1.5461524e-07 0)
(0.10078993 1.481296e-07 0)
(0.10027898 1.4178886e-07 0)
(0.099763512 1.3574742e-07 0)
(0.099242436 1.2987563e-07 0)
(0.098715695 1.2405873e-07 0)
(0.098183041 1.1841845e-07 0)
(0.09764332 1.1299472e-07 0)
(0.097095746 1.0765111e-07 0)
(0.0965403 1.0240539e-07 0)
(0.095975907 9.742075e-08 0)
(0.095413458 9.2688228e-08 0)
(0.094871622 8.8256916e-08 0)
(0.09435508 8.4387145e-08 0)
(0.093859638 8.0822787e-08 0)
(0.093385822 7.7308813e-08 0)
(0.0929325 7.4044627e-08 0)
(0.092497817 7.1081099e-08 0)
(0.092080025 6.8347046e-08 0)
(0.091678115 6.5753645e-08 0)
(0.091291411 6.3309367e-08 0)
(0.090918809 6.106869e-08 0)
(0.090558972 5.9016138e-08 0)
(0.090210978 5.7075447e-08 0)
(0.089874406 5.5217379e-08 0)
(0.08954869 5.3473975e-08 0)
(0.089233026 5.1901452e-08 0)
(0.088926171 5.0454237e-08 0)
(0.088627864 4.9267125e-08 0)
(0.088335256 4.7929437e-08 0)
(0.088052994 4.7860968e-08 0)
(0.087761276 4.5853297e-08 -3.6683275e-23)
(0.087503272 5.6432552e-08 0)
(0.087083676 3.5064117e-08 0)
(1 3.9946419e-09 0)
(0.99998251 1.4498454e-08 0)
(0.99994197 2.6282046e-08 0)
(0.99988828 3.6953293e-08 0)
(0.99982473 4.8539871e-08 0)
(0.99975226 6.1890438e-08 0)
(0.99967157 7.7357666e-08 0)
(0.99958317 9.5437081e-08 0)
(0.99948722 1.1687182e-07 0)
(0.99938354 1.4258976e-07 0)
(0.99927161 1.7372538e-07 0)
(0.99915064 2.1175483e-07 0)
(0.99901946 2.5867612e-07 0)
(0.99887637 3.1739389e-07 0)
(0.99871887 3.9191457e-07 0)
(0.99854355 4.8948634e-07 0)
(0.99834435 6.1793749e-07 0)
(0.99811487 8.0670084e-07 0)
(0.99783368 1.052938e-06 0)
(0.99749996 1.5762283e-06 0)
(0.99697989 2.0872882e-06 0)
(0.99642813 6.2537345e-06 0)
(0.99394827 5.2516164e-06 0)
(0.99391512 0.001710819 -7.5568801e-54)
(0.36963382 0.0018974367 1.1139952e-53)
(0.21953072 0.00019238488 -6.1492045e-19)
(0.2135591 5.7419866e-06 0)
(0.2134421 4.2834166e-06 -3.7987432e-20)
(0.20915308 1.0106685e-05 0)
(0.20370579 1.086297e-05 0)