/*--------------------------------*- C++ -*----------------------------------*\
  =========                 |
  \\      /  F ield         | OpenFOAM: The Open Source CFD Toolbox
   \\    /   O peration     | Website:  https://openfoam.org
    \\  /    A nd           | Version:  12
     \\/     M anipulation  |
\*---------------------------------------------------------------------------*/
FoamFile
{
    format      ascii;
    class       volScalarField;
    location    "1100";
    object      yPlus;
}
// * * * * * * * * * * * * * * * * * * * * * * * * * * * * * * * * * * * * * //

dimensions      [];

internalField   uniform 0;

boundaryField
{
    inlet
    {
        type            calculated;
        value           uniform 0;
    }
    top
    {
        type            calculated;
        value           uniform 0;
    }
    outlet
    {
        type            calculated;
        value           uniform 0;
    }
    slipsurface
    {
        type            calculated;
        value           uniform 0;
    }
    bottom
    {
        type            calculated;
        value           nonuniform List<scalar> 
100
(
0.24153458
0.23858184
0.23568055
0.2331812
0.23140088
0.23057777
0.23103804
0.23231005
0.23473601
0.23728782
0.24502851
0.23973171
8.0950344
41.976584
67.27423
83.765176
93.457319
98.416495
100.96494
100.87488
100.3347
99.32538
98.070948
96.728897
95.352384
93.968468
92.603296
91.294055
90.079282
88.945091
87.892921
86.929395
86.058896
85.281264
84.591904
83.983418
83.446117
82.970631
82.550721
82.18172
81.857006
81.568481
81.308929
81.071075
80.851833
80.641688
80.438742
80.239746
80.041494
79.841864
79.638528
79.428694
79.210519
78.98388
78.750017
78.510656
78.267474
78.022195
77.776366
77.531005
77.286613
77.043445
76.801841
76.562381
76.325634
76.091921
75.861549
75.634756
75.411323
75.190667
74.972352
74.756337
74.542742
74.331643
74.123224
73.91769
73.714857
73.514309
73.315779
73.119271
72.924889
72.732803
72.543146
72.355738
72.170222
71.986483
71.804529
71.624496
71.446527
71.270428
71.095913
70.922902
70.75146
70.5815
70.413227
70.245026
70.080218
69.905615
69.757539
69.486181
)
;
    }
    frontandback
    {
        type            empty;
    }
}


// ************************************************************************* //
