/*--------------------------------*- C++ -*----------------------------------*\
  =========                 |
  \\      /  F ield         | OpenFOAM: The Open Source CFD Toolbox
   \\    /   O peration     | Website:  https://openfoam.org
    \\  /    A nd           | Version:  12
     \\/     M anipulation  |
\*---------------------------------------------------------------------------*/
FoamFile
{
    format      ascii;
    class       volScalarField;
    location    "100";
    object      nut;
}
// * * * * * * * * * * * * * * * * * * * * * * * * * * * * * * * * * * * * * //

dimensions      [0 2 -1 0 0 0 0];

internalField   nonuniform List<scalar> 
13056
(
1.9574869e-07
1.890877e-07
1.8808403e-07
1.8797588e-07
1.8795866e-07
1.8794673e-07
1.879409e-07
1.8794025e-07
1.8794327e-07
1.8794898e-07
1.8795688e-07
1.8796669e-07
1.8797827e-07
1.8799156e-07
1.8800662e-07
1.8802356e-07
1.8804269e-07
1.8806456e-07
1.8809019e-07
1.8812228e-07
1.8816544e-07
1.8821197e-07
1.8864548e-07
1.7627852e-07
8.0872033e-16
1.0106993e-15
1.8411255e-15
2.0677029e-15
2.0001122e-15
1.858406e-15
1.7248705e-15
1.6086346e-15
1.5086048e-15
1.4230247e-15
1.3493724e-15
1.285327e-15
1.229094e-15
1.1792912e-15
1.1348204e-15
1.0947624e-15
1.0584393e-15
1.0253445e-15
9.9505231e-16
9.6720871e-16
9.4151684e-16
9.1772302e-16
8.9561402e-16
8.7500664e-16
8.5574289e-16
8.3768531e-16
8.2071638e-16
8.0473387e-16
7.8964797e-16
7.7537923e-16
7.6185824e-16
7.4902348e-16
7.3681962e-16
7.2519892e-16
7.1411719e-16
7.0353389e-16
6.9341353e-16
6.8372475e-16
6.7443818e-16
6.6552706e-16
6.5696703e-16
6.4873497e-16
6.4081083e-16
6.3317567e-16
6.2581306e-16
6.1870621e-16
6.1184047e-16
6.0520184e-16
5.987776e-16
5.9255557e-16
5.865243e-16
5.8067366e-16
5.749937e-16
5.6947551e-16
5.6410996e-16
5.5888839e-16
5.5380331e-16
5.4884722e-16
5.4401284e-16
5.3929335e-16
5.3468157e-16
5.3017118e-16
5.2575606e-16
5.2143104e-16
5.1718928e-16
5.1302611e-16
5.0893646e-16
5.0491477e-16
5.0095772e-16
4.9705831e-16
4.932139e-16
4.8941861e-16
4.8567004e-16
4.8196328e-16
4.7829438e-16
4.7465991e-16
4.7105467e-16
4.6747642e-16
4.6391874e-16
4.6037955e-16
4.5685502e-16
4.5334038e-16
4.4983309e-16
4.4632797e-16
4.4282144e-16
4.3931102e-16
4.3579082e-16
4.3225919e-16
4.2871898e-16
4.2521039e-16
4.2182713e-16
4.1860738e-16
4.1554416e-16
4.1263022e-16
4.0985786e-16
4.0721931e-16
4.0470863e-16
4.0231994e-16
4.0004746e-16
3.9788498e-16
3.9582726e-16
3.9386923e-16
3.9200542e-16
3.9023081e-16
3.8854027e-16
3.8692875e-16
3.8539249e-16
3.839232e-16
3.8252936e-16
3.811489e-16
3.7998112e-16
3.7809262e-16
1.95742e-07
1.8905034e-07
1.8804272e-07
1.8793331e-07
1.8791572e-07
1.8790358e-07
1.8789762e-07
1.878969e-07
1.8789987e-07
1.8790555e-07
1.8791343e-07
1.8792323e-07
1.8793481e-07
1.8794811e-07
1.8796317e-07
1.8798013e-07
1.8799929e-07
1.880212e-07
1.8804688e-07
1.8807904e-07
1.8812233e-07
1.8816875e-07
1.88604e-07
1.7708494e-07
4.3816363e-14
1.777104e-13
3.2352036e-13
3.6329653e-13
3.5147934e-13
3.2663713e-13
3.0321935e-13
2.8283132e-13
2.6527778e-13
2.5025346e-13
2.3731879e-13
2.260683e-13
2.161883e-13
2.0743683e-13
1.9962088e-13
1.925787e-13
1.8619235e-13
1.8037327e-13
1.7504668e-13
1.7015037e-13
1.6563217e-13
1.6144749e-13
1.5755889e-13
1.5393416e-13
1.5054557e-13
1.4736896e-13
1.4438369e-13
1.415718e-13
1.3891749e-13
1.3640682e-13
1.3402759e-13
1.3176899e-13
1.2962129e-13
1.275761e-13
1.2562566e-13
1.2376285e-13
1.2198142e-13
1.2027587e-13
1.1864103e-13
1.1707221e-13
1.1556511e-13
1.1411569e-13
1.1272042e-13
1.1137597e-13
1.1007945e-13
1.0882791e-13
1.0761877e-13
1.0644958e-13
1.0531811e-13
1.042222e-13
1.0315986e-13
1.021293e-13
1.0112877e-13
1.0015671e-13
9.9211506e-14
9.8291649e-14
9.7395817e-14
9.6522691e-14
9.567099e-14
9.4839505e-14
9.4026974e-14
9.3232279e-14
9.245434e-14
9.1692262e-14
9.0944832e-14
9.0211244e-14
8.9490608e-14
8.8781948e-14
8.808469e-14
8.7397603e-14
8.6720227e-14
8.6051531e-14
8.5391087e-14
8.4738037e-14
8.4091683e-14
8.3451424e-14
8.2816347e-14
8.2186049e-14
8.1559416e-14
8.0936067e-14
8.0315332e-14
7.9696373e-14
7.9078737e-14
7.8461516e-14
7.7844075e-14
7.7225973e-14
7.6606181e-14
7.5984397e-14
7.5361118e-14
7.4743461e-14
7.4147904e-14
7.3581128e-14
7.3041884e-14
7.2528883e-14
7.2040759e-14
7.1576148e-14
7.1134002e-14
7.0713283e-14
7.0312979e-14
6.9932002e-14
6.9569433e-14
6.9224383e-14
6.8895893e-14
6.8583084e-14
6.8285054e-14
6.8000921e-14
6.7730024e-14
6.7470899e-14
6.7225054e-14
6.6981526e-14
6.6775505e-14
6.6442244e-14
1.9572261e-07
1.889364e-07
1.879164e-07
1.8780319e-07
1.8778435e-07
1.8777156e-07
1.8776524e-07
1.8776429e-07
1.8776711e-07
1.8777269e-07
1.8778051e-07
1.8779028e-07
1.8780184e-07
1.8781515e-07
1.8783024e-07
1.8784725e-07
1.8786648e-07
1.8788849e-07
1.8791432e-07
1.8794668e-07
1.8799036e-07
1.8803647e-07
1.8847526e-07
1.7789396e-07
6.0814012e-13
3.8010841e-12
6.9155516e-12
7.7649882e-12
7.5139174e-12
6.9844237e-12
6.4850703e-12
6.0502022e-12
5.675593e-12
5.3548031e-12
5.0785229e-12
4.8381431e-12
4.6269975e-12
4.4399377e-12
4.2728372e-12
4.1222375e-12
3.9856457e-12
3.8611769e-12
3.7472342e-12
3.6424879e-12
3.5458229e-12
3.4562866e-12
3.3730789e-12
3.2955118e-12
3.2229924e-12
3.1550051e-12
3.0911087e-12
3.030919e-12
2.9740988e-12
2.92035e-12
2.8694117e-12
2.8210528e-12
2.7750657e-12
2.7312709e-12
2.6895024e-12
2.6496079e-12
2.6114542e-12
2.5749234e-12
2.5399051e-12
2.5062987e-12
2.4740129e-12
2.442961e-12
2.4130676e-12
2.3842614e-12
2.3564806e-12
2.3296624e-12
2.3037516e-12
2.2786956e-12
2.2544468e-12
2.2309593e-12
2.2081903e-12
2.1861015e-12
2.1646556e-12
2.1438192e-12
2.1235579e-12
2.1038394e-12
2.0846355e-12
2.0659179e-12
2.0476591e-12
2.0298331e-12
2.0124128e-12
1.9953743e-12
1.9786942e-12
1.9623539e-12
1.9463272e-12
1.9305971e-12
1.9151446e-12
1.899949e-12
1.8849981e-12
1.8702656e-12
1.8557418e-12
1.8414045e-12
1.8272447e-12
1.8132439e-12
1.7993872e-12
1.7856618e-12
1.7720482e-12
1.7585375e-12
1.7451062e-12
1.7317459e-12
1.7184423e-12
1.7051775e-12
1.6919416e-12
1.6787153e-12
1.6654849e-12
1.6522407e-12
1.6389611e-12
1.6256392e-12
1.6122855e-12
1.5990535e-12
1.5862957e-12
1.5741543e-12
1.5626023e-12
1.5516116e-12
1.541153e-12
1.5311971e-12
1.5217214e-12
1.5127038e-12
1.5041225e-12
1.4959545e-12
1.4881802e-12
1.4807804e-12
1.4737349e-12
1.4670248e-12
1.4606309e-12
1.4545343e-12
1.448721e-12
1.4431596e-12
1.4378826e-12
1.4326544e-12
1.4282312e-12
1.4210741e-12
1.956905e-07
1.8874272e-07
1.8770143e-07
1.8758179e-07
1.8756077e-07
1.8754688e-07
1.8753992e-07
1.8753858e-07
1.8754114e-07
1.8754656e-07
1.8755427e-07
1.8756397e-07
1.8757551e-07
1.8758883e-07
1.8760396e-07
1.8762105e-07
1.8764039e-07
1.8766258e-07
1.8768863e-07
1.877213e-07
1.8776556e-07
1.8781148e-07
1.8825523e-07
1.786132e-07
4.0063145e-12
3.0618575e-11
5.5676103e-11
6.2508628e-11
6.0507878e-11
5.6266155e-11
5.2262592e-11
4.877401e-11
4.5766391e-11
4.3189016e-11
4.0967969e-11
3.903463e-11
3.73358e-11
3.5830323e-11
3.4485027e-11
3.3272113e-11
3.2171794e-11
3.1168982e-11
3.0250848e-11
2.94067e-11
2.8627572e-11
2.7905808e-11
2.7234974e-11
2.660954e-11
2.6024736e-11
2.547642e-11
2.4961042e-11
2.4475509e-11
2.4017111e-11
2.358345e-11
2.3172425e-11
2.2782176e-11
2.2411033e-11
2.2057551e-11
2.1720394e-11
2.1398337e-11
2.1090306e-11
2.0795353e-11
2.0512588e-11
2.0241203e-11
1.9980461e-11
1.9729665e-11
1.9488209e-11
1.9255519e-11
1.9031094e-11
1.8814431e-11
1.8605085e-11
1.8402634e-11
1.8206691e-11
1.801689e-11
1.7832884e-11
1.7654366e-11
1.7481036e-11
1.7312623e-11
1.7148852e-11
1.6989461e-11
1.6834225e-11
1.6682915e-11
1.6535307e-11
1.639119e-11
1.6250348e-11
1.6112583e-11
1.597771e-11
1.584558e-11
1.5715979e-11
1.5588776e-11
1.5463816e-11
1.5340933e-11
1.5220029e-11
1.5100894e-11
1.4983448e-11
1.4867515e-11
1.475302e-11
1.4639815e-11
1.4527779e-11
1.4416809e-11
1.4306748e-11
1.4197523e-11
1.4088946e-11
1.3980947e-11
1.3873411e-11
1.3766194e-11
1.3659215e-11
1.3552319e-11
1.3445394e-11
1.3338361e-11
1.3231047e-11
1.3123393e-11
1.3015485e-11
1.2908569e-11
1.280549e-11
1.2707391e-11
1.2614049e-11
1.2525236e-11
1.2440712e-11
1.2360242e-11
1.2283643e-11
1.2210736e-11
1.2141347e-11
1.207529e-11
1.2012406e-11
1.1952545e-11
1.1895539e-11
1.184124e-11
1.1789493e-11
1.1740145e-11
1.1693083e-11
1.1648054e-11
1.1605322e-11
1.1562978e-11
1.152715e-11
1.1469162e-11
1.9564581e-07
1.8846456e-07
1.8739224e-07
1.8726336e-07
1.8723909e-07
1.8722358e-07
1.872157e-07
1.8721378e-07
1.8721596e-07
1.8722112e-07
1.8722867e-07
1.8723828e-07
1.8724978e-07
1.8726311e-07
1.872783e-07
1.872955e-07
1.87315e-07
1.8733741e-07
1.8736377e-07
1.8739689e-07
1.874419e-07
1.8748772e-07
1.879382e-07
1.792206e-07
1.7208257e-11
1.4876045e-10
2.7043346e-10
3.0360644e-10
2.940843e-10
2.7368503e-10
2.5439754e-10
2.3756905e-10
2.230393e-10
2.1057236e-10
1.99818e-10
1.9044883e-10
1.8221047e-10
1.7490561e-10
1.6837401e-10
1.6248148e-10
1.5713385e-10
1.5225852e-10
1.477935e-10
1.4368711e-10
1.3989595e-10
1.36383e-10
1.3311713e-10
1.3007156e-10
1.2722319e-10
1.2455199e-10
1.2204075e-10
1.1967447e-10
1.1744001e-10
1.1532575e-10
1.1332151e-10
1.1141826e-10
1.0960789e-10
1.078834e-10
1.062383e-10
1.0466664e-10
1.0316322e-10
1.0172342e-10
1.0034293e-10
9.9017807e-11
9.7744492e-11
9.6519604e-11
9.5340188e-11
9.4203453e-11
9.3106968e-11
9.2048283e-11
9.1025247e-11
9.0035799e-11
8.9078069e-11
8.8150264e-11
8.7250707e-11
8.6377903e-11
8.553039e-11
8.4706854e-11
8.3905958e-11
8.3126431e-11
8.2367168e-11
8.1627064e-11
8.0905015e-11
8.0199984e-11
7.9510915e-11
7.8836846e-11
7.8176865e-11
7.7530271e-11
7.6896015e-11
7.6273466e-11
7.5661878e-11
7.5060442e-11
7.4468687e-11
7.3885593e-11
7.3310771e-11
7.2743365e-11
7.2183001e-11
7.1628964e-11
7.1080666e-11
7.0537591e-11
6.9998985e-11
6.9464486e-11
6.8933179e-11
6.840472e-11
6.7878541e-11
6.7353946e-11
6.6830527e-11
6.630753e-11
6.5784412e-11
6.5260774e-11
6.4735775e-11
6.4209124e-11
6.3681225e-11
6.3158222e-11
6.2654014e-11
6.2174147e-11
6.1717514e-11
6.1282985e-11
6.0869387e-11
6.0475566e-11
6.0100629e-11
5.97437e-11
5.940393e-11
5.9080418e-11
5.8772396e-11
5.8479119e-11
5.8199789e-11
5.793367e-11
5.7680014e-11
5.7438079e-11
5.7207315e-11
5.6986476e-11
5.6776878e-11
5.6569129e-11
5.6393338e-11
5.6108717e-11
1.9558903e-07
1.8809577e-07
1.8698163e-07
1.868403e-07
1.8681155e-07
1.8679382e-07
1.8678468e-07
1.8678198e-07
1.8678363e-07
1.8678845e-07
1.8679577e-07
1.8680524e-07
1.8681668e-07
1.8683002e-07
1.8684528e-07
1.8686261e-07
1.8688231e-07
1.8690501e-07
1.8693177e-07
1.8696544e-07
1.8701137e-07
1.8705721e-07
1.8751666e-07
1.797051e-07
5.6154411e-11
5.3388241e-10
9.7093905e-10
1.0901695e-09
1.0573294e-09
9.8549371e-10
9.173352e-10
8.5770842e-10
8.0608869e-10
7.6169793e-10
7.2333464e-10
6.8986116e-10
6.603899e-10
6.3422956e-10
6.1081257e-10
5.8966435e-10
5.7045709e-10
5.5293458e-10
5.3687692e-10
5.2210041e-10
5.0845086e-10
4.9579651e-10
4.8402654e-10
4.7304557e-10
4.6277125e-10
4.5313212e-10
4.4406675e-10
4.3552155e-10
4.274496e-10
4.1980935e-10
4.1256433e-10
4.0568225e-10
3.9913414e-10
3.9289486e-10
3.8694115e-10
3.8125173e-10
3.7580793e-10
3.7059321e-10
3.6559208e-10
3.6079041e-10
3.5617541e-10
3.5173498e-10
3.474585e-10
3.4333592e-10
3.3935852e-10
3.3551749e-10
3.3180511e-10
3.2821397e-10
3.2473735e-10
3.2136879e-10
3.1810227e-10
3.1493241e-10
3.1185394e-10
3.0886214e-10
3.0595218e-10
3.0311952e-10
3.0036014e-10
2.9767009e-10
2.950453e-10
2.92482e-10
2.8997639e-10
2.8752496e-10
2.8512443e-10
2.8277235e-10
2.8046489e-10
2.7819984e-10
2.7597451e-10
2.73786e-10
2.7163262e-10
2.6951069e-10
2.674188e-10
2.6535388e-10
2.6331455e-10
2.6129823e-10
2.5930278e-10
2.5732632e-10
2.5536615e-10
2.534209e-10
2.5148731e-10
2.4956409e-10
2.4764916e-10
2.4574003e-10
2.4383516e-10
2.4193185e-10
2.4002809e-10
2.3812242e-10
2.362118e-10
2.3429512e-10
2.3237384e-10
2.3047047e-10
2.2863552e-10
2.2688903e-10
2.2522689e-10
2.2364495e-10
2.2213892e-10
2.2070462e-10
2.1933879e-10
2.1803826e-10
2.1679995e-10
2.1562064e-10
2.1449753e-10
2.1342793e-10
2.1240897e-10
2.1143798e-10
2.1051227e-10
2.0962915e-10
2.0878663e-10
2.0798016e-10
2.0721461e-10
2.0645562e-10
2.0581329e-10
2.0477288e-10
1.9552109e-07
1.8762885e-07
1.86461e-07
1.8630342e-07
1.8626869e-07
1.8624804e-07
1.8623724e-07
1.862335e-07
1.8623447e-07
1.8623882e-07
1.8624584e-07
1.8625512e-07
1.8626647e-07
1.8627981e-07
1.8629515e-07
1.8631263e-07
1.8633258e-07
1.8635563e-07
1.8638288e-07
1.8641722e-07
1.8646423e-07
1.8651016e-07
1.8698158e-07
1.8005494e-07
1.5037847e-10
1.5584961e-09
2.8386183e-09
3.1888212e-09
3.09975e-09
2.896942e-09
2.7032836e-09
2.5330516e-09
2.385005e-09
2.2572076e-09
2.1464165e-09
2.049491e-09
1.9639627e-09
1.8878961e-09
1.8196769e-09
1.7579581e-09
1.7018271e-09
1.6505569e-09
1.6035198e-09
1.56019e-09
1.5201254e-09
1.482948e-09
1.4483392e-09
1.4160242e-09
1.3857658e-09
1.3573577e-09
1.3306225e-09
1.3054051e-09
1.2815695e-09
1.2589956e-09
1.2375774e-09
1.2172211e-09
1.1978428e-09
1.1793692e-09
1.1617327e-09
1.1448714e-09
1.1287308e-09
1.1132628e-09
1.0984222e-09
1.0841678e-09
1.0704622e-09
1.0572701e-09
1.0445606e-09
1.0323042e-09
1.0204753e-09
1.0090483e-09
9.9800051e-10
9.8731027e-10
9.7695783e-10
9.6692434e-10
9.5719209e-10
9.4774529e-10
9.3856853e-10
9.2964787e-10
9.2096923e-10
9.1251918e-10
9.0428596e-10
8.962579e-10
8.8842276e-10
8.8076925e-10
8.7328625e-10
8.6596326e-10
8.5879069e-10
8.5176159e-10
8.4486452e-10
8.380932e-10
8.3143966e-10
8.248954e-10
8.1845544e-10
8.1210898e-10
8.0585181e-10
7.9967484e-10
7.9357392e-10
7.8754143e-10
7.8157099e-10
7.7565699e-10
7.6979141e-10
7.6397014e-10
7.5818351e-10
7.5242758e-10
7.4669618e-10
7.4098184e-10
7.3527994e-10
7.2958239e-10
7.238832e-10
7.1817783e-10
7.1245732e-10
7.067182e-10
7.0096471e-10
6.9526481e-10
6.8976953e-10
6.8453836e-10
6.7955885e-10
6.7481842e-10
6.7030425e-10
6.6600386e-10
6.6190753e-10
6.5800581e-10
6.5428961e-10
6.5074936e-10
6.473768e-10
6.4416396e-10
6.4110233e-10
6.38184e-10
6.3540096e-10
6.3274524e-10
6.3021093e-10
6.277844e-10
6.2548045e-10
6.231955e-10
6.2126145e-10
6.1812707e-10
1.9544354e-07
1.8705534e-07
1.8582058e-07
1.856421e-07
1.8559956e-07
1.8557514e-07
1.8556221e-07
1.8555714e-07
1.8555723e-07
1.8556098e-07
1.8556759e-07
1.8557663e-07
1.8558785e-07
1.8560116e-07
1.8561658e-07
1.8563424e-07
1.8565447e-07
1.8567793e-07
1.8570574e-07
1.8574086e-07
1.8578912e-07
1.8583521e-07
1.8632268e-07
1.8025372e-07
3.4498636e-10
3.8793872e-09
7.0886409e-09
7.9733863e-09
7.7786308e-09
7.3007213e-09
6.8395106e-09
6.4309336e-09
6.0730537e-09
5.7622909e-09
5.4915579e-09
5.253717e-09
5.0430905e-09
4.8551811e-09
4.686147e-09
4.5327965e-09
4.3930172e-09
4.2650843e-09
4.1474948e-09
4.0389854e-09
3.938491e-09
3.8450981e-09
3.758035e-09
3.6766347e-09
3.6003195e-09
3.528587e-09
3.4610037e-09
3.3971894e-09
3.3368113e-09
3.2795742e-09
3.2252176e-09
3.1735108e-09
3.1242466e-09
3.0772444e-09
3.0323372e-09
2.9893717e-09
2.9482133e-09
2.9087423e-09
2.8708468e-09
2.8344243e-09
2.7993824e-09
2.7656332e-09
2.7330995e-09
2.701708e-09
2.6713948e-09
2.6420958e-09
2.6137547e-09
2.5863172e-09
2.5597339e-09
2.5339577e-09
2.5089441e-09
2.4846537e-09
2.4610477e-09
2.4380911e-09
2.4157486e-09
2.3939864e-09
2.3727749e-09
2.3520847e-09
2.3318837e-09
2.3121431e-09
2.2928349e-09
2.2739323e-09
2.2554113e-09
2.2372551e-09
2.2194344e-09
2.201934e-09
2.1847337e-09
2.1678118e-09
2.151156e-09
2.1347388e-09
2.1185495e-09
2.1025649e-09
2.0867743e-09
2.0711581e-09
2.0557e-09
2.0403855e-09
2.0251942e-09
2.0101153e-09
1.995124e-09
1.98021e-09
1.9653574e-09
1.9505469e-09
1.9357663e-09
1.9209948e-09
1.9062168e-09
1.8914202e-09
1.876582e-09
1.8616927e-09
1.8467631e-09
1.8319708e-09
1.8177074e-09
1.8041257e-09
1.7911933e-09
1.7788773e-09
1.7671445e-09
1.7559628e-09
1.7453072e-09
1.7351536e-09
1.7254786e-09
1.7162579e-09
1.7074704e-09
1.6990957e-09
1.6911121e-09
1.6834992e-09
1.6762365e-09
1.6693037e-09
1.6626854e-09
1.6563464e-09
1.6503257e-09
1.6443525e-09
1.6392953e-09
1.6310939e-09
1.9535882e-07
1.8636614e-07
1.8504973e-07
1.8484461e-07
1.8479197e-07
1.8476276e-07
1.8474713e-07
1.8474038e-07
1.8473934e-07
1.8474231e-07
1.847484e-07
1.8475711e-07
1.8476815e-07
1.8478141e-07
1.8479689e-07
1.8481474e-07
1.8483529e-07
1.8485921e-07
1.8488765e-07
1.8492368e-07
1.849733e-07
1.8501963e-07
1.8552614e-07
1.8028063e-07
6.9486383e-10
8.4254773e-09
1.5478296e-08
1.7456251e-08
1.7118094e-08
1.6162977e-08
1.522621e-08
1.4386955e-08
1.3644317e-08
1.2994032e-08
1.2423552e-08
1.1919386e-08
1.1470602e-08
1.1068413e-08
1.070503e-08
1.0374053e-08
1.0071372e-08
9.793512e-09
9.5374092e-09
9.300474e-09
9.080514e-09
8.8756402e-09
8.6842515e-09
8.504958e-09
8.3365525e-09
8.1779824e-09
8.0283358e-09
7.8868115e-09
7.7527057e-09
7.6253937e-09
7.5043228e-09
7.3890026e-09
7.2789915e-09
7.1739044e-09
7.0733843e-09
6.9771028e-09
6.8847711e-09
6.7961324e-09
6.7109457e-09
6.6289906e-09
6.5500676e-09
6.4739878e-09
6.4005838e-09
6.3296966e-09
6.2611877e-09
6.1949183e-09
6.1307657e-09
6.0686121e-09
6.0083498e-09
5.949876e-09
5.8930939e-09
5.8379169e-09
5.7842602e-09
5.7320473e-09
5.6812006e-09
5.6316461e-09
5.5833184e-09
5.5361528e-09
5.4900741e-09
5.4450179e-09
5.4009232e-09
5.3577297e-09
5.3153852e-09
5.2738551e-09
5.2330731e-09
5.1930069e-09
5.1536115e-09
5.1148392e-09
5.0766622e-09
5.0390192e-09
5.0018862e-09
4.9652111e-09
4.9289692e-09
4.8931167e-09
4.8576163e-09
4.8224352e-09
4.787527e-09
4.7528666e-09
4.7183986e-09
4.6840982e-09
4.6499292e-09
4.6158477e-09
4.5818249e-09
4.5478134e-09
4.5137767e-09
4.4796865e-09
4.4454901e-09
4.4111646e-09
4.376734e-09
4.342611e-09
4.3096971e-09
4.2783431e-09
4.2484729e-09
4.2200113e-09
4.1928824e-09
4.1670133e-09
4.1423471e-09
4.1188293e-09
4.0964074e-09
4.0750264e-09
4.0546389e-09
4.0351987e-09
4.0166567e-09
3.9989669e-09
3.9820829e-09
3.9659579e-09
3.9505576e-09
3.9358004e-09
3.9217785e-09
3.9078613e-09
3.8960739e-09
3.8769421e-09
1.9527038e-07
1.8555187e-07
1.8413731e-07
1.8389843e-07
1.8383283e-07
1.8379754e-07
1.8377853e-07
1.8376964e-07
1.8376718e-07
1.8376917e-07
1.8377459e-07
1.8378286e-07
1.8379364e-07
1.8380681e-07
1.8382234e-07
1.8384037e-07
1.8386126e-07
1.8388568e-07
1.8391483e-07
1.8395184e-07
1.8400294e-07
1.840496e-07
1.8457587e-07
1.8010709e-07
1.2498026e-09
1.6160967e-08
2.9933154e-08
3.39222e-08
3.3488364e-08
3.1856765e-08
3.0219014e-08
2.8729934e-08
2.7394913e-08
2.6213388e-08
2.516764e-08
2.4236397e-08
2.3401962e-08
2.2649801e-08
2.1966295e-08
2.1340535e-08
2.0765806e-08
2.0236127e-08
1.974614e-08
1.9291287e-08
1.8867684e-08
1.8471966e-08
1.8101266e-08
1.7753083e-08
1.7425233e-08
1.7115807e-08
1.6823145e-08
1.6545781e-08
1.6282423e-08
1.6031924e-08
1.5793263e-08
1.5565536e-08
1.5347923e-08
1.5139708e-08
1.4940229e-08
1.4748871e-08
1.4565093e-08
1.4388416e-08
1.4218386e-08
1.4054589e-08
1.389665e-08
1.3744213e-08
1.3596961e-08
1.3454593e-08
1.3316845e-08
1.3183455e-08
1.3054188e-08
1.292882e-08
1.2807145e-08
1.2688967e-08
1.2574101e-08
1.246238e-08
1.235364e-08
1.2247735e-08
1.2144515e-08
1.2043838e-08
1.1945575e-08
1.1849602e-08
1.1755758e-08
1.1663918e-08
1.1573964e-08
1.1485777e-08
1.139926e-08
1.1314349e-08
1.1230912e-08
1.114889e-08
1.1068193e-08
1.0988727e-08
1.0910439e-08
1.0833206e-08
1.075698e-08
1.0681657e-08
1.0607188e-08
1.0533483e-08
1.0460467e-08
1.0388075e-08
1.0316211e-08
1.0244824e-08
1.0173803e-08
1.0103095e-08
1.0032626e-08
9.9623061e-09
9.8920752e-09
9.8218353e-09
9.7515108e-09
9.6810413e-09
9.6103185e-09
9.539292e-09
9.4680101e-09
9.3973323e-09
9.3291232e-09
9.2641049e-09
9.20212e-09
9.1430146e-09
9.0866345e-09
9.0328316e-09
8.9814916e-09
8.9325045e-09
8.8857653e-09
8.8411637e-09
8.7986045e-09
8.7579949e-09
8.719236e-09
8.6822346e-09
8.6468965e-09
8.6131268e-09
8.580856e-09
8.5499151e-09
8.5205001e-09
8.4912904e-09
8.4665383e-09
8.4263217e-09
1.9518291e-07
1.8460339e-07
1.8307215e-07
1.8279061e-07
1.8270839e-07
1.8266545e-07
1.826422e-07
1.8263065e-07
1.8262639e-07
1.8262714e-07
1.826317e-07
1.8263938e-07
1.8264982e-07
1.8266282e-07
1.8267836e-07
1.8269657e-07
1.8271779e-07
1.8274275e-07
1.8277264e-07
1.8281072e-07
1.8286336e-07
1.8291047e-07
1.834532e-07
1.7969419e-07
1.9578145e-09
2.7643887e-08
5.1836754e-08
5.9223979e-08
5.893434e-08
5.6528305e-08
5.4033167e-08
5.1723327e-08
4.962022e-08
4.7735912e-08
4.6051198e-08
4.4537922e-08
4.3171741e-08
4.1932087e-08
4.0797866e-08
3.9753304e-08
3.8789177e-08
3.7896581e-08
3.706739e-08
3.6294628e-08
3.5572313e-08
3.4895223e-08
3.4258883e-08
3.3659362e-08
3.3093212e-08
3.2557407e-08
3.2049301e-08
3.1566547e-08
3.1107073e-08
3.0669027e-08
3.0250766e-08
2.9850821e-08
2.946786e-08
2.910072e-08
2.8748315e-08
2.8409641e-08
2.8083808e-08
2.7770027e-08
2.746755e-08
2.7175693e-08
2.6893837e-08
2.6621391e-08
2.6357828e-08
2.6102646e-08
2.5855404e-08
2.5615662e-08
2.5383029e-08
2.5157127e-08
2.4937611e-08
2.4724151e-08
2.4516431e-08
2.431417e-08
2.4117091e-08
2.3924944e-08
2.3737476e-08
2.3554441e-08
2.3375621e-08
2.3200802e-08
2.302966e-08
2.2861987e-08
2.2697588e-08
2.2536255e-08
2.2377828e-08
2.2222213e-08
2.206917e-08
2.1918607e-08
2.1770363e-08
2.1624276e-08
2.1480251e-08
2.133807e-08
2.119765e-08
2.1058805e-08
2.0921443e-08
2.0785405e-08
2.0650556e-08
2.0516773e-08
2.0383887e-08
2.0251803e-08
2.0120315e-08
1.9989329e-08
1.9858707e-08
1.9728281e-08
1.9597941e-08
1.9467503e-08
1.9336827e-08
1.9205795e-08
1.9074207e-08
1.8941963e-08
1.880915e-08
1.8677375e-08
1.855011e-08
1.8428694e-08
1.8312838e-08
1.820226e-08
1.8096679e-08
1.7995829e-08
1.7899504e-08
1.7807506e-08
1.771965e-08
1.7635736e-08
1.7555594e-08
1.747906e-08
1.7405953e-08
1.7336107e-08
1.7269349e-08
1.7205506e-08
1.7144455e-08
1.7085878e-08
1.7030154e-08
1.6974788e-08
1.6927842e-08
1.6851466e-08
1.9510238e-07
1.835121e-07
1.8184387e-07
1.8150822e-07
1.8140473e-07
1.8135216e-07
1.8132362e-07
1.8130874e-07
1.8130222e-07
1.8130139e-07
1.8130483e-07
1.8131176e-07
1.8132171e-07
1.8133446e-07
1.8134994e-07
1.8136829e-07
1.8138984e-07
1.8141535e-07
1.8144601e-07
1.8148521e-07
1.8153939e-07
1.8158712e-07
1.8213797e-07
1.7901109e-07
2.7909034e-09
4.1161029e-08
8.1451289e-08
9.4237851e-08
9.4632347e-08
9.1531155e-08
8.8156745e-08
8.4964114e-08
8.2005759e-08
7.9319603e-08
7.689218e-08
7.4692034e-08
7.2690304e-08
7.0861593e-08
6.9175631e-08
6.7613402e-08
6.6164205e-08
6.4816316e-08
6.3558796e-08
6.2382164e-08
6.1278227e-08
6.0239775e-08
5.9260592e-08
5.8335168e-08
5.7458656e-08
5.6626775e-08
5.5835767e-08
5.5082285e-08
5.4363358e-08
5.3676324e-08
5.3018818e-08
5.2388719e-08
5.1784096e-08
5.1203257e-08
5.0644625e-08
5.0106728e-08
4.9588261e-08
4.9088066e-08
4.8605044e-08
4.8138188e-08
4.7686585e-08
4.724936e-08
4.6825735e-08
4.6414958e-08
4.6016377e-08
4.562933e-08
4.5253235e-08
4.4887527e-08
4.4531686e-08
4.4185216e-08
4.3847643e-08
4.351854e-08
4.3197487e-08
4.2884106e-08
4.2578012e-08
4.2278829e-08
4.1986226e-08
4.1699868e-08
4.1419125e-08
4.1143715e-08
4.0873364e-08
4.0607755e-08
4.0346668e-08
4.0089973e-08
3.9837295e-08
3.9588496e-08
3.9343328e-08
3.910153e-08
3.8862956e-08
3.8627261e-08
3.8394309e-08
3.8163803e-08
3.7935593e-08
3.7709421e-08
3.7485066e-08
3.7262328e-08
3.7040931e-08
3.6820717e-08
3.6601348e-08
3.6382665e-08
3.6164438e-08
3.594639e-08
3.572833e-08
3.5509951e-08
3.5291015e-08
3.5071321e-08
3.4850526e-08
3.4628456e-08
3.4405249e-08
3.4183606e-08
3.3969359e-08
3.3764757e-08
3.3569313e-08
3.338257e-08
3.3204072e-08
3.3033382e-08
3.2870172e-08
3.2714126e-08
3.2564947e-08
3.2422316e-08
3.2285961e-08
3.2155618e-08
3.2030997e-08
3.1911825e-08
3.1797823e-08
3.1688709e-08
3.1584278e-08
3.1484005e-08
3.138854e-08
3.1293637e-08
3.1213104e-08
3.1081889e-08
1.9503603e-07
1.8227077e-07
1.8044348e-07
1.8003891e-07
1.7990817e-07
1.7984348e-07
1.7980831e-07
1.7978926e-07
1.7977991e-07
1.7977708e-07
1.797791e-07
1.7978504e-07
1.7979433e-07
1.7980669e-07
1.7982202e-07
1.7984044e-07
1.7986228e-07
1.7988832e-07
1.7991974e-07
1.7996007e-07
1.8001572e-07
1.8006435e-07
1.8061376e-07
1.7811536e-07
3.8083147e-09
5.5665598e-08
1.1482359e-07
1.3835712e-07
1.4086434e-07
1.3735826e-07
1.3323197e-07
1.2921555e-07
1.2541617e-07
1.2191549e-07
1.1871634e-07
1.1578998e-07
1.1310693e-07
1.1063946e-07
1.0834471e-07
1.0620586e-07
1.0421235e-07
1.0235016e-07
1.0060587e-07
9.8967737e-08
9.7425497e-08
9.5970059e-08
9.4593518e-08
9.3288811e-08
9.2049693e-08
9.0870616e-08
8.9746696e-08
8.8673562e-08
8.7647308e-08
8.6664431e-08
8.5721815e-08
8.4816662e-08
8.3946402e-08
8.3108787e-08
8.2301718e-08
8.1523228e-08
8.0771564e-08
8.0045168e-08
7.9342567e-08
7.8662404e-08
7.8003452e-08
7.7364526e-08
7.6744577e-08
7.6142578e-08
7.5557646e-08
7.4988876e-08
7.4435474e-08
7.3896666e-08
7.3371746e-08
7.2860032e-08
7.2360869e-08
7.1873672e-08
7.1397857e-08
7.0932904e-08
7.0478281e-08
7.0033465e-08
6.9597991e-08
6.9171392e-08
6.875236e-08
6.8340724e-08
6.7936164e-08
6.7538265e-08
6.7146771e-08
6.6761527e-08
6.6381989e-08
6.6007978e-08
6.5639132e-08
6.527508e-08
6.4915614e-08
6.4560226e-08
6.4208727e-08
6.3860676e-08
6.3515854e-08
6.3173877e-08
6.2834417e-08
6.2497177e-08
6.2161745e-08
6.1827883e-08
6.1495083e-08
6.1163104e-08
6.0831595e-08
6.0500136e-08
6.0168433e-08
5.9836015e-08
5.9502513e-08
5.9167612e-08
5.8830782e-08
5.8491741e-08
5.8150695e-08
5.7811746e-08
5.7483801e-08
5.7170292e-08
5.6870481e-08
5.6583693e-08
5.6309254e-08
5.6046517e-08
5.5795007e-08
5.5554268e-08
5.5323868e-08
5.5103345e-08
5.4892306e-08
5.4690366e-08
5.4497104e-08
5.431212e-08
5.4134997e-08
5.3965318e-08
5.3802786e-08
5.3646596e-08
5.3497777e-08
5.3349761e-08
5.322405e-08
5.3018883e-08
1.9499215e-07
1.8087439e-07
1.7886416e-07
1.7837154e-07
1.7820586e-07
1.7812585e-07
1.780824e-07
1.7805813e-07
1.780452e-07
1.7803984e-07
1.7804004e-07
1.7804468e-07
1.7805307e-07
1.7806487e-07
1.7807992e-07
1.780983e-07
1.7812035e-07
1.7814685e-07
1.7817898e-07
1.7822041e-07
1.7827734e-07
1.7832728e-07
1.7886456e-07
1.7698216e-07
5.0162145e-09
7.2190232e-08
1.5189876e-07
1.872448e-07
1.9365931e-07
1.9099455e-07
1.8695432e-07
1.8276502e-07
1.7864495e-07
1.7475804e-07
1.711488e-07
1.6780775e-07
1.647151e-07
1.6182244e-07
1.5889579e-07
1.5615456e-07
1.5358827e-07
1.5118139e-07
1.4891867e-07
1.4678653e-07
1.4477302e-07
1.4286741e-07
1.410603e-07
1.393432e-07
1.3770857e-07
1.3614966e-07
1.3466051e-07
1.3323578e-07
1.3187063e-07
1.3056074e-07
1.2930225e-07
1.280917e-07
1.2692589e-07
1.25802e-07
1.2471742e-07
1.2366968e-07
1.2265656e-07
1.2167611e-07
1.2072647e-07
1.1980593e-07
1.1891294e-07
1.18046e-07
1.1720378e-07
1.1638497e-07
1.1558845e-07
1.1481307e-07
1.1405779e-07
1.1332164e-07
1.1260372e-07
1.1190315e-07
1.1121909e-07
1.1055078e-07
1.0989747e-07
1.0925849e-07
1.0863315e-07
1.0802077e-07
1.0742075e-07
1.0683247e-07
1.0625291e-07
1.0568284e-07
1.05122e-07
1.0456991e-07
1.0402631e-07
1.0349101e-07
1.0296329e-07
1.0244291e-07
1.0192938e-07
1.0142221e-07
1.0092113e-07
1.0042543e-07
9.9934872e-08
9.9448853e-08
9.8967069e-08
9.8488992e-08
9.801417e-08
9.7542195e-08
9.7072491e-08
9.6604734e-08
9.613821e-08
9.5672583e-08
9.5207361e-08
9.4741947e-08
9.4275929e-08
9.3808635e-08
9.3339541e-08
9.286819e-08
9.239382e-08
9.1916016e-08
9.1435062e-08
9.0956675e-08
9.0493398e-08
9.0050082e-08
8.9625686e-08
8.9219288e-08
8.8829969e-08
8.8456843e-08
8.8099271e-08
8.7756647e-08
8.7428395e-08
8.711389e-08
8.6812609e-08
8.6524041e-08
8.6247619e-08
8.5982795e-08
8.5729003e-08
8.548567e-08
8.5252397e-08
8.5028056e-08
8.4814133e-08
8.4601286e-08
8.4420361e-08
8.4124557e-08
1.9497946e-07
1.7932125e-07
1.771023e-07
1.7649699e-07
1.7628638e-07
1.7618698e-07
1.7613313e-07
1.7610231e-07
1.7608488e-07
1.7607629e-07
1.7607416e-07
1.7607709e-07
1.7608428e-07
1.7609526e-07
1.7610983e-07
1.7612802e-07
1.7615015e-07
1.7617701e-07
1.7620973e-07
1.7625217e-07
1.7631008e-07
1.7636189e-07
1.7687542e-07
1.755831e-07
6.4186902e-09
9.0723951e-08
1.9361054e-07
2.4425936e-07
2.5594377e-07
2.542016e-07
2.5002929e-07
2.453781e-07
2.4062712e-07
2.3604312e-07
2.3172155e-07
2.2767586e-07
2.2389825e-07
2.2037095e-07
2.1704374e-07
2.1390301e-07
2.109453e-07
2.0815832e-07
2.0552789e-07
2.030408e-07
2.0068512e-07
1.9844988e-07
1.9632524e-07
1.9430221e-07
1.923727e-07
1.9052928e-07
1.8876551e-07
1.8707558e-07
1.8545406e-07
1.8389609e-07
1.8239748e-07
1.8095438e-07
1.795631e-07
1.7822053e-07
1.7692377e-07
1.7567e-07
1.7445664e-07
1.7328148e-07
1.7214245e-07
1.7103761e-07
1.6996515e-07
1.6892332e-07
1.6791064e-07
1.6692563e-07
1.6596699e-07
1.6503334e-07
1.6412349e-07
1.6323632e-07
1.623708e-07
1.6152592e-07
1.6070066e-07
1.5989415e-07
1.5910549e-07
1.5833394e-07
1.5757868e-07
1.5683888e-07
1.5610224e-07
1.5533385e-07
1.5457569e-07
1.5382954e-07
1.5309508e-07
1.5237176e-07
1.5165923e-07
1.5095723e-07
1.5026485e-07
1.4958178e-07
1.4890739e-07
1.4824105e-07
1.475824e-07
1.4693055e-07
1.4628518e-07
1.4564553e-07
1.4501118e-07
1.4438146e-07
1.4375577e-07
1.4313358e-07
1.4251414e-07
1.4189703e-07
1.4128129e-07
1.4066649e-07
1.4005198e-07
1.3943696e-07
1.3882089e-07
1.3820285e-07
1.3758217e-07
1.3695821e-07
1.3632993e-07
1.3569678e-07
1.3505913e-07
1.344244e-07
1.338092e-07
1.3321999e-07
1.3265538e-07
1.321142e-07
1.3159527e-07
1.3109744e-07
1.3061989e-07
1.3016188e-07
1.2972266e-07
1.2930146e-07
1.288976e-07
1.2851046e-07
1.281393e-07
1.2778343e-07
1.2744212e-07
1.2711462e-07
1.2680043e-07
1.2649808e-07
1.2620956e-07
1.2592244e-07
1.2567818e-07
1.2527812e-07
1.9500626e-07
1.7761444e-07
1.7515869e-07
1.7440905e-07
1.7414061e-07
1.7401655e-07
1.739496e-07
1.7391051e-07
1.7388738e-07
1.7387469e-07
1.7386954e-07
1.7387025e-07
1.7387582e-07
1.7388566e-07
1.7389947e-07
1.7391724e-07
1.7393925e-07
1.7396629e-07
1.7399941e-07
1.740427e-07
1.7410112e-07
1.7415562e-07
1.7463313e-07
1.738862e-07
8.021741e-09
1.1203227e-07
2.3893148e-07
3.0939135e-07
3.2909782e-07
3.293147e-07
3.2542049e-07
3.2050065e-07
3.1520019e-07
3.0993585e-07
3.0487987e-07
3.0008354e-07
2.9556061e-07
2.9130448e-07
2.8731063e-07
2.8353663e-07
2.7996672e-07
2.7658887e-07
2.7338913e-07
2.7035395e-07
2.6747085e-07
2.647281e-07
2.62115e-07
2.596216e-07
2.5723883e-07
2.5495825e-07
2.5277258e-07
2.5067515e-07
2.486597e-07
2.4672055e-07
2.4485288e-07
2.4305219e-07
2.4131415e-07
2.3963512e-07
2.380117e-07
2.3644053e-07
2.3491855e-07
2.3344314e-07
2.3201182e-07
2.3062231e-07
2.2927245e-07
2.2796011e-07
2.2668353e-07
2.2544095e-07
2.2423083e-07
2.2305146e-07
2.2190141e-07
2.2077933e-07