/*--------------------------------*- C++ -*----------------------------------*\
  =========                 |
  \\      /  F ield         | OpenFOAM: The Open Source CFD Toolbox
   \\    /   O peration     | Website:  https://openfoam.org
    \\  /    A nd           | Version:  12
     \\/     M anipulation  |
\*---------------------------------------------------------------------------*/
FoamFile
{
    format      ascii;
    class       volScalarField;
    location    "100";
    object      omega;
}
// * * * * * * * * * * * * * * * * * * * * * * * * * * * * * * * * * * * * * //

dimensions      [0 0 -1 0 0 0 0];

internalField   nonuniform List<scalar> 
7480
(
99.668428
99.668428
99.668428
99.668428
99.668428
99.668428
99.668428
99.668428
99.668428
99.668428
99.668428
99.668428
99.668428
425.63019
681.68012
848.61003
946.73804
996.95455
1022.7557
1021.8391
1016.3596
1006.1308
993.41561
979.81875
965.87757
951.86352
938.03938
924.78015
912.47808
900.9924
890.33653
880.57718
871.75878
863.87993
856.89449
850.72793
845.2826
840.46374
836.20811
832.46829
829.17729
826.25308
823.62262
821.21219
818.99101
816.86203
814.80629
812.79082
810.78296
808.76113
806.70178
804.57661
802.36698
800.07169
797.70321
795.27896
792.81584
790.33131
787.84112
785.35567
782.87998
780.41664
777.96911
775.54327
773.1449
770.77722
768.44339
766.1458
763.88227
761.64691
759.43538
757.24731
755.08394
752.94604
750.8355
748.7544
746.70092
744.67058
742.66086
740.67205
738.70486
736.76121
734.84271
732.94715
731.07091
729.2131
727.37382
725.55453
723.7566
721.97807
720.2161
718.46964
716.73965
715.0254
713.3289
711.63332
709.97239
708.21323
706.72282
703.98851
24.744484
24.798929
24.87544
24.95992
25.048772
25.141255
25.236466
25.33436
25.434079
25.542772
25.62965
25.857714
25.478836
27.992966
39.394937
67.936975
116.1713
179.61797
252.0512
316.48328
363.26296
394.50149
415.18275
429.45132
438.30217
441.07666
439.1218
434.0535
429.38486
428.14753
429.64902
432.40215
435.09069
436.83271
437.17069
435.97742
433.36315
429.61034
425.19116
420.34924
414.89048
408.86034
402.57966
396.25492
389.99781
383.90321
378.05112
372.49741
367.26569
362.34853
357.79814
353.60547
349.74877
346.20608
342.9538
339.9605
337.19239
334.61493
332.1805
329.86638
327.66443
325.56866
323.5685
321.6531
319.81498
318.04778
316.3457
314.69768
313.09317
311.52883
310.0059
308.52615
307.09019
305.69666
304.34387
303.02801
301.744
300.48869
299.26212
298.06556
296.89918
295.76227
294.65227
293.56622
292.5021
291.46007
290.4409
289.4444
288.46888
287.51233
286.57341
285.65212
284.74903
283.8629
282.99331
282.13585
281.30007
280.45613
279.71774
278.46783
24.64854
24.498938
24.348075
24.195248
24.04029
23.883182
23.723941
23.562598
23.399179
23.233763
23.066267
22.897202
22.725783
22.55263
22.415904
22.611179
23.588206
26.07902
30.856946
39.0818
51.357774
67.279264
86.140924
106.94706
129.37306
149.69196
167.07733
181.83539
194.87126
207.7502
222.33755
236.66471
248.58502
257.92294
264.85389
269.51456
271.91393
271.87625
269.49171
265.53587
261.55516
258.10421
254.86924
251.61461
248.2796
245.00634
241.62736
238.0728
234.41759
230.72321
227.06422
223.54301
220.21642
217.09967
214.17996
211.43515
208.85099
206.4197
204.15898
202.0585
200.09997
198.26387
196.53205
194.89222
193.33626
191.85627
190.44354
189.08447
187.77162
186.50579
185.28803
184.11671
182.98918
181.90286
180.85588
179.84293
178.85838
177.90097
176.97179
176.07155
175.19965
174.35538
173.53524
172.73581
171.95606
171.19661
170.45796
169.74021
169.04108
168.35822
167.69085
167.03923
166.40397
165.784
165.17808
164.58392
164.00647
163.42785
162.93807
162.07611
24.643011
24.484364
24.323136
24.159217
23.992614
23.823338
23.651405
23.476835
23.299651
23.119878
22.937547
22.752701
22.565392
22.375797
22.183766
21.991125
21.798479
21.614497
21.462315
21.391293
21.465367
21.752507
22.310628
23.233289
24.549592
26.726642
29.929306
34.269007
39.864411
46.865651
55.595806
66.32109
79.425557
93.545125
108.25686
123.40657
138.96117
154.91056
168.09016
177.53375
183.88044
187.88971
189.99184
190.4458
189.49039
187.36919
184.99054
182.65317
180.28791
177.77391
175.12034
172.49038
169.77789
167.03521
164.30148
161.60495
158.98777
156.47872
154.10437
151.87117
149.76774
147.78303
145.91214
144.15155
142.4913
140.9185
139.41891
137.99402
136.64504
135.36669
134.15122
132.99124
131.8818
130.81958
129.80119
128.82053
127.87415
126.96252
126.08579
125.24258
124.43084
123.64911
122.89295
122.15957
121.44889
120.76143
120.09692
119.45492
118.83232
118.22692
117.63844
117.06721
116.51352
115.97589
115.45273
114.94247
114.44915
113.95722
113.5504
112.82419
24.642589
24.483378
24.321612
24.157142
23.989938
23.819998
23.647329
23.471943
23.293854
23.113078
22.929633
22.743541
22.554825
22.363455
22.169616
21.972204
21.771695
21.568975
21.365863
21.161549
20.956783
20.752832
20.5496
20.349277
20.154865
19.972493
19.811301
19.685608
19.613106
19.616771
19.728942
19.999305
20.485936
21.492594
23.221355
25.89857
29.827241
35.464597
43.241397
53.94842
67.071516
81.475323
96.72116
112.83957
126.20311
135.63446
141.68023
145.10986
146.58943
146.64849
145.66758
144.11374
142.41266
140.58481
138.57936
136.424
134.27071
132.06391
129.82832
127.59369
125.39609
123.27514
121.25868
119.34517
117.51855
115.7693
114.09559
112.50629
111.00628
109.58927
108.24442
106.96527
105.74829
104.58921
103.48086
102.42346
101.41806
100.4609
99.547409
98.673406
97.835846
97.032225
96.258751
95.514265
94.798673
94.111132
93.450089
92.814207
92.199941
91.605863
91.031991
90.478187
89.944108
89.427647
88.927262
88.441776
87.975135
87.511101
87.133298
86.456277
24.642546
24.483276
24.321446
24.156911
23.989643
23.819642
23.646914
23.471473
23.293334
23.112514
22.929034
22.742919
22.5542
22.362911
22.169104
21.972812
21.774071
21.572903
21.369301
21.163101
20.953756
20.740904
20.525896
20.309244
20.091354
19.872814
19.654315
19.435085
19.215333
18.995721
18.777097
18.559117
18.342632
18.130369
17.927687
17.74292
17.594195
17.508027
17.537074
17.730897
18.330743
19.667195
22.079018
26.111638
32.378957
42.019076
54.714567
68.928529
84.2915
97.827776
107.73971
113.99907
117.44206
118.86428
118.95745
118.19065
117.00455
115.63837
114.12204
112.44958
110.68842
108.9121
107.11001
105.28616
103.4565
101.65796
99.923246
98.256309
96.649194
95.100272
93.614723
92.19837
90.849773
89.562907
88.330988
87.155976
86.041602
84.984483
83.978331
83.018542
82.10228
81.225262
80.38979
79.594379
78.835681
78.11037
77.415709
76.749368
76.10895
75.493905
74.9036
74.33684
73.79235
73.267687
72.761769
72.273552
71.806791
71.343694
70.969546
70.301899
24.642546
24.48327
24.321432
24.156889
23.989612
23.819602
23.646865
23.471414
23.293265
23.112434
22.928944
22.742819
22.554092
22.362805
22.169011
21.972764
21.774124
21.573146
21.36988
21.16437
20.956649
20.746727
20.53464
20.320435
20.104162
19.885865
19.665575
19.44325
19.218777
18.991915
18.762482
18.531759
18.300197
18.068174
17.836037
17.605067
17.37444
17.144172
16.915284
16.688977
16.465829
16.250362
16.053295
15.896354
15.83604
15.938499
16.482709
17.875731
20.645866
25.446474
33.51509
45.040398
58.264675
72.539462
84.045723
91.986243
96.648859
98.8562
99.499775
99.217541
98.404882
97.372279
96.16585
94.837115
93.418946
91.996674
90.544868
89.055245
87.531369
86.006435
84.516324
83.071903
81.668606
80.305653
78.990207
77.726381
76.514555
75.353956
74.24403
73.184449
72.173535
71.206566
70.285105
69.409941
68.577867
67.784541
67.026977
66.301811
65.611808
64.95455
64.327086
63.72693
63.151839
62.600015
62.071044
61.563346
61.080068
60.601635
60.216095
59.534571
24.642553
24.483275
24.321435
24.15689
23.98961
23.819596
23.646855
23.471401
23.293248
23.112416
22.928924
22.7428
22.554074
22.362789
22.168994
21.972744
21.774094
21.573102
21.369823
21.164314
20.956634
20.746844
20.535008
20.321185
20.105439
19.887831
19.668423
19.447277
19.224455
19.000017
18.774004
18.546488
18.317557
18.087304
17.855803
17.62314
17.389305
17.1542
16.917406
16.678714
16.439728
16.201151
15.964159
15.729428
15.496311
15.26638
15.041282
14.82636
14.63519
14.514168
14.536084
14.95994
16.236043
18.987561
23.875495
32.831519
44.054621
56.867749
68.294975
76.570411
81.6322
84.104701
84.869657
84.738489
84.134915
83.327665
82.360506
81.283301
80.128159
78.959417
77.753151
76.501963
75.215187
73.922823
72.653755
71.408484
70.182121
68.981545
67.81799
66.696425
65.6167
64.578047
63.58035
62.626108
61.714907
60.844865
60.014656
59.221025
58.465576
57.747486
57.063877
56.411733
55.788015
55.193821
54.628391
54.088227
53.575582
53.06925
52.661485
51.949532
24.642563
24.483286
24.321446
24.156901
23.98962
23.819605
23.646864
23.471408
23.293255
23.112422
22.928931
22.742807
22.554083
22.3628
22.169009
21.972763
21.774116
21.573125
21.369845
21.16433
20.956639
20.74683
20.534964
20.321108
20.10533
19.887701
19.668297
19.447193
19.22447
19.000212
18.774507
18.547438
18.319092
18.089553
17.858907
17.627238
17.394631
17.16117
16.92693
16.691959
16.456341
16.220163
15.983507
15.74639
15.508644
15.269337
15.029121
14.789659
14.553508
14.320278
14.090025
13.865954
13.652838
13.464464
13.363958
13.430746
14.098314
15.902557
19.46445
26.403371
36.285466
47.916716
58.570282
66.236669
70.840749
72.976502
73.569308
73.417294
72.907578
72.237386
71.419001
70.503432
69.531729
68.543558
67.521303
66.454069
65.353737
64.246689
63.147164
62.056811
60.980436
59.928597
58.905007
57.910994
56.949066
56.022947
55.134523
54.282417
53.464886
52.683904
51.939072
51.228503
50.549733
49.903399
49.289127
48.703697
48.149066
47.602981
47.163927
46.407526
24.642576
24.483301
24.321462
24.156917
23.989638
23.819623
23.646881
23.471426
23.293273
23.112441
22.928952
22.742831
22.554112
22.362834
22.169048
21.972806
21.774163
21.573173
21.369893
21.164377
20.956683
20.746869
20.534998
20.321133
20.105343
19.887699
19.668276
19.447149
19.2244
19.000109
18.774363
18.547251
18.318861
18.089287
17.858624
17.626967
17.394416
17.161071
16.927036
16.692418
16.457318
16.221836
15.986064
15.75009
15.514003
15.277854
15.041687
14.805556
14.569563
14.333595
14.097217
13.85911
13.621927
13.389262
13.160116
12.934989
12.718365
12.517069
12.370225
12.35072
12.798077
14.249439
17.314903
23.740431
32.931932
43.871355
53.166949
59.482574
62.967667
64.381255
64.617293
64.35031
63.854392
63.240877
62.508261
61.711346
60.885717
60.032714
59.135514
58.197094
57.239108
56.280569
55.321759
54.36345
53.415434
52.486751
51.581121
50.701185
49.848028
49.024646
48.23269
47.473128
46.746022
46.050003
45.385299
44.750925
44.149817
43.559529
43.081418
42.266603
24.642592
24.483318
24.321481
24.156938
23.989659
23.819645
23.646904
23.47145
23.293299
23.112469
22.928982
22.742866
22.554152
22.36288
22.1691
21.972864
21.774225
21.573239
21.36996
21.164445
20.95675
20.746935
20.535061
20.321193
20.1054
19.887753
19.668325
19.447194
19.224438
19.00014
18.774385
18.54726
18.318856
18.089263
17.858577
17.626894
17.394313
17.160934
16.92686
16.692196
16.457046
16.221518
15.985718
15.749755
15.513736
15.277775
15.041983
14.806461
14.571298
14.336573
14.102361
13.86866
13.635485
13.402954
13.1709
12.938487
12.705084
12.474336
12.24898
12.027224
11.814295
11.614028
11.460553
11.42561
11.87466
13.372535
16.618233
23.550986
32.740894
42.514586
50.009858
54.589333
56.687445
57.308642
57.217677
56.849006
56.355774
55.769199
55.109727
54.409863
53.689427
52.930073
52.128261
51.298194
50.457862
49.609732
48.755926
47.90699
47.069562
46.246361
45.441151
44.659094
43.903495
43.173788
42.471106
41.796428
41.15455
40.523778
40.00766
39.130151
24.642609
24.483338
24.321503
24.156961
23.989684
23.819671
23.646932
23.471479
23.293329
23.112502
22.929019
22.742907
22.554199
22.362934
22.169161
21.972931
21.774297
21.573314
21.370038
21.164523
20.956828
20.747011
20.535135
20.321265
20.105469
19.887818
19.668387
19.447251
19.224492
19.00019
18.774431
18.547303
18.318894
18.089298
17.858607
17.62692
17.394334
17.16095
16.926869
16.692194
16.457032
16.221487
15.985666
15.749677
15.513627
15.277626
15.041782
14.806205
14.571002
14.336282
14.102151
13.868725
13.636105
13.404367
13.173581
12.943796
12.714973
12.487167
12.260307
12.03422
11.806337
11.580816
11.361526
11.146006
10.940138
10.747949
10.611319
10.630391
11.310526
13.163544
17.584347
25.157398
34.708681
42.648848
47.841885
50.270768
51.147059
51.203754
50.930964
50.522615
50.036422
49.476437
48.87885
48.262852
47.610078
46.914182
46.186314
45.445373
44.693518
43.931506
43.16816
42.411206
41.665209
40.93307
40.218569
39.524199
38.857034
38.196943
37.653124
36.721832
24.642629
24.48336
24.321527
24.156987
23.989711
23.8197
23.646962
23.471512
23.293364
23.112539
22.92906
22.742953
22.554251
22.362994
22.169228
21.973005
21.774376
21.573397
21.370123
21.164609
20.956914
20.747096
20.535218
20.321346
20.105547
19.887893
19.668459
19.44732
19.224556
19.000251
18.774488
18.547356
18.318943
18.089343
17.85865
17.626959
17.39437
17.160983
16.9269
16.692223
16.457059
16.221511
15.985688
15.749696
15.513643
15.277637
15.041785
14.806195
14.570975
14.336232
14.102071
13.868599
13.63592
13.404139
13.173357
12.943677
12.715205
12.488026
12.26219
12.037774
11.814688
11.592956
11.372526
11.153352
10.932355
10.714482
10.502906
10.296195
10.099917
9.9270535
9.8282313
10.087242
11.276095
14.23437
20.622248
29.254949
37.137669
42.4897
45.038074
46.00279
46.120343
45.890119
45.532527
45.111813
44.625564
44.107653
43.569237
42.999109
42.388712
41.747022
41.089095
40.416192
39.731914
39.044565
38.359784
37.680659
37.01704
36.350431
35.796959
34.833032
24.64265
24.483383
24.321552
24.157015
23.989741
23.819732
23.646996
23.471547
23.293402
23.112581
22.929105
22.743004
22.554309
22.363059
22.169301
21.973084
21.774461
21.573486
21.370215
21.164702
20.957007
20.747188
20.535309
20.321434
20.105633
19.887976
19.668538
19.447395
19.224628
19.000319
18.774552
18.547416
18.319
18.089396
17.858699
17.627005
17.394413
17.161023
16.926936
16.692257
16.45709
16.221541
15.985716
15.749722
15.513667
15.27766
15.041807
14.806216
14.570995
14.33625
14.102086
13.868609
13.635922
13.404126
13.173323
12.943612
12.71509
12.487856
12.262002
12.037619
11.81481
11.593656
11.374191
11.15649
10.940425
10.726004
10.513203
10.301422
10.088577
9.8809026
9.6782765
9.4844072
9.3042889
9.1696088
9.2401675
10.078802
12.337622
17.959712
25.932111
33.429619
38.503886
40.832759
41.68215
41.770088
41.548692
41.221241
40.842735
40.413332
39.958297
39.484408
38.979574
38.435471
37.862719
37.272254
36.665333
36.046051
35.42701
34.789199
34.254137
33.294038
24.642673
24.483409
24.32158
24.157045
23.989773
23.819766
23.647032
23.471586
23.293444
23.112626
22.929155
22.743059
22.55437
22.363128
22.169377
21.973167
21.77455
21.57358
21.370312
21.164801
20.957105
20.747286
20.535405
20.321529
20.105725
19.888065
19.668623
19.447477
19.224707
19.000393
18.774623
18.547483
18.319063
18.089455
17.858755
17.627057
17.394462
17.161069
16.926979
16.692298
16.457128
16.221576
15.985749
15.749753
15.513696
15.277687
15.041832
14.80624
14.571017
14.336271
14.102106
13.868628
13.63594
13.404143
13.173339
12.943625
12.715099
12.487854
12.261983
12.037576
11.814722
11.593509
11.374022
11.156337
10.940551
10.726729
10.514896
10.305083
10.097166
9.8910558
9.6871174
9.4818376
9.2789405
9.0827537
8.8926039
8.7143577
8.5694639
8.5687039
9.2572646
11.281306
16.567502
24.210086
31.106987
35.50438
37.3848
37.996602
38.002602
37.772935
37.464769
37.11922
36.735291
36.33049
35.908193
35.451795
34.959534
34.442169
33.910555
33.341766
32.860361
31.954278
24.642698
24.483436
24.32161
24.157077
23.989807
23.819802
23.647071
23.471628
23.293488
23.112674
22.929208
22.743117
22.554436
22.363201
22.169458
21.973255
21.774644
21.573678
21.370413
21.164903
20.957209
20.747389
20.535507
20.321628
20.105822
19.888159
19.668714
19.447565
19.22479
19.000473
18.774699
18.547555
18.319131
18.08952
17.858815
17.627115
17.394516
17.161119
16.927027
16.692343
16.457171
16.221616
15.985787
15.749789
15.51373
15.277718
15.041862
14.806268
14.571044
14.336295
14.102129
13.86865
13.63596
13.404162
13.173357
12.943642
12.715115
12.487869
12.261997
12.037589
11.814732
11.59351
11.374006
11.156299
10.940468
10.726588
10.514732
10.304968
10.097383
9.8919984
9.688878
9.4878883
9.2889137
9.0921181
8.8961604
8.7000136
8.5110552
8.3269811
8.1548129
8.0097734
8.0084364
8.6855419
10.837878
16.17512
23.688205
29.762905
33.077479
34.421364
34.77401
34.696764
34.463254
34.174077
33.856021
33.507786
33.141204
32.755678
32.340669
31.874029
31.479853
30.680914
24.642725
24.483466
24.321642
24.157111
23.989844
23.819841
23.647113
23.471672
23.293536
23.112725
22.929264
22.743179
22.554504
22.363277
22.169542
21.973346
21.774741
21.57378
21.370518
21.16501
20.957316
20.747496
20.535613
20.321732
20.105923
19.888257
19.668809
19.447656
19.224878
19.000557
18.774779
18.547631
18.319204
18.089589
17.858881
17.627176
17.394574
17.161175
16.92708
16.692392
16.457217
16.221661
15.985828
15.749828
15.513767
15.277754
15.041895
14.8063
14.571074
14.336324
14.102156
13.868675
13.635984
13.404185
13.173378
12.943662
12.715133
12.487886
12.262013
12.037604
11.814746
11.593524
11.374019
11.156311
10.940476
10.726587
10.514714
10.304926
10.097288
9.891865
9.6887108
9.4879012
9.2894828
9.0934678
8.899836
8.7083887
8.5191926
8.331741
8.1431725
7.9619218
7.7852707
7.6219845
7.4818762
7.5450528
8.3345812
11.025541
16.791221
23.673268
28.666527
30.973007
31.82695
31.945184
31.791473
31.547074
31.27004
30.971469
30.657167
30.308592
30.020849
29.371304
24.642755
24.483497
24.321676
24.157147
23.989883
23.819883
23.647157
23.471719
23.293587
23.11278
22.929323
22.743245
22.554577
22.363357
22.169629
21.97344
21.774842
21.573885
21.370626
21.165121
20.957428
20.747607
20.535723
20.32184
20.106029
19.88836
19.668909
19.447753
19.224971
19.000646
18.774864
18.547712
18.319281
18.089662
17.85895
17.627242
17.394636
17.161234
16.927135
16.692445
16.457268
16.221708
15.985874
15.749871
15.513808
15.277793
15.041932
14.806335
14.571107
14.336356
14.102186
13.868704
13.636011
13.40421
13.173402
12.943685
12.715155
12.487906
12.262032
12.037621
11.814762
11.593539
11.374033
11.156324
10.940488
10.726599
10.514726
10.304936
10.097294
9.891859
9.6886896
9.487841
9.2893681
9.093319
8.8997435
8.7087026
8.5201838
8.3342149
8.1505268
7.9692342
7.7897707
7.6092694
7.435981
7.2677605
7.1165097
6.9861045
7.2105864
8.2400447
12.136964
18.446181
24.289532
27.686219
29.035614
29.418742
29.381573
29.193703
28.957347
28.683195
28.460511
27.968799
24.642786
24.483531
24.321712
24.157186
23.989924
23.819927
23.647204
23.471769
23.29364
23.112838
22.929386
22.743313
22.554652
22.36344
22.16972
21.973538
21.774945
21.573994
21.370738
21.165235
20.957543
20.747722
20.535836
20.321952
20.106139
19.888467
19.669013
19.447853
19.225067
19.000739
18.774953
18.547797
18.319361
18.089738
17.859023
17.627311
17.394702
17.161296
16.927195
16.692501
16.457321
16.221759
15.985922
15.749917
15.513852
15.277834
15.041972
14.806373
14.571143
14.33639
14.102219
13.868735
13.63604
13.404238
13.173429
12.94371
12.715178
12.487928
12.262053
12.037641
11.81478
11.593556
11.374049
11.156339
10.940502
10.726611
10.514738
10.304947
10.097304
9.8918693
9.6886995
9.4878487
9.2893679
9.0933045
8.8997031
8.7086081
8.5200595
8.3340913
8.1507636
7.9700519
7.7919927
7.6162311
7.4431218
7.2710608
7.0991573
6.9335802
6.7766701
6.6362686
6.5543838
7.0176831
8.8604536
13.759445
19.970095
24.476518
26.458115
27.144101
27.223134
27.073188
26.911835
26.517053
24.642819
24.483567
24.321751
24.157227
23.989968
23.819973
23.647253
23.471822
23.293697
23.112899
22.929452
22.743386
22.554731
22.363526
22.169814
21.973639
21.775052
21.574105
21.370853
21.165352
20.957661
20.74784
20.535954
20.322068
20.106252
19.888578
19.66912
19.447957
19.225167
19.000835
18.775045
18.547885
18.319445
18.089819
17.859099
17.627384
17.394771
17.161362
16.927257
16.692561
16.457377
16.221813
15.985973
15.749966
15.513899
15.277879
15.042014
14.806413
14.571182
14.336427
14.102254
13.868768
13.636072
13.404268
13.173457
12.943737
12.715204
12.487953
12.262076
12.037663
11.814801
11.593575
11.374066
11.156355
10.940517
10.726626
10.514751
10.30496
10.097316
9.8918798
9.6887092
9.4878581
9.2893769
9.0933132
8.8997109
8.7086104
8.5200499
8.334063
8.1506849
7.969945
7.7918699
7.6165052
7.4438308
7.2738518
7.1060874
6.9414551
6.7755929
6.6138551
6.4562071
6.3148933
6.1767642
6.3075099
7.1426773
10.665583
16.527785
21.530159
24.081029
25.01835
25.289046
25.081593
24.642855
24.483605
24.321791
24.157271
23.990014
23.820022
23.647306
23.471878
23.293756
23.112963
22.929522
22.743461
22.554813
22.363616
22.16991
21.973742
21.775161
21.57422
21.370971
21.165473
20.957782
20.747962
20.536075
20.322187
20.106369
19.888692
19.669232
19.448064
19.225271
19.000935
18.775141
18.547977
18.319533
18.089902
17.859179
17.62746
17.394843
17.16143
16.927322
16.692623
16.457437
16.221869
15.986027
15.750017
15.513947
15.277925
15.042059
14.806456
14.571222
14.336465
14.102291
13.868803
13.636106
13.4043
13.173488
12.943766
12.715231
12.487979
12.2621
12.037686
11.814822
11.593595
11.374086
11.156373
10.940534
10.726642
10.514766
10.304973
10.097328
9.8918914
9.68872
9.4878679
9.289386
9.0933217
8.8997188
8.7086183
8.5200574
8.3340703
8.1506876
7.9699378
7.7918445
7.6164346
7.4437242
7.2737447
7.106501
6.9420388
6.7801387
6.6205722
6.4639115
6.305093
6.1527956
6.00857
5.8742403
5.808834
6.2601099
8.3463141
13.269893
18.509276
21.872758
23.233067
24.642894
24.483646
24.321835
24.157317
23.990063
23.820074
23.647361
23.471936
23.293819
23.11303
22.929594
22.743539
22.554898
22.363708
22.17001
21.973849
21.775274
21.574337
21.371092
21.165596
20.957907
20.748087
20.536199
20.32231
20.10649
19.88881
19.669346
19.448176
19.225379
19.001038
18.77524
18.548072
18.319624
18.089989
17.859262
17.627539
17.394919
17.161502
16.927391
16.692688
16.457499
16.221928
15.986083
15.750071
15.513999
15.277974
15.042106
14.8065
14.571265
14.336506
14.10233
13.86884
13.636141
13.404334
13.17352
12.943796
12.71526
12.488006
12.262126
12.03771
11.814846
11.593617
11.374106
11.156393
10.940552
10.726659
10.514781
10.304988
10.097342
9.8919042
9.6887318
9.4878789
9.2893961
9.0933309
8.8997273
8.708626
8.5200645
8.3340769
8.1506942
7.969944
7.7918508
7.6164359
7.443718
7.273712
7.1064376
6.9418959
6.7801327
6.6210988
6.4649108
6.310976
6.1601136
6.009133
5.8612927
5.7175795
5.5885291
5.4699702
5.6749993
7.1925091
10.491287
17.363275
24.642934
24.483689
24.321881
24.157365
23.990114
23.820129
23.647419
23.471998
23.293885
23.113101
22.92967
22.743621
22.554987
22.363803
22.170112
21.973958
21.775389
21.574457
21.371216
21.165722
20.958034
20.748214
20.536326
20.322436
20.106613
19.888931
19.669464
19.44829
19.225489
19.001145
18.775343
18.54817
18.319718
18.090079
17.859348
17.627621
17.394997
17.161576
16.927462
16.692756
16.457563
16.22199
15.986142
15.750127
15.514052
15.278026
15.042155
14.806547
14.57131
14.336549
14.102371
13.868879
13.636178
13.40437
13.173553
12.943828
12.715291
12.488035
12.262154
12.037736
11.81487
11.59364
11.374128
11.156413
10.940572
10.726677
10.514798
10.305004
10.097357
9.891918
9.6887446
9.4878908
9.2894071
9.093341
8.8997366
8.7086345
8.5200723
8.334084
8.1507006
7.9699499
7.7918563
7.6164413
7.4437233
7.2737173
7.1064364
6.9418891
6.7800849
6.6210313
6.4647312
6.3112002
6.1604577
6.0123135
5.8666077
5.7236069
5.5790314
5.4399138
5.313105
5.1828087
5.1888065
8.4333706
24.642977
24.483735
24.321929
24.157417
23.990169
23.820186
23.64748
23.472063
23.293954
23.113175
22.929749
22.743706
22.555078
22.363902
22.170217
21.974069
21.775506
21.574579
21.371342
21.165851
20.958165
20.748345
20.536456
20.322565
20.10674
19.889055
19.669585
19.448408
19.225603
19.001255
18.775448
18.548272
18.319816
18.090172
17.859437
17.627706
17.395078
17.161654
16.927535
16.692826
16.45763
16.222054
15.986203
15.750185
15.514108
15.278079
15.042206
14.806596
14.571356
14.336593
14.102413
13.86892
13.636217
13.404407
13.173589
12.943862
12.715323
12.488065
12.262182
12.037764
11.814896
11.593665
11.374151
11.156435
10.940592
10.726696
10.514816
10.305021
10.097373
9.8919326
9.6887583
9.4879034
9.2894188
9.0933519
8.8997466
8.7086437
8.5200807
8.3340917
8.1507077
7.9699562
7.791862
7.6164465
7.4437279
7.2737218
7.1064406
6.9418939
6.7800881
6.6210283
6.4647139
6.3111514
6.16033
6.0122765
5.8669305
5.7244489
5.5839669
5.4475986
5.3056138
5.1887299
4.9870774
5.0383323
24.643023
24.483783
24.32198
24.157471
23.990226
23.820247
23.647544
23.472131
23.294026
23.113252
22.929832
22.743795
22.555173
22.364003
22.170325
21.974184
21.775627
21.574704
21.371471
21.165982
20.958298
20.748478
20.536589
20.322696
20.10687
19.889183
19.66971
19.448529
19.22572
19.001368
18.775557
18.548377
18.319916
18.090268
17.859529
17.627793
17.395162
17.161734
16.927612
16.692899
16.4577
16.22212
15.986267
15.750246
15.514166
15.278134
15.042259
14.806646
14.571405
14.33664
14.102457
13.868962
13.636258
13.404445
13.173625
12.943897
12.715356
12.488097
12.262212
12.037792
11.814923
11.59369
11.374175
11.156457
10.940613
10.726716
10.514835
10.305038
10.097389
9.891948
9.6887726
9.4879168
9.2894312
9.0933634
8.8997572
8.7086535
8.5200897
8.3341
8.1507152
7.9699631
7.7918683
7.6164521
7.443733
7.2737263
7.1064446
6.9418974
6.7800917
6.6210316
6.4647183
6.3111513
6.160326
6.0122394
5.8668833
5.7242585
5.5843423
5.4472018
5.3126551
5.1788247
5.0603166
4.860681
24.643072
24.483835
24.322034
24.157528
23.990286
23.82031
23.647611
23.472202
23.294102
23.113332
22.929917
22.743886
22.555271
22.364107
22.170436
21.974301
21.775749
21.574832
21.371602
21.166116
20.958433
20.748615
20.536725
20.322831
20.107003
19.889313
19.669837
19.448653
19.225841
19.001484
18.77567
18.548484
18.320019
18.090367
17.859623
17.627884
17.395248
17.161816
16.927691
16.692974
16.457772
16.222189
15.986332
15.750309
15.514226
15.278192
15.042313
14.806699
14.571455
14.336688
14.102503
13.869006
13.636299
13.404485
13.173663
12.943933
12.71539
12.48813
12.262244
12.037821
11.814951
11.593716
11.3742
11.156481
10.940635
10.726737
10.514855
10.305057
10.097406
9.8919641
9.6887876
9.4879307
9.2894442
9.0933754
8.8997684
8.7086639
8.5200992
8.3341087
8.1507232
7.9699704
7.7918749
7.6164581
7.4437384
7.2737311
7.1064489
6.9419012
6.780095
6.6210345
6.4647211
6.3111538
6.1603294
6.012241
5.8668843
5.7242329
5.584346
5.4469108
5.3132551
5.1774932
5.0653437
4.8649678
24.643123
24.483889
24.322091
24.157588
23.990349
23.820377
23.647681
23.472276
23.29418
23.113415
22.930006
22.743981
22.555371
22.364214
22.17055
21.974421
21.775875
21.574962
21.371736
21.166253
20.958571
20.748754
20.536864
20.322969
20.107139
19.889447
19.669968
19.44878
19.225964
19.001604
18.775785
18.548595
18.320126
18.09047
17.859721
17.627978
17.395338
17.161902
16.927772
16.693052
16.457846
16.22226
15.9864
15.750374
15.514288
15.278251
15.04237
14.806753
14.571507
14.336737
14.102551
13.869051
13.636343
13.404526
13.173703
12.943971
12.715426
12.488164
12.262276
12.037852
11.81498
11.593744
11.374226
11.156505
10.940658
10.726758
10.514875
10.305076
10.097424
9.8919807
9.6888032
9.4879453
9.2894577
9.093388
8.89978
8.7086746
8.5201092
8.3341179
8.1507316
7.9699781
7.7918819
7.6164644
7.4437441
7.2737363
7.1064535
6.9419053
6.7800986
6.6210376
6.4647237
6.311156
6.1603313
6.0122429
5.8668861
5.724236
5.584344
5.4469131
5.3131784
5.1775789
5.0647759
4.8646543
24.643178
24.483946
24.322151
24.15765
23.990415
23.820447
23.647755
23.472354
23.294262
23.113502
22.930098
22.744078
22.555475
22.364325
22.170666
21.974543
21.776002
21.575094
21.371872
21.166392
20.958712
20.748895
20.537005
20.323109
20.107278
19.889583
19.670101
19.44891
19.22609
19.001726
18.775903
18.548709
18.320235
18.090575
17.859822
17.628074
17.39543
17.16199
16.927856
16.693132
16.457923
16.222333
15.98647
15.750441
15.514352
15.278312
15.042429
14.806809
14.57156
14.336789
14.1026
13.869098
13.636387
13.404569
13.173744
12.944009
12.715463
12.488199
12.262309
12.037883
11.81501
11.593772
11.374252
11.15653
10.940682
10.72678
10.514896
10.305095
10.097442
9.891998
9.6888193
9.4879603
9.2894717
9.093401
8.8997921
8.7086858
8.5201195
8.3341273
8.1507403
7.969986
7.7918891
7.616471
7.4437501
7.2737416
7.1064583
6.9419096
6.7801024
6.6210408
6.4647266
6.3111585
6.1603333
6.0122446
5.8668873
5.7242376
5.5843437
5.4469193
5.3131676
5.177602
5.0647224
4.8644974
24.643235
24.484006
24.322214
24.157716
23.990485
23.820519
23.647831
23.472435
23.294348
23.113592
22.930193
22.744179
22.555582
22.364438
22.170785
21.974668
21.776132
21.575229
21.37201
21.166533
20.958855
20.749039
20.537149
20.323252
20.107419
19.889722
19.670237
19.449043
19.22622
19.001851
18.776024
18.548826
18.320348
18.090682
17.859925
17.628173
17.395524
17.16208
16.927943
16.693215
16.458002
16.222409
15.986542
15.75051
15.514418
15.278375
15.042489
14.806867
14.571616
14.336841
14.10265
13.869147
13.636434
13.404613
13.173785
12.944049
12.715501
12.488235
12.262343
12.037916
11.81504
11.593801
11.37428
11.156556
10.940706
10.726803
10.514917
10.305115
10.097461
9.8920157
9.6888358
9.4879757
9.2894861
9.0934143
8.8998045
8.7086972
8.52013
8.3341371
8.1507492
7.9699942
7.7918966
7.6164778
7.4437562
7.2737472
7.1064632
6.941914
6.7801063
6.6210443
6.4647295
6.311161
6.1603354
6.0122463
5.8668886
5.7242386
5.5843444
5.4469199
5.313168
5.1776019
5.064725
4.8644951
24.643295
24.484069
24.32228
24.157786
23.990557
23.820596
23.647911
23.472519
23.294436
23.113686
22.930292
22.744284
22.555692
22.364553
22.170907
21.974795
21.776265
21.575366
21.372151
21.166676
20.959001
20.749185
20.537295
20.323398
20.107563
19.889864
19.670376
19.449179
19.226352
19.00198
18.776148
18.548945
18.320463
18.090793
17.860031
17.628275
17.395622
17.162174
16.928032
16.6933
16.458083
16.222487
15.986617
15.750581
15.514486
15.27844
15.042551
14.806926
14.571672
14.336896
14.102702
13.869196
13.636481
13.404658
13.173829
12.94409
12.71554
12.488272
12.262378
12.037949
11.815072
11.593831
11.374308
11.156583
10.940732
10.726827
10.51494
10.305136
10.097481