/*--------------------------------*- C++ -*----------------------------------*\
  =========                 |
  \\      /  F ield         | OpenFOAM: The Open Source CFD Toolbox
   \\    /   O peration     | Website:  https://openfoam.org
    \\  /    A nd           | Version:  12
     \\/     M anipulation  |
\*---------------------------------------------------------------------------*/
FoamFile
{
    format      ascii;
    class       volScalarField;
    location    "100";
    object      p;
}
// * * * * * * * * * * * * * * * * * * * * * * * * * * * * * * * * * * * * * //

dimensions      [0 2 -2 0 0 0 0];

internalField   nonuniform List<scalar> 
13056
(
0.0026975672
0.0027149267
0.0027533545
0.0028032282
0.0028624682
0.0029308221
0.0030079343
0.003093405
0.0031870524
0.0032889961
0.0033996514
0.0035197401
0.0036503558
0.0037931027
0.0039503127
0.0041254442
0.0043236162
0.0045531284
0.004826516
0.0051700504
0.0056187626
0.0063148785
0.0072966075
0.010728929
0.0076874042
0.0027199926
0.0027009949
0.0031847713
0.0031990275
0.0029520867
0.0027289473
0.0026124525
0.0025232059
0.0024302337
0.0023407154
0.0022611379
0.0021916344
0.0021295889
0.002072673
0.002020217
0.0019718068
0.0019271312
0.0018858897
0.001847969
0.0018120261
0.0017786448
0.0017467936
0.0017163803
0.0016881689
0.0016610903
0.0016349334
0.0016105177
0.0015872363
0.0015642644
0.0015424172
0.0015220014
0.0015019548
0.0014819782
0.0014629409
0.0014450659
0.0014274749
0.0014097935
0.0013925187
0.0013762269
0.0013605013
0.0013446728
0.0013287566
0.0013133272
0.001298646
0.0012841724
0.0012695091
0.0012547235
0.0012402628
0.0012263687
0.001212616
0.0011986465
0.0011844699
0.0011703886
0.0011567114
0.0011432198
0.0011295277
0.001115553
0.0011014375
0.0010875193
0.0010738018
0.0010599209
0.0010457055
0.0010311755
0.0010166005
0.0010021466
0.00098755244
0.00097258061
0.00095718882
0.00094153048
0.00092581824
0.00090991675
0.00089355824
0.00087665581
0.00085931111
0.0008417238
0.00082377889
0.00080520249
0.00078589967
0.0007659833
0.00074556905
0.00072445622
0.00070240657
0.00067936795
0.0006554505
0.00063054149
0.00060427418
0.00057645775
0.00054677539
0.00051599185
0.00048593
0.00045712832
0.00042929074
0.00040218561
0.00037560174
0.00034946943
0.00032381532
0.00029872763
0.00027416861
0.00025005853
0.00022640488
0.0002032531
0.00018073098
0.00015896312
0.00013800937
0.00011794205
9.9227591e-05
8.1669066e-05
6.9044079e-05
5.2854802e-05
9.6289359e-05
-7.4117362e-05
0.0026975672
0.0027149267
0.0027533545
0.0028032282
0.0028624682
0.0029308221
0.0030079343
0.003093405
0.0031870524
0.0032889961
0.0033996514
0.0035197401
0.0036503558
0.0037931028
0.0039503127
0.0041254443
0.0043236163
0.0045531285
0.0048265161
0.0051700506
0.0056187629
0.0063148794
0.007296609
0.010726514
0.007688196
0.0027205833
0.0027010215
0.0031847892
0.0031990597
0.0029521207
0.0027289782
0.0026124793
0.002523229
0.0024302537
0.0023407329
0.0022611533
0.0021916481
0.0021296012
0.0020726841
0.002020227
0.0019718159
0.0019271395
0.0018858973
0.001847976
0.0018120326
0.0017786508
0.0017467992
0.0017163855
0.0016881737
0.0016610949
0.0016349377
0.0016105217
0.00158724
0.0015642679
0.0015424205
0.0015220045
0.0015019577
0.0014819809
0.0014629435
0.0014450684
0.0014274772
0.0014097957
0.0013925208
0.0013762288
0.0013605032
0.0013446746
0.0013287583
0.0013133288
0.0012986475
0.0012841738
0.0012695105
0.0012547248
0.0012402641
0.0012263699
0.0012126171
0.0011986475
0.0011844709
0.0011703895
0.0011567123
0.0011432206
0.0011295285
0.0011155538
0.0011014383
0.0010875201
0.0010738025
0.0010599216
0.0010457061
0.0010311761
0.0010166011
0.0010021471
0.00098755295
0.0009725811
0.00095718929
0.00094153092
0.00092581866
0.00090991715
0.00089355862
0.00087665618
0.00085931146
0.00084172414
0.00082377921
0.00080520279
0.00078589996
0.00076598357
0.00074556931
0.00072445646
0.00070240681
0.00067936817
0.00065545071
0.00063054169
0.00060427437
0.00057645793
0.00054677556
0.00051599201
0.00048593015
0.00045712847
0.00042929088
0.00040218575
0.00037560186
0.00034946955
0.00032381543
0.00029872774
0.00027416871
0.00025005863
0.00022640497
0.00020325319
0.00018073106
0.0001589632
0.00013800944
0.00011794212
9.922766e-05
8.1669132e-05
6.9044142e-05
5.2854863e-05
9.6289428e-05
-7.4117317e-05
0.0026975672
0.0027149267
0.0027533545
0.0028032282
0.0028624682
0.0029308221
0.0030079343
0.003093405
0.0031870524
0.0032889961
0.0033996515
0.0035197402
0.0036503558
0.0037931028
0.0039503128
0.0041254443
0.0043236164
0.0045531286
0.0048265163
0.0051700509
0.0056187632
0.0063148802
0.0072966101
0.010724081
0.0076890986
0.0027212706
0.0027010543
0.0031848116
0.0031990987
0.0029521616
0.0027290151
0.0026125113
0.0025232565
0.0024302775
0.0023407536
0.0022611716
0.0021916643
0.0021296157
0.0020726971
0.0020202388
0.0019718267
0.0019271493
0.0018859064
0.0018479843
0.0018120403
0.0017786579
0.0017468058
0.0017163916
0.0016881794
0.0016611002
0.0016349426
0.0016105263
0.0015872444
0.001564272
0.0015424244
0.0015220082
0.0015019612
0.0014819842
0.0014629465
0.0014450712
0.0014274799
0.0014097983
0.0013925232
0.0013762311
0.0013605054
0.0013446766
0.0013287603
0.0013133307
0.0012986493
0.0012841755
0.0012695121
0.0012547263
0.0012402655
0.0012263713
0.0012126184
0.0011986488
0.001184472
0.0011703907
0.0011567133
0.0011432217
0.0011295295
0.0011155547
0.0011014392
0.0010875209
0.0010738032
0.0010599223
0.0010457069
0.0010311768
0.0010166017
0.0010021477
0.00098755355
0.00097258167
0.00095718983
0.00094153144
0.00092581915
0.00090991762
0.00089355907
0.0008766566
0.00085931187
0.00084172452
0.00082377958
0.00080520314
0.00078590029
0.00076598389
0.00074556961
0.00072445675
0.00070240708
0.00067936843
0.00065545096
0.00063054193
0.00060427459
0.00057645814
0.00054677575
0.0005159922
0.00048593033
0.00045712864
0.00042929104
0.0004021859
0.00037560201
0.00034946968
0.00032381556
0.00029872786
0.00027416883
0.00025005874
0.00022640508
0.00020325329
0.00018073116
0.00015896329
0.00013800953
0.0001179422
9.9227738e-05
8.1669206e-05
6.9044215e-05
5.2854933e-05
9.6289507e-05
-7.4117266e-05
0.0026975672
0.0027149267
0.0027533545
0.0028032282
0.0028624682
0.0029308221
0.0030079343
0.003093405
0.0031870524
0.0032889961
0.0033996515
0.0035197402
0.0036503559
0.0037931029
0.0039503128
0.0041254444
0.0043236164
0.0045531287
0.0048265165
0.0051700511
0.0056187635
0.0063148808
0.0072966112
0.010721704
0.0076900233
0.002721895
0.0027010842
0.0031848328
0.0031991365
0.0029522015
0.0027290512
0.0026125426
0.0025232835
0.0024303008
0.002340774
0.0022611896
0.0021916803
0.00212963
0.00207271
0.0020202505
0.0019718373
0.0019271591
0.0018859153
0.0018479925
0.0018120479
0.001778665
0.0017468123
0.0017163977
0.0016881851
0.0016611055
0.0016349476
0.001610531
0.0015872487
0.0015642761
0.0015424282
0.0015220118
0.0015019646
0.0014819874
0.0014629496
0.0014450741
0.0014274827
0.0014098008
0.0013925256
0.0013762334
0.0013605075
0.0013446787
0.0013287623
0.0013133326
0.001298651
0.0012841772
0.0012695137
0.0012547278
0.0012402669
0.0012263726
0.0012126197
0.00119865
0.0011844732
0.0011703918
0.0011567144
0.0011432227
0.0011295304
0.0011155557
0.0011014401
0.0010875217
0.001073804
0.0010599231
0.0010457076
0.0010311775
0.0010166024
0.0010021484
0.00098755414
0.00097258224
0.00095719037
0.00094153196
0.00092581965
0.00090991809
0.00089355952
0.00087665703
0.00085931227
0.00084172491
0.00082377995
0.00080520349
0.00078590063
0.00076598421
0.00074556991
0.00072445704
0.00070240735
0.00067936869
0.0006554512
0.00063054216
0.00060427481
0.00057645835
0.00054677595
0.00051599238
0.00048593051
0.00045712881
0.0004292912
0.00040218605
0.00037560215
0.00034946982
0.00032381569
0.00029872799
0.00027416895
0.00025005885
0.00022640519
0.00020325339
0.00018073126
0.00015896339
0.00013800962
0.00011794229
9.9227818e-05
8.1669283e-05
6.9044289e-05
5.2855002e-05
9.6289588e-05
-7.4117215e-05
0.0026975672
0.0027149267
0.0027533545
0.0028032282
0.0028624683
0.0029308221
0.0030079343
0.003093405
0.0031870525
0.0032889961
0.0033996515
0.0035197402
0.0036503559
0.0037931029
0.0039503129
0.0041254444
0.0043236165
0.0045531288
0.0048265166
0.0051700513
0.0056187638
0.0063148811
0.0072966125
0.010719144
0.0076909527
0.0027224515
0.0027011147
0.0031848547
0.0031991752
0.0029522424
0.0027290882
0.0026125748
0.0025233112
0.0024303249
0.002340795
0.0022612081
0.0021916968
0.0021296447
0.0020727233
0.0020202625
0.0019718483
0.0019271691
0.0018859245
0.001848001
0.0018120557
0.0017786722
0.001746819
0.001716404
0.0016881909
0.0016611109
0.0016349527
0.0016105357
0.0015872532
0.0015642803
0.0015424322
0.0015220155
0.0015019681
0.0014819907
0.0014629527
0.0014450771
0.0014274855
0.0014098035
0.0013925281
0.0013762358
0.0013605098
0.0013446809
0.0013287643
0.0013133345
0.0012986529
0.0012841789
0.0012695153
0.0012547294
0.0012402684
0.001226374
0.0012126211
0.0011986513
0.0011844745
0.0011703929
0.0011567155
0.0011432237
0.0011295314
0.0011155566
0.001101441
0.0010875226
0.0010738049
0.0010599239
0.0010457083
0.0010311782
0.0010166031
0.001002149
0.00098755476
0.00097258283
0.00095719093
0.00094153249
0.00092582016
0.00090991858
0.00089355998
0.00087665747
0.00085931269
0.00084172531
0.00082378033
0.00080520386
0.00078590097
0.00076598453
0.00074557023
0.00072445734
0.00070240764
0.00067936896
0.00065545146
0.0006305424
0.00060427503
0.00057645856
0.00054677615
0.00051599258
0.00048593069
0.00045712898
0.00042929137
0.00040218621
0.0003756023
0.00034946997
0.00032381583
0.00029872812
0.00027416907
0.00025005897
0.0002264053
0.0002032535
0.00018073136
0.00015896348
0.00013800971
0.00011794238
9.9227902e-05
8.1669362e-05
6.9044366e-05
5.2855072e-05
9.6289672e-05
-7.4117163e-05
0.0026975672
0.0027149267
0.0027533545
0.0028032282
0.0028624683
0.0029308221
0.0030079343
0.003093405
0.0031870525
0.0032889961
0.0033996515
0.0035197402
0.0036503559
0.0037931029
0.0039503129
0.0041254445
0.0043236166
0.0045531289
0.0048265167
0.0051700514
0.005618764
0.0063148813
0.0072966141
0.010716309
0.007691722
0.0027229488
0.0027011492
0.0031848792
0.003199217
0.0029522865
0.002729128
0.0026126093
0.002523341
0.0024303506
0.0023408176
0.002261228
0.0021917144
0.0021296605
0.0020727375
0.0020202754
0.00197186
0.0019271798
0.0018859343
0.0018480101
0.0018120641
0.00177868
0.0017468262
0.0017164107
0.0016881972
0.0016611168
0.0016349582
0.0016105409
0.001587258
0.0015642848
0.0015424365
0.0015220195
0.0015019719
0.0014819943
0.0014629561
0.0014450803
0.0014274885
0.0014098063
0.0013925308
0.0013762384
0.0013605122
0.0013446831
0.0013287665
0.0013133365
0.0012986548
0.0012841807
0.0012695171
0.0012547311
0.00124027
0.0012263756
0.0012126225
0.0011986526
0.0011844758
0.0011703942
0.0011567167
0.0011432249
0.0011295325
0.0011155576
0.0011014419
0.0010875235
0.0010738058
0.0010599247
0.0010457091
0.001031179
0.0010166038
0.0010021497
0.00098755542
0.00097258345
0.00095719153
0.00094153306
0.0009258207
0.0009099191
0.00089356047
0.00087665794
0.00085931314
0.00084172574
0.00082378074
0.00080520424
0.00078590134
0.00076598488
0.00074557056
0.00072445765
0.00070240794
0.00067936924
0.00065545173
0.00063054266
0.00060427528
0.00057645879
0.00054677637
0.00051599278
0.00048593089
0.00045712917
0.00042929154
0.00040218638
0.00037560246
0.00034947012
0.00032381597
0.00029872825
0.00027416921
0.0002500591
0.00022640542
0.00020325361
0.00018073147
0.00015896358
0.00013800981
0.00011794247
9.922799e-05
8.1669447e-05
6.9044448e-05
5.2855148e-05
9.6289762e-05
-7.4117108e-05
0.0026975672
0.0027149267
0.0027533545
0.0028032282
0.0028624683
0.0029308221
0.0030079343
0.003093405
0.0031870525
0.0032889961
0.0033996515
0.0035197403
0.003650356
0.003793103
0.003950313
0.0041254446
0.0043236167
0.004553129
0.0048265168
0.0051700516
0.0056187641
0.0063148812
0.0072966161
0.010713167
0.007692314
0.0027234735
0.0027011934
0.0031849087
0.0031992642
0.0029523361
0.0027291725
0.0026126479
0.0025233742
0.0024303793
0.0023408426
0.00226125
0.0021917339
0.002129678
0.0020727533
0.0020202897
0.001971873
0.0019271916
0.0018859452
0.0018480201
0.0018120733
0.0017786885
0.0017468342
0.001716418
0.001688204
0.0016611232
0.0016349641
0.0016105465
0.0015872633
0.0015642897
0.0015424411
0.0015220239
0.001501976
0.0014819982
0.0014629598
0.0014450837
0.0014274917
0.0014098094
0.0013925338
0.0013762412
0.0013605148
0.0013446856
0.0013287688
0.0013133388
0.001298657
0.0012841828
0.001269519
0.0012547329
0.0012402718
0.0012263772
0.0012126241
0.0011986541
0.0011844772
0.0011703955
0.001156718
0.0011432261
0.0011295337
0.0011155588
0.001101443
0.0010875245
0.0010738067
0.0010599256
0.00104571
0.0010311798
0.0010166046
0.0010021504
0.00098755614
0.00097258414
0.00095719218
0.00094153369
0.00092582129
0.00090991966
0.00089356101
0.00087665846
0.00085931363
0.0008417262
0.00082378118
0.00080520467
0.00078590174
0.00076598527
0.00074557092
0.000724458
0.00070240827
0.00067936955
0.00065545202
0.00063054294
0.00060427554
0.00057645904
0.00054677661
0.00051599301
0.0004859311
0.00045712937
0.00042929174
0.00040218656
0.00037560264
0.00034947029
0.00032381613
0.0002987284
0.00027416935
0.00025005923
0.00022640555
0.00020325373
0.00018073158
0.0001589637
0.00013800991
0.00011794257
9.9228087e-05
8.1669539e-05
6.9044537e-05
5.285523e-05
9.628986e-05
-7.4117047e-05
0.0026975672
0.0027149267
0.0027533545
0.0028032282
0.0028624683
0.0029308221
0.0030079343
0.003093405
0.0031870525
0.0032889962
0.0033996516
0.0035197403
0.003650356
0.003793103
0.003950313
0.0041254446
0.0043236168
0.0045531291
0.0048265169
0.0051700517
0.0056187642
0.006314881
0.0072966184
0.010709681
0.0076927372
0.0027241509
0.0027012605
0.0031849482
0.0031993208
0.0029523947
0.0027292249
0.0026126931
0.0025234129
0.0024304127
0.0023408716
0.0022612755
0.0021917565
0.0021296981
0.0020727714
0.002020306
0.0019718879
0.0019272052
0.0018859576
0.0018480315
0.0018120838
0.0017786982
0.0017468432
0.0017164264
0.0016882118
0.0016611305
0.0016349709
0.0016105528
0.0015872692
0.0015642954
0.0015424464
0.0015220289
0.0015019807
0.0014820026
0.0014629639
0.0014450876
0.0014274954
0.0014098129
0.0013925371
0.0013762443
0.0013605178
0.0013446885
0.0013287715
0.0013133413
0.0012986594
0.0012841851
0.0012695212
0.001254735
0.0012402737
0.0012263791
0.0012126259
0.0011986558
0.0011844788
0.0011703971
0.0011567194
0.0011432275
0.001129535
0.00111556
0.0011014442
0.0010875257
0.0010738078
0.0010599266
0.001045711
0.0010311807
0.0010166055
0.0010021513
0.00098755695
0.00097258491
0.00095719292
0.00094153438
0.00092582196
0.0009099203
0.00089356162
0.00087665903
0.00085931418
0.00084172673
0.00082378168
0.00080520514
0.00078590219
0.00076598569
0.00074557133
0.00072445838
0.00070240863
0.0006793699
0.00065545235
0.00063054325
0.00060427584
0.00057645932
0.00054677687
0.00051599326
0.00048593134
0.0004571296
0.00042929195
0.00040218677
0.00037560283
0.00034947047
0.00032381631
0.00029872857
0.00027416951
0.00025005938
0.00022640569
0.00020325387
0.00018073171
0.00015896382
0.00013801003
0.00011794268
9.9228195e-05
8.1669642e-05
6.9044637e-05
5.2855322e-05
9.6289969e-05
-7.4116979e-05
0.0026975672
0.0027149267
0.0027533545
0.0028032282
0.0028624683
0.0029308222
0.0030079343
0.003093405
0.0031870525
0.0032889962
0.0033996516
0.0035197403
0.003650356
0.0037931031
0.0039503131
0.0041254447
0.0043236168
0.0045531292
0.004826517
0.0051700518
0.0056187642
0.0063148804
0.0072966212
0.010705798
0.0076928401
0.0027250968
0.0027013792
0.0031850079
0.0031993938
0.0029524687
0.0027292904
0.0026127492
0.0025234608
0.0024304538
0.0023409072
0.0022613066
0.002191784
0.0021297226
0.0020727933
0.0020203258
0.0019719058
0.0019272215
0.0018859725
0.0018480451
0.0018120964
0.0017787099
0.0017468539
0.0017164364
0.0016882211
0.0016611391
0.001634979
0.0016105604
0.0015872763
0.001564302
0.0015424526
0.0015220347
0.0015019862
0.0014820078
0.0014629688
0.0014450923
0.0014274998
0.0014098171
0.001392541
0.001376248
0.0013605213
0.0013446918
0.0013287746
0.0013133443
0.0012986622
0.0012841877
0.0012695237
0.0012547374
0.001240276
0.0012263813
0.0012126279
0.0011986578
0.0011844806
0.0011703988
0.0011567211
0.0011432291
0.0011295365
0.0011155615
0.0011014456
0.001087527
0.001073809
0.0010599278
0.0010457121
0.0010311818
0.0010166065
0.0010021523
0.00098755788
0.0009725858
0.00095719377
0.00094153519
0.00092582273
0.00090992103
0.00089356232
0.0008766597
0.00085931481
0.00084172733
0.00082378225
0.00080520568
0.00078590271
0.00076598619
0.0007455718
0.00072445883
0.00070240905
0.0006793703
0.00065545273
0.00063054361
0.00060427618
0.00057645964
0.00054677717
0.00051599355
0.00048593162
0.00045712986
0.0004292922
0.000402187
0.00037560306
0.00034947068
0.00032381651
0.00029872877
0.00027416969
0.00025005956
0.00022640586
0.00020325403
0.00018073186
0.00015896396
0.00013801017
0.00011794281
9.9228319e-05
8.166976e-05
6.9044752e-05
5.2855428e-05
9.6290095e-05
-7.4116901e-05
0.0026975672
0.0027149268
0.0027533545
0.0028032282
0.0028624683
0.0029308222
0.0030079344
0.0030934051
0.0031870525
0.0032889962
0.0033996516
0.0035197403
0.0036503561
0.0037931031
0.0039503131
0.0041254448
0.0043236169
0.0045531293
0.0048265171
0.0051700518
0.0056187642
0.0063148795
0.0072966245
0.010701446
0.0076922778
0.0027264336
0.0027016014
0.0031851052
0.0031994938
0.0029525671
0.0027293769
0.0026128229
0.0025235233
0.0024305071
0.0023409532
0.0022613468
0.0021918193
0.0021297539
0.0020728213
0.002020351
0.0019719286
0.0019272422
0.0018859914
0.0018480624
0.0018121123
0.0017787245
0.0017468675
0.0017164489
0.0016882328
0.0016611499
0.0016349891
0.0016105698
0.0015872851
0.0015643102
0.0015424604
0.001522042
0.001501993
0.0014820142
0.0014629749
0.001445098
0.0014275052
0.0014098222
0.0013925458
0.0013762525
0.0013605256
0.0013446959
0.0013287785
0.001313348
0.0012986657
0.001284191
0.0012695269
0.0012547403
0.0012402788
0.0012263839
0.0012126305
0.0011986602
0.0011844829
0.001170401
0.0011567232
0.001143231
0.0011295384
0.0011155632
0.0011014472
0.0010875286
0.0010738106
0.0010599293
0.0010457135
0.0010311832
0.0010166078
0.0010021535
0.00098755902
0.00097258689
0.0009571948
0.00094153618
0.00092582367
0.00090992192
0.00089356316
0.0008766605
0.00085931558
0.00084172806
0.00082378294
0.00080520634
0.00078590334
0.00076598678
0.00074557237
0.00072445937
0.00070240956
0.00067937079
0.00065545319
0.00063054404
0.00060427658
0.00057646002
0.00054677754
0.00051599389
0.00048593195
0.00045713018
0.0004292925
0.00040218729
0.00037560333
0.00034947094
0.00032381676
0.000298729
0.00027416991
0.00025005977
0.00022640606
0.00020325422
0.00018073204
0.00015896414
0.00013801033
0.00011794297
9.9228468e-05
8.1669902e-05
6.904489e-05
5.2855554e-05
9.6290246e-05
-7.4116808e-05
0.0026975672
0.0027149268
0.0027533545
0.0028032282
0.0028624683
0.0029308222
0.0030079344
0.0030934051
0.0031870526
0.0032889962
0.0033996516
0.0035197404
0.0036503561
0.0037931032
0.0039503132
0.0041254449
0.004323617
0.0045531294
0.0048265172
0.0051700518
0.005618764
0.006314878
0.0072966286
0.01069655
0.0076909755
0.0027282728
0.0027020063
0.0031852669
0.0031996346
0.0029527013
0.0027294941
0.0026129222
0.0025236072
0.0024305785
0.0023410146
0.0022614003
0.0021918663
0.0021297954
0.0020728583
0.0020203843
0.0019719586
0.0019272694
0.0018860162
0.0018480851
0.0018121331
0.0017787436
0.0017468851
0.0017164653
0.0016882479
0.001661164
0.0016350022
0.0016105821
0.0015872966
0.0015643209
0.0015424704
0.0015220514
0.0015020019
0.0014820225
0.0014629827
0.0014451054
0.0014275122
0.0014098287
0.001392552
0.0013762584
0.0013605312
0.0013447011
0.0013287835
0.0013133527
0.0012986701
0.0012841952
0.0012695309
0.0012547441
0.0012402824
0.0012263873
0.0012126337
0.0011986633
0.0011844858
0.0011704038
0.0011567258
0.0011432335
0.0011295407
0.0011155655
0.0011014494
0.0010875306
0.0010738125
0.0010599312
0.0010457153
0.0010311848
0.0010166094
0.001002155
0.00098756047
0.00097258826
0.0009571961
0.00094153742
0.00092582485
0.00090992305
0.00089356423
0.00087666152
0.00085931655
0.00084172898
0.00082378382
0.00080520718
0.00078590413
0.00076598753
0.00074557308
0.00072446004
0.0007024102
0.00067937139
0.00065545376
0.00063054458
0.0006042771
0.00057646051
0.00054677799
0.00051599433
0.00048593236
0.00045713057
0.00042929287
0.00040218764
0.00037560366
0.00034947126
0.00032381706
0.00029872928
0.00027417019
0.00025006003
0.00022640631
0.00020325445
0.00018073227
0.00015896435
0.00013801053
0.00011794316
9.9228653e-05
8.1670078e-05
6.9045061e-05
5.2855712e-05
9.6290434e-05
-7.4116692e-05
0.0026975672
0.0027149268
0.0027533545
0.0028032282
0.0028624683
0.0029308222
0.0030079344
0.0030934051
0.0031870526
0.0032889963
0.0033996517
0.0035197404
0.0036503562
0.0037931032
0.0039503133
0.0041254449
0.0043236171
0.0045531295
0.0048265172
0.0051700517
0.0056187637
0.0063148759
0.0072966335
0.010691027
0.0076893126
0.0027306977
0.0027026983
0.0031855323
0.0031998327
0.0029528835
0.0027296524
0.0026130562
0.0025237203
0.0024306746
0.0023410973
0.0022614721
0.0021919294
0.0021298511
0.0020729079
0.0020204287
0.0019719987
0.0019273057
0.0018860492
0.0018481153
0.0018121608
0.0017787691
0.0017469086
0.001716487
0.001688268
0.0016611827
0.0016350196
0.0016105983
0.0015873117
0.0015643351
0.0015424836
0.0015220638
0.0015020135
0.0014820335
0.001462993
0.0014451151
0.0014275213
0.0014098373
0.0013925601
0.0013762661
0.0013605384
0.001344708
0.00132879
0.0013133588
0.0012986759
0.0012842007
0.0012695361
0.0012547491
0.0012402871
0.0012263918
0.0012126379
0.0011986673
0.0011844897
0.0011704074
0.0011567293
0.0011432368
0.0011295439
0.0011155684
0.0011014522
0.0010875333
0.001073815
0.0010599336
0.0010457176
0.001031187
0.0010166114
0.001002157
0.00098756234
0.00097259004
0.0009571978
0.00094153904
0.00092582639
0.00090992451
0.00089356563
0.00087666285
0.00085931781
0.00084173018
0.00082378496
0.00080520826
0.00078590516
0.00076598851
0.000745574
0.00072446092
0.00070241103
0.00067937218
0.00065545451
0.00063054529
0.00060427776
0.00057646113
0.00054677858
0.00051599488
0.00048593289
0.00045713107
0.00042929335
0.0004021881
0.00037560409
0.00034947167
0.00032381745
0.00029872966
0.00027417054
0.00025006036
0.00022640662
0.00020325476
0.00018073256
0.00015896462
0.0001380108
0.00011794341
9.9228891e-05
8.1670305e-05
6.9045281e-05
5.2855914e-05
9.6290675e-05
-7.4116542e-05
0.0026975672
0.0027149268
0.0027533545
0.0028032282
0.0028624683
0.0029308222
0.0030079344
0.0030934051
0.0031870526
0.0032889963
0.0033996517
0.0035197405
0.0036503562
0.0037931033
0.0039503133
0.004125445
0.0043236172
0.0045531296
0.0048265172
0.0051700515
0.0056187632
0.0063148728
0.0072966395
0.010684789
0.0076875879
0.0027338182
0.0027037935
0.0031859605
0.0032001063
0.0029531232
0.0027298598
0.0026132319
0.0025238687
0.002430801
0.0023412062
0.002261567
0.0021920127
0.0021299248
0.0020729733
0.0020204873
0.0019720515
0.0019273536
0.0018860928
0.0018481551
0.0018121972
0.0017788026
0.0017469395
0.0017165156
0.0016882946
0.0016612074
0.0016350426
0.0016106197
0.0015873317
0.0015643538
0.0015425011
0.0015220802
0.0015020289
0.0014820479
0.0014630066
0.0014451279
0.0014275334
0.0014098487
0.0013925709
0.0013762762
0.001360548
0.001344717
0.0013287985
0.0013133669
0.0012986836
0.001284208
0.001269543
0.0012547556
0.0012402933
0.0012263977
0.0012126435
0.0011986726
0.0011844947
0.0011704122
0.0011567338
0.0011432411
0.0011295479
0.0011155723
0.0011014559
0.0010875368
0.0010738184
0.0010599367
0.0010457206
0.0010311899
0.0010166142
0.0010021596
0.00098756481
0.00097259239
0.00095720004
0.00094154116
0.00092582841
0.00090992643
0.00089356745
0.00087666458
0.00085931946
0.00084173175
0.00082378645
0.00080520967
0.0007859065
0.00076598979
0.00074557521
0.00072446207
0.00070241212
0.00067937321
0.00065545548
0.00063054621
0.00060427863
0.00057646195
0.00054677935
0.00051599562
0.00048593359
0.00045713173
0.00042929398
0.00040218869
0.00037560466
0.00034947221
0.00032381796
0.00029873014
0.000274171
0.0002500608
0.00022640704
0.00020325515
0.00018073293
0.00015896498
0.00013801113
0.00011794374
9.92292e-05
8.1670599e-05
6.9045567e-05
5.2856177e-05
9.6290987e-05
-7.4116349e-05
0.0026975672
0.0027149268
0.0027533545
0.0028032283
0.0028624683
0.0029308222
0.0030079344
0.0030934051
0.0031870526
0.0032889963
0.0033996518
0.0035197405
0.0036503563
0.0037931034
0.0039503134
0.0041254451
0.0043236172
0.0045531296
0.0048265171
0.0051700511
0.0056187624
0.0063148685
0.0072966468
0.010677726
0.0076858475
0.0027379055
0.0027053993
0.0031866169
0.0032004777
0.0029534321
0.0027301246
0.002613456
0.0025240583
0.0024309627
0.0023413456
0.0022616886
0.0021921197
0.0021300193
0.0020730569
0.0020205619
0.0019721187
0.0019274145
0.0018861482
0.0018482058
0.0018122437
0.0017788454
0.001746979
0.0017165521
0.0016883285
0.0016612389
0.0016350719
0.001610647
0.0015873573
0.0015643777
0.0015425236
0.0015221013
0.0015020487
0.0014820665
0.0014630241
0.0014451444
0.0014275489
0.0014098634
0.0013925847
0.0013762893
0.0013605604
0.0013447287
0.0013288096
0.0013133774
0.0012986935
0.0012842174
0.0012695519
0.0012547641
0.0012403013
0.0012264053
0.0012126507
0.0011986794
0.0011845012
0.0011704184
0.0011567397
0.0011432467
0.0011295533
0.0011155774
0.0011014607
0.0010875413
0.0010738227
0.0010599408
0.0010457245
0.0010311936
0.0010166177
0.0010021629
0.00098756801
0.00097259543
0.00095720293
0.00094154392
0.00092583103
0.00090992893
0.00089356983
0.00087666684
0.00085932161
0.00084173379
0.00082378839
0.00080521152
0.00078590825
0.00076599145
0.00074557679
0.00072446356
0.00070241354
0.00067937455
0.00065545675
0.00063054741
0.00060427976
0.00057646302
0.00054678036
0.00051599657
0.00048593449
0.00045713259
0.00042929479
0.00040218946
0.00037560539
0.0003494729
0.00032381862
0.00029873077
0.00027417159
0.00025006137
0.00022640758
0.00020325566
0.00018073342
0.00015896544
0.00013801158
0.00011794415
9.92296e-05
8.167098e-05
6.9045937e-05
5.2856517e-05
9.6291392e-05
-7.4116097e-05
0.0026975672
0.0027149268
0.0027533545
0.0028032283
0.0028624683
0.0029308222
0.0030079344
0.0030934052
0.0031870527
0.0032889964
0.0033996518
0.0035197406
0.0036503563
0.0037931034
0.0039503135
0.0041254452
0.0043236173
0.0045531296
0.004826517
0.0051700505
0.0056187611
0.0063148626
0.0072966558
0.010669704
0.0076841082
0.0027433426
0.0027076155
0.003187573
0.0032009808
0.0029538293
0.0027304598
0.0026137381
0.002524296
0.0024311648
0.0023415195
0.0022618399
0.0021922526
0.0021301365
0.0020731606
0.0020206546
0.0019722021
0.0019274901
0.0018862171
0.0018482687
0.0018123015
0.0017788986
0.0017470281
0.0017165976
0.0016883707
0.0016612781
0.0016351085
0.0016106812
0.0015873892
0.0015644076
0.0015425516
0.0015221276
0.0015020734
0.0014820898
0.0014630461
0.0014451651
0.0014275684
0.0014098818
0.0013926021
0.0013763058
0.0013605759
0.0013447434
0.0013288236
0.0013133906
0.0012987061
0.0012842293
0.0012695632
0.0012547748
0.0012403115
0.0012264149
0.0012126599
0.0011986882
0.0011845095
0.0011704262
0.0011567472
0.0011432538
0.00112956
0.0011155838
0.0011014667
0.0010875471
0.0010738282
0.001059946
0.0010457294
0.0010311983
0.0010166221
0.0010021672
0.00098757204
0.00097259927
0.00095720658
0.00094154739
0.00092583434
0.00090993207
0.00089357282
0.00087666968
0.00085932431
0.00084173636
0.00082379083
0.00080521384
0.00078591046
0.00076599354
0.00074557878
0.00072446544
0.00070241532
0.00067937624
0.00065545835
0.00063054892
0.00060428119
0.00057646436
0.00054678163
0.00051599777
0.00048593563
0.00045713367
0.00042929581
0.00040219043
0.00037560631
0.00034947378
0.00032381945
0.00029873156
0.00027417234
0.00025006208
0.00022640825
0.00020325631
0.00018073403
0.00015896603
0.00013801213
0.00011794468
9.9230106e-05
8.1671461e-05
6.9046405e-05
5.2856948e-05
9.6291903e-05
-7.411578e-05
0.0026975672
0.0027149268
0.0027533545
0.0028032283
0.0028624683
0.0029308223
0.0030079345
0.0030934052
0.0031870527
0.0032889964
0.0033996518
0.0035197406
0.0036503564
0.0037931035
0.0039503135
0.0041254452
0.0043236173
0.0045531295
0.0048265166
0.0051700496
0.0056187593
0.0063148544
0.0072966668
0.010660561
0.0076824112
0.0027501744
0.0027105191
0.0031889269
0.003201662
0.0029543398
0.0027308826
0.0026140915
0.0025245925
0.002431416
0.0023417352
0.0022620272
0.0021924167
0.0021302812
0.0020732891
0.0020207695
0.0019723056
0.0019275839
0.0018863024
0.0018483467
0.0018123731
0.0017789645
0.001747089
0.0017166539
0.0016884229
0.0016613267
0.0016351537
0.0016107234
0.0015874286
0.0015644445
0.0015425862
0.0015221601
0.001502104
0.0014821185
0.0014630731
0.0014451906
0.0014275925
0.0014099045
0.0013926236
0.001376326
0.0013605951
0.0013447616
0.0013288408
0.0013134069
0.0012987215
0.001284244
0.0012695771
0.001254788
0.001240324
0.0012264268
0.0012126712
0.0011986989
0.0011845197
0.0011704359
0.0011567564
0.0011432626
0.0011295684
0.0011155917
0.0011014742
0.0010875542
0.0010738349
0.0010599524
0.0010457355
0.0010312041
0.0010166277
0.0010021724
0.00098757703
0.00097260401
0.00095721109
0.00094155168
0.00092583842
0.00090993595
0.00089357651
0.0008766732
0.00085932765
0.00084173953
0.00082379385
0.0008052167
0.00078591318
0.00076599612
0.00074558123
0.00072446777
0.00070241753
0.00067937833
0.00065546033
0.00063055078
0.00060428295
0.00057646602
0.00054678319
0.00051599925
0.00048593703
0.000457135
0.00042929708
0.00040219163
0.00037560745
0.00034947486
0.00032382048
0.00029873253
0.00027417327
0.00025006296
0.00022640909
0.0002032571
0.00018073479
0.00015896675
0.00013801282
0.00011794534
9.9230734e-05
8.167206e-05
6.9046988e-05
5.2857484e-05
9.629254e-05
-7.4115383e-05
0.0026975672
0.0027149268
0.0027533545
0.0028032283
0.0028624684
0.0029308223
0.0030079345
0.0030934052
0.0031870527
0.0032889964
0.0033996519
0.0035197407
0.0036503564
0.0037931035
0.0039503136
0.0041254452
0.0043236172
0.0045531293
0.0048265161
0.0051700482
0.0056187568
0.0063148432
0.0072966804
0.010650144
0.0076807903
0.0027582066
0.0027141227
0.0031907803
0.00320258
0.0029549945
0.0027314144
0.0026145337
0.0025249628
0.0024317293
0.0023420037
0.00226226
0.0021926206
0.0021304611
0.002073449
0.0020209126
0.0019724345