/*--------------------------------*- C++ -*----------------------------------*\
  =========                 |
  \\      /  F ield         | OpenFOAM: The Open Source CFD Toolbox
   \\    /   O peration     | Website:  https://openfoam.org
    \\  /    A nd           | Version:  12
     \\/     M anipulation  |
\*---------------------------------------------------------------------------*/
FoamFile
{
    format      ascii;
    class       volScalarField;
    location    "100";
    object      p;
}
// * * * * * * * * * * * * * * * * * * * * * * * * * * * * * * * * * * * * * //

dimensions      [0 2 -2 0 0 0 0];

internalField   nonuniform List<scalar> 
7480
(
0.0053215121
0.0052824249
0.0051741696
0.0051412465
0.0051587152
0.0051934969
0.0052409996
0.0053059645
0.0053947283
0.0055139005
0.0056841569
0.0059230695
0.0063913629
0.0068185113
0.0067629065
0.0063249088
0.0058504912
0.0054843945
0.0051769084
0.0048966342
0.0046462036
0.0044301714
0.0042502355
0.0040853689
0.00392212
0.0037630386
0.0036110555
0.0034792779
0.0033654977
0.0032569349
0.0031575673
0.0030711186
0.0029968317
0.0029335176
0.0028793168
0.002832177
0.0027903892
0.002754014
0.0027219426
0.0026916248
0.002662685
0.0026353367
0.0026097742
0.0025846951
0.00255835
0.0025305584
0.0025017703
0.0024731284
0.0024439913
0.0024131976
0.0023801168
0.0023443134
0.0023075167
0.0022701468
0.0022309693
0.0021902276
0.0021489792
0.002108992
0.0020695986
0.0020287136
0.0019868741
0.0019451334
0.0019044379
0.0018636517
0.0018216032
0.0017794043
0.0017383593
0.0016974497
0.0016551601
0.0016122269
0.0015697061
0.0015268237
0.0014827272
0.001438213
0.0013939184
0.0013492376
0.0013033347
0.0012569884
0.0012102725
0.0011625928
0.0011140657
0.0010653842
0.001016057
0.00096544256
0.00091448673
0.00086284174
0.00080988567
0.00075678464
0.00070306236
0.00064817894
0.00059315896
0.00053767422
0.00048199353
0.00042661183
0.00037303482
0.0003190078
0.00028094127
0.00022239775
0.00036072083
-0.00024316621
0.0052590327
0.0052203504
0.0051477699
0.0051259492
0.005146846
0.0051854239
0.0052351585
0.0053011741
0.0053903553
0.0055095414
0.0056783246
0.0059140931
0.0063418636
0.0067164739
0.0066601909
0.0062968772
0.0058791439
0.0055377802
0.005242279
0.0049657358
0.0047165576
0.0044966623
0.0043030175
0.0041239942
0.0039545882
0.0037937441
0.0036436706
0.003511352
0.0033941359
0.0032841742
0.0031841004
0.0030969336
0.0030217475
0.0029571935
0.0029014967
0.002852736
0.0028092921
0.0027714173
0.0027381292
0.0027067581
0.0026767135
0.0026482066
0.0026215692
0.0025955783
0.0025683325
0.0025396537
0.0025101102
0.0024808079
0.0024510804
0.0024197586
0.0023862482
0.0023500921
0.0023129741
0.00227531
0.0022358639
0.0021948838
0.0021534238
0.0021132636
0.0020737151
0.0020326654
0.0019906575
0.0019487518
0.0019078987
0.001866956
0.0018247525
0.0017824046
0.0017412181
0.001700172
0.0016577504
0.0016146925
0.0015720542
0.0015290592
0.001484855
0.001440239
0.0013958474
0.0013510733
0.0013050817
0.0012586523
0.0012118577
0.0011641032
0.001115505
0.0010667559
0.0010173635
0.00096668724
0.00091567355
0.00086397347
0.00081096507
0.0007578145
0.00070404451
0.0006491159
0.00059405359
0.00053852856
0.00048280985
0.00042739175
0.0003737818
0.00031972188
0.00028161483
0.00022310423
0.00036154693
-0.00024257568
0.0052173197
0.0052031947
0.0051578786
0.0051365678
0.005153449
0.0051909963
0.0052397999
0.0053044828
0.0053921032
0.0055095148
0.0056741105
0.0059028754
0.0062700885
0.006585239
0.0065470857
0.0062284005
0.0058342041
0.0054951034
0.0052011898
0.0049291085
0.0046840287
0.0044674049
0.0042764544
0.0041040006
0.00394308
0.0037900825
0.0036476685
0.003519039
0.00340313
0.0032964398
0.0031989418
0.0031127615
0.0030381397
0.0029738062
0.00291802
0.0028689717
0.0028252435
0.0027867182
0.0027523194
0.0027200105
0.0026891419
0.0026597487
0.0026322879
0.0026056981
0.0025779672
0.0025487469
0.0025186129
0.0024887368
0.002458539
0.0024265116
0.0023922246
0.0023556048
0.0023181736
0.0022802643
0.0022405893
0.0021994036
0.0021577664
0.0021174643
0.002077779
0.0020365779
0.0019944114
0.0019523558
0.0019113683
0.001870291
0.0018279499
0.0017854709
0.0017441647
0.0017030022
0.0016604603
0.0016172856
0.001574537
0.001531435
0.0014871272
0.0014424137
0.0013979297
0.001353066
0.0013069868
0.0012604751
0.001213602
0.001165772
0.0011171021
0.001068285
0.0010188261
0.00096808576
0.00091701229
0.00086525482
0.0008121915
0.00075898928
0.0007051688
0.00065019176
0.00059508419
0.00053951581
0.0004837561
0.00042829843
0.00037465228
0.0003205542
0.00028241936
0.00022399837
0.00036245782
-0.00024184513
0.0051841924
0.0051833281
0.0051481863
0.0051286189
0.0051446288
0.0051823824
0.0052318365
0.0052966415
0.0053837544
0.0054999273
0.0056599844
0.0058788173
0.0061950342
0.0064684862
0.006449972
0.0061686968
0.0058009451
0.005474271
0.0051915159
0.0049302143
0.0046916813
0.0044785571
0.0042885526
0.0041167138
0.003955235
0.0038010224
0.0036568094
0.0035256963
0.0034082394
0.0033014716
0.0032037009
0.0031167977
0.0030419388
0.0029779316
0.0029229394
0.0028751468
0.002833058
0.0027954179
0.002761136
0.0027292697
0.0026990092
0.0026699021
0.0026417757
0.0026140477
0.0025856697
0.0025560337
0.0025254497
0.0024951421
0.0024646398
0.0024321449
0.0023973246
0.0023604022
0.0023227672
0.0022847664
0.0022450118
0.0022037218
0.0021619421
0.002121374
0.0020814228
0.002040079
0.0019978042
0.0019556552
0.001914588
0.0018734206
0.0018309758
0.0017884
0.0017470034
0.0017057378
0.0016630845
0.001619803
0.0015769562
0.0015337584
0.0014893563
0.0014445538
0.0013999871
0.0013550426
0.0013088809
0.0012622908
0.0012153427
0.0011674399
0.0011187006
0.0010698185
0.0010202957
0.00096949237
0.00091836067
0.00086654691
0.00081342919
0.00076017616
0.00070630553
0.00065127999
0.00059612741
0.00054051568
0.00048471461
0.00042921693
0.00037553314
0.00032139587
0.00028323519
0.00022478456
0.0003633114
-0.00024115281
0.005153451
0.0051605636
0.005136377
0.0051239299
0.0051419774
0.0051804249
0.0052304151
0.0052949353
0.0053808024
0.0054945564
0.0056486344
0.0058536225
0.0061291411
0.0063655714
0.0063569665
0.0061063062
0.0057644137
0.0054510563
0.0051775625
0.0049238259
0.004689322
0.004477816
0.0042881043
0.004116328
0.0039552589
0.003802233
0.0036594758
0.003529716
0.0034133977
0.0033074707
0.0032101212
0.0031232245
0.0030480317
0.0029833866
0.0029275391
0.0028788474
0.0028358607
0.0027971567
0.0027621537
0.0027303515
0.0027007681
0.0026727622
0.0026455546
0.0026183545
0.0025905966
0.0025617821
0.0025319136
0.0025013545
0.002469911
0.002436916
0.0024019107
0.0023648493
0.0023270547
0.0022889615
0.0022491766
0.00220781
0.0021658403
0.0021249584
0.002084804
0.0020434069
0.0020010791
0.0019588544
0.0019177183
0.0018764911
0.0018339776
0.0017913463
0.0017498423
0.0017084111
0.0016656309
0.0016222675
0.0015793542
0.0015360864
0.0014916093
0.0014467355
0.0014020995
0.0013570778
0.0013108346
0.001264169
0.0012171485
0.001169175
0.0011203677
0.0010714233
0.0010218387
0.0009709719
0.00091978096
0.0008679094
0.0008147354
0.00076143074
0.00070750907
0.0006524332
0.00059723385
0.00054157675
0.00048573212
0.00043019244
0.00037646792
0.00032228953
0.00028409465
0.00022555957
0.00036415857
-0.00024036618
0.0051249427
0.0051382105
0.0051246049
0.0051187539
0.0051375731
0.0051751971
0.0052246481
0.005288267
0.0053723721
0.0054830734
0.0056302799
0.0058211314
0.0060623915
0.0062654015
0.0062622542
0.0060402342
0.0057248248
0.0054259401
0.005161751
0.0049158428
0.0046866242
0.0044781922
0.0042901751
0.0041196302
0.0039599656
0.0038086305
0.0036673197
0.0035383858
0.0034222026
0.0033161749
0.0032187666
0.0031316223
0.0030559007
0.0029905741
0.0029339861
0.0028845497
0.0028407989
0.0028013792
0.0027657258
0.0027332137
0.0027028124
0.0026739474
0.0026460018
0.0026182843
0.0025903267
0.0025618559
0.0025328131
0.0025029571
0.0024719908
0.0024397066
0.0024056117
0.0023694441
0.0023317316
0.002292923
0.0022527113
0.0022112211
0.0021691558
0.0021282224
0.002088096
0.0020467308
0.002004323
0.0019619307
0.0019206916
0.001879454
0.0018369165
0.0017942274
0.0017525909
0.0017110012
0.0016681195
0.0016247065
0.001581753
0.0015384311
0.0014938928
0.0014489708
0.0014042587
0.0013591227
0.0013127889
0.0012660639
0.0012189889
0.0011709592
0.0011220957
0.001073096
0.0010234488
0.000972519
0.00092127016
0.00086934182
0.00081611201
0.00076275751
0.00070878558
0.00065365817
0.00059841048
0.00054270626
0.00048681658
0.00043123378
0.00037746574
0.00032324436
0.00028500589
0.00022638157
0.00036499912
-0.00023940903
0.0050984885
0.0051164597
0.0051118021
0.0051117043
0.0051315022
0.0051687748
0.0052181963
0.0052813773
0.0053638969
0.0054713026
0.0056112609
0.0057879737
0.0059994857
0.0061729873
0.0061725956
0.0059763256
0.0056860835
0.0054014988
0.0051461589
0.0049077073
0.0046838006
0.004478362
0.0042920207
0.0041223529
0.0039637119
0.0038136021
0.0036733083
0.0035449065
0.0034288004
0.0033228549
0.0032256708
0.0031385513
0.0030625516
0.0029967964
0.0029397106
0.0028897453
0.0028454754
0.0028056134
0.0027695122
0.0027365179
0.002705666
0.0026763752
0.002648033
0.0026199322
0.0025915611
0.0025626119
0.0025329988
0.0025026413
0.0024714176
0.0024391223
0.0024054026
0.0023700683
0.0023330582
0.0022945434
0.0022548593
0.0022141922
0.0021728978
0.0021319566
0.0020911469
0.0020494319
0.0020069441
0.00196454
0.0019233685
0.001882182
0.001839652
0.0017968427
0.001755092
0.0017134897
0.0016705978
0.0016271324
0.0015841071
0.0015407257
0.0014961344
0.0014511754
0.0014063879
0.0013611398
0.0013147272
0.0012679623
0.0012208499
0.0011727767
0.0011238711
0.0010748013
0.0010250651
0.00097407506
0.00092278102
0.00087080766
0.00081753164
0.00076413179
0.00071010791
0.0006549299
0.00059963501
0.00054388444
0.00048795079
0.00043232566
0.0003785123
0.00032424672
0.00028595637
0.00022724135
0.00036580074
-0.00023826043
0.0050737517
0.0050952457
0.0050980224
0.0051032315
0.0051244348
0.0051615694
0.0052107756
0.0052731483
0.0053535353
0.0054569038
0.0055889968
0.0057515034
0.005936888
0.0060846135
0.0060849573
0.0059112553
0.0056447315
0.0053745934
0.0051282344
0.0048972916
0.0046789847
0.0044770452
0.0042928017
0.0041243621
0.0039670138
0.0038183493
0.0036793099
0.0035517127
0.0034359703
0.0033303051
0.0032334176
0.0031463335
0.0030700354
0.0030037968
0.0029461324
0.0028955453
0.0028506621
0.002810241
0.0027735874
0.0027400571
0.0027087393
0.0026790231
0.0026502955
0.0026218507
0.002593179
0.0025639739
0.0025341408
0.002503601
0.0024721845
0.0024396264
0.0024055709
0.0023698501
0.002332497
0.0022938703
0.0022544212
0.0022143713
0.0021740785
0.0021336225
0.0020928068
0.0020515218
0.002009669
0.0019677136
0.0019262173
0.0018843694
0.0018417087
0.0017989247
0.0017572842
0.0017157736
0.0016729234
0.0016293674
0.0015862573
0.0015428784
0.0014982798
0.0014532694
0.0014084122
0.0013631154
0.001316663
0.0012698623
0.0012227052
0.0011745838
0.0011256401
0.0010765031
0.0010266829
0.00097564043
0.00092431344
0.00087230638
0.00081899426
0.00076553315
0.00071143672
0.00065621413
0.00060088152
0.00054509301
0.00048911961
0.00043345127
0.0003795913
0.00032528232
0.00028693327
0.00022812237
0.00036653233
-0.00023689989
0.0050504325
0.0050745665
0.00508348
0.0050934996
0.0051162639
0.0051532714
0.0052020346
0.0052633727
0.0053414078
0.0054404502
0.0055645631
0.0057133463
0.0058759034
0.0060013316
0.006001056
0.0058469655
0.0056027298
0.0053471394
0.0051098856
0.0048863776
0.0046738071
0.0044756114
0.0042936459
0.0041265775
0.0039705372
0.0038232643
0.0036854186
0.0035585789
0.0034431616
0.003337699
0.003241013
0.0031539121
0.0030773011
0.0030105779
0.0029523464
0.0029011603
0.0028556897
0.002814732
0.0027775595
0.0027435262
0.002711755
0.0026816105
0.0026524846
0.0026236957
0.0025947402
0.0025653115
0.0025352995
0.0025046046
0.0024730403
0.0024403469
0.0024061921
0.0023704113
0.0023330371
0.0022943917
0.0022548326
0.0022145624
0.0021739906
0.0021331918
0.002092354
0.0020515629
0.0020105525
0.0019693909
0.0019279385
0.0018860557
0.0018438364
0.001801532
0.0017597261
0.0017175964
0.0016745921
0.0016310881
0.0015881121
0.0015448258
0.0015002589
0.0014551743
0.0014102727
0.0013650037
0.0013185447
0.0012716941
0.0012244854
0.0011763236
0.0011273464
0.0010781687
0.0010283031
0.00097721915
0.00092586103
0.00087381726
0.00082046738
0.00076694467
0.00071278104
0.00065751976
0.00060215711
0.00054633945
0.00049031752
0.00043458919
0.00038068129
0.00032633623
0.00028792672
0.00022901383
0.00036716263
-0.00023529876
0.0050282578
0.0050543751
0.0050682964
0.0050825583
0.0051069136
0.0051438316
0.0051920196
0.0052521594
0.0053276488
0.0054220809
0.0055380919
0.0056736333
0.0058160014
0.0059220257
0.0059201491
0.0057828969
0.0055593865
0.0053182501
0.0050901802
0.0048740235
0.0046672919
0.0044730755
0.0042936159
0.0041281349
0.0039735144
0.0038276925
0.0036911038
0.0035651097
0.0034501251
0.0033449506
0.0032485326
0.0031614947
0.0030846513
0.0030175032
0.0029587459
0.002906986
0.0028609371
0.0028194375
0.0027817364
0.0027471836
0.0027149357
0.0026843442
0.0026548074
0.002625666
0.0025964169
0.0025667465
0.0025365255
0.0025056431
0.0024739148
0.0024410892
0.0024068504
0.0023710356
0.002333667
0.0022950345
0.0022554745
0.0022152067
0.0021746084
0.0021337717
0.0020928794
0.0020519254
0.0020106713
0.0019691987
0.0019275584
0.0018860591
0.0018446688
0.0018031554
0.0017613855
0.0017191149
0.0016763929
0.0016332709
0.0015901181
0.0015462957
0.0015016488
0.001456667
0.0014119066
0.0013667093
0.0013202531
0.0012733607
0.0012261551
0.0011779982
0.0011289871
0.0010797673
0.0010298772
0.00097876638
0.00092737624
0.00087529067
0.00082190205
0.00076834752
0.00071414815
0.00065884884
0.00060345477
0.00054760664
0.00049153238
0.00043574559
0.00038179264
0.00032741764
0.00028894301
0.00022990867
0.0003676494
-0.00023342583
0.0050069984
0.0050346007
0.0050525606
0.0050704809
0.005096381
0.0051332409
0.0051807297
0.0052394809
0.005312216
0.0054018064
0.005509708
0.0056326341
0.0057571275
0.0058463425
0.0058423542
0.0057195361
0.005515198
0.005288332
0.0050695526
0.0048607112
0.0046599076
0.0044698928
0.0042931708
0.0041294871
0.003976396
0.0038320718
0.0036967768
0.0035716773
0.0034571827
0.0033523256
0.0032561756
0.0031692033
0.003092132
0.0030245523
0.0029652552
0.0029129046
0.0028662592
0.0028241978
0.002785953
0.0027508704
0.0027181371
0.0026870953
0.0026571469
0.0026276507
0.0025981044
0.0025681884
0.0025377572
0.0025066919
0.0024748076
0.0024418546
0.0024075288
0.0023716665
0.0023342859
0.0022956579
0.0022561129
0.0022158762
0.0021753031
0.0021344922
0.0020935969
0.0020526031
0.002011299
0.0019697589
0.0019280535
0.00188644
0.0018448542
0.0018030524
0.0017610871
0.0017192287
0.0016772835
0.0016348364
0.0015916895
0.0015477054
0.0015032849
0.0014585266
0.0014134995
0.0013678951
0.001321468
0.0012747197
0.0012276255
0.0011795101
0.0011304751
0.0010812495
0.0010313836
0.00098025788
0.00092882795
0.00087671475
0.00082329997
0.00076972231
0.00071549379
0.00066016148
0.00060473878
0.00054885599
0.00049274316
0.00043692364
0.00038292924
0.00032852179
0.00028996664
0.00023080385
0.0003679737
-0.00023123132
0.0049864607
0.0050151583
0.0050363341
0.0050573407
0.0050846692
0.0051214713
0.0051681401
0.005225316
0.0052951199
0.0053797254
0.0054796227
0.0055906392
0.0056992633
0.0057739093
0.0057675489
0.0056570219
0.0054702496
0.0052573068
0.0050478666
0.0048462912
0.0046514548
0.0044658209
0.0042920491
0.0041303594
0.0039789109
0.0038361371
0.0037021778
0.0035780272
0.0034640877
0.0033595917
0.0032637293
0.0031768482
0.0030995826
0.0030315995
0.0029717854
0.0029188637
0.0028716373
0.0028290234
0.0027902434
0.0027546382
0.002721422
0.0026899312
0.0026595702
0.0026297151
0.0025998659
0.0025696979
0.002539051
0.0025077975
0.0024757506
0.0024426633
0.0024082434
0.0023723293
0.0023349361
0.0022963164
0.0022567883
0.002216575
0.00217601
0.0021352015
0.0020942922
0.0020532814
0.0020119837
0.0019704591
0.0019287641
0.0018871172
0.0018454546
0.0018035589
0.0017615
0.0017195256
0.001677377
0.0016346999
0.00159153
0.0015481143
0.0015043926
0.0014600506
0.0014149478
0.001369213
0.0013229865
0.0012761915
0.0012287764
0.0011805613
0.0011316302
0.0010825322
0.0010327261
0.00098159561
0.00093015887
0.00087807682
0.0008246538
0.00077104255
0.00071679442
0.00066144325
0.00060599479
0.00055007764
0.00049393635
0.00043809488
0.00038405894
0.00032961852
0.00029096728
0.00023168773
0.00036810867
-0.00022866381
0.0049664771
0.0049959567
0.0050196543
0.0050432029
0.0050717883
0.0051085017
0.005154239
0.0052096702
0.0052763971
0.005355942
0.0054480145
0.0055478563
0.0056423572
0.0057043666
0.0056955655
0.0055954814
0.0054247032
0.0052252409
0.0050251691
0.0048308397
0.0046420078
0.004460924
0.0042903164
0.0041308211
0.003981141
0.0038399814
0.0037074052
0.0035842597
0.0034709394
0.0033668494
0.0032712956
0.0031845294
0.0031071
0.0030387377
0.0029784228
0.0029249399
0.0028771363
0.0028339661
0.002794645
0.0027585102
0.0027248003
0.0026928499
0.0026620661
0.0026318412
0.0026016787
0.0025712491
0.0025403785
0.0025089302
0.0024767157
0.002443491
0.0024089754
0.0023730087
0.0023356021
0.0022969898
0.0022574763
0.0022172842
0.002176728
0.0021359261
0.0020950116
0.0020539892
0.0020126888
0.0019711567
0.001929451
0.0018877799
0.0018461005
0.0018042112
0.0017621532
0.0017201282
0.0016778832
0.0016351017
0.0015918281
0.0015483066
0.0015043802
0.001459922
0.0014151078
0.0013699796
0.0013242773
0.001277592
0.0012300277
0.0011818356
0.0011329576
0.0010836505
0.0010336476
0.00098259384
0.00093129379
0.00087928136
0.00082586516
0.00077224971
0.00071803262
0.00066267816
0.0006071999
0.00055126411
0.0004951052
0.00043924014
0.00038516333
0.0003306962
0.00029193858
0.00023253913
0.00036798865
-0.0002256747
0.0049469019
0.0049769049
0.0050025394
0.0050281242
0.0050577566
0.0050943205
0.0051390224
0.0051925586
0.0052560915
0.0053305566
0.0054150451
0.0055044607
0.0055863782
0.005637423
0.0056262462
0.0055350319
0.0053787339
0.0051922146
0.0050014899
0.0048143857
0.0046315719
0.0044551716
0.0042879183
0.0041308014
0.0039830115
0.00384353
0.0037123836
0.0035902983
0.0034776605
0.0033740239
0.0032788044
0.0031921794
0.0031146192
0.0030459054
0.0029851091
0.0029310783
0.0028827045
0.0028389781
0.0027991141
0.0027624474
0.0027282387
0.0026958242
0.0026646137
0.0026340145
0.0026035343
0.0025728388
0.0025417413
0.0025100958
0.0024777121
0.0024443491
0.0024097364
0.0023737153
0.0023362931
0.0022976863
0.0022581867
0.0022180152
0.0021774692
0.0021366743
0.0020957541
0.0020547174
0.00201341
0.0019718705
0.0019301601
0.0018884731
0.0018467737
0.0018048688
0.0017627881
0.0017207217
0.0016784518
0.0016356713
0.0015923927
0.0015488132
0.001504786
0.0014602195
0.0014152994
0.0013700149
0.0013241904
0.0012776994
0.0012306346
0.0011829255
0.0011342968
0.0010848619
0.0010347339
0.00098376723
0.00093233235
0.00088010019
0.00082675306
0.00077327087
0.00071911998
0.00066377765
0.00060830335
0.00055239675
0.0004962309
0.00044033784
0.00038623077
0.0003317449
0.00029287201
0.00023333987
0.00036755102
-0.00022219181
0.0049276067
0.004957915
0.0049849926
0.0050121515
0.0050425976
0.0050789252
0.0051224936
0.005174005
0.005234257
0.0053036736
0.0053808683
0.005460604
0.0055313032
0.005572828
0.0055594212
0.0054757485
0.005332495
0.0051583049
0.0049768515
0.0047969503
0.0046201568
0.0044485503
0.0042848287
0.0041302703
0.0039844999
0.0038467717
0.0037171109
0.0035961467
0.0034842581
0.0033811266
0.0032862715
0.0031998156
0.0031221577
0.0030531208
0.002991863
0.0029372974
0.0028883605
0.0028440785
0.0028036701
0.0027664692
0.0027317572
0.0026988739
0.0026672324
0.0026362535
0.0026054498
0.0025744824
0.0025431524
0.0025113048
0.0024787476
0.0024452426
0.0024105289
0.0023744499
0.0023370086
0.0022984052
0.0022589182
0.0022187662
0.0021782301
0.0021374409
0.0020965145
0.0020554635
0.00201415
0.0019726053
0.0019308912
0.001889187
0.0018474631
0.0018055395
0.0017634398
0.0017213408
0.0016790418
0.0016362418
0.0015929418
0.0015493339
0.0015052997
0.0014607356
0.0014157818
0.0013704116
0.0013244713
0.0012778728
0.0012306748
0.0011828686
0.0011344421
0.0010854106
0.0010356963
0.00098503225
0.00093347207
0.00088104176
0.00082777702
0.00077420288
0.00071986045
0.00066458865
0.00060924081
0.0005533895
0.00049723328
0.00044134667
0.00038724108
0.00033274181
0.00029375147
0.00023407245
0.0003667345
-0.00021813024
0.0049084787
0.0049389041
0.0049670064
0.004995323
0.0050263385
0.005062322
0.0051046632
0.0051540423
0.0052109567
0.0052753992
0.005345627
0.0054164139
0.0054771104
0.0055103635
0.0054949195
0.0054176769
0.0052861307
0.0051236026
0.0049512902
0.004778563
0.004607783
0.0044410583
0.0042810282
0.0041291992
0.0039855772
0.0038496812
0.0037215636
0.0036017801
0.0034907049
0.0033881295
0.0032936696
0.0032074108
0.0031296879
0.0030603577
0.0029986606
0.0029435758
0.0028940855
0.0028492514
0.0028082993
0.0027705642
0.0027353459
0.0027019905
0.0026699143
0.0026385508
0.0026074177
0.0025761722
0.0025446041
0.0025125497
0.0024798149
0.0024461647
0.0024113473
0.0023752077
0.0023377452
0.0022991438
0.0022596688
0.0022195356
0.0021790097
0.0021382261
0.0020972942
0.00205623
0.0020149106
0.0019733605
0.0019316415
0.0018899189
0.0018481703
0.0018062293
0.0017641125
0.0017219803
0.0016796473
0.0016368245
0.0015935069
0.0015498763
0.0015058249
0.0014612448
0.0014162647
0.0013708766
0.0013249291
0.0012783095
0.0012310449
0.0011831332
0.0011345982
0.001085429
0.0010356611
0.00098524464
0.00093402728
0.00088194966
0.00082896065
0.00077524665
0.00072069147
0.00066548171
0.00061006396
0.000554067
0.00049798673
0.00044220389
0.00038811639
0.00033362657
0.00029454922
0.00023470695
0.00036546322
-0.00021339278
0.0048894176
0.0049197953
0.0049485662
0.0049776687
0.0050090092
0.0050445257
0.00508555
0.0051327113
0.0051862607
0.0052458398
0.0053094534
0.0053719991
0.0054237785
0.0054498413
0.0054325758
0.0053608398
0.0052397718
0.0050882046
0.0049248484
0.0047592524
0.0045944698
0.0044326934
0.004276496
0.0041275561
0.0039862104
0.0038522297
0.0037257165
0.0036071757
0.0034969793
0.003395014
0.0033009849
0.0032149542
0.003137202
0.0030676113
0.0030055002
0.0029499145
0.0028998826
0.0028545013
0.0028130072
0.0027747378
0.0027390104
0.0027051788
0.0026726635
0.0026409098
0.0026094411
0.0025779113
0.0025460994
0.0025138334
0.0024809174
0.0024471192
0.0024121953
0.0023759929
0.0023385068
0.002299906
0.0022604421
0.0022203267
0.0021798109
0.0021390326
0.0020980955
0.0020570184
0.0020156923
0.0019741362
0.0019324113
0.0018906704
0.0018488977
0.0018069389
0.0017648038
0.0017226369
0.0016802692
0.0016374246
0.0015940911
0.0015504366
0.0015063633
0.0014617663
0.0014167645
0.0013713547
0.0013253868
0.0012787475
0.00123147
0.0011835528
0.0011349945
0.0010857634
0.0010358951
0.00098536397
0.00093400912
0.00088195848
0.00082926392
0.00077585428
0.00072158926
0.00066655877
0.0006109689
0.00055480104
0.00049875715
0.00044290381
0.00038871963
0.00033431927
0.00029520156
0.0002351662
0.00036362991
-0.00020787157
0.0048703345
0.004900518
0.0049296533
0.0049592125
0.0049906406
0.0050255583
0.0050651807
0.0051100597
0.0051602447
0.005215101
0.0052724694
0.0053274521
0.0053712869
0.0053910978
0.0053722331
0.0053052393
0.0051935335
0.0050522105
0.0048975746
0.0047390483
0.0045802384
0.004423458
0.0042712154
0.0041253133
0.0039863698
0.0038543912
0.0037295475
0.0036123129
0.0035030613
0.0034017617
0.0033082017
0.003222432
0.0031446863
0.0030748691
0.0030123706
0.0029563032
0.0029057423
0.0028598198
0.0028177859
0.0027789827
0.0027427441
0.0027084331
0.0026754753
0.0026433271
0.0026115176
0.0025796979
0.0025476374
0.0025151558
0.0024820553
0.0024481066
0.0024130737
0.0023768059
0.0023392936
0.0023006914
0.0022612375
0.0022211387
0.0021806329
0.0021398594
0.0020989171
0.0020578272
0.0020164939
0.0019749317
0.0019332005
0.0018914418
0.0018496449
0.0018076674
0.001765513
0.0017233118
0.0016809094
0.0016380428
0.0015946922
0.0015510126
0.0015069169
0.0014623042
0.0014172814
0.001371847
0.0013258563
0.0012791994
0.0012319062
0.0011839734
0.001135397
0.0010861556
0.0010362768
0.00098571131
0.00093429434
0.00088215113
0.00082933418
0.00077581402
0.00072168534
0.00066695826
0.00061161969
0.00055569582
0.00049971106
0.00044366029
0.00038936293
0.00033496727
0.00029562977
0.00023535468
0.00036109078
-0.00020147703
0.0048511503
0.0048810084
0.004910247
0.0049399731
0.0049712644
0.0050054489
0.0050435896
0.0050861417
0.0051329887
0.005183287
0.0052347877
0.0052828519
0.0053196143
0.0053339902
0.0053137444
0.0052508618
0.0051475146
0.00501572
0.0048695237
0.0047179831
0.0045651116
0.0044133578
0.0042651738
0.0041224456
0.0039860264
0.0038561387
0.0037330324
0.003617169
0.0035089282
0.0034083513
0.0033153016
0.0032298275
0.0031521256
0.0030821176
0.0030192606
0.0029627329
0.0029116578
0.0028652023
0.0028226326
0.0027832978
0.0027465474
0.002711755
0.002678352
0.0026458052
0.0026136499
0.002581535
0.0025492209
0.0025165194
0.0024832307
0.0024491284
0.0024139834
0.0023776473
0.002340106
0.0023015004
0.002262055
0.0022219716
0.0021814755
0.0021407064
0.0020997592
0.002058657
0.0020173163
0.0019757478
0.0019340102
0.0018922336
0.0018504126
0.0018084158
0.0017662415
0.0017240061
0.0016815688
0.001638679
0.0015953105
0.0015516054
0.0015074872
0.0014628581
0.0014178133
0.0013723534
0.0013263403
0.0012796662
0.0012323556
0.0011844054
0.0011358121
0.0010865559
0.001036658
0.00098607232
0.00093465125
0.000882497
0.00082963754
0.00077604612
0.00072182468
0.00066696265
0.00061160032
0.00055592377
0.00050021723
0.00044435506
0.00039018866
0.00033570858
0.00029606023
0.00023552658
0.0003577516
-0.00019414257
0.0048317951
0.0048612093
0.0048903266
0.0049199658
0.0049509126
0.004984232
0.0050208181
0.0050610167
0.0051045753
0.0051504995
0.0051965116
0.005238266
0.0052687393
0.0052783926
0.0052569734
0.0051976814
0.005101798
0.0049788306
0.0048407555
0.0046960923
0.004549114
0.0044024017
0.0042583615
0.0041189301
0.0039851522
0.0038574453
0.0037361468
0.0036217208
0.0035145574
0.0034147616
0.003322266
0.0032371247
0.0031595051
0.0030893437
0.0030261593
0.0029691948
0.0029176221
0.0028706435
0.0028275435
0.0027876801
0.002750418
0.0027151426
0.002681292
0.0026483428
0.0026158369
0.0025834214
0.0025508486
0.0025179229
0.0024844425
0.0024501837
0.0024149239
0.0023785168
0.0023409438
0.0023023329
0.0022628949
0.0022228259
0.0021823394
0.0021415745
0.0021006226
0.0020595086
0.0020181603
0.0019765855
0.0019348409
0.0018930466
0.0018512012
0.0018091845
0.0017669896
0.0017247199
0.0016822472
0.0016393335
0.0015959462
0.0015522154
0.0015080741
0.0014634279
0.0014183604
0.0013728746
0.0013268388
0.0012801467
0.001232818
0.0011848506
0.0011362406
0.0010869678
0.0010370503
0.00098644556
0.00093501295
0.00088284196
0.00082996831
0.00077637248
0.00072212876
0.00066721385
0.00061177334
0.00055598992
0.0005001683
0.00044442201
0.00039050506
0.00033621447
0.00029658906
0.00023576572
0.0003537709
-0.00018557826
0.0048122069
0.0048410703
0.0048698726
0.0048992041
0.0049296178
0.0049619469
0.0049969136
0.005034749
0.0050750887
0.0051168371
0.0051577364
0.0051937522
0.0052186402
0.0052241939
0.0052017947
0.005145664
0.0050564515
0.0049416353
0.004811334
0.0046734142
0.0045322718
0.0043906016
0.0042507726
0.0041147469
0.0039837209
0.0038582847
0.003738866
0.0036259449
0.0035199259
0.0034209707
0.0033290756
0.0032443063
0.0031668091
0.0030965333
0.0030330544
0.0029756786
0.0029236266
0.0028761366
0.0028325133
0.0027921255
0.002754353
0.0027185939
0.0026842939
0.0026509393
0.0026180785
0.0025853574
0.0025525213
0.0025193674
0.002485692
0.0024512739
0.0024158967
0.0023794159
0.0023418086
0.0023031902
0.0022637583
0.0022237025
0.0021832252
0.0021424642
0.0021015077
0.0020603823
0.002019026
0.0019774445
0.0019356925
0.0018938805
0.0018520108
0.0018099734
0.0017677572
0.0017254534
0.0016829449
0.0016400063
0.0015965996
0.0015528431
0.0015086781
0.0014640138
0.0014189235
0.0013734114
0.0013273523
0.0012806415
0.0012332941
0.0011853093
0.0011366817
0.0010873918
0.001037455
0.00098683091
0.00093538464
0.00088319763
0.00083030932
0.00077669927
0.00072243671
0.00066751333
0.00061206307
0.00055623915
0.00050034326
0.00044451142
0.00039044326
0.00033613164
0.00029658696
0.00023557737
0.00034914754
-0.00017555346
0.0047923315
0.0048205473
0.0048488679
0.0048777007
0.004907413
0.004938637
0.004971929
0.0050074064
0.005044614
0.005082395
0.0051185494
0.00514936
0.0051692949
0.0051712951
0.0051480939
0.0050947693
0.0050115292
0.0049042215
0.0047813256
0.0046499902
0.004514613
0.0043779719
0.0042424045
0.0041098791
0.0039817082
0.0038586309
0.0037411654
0.0036298172
0.0035250098
0.003426956
0.0033357101
0.0032513543
0.0031740208
0.0031036711
0.0030399329
0.0029821733
0.0029296625
0.0028816747
0.0028375367
0.00279663
0.0027583496
0.002722107
0.0026873565
0.002653594
0.0026203744
0.0025873432
0.0025542393
0.0025208534
0.0024869796
0.0024523995
0.0024169021
0.0023803448
0.0023427004
0.0023040723
0.002264645
0.0022246012
0.0021841328
0.0021433753
0.0021024143
0.0020612778
0.0020199134
0.0019783251
0.0019365653
0.0018947356
0.0018528416
0.001810783
0.001768545
0.001726207
0.0016836625
0.0016406983
0.0015972715
0.0015534888
0.0015092996
0.0014646165
0.0014195029
0.0013739641
0.001327881
0.0012811508
0.0012337845
0.0011857815
0.001137136
0.0010878285
0.001037872
0.00098722766
0.00093576731
0.00088356478
0.00083066054
0.00077703457
0.00072275544
0.00066781907
0.00061235064
0.00055650827
0.00050059977
0.0004447406
0.00039058433
0.00033616974
0.00029619505
0.00023506116
0.00034271323
-0.00016410123
0.0047721217
0.0047996029
0.0048272982
0.0048554684
0.004884332
0.0049143487
0.0049459214
0.0049790598
0.0050132361
0.0050472644
0.0050790306
0.005105132
0.0051206817
0.0051196079
0.0050957664
0.0050449537
0.0049670726
0.0048666695
0.004750798
0.004625865
0.0044961678
0.0043645293
0.0042332579
0.0041043129
0.0039790915
0.0038584591
0.0037430204
0.0036333138
0.0035297854
0.0034326945
0.0033421485
0.0032582499
0.0031811231
0.0031107416
0.0030467809
0.0029886673
0.00293572
0.00288725
0.0028426075
0.0028011887
0.0027624042
0.0027256794
0.0026904781
0.0026563057
0.0026227239
0.0025893785
0.0025560026