/*--------------------------------*- C++ -*----------------------------------*\
  =========                 |
  \\      /  F ield         | OpenFOAM: The Open Source CFD Toolbox
   \\    /   O peration     | Website:  https://openfoam.org
    \\  /    A nd           | Version:  12
     \\/     M anipulation  |
\*---------------------------------------------------------------------------*/
FoamFile
{
    format      ascii;
    class       surfaceScalarField;
    location    "100";
    object      phi;
}
// * * * * * * * * * * * * * * * * * * * * * * * * * * * * * * * * * * * * * //

dimensions      [0 3 -1 0 0 0 0];

internalField   nonuniform List<scalar> 
14782
(
0.00079839135
1.0677871e-06
-0.00079945913
0.00079695687
1.4344732e-06
0.00079532688
1.6299953e-06
0.00079362158
1.7053e-06
0.00079184145
1.7801311e-06
0.00078998539
1.856051e-06
0.00078805579
1.9296047e-06
0.00078604961
2.0061795e-06
0.00078395662
2.0929952e-06
0.00078177684
2.1797774e-06
0.00077943622
2.3406175e-06
0.00077704828
2.3879382e-06
0.00077347574
3.5725439e-06
0.00076714266
6.3330786e-06
0.00075821293
8.9297303e-06
0.00074748884
1.0724085e-05
0.00073583068
1.1658168e-05
0.00072363386
1.2196819e-05
0.00071118283
1.2451032e-05
0.00069872431
1.2458512e-05
0.00068640871
1.2315601e-05
0.0006743171
1.2091615e-05
0.00066239564
1.192146e-05
0.00065058845
1.180719e-05
0.00063898893
1.1599513e-05
0.00062774196
1.1246976e-05
0.00061705404
1.0687917e-05
0.00060700382
1.0050218e-05
0.00059753774
9.4660804e-06
0.00058868757
8.8501693e-06
0.00058050354
8.1840275e-06
0.00057301666
7.4868806e-06
0.00056623077
6.78589e-06
0.00056012719
6.1035857e-06
0.0005546688
5.4583935e-06
0.00054980464
4.8641549e-06
0.00054547641
4.3282308e-06
0.00054163318
3.8432317e-06
0.0005382312
3.4019729e-06
0.00053522265
3.0085558e-06
0.00053255439
2.6682636e-06
0.00053017155
2.3828346e-06
0.0005280244
2.1471499e-06
0.00052607382
1.9505793e-06
0.00052427683
1.7969955e-06
0.00052259086
1.6859643e-06
0.000520984
1.6068608e-06
0.00051942746
1.5565441e-06
0.00051789842
1.5290374e-06
0.00051637503
1.5233937e-06
0.00051483162
1.5434061e-06
0.0005132442
1.5874159e-06
0.00051160078
1.6434195e-06
0.00050990064
1.7001431e-06
0.00050814914
1.7514976e-06
0.00050635584
1.793303e-06
0.00050453154
1.8243013e-06
0.00050269097
1.8405685e-06
0.00050084691
1.8440591e-06
0.00049900443
1.8424858e-06
0.00049716624
1.8381891e-06
0.00049533449
1.8317462e-06
0.0004935143
1.8201889e-06
0.00049171067
1.8036326e-06
0.00048992618
1.7844879e-06
0.00048816342
1.7627597e-06
0.00048642663
1.7367897e-06
0.00048471829
1.7083368e-06
0.000483036
1.6822975e-06
0.00048137593
1.6600641e-06
0.0004797364
1.6395307e-06
0.00047811683
1.6195751e-06
0.00047651649
1.6003338e-06
0.00047493597
1.5805259e-06
0.00047337729
1.5586815e-06
0.00047184157
1.5357119e-06
0.0004703267
1.5148765e-06
0.0004688306
1.4960959e-06
0.00046735209
1.4785119e-06
0.00046589046
1.4616318e-06
0.00046444577
1.4446869e-06
0.00046301981
1.4259652e-06
0.00046161314
1.4066653e-06
0.00046022351
1.3896326e-06
0.00045884982
1.3736915e-06
0.00045749137
1.3584479e-06
0.00045614727
1.3441029e-06
0.00045481911
1.3281599e-06
0.00045350717
1.3119342e-06
0.00045220948
1.297695e-06
0.00045092511
1.2843692e-06
0.00044965326
1.2718453e-06
0.00044839364
1.2596206e-06
0.00044714641
1.2472334e-06
0.00044590869
1.2377154e-06
0.00044467753
1.23116e-06
0.00044344385
1.2336796e-06
0.00044217682
1.2670289e-06
0.00044095581
1.2210144e-06
1.4750023e-06
0.00082684463
1.0459656e-06
-0.00082682281
0.00082687609
1.4030136e-06
0.00082688127
1.6248222e-06
0.00082686332
1.7232477e-06
0.00082683212
1.8113323e-06
0.00082678358
1.9045843e-06
0.00082671706
1.9961305e-06
0.00082663022
2.093014e-06
0.0008265178
2.2054197e-06
0.00082636781
2.3297668e-06
0.00082616901
2.5394152e-06
0.0008257951
2.7618499e-06
0.00082536259
4.0050531e-06
0.00082486605
6.8296228e-06
0.00082390917
9.8866055e-06
0.00082224433
1.2388928e-05
0.00081980114
1.4101356e-05
0.00081665172
1.5346235e-05
0.00081286713
1.6235625e-05
0.00080849911
1.6826534e-05
0.00080356839
1.7246325e-05
0.00079810169
1.7558313e-05
0.00079222915
1.7793995e-05
0.00078605278
1.7983567e-05
0.00077959149
1.8060803e-05
0.00077286839
1.7970074e-05
0.00076586457
1.7691739e-05
0.00075863599
1.7278794e-05
0.00075129539
1.6806678e-05
0.00074390151
1.6244053e-05
0.00073650828
1.5577257e-05
0.00072916647
1.4828686e-05
0.00072192888
1.4023484e-05
0.0007148494
1.3183069e-05
0.00070797862
1.2329175e-05
0.00070136164
1.148113e-05
0.00069504627
1.0643599e-05
0.00068904964
9.8398666e-06
0.00068334767
9.1039386e-06
0.00067792751
8.4287189e-06
0.00067279158
7.8041918e-06
0.00066793976
7.2346502e-06
0.00066336256
6.7243555e-06
0.00065903795
6.2751842e-06
0.00065494527
5.8896779e-06
0.00065106697
5.564264e-06
0.00064738019
5.2936455e-06
0.00064386607
5.0706656e-06
0.00064051328
4.8818253e-06
0.00063728103
4.755645e-06
0.00063412544
4.6989874e-06
0.00063103999
4.6728677e-06
0.00062802664
4.6567773e-06
0.00062508756
4.639222e-06
0.00062222097
4.6180823e-06
0.0006194224
4.5918756e-06
0.00061668624
4.5604623e-06
0.00061400309
4.5237214e-06
0.00061136147
4.485672e-06
0.00060875581
4.4481471e-06
0.00060618633
4.4076664e-06
0.00060365457
4.3635079e-06
0.00060116341
4.3113531e-06
0.00059871514
4.2519017e-06
0.0005963101
4.189526e-06
0.00059394884
4.1240254e-06
0.00059163192
4.0537038e-06
0.00058935662
3.983635e-06
0.00058711785
3.9210696e-06
0.00058491264
3.865277e-06
0.00058274127
3.8108977e-06
0.00058060468
3.7561625e-06
0.0005785027
3.7023203e-06
0.00057643541
3.6478112e-06
0.0005744034
3.5906958e-06
0.00057240535
3.5337566e-06
0.00057043774
3.4824866e-06
0.00056849853
3.4353044e-06
0.00056658746
3.3895851e-06
0.00056470447
3.3446192e-06
0.00056284959
3.299573e-06
0.00056102338
3.2521693e-06
0.00055922485
3.2052025e-06
0.00055745121
3.1632733e-06
0.0005557014
3.1234969e-06
0.00055397521
3.0846392e-06
0.00055227218
3.0471302e-06
0.0005505929
3.0074396e-06
0.00054893654
2.9682957e-06
0.00054730091
2.9333302e-06
0.00054568502
2.9002571e-06
0.00054408851
2.8683525e-06
0.00054251073
2.8374042e-06
0.00054095142
2.8065408e-06
0.00053940556
2.7835724e-06
0.00053787557
2.7611557e-06
0.00053633498
2.7742635e-06
0.00053481859
2.7834195e-06
0.00053309147
2.9481359e-06
2.9513951e-06
0.00085447063
1.0423116e-06
-0.00085446697
0.00085448558
1.388058e-06
0.00085449726
1.6131434e-06
0.00085449095
1.7295578e-06
0.00085447135
1.8309364e-06
0.00085443835
1.937583e-06
0.00085438965
2.0448318e-06
0.00085432338
2.1592836e-06
0.00085423505
2.2937519e-06
0.00085411212
2.452691e-06
0.00085394446
2.7070733e-06
0.00085363871
3.0676011e-06
0.00085337006
4.2737051e-06
0.00085335562
6.8440648e-06
0.00085349377
9.7484542e-06
0.00085368792
1.2194776e-05
0.00085383073
1.3958547e-05
0.00085387627
1.5300695e-05
0.00085377015
1.6341745e-05
0.0008534727
1.7123989e-05
0.00085296973
1.774929e-05
0.0008522453
1.8282748e-05
0.0008512849
1.8754395e-05
0.00085007174
1.9196723e-05
0.00084854884
1.9583697e-05
0.00084662965
1.9889266e-05
0.00084421577
2.0105622e-05
0.000841253
2.0241568e-05
0.00083773989
2.0319785e-05
0.00083364734
2.0336605e-05
0.00082898071
2.0243883e-05
0.00082378278
2.0026615e-05
0.00081809656
1.9709707e-05
0.00081198236
1.9297269e-05
0.00080551862
1.8792916e-05
0.00079879869
1.8201061e-05
0.0007919231
1.751918e-05
0.00078499841
1.676456e-05
0.00077812607
1.597628e-05
0.00077138769
1.5167102e-05
0.00076484862
1.4343263e-05
0.00075855631
1.3526956e-05
0.00075250451
1.2776156e-05
0.00074666658
1.2113114e-05
0.00074105168
1.1504575e-05
0.00073567623
1.0939721e-05
0.00073055204
1.0417836e-05
0.00072567921
9.9434913e-06
0.00072103881
9.5222237e-06
0.00071660993
9.1845249e-06
0.00071237682
8.9320954e-06
0.0007083214
8.7282912e-06
0.00070442891
8.5492704e-06
0.00070068953
8.3786026e-06
0.00069708978
8.2178327e-06
0.00069361408
8.0675714e-06
0.00069024608
7.9284658e-06
0.00068695794
7.8118613e-06
0.00068373182
7.7117857e-06
0.0006805717
7.6082747e-06
0.00067747992
7.4994448e-06
0.00067445457
7.3888599e-06
0.0006714938
7.2721152e-06
0.00066859676
7.1489479e-06
0.00066576185
7.0244375e-06
0.00066298795
6.8979247e-06
0.00066027151
6.770136e-06
0.00065760487
6.6502747e-06
0.00065498259
6.5433513e-06
0.00065240412
6.4437486e-06
0.00064987112
6.3438979e-06
0.00064738453
6.2427522e-06
0.00064494368
6.143174e-06
0.00064254814
6.0433437e-06
0.00064019718
5.9416573e-06
0.00063788733
5.8436135e-06
0.00063561425
5.7555667e-06
0.00063337658
5.6729747e-06
0.00063117481
5.5913536e-06
0.00062900906
5.5103655e-06
0.00062687919
5.429445e-06
0.00062478487
5.3464908e-06
0.00062272379
5.2662778e-06
0.00062069287
5.1941966e-06
0.00061869132
5.1250456e-06
0.00061671926
5.0567024e-06
0.0006147764
4.9899854e-06
0.00061286271
4.9211349e-06
0.00061097649
4.8545126e-06
0.00060911537
4.794449e-06
0.00060727848
4.737151e-06
0.00060546568
4.6811505e-06
0.00060367609
4.6269901e-06
0.00060190904
4.5735893e-06
0.00060015851
4.5341084e-06
0.00059842889
4.4907774e-06
0.00059668683
4.5163245e-06
0.00059499332
4.476929e-06
0.00059298353
4.9579221e-06
4.509973e-06
0.00088301892
1.0500408e-06
-0.00088302665
0.00088303029
1.3766872e-06
0.00088303992
1.6035171e-06
0.00088303167
1.7378028e-06
0.00088301041
1.8522002e-06
0.00088297605
1.9719417e-06
0.00088292581
2.0950679e-06
0.00088285764
2.2274558e-06
0.0008827673
2.384095e-06
0.00088264305
2.5769392e-06
0.0008824738
2.876318e-06
0.00088220387
3.3375378e-06
0.00088195781
4.519759e-06
0.00088193411
6.8677716e-06
0.00088208447
9.5980885e-06
0.00088232768
1.1951569e-05
0.00088258795
1.3698274e-05
0.00088284866
1.5039992e-05
0.00088308874
1.6101665e-05
0.00088329262
1.6920103e-05
0.00088346222
1.7579689e-05
0.00088359894
1.8146029e-05
0.00088370125
1.8652085e-05
0.00088376904
1.9128937e-05
0.00088379494
1.9557801e-05
0.00088376397
1.9920233e-05
0.00088365579
2.0213796e-05
0.0008834443
2.0453061e-05
0.00088309849
2.0665595e-05
0.0008825808
2.0854301e-05
0.00088182037
2.1004313e-05
0.0008807272
2.1119786e-05
0.0008792235
2.1213404e-05
0.00087723044
2.1290331e-05
0.00087467089
2.1352461e-05
0.0008714746
2.1397352e-05
0.00086758192
2.1411857e-05
0.00086299156
2.1354926e-05
0.00085776078
2.1207058e-05
0.00085195698
2.0970906e-05
0.00084567187
2.0628365e-05
0.00083903471
2.0164121e-05
0.00083220247
1.9608394e-05
0.00082532247
1.8993118e-05
0.00081850949
1.8317549e-05
0.00081185375
1.7595458e-05
0.00080543031
1.684128e-05
0.00079923858
1.613522e-05
0.0007932403
1.5520501e-05
0.00078746629
1.495854e-05
0.00078195673
1.4441656e-05
0.00077672171
1.396331e-05
0.00077175208
1.3518897e-05
0.00076701801
1.3112679e-05
0.00076248494
1.2750904e-05
0.00075812945
1.2423057e-05
0.0007539356
1.2122315e-05
0.00074989314
1.1854321e-05
0.00074599419
1.1610741e-05
0.00074222479
1.1377671e-05
0.00073856948
1.1154757e-05
0.00073501392
1.0944415e-05
0.00073155025
1.073579e-05
0.00072817616
1.052304e-05
0.0007248884
1.0312197e-05
0.00072168258
1.0103745e-05
0.00071854675
9.9059653e-06
0.00071546796
9.7290633e-06
0.00071244608
9.5652286e-06
0.00070948497
9.4048549e-06
0.00070658555
9.2433264e-06
0.00070374675
9.0815476e-06
0.00070096663
8.9232987e-06
0.00069824409
8.7658829e-06
0.00069557605
8.6096912e-06
0.00069295599
8.4636732e-06
0.00069037981
8.3317473e-06
0.00068784797
8.2048147e-06
0.00068536158
8.0777495e-06
0.00068292034
7.9515977e-06
0.00068052367
7.8261154e-06
0.00067816986
7.7003044e-06
0.00067585493
7.5812119e-06
0.00067357582
7.4732987e-06
0.00067133249
7.3683804e-06
0.00066912533
7.2638651e-06
0.00066695403
7.1612808e-06
0.00066481768
7.0574882e-06
0.0006627135
6.9586859e-06
0.00066063908
6.8688705e-06
0.00065859386
6.7823778e-06
0.00065657791
6.6970922e-06
0.00065459002
6.6148827e-06
0.00065262887
6.5347463e-06
0.00065068774
6.4752331e-06
0.00064877224
6.406274e-06
0.00064684493
6.4436386e-06
0.00064498335
6.3385089e-06
0.00064273633
7.2049457e-06
6.1764917e-06
0.00091252396
1.0647287e-06
-0.00091253865
0.00091252952
1.3711228e-06
0.00091253348
1.5995566e-06
0.00091252197
1.7493146e-06
0.00091249778
1.8763871e-06
0.00091246113
2.0085988e-06
0.00091240919
2.1470081e-06
0.00091233935
2.2972887e-06
0.00091224743
2.4760178e-06
0.00091212266
2.7017065e-06
0.00091195617
3.0428118e-06
0.00091171299
3.5807188e-06
0.00091148886
4.7438841e-06
0.0009114573
6.8993326e-06
0.00091159777
9.4576214e-06
0.00091183065
1.1718693e-05
0.00091208697
1.344195e-05
0.00091234865
1.4778317e-05
0.00091259998
1.5850328e-05
0.0009128264
1.6693682e-05
0.00091302828
1.7377811e-05
0.00091320998
1.7964331e-05
0.00091337468
1.8487379e-05
0.00091352855
1.8975067e-05
0.00091367188
1.9414476e-05
0.00091380263
1.9789479e-05
0.00091391907
2.0097358e-05
0.00091401996
2.0352171e-05
0.00091410643
2.0579128e-05
0.0009141771
2.0783627e-05
0.00091422605
2.0955361e-05
0.00091424602
2.1099818e-05
0.00091422671
2.1232717e-05
0.00091415131
2.1365732e-05
0.00091399438
2.1509391e-05
0.00091371929
2.167244e-05
0.00091327014
2.1861001e-05
0.00091255151
2.2073557e-05
0.00091144778
2.2310788e-05
0.000909846
2.2572691e-05
0.00090762572
2.2848646e-05
0.00090466659
2.3123247e-05
0.00090090196
2.3373025e-05
0.00089635519
2.3539893e-05
0.000891094
2.3578737e-05
0.00088520581
2.3483645e-05
0.00087881935
2.3227744e-05
0.00087211284
2.2841726e-05
0.00086526432
2.2369021e-05
0.00085842258
2.1800286e-05
0.00085171148
2.1152749e-05
0.00084523462
2.0440177e-05
0.00083900928
1.9744237e-05
0.00083298766
1.9134291e-05
0.00082716922
1.8569351e-05
0.00082157592
1.8016353e-05
0.00081622854
1.7469692e-05
0.00081114273
1.6940138e-05
0.00080630082
1.6452651e-05
0.00080166002
1.601847e-05
0.00079719042
1.5624353e-05
0.00079287511
1.5259728e-05
0.00078870764
1.4903257e-05
0.00078468154
1.4549141e-05
0.00078078304
1.4210696e-05
0.00077699682
1.3889971e-05
0.00077331284
1.3589937e-05
0.00076972771
1.3314194e-05
0.00076623787
1.3055077e-05
0.00076283725
1.2805471e-05
0.00075951944
1.2561131e-05
0.00075627997
1.2321026e-05
0.0007531158
1.2087465e-05
0.00075002494
1.1856741e-05
0.00074699959
1.1635046e-05
0.0007440295
1.1433758e-05
0.00074111393
1.1247314e-05
0.00073825632
1.1062424e-05
0.00073545708
1.0876994e-05
0.00073271452
1.0694153e-05
0.00073002724
1.0513399e-05
0.00072739112
1.0336421e-05
0.00072480014
1.0172197e-05
0.00072225241
1.0021029e-05
0.00071974905
9.8717401e-06
0.00071729044
9.7224792e-06
0.00071487587
9.5758495e-06
0.00071250292
9.4304393e-06
0.00071016744
9.2941667e-06
0.00070786743
9.1688743e-06
0.00070560292
9.0468926e-06
0.0007033741
8.9259058e-06
0.00070117907
8.8099189e-06
0.00069901554
8.6982768e-06
0.00069687636
8.614413e-06
0.00069476816
8.5144727e-06
0.00069265044
8.5613561e-06
0.00069061373
8.3752162e-06
0.00068813479
9.6838888e-06
7.9684335e-06
0.00094301466
1.0851411e-06
-0.00094303507
0.00094301353
1.3722515e-06
0.00094301232
1.600764e-06
0.00094299846
1.7631771e-06
0.00094297235
1.9024934e-06
0.0009429342
2.0467494e-06
0.00094288123
2.1999781e-06
0.00094281037
2.3681539e-06
0.00094271749
2.5688964e-06
0.00094259338
2.8258106e-06
0.00094243101
3.20519e-06
0.00094221035
3.8013742e-06
0.00094200835
4.9458834e-06
0.00094197302
6.934665e-06
0.00094210346
9.3271749e-06
0.00094232583
1.1496325e-05
0.00094257541
1.3192369e-05
0.00094283109
1.4522642e-05
0.00094307872
1.5602697e-05
0.00094330467
1.6467732e-05
0.00094350845
1.7174026e-05
0.00094369414
1.7778648e-05
0.00094386446
1.8317055e-05
0.00094402518
1.881435e-05
0.0009441771
1.926256e-05
0.00094431876
1.9647813e-05
0.00094444813
1.996799e-05
0.00094456456
2.0235739e-05
0.0009446702
2.0473488e-05
0.00094476623
2.0687605e-05
0.00094485177
2.0869818e-05
0.00094492672
2.102487e-05
0.00094499174
2.1167699e-05
0.00094504738
2.1310086e-05
0.00094509415
2.146262e-05
0.000945132
2.1634591e-05
0.00094515967
2.1833335e-05
0.00094517252
2.2060702e-05
0.0009451623
2.2321012e-05
0.00094511493
2.2620062e-05
0.00094500536
2.2958209e-05
0.00094479083
2.3337785e-05
0.00094440413
2.3759724e-05
0.00094372453
2.4219494e-05
0.00094259488
2.4708379e-05
0.00094086494
2.5213588e-05
0.00093837828
2.5714402e-05
0.00093503428
2.6185725e-05
0.00093083799
2.656531e-05
0.00092585149
2.6786787e-05
0.00092016872
2.6835523e-05
0.00091392907
2.667982e-05
0.00090732851
2.6344799e-05
0.00090056911
2.5893688e-05
0.00089381415
2.532432e-05
0.00088718287
2.4647631e-05
0.00088077052
2.3882039e-05
0.00087458315
2.3127508e-05
0.00086856769
2.2468108e-05
0.00086273569
2.1850476e-05
0.00085712279
2.1237252e-05
0.00085175522
2.0627294e-05
0.00084662639
2.0032087e-05
0.00084169837
1.9477164e-05
0.00083694168
1.8967387e-05
0.00083234113
1.849052e-05
0.0008278999
1.8031172e-05
0.0008236249
1.7589188e-05
0.000819502
1.717798e-05
0.00081550876
1.6798708e-05
0.0008116308
1.6439092e-05
0.00080786294
1.6088887e-05
0.00080420049
1.5749917e-05
0.00080063592
1.5421306e-05
0.0007971617
1.5109269e-05
0.000793773
1.4822456e-05
0.00079046619
1.4554131e-05
0.00078723771
1.4290897e-05
0.0007840837
1.403101e-05
0.00078100034
1.3777509e-05
0.00077798528
1.352846e-05
0.00077503043
1.329127e-05
0.00077212813
1.3074499e-05
0.00076927994
1.2869214e-05
0.00076648793
1.2663758e-05
0.00076375146
1.2458947e-05
0.00076106893
1.2258382e-05
0.00075843549
1.2063871e-05
0.00075584563
1.1884027e-05
0.0007532988
1.1715709e-05
0.0007507956
1.1550093e-05
0.00074833602
1.1385488e-05
0.00074591689
1.1229044e-05
0.00074353471
1.1080459e-05
0.00074118224
1.0966879e-05
0.00073886724
1.0829475e-05
0.00073654635
1.0882242e-05
0.00073432164
1.0599933e-05
0.00073160246
1.2403071e-05
9.9018202e-06
0.00097452363
1.1101647e-06
-0.00097454866
0.00097451631
1.3795767e-06
0.00097451046
1.6066102e-06
0.00097449413
1.7795124e-06
0.00097446589
1.9307262e-06
0.00097442584
2.0868018e-06
0.00097437141
2.2544087e-06
0.00097429932
2.4402423e-06
0.00097420566
2.6625631e-06
0.00097408278
2.9486824e-06
0.00097392549
3.362484e-06
0.00097372469
4.0021711e-06
0.00097354359
5.1269922e-06
0.00097350682
6.9714312e-06
0.00097362728
9.2067148e-06
0.00097383989
1.128371e-05
0.00097408355
1.2948718e-05
0.00097433495
1.4271234e-05
0.00097458096
1.5356695e-05
0.00097480828
1.624041e-05
0.00097501489
1.6967412e-05
0.00097520358
1.7589962e-05
0.00097537719
1.8143446e-05
0.00097554054
1.8651e-05
0.00097569445
1.9108648e-05
0.00097583778
1.9504486e-05
0.00097596912
1.9836643e-05
0.00097608819
2.0116669e-05
0.00097619701
2.0364666e-05
0.0009762968
2.0587823e-05
0.00097638669
2.077992e-05
0.00097646665
2.0944916e-05
0.00097653745
2.1096892e-05
0.0009765996
2.1247946e-05
0.00097665385
2.1408365e-05
0.00097670128
2.1587156e-05
0.00097674315
2.1791471e-05
0.00097678023
2.2023616e-05
0.00097681331
2.2287936e-05
0.00097684331
2.2590064e-05
0.0009768705
2.2931012e-05
0.00097689466
2.3313629e-05
0.00097691418
2.37402e-05
0.00097692378
2.4209898e-05
0.00097691149
2.4720667e-05
0.00097685601
2.5269071e-05
0.0009767174
2.5853012e-05
0.00097643232
2.647081e-05
0.00097587827
2.7119359e-05
0.00097487422
2.7790837e-05
0.00097323983
2.8469905e-05
0.00097079091
2.9128742e-05
0.00096741086
2.9724853e-05
0.0009631325
3.017205e-05
0.00095805434
3.0402476e-05
0.00095229597
3.0405998e-05
0.00094602632
3.0151692e-05
0.00093945769
2.9696138e-05
0.00093278736
2.9138438e-05
0.00092615683
2.8481011e-05
0.00091966804
2.7726033e-05
0.00091339433
2.6901012e-05
0.00090729501
2.6131402e-05
0.00090131439
2.5457782e-05
0.00089549782
2.4783964e-05
0.00088989459
2.4093743e-05
0.00088452056
2.3405207e-05
0.00087935288
2.2756869e-05
0.00087436806
2.2162793e-05
0.00086955384
2.161293e-05
0.00086490775
2.1085184e-05
0.00086042629
2.0570343e-05
0.00085609539
2.0080814e-05
0.0008518972
1.9619504e-05
0.00084782636
1.9180104e-05
0.00084388705
1.8761768e-05
0.00084007121
1.836997e-05
0.00083636438
1.7997733e-05
0.00083275659
1.7638793e-05
0.00082924205
1.7292052e-05
0.00082581587
1.6954639e-05
0.00082247305
1.6634087e-05
0.00081920872
1.6338831e-05
0.00081601878
1.6059156e-05
0.00081290052
1.5782016e-05
0.00080985084
1.5508633e-05
0.00080686678
1.5242441e-05
0.00080393994
1.4990713e-05
0.00080106416
1.47598e-05
0.00079824198
1.4537887e-05
0.00079547393
1.4318152e-05
0.00079275908
1.4100337e-05
0.00079009229
1.3895828e-05
0.00078746871
1.3704044e-05
0.00078488173
1.3553853e-05
0.00078234031
1.3370895e-05
0.00077979795
1.3424607e-05
0.00077736759
1.3030289e-05
0.0007743914
1.5379261e-05
1.1993766e-05
0.0010070849
1.1388346e-06
-0.0010071136
0.001007072
1.3924872e-06
0.0010070616
1.6169963e-06
0.0010070425
1.7986053e-06
0.0010070121
1.9611348e-06
0.0010069702
2.1287023e-06
0.0010069145
2.3101263e-06
0.0010068416
2.5131171e-06
0.0010067479
2.7563059e-06
0.0010066271
3.0694261e-06
0.001006476
3.5136122e-06
0.0010062931
4.1851162e-06
0.0010061313
5.2887958e-06
0.001006095
7.0076734e-06
0.0010062061
9.0956936e-06
0.0010064091
1.1080665e-05
0.0010066466
1.2711249e-05
0.0010068936
1.4024193e-05
0.0010071377
1.5112641e-05
0.0010073662
1.6011883e-05
0.0010075756
1.675803e-05
0.0010077677
1.7397852e-05
0.0010079452
1.7965958e-05
0.0010081121
1.8484099e-05
0.0010082693
1.8951368e-05
0.0010084159
1.9357907e-05
0.0010085505
1.9702108e-05
0.0010086726
1.999448e-05
0.0010087842
2.0253073e-05
0.0010088864
2.0485621e-05
0.0010089786
2.0687779e-05
0.0010090605
2.0863038e-05
0.0010091328
2.1024529e-05
0.0010091965
2.1184309e-05
0.0010092524
2.1352451e-05
0.0010093018
2.1537758e-05
0.0010093459
2.174731e-05
0.0010093856
2.1983943e-05
0.0010094218
2.2251785e-05
0.0010094554
2.2556447e-05
0.0010094868
2.2899567e-05
0.0010095167
2.3283716e-05
0.0010095458
2.3711164e-05
0.0010095745
2.4181189e-05
0.0010096032
2.4691976e-05
0.0010096318
2.5240474e-05
0.0010096599
2.582491e-05
0.001009686
2.6444648e-05
0.0010097055
2.7099858e-05
0.0010097059
2.7790488e-05
0.001009663
2.8512744e-05
0.0010095307
2.9261126e-05
0.0010092284
3.0027135e-05
0.0010085995
3.0800929e-05
0.0010074317
3.1570286e-05
0.0010055256
3.2312066e-05
0.0010026779
3.2999394e-05
0.00099882471
3.3549351e-05
0.0009940866
3.3876551e-05
0.00098861179
3.3955821e-05
0.00098256554
3.3772277e-05
0.00097615188
3.3314675e-05
0.00096958022
3.2703058e-05
0.00096300301
3.2035001e-05
0.00095651237
3.1274601e-05
0.00095019379
3.0412321e-05
0.00094402392
2.957508e-05
0.0009379379
2.8842883e-05
0.00093198267
2.8118027e-05
0.00092622587
2.7369734e-05
0.00092069129
2.6619762e-05
0.00091535295
2.590868e-05
0.00091018772
2.5246042e-05
0.00090518912
2.461811e-05
0.00090036191
2.4007308e-05
0.00089570869
2.341499e-05
0.000891217
2.2861658e-05
0.0008868712
2.2343532e-05
0.0008826623
2.1847699e-05
0.00087858363
2.1370719e-05
0.00087462464
2.0913635e-05
0.00087078187
2.0476855e-05
0.00086705462
2.0066081e-05
0.00086343269
1.9681083e-05
0.00085990613
1.9308573e-05
0.00085646776
1.8947002e-05
0.00085311215
1.8598056e-05
0.00084983517
1.8267697e-05
0.00084663236
1.7962606e-05
0.00084349956
1.7670686e-05
0.00084043381
1.7383906e-05
0.00083743256
1.7101582e-05
0.00083448784
1.6840554e-05
0.00083159375
1.6598125e-05
0.0008287455
1.6402108e-05
0.00082595297
1.6163425e-05
0.00082316574
1.6211839e-05
0.0008205075
1.5688531e-05
0.00081725082
1.8635939e-05
1.42636e-05
0.0010407336
1.1704338e-06
-0.0010407652
0.0010407157
1.4104024e-06
0.0010407009
1.6317985e-06
0.001040679
1.8205428e-06
0.0010406465
1.9936269e-06
0.0010406029
2.1723204e-06
0.001040546
2.3670099e-06
0.0010404726
2.5865374e-06
0.0010403792
2.8497033e-06
0.0010402611
3.187525e-06
0.0010401166
3.65804e-06
0.0010399497
4.352079e-06
0.0010398055
5.4330233e-06
0.0010397712
7.0419115e-06
0.0010398736
8.9933302e-06
0.0010400672
1.0887085e-05
0.0010402982
1.2480184e-05
0.0010405408
1.3781579e-05
0.0010407827
1.487078e-05
0.001041012
1.5782569e-05
0.0010412239
1.6546128e-05
0.0010414194
1.7202406e-05
0.0010416007
1.7784649e-05
0.0010417712
1.8313543e-05
0.0010419321
1.8790522e-05
0.0010420822
1.9207763e-05
0.0010422204
1.9563951e-05
0.0010423462
1.9868633e-05
0.0010424612
2.0138048e-05
0.0010425666
2.0380263e-05
0.0010426618
2.0592607e-05
0.0010427465
2.0778295e-05
0.0010428215
2.0949537e-05
0.0010428876
2.1118256e-05
0.0010429457
2.1294341e-05
0.001042997
2.1486397e-05
0.0010430429
2.170144e-05
0.0010430841
2.1942775e-05
0.0010431214
2.2214466e-05
0.0010431559
2.2521928e-05
0.0010431883
2.28672e-05
0.0010432193
2.3252736e-05
0.0010432497
2.3680765e-05
0.0010432801
2.4150794e-05
0.001043311
2.4661036e-05
0.0010433427
2.5208797e-05
0.001043375
2.5792537e-05
0.001043408
2.6411707e-05
0.0010434416
2.7066257e-05
0.0010434762
2.7755901e-05
0.0010435116
2.8477351e-05
0.0010435471
2.9225595e-05
0.0010435808
2.999343e-05
0.0010436053
3.0776419e-05
0.0010436027
3.1572881e-05
0.0010435365
3.2378291e-05
0.0010433418
3.3194055e-05
0.0010428754
3.4015783e-05
0.0010419148
3.4837118e-05
0.001040229
3.5641624e-05
0.0010376034
3.6397873e-05
0.0010339017
3.7016381e-05
0.0010292194
3.7385428e-05
0.001023782
3.7472314e-05
0.0010177787
3.7277939e-05
0.0010114138
3.6777179e-05
0.0010048894
3.6099564e-05
0.00099834576
3.538648e-05
0.00099186416
3.4599628e-05
0.00098552565
3.3708246e-05
0.0009793057
3.2839717e-05
0.00097314507
3.2069302e-05
0.00096710238
3.1288731e-05
0.00096124763
3.0472868e-05
0.00095559624
2.9658692e-05
0.00095012365
2.8887579e-05
0.00094482113
2.8164178e-05
0.00093969487
2.7469794e-05
0.00093474816
2.6794413e-05
0.00092997184
2.6147037e-05
0.00092534988
2.5535592e-05
0.00092087603
2.4950703e-05
0.00091655158
2.4390533e-05
0.000912368
2.3864666e-05
0.00090831226
2.3364311e-05
0.00090437492
2.2884346e-05
0.00090054755
2.2425422e-05
0.0008968293
2.1985945e-05
0.00089321747
2.1574439e-05
0.00088970037
2.1187783e-05
0.00088626994
2.0814341e-05
0.00088292016
2.0451353e-05
0.00087964528
2.0115439e-05
0.0008764417
1.9801705e-05
0.00087329981
1.9544002e-05
0.00087022619
1.923704e-05
0.0008671653
1.9272727e-05
0.00086425192
1.8601912e-05
0.000860685
2.2202865e-05
1.6733613e-05
0.0010755061
1.2044475e-06
-0.0010755401
0.0010754838
1.4327525e-06
0.0010754647
1.650807e-06
0.0010754399
1.845339e-06
0.0010754054
2.0281457e-06
0.0010753602
2.2175659e-06
0.0010753022
2.4249606e-06
0.0010752285
2.6602686e-06
0.0010751359
2.9423101e-06
0.001075021
3.3024459e-06
0.0010748837
3.7953128e-06
0.0010747313
4.5044509e-06
0.0010746032
5.5611693e-06
0.0010745721
7.0729731e-06
0.0010746668
8.8986325e-06
0.0010748511
1.0702768e-05
0.0010750757
1.225567e-05
0.0010753138
1.3543437e-05
0.0010755532
1.4631328e-05
0.0010757829
1.5552899e-05
0.001075997
1.6332009e-05
0.0010761956
1.7003828e-05
0.0010763806
1.75997e-05
0.0010765547
1.813941e-05
0.001076719
1.8626176e-05
0.0010768727
1.9054101e-05
0.0010770144
1.9422208e-05
0.0010771439
1.973915e-05
0.0010772624
2.0019571e-05
0.001077371
2.02717e-05
0.0010774692
2.0494335e-05
0.001077557
2.0690567e-05
0.0010776348
2.0871728e-05
0.0010777035
2.1049537e-05
0.0010777641
2.1233725e-05
0.0010778178
2.1432712e-05
0.0010778658
2.1653447e-05
0.0010779089
2.1899642e-05
0.0010779481
2.2175341e-05
0.0010779842
2.2485776e-05
0.0010780181
2.2833327e-05
0.0010780504
2.3220377e-05
0.0010780821
2.3649117e-05
0.0010781136
2.4119274e-05
0.0010781454
2.462921e-05
0.0010781778
2.5176446e-05
0.0010782108
2.5759483e-05
0.0010782448
2.6377772e-05
0.0010782798
2.7031196e-05
0.0010783164
2.7719301e-05
0.0010783549
2.843889e-05
0.0010783952
2.9185316e-05
0.0010784365
2.9952098e-05
0.0010784784
3.0734521e-05
0.0010785207
3.1530619e-05
0.0010785623
3.2336665e-05
0.0010786022
3.3154124e-05
0.0010786357
3.3982324e-05
0.001078648
3.4824797e-05
0.0010786045
3.5685166e-05
0.0010784427
3.6559659e-05
0.0010780137
3.7445367e-05
0.0010770708
3.8328289e-05
0.0010753542
3.9188927e-05
0.0010726335
3.9998633e-05
0.0010687756
4.063506e-05
0.0010638998
4.0975407e-05
0.0010582826
4.1003696e-05
0.001052158
4.0724158e-05
0.0010457391
4.0127184e-05
0.0010392067
3.9372117e-05
0.0010326717
3.8604349e-05
0.0010262012
3.7759194e-05
0.0010198538
3.6820285e-05
0.0010135837
3.592881e-05
0.0010073535
3.5117701e-05
0.0010012504
3.4267282e-05
0.00099533098
3.3389252e-05
0.0009895943
3.2531095e-05
0.00098402759
3.1713739e-05
0.00097863268
3.0930508e-05
0.00097341708
3.0166303e-05
0.0009683815
2.942611e-05
0.0009635152
2.8730973e-05
0.00095880913
2.8070378e-05
0.0009542588
2.7434679e-05
0.00094985346
2.6830758e-05
0.00094558555
2.625386e-05
0.00094145231
2.570767e-05
0.00093744516
2.5194938e-05
0.00093355325
2.4706255e-05
0.00092976644
2.4238157e-05
0.00092608128
2.38006e-05
0.00092249651
2.3386471e-05
0.00091899653
2.3043989e-05
0.00091558298
2.2650585e-05
0.00091219401
2.26617e-05
0.00090898315
2.1812769e-05
0.0009050694
2.6116616e-05
1.9429858e-05
0.0011114399
1.2404986e-06
-0.0011114759
0.0011114136
1.4590017e-06
0.0011113907
1.6737611e-06
0.001111363
1.8729705e-06
0.0011113265
2.0646414e-06
0.0011112798
2.2643244e-06
0.0011112209
2.4838268e-06
0.0011111471
2.7340414e-06
0.0011110558
3.033687e-06
0.0011109445
3.4137292e-06
0.0011108146
3.9251607e-06
0.0011106757
4.6434212e-06
0.0011105622
5.6746829e-06
0.001110535
7.1001155e-06
0.001110623
8.8106074e-06
0.0011107983
1.0527467e-05
0.0011110162
1.2037852e-05
0.0011112497
1.3309858e-05
0.0011114866
1.4394495e-05
0.0011117162
1.5323275e-05
0.0011119322
1.6115988e-05
0.0011121337
1.6802322e-05
0.0011123221
1.7411272e-05
0.0011124998
1.7961762e-05
0.0011126676
1.8458355e-05
0.0011128248
1.8896924e-05
0.0011129701
1.9276859e-05
0.0011131033
1.9606006e-05
0.0011132253
1.9897587e-05
0.0011133371
2.0159859e-05
0.0011134386
2.0392893e-05
0.0011135293
2.0599772e-05
0.0011136101
2.0791013e-05
0.0011136815
2.0978064e-05
0.0011137447
2.1170513e-05
0.0011138009
2.1376609e-05
0.0011138511
2.1603231e-05
0.0011138963
2.1854435e-05
0.0011139373
2.2134283e-05
0.0011139753
2.2447839e-05
0.0011140108
2.279777e-05
0.0011140448
2.3186432e-05
0.0011140779
2.3615978e-05
0.0011141108
2.4086337e-05
0.001114144
2.4596033e-05
0.0011141777
2.51428e-05
0.001114212
2.5725187e-05
0.0011142471
2.634264e-05
0.0011142833
2.699499e-05
0.0011143209
2.7681697e-05
0.0011143601
2.8399704e-05
0.0011144009
2.9144467e-05
0.0011144432
2.9909796e-05
0.0011144868
3.0691011e-05
0.0011145314
3.1485935e-05
0.001114577
3.2291096e-05
0.0011146231
3.3108055e-05
0.0011146688
3.3936641e-05
0.0011147139
3.4779624e-05
0.0011147584
3.5640709e-05
0.0011148011
3.6516973e-05
0.0011148381
3.740835e-05
0.0011148538
3.8312562e-05
0.0011148081
3.9234631e-05
0.0011146294
4.0177399e-05