/*--------------------------------*- C++ -*----------------------------------*\
  =========                 |
  \\      /  F ield         | OpenFOAM: The Open Source CFD Toolbox
   \\    /   O peration     | Website:  https://openfoam.org
    \\  /    A nd           | Version:  12
     \\/     M anipulation  |
\*---------------------------------------------------------------------------*/
FoamFile
{
    format      ascii;
    class       surfaceScalarField;
    location    "100";
    object      phi;
}
// * * * * * * * * * * * * * * * * * * * * * * * * * * * * * * * * * * * * * //

dimensions      [0 3 -1 0 0 0 0];

internalField   nonuniform List<scalar> 
25880
(
2.0046505e-06
3.6564107e-12
2.0046421e-06
8.3961365e-12
2.0046319e-06
1.0215523e-11
2.0046206e-06
1.1281095e-11
2.0046079e-06
1.2720022e-11
2.0045933e-06
1.4558189e-11
2.0045766e-06
1.6765487e-11
2.0045572e-06
1.938021e-11
2.0045347e-06
2.2491407e-11
2.0045085e-06
2.6226436e-11
2.0044777e-06
3.0754537e-11
2.0044414e-06
3.6310742e-11
2.0043982e-06
4.3232595e-11
2.0043461e-06
5.2052018e-11
2.0042826e-06
6.3547196e-11
2.0042033e-06
7.9253468e-11
2.0041023e-06
1.0099393e-10
2.0039667e-06
1.3557561e-10
2.0037822e-06
1.8457429e-10
2.0034825e-06
2.9965001e-10
2.0030492e-06
4.3326775e-10
2.0017285e-06
1.3207792e-09
2.001389e-06
3.3941871e-10
1.0277933e-06
9.735958e-07
3.9397487e-08
9.8839576e-07
2.5124571e-08
1.4272917e-08
2.456985e-08
5.5472132e-10
2.417301e-08
3.9683952e-10
2.3457015e-08
7.159948e-10
2.2693122e-08
7.6389289e-10
2.1993919e-08
6.9920359e-10
2.1381247e-08
6.1267193e-10
2.0848272e-08
5.3297446e-10
2.0382187e-08
4.6608535e-10
1.9970591e-08
4.1159602e-10
1.960369e-08
3.6690095e-10
1.9274017e-08
3.2967314e-10
1.8975633e-08
2.9838359e-10
1.870367e-08
2.7196343e-10
1.8454248e-08
2.4942159e-10
1.8224358e-08
2.2988988e-10
1.8011544e-08
2.1281447e-10
1.7813748e-08
1.9779566e-10
1.7629256e-08
1.8449231e-10
1.745659e-08
1.7266646e-10
1.7294506e-08
1.6208366e-10
1.7141946e-08
1.5256009e-10
1.6997977e-08
1.4396895e-10
1.6861796e-08
1.3618092e-10
1.6732697e-08
1.2909928e-10
1.6610057e-08
1.2263931e-10
1.6493352e-08
1.1670535e-10
1.6382109e-08
1.1124256e-10
1.6275886e-08
1.0622386e-10
1.6174293e-08
1.0159208e-10
1.6077004e-08
9.7289219e-11
1.5983719e-08
9.3285607e-11
1.589415e-08
8.9568357e-11
1.580804e-08
8.6110654e-11
1.5725169e-08
8.2870516e-11
1.5645342e-08
7.9827292e-11
1.5568362e-08
7.6979356e-11
1.5494048e-08
7.4314216e-11
1.5422242e-08
7.1806647e-11
1.5352795e-08
6.9446946e-11
1.5285565e-08
6.7229783e-11
1.5220422e-08
6.5143056e-11
1.5157252e-08
6.3169904e-11
1.5095952e-08
6.1299585e-11
1.5036421e-08
5.9530874e-11
1.497856e-08
5.7861111e-11
1.4922273e-08
5.6287235e-11
1.4867472e-08
5.4801403e-11
1.4814078e-08
5.3394023e-11
1.476202e-08
5.2057761e-11
1.4711228e-08
5.0791946e-11
1.4661632e-08
4.9596285e-11
1.4613162e-08
4.8469215e-11
1.4565757e-08
4.7405944e-11
1.4519359e-08
4.6397537e-11
1.4473916e-08
4.5442723e-11
1.4429371e-08
4.4544919e-11
1.4385669e-08
4.3702685e-11
1.4342755e-08
4.2913905e-11
1.4300578e-08
4.2176476e-11
1.4259092e-08
4.1486038e-11
1.4218253e-08
4.0839318e-11
1.4178014e-08
4.0239008e-11
1.413833e-08
3.9683502e-11
1.4099164e-08
3.9166728e-11
1.4060474e-08
3.8690065e-11
1.4022221e-08
3.8252343e-11
1.3984362e-08
3.7859205e-11
1.3946852e-08
3.7510478e-11
1.3909653e-08
3.7198731e-11
1.3872733e-08
3.6919471e-11
1.3836061e-08
3.6671992e-11
1.3799599e-08
3.6462771e-11
1.3763308e-08
3.6290397e-11
1.3727154e-08
3.6154603e-11
1.3691099e-08
3.6055071e-11
1.3655103e-08
3.5995671e-11
1.3619128e-08
3.5975243e-11
1.358314e-08
3.5987379e-11
1.3547104e-08
3.6036287e-11
1.3510982e-08
3.6121945e-11
1.3474736e-08
3.624578e-11
1.3438324e-08
3.6411728e-11
1.3401713e-08
3.6611225e-11
1.3364866e-08
3.6847598e-11
1.3327746e-08
3.711991e-11
1.3290354e-08
3.7392086e-11
1.3252518e-08
3.7835973e-11
1.3215576e-08
3.694121e-11
1.3180373e-08
3.5203116e-11
1.3146881e-08
3.3492771e-11
1.3115039e-08
3.1841749e-11
1.3084769e-08
3.0269994e-11
1.3055993e-08
2.8775912e-11
1.3028639e-08
2.7354032e-11
1.3002639e-08
2.6000079e-11
1.2977927e-08
2.4711926e-11
1.2954438e-08
2.348872e-11
1.293211e-08
2.2328485e-11
1.2910882e-08
2.1227783e-11
1.2890695e-08
2.018701e-11
1.2871491e-08
1.9203762e-11
1.2853217e-08
1.827418e-11
1.2835817e-08
1.7399852e-11
1.2819242e-08
1.6575321e-11
1.280342e-08
1.5821701e-11
1.2788358e-08
1.5062251e-11
1.2773729e-08
1.4629135e-11
1.2760269e-08
1.3460067e-11
1.2744337e-08
1.5931234e-11
9.9438192e-12
2.0345242e-06
7.5314826e-12
2.0345153e-06
1.7315384e-11
2.0345044e-06
2.1080676e-11
2.0344924e-06
2.3274112e-11
2.0344789e-06
2.6236301e-11
2.0344634e-06
3.0016824e-11
2.0344457e-06
3.4549763e-11
2.0344251e-06
3.9913497e-11
2.0344013e-06
4.6291e-11
2.0343736e-06
5.3942639e-11
2.0343411e-06
6.321355e-11
2.0343029e-06
7.4582825e-11
2.0342574e-06
8.8738546e-11
2.0342027e-06
1.0676506e-10
2.034136e-06
1.3024795e-10
2.0340529e-06
1.6231567e-10
2.0339472e-06
2.0667633e-10
2.0338056e-06
2.7719511e-10
2.0336131e-06
3.7701624e-10
2.0333015e-06
6.1131793e-10
2.0328515e-06
8.8324558e-10
2.0314802e-06
2.6920565e-09
2.0311126e-06
7.0701216e-10
1.0947949e-06
1.9099135e-06
1.1801534e-07
1.9651753e-06
7.6889166e-08
5.5399086e-08
7.519432e-08
2.2495677e-09
7.3979579e-08
1.6115804e-09
7.1788673e-08
2.9069011e-09
6.945215e-08
3.1004152e-09
6.7314403e-08
2.8369507e-09
6.544064e-08
2.4864349e-09
6.3810134e-08
2.1634807e-09
6.2384103e-08
1.8921168e-09
6.1124734e-08
1.6709651e-09
6.0002064e-08
1.4895708e-09
5.8993244e-08
1.3384935e-09
5.8080108e-08
1.2115189e-09
5.7247769e-08
1.1043027e-09
5.6484379e-08
1.0128112e-09
5.5780748e-08
9.3352094e-10
5.5129357e-08
8.6420533e-10
5.4523921e-08
8.0323263e-10
5.3959176e-08
7.4923661e-10
5.3430618e-08
7.0122504e-10
5.2934443e-08
6.5825784e-10
5.2467403e-08
6.1960047e-10
5.2026656e-08
5.8471599e-10
5.160974e-08
5.5309672e-10
5.1214485e-08
5.2435455e-10
5.0839002e-08
4.9812207e-10
5.0481681e-08
4.7402643e-10
5.0141069e-08
4.5185501e-10
4.9815811e-08
4.3148102e-10
4.9504734e-08
4.1266939e-10
4.9206826e-08
3.9519731e-10
4.8921164e-08
3.7894811e-10
4.8646875e-08
3.6385675e-10
4.8383174e-08
3.4981179e-10
4.812939e-08
3.3665409e-10
4.7884914e-08
3.2430358e-10
4.7649151e-08
3.1274268e-10
4.7421549e-08
3.0191637e-10
4.7201625e-08
2.9173067e-10
4.6988919e-08
2.8215276e-10
4.6782996e-08
2.7315222e-10
4.658346e-08
2.6467928e-10
4.6389968e-08
2.566624e-10
4.6202203e-08
2.490647e-10
4.6019847e-08
2.4188593e-10
4.5842602e-08
2.3510698e-10
4.5670173e-08
2.2871596e-10
4.5502296e-08
2.226782e-10
4.533873e-08
2.1695968e-10
4.5179253e-08
2.115352e-10
4.5023649e-08
2.0639566e-10
4.4871705e-08
2.0154015e-10
4.4723215e-08
1.9696006e-10
4.4577982e-08
1.9263826e-10
4.4435837e-08
1.8854312e-10
4.4296613e-08
1.8466592e-10
4.4160139e-08
1.8101972e-10
4.4026243e-08
1.7759804e-10
4.3894766e-08
1.7439163e-10
4.3765546e-08
1.7139576e-10
4.363844e-08
1.685924e-10
4.3513314e-08
1.6596553e-10
4.3390026e-08
1.6352688e-10
4.3268441e-08
1.6126787e-10
4.3148442e-08
1.5916607e-10
4.3029903e-08
1.5722954e-10
4.2912704e-08
1.554507e-10
4.2796711e-08
1.538527e-10
4.2681788e-08
1.5243347e-10
4.2567823e-08
1.5116393e-10
4.2454714e-08
1.5002816e-10
4.2342364e-08
1.4902178e-10
4.2230656e-08
1.4817068e-10
4.2119478e-08
1.4746827e-10
4.2008719e-08
1.4691398e-10
4.1898266e-08
1.4650822e-10
4.1787996e-08
1.4626569e-10
4.167779e-08
1.4618149e-10
4.1567548e-08
1.4622876e-10
4.1457159e-08
1.4642538e-10
4.1346509e-08
1.4677243e-10
4.123548e-08
1.4727471e-10
4.1123944e-08
1.4794772e-10
4.1011798e-08
1.4875681e-10
4.0898929e-08
1.4971632e-10
4.0785227e-08
1.5082247e-10
4.0670691e-08
1.5192835e-10
4.0554796e-08
1.5373035e-10
4.0441644e-08
1.5009324e-10
4.0333814e-08
1.4303316e-10
4.0231219e-08
1.3608822e-10
4.0133676e-08
1.293846e-10
4.0040942e-08
1.2300329e-10
3.9952781e-08
1.1693768e-10
3.986897e-08
1.111652e-10
3.9789301e-08
1.0566818e-10
3.9713575e-08
1.0043789e-10
3.9641593e-08
9.5471292e-11
3.9573161e-08
9.0760139e-11
3.9508099e-08
8.6290392e-11
3.9446222e-08
8.2063798e-11
3.9387355e-08
7.8070316e-11
3.9331335e-08
7.4294474e-11
3.9277992e-08
7.074311e-11
3.9227173e-08
6.7393682e-11
3.9178663e-08
6.4332106e-11
3.913248e-08
6.1245653e-11
3.9087621e-08
5.9487301e-11
3.9046367e-08
5.4714217e-11
3.8997433e-08
6.4865014e-11
4.0335124e-11
2.0947169e-06
1.1702954e-11
2.0947073e-06
2.6944052e-11
2.0946955e-06
3.2828978e-11
2.0946826e-06
3.6237073e-11
2.094668e-06
4.0838294e-11
2.0946513e-06
4.6704917e-11
2.0946321e-06
5.3728287e-11
2.09461e-06
6.202922e-11
2.0945844e-06
7.1891296e-11
2.0945546e-06
8.3716e-11
2.0945198e-06
9.803413e-11
2.0944788e-06
1.1558215e-10
2.0944301e-06
1.3741781e-10
2.0943717e-06
1.6520801e-10
2.0943005e-06
2.0138892e-10
2.0942121e-06
2.5076769e-10
2.0940997e-06
3.1903047e-10
2.0939494e-06
4.2747581e-10
2.0937456e-06
5.808191e-10
2.0934164e-06
9.4056025e-10
2.0929419e-06
1.3577473e-09
2.0914961e-06
4.1378707e-09
2.0910952e-06
1.107852e-09
1.1790246e-06
2.8219841e-06
2.0107879e-07
2.9431212e-06
1.3328186e-07
1.2319602e-07
1.3034517e-07
5.1862561e-09
1.2824132e-07
3.7154344e-09
1.2444657e-07
6.7016506e-09
1.2039946e-07
7.1475242e-09
1.1669785e-07
6.5385639e-09
1.134525e-07
5.7317796e-09
1.1062761e-07
4.9883682e-09
1.081566e-07
4.3631345e-09
1.0597416e-07
3.8533972e-09
1.0402845e-07
3.4352806e-09
1.0227991e-07
3.0870341e-09
1.0069709e-07
2.794346e-09
9.9254182e-08
2.5472057e-09
9.7930715e-08
2.3362784e-09
9.671079e-08
2.1534458e-09
9.558139e-08
1.9936056e-09
9.4531618e-08
1.8530049e-09
9.3552359e-08
1.7284955e-09
9.2635808e-08
1.617776e-09
9.1775369e-08
1.5186966e-09
9.0965423e-08
1.4295469e-09
9.0201044e-08
1.3490942e-09
8.947796e-08
1.2761807e-09
8.8792421e-08
1.2098937e-09
8.8141153e-08
1.1493904e-09
8.7521355e-08
1.0938247e-09
8.6930515e-08
1.0426951e-09
8.6366295e-08
9.9570011e-10
8.5826652e-08
9.5231262e-10
8.5309827e-08
9.1202289e-10
8.4814228e-08
8.7454707e-10
8.4338351e-08
8.3973389e-10
8.3880823e-08
8.0733887e-10
8.3440481e-08
7.7699694e-10
8.3016272e-08
7.485126e-10
8.2607171e-08
7.218434e-10
8.2212218e-08
6.9686881e-10
8.1830572e-08
6.7337737e-10
8.1461437e-08
6.5128741e-10
8.1104065e-08
6.305248e-10
8.0757768e-08
6.1097559e-10
8.0421949e-08
5.9248134e-10
8.0096056e-08
5.7495801e-10
7.9779543e-08
5.583988e-10
7.9471891e-08
5.4275907e-10
7.9172595e-08
5.2801154e-10
7.8881193e-08
5.140805e-10
7.8597264e-08
5.0088877e-10
7.8320425e-08
4.8837416e-10
7.8050306e-08
4.7651498e-10
7.7786537e-08
4.65309e-10
7.7528758e-08
4.5473855e-10
7.7276631e-08
4.4476603e-10
7.7029857e-08
4.3531647e-10
7.6788155e-08
4.2636836e-10
7.6551222e-08
4.1795245e-10
7.6318765e-08
4.100549e-10
7.6090501e-08
4.0265567e-10
7.5866154e-08
3.95743e-10
7.5645473e-08
3.8927359e-10
7.5428229e-08
3.8320962e-10
7.5214177e-08
3.7757832e-10
7.5003083e-08
3.7236192e-10
7.479474e-08
3.6750888e-10
7.4588933e-08
3.6303648e-10
7.4385457e-08
3.5892699e-10
7.4184076e-08
3.5523351e-10
7.3984557e-08
3.5195237e-10
7.3786704e-08
3.4901758e-10
7.359034e-08
3.4639178e-10
7.3395298e-08
3.4406436e-10
7.3201374e-08
3.4209465e-10
7.3008374e-08
3.4046817e-10
7.2816103e-08
3.3918431e-10
7.2624368e-08
3.3824343e-10
7.2432955e-08
3.3767886e-10
7.2241657e-08
3.374793e-10
7.2050302e-08
3.3758392e-10
7.1858694e-08
3.3803384e-10
7.1666635e-08
3.3883116e-10
7.1473923e-08
3.3998684e-10
7.1280334e-08
3.4153654e-10
7.1085689e-08
3.4340147e-10
7.0889791e-08
3.4561415e-10
7.0692448e-08
3.4816558e-10
7.0493659e-08
3.5071765e-10
7.0292515e-08
3.5487432e-10
7.0096133e-08
3.4647513e-10
6.9908984e-08
3.3018222e-10
6.973091e-08
3.1416181e-10
6.9561594e-08
2.9870071e-10
6.9400614e-08
2.8398401e-10
6.9247556e-08
2.6999568e-10
6.9102038e-08
2.5668327e-10
6.89637e-08
2.4400586e-10
6.8832195e-08
2.3194318e-10
6.8707178e-08
2.2048782e-10
6.8588318e-08
2.096207e-10
6.8475298e-08
1.9930967e-10
6.8367803e-08
1.8955865e-10
6.8265529e-08
1.8034479e-10
6.8168191e-08
1.7163257e-10
6.8075496e-08
1.6343755e-10
6.7987182e-08
1.5570773e-10
6.7902873e-08
1.4864171e-10
6.7822602e-08
1.4151627e-10
6.7744631e-08
1.3745885e-10
6.767294e-08
1.2640487e-10
6.7587785e-08
1.500201e-10
9.3069961e-11
2.1861257e-06
1.6262717e-11
2.1861151e-06
3.7503201e-11
2.1861022e-06
4.5738003e-11
2.186088e-06
5.0476601e-11
2.1860719e-06
5.686974e-11
2.1860536e-06
6.5012554e-11
2.1860326e-06
7.4745111e-11
2.1860084e-06
8.6233742e-11
2.1859804e-06
9.987139e-11
2.1859479e-06
1.1621154e-10
2.18591e-06
1.3598391e-10
2.1858654e-06
1.6020042e-10
2.1858125e-06
1.9031437e-10
2.185749e-06
2.2861619e-10
2.185672e-06
2.7845126e-10
2.1855763e-06
3.4642173e-10
2.185455e-06
4.4031924e-10
2.1852931e-06
5.8938667e-10
2.185074e-06
7.9992513e-10
2.184721e-06
1.2935769e-09
2.1842132e-06
1.8655121e-09
2.1826666e-06
5.6845331e-09
2.1822227e-06
1.5516917e-09
1.2838519e-06
3.720355e-06
2.9324398e-07
3.9337291e-06
1.9769001e-07
2.1874999e-07
1.9333881e-07
9.5374532e-09
1.9022121e-07
6.8330387e-09
1.8460102e-07
1.2321839e-08
1.7860558e-07
1.3142964e-08
1.7312346e-07
1.2020681e-08
1.6831564e-07
1.05396e-08
1.6412907e-07
9.174942e-09
1.6046605e-07
8.0261517e-09
1.5723032e-07
7.0891309e-09
1.5434517e-07
6.3204333e-09
1.5175207e-07
5.6801286e-09
1.4940445e-07
5.1419723e-09
1.4726407e-07
4.6875797e-09
1.4530067e-07
4.2996845e-09
1.4349074e-07
3.9633709e-09
1.4181501e-07
3.6693332e-09
1.4025733e-07
3.4106894e-09
1.3880418e-07
3.1816471e-09
1.3744399e-07
2.9779593e-09
1.36167e-07
2.795693e-09
1.3496486e-07
2.6316794e-09
1.338303e-07
2.4836614e-09
1.3275695e-07
2.3495232e-09
1.3173929e-07
2.2275616e-09
1.3077244e-07
2.1162377e-09
1.2985225e-07
2.0140111e-09
1.2897501e-07
1.9199417e-09
1.2813724e-07
1.8334639e-09
1.2733592e-07
1.7536306e-09
1.2656844e-07
1.679508e-09
1.2583243e-07
1.6105524e-09
1.2512568e-07
1.5464849e-09
1.2444615e-07
1.486874e-09
1.237921e-07
1.4310501e-09
1.2316197e-07
1.3786374e-09
1.2255426e-07
1.3295556e-09
1.2196753e-07
1.2835932e-09
1.2140054e-07
1.2403674e-09
1.2085211e-07
1.1997182e-09
1.2032113e-07
1.1615048e-09
1.1980659e-07
1.1255192e-09
1.1930759e-07
1.0914803e-09
1.1882331e-07
1.0592335e-09
1.1835296e-07
1.0287564e-09
1.1789575e-07
9.9996721e-10
1.1745094e-07
9.7281572e-10
1.1701786e-07
9.4716948e-10
1.1659586e-07
9.228877e-10
1.1618438e-07
8.9984955e-10
1.1578288e-07
8.7801493e-10
1.1539081e-07
8.573792e-10
1.1500764e-07
8.379134e-10
1.1463285e-07
8.1955083e-10
1.1426602e-07
8.0215038e-10
1.1390672e-07
7.8567086e-10
1.135545e-07
7.7017052e-10
1.1320893e-07
7.5562619e-10
1.1286958e-07
7.4200165e-10
1.1253605e-07
7.2927348e-10
1.1220796e-07
7.1735959e-10
1.1188498e-07
7.0618835e-10
1.1156675e-07
6.9581064e-10
1.1125292e-07
6.8619722e-10
1.1094317e-07
6.7725299e-10
1.106372e-07
6.6900791e-10
1.103347e-07
6.6142932e-10
1.1003532e-07
6.5461426e-10
1.0973871e-07
6.4855796e-10
1.0944459e-07
6.4314085e-10
1.0915269e-07
6.3829313e-10
1.0886276e-07
6.339948e-10
1.085745e-07
6.3035409e-10
1.0828762e-07
6.2734594e-10
1.0800184e-07
6.2496989e-10
1.0771685e-07
6.232257e-10
1.0743236e-07
6.2217393e-10
1.0714804e-07
6.2179384e-10
1.0686365e-07
6.2197571e-10
1.0657889e-07
6.2279455e-10
1.0629347e-07
6.2425372e-10
1.0600708e-07
6.2637346e-10
1.057194e-07
6.2921901e-10
1.0543015e-07
6.3264771e-10
1.0513905e-07
6.3671806e-10
1.048458e-07
6.4141328e-10
1.0455041e-07
6.4611276e-10
1.0425152e-07
6.53763e-10
1.0395971e-07
6.3828251e-10
1.0368161e-07
6.0827891e-10
1.0341698e-07
5.7879334e-10
1.0316534e-07
5.5034378e-10
1.0292606e-07
5.2326657e-10
1.0269852e-07
4.975304e-10
1.0248217e-07
4.730377e-10
1.0227646e-07
4.4971276e-10
1.0208089e-07
4.2751774e-10
1.0189494e-07
4.0643805e-10
1.0171812e-07
3.8643862e-10
1.0154997e-07
3.6746074e-10
1.0139001e-07
3.4951148e-10
1.0123781e-07
3.325494e-10
1.0109293e-07
3.1650948e-10
1.0095495e-07
3.0142e-10
1.0082347e-07
2.8718546e-10
1.0069794e-07
2.7417205e-10
1.0057841e-07
2.610463e-10
1.004623e-07
2.5357275e-10
1.0035554e-07
2.3316386e-10
1.0022863e-07
2.7692875e-10
1.7157708e-10
2.3101126e-06
2.1319824e-11
2.3101009e-06
4.9257167e-11
2.3100865e-06
6.0141252e-11
2.3100706e-06
6.6361039e-11
2.3100527e-06
7.4743162e-11
2.3100323e-06
8.5407142e-11
2.3100089e-06
9.8131169e-11
2.309982e-06
1.1313093e-10
2.309951e-06
1.3091995e-10
2.309915e-06
1.5221778e-10
2.309873e-06
1.7797027e-10
2.3098237e-06
2.0948824e-10
2.3097654e-06
2.486542e-10
2.3096955e-06
2.9843509e-10
2.3096108e-06
3.6316159e-10
2.3095059e-06
4.5138188e-10
2.309373e-06
5.7315856e-10
2.3091961e-06
7.6634267e-10
2.3089572e-06
1.0388436e-09
2.3085733e-06
1.6774077e-09
2.3080224e-06
2.4164047e-09
2.3063453e-06
7.3616861e-09
2.3058466e-06
2.0503642e-09
1.4129179e-06
4.6132837e-06
3.9944605e-07
4.9472009e-06
2.7397197e-07
3.4422407e-07
2.6794223e-07
1.5567189e-08
2.6362142e-07
1.1153848e-08
2.5585084e-07
2.009242e-08
2.475588e-07
2.1435001e-08
2.3997832e-07
1.9601169e-08
2.3332769e-07
1.7190223e-08
2.2753354e-07
1.4969092e-08
2.2246225e-07
1.3097441e-08
2.1798146e-07
1.1569928e-08
2.1398535e-07
1.0316538e-08
2.1039316e-07
9.2723215e-09
2.0714045e-07
8.394677e-09
2.0417436e-07
7.6536746e-09
2.0145312e-07
7.0209251e-09
1.9894435e-07
6.4721395e-09
1.9662138e-07
5.992305e-09
1.9446184e-07
5.5702269e-09
1.9244704e-07
5.1964514e-09
1.9056096e-07
4.8640319e-09
1.8879008e-07
4.5665759e-09
1.8712287e-07
4.2988887e-09
1.8554923e-07
4.057299e-09
1.8406039e-07
3.8383695e-09
1.8264866e-07
3.6392938e-09
1.8130732e-07
3.4575757e-09
1.8003061e-07
3.2907225e-09
1.7881337e-07
3.1371769e-09
1.7765083e-07
2.9960014e-09
1.7653879e-07
2.8656784e-09
1.754736e-07
2.7446908e-09
1.7445203e-07
2.632125e-09
1.7347099e-07
2.5275232e-09
1.7252766e-07
2.4302031e-09
1.7161964e-07
2.339077e-09
1.7074476e-07
2.2535118e-09
1.6990095e-07
2.1733721e-09
1.6908621e-07
2.0983243e-09
1.6829883e-07
2.0277526e-09
1.6753716e-07
1.9613833e-09
1.6679969e-07
1.8989812e-09
1.66085e-07
1.8402097e-09
1.6539185e-07
1.7846231e-09
1.6471912e-07
1.7319687e-09
1.6406568e-07
1.6821975e-09
1.6343047e-07
1.635176e-09
1.6281246e-07
1.5908222e-09
1.622107e-07
1.5489284e-09
1.6162432e-07
1.5092668e-09
1.6105254e-07
1.4716328e-09
1.604946e-07
1.4359603e-09
1.5994973e-07
1.4022406e-09
1.5941722e-07
1.3704304e-09
1.5889634e-07
1.3404243e-09
1.5838651e-07
1.3119891e-09
1.5788712e-07
1.2850552e-09
1.5739757e-07
1.2597217e-09
1.5691724e-07
1.2359542e-09
1.5644555e-07
1.2136915e-09
1.5598193e-07
1.1928932e-09
1.5552587e-07
1.1734223e-09
1.550769e-07
1.1551573e-09
1.5463453e-07
1.1381833e-09
1.5419827e-07
1.1224572e-09
1.537677e-07
1.1078234e-09
1.5334238e-07
1.0943293e-09
1.5292188e-07
1.0819213e-09
1.5250574e-07
1.0707566e-09
1.5209347e-07
1.0608303e-09
1.5168466e-07
1.0519501e-09
1.5127895e-07
1.0440014e-09
1.50876e-07
1.0369511e-09
1.5047538e-07
1.0309739e-09
1.5007669e-07
1.0260312e-09
1.4967954e-07
1.022123e-09
1.4928352e-07
1.019248e-09
1.4888819e-07
1.0175039e-09
1.4849312e-07
1.0168571e-09
1.4809797e-07
1.017132e-09
1.4770231e-07
1.0184495e-09
1.4730575e-07
1.020815e-09
1.4690786e-07
1.0242618e-09
1.4650819e-07
1.0288954e-09
1.4610635e-07
1.034487e-09
1.4570193e-07
1.0411298e-09
1.4529455e-07
1.0487963e-09
1.4488419e-07
1.0564763e-09
1.4446898e-07
1.0689702e-09
1.4406362e-07
1.0436435e-09
1.4367729e-07
9.946096e-10
1.4330963e-07
9.4645596e-10
1.4295996e-07
9.0000785e-10
1.4262742e-07
8.5580633e-10
1.4231116e-07
8.13796e-10
1.4201038e-07
7.738155e-10
1.4172435e-07
7.3574004e-10
1.4145236e-07
6.9950653e-10
1.4119371e-07
6.6508947e-10
1.4094772e-07
6.324316e-10
1.4071374e-07
6.0143803e-10
1.4049113e-07
5.7212004e-10
1.4027927e-07
5.4441106e-10
1.4007757e-07
5.1820557e-10
1.3988545e-07
4.9354939e-10
1.3970234e-07
4.7028696e-10
1.395275e-07
4.4901775e-10
1.3936098e-07
4.2756e-10
1.3919921e-07
4.1534277e-10
1.3905047e-07
3.8191288e-10
1.3887353e-07
4.5386191e-10
2.8098075e-10
2.4685255e-06
2.7004659e-11
2.4685122e-06
6.2524729e-11
2.4684959e-06
7.6443188e-11
2.4684779e-06
8.4337216e-11
2.4684577e-06
9.49585e-11
2.4684347e-06
1.0845432e-10
2.4684083e-06
1.2452767e-10
2.468378e-06
1.4344833e-10
2.468343e-06
1.658645e-10
2.4683026e-06
1.9267958e-10
2.4682554e-06
2.2507729e-10
2.4682002e-06
2.6469692e-10
2.468135e-06
3.1389261e-10
2.4680571e-06
3.7637471e-10
2.4679627e-06
4.5755509e-10
2.4678459e-06
5.6811834e-10
2.4676985e-06
7.2060641e-10
2.4675025e-06
9.6231601e-10
2.4672386e-06
1.3027905e-09
2.4668158e-06
2.1001368e-09
2.4662106e-06
3.0216823e-09
2.4643692e-06
9.2030571e-09
2.4638013e-06
2.6182941e-09
1.5702701e-06
5.5068149e-06
5.2512438e-07
5.9923466e-06
3.6663852e-07
5.0270993e-07
3.5853401e-07
2.3671702e-08
3.5273708e-07
1.6950779e-08
3.4237649e-07
3.0453012e-08
3.3131831e-07
3.2493178e-08
3.2121029e-07
2.9709185e-08
3.1233772e-07
2.6062801e-08
3.0460277e-07
2.2704035e-08
2.9782961e-07
1.98706e-08
2.9184304e-07
1.7556504e-08
2.865025e-07
1.5657073e-08
2.817006e-07
1.4074221e-08
2.7735146e-07
1.2743824e-08
2.7338452e-07
1.1620612e-08
2.6974435e-07
1.0661099e-08
2.6638791e-07
9.8285729e-09
2.6327963e-07
9.1005883e-09
2.6038964e-07
8.4602149e-09
2.5769298e-07
7.8931122e-09
2.5516829e-07
7.3887177e-09
2.527975e-07
6.9373673e-09
2.5056523e-07
6.5311598e-09
2.48458e-07
6.1645348e-09
2.4646407e-07
5.8322953e-09
2.4457321e-07
5.5301561e-09
2.4277643e-07
5.2543499e-09
2.4106604e-07
5.0011203e-09
2.3943514e-07
4.7680768e-09
2.3787736e-07
4.553778e-09
2.3638708e-07
4.3559551e-09
2.3495946e-07
4.1723159e-09
2.3359014e-07
4.0014453e-09
2.3227502e-07
3.8426425e-09
2.3101032e-07
3.6948964e-09
2.2979283e-07
3.5565664e-09
2.2861968e-07
3.4266699e-09
2.2748806e-07
3.3049928e-09
2.2639534e-07
3.1910419e-09
2.253392e-07
3.0838939e-09
2.2431746e-07
2.9831187e-09
2.2332809e-07
2.8883534e-09
2.2236921e-07
2.7990918e-09
2.2143916e-07
2.7146728e-09
2.2053641e-07
2.6347121e-09
2.1965949e-07
2.5591205e-09
2.1880697e-07
2.4876952e-09
2.1797748e-07
2.4203114e-09
2.1716975e-07
2.3566634e-09
2.1638261e-07
2.2964083e-09
2.1561501e-07
2.2392291e-09
2.1486595e-07
2.1850232e-09
2.1413441e-07
2.1337757e-09
2.1341942e-07
2.0854249e-09
2.1272003e-07
2.039815e-09
2.1203543e-07
1.9965907e-09
2.1136484e-07
1.9556436e-09
2.1070743e-07
1.9171323e-09
2.1006237e-07
1.8810102e-09
2.0942889e-07
1.8471747e-09
2.0880622e-07
1.8155625e-09
2.0819368e-07
1.7859624e-09
2.0759065e-07
1.7581811e-09
2.0699648e-07
1.7323523e-09
2.0641053e-07
1.7084169e-09
2.0583221e-07
1.6861377e-09
2.0526095e-07
1.6655867e-09
2.0469619e-07
1.6466817e-09
2.0413729e-07
1.6296596e-09
2.035836e-07
1.6145165e-09
2.0303459e-07
1.6009652e-09
2.0248976e-07
1.5888322e-09
2.0194864e-07
1.5780666e-09
2.0141069e-07
1.5689301e-09
2.0087535e-07
1.5613676e-09
2.0034209e-07
1.5553792e-09
1.9981038e-07
1.5509628e-09
1.9927962e-07
1.5482651e-09
1.9874924e-07
1.5472353e-09
1.9821876e-07
1.5476126e-09
1.9768763e-07
1.5495772e-09
1.9715531e-07
1.5531383e-09
1.9662122e-07
1.5583472e-09
1.9608476e-07
1.5653616e-09
1.955454e-07
1.5738413e-09
1.9500261e-07
1.5839236e-09
1.9445584e-07
1.5955678e-09
1.9390507e-07
1.6072448e-09
1.9334781e-07
1.6262246e-09
1.9280379e-07
1.587669e-09
1.9228528e-07
1.5131213e-09
1.9179176e-07
1.4399751e-09
1.9132232e-07
1.3694453e-09
1.9087579e-07
1.3023381e-09
1.9045102e-07
1.2385622e-09
1.9004697e-07
1.1778681e-09
1.8966265e-07
1.1200641e-09
1.892971e-07
1.0650514e-09
1.889494e-07
1.0127885e-09
1.8861864e-07
9.6318849e-10
1.8830397e-07
9.1610903e-10
1.8800453e-07
8.7156682e-10
1.8771948e-07
8.2946251e-10
1.8744804e-07
7.8963717e-10
1.8718943e-07
7.5215994e-10
1.8694293e-07
7.1679533e-10
1.8670749e-07
6.8445703e-10
1.8648322e-07
6.5182312e-10
1.8626532e-07
6.3324544e-10
1.8606493e-07
5.8230578e-10
1.8582643e-07
6.9236246e-10
4.2843314e-10
2.6637249e-06
3.3474119e-11
2.6637097e-06
7.7693086e-11
2.663691e-06
9.5138264e-11
2.6636704e-06
1.0495174e-10
2.6636473e-06
1.1812678e-10
2.6636209e-06
1.3484444e-10
2.6635907e-06
1.547157e-10
2.6635561e-06
1.7807012e-10
2.6635162e-06
2.0570817e-10
2.6634702e-06
2.3873922e-10
2.6634166e-06
2.786118e-10
2.663354e-06
3.2733037e-10
2.6632801e-06
3.8777318e-10
2.663192e-06
4.6447685e-10
2.6630855e-06
5.6405306e-10
2.6629541e-06
6.9955861e-10
2.6627884e-06
8.8627145e-10
2.6625688e-06
1.1819712e-09
2.6622737e-06
1.5978571e-09
2.6618027e-06
2.5711349e-09
2.6611301e-06
3.6943096e-09
2.6590858e-06
1.1247342e-08
2.6584309e-06
3.2731943e-09
1.7604701e-06
6.4047756e-06
6.7641099e-07
7.0764058e-06
4.8099645e-07
6.9812446e-07
4.7019046e-07
3.4477693e-08
4.6253095e-07
2.4610283e-08
4.4902051e-07
4.3963454e-08
4.3460342e-07
4.6910268e-08
4.2142505e-07
4.2887553e-08
4.0984937e-07
3.7638489e-08
3.997493e-07
3.2804098e-08
3.9089923e-07
2.8720675e-08
3.8307292e-07
2.5382812e-08
3.7608819e-07
2.2641805e-08
3.6980563e-07
2.0356776e-08
3.6411338e-07
1.8436077e-08
3.5891947e-07
1.6814515e-08
3.5415206e-07
1.5428509e-08
3.497553e-07
1.4225332e-08
3.4568276e-07
1.3173133e-08
3.4189546e-07
1.2247515e-08
3.3836081e-07
1.1427759e-08
3.3505095e-07
1.069858e-08
3.3194227e-07
1.0046046e-08
3.290147e-07
9.4587298e-09
3.2625063e-07
8.9286015e-09
3.2363476e-07
8.4481696e-09
3.211537e-07
8.011217e-09
3.1879572e-07
7.6123248e-09
3.1655075e-07
7.2460952e-09
3.1440979e-07
6.9090387e-09
3.1236452e-07
6.5990493e-09
3.1040758e-07
6.3128868e-09
3.0853265e-07
6.0472509e-09
3.0673403e-07
5.8000665e-09
3.0500636e-07
5.5703097e-09
3.0334471e-07
5.3565436e-09
3.0174487e-07
5.1564122e-09
3.0020306e-07
4.9684732e-09
2.9871565e-07
4.7924029e-09
2.972792e-07
4.6275009e-09
2.9589064e-07
4.4724458e-09
2.9454716e-07
4.3265987e-09
2.9324609e-07
4.1894296e-09
2.9198497e-07
4.0602137e-09
2.9076163e-07
3.9380121e-09
2.8957407e-07
3.8222666e-09
2.8842036e-07
3.7128316e-09
2.8729864e-07
3.6094136e-09
2.8620712e-07
3.5118314e-09
2.8514413e-07
3.419653e-09
2.8410815e-07
3.3323867e-09
2.8309781e-07
3.2495684e-09
2.8211179e-07
3.1710468e-09
2.8114877e-07
3.0967971e-09
2.8020746e-07
3.0267338e-09
2.7928664e-07
2.9606361e-09
2.7838524e-07
2.8979919e-09
2.7750224e-07
2.8386405e-09
2.7663654e-07
2.7828304e-09
2.7578705e-07
2.7305005e-09
2.7495275e-07
2.681478e-09
2.7413264e-07
2.6356695e-09
2.7332584e-07
2.5927662e-09
2.7253155e-07
2.552474e-09
2.717489e-07
2.5149952e-09
2.7097707e-07
2.4802523e-09
2.702153e-07
2.4479015e-09
2.6946284e-07
2.418049e-09
2.6871895e-07
2.3905747e-09
2.6798279e-07
2.3658185e-09
2.6725353e-07
2.3437794e-09
2.6653044e-07
2.3240489e-09
2.658129e-07
2.3063783e-09
2.6510027e-07
2.2906937e-09
2.6439183e-07
2.2773675e-09
2.6368688e-07
2.2663251e-09
2.6298469e-07
2.2575662e-09
2.6228456e-07
2.2510884e-09
2.6158573e-07
2.2471015e-09
2.6088743e-07
2.2455329e-09
2.6018903e-07
2.2460142e-09
2.594898e-07
2.2487997e-09
2.5878904e-07
2.253906e-09
2.5808598e-07
2.2614081e-09
2.5737981e-07
2.2715304e-09
2.5666986e-07
2.2837919e-09
2.559554e-07
2.298385e-09
2.5523571e-07
2.315252e-09
2.5451077e-07
2.3321887e-09
2.5377731e-07
2.3596856e-09
2.5306128e-07
2.3036983e-09
2.5237878e-07
2.195613e-09
2.5172909e-07
2.0896689e-09
2.5111098e-07
1.9875594e-09
2.5052289e-07
1.8904252e-09
2.4996333e-07
1.7981212e-09
2.4943092e-07
1.7102787e-09
2.4892437e-07
1.6266155e-09
2.4844244e-07
1.5469836e-09
2.4798391e-07
1.4713181e-09
2.475476e-07
1.3994932e-09
2.4713241e-07
1.3313057e-09
2.4673719e-07
1.2667793e-09
2.4636088e-07
1.2057728e-09
2.4600246e-07
1.1480583e-09
2.4566089e-07
1.0937357e-09
2.4533522e-07
1.0424652e-09
2.450241e-07
9.9557619e-10
2.4472768e-07
9.4824251e-10
2.4443962e-07
9.213066e-10
2.4417465e-07
8.4727219e-10
2.4385911e-07
1.0079017e-09
6.2352413e-10
2.8986198e-06
4.0917931e-11
2.8986023e-06
9.5235249e-11
2.8985806e-06
1.1683486e-10
2.8985567e-06
1.2887781e-10
2.8985298e-06
1.4499994e-10
2.8984992e-06
1.6542583e-10
2.8984643e-06
1.8965331e-10
2.8984243e-06
2.1807848e-10
2.8983783e-06
2.5167575e-10
2.8983252e-06
2.9178771e-10
2.8982637e-06
3.401608e-10
2.8981918e-06
3.992095e-10
2.8981072e-06
4.7240045e-10
2.8980065e-06
5.6519787e-10
2.897885e-06
6.8555814e-10
2.8977353e-06
8.4919857e-10
2.8975471e-06
1.0744448e-09
2.8972983e-06
1.4308277e-09
2.8969649e-06
1.9312119e-09
2.8964347e-06
3.1013488e-09
2.8956797e-06
4.4493297e-09
2.8933878e-06
1.3539228e-08
2.8926241e-06
4.0369195e-09
1.9886765e-06
7.3087233e-06
8.60256e-07
8.2048262e-06
6.2317897e-07
9.3520149e-07
6.085987e-07
4.9057961e-08
5.9852316e-07
3.4685827e-08
5.8119295e-07
6.1293666e-08
5.6272217e-07
6.5381041e-08
5.4583578e-07
5.9773943e-08
5.3098884e-07
5.2485435e-08
5.1801982e-07
4.5773114e-08
5.066452e-07
4.0095298e-08
4.9657874e-07
3.5449276e-08
4.8758891e-07
3.1631632e-08
4.7949833e-07
2.8447353e-08
4.7216394e-07
2.5770472e-08
4.654681e-07
2.3510352e-08
4.5931956e-07
2.1577058e-08
4.5364711e-07
1.9897775e-08
4.4839123e-07
1.8429016e-08
4.4350192e-07
1.7136822e-08
4.3893739e-07
1.5992295e-08
4.3466189e-07
1.4974081e-08
4.3064514e-07
1.4062791e-08
4.2686139e-07
1.3242486e-08
4.2328802e-07
1.2501965e-08
4.199054e-07
1.1830791e-08
4.1669634e-07
1.1220275e-08
4.1364578e-07
1.0662889e-08
4.1074074e-07
1.0151136e-08
4.0796967e-07
9.6801047e-09
4.0532189e-07
9.2468299e-09
4.0278794e-07
8.8468339e-09
4.0035967e-07
8.4755258e-09
3.9802975e-07
8.1299807e-09
3.9579131e-07
7.8087532e-09
3.93638e-07
7.5098598e-09
3.9156437e-07
7.2300349e-09
3.895656e-07
6.9672438e-09
3.8763699e-07
6.7210145e-09
3.8577411e-07
6.4903802e-09
3.8397305e-07
6.2735101e-09
3.8223015e-07
6.0694931e-09
3.80542e-07
5.8775849e-09
3.7890542e-07
5.6967857e-09
3.7731764e-07
5.5258011e-09
3.7577606e-07
5.3638463e-09
3.7427819e-07
5.2106993e-09
3.7282165e-07
5.0659503e-09
3.7140414e-07
4.9293459e-09
3.700235e-07
4.8002921e-09
3.6867778e-07
4.6781069e-09
3.6736521e-07
4.5621394e-09
3.6608408e-07
4.4521732e-09
3.6483271e-07
4.3481703e-09
3.6360943e-07
4.2500121e-09
3.6241267e-07
4.1573961e-09
3.6124105e-07
4.0696125e-09
3.6009326e-07
3.9864319e-09
3.5896784e-07
3.9082429e-09
3.5786338e-07
3.8349646e-09
3.5677856e-07
3.7663004e-09
3.5571211e-07
3.7021215e-09
3.5466288e-07
3.6419919e-09
3.5362987e-07
3.58548e-09
3.5261198e-07
3.5328847e-09
3.5160813e-07
3.4841086e-09
3.5061736e-07
3.4386713e-09
3.4963868e-07
3.3967253e-09
3.4867115e-07
3.3581025e-09
3.477137e-07
3.3232732e-09
3.4676524e-07
3.2922424e-09
3.4582484e-07
3.2644493e-09
3.4489166e-07
3.2395503e-09
3.4396492e-07
3.217443e-09
3.4304364e-07
3.198638e-09
3.4212693e-07
3.1830392e-09
3.4121385e-07
3.1706433e-09
3.4030349e-07
3.16145e-09
3.3939484e-07
3.1557489e-09
3.3848694e-07
3.1534404e-09
3.3757893e-07
3.1540227e-09
3.3666989e-07
3.1578409e-09
3.3575887e-07
3.164924e-09
3.348449e-07
3.1753795e-09