/*--------------------------------*- C++ -*----------------------------------*\
  =========                 |
  \\      /  F ield         | OpenFOAM: The Open Source CFD Toolbox
   \\    /   O peration     | Website:  https://openfoam.org
    \\  /    A nd           | Version:  12
     \\/     M anipulation  |
\*---------------------------------------------------------------------------*/
FoamFile
{
    format      ascii;
    class       volScalarField;
    location    "600";
    object      k;
}
// * * * * * * * * * * * * * * * * * * * * * * * * * * * * * * * * * * * * * //

dimensions      [0 2 -2 0 0 0 0];

internalField   nonuniform List<scalar> 
13056
(
7.9763809e-05
2.9116686e-05
2.3438313e-05
2.1598549e-05
2.0928841e-05
2.0626855e-05
2.0456538e-05
2.034515e-05
2.0266612e-05
2.0209244e-05
2.016662e-05
2.0134721e-05
2.0110857e-05
2.0093167e-05
2.0080323e-05
2.0071377e-05
2.0065561e-05
2.0062623e-05
2.0061039e-05
2.0065565e-05
2.005491e-05
2.0119434e-05
1.9881367e-05
2.3234195e-05
2.9001145e-09
1.6793303e-08
3.1079705e-08
3.4813453e-08
3.3851621e-08
3.1884728e-08
3.0101239e-08
2.8595693e-08
2.7293837e-08
2.6155491e-08
2.5153721e-08
2.4263544e-08
2.3442919e-08
2.2691303e-08
2.200223e-08
2.137039e-08
2.0789649e-08
2.0252352e-08
1.9753132e-08
1.9288012e-08
1.885213e-08
1.844279e-08
1.805727e-08
1.7693359e-08
1.7349209e-08
1.7022582e-08
1.671247e-08
1.6417054e-08
1.6134732e-08
1.5864974e-08
1.5606587e-08
1.535839e-08
1.5119993e-08
1.4890576e-08
1.4669143e-08
1.4455382e-08
1.4248853e-08
1.4048827e-08
1.3854825e-08
1.3666702e-08
1.3482941e-08
1.330338e-08
1.3128489e-08
1.2958165e-08
1.2792076e-08
1.2629868e-08
1.247138e-08
1.231646e-08
1.2164809e-08
1.2016161e-08
1.187042e-08
1.1727491e-08
1.1587117e-08
1.1449097e-08
1.1313344e-08
1.1179836e-08
1.1048391e-08
1.091878e-08
1.0790902e-08
1.0664802e-08
1.0540369e-08
1.0417351e-08
1.0295653e-08
1.0175305e-08
1.0056276e-08
9.9383867e-09
9.821484e-09
9.7055501e-09
9.5906346e-09
9.4765899e-09
9.3632041e-09
9.2504314e-09
9.1383684e-09
9.0269011e-09
8.9157033e-09
8.8048012e-09
8.6943156e-09
8.5841399e-09
8.4740484e-09
8.3639711e-09
8.2540016e-09
8.1439888e-09
8.0336897e-09
7.9231069e-09
7.8122569e-09
7.7009309e-09
7.5889742e-09
7.4764436e-09
7.3631724e-09
7.2513416e-09
7.1446042e-09
7.0437064e-09
6.9474162e-09
6.8560656e-09
6.7693635e-09
6.6868745e-09
6.6081754e-09
6.5329982e-09
6.4611687e-09
6.3924313e-09
6.3264825e-09
6.2631009e-09
6.2021694e-09
6.1435636e-09
6.0871061e-09
6.0325495e-09
5.979799e-09
5.928414e-09
5.8790075e-09
5.8287515e-09
5.7841087e-09
5.7118749e-09
7.9763865e-05
2.9114132e-05
2.3432389e-05
2.1591564e-05
2.0921462e-05
2.0619287e-05
2.0448857e-05
2.0337392e-05
2.0258797e-05
2.0201384e-05
2.0158726e-05
2.0126798e-05
2.010291e-05
2.00852e-05
2.0072339e-05
2.0063376e-05
2.0057547e-05
2.0054596e-05
2.0053e-05
2.0057518e-05
2.0046833e-05
2.0111494e-05
1.9872646e-05
2.3211515e-05
2.7161511e-08
5.0403569e-07
9.3283519e-07
1.0449026e-06
1.0160346e-06
9.5700011e-07
9.0347021e-07
8.5828246e-07
8.192083e-07
7.8504173e-07
7.5497437e-07
7.2825636e-07
7.036259e-07
6.8106668e-07
6.6038465e-07
6.4142041e-07
6.2398984e-07
6.0786324e-07
5.9287949e-07
5.7891924e-07
5.6583652e-07
5.5355044e-07
5.419793e-07
5.3105675e-07
5.2072731e-07
5.1092381e-07
5.0161599e-07
4.9274926e-07
4.8427555e-07
4.7617892e-07
4.6842361e-07
4.6097412e-07
4.5381877e-07
4.4693295e-07
4.402868e-07
4.3387087e-07
4.2767203e-07
4.2166838e-07
4.1584553e-07
4.1019912e-07
4.0468363e-07
3.9929422e-07
3.9404497e-07
3.889328e-07
3.8394772e-07
3.7907914e-07
3.7432223e-07
3.696724e-07
3.6512067e-07
3.6065909e-07
3.5628475e-07
3.5199483e-07
3.4778159e-07
3.4363899e-07
3.3956444e-07
3.3555727e-07
3.3161203e-07
3.2772181e-07
3.2388362e-07
3.2009882e-07
3.1636402e-07
3.1267172e-07
3.0901901e-07
3.0540684e-07
3.0183424e-07
2.9829586e-07
2.9478709e-07
2.9130739e-07
2.8785827e-07
2.8443528e-07
2.8103206e-07
2.7764725e-07
2.7428374e-07
2.7093811e-07
2.6760057e-07
2.642719e-07
2.6095573e-07
2.5764887e-07
2.5434453e-07
2.5104062e-07
2.4773994e-07
2.4443796e-07
2.411274e-07
2.3780831e-07
2.344812e-07
2.3113981e-07
2.2777949e-07
2.2440194e-07
2.2100217e-07
2.1764562e-07
2.1444196e-07
2.1141356e-07
2.0852346e-07
2.0578162e-07
2.031793e-07
2.0070344e-07
1.9834132e-07
1.9608492e-07
1.9392899e-07
1.9186588e-07
1.8988645e-07
1.8798409e-07
1.8615526e-07
1.8439624e-07
1.827017e-07
1.8106421e-07
1.7948093e-07
1.7793863e-07
1.7645572e-07
1.7494731e-07
1.7360738e-07
1.7143932e-07
7.9764103e-05
2.910398e-05
2.3411526e-05
2.1567347e-05
2.0896005e-05
2.059324e-05
2.0422456e-05
2.0310748e-05
2.0231975e-05
2.0174424e-05
2.0131655e-05
2.0099637e-05
2.0075674e-05
2.00579e-05
2.0044981e-05
2.0035969e-05
2.0030093e-05
2.0027099e-05
2.0025464e-05
2.0029943e-05
2.0019211e-05
2.0084044e-05
1.9843829e-05
2.3154974e-05
1.2702426e-07
3.5967384e-06
6.6560526e-06
7.4556143e-06
7.2496673e-06
6.8284859e-06
6.4465713e-06
6.1241701e-06
5.8453844e-06
5.6016114e-06
5.3870842e-06
5.1964531e-06
5.0207154e-06
4.8597553e-06
4.7121883e-06
4.5768773e-06
4.4525087e-06
4.3374436e-06
4.2305326e-06
4.1309241e-06
4.0375767e-06
3.9499132e-06
3.8673508e-06
3.789416e-06
3.715713e-06
3.6457626e-06
3.5793489e-06
3.5160823e-06
3.45562e-06
3.3978482e-06
3.3425117e-06
3.2893572e-06
3.2383015e-06
3.1891688e-06
3.1417462e-06
3.0959663e-06
3.0517353e-06
3.008897e-06
2.9673488e-06
2.9270594e-06
2.8877042e-06
2.8492486e-06
2.8117931e-06
2.7753155e-06
2.7397449e-06
2.7050055e-06
2.6710628e-06
2.6378842e-06
2.6054056e-06
2.5735701e-06
2.5423571e-06
2.5117466e-06
2.4816831e-06
2.4521236e-06
2.4230497e-06
2.3944565e-06
2.3663053e-06
2.3385466e-06
2.3111591e-06
2.2841526e-06
2.2575028e-06
2.2311564e-06
2.2050923e-06
2.1793176e-06
2.1538251e-06
2.1285768e-06
2.1035398e-06
2.0787102e-06
2.0540987e-06
2.0296738e-06
2.0053899e-06
1.9812373e-06
1.9572366e-06
1.9333636e-06
1.9095482e-06
1.8857962e-06
1.8621334e-06
1.8385368e-06
1.8149584e-06
1.7913829e-06
1.7678305e-06
1.7442688e-06
1.7206458e-06
1.696962e-06
1.673221e-06
1.649378e-06
1.6253999e-06
1.6012989e-06
1.5770392e-06
1.553088e-06
1.5302277e-06
1.508618e-06
1.4879952e-06
1.4684303e-06
1.4498609e-06
1.4321939e-06
1.4153386e-06
1.3992376e-06
1.3838535e-06
1.3691317e-06
1.3550071e-06
1.3414324e-06
1.3283824e-06
1.3158305e-06
1.3037387e-06
1.292054e-06
1.2807562e-06
1.2697508e-06
1.2591691e-06
1.2484055e-06
1.2388441e-06
1.2233734e-06
7.9764528e-05
2.9086044e-05
2.3375204e-05
2.1525269e-05
2.0851802e-05
2.0548022e-05
2.0376631e-05
2.0264508e-05
2.0185428e-05
2.012764e-05
2.0084683e-05
2.005251e-05
2.0028417e-05
2.0010531e-05
1.9997515e-05
1.9988416e-05
1.9982461e-05
1.9979392e-05
1.9977688e-05
1.9982096e-05
1.99713e-05
2.0036289e-05
1.9794226e-05
2.3064695e-05
3.914949e-07
1.3398205e-05
2.4786797e-05
2.7763032e-05
2.6996851e-05
2.5429433e-05
2.4008029e-05
2.2808028e-05
2.1770298e-05
2.0862851e-05
2.0064239e-05
1.9354558e-05
1.8700298e-05
1.8101037e-05
1.7551624e-05
1.7047831e-05
1.6584768e-05
1.6156336e-05
1.5758258e-05
1.5387364e-05
1.5039777e-05
1.471335e-05
1.4405913e-05
1.4115704e-05
1.384125e-05
1.3580766e-05
1.333345e-05
1.309785e-05
1.2872691e-05
1.2657549e-05
1.2451475e-05
1.2253524e-05
1.2063387e-05
1.1880411e-05
1.1703802e-05
1.1533309e-05
1.1368583e-05
1.1209043e-05
1.1054306e-05
1.0904256e-05
1.0757685e-05
1.0614462e-05
1.0474964e-05
1.0339107e-05
1.0206627e-05
1.0077242e-05
9.9508233e-06
9.82725e-06
9.7062829e-06
9.5877106e-06
9.4714564e-06
9.3574451e-06
9.245471e-06
9.1353734e-06
9.0270838e-06
8.9205843e-06
8.8157302e-06
8.7123379e-06
8.6103278e-06
8.509736e-06
8.4104726e-06
8.3123384e-06
8.2152557e-06
8.11925e-06
8.0242955e-06
7.93025e-06
7.836991e-06
7.7445044e-06
7.6528298e-06
7.5618494e-06
7.4713941e-06
7.3814275e-06
7.2920266e-06
7.2031006e-06
7.114389e-06
7.0259129e-06
6.9377687e-06
6.8498712e-06
6.7620405e-06
6.6742207e-06
6.5864864e-06
6.4987172e-06
6.410719e-06
6.3224941e-06
6.2340556e-06
6.1452368e-06
6.0559144e-06
5.9661337e-06
5.8757617e-06
5.7865383e-06
5.7013783e-06
5.620877e-06
5.5440514e-06
5.4711666e-06
5.4019904e-06
5.3361753e-06
5.2733839e-06
5.2134022e-06
5.1560914e-06
5.1012475e-06
5.0486284e-06
4.9980574e-06
4.9494412e-06
4.9026805e-06
4.8576338e-06
4.8141036e-06
4.7720145e-06
4.7310146e-06
4.6915935e-06
4.6514943e-06
4.6158739e-06
4.5582384e-06
7.9765144e-05
2.9060044e-05
2.3322614e-05
2.146435e-05
2.0787804e-05
2.0482557e-05
2.0310287e-05
2.0197562e-05
2.0118037e-05
2.0059906e-05
2.0016675e-05
1.9984278e-05
1.9959997e-05
1.994195e-05
1.9928793e-05
1.9919566e-05
1.9913495e-05
1.9910319e-05
1.9908514e-05
1.9912817e-05
1.9901939e-05
1.9967015e-05
1.9722712e-05
2.2939467e-05
9.4773546e-07
3.6077948e-05
6.6696222e-05
7.4694559e-05
7.2640079e-05
6.8432184e-05
6.4615229e-05
6.1391972e-05
5.8603945e-05
5.6165504e-05
5.4019198e-05
5.2111653e-05
5.0352837e-05
4.8741709e-05
4.726446e-05
4.5909756e-05
4.466448e-05
4.3512251e-05
4.2441581e-05
4.1443965e-05
4.0508985e-05
3.9630875e-05
3.8803808e-05
3.8023048e-05
3.7284641e-05
3.6583791e-05
3.5918341e-05
3.5284393e-05
3.4678514e-05
3.409957e-05
3.3545007e-05
3.3012289e-05
3.2500583e-05
3.2008133e-05
3.1532804e-05
3.1073923e-05
3.0630553e-05
3.0201129e-05
2.9784623e-05
2.9380724e-05
2.8986175e-05
2.8600633e-05
2.8225106e-05
2.7859375e-05
2.7502725e-05
2.71544e-05
2.6814055e-05
2.6481362e-05
2.615568e-05
2.5836438e-05
2.5523432e-05
2.5216459e-05
2.4914965e-05
2.4618518e-05
2.4326933e-05
2.4040164e-05
2.3757821e-05
2.3479408e-05
2.3204713e-05
2.2933833e-05
2.2666525e-05
2.2402253e-05
2.2140809e-05
2.1882261e-05
2.162654e-05
2.1373263e-05
2.11221e-05
2.0873013e-05
2.0626109e-05
2.038107e-05
2.0137443e-05
1.9895128e-05
1.9654332e-05
1.9414812e-05
1.9175866e-05
1.8937551e-05
1.8700126e-05
1.8463362e-05
1.8226774e-05
1.7990211e-05
1.7753876e-05
1.7517443e-05
1.7280389e-05
1.7042721e-05
1.6804474e-05
1.6565198e-05
1.6324562e-05
1.6082688e-05
1.5839216e-05
1.5598835e-05
1.5369398e-05
1.5152509e-05
1.494552e-05
1.4749146e-05
1.4562762e-05
1.4385431e-05
1.4216245e-05
1.4054629e-05
1.3900207e-05
1.375243e-05
1.3610647e-05
1.3474381e-05
1.3343381e-05
1.321738e-05
1.3095997e-05
1.2978699e-05
1.2865283e-05
1.2754801e-05
1.2648573e-05
1.2540518e-05
1.244453e-05
1.2289216e-05
7.9765958e-05
2.9025628e-05
2.3252695e-05
2.1383293e-05
2.0702629e-05
2.0395416e-05
2.0221969e-05
2.0108436e-05
2.0028316e-05
1.9969726e-05
1.9926127e-05
1.989343e-05
1.9868897e-05
1.9850633e-05
1.9837287e-05
1.9827891e-05
1.9821665e-05
1.9818344e-05
1.9816404e-05
1.9820565e-05
1.9809585e-05
1.9874674e-05
1.9627718e-05
2.2777067e-05
1.9693569e-06
8.0507932e-05
0.00014860526
0.00016637104
0.00016183612
0.0001525183
0.00014405993
0.00013691236
0.00013072615
0.000125313
0.00012054645
0.00011630866
0.0001123999
0.00010881835
0.00010553358
0.0001025206
9.975042e-05
9.7186713e-05
9.4804041e-05
9.2583568e-05
9.0502176e-05
8.8547095e-05
8.6705402e-05
8.4966596e-05
8.3321909e-05
8.176069e-05
8.0278161e-05
7.8865663e-05
7.7515569e-05
7.6225368e-05
7.4989385e-05
7.3801982e-05
7.2661319e-05
7.1563484e-05
7.0503734e-05
6.9480579e-05
6.8491931e-05
6.7534309e-05
6.6605432e-05
6.5704609e-05
6.4824576e-05
6.3964571e-05
6.3126855e-05
6.2310939e-05
6.1515236e-05
6.0738058e-05
5.9978642e-05
5.9236259e-05
5.8509478e-05
5.7797031e-05
5.7098462e-05
5.6413323e-05
5.5740379e-05
5.5078664e-05
5.4427772e-05
5.3787598e-05
5.3157272e-05
5.2535692e-05
5.1922382e-05
5.1317562e-05
5.072069e-05
5.0130572e-05
4.954674e-05
4.896935e-05
4.8398248e-05
4.7832579e-05
4.7271607e-05
4.6715247e-05
4.616374e-05
4.5616378e-05
4.5072143e-05
4.4530816e-05
4.3992862e-05
4.3457735e-05
4.2923868e-05
4.2391387e-05
4.1860873e-05
4.1331814e-05
4.0803127e-05
4.0274475e-05
3.9746307e-05
3.9217899e-05
3.8688082e-05
3.8156868e-05
3.7624338e-05
3.7089486e-05
3.655157e-05
3.6010862e-05
3.546656e-05
3.4929144e-05
3.4416173e-05
3.3931237e-05
3.3468415e-05
3.3029313e-05
3.2612533e-05
3.2215986e-05
3.183764e-05
3.1476209e-05
3.1130858e-05
3.080036e-05
3.0483257e-05
3.0178487e-05
2.9885487e-05
2.960366e-05
2.9332155e-05
2.9069783e-05
2.881609e-05
2.8568955e-05
2.8331329e-05
2.8089612e-05
2.7874887e-05
2.7527434e-05
7.9766975e-05
2.8982407e-05
2.3164172e-05
2.128053e-05
2.0594593e-05
2.0284862e-05
2.0109907e-05
1.9995339e-05
1.9914455e-05
1.9855275e-05
1.9811206e-05
1.9778123e-05
1.9753267e-05
1.9734726e-05
1.9721136e-05
1.9711523e-05
1.9705099e-05
1.9701592e-05
1.969948e-05
1.9703458e-05
1.9692354e-05
1.9757381e-05
1.9507336e-05
2.2574444e-05
3.6719715e-06
0.00015886653
0.00029233373
0.00032704417
0.00031831055
0.00030023657
0.00028380261
0.00026989476
0.00025784134
0.00024728263
0.00023797672
0.00022969655
0.00022205321
0.00021504521
0.00020861418
0.00020271219
0.00019728316
0.00019225651
0.00018758286
0.00018322568
0.00017913992
0.00017530081
0.00017168319
0.00016826664
0.0001650341
0.00016196477
0.0001590494
0.00015627105
0.00015361483
0.00015107587
0.00014864308
0.00014630543
0.00014405935
0.00014189718
0.00013980963
0.00013779381
0.00013584564
0.00013395828
0.00013212729
0.00013035131
0.00012861603
0.00012691996
0.00012526762
0.00012365804
0.00012208812
0.00012055453
0.00011905579
0.00011759048
0.00011615577
0.00011474918
0.00011336982
0.00011201682
0.00011068774
0.00010938068
0.00010809484
0.00010683004
0.00010558456
0.00010435622
0.00010314409
0.0001019486
0.00010076871
9.9602037e-05
9.844767e-05
9.7305921e-05
9.6176492e-05
9.5057693e-05
9.3948068e-05
9.2847456e-05
9.1756335e-05
9.0673306e-05
8.9596358e-05
8.8525056e-05
8.7460327e-05
8.6401089e-05
8.5344241e-05
8.4290032e-05
8.3239615e-05
8.2191978e-05
8.1144973e-05
8.0097935e-05
7.9051755e-05
7.8004995e-05
7.6955341e-05
7.5902815e-05
7.4847576e-05
7.3787631e-05
7.2721505e-05
7.1649736e-05
7.0570734e-05
6.9505273e-05
6.8488172e-05
6.7526567e-05
6.6608723e-05
6.5737841e-05
6.4911164e-05
6.4124558e-05
6.3374e-05
6.2656947e-05
6.1971749e-05
6.1315977e-05
6.0686745e-05
6.0081947e-05
5.9500473e-05
5.8941143e-05
5.8402269e-05
5.7881494e-05
5.7377919e-05
5.6887342e-05
5.6415615e-05
5.5935755e-05
5.5509454e-05
5.4819598e-05
7.9768201e-05
2.8930002e-05
2.3055612e-05
2.1154269e-05
2.046177e-05
2.0148902e-05
1.9972067e-05
1.9856208e-05
1.9774371e-05
1.9714454e-05
1.9669798e-05
1.9636234e-05
1.9610974e-05
1.9592088e-05
1.9578195e-05
1.9568311e-05
1.9561639e-05
1.9557902e-05
1.9555576e-05
1.9559327e-05
1.9548075e-05
1.9612953e-05
1.935938e-05
2.2327785e-05
6.282383e-06
0.00028622288
0.00052357785
0.0005849117
0.00056991371
0.00053843613
0.0005097243
0.00048535737
0.0004641851
0.00044559914
0.00042918949
0.00041456601
0.0004010463
0.00038863474
0.00037723201
0.00036675645
0.00035711112
0.00034817264
0.00033985497
0.00033209454
0.00032481221
0.00031796486
0.00031150842
0.00030540712
0.00029963111
0.00029414376
0.00028892892
0.00028395673
0.00027920084
0.00027465283
0.00027029309
0.00026610211
0.00026207366
0.0002581942
0.00025444721
0.00025082768
0.00024732835
0.0002439371
0.00024064603
0.00023745285
0.00023433174
0.00023128018
0.0002283064
0.00022540875
0.00022258164
0.00021981919
0.00021711879
0.00021447791
0.00021189149
0.0002093551
0.00020686718
0.00020442619
0.00020202777
0.00019966851
0.00019734701
0.00019506295
0.00019281325
0.00019059401
0.00018840354
0.00018624268
0.00018410953
0.00018199983
0.00017991191
0.00017784637
0.00017580268
0.0001737778
0.0001717691
0.0001697763
0.00016780027
0.00016583849
0.00016388732
0.00016194598
0.00016001616
0.0001580959
0.00015617959
0.00015426766
0.00015236223
0.00015046145
0.00014856144
0.00014666097
0.00014476167
0.00014286094
0.00014095456
0.00013904256
0.00013712523
0.00013519896
0.00013326104
0.00013131246
0.0001293503
0.00012741234
0.00012556197
0.0001238122
0.00012214172
0.00012055642
0.00011905133
0.00011761896
0.00011625202
0.0001149459
0.00011369763
0.0001125028
0.00011135618
0.00011025395
0.00010919409
0.00010817447
0.00010719204
0.0001062425
0.00010532422
0.00010442955
0.00010356918
0.00010269391
0.00010191625
0.00010065762
7.9769638e-05
2.8868088e-05
2.2925477e-05
2.1002562e-05
2.0302049e-05
1.9985344e-05
1.9806207e-05
1.9688767e-05
1.9605763e-05
1.9544944e-05
1.9499568e-05
1.9465415e-05
1.9439661e-05
1.9420351e-05
1.9406089e-05
1.9395873e-05
1.93889e-05
1.9384882e-05
1.9382295e-05
1.9385769e-05
1.9374342e-05
1.9438977e-05
1.9181468e-05
2.2032527e-05
9.964614e-06
0.00047749489
0.00086463266
0.00096357337
0.00094055249
0.00089104661
0.00084565891
0.00080696404
0.00077320054
0.00074345795
0.00071712101
0.00069359021
0.0006717788
0.00065171244
0.00063324136
0.0006162423
0.00060056486
0.00058601395
0.0005724543
0.00055978627
0.00054788366
0.00053667881
0.00052610188
0.00051609608
0.0005066143
0.00049759773
0.00048902112
0.00048083642
0.00047300122
0.00046550249
0.00045830861
0.00045138805
0.00044473113
0.00043831592
0.00043211562
0.00042612238
0.00042032448
0.00041470217
0.00040924274
0.00040394266
0.000398759
0.00039368786
0.00038874333
0.00038392282
0.0003792172
0.00037461682
0.00037011757
0.00036571536
0.00036140185
0.00035716973
0.00035301658
0.00034893996
0.00034493262
0.00034098891
0.00033710663
0.00033328535
0.00032951996
0.00032580394
0.00032213458
0.00031851334
0.00031493708
0.0003113987
0.00030789543
0.00030442832
0.00030099657
0.00029759507
0.00029421941
0.00029086916
0.00028754584
0.00028424523
0.0002809612
0.00027769246
0.00027444188
0.00027120619
0.00026797591
0.00026475179
0.00026153741
0.00025832967
0.000255122
0.00025191232
0.0002487034
0.00024549082
0.00024226744
0.00023903331
0.00023578891
0.00023252808
0.00022924623
0.00022594499
0.00022261941
0.00021933353
0.0002161949
0.00021322579
0.00021039009
0.00020769807
0.00020514143
0.00020270756
0.00020038417
0.00019816354
0.00019604067
0.00019400817
0.00019205718
0.00019018126
0.00018837704
0.00018664094
0.00018496779
0.00018335032
0.00018178579
0.0001802612
0.00017879475
0.00017730274
0.00017597681
0.00017383025
7.9771283e-05
2.8796452e-05
2.2772197e-05
2.0823364e-05
2.0113197e-05
1.9791864e-05
1.9609949e-05
1.9490598e-05
1.9406181e-05
1.9344272e-05
1.9298026e-05
1.926316e-05
1.923681e-05
1.9216989e-05
1.9202279e-05
1.9191665e-05
1.9184329e-05
1.9179972e-05
1.9177072e-05
1.9180215e-05
1.9168584e-05
1.9232861e-05
1.8971114e-05
2.1683282e-05
1.4703731e-05
0.00074061584
0.0013210907
0.0014671051
0.0014356334
0.0013653741
0.0013005128
0.0012448737
0.0011960423
0.0011528176
0.0011143856
0.0010799241
0.0010478621
0.0010182757
0.00099096611
0.00096576937
0.00094247675
0.00092080953
0.00090057631
0.00088163676
0.00086380845
0.00084699613
0.00083109974
0.00081603796
0.00080174366
0.00078813119
0.00077516519
0.00076277533
0.00075089954
0.00073951989
0.00072859
0.00071806347
0.00070792689
0.00069814787
0.00068868673
0.00067953249
0.00067066791
0.00066206353
0.00065370083
0.000645575
0.00063761993
0.00062983039
0.00062222894
0.00061481203
0.00060756586
0.00060047603
0.00059353668
0.0005867418
0.0005800787
0.00057353638
0.00056711143
0.00056080036
0.00055459208
0.00054847797
0.00054245488
0.0005365224
0.0005306727
0.00052489574
0.00051918745
0.00051355031
0.00050797957
0.00050246419
0.00049699993
0.0004915886
0.00048622906
0.00048091336
0.00047563465
0.00047039234
0.00046518892
0.00046001782
0.00045486946
0.0004497418
0.00044463944
0.00043955732
0.00043448047
0.00042941012
0.0004243519
0.00041930098
0.00041424694
0.00040918652
0.00040412406
0.0003990526
0.00039396079
0.00038884866
0.00038371694
0.00037855583
0.00037335798
0.00036812587
0.0003628516
0.00035763671
0.00035265218
0.0003479338
0.00034342445
0.00033914106
0.00033507081
0.00033119397
0.00032749124
0.00032395053
0.00032056414
0.00031732045
0.0003142055
0.00031120916
0.0003083262
0.00030555101
0.00030287545
0.00030028802
0.00029778439
0.00029534389
0.00029299562
0.00029060594
0.0002884814
0.00028504045
7.9773129e-05
2.8715051e-05
2.2594245e-05
2.0614617e-05
1.9892942e-05
1.9566084e-05
1.9380846e-05
1.9259209e-05
1.9173102e-05
1.9109886e-05
1.9062598e-05
1.9026879e-05
1.8999815e-05
1.8979384e-05
1.896414e-05
1.895305e-05
1.8945281e-05
1.8940522e-05
1.8937251e-05
1.894e-05
1.8928134e-05
1.8991914e-05
1.8725845e-05
2.1273597e-05
2.0179851e-05
0.0010679946
0.0018708072
0.0020689432
0.0020305241
0.0019401665
0.0018561024
0.0017834823
0.0017193137
0.0016621922
0.0016111633
0.001565213
0.0015222726
0.0014825059
0.0014456792
0.0014115998
0.0013800068
0.0013505392
0.0013229523
0.0012970682
0.0012726472
0.0012495688
0.0012277031
0.0012069448
0.0011872076
0.0011683781
0.0011504119
0.0011332155
0.0011167061
0.001100862
0.0010856212
0.0010709216
0.0010567466
0.0010430528
0.0010297864
0.0010169339
0.0010044722
0.00099236107
0.00098057609
0.00096911159
0.00095787358
0.00094685594
0.0009360924
0.00092557864
0.00091529551
0.00090522338
0.0008953548
0.00088568178
0.00087618651
0.0008668538
0.00085767947
0.00084865902
0.00083977682
0.00083102073
0.00082238674
0.00081387476
0.00080547371
0.00079716927
0.00078895587
0.0007808375
0.00077280752
0.00076485008
0.00075695914
0.00074913761
0.0007413841
0.00073368713
0.00072603683
0.00071843248
0.00071087788
0.00070336359
0.00069587563
0.00068841108
0.00068097679
0.00067356542
0.00066615508
0.00065874751
0.00065135102
0.00064395855
0.00063655475
0.00062913476
0.00062170494
0.00061425502
0.00060676817
0.00059924426
0.00059168432
0.00058407374
0.00057640142
0.00056867088
0.0005608702
0.00055314951
0.00054576254
0.00053876328
0.0005320674
0.0005257015
0.00051964734
0.00051387629
0.00050836021
0.00050308162
0.00049802954
0.0004931871
0.00048853383
0.00048405492
0.00047974285
0.00047558957
0.00047158314
0.00046770655
0.00046395351
0.00046029331
0.00045676952
0.00045318245
0.00044999145
0.00044481965
7.9775159e-05
2.8624082e-05
2.2390225e-05
2.037434e-05
1.9639062e-05
1.9305656e-05
1.9116478e-05
1.8992126e-05
1.8904009e-05
1.883924e-05
1.8790713e-05
1.8753982e-05
1.8726071e-05
1.8704914e-05
1.8689038e-05
1.8677385e-05
1.8669104e-05
1.8663871e-05
1.8660162e-05
1.8662448e-05
1.8650316e-05
1.8713425e-05
1.8443356e-05
2.0802671e-05
2.5920186e-05
0.0014330467
0.0024678055
0.0027184118
0.0026759982
0.0025691927
0.0024690853
0.0023820027
0.0023045194
0.0022351559
0.0021729005
0.0021166077
0.0020637661
0.0020146568
0.0019690307
0.0019266834
0.0018873156
0.0018504965
0.0018159396
0.001783438
0.0017527023
0.0017235931
0.0016959558
0.0016696651
0.0016446197
0.0016206815
0.0015977999
0.0015758603
0.0015547618
0.0015344805
0.0015149404
0.0014960651
0.0014778363
0.0014602001
0.0014430899
0.0014264908
0.0014103739
0.0013946892
0.0013794071
0.0013645217
0.0013499096
0.0013355646
0.0013215334
0.0013078111
0.0012943732
0.0012811952
0.0012682686
0.0012555837
0.0012431173
0.0012308502
0.0012187778
0.001206895
0.0011951813
0.0011836208
0.0011722092
0.0011609469
0.0011498194
0.001138808
0.0011279054
0.0011171177
0.0011064364
0.0010958403
0.0010853214
0.001074884
0.0010645268
0.0010542343
0.0010439933
0.001033803
0.0010236688
0.0010135781
0.0010035121
0.00099346666
0.00098345137
0.00097345637
0.00096345191
0.00095344022
0.0009434326
0.0009334195
0.00092337988
0.00091330693
0.00090320926
0.00089307275
0.00088287417
0.00087261303
0.00086229055
0.00085188644
0.00084138503
0.0008307908
0.00082008692
0.00080947924
0.00079931736
0.00078967705
0.00078044282
0.00077165385
0.00076328638
0.0007553021
0.00074766308
0.00074034602
0.00073333659
0.00072661216
0.00072014495
0.00071391498
0.00070791231
0.00070212629
0.00069654071
0.0006911323
0.00068589258
0.00068077917
0.00067585283
0.00067083598
0.00066636951
0.00065912367
7.9777346e-05
2.8524051e-05
2.215897e-05
2.0100728e-05
1.9349479e-05
1.9008367e-05
1.8814543e-05
1.8686985e-05
1.8596495e-05
1.8529891e-05
1.8479902e-05
1.8441974e-05
1.8413063e-05
1.8391052e-05
1.8374431e-05
1.8362115e-05
1.8353234e-05
1.8347444e-05
1.8343225e-05
1.8344971e-05
1.8332537e-05
1.8394751e-05
1.8121699e-05
2.0282287e-05
3.1443022e-05
0.0018053664
0.0030607014
0.0033617421
0.0033186853
0.0032002796
0.0030885839
0.0029907945
0.0029032051
0.0028243871
0.0027533518
0.0026888846
0.0026281286
0.00257149
0.0025187216
0.0024696219
0.0024238667
0.0023809725
0.0023406248
0.0023025983
0.0022665645
0.0022323729
0.002199851
0.0021688587
0.0021392847
0.0021109715
0.0020838654
0.0020578346
0.0020327643
0.0020086301
0.0019853446
0.0019628204
0.0019410386
0.0019199365
0.0018994371
0.0018795256
0.0018601681
0.0018413059
0.0018229063
0.0018049638
0.0017873275
0.0017699916
0.0017530158
0.0017363953
0.0017201003
0.0017041024
0.0016883929
0.0016729606
0.0016577774
0.0016428204
0.0016280855
0.001613567
0.0015992399
0.0015850851
0.0015710979
0.0015572798
0.0015436132
0.0015300747
0.0015166561
0.0015033654
0.0014901925
0.0014771111
0.0014641114
0.0014511992
0.0014383732
0.0014256142
0.0014129056
0.0014002466
0.0013876444
0.0013750832
0.0013625393
0.0013500077
0.0013375003
0.001325005
0.0013124841
0.0012999403
0.0012873877
0.0012748143
0.0012621933
0.0012495157
0.0012367922
0.0012240049
0.0012111239
0.0011981479
0.0011850784
0.001171889
0.0011585591
0.0011450939
0.0011314712
0.0011179526
0.001104985
0.0010926668
0.0010808513
0.001069592
0.0010588604
0.001048609
0.0010387905
0.0010293761
0.0010203486
0.00101168
0.0010033352
0.00099528925
0.00098753013
0.00098004477
0.00097281287
0.00096580482
0.00095901005
0.00095237437
0.00094597633
0.00093945815
0.00093364974
0.00092421647
7.9779652e-05
2.8415843e-05
2.1899653e-05
1.9792274e-05
1.9022387e-05
1.867225e-05
1.8472977e-05
1.8341655e-05
1.8248374e-05
1.8179613e-05
1.8127904e-05
1.8088571e-05
1.8058484e-05
1.8035471e-05
1.8017977e-05
1.8004885e-05
1.7995303e-05
1.7988866e-05
1.7984053e-05
1.7985172e-05
1.7972403e-05
1.8033428e-05
1.775954e-05
1.9717795e-05
3.6255015e-05
0.0021606181
0.0036156068
0.0039598293
0.0039190706
0.0037935531
0.0036744806
0.0035695869
0.0034750201
0.003389515
0.0033121711
0.0032417568
0.0031752322
0.0031130588
0.003055004
0.0030008788
0.0029503447
0.00290288
0.0028581548
0.0028159341
0.0027758604
0.0027377795
0.0027015059
0.0026668901
0.0026338149
0.0026021086
0.0025717164
0.0025424941
0.0025143166
0.0024871604
0.0024609295
0.0024355284
0.0024109389
0.0023870909
0.0023639002
0.0023413528
0.0023194105
0.0022980079
0.002277111
0.0022567148
0.0022366461
0.0022168995
0.0021975459
0.0021785801
0.0021599683
0.0021416786
0.0021237034
0.0021060302
0.0020886265
0.0020714666
0.0020545469
0.002037862
0.0020213828
0.002005087
0.0019889703
0.0019730356
0.0019572621
0.0019416226
0.0019261082
0.0019107289
0.0018954732
0.0018803103
0.0018652285
0.0018502356
0.0018353302
0.0018204897
0.0018056947
0.0017909443
0.0017762474
0.0017615855
0.0017469303
0.0017322758
0.0017176366
0.0017029983
0.0016883161
0.0016735928
0.0016588454
0.0016440594
0.0016292026
0.0016142642
0.0015992567
0.0015841584
0.0015689335
0.0015535798
0.0015380988
0.0015224584
0.0015066334
0.0014906292
0.0014744185
0.0014583123
0.001442844
0.0014281332
0.001414005
0.0014005272
0.0013876678
0.0013753714
0.0013635828
0.0013522687
0.0013414097
0.0013309732
0.0013209181
0.0013112149
0.0013018501
0.0012928086
0.0012840667
0.0012755891
0.0012673635
0.0012593253
0.001251569
0.0012436649
0.0012366151
0.0012251525
7.9782027e-05
2.8300793e-05
2.161191e-05
1.9447902e-05
1.8656377e-05
1.829572e-05
1.8090083e-05
1.7954359e-05
1.7857811e-05
1.7786523e-05
1.77328e-05
1.7691821e-05
1.766036e-05
1.7636176e-05
1.7617663e-05
1.7603668e-05
1.7593271e-05
1.7586083e-05
1.7580583e-05
1.7580979e-05
1.7567841e-05
1.7627293e-05
1.7356488e-05
1.9109679e-05
3.9895547e-05
0.0024725611
0.0041089921
0.0044964789
0.0044595322
0.0043296293
0.004205898
0.0040962325
0.0039967458
0.0039064092
0.003824439
0.003749612
0.00367912
0.0036130976
0.0035513348
0.0034936631
0.0034397362
0.0033890059
0.0033411368
0.0032958906
0.0032528894
0.0032119802
0.0031729693
0.0031357011
0.0031000558
0.0030658517
0.0030330347
0.0030014509
0.0029709689
0.0029415669
0.0029131419
0.0028855936
0.0028589048
0.0028329994
0.0028077883
0.0027832592
0.00275937
0.0027360504
0.0027132661
0.0026910133
0.0026691108
0.0026475498
0.0026264039
0.0026056684
0.002585305
0.0025652802
0.0025455874
0.0025262134
0.0025071217
0.0024882845
0.0024696995
0.0024513613
0.0024332376
0.0024153031
0.0023975544
0.0023799958
0.002362604
0.0023453483
0.0023282194
0.0023112293
0.0022943653
0.002277593
0.0022608992
0.0022442929
0.0022277735
0.0022113153
0.0021948963
0.0021785159
0.0021621843
0.0021458808
0.0021295735
0.0021132555
0.0020969434
0.0020806211
0.0020642382
0.0020477973
0.0020313176
0.0020147829
0.0019981564
0.0019814253
0.0019646041
0.001947668
0.0019305757
0.0019133247
0.001895916
0.0018783131
0.0018604865
0.0018424418
0.0018241475
0.0018059537
0.0017884641
0.001771816
0.0017558124
0.0017405322
0.001725941
0.0017119776
0.0016985805
0.0016857128
0.0016733538
0.0016614673
0.0016500073
0.0016389411
0.0016282536
0.0016179288
0.00160794
0.0015982475
0.0015888375
0.0015796373
0.0015707539
0.0015617006
0.0015536194
0.0015404653
7.9784401e-05
2.8180747e-05
2.1295975e-05
1.9067118e-05
1.8250594e-05
1.7877724e-05
1.7664681e-05
1.7523826e-05
1.7423467e-05
1.734923e-05
1.7293156e-05
1.7250257e-05
1.7217195e-05
1.7191645e-05
1.7171948e-05
1.7156905e-05
1.7145565e-05
1.7137509e-05
1.7131218e-05
1.7130783e-05
1.7117243e-05
1.7174634e-05
1.6911581e-05
1.8460108e-05
4.2005861e-05
0.0027169321
0.0045204656
0.0049592164
0.0049292854
0.0047983688
0.0046730782
0.0045612692
0.0044591254
0.0043659495
0.0042811292
0.0042034907
0.0041302073
0.0040614416
0.0039970125
0.0039367747
0.0038803771
0.0038272519
0.003777065
0.0037295789
0.0036844
0.0036413805
0.0036003207
0.0035610611
0.0035234814
0.0034873923
0.0034527418
0.0034193678
0.0033871353
0.0033560246
0.003325927
0.003296739
0.0032684449
0.0032409635
0.0032142024
0.0031881515
0.0031627649
0.0031379685
0.003113729
0.0030900432
0.0030667726
0.0030438848
0.0030214273
0.0029993952
0.0029777466
0.0029564467
0.0029354909
0.0029148651
0.0028945295
0.0028744545
0.0028546395
0.0028350796
0.0028157392
0.0027965909
0.0027776321
0.0027588688
0.0027402753
0.0027218181
0.0027034876
0.0026852979
0.0026672356
0.0026492628
0.0026313649
0.0026135529
0.0025958264
0.0025781574
0.0025605214
0.0025429184
0.0025253599
0.0025078234
0.0024902738
0.0024727036
0.0024551313
0.0024375396
0.0024198732
0.0024021349
0.0023843456
0.0023664876
0.0023485206
0.0023304303
0.0023122324
0.0022939
0.0022753876
0.0022566918
0.0022378138
0.0022187135
0.0021993578