/*--------------------------------*- C++ -*----------------------------------*\
  =========                 |
  \\      /  F ield         | OpenFOAM: The Open Source CFD Toolbox
   \\    /   O peration     | Website:  https://openfoam.org
    \\  /    A nd           | Version:  12
     \\/     M anipulation  |
\*---------------------------------------------------------------------------*/
FoamFile
{
    format      ascii;
    class       volScalarField;
    location    "600";
    object      k;
}
// * * * * * * * * * * * * * * * * * * * * * * * * * * * * * * * * * * * * * //

dimensions      [0 2 -2 0 0 0 0];

internalField   nonuniform List<scalar> 
7480
(
4.0062843e-07
3.9095181e-07
3.8155912e-07
3.7356908e-07
3.6793527e-07
3.6541116e-07
3.6689389e-07
3.7105664e-07
3.7859941e-07
3.8777463e-07
4.0605687e-07
3.9720603e-07
5.4482503e-05
0.0014638229
0.0037593798
0.0058280847
0.0072546389
0.0080448874
0.0084668482
0.0084517414
0.0083614537
0.0081940713
0.0079884001
0.0077712641
0.0075516647
0.0073340589
0.0071225167
0.0069225474
0.006739553
0.0065709099
0.0064163718
0.0062764651
0.0061513912
0.0060407243
0.0059434592
0.0058582609
0.0057835414
0.0057178183
0.0056600892
0.0056096009
0.005565359
0.0055261947
0.0054910814
0.0054590019
0.0054295164
0.0054013293
0.0053741777
0.0053476213
0.0053212296
0.0052947202
0.0052677867
0.0052400644
0.0052113176
0.0051815394
0.0051509013
0.0051196368
0.0050879705
0.0050561304
0.0050243191
0.0049926685
0.0049612422
0.0049300717
0.0048991989
0.0048686956
0.0048386316
0.004809044
0.0047799683
0.0047514302
0.0047233984
0.0046957963
0.0046685668
0.004641702
0.0046152146
0.0045891111
0.0045634114
0.0045381384
0.0045132671
0.004488742
0.0044645286
0.0044406268
0.0044170468
0.0043938074
0.0043709229
0.004348367
0.0043260954
0.0043040944
0.0042823629
0.004260915
0.0042397657
0.0042188905
0.0041982539
0.0041778452
0.0041576705
0.0041377183
0.0041180116
0.0040983603
0.004079151
0.0040588493
0.0040416718
0.0040102872
4.0163092e-07
3.9920522e-07
3.9669583e-07
3.9409261e-07
3.9138906e-07
3.8858872e-07
3.8570286e-07
3.8277734e-07
3.796739e-07
3.7704624e-07
3.7209279e-07
4.0694543e-07
1.432526e-07
1.3811702e-05
8.493982e-05
0.00028329571
0.00060097957
0.000968397
0.001322383
0.0016040487
0.0018120302
0.0019677831
0.0020991262
0.0022248482
0.0023815625
0.0025549181
0.0027520726
0.0030002234
0.0032669603
0.0035413721
0.0038140588
0.0040763288
0.0043204608
0.0045405805
0.004733033
0.0048968729
0.0050317432
0.0051411513
0.0052319637
0.0053079872
0.0053686054
0.0054143898
0.0054472875
0.0054678187
0.0054799997
0.0054781721
0.0054708258
0.0054571595
0.0054381089
0.0054146099
0.0053872942
0.0053566454
0.0053238054
0.0052901739
0.0052568798
0.0052245273
0.0051934042
0.0051636584
0.0051348799
0.0051067885
0.0050793243
0.0050525224
0.0050263909
0.0050009227
0.0049761128
0.0049519298
0.0049283552
0.004905138
0.0048819148
0.0048585444
0.0048351194
0.0048117973
0.0047886992
0.0047658929
0.0047434453
0.0047212925
0.0046992331
0.0046771589
0.0046551242
0.0046332489
0.0046116164
0.0045902977
0.0045692371
0.0045482902
0.0045273972
0.0045066125
0.0044860144
0.0044656854
0.0044455884
0.0044256188
0.0044057393
0.0043859889
0.0043664398
0.0043471016
0.0043279054
0.0043087923
0.0042898091
0.0042705766
0.0042534744
0.0042233176
4.0179582e-07
3.9940564e-07
3.9698002e-07
3.9450436e-07
3.9197506e-07
3.8939149e-07
3.867516e-07
3.840624e-07
3.812927e-07
3.7855262e-07
3.7535624e-07
3.738651e-07
3.6505936e-07
3.8198581e-07
7.4897206e-07
3.0469096e-06
1.1707038e-05
3.029632e-05
6.0723836e-05
0.00010218546
0.00015186846
0.00020630978
0.00026279719
0.00031928987
0.00037828105
0.00044166315
0.00051148921
0.00059430577
0.00069366715
0.00081652129
0.00097697176
0.0011594468
0.0013579396
0.0015707068
0.0017964781
0.0020332092
0.0022792156
0.002533289
0.0027859663
0.0030296152
0.0032580856
0.003464317
0.0036443855
0.0038001851
0.003935475
0.0040541274
0.004155568
0.0042395804
0.0043075443
0.0043616399
0.0043997571
0.0044265546
0.004445832
0.0044597383
0.0044692997
0.004475145
0.0044781763
0.0044793059
0.0044790589
0.0044775685
0.0044750181
0.0044716009
0.0044674493
0.0044627298
0.0044575758
0.0044520276
0.0044461017
0.0044394632
0.0044318555
0.0044233878
0.0044142729
0.004404664
0.0043946675
0.0043843666
0.0043738655
0.0043630417
0.0043516731
0.0043397613
0.0043274617
0.0043149273
0.0043022442
0.0042895086
0.0042766162
0.0042634145
0.0042499018
0.0042361908
0.004222386
0.0042085937
0.0041947391
0.0041807065
0.0041664963
0.0041521877
0.0041378826
0.0041235858
0.0041092005
0.004094729
0.004080133
0.0040654616
0.0040520344
0.0040284745
4.1066464e-07
4.0820127e-07
4.0569879e-07
4.0314492e-07
4.00537e-07
3.9787444e-07
3.951572e-07
3.9238545e-07
3.8955924e-07
3.8667884e-07
3.8374501e-07
3.8076022e-07
3.7766894e-07
3.7484913e-07
3.704526e-07
3.7116244e-07
3.8590182e-07
4.6400579e-07
7.8709111e-07
1.6253198e-06
3.213894e-06
5.7014485e-06
9.1791999e-06
1.3713366e-05
1.9411235e-05
2.6538896e-05
3.5431382e-05
4.6636792e-05
6.0896556e-05
7.9175655e-05
0.0001031916
0.00013492505
0.00017743237
0.00023307858
0.0003045809
0.00039544979
0.0005112377
0.00065844528
0.00082633353
0.0010119568
0.0012182119
0.0014461726
0.0016916903
0.0019405705
0.002184566
0.0024179403
0.0026349971
0.0028300416
0.0030038209
0.0031569341
0.0032906261
0.0034085732
0.0035087621
0.0035930444
0.0036636994
0.0037230262
0.0037737893
0.0038176043
0.0038539237
0.0038845518
0.0039108098
0.0039336896
0.0039539304
0.0039720127
0.0039881098
0.0040023222
0.0040147684
0.0040255158
0.004034558
0.0040420234
0.0040480717
0.0040528367
0.0040564595
0.0040590685
0.0040607886
0.0040614805
0.0040610136
0.0040595274
0.004057218
0.0040542242
0.0040506287
0.0040465498
0.0040418418
0.0040363945
0.004030292
0.0040236871
0.004016687
0.0040094071
0.0040017312
0.0039935656
0.0039849647
0.0039760392
0.003966905
0.0039575476
0.003947861
0.0039378977
0.0039275995
0.0039172377
0.0039074232
0.0038900102
4.1695071e-07
4.1445651e-07
4.1192454e-07
4.0934123e-07
4.0670345e-07
4.040105e-07
4.0126231e-07
3.9845898e-07
3.9560072e-07
3.926874e-07
3.8972033e-07
3.8669518e-07
3.836253e-07
3.8047559e-07
3.77234e-07
3.7394493e-07
3.7071716e-07
3.6751674e-07
3.6454187e-07
3.624324e-07
3.6272204e-07
3.6839688e-07
3.8479021e-07
4.2071378e-07
4.8941419e-07
6.0927356e-07
8.043677e-07
1.1069563e-06
1.5623084e-06
2.2340617e-06
3.2208873e-06
4.6745138e-06
6.8338329e-06
1.0091692e-05
1.5058614e-05
2.2626069e-05
3.4203453e-05
5.1601917e-05
7.8506094e-05
0.0001183907
0.000174789
0.00025260166
0.00035876327
0.00050131367
0.00066926695
0.00085623197
0.0010628287
0.0012897083
0.0015226312
0.0017538158
0.0019762728
0.0021845998
0.0023730766
0.0025424588
0.0026936146
0.0028282545
0.0029500762
0.0030568768
0.0031491014
0.0032287764
0.0032984178
0.0033602798
0.0034157086
0.0034652863
0.0035095019
0.0035491069
0.0035849097
0.0036167328
0.0036448994
0.0036700848
0.0036926651
0.0037129461
0.0037311757
0.00374752
0.0037621011
0.0037749778
0.0037861915
0.0037958781
0.0038041947
0.0038112661
0.0038171987
0.003822132
0.0038259268
0.0038285706
0.0038302175
0.0038310242
0.0038310877
0.0038305283
0.0038291997
0.0038270683
0.0038242463
0.0038208594
0.0038170243
0.0038127015
0.0038077965
0.0038024142
0.0037964972
0.0037904577
0.0037843031
0.0037729818
4.1727239e-07
4.1478703e-07
4.1226551e-07
4.0969366e-07
4.0706807e-07
4.0438799e-07
4.0165336e-07
3.9886431e-07
3.9602109e-07
3.9312406e-07
3.9017373e-07
3.871708e-07
3.8411702e-07
3.810132e-07
3.7786337e-07
3.7466692e-07
3.7136939e-07
3.6801079e-07
3.6461209e-07
3.6120833e-07
3.5778031e-07
3.543582e-07
3.5092568e-07
3.4750029e-07
3.4412393e-07
3.4087274e-07
3.3786227e-07
3.3531552e-07
3.3358607e-07
3.3325286e-07
3.353257e-07
3.416342e-07
3.5567257e-07
3.8420823e-07
4.4072234e-07
5.5063058e-07
7.6501257e-07
1.170504e-06
1.944161e-06
3.3941416e-06
6.0324942e-06
1.0734994e-05
1.9138984e-05
3.3586248e-05
5.9218534e-05
0.00010078421
0.00016277144
0.00025164524
0.00037525104
0.00052860017
0.00070485085
0.00089837752
0.0011108626
0.0013298042
0.0015448373
0.0017495947
0.0019404721
0.0021141054
0.0022729384
0.0024176711
0.002549462
0.0026689187
0.0027749259
0.0028690529
0.0029531763
0.0030292338
0.0030983433
0.0031604946
0.0032159204
0.0032655969
0.003310515
0.0033513226
0.0033883712
0.0034219636
0.0034524767
0.0034798823
0.0035044391
0.0035266198
0.0035466653
0.0035647619
0.0035810773
0.0035957607
0.0036088505
0.0036203993
0.0036305469
0.0036394259
0.003647135
0.0036538023
0.0036593075
0.0036637002
0.003667124
0.0036696998
0.0036715383
0.0036725859
0.0036727875
0.0036722972
0.0036710589
0.0036695823
0.0036673122
0.0036623602
4.1642334e-07
4.1394368e-07
4.1142781e-07
4.0886168e-07
4.0624193e-07
4.0356782e-07
4.008393e-07
3.9805651e-07
3.9521969e-07
3.923292e-07
3.8938552e-07
3.8638938e-07
3.83342e-07
3.8024522e-07
3.7710059e-07
3.7390913e-07
3.706702e-07
3.6738348e-07
3.6404879e-07
3.6066454e-07
3.5722703e-07
3.5371016e-07
3.5014353e-07
3.4653664e-07
3.428958e-07
3.3922674e-07
3.3554612e-07
3.3184547e-07
3.2812404e-07
3.2438765e-07
3.2066004e-07
3.169249e-07
3.1318937e-07
3.0947529e-07
3.0582702e-07
3.0233368e-07
2.991732e-07
2.9676972e-07
2.9604554e-07
2.9914596e-07
3.1161868e-07
3.4658155e-07
4.4124432e-07
6.7556716e-07
1.2619069e-06
2.6400244e-06
5.5394863e-06
1.1409155e-05
2.2586026e-05
4.4069124e-05
8.1966432e-05
0.0001410719
0.00022842607
0.00035166761
0.0005014319
0.00067322596
0.00086067417
0.0010642217
0.0012699504
0.0014678923
0.0016538303
0.0018258323
0.0019833147
0.0021307427
0.0022675961
0.0023945528
0.0025091554
0.0026122527
0.0027051354
0.0027894149
0.0028660488
0.002935471
0.0029981909
0.0030550112
0.0031068278
0.0031538766
0.0031963666
0.0032348458
0.0032698479
0.0033017626
0.0033308658
0.0033574134
0.003381295
0.0034028751
0.0034224688
0.0034402396
0.003456325
0.0034708664
0.003483909
0.0034955146
0.0035058092
0.0035149043
0.0035229081
0.003529793
0.0035355647
0.0035404045
0.0035442483
0.003547686
0.003549612
0.0035514841
4.1634952e-07
4.1386857e-07
4.1135113e-07
4.0878321e-07
4.0616153e-07
4.0348534e-07
4.007546e-07
3.9796945e-07
3.9513012e-07
3.9223692e-07
3.8929026e-07
3.8629069e-07
3.8323897e-07
3.8013604e-07
3.7698277e-07
3.7377992e-07
3.7052849e-07
3.6722956e-07
3.6388418e-07
3.6049315e-07
3.5705737e-07
3.5357696e-07
3.5005252e-07
3.4648492e-07
3.4287518e-07
3.3922412e-07
3.3553263e-07
3.318008e-07
3.2802676e-07
3.2420868e-07
3.2033155e-07
3.1642145e-07
3.1248683e-07
3.0853239e-07
3.0456387e-07
3.0058735e-07
2.9662604e-07
2.926628e-07
2.8870007e-07
2.8477281e-07
2.808735e-07
2.770241e-07
2.7332346e-07
2.6999888e-07
2.677693e-07
2.6896007e-07
2.7995555e-07
3.2277287e-07
4.590838e-07
8.7199376e-07
2.0425958e-06
4.7760924e-06
1.0807524e-05
2.2779764e-05
4.7372405e-05
9.0725177e-05
0.00015770563
0.00025905983
0.00039145293
0.00054759498
0.00072194015
0.00090958653
0.0011064468
0.0012963884
0.0014750805
0.0016419103
0.0017963368
0.0019427493
0.0020805944
0.0022095361
0.0023267659
0.0024331201
0.0025299959
0.0026186856
0.0026999409
0.0027738084
0.0028406164
0.0029012001
0.0029563499
0.0030065726
0.003052314
0.0030941014
0.0031320523
0.003166528
0.0031979443
0.0032266365
0.0032528678
0.0032768548
0.0032984955
0.0033181416
0.0033360224
0.0033522698
0.003367003
0.0033803078
0.0033922299
0.0034029286
0.003412327
0.0034211041
0.003427608
0.0034368898
4.1657615e-07
4.1409354e-07
4.1157438e-07
4.0900469e-07
4.0638116e-07
4.0370308e-07
4.0097038e-07
3.9818321e-07
3.953418e-07
3.9244646e-07
3.8949757e-07
3.8649565e-07
3.8344137e-07
3.8033555e-07
3.7717901e-07
3.7397251e-07
3.7071688e-07
3.674131e-07
3.6406219e-07
3.6066516e-07
3.5722307e-07
3.5373712e-07
3.5020849e-07
3.4663838e-07
3.4302801e-07
3.3937862e-07
3.356914e-07
3.3196764e-07
3.2820856e-07
3.2441549e-07
3.2058919e-07
3.1673093e-07
3.1284232e-07
3.0892507e-07
3.0498093e-07
3.0101132e-07
2.9701789e-07
2.9299975e-07
2.8895584e-07
2.8486269e-07
2.8074743e-07
2.7662689e-07
2.7250914e-07
2.6842747e-07
2.6437422e-07
2.6035439e-07
2.5640631e-07
2.5253788e-07
2.4891398e-07
2.459326e-07
2.4582308e-07
2.5411158e-07
2.9794227e-07
4.4620211e-07
9.7862632e-07
2.5275685e-06
6.3195787e-06
1.4641701e-05
3.3103328e-05
6.8725433e-05
0.00012746812
0.00021765775
0.00034233261
0.00049110353
0.0006582092
0.00083698806
0.0010246253
0.001206416
0.0013772961
0.0015375201
0.0016871027
0.0018301168
0.0019657236
0.002092769
0.0022092372
0.0023159501
0.0024139344
0.0025038764
0.00258605
0.0026608098
0.0027289045
0.0027911863
0.0028479212
0.0028994381
0.0029463115
0.0029891034
0.003028226
0.0030640418
0.0030965832
0.0031262405
0.0031533567
0.0031781736
0.0032008982
0.0032215497
0.0032403065
0.0032574511
0.0032729217
0.0032875221
0.0032990592
0.0033164501
4.1680223e-07
4.1431838e-07
4.1179797e-07
4.09227e-07
4.0660218e-07
4.0392277e-07
4.0118874e-07
3.9840021e-07
3.9555743e-07
3.9266071e-07
3.8971045e-07
3.8670715e-07
3.836515e-07
3.8054432e-07
3.7738645e-07
3.7417869e-07
3.7092186e-07
3.676169e-07
3.6426479e-07
3.6086651e-07
3.5742308e-07
3.5393559e-07
3.5040516e-07
3.4683302e-07
3.4322044e-07
3.3956875e-07
3.3587935e-07
3.3215366e-07
3.283932e-07
3.2459954e-07
3.2077437e-07
3.1691934e-07
3.130361e-07
3.0912632e-07
3.051917e-07
3.0123397e-07
2.972548e-07
2.9325584e-07
2.8923894e-07
2.8520501e-07
2.8115538e-07
2.7709188e-07
2.7301608e-07
2.6892957e-07
2.648324e-07
2.6071273e-07
2.5655153e-07
2.5239174e-07
2.4825188e-07
2.4418227e-07
2.4015307e-07
2.3621811e-07
2.3239595e-07
2.2880191e-07
2.2624182e-07
2.2740789e-07
2.4529572e-07
3.1995436e-07
6.3529256e-07
1.7296892e-06
4.7979863e-06
1.1859755e-05
2.8751251e-05
6.3057712e-05
0.00012125934
0.00021256355
0.00033684466
0.00048513049
0.00065042213
0.00082522355
0.0010055044
0.0011780099
0.001339813
0.0014922039
0.0016360135
0.0017746743
0.0019066364
0.0020295856
0.002142799
0.0022470845
0.0023433376
0.0024319545
0.0025129631
0.002586806
0.0026542304
0.0027157662
0.0027718696
0.0028231382
0.0028698547
0.0029124073
0.0029512446
0.0029867838
0.0030193814
0.0030491273
0.003076247
0.0031011223
0.0031237743
0.0031451885
0.0031623488
0.0031886469
4.1704813e-07
4.145628e-07
4.1204089e-07
4.0946838e-07
4.0684196e-07
4.0416093e-07
4.0142523e-07
3.9863501e-07
3.957905e-07
3.9289203e-07
3.8993998e-07
3.8693487e-07
3.8387734e-07
3.8076818e-07
3.7760823e-07
3.7439831e-07
3.7113929e-07
3.678321e-07
3.6447771e-07
3.6107714e-07
3.5763141e-07
3.5414161e-07
3.5060886e-07
3.4703439e-07
3.4341945e-07
3.3976536e-07
3.3607352e-07
3.3234534e-07
3.2858233e-07
3.2478604e-07
3.2095809e-07
3.1710014e-07
3.1321391e-07
3.0930116e-07
3.053637e-07
3.0140339e-07
2.974221e-07
2.9342178e-07
2.8940439e-07
2.8537202e-07
2.8132671e-07
2.7727042e-07
2.7320512e-07
2.6913257e-07
2.6505456e-07
2.6097267e-07
2.5688737e-07
2.5280005e-07
2.4871185e-07
2.4462404e-07
2.4053323e-07
2.3639316e-07
2.3225885e-07
2.2816624e-07
2.2415357e-07
2.2020229e-07
2.1637412e-07
2.1269134e-07
2.0958054e-07
2.0868395e-07
2.1995993e-07
2.7556834e-07
5.4212649e-07
1.5771252e-06
4.739932e-06
1.2271184e-05
3.1470357e-05
7.0045328e-05
0.00013586353
0.00023591503
0.00036791164
0.00052133242
0.00068819664
0.00086058205
0.0010328118
0.0011944614
0.0013468838
0.001491362
0.0016301425
0.0017633993
0.001889585
0.0020066306
0.0021150468
0.0022155567
0.0023083751
0.0023934382
0.0024712084
0.0025424979
0.0026076716
0.0026670491
0.0027211862
0.0027706437
0.0028159063
0.0028572219
0.0028948971
0.0029294024
0.0029608729
0.0029905472
0.003014634
0.003051475
4.1735126e-07
4.1486407e-07
4.1234024e-07
4.0976576e-07
4.0713733e-07
4.0445423e-07
4.0171642e-07
3.9892403e-07
3.9607731e-07
3.9317658e-07
3.9022223e-07
3.8721476e-07
3.8415478e-07
3.8104304e-07
3.7788038e-07
3.7466763e-07
3.7140565e-07
3.6809539e-07
3.6473785e-07
3.6133403e-07
3.5788498e-07
3.543918e-07
3.5085563e-07
3.4727769e-07
3.4365926e-07
3.4000165e-07
3.3630627e-07
3.3257454e-07
3.2880796e-07
3.2500809e-07
3.2117654e-07
3.1731497e-07
3.1342508e-07
3.0950864e-07
3.0556743e-07
3.0160332e-07
2.9761819e-07
2.9361397e-07
2.8959263e-07
2.8555617e-07
2.8150661e-07
2.7744602e-07
2.7337647e-07
2.6930004e-07
2.6521883e-07
2.6113495e-07
2.5705066e-07
2.5296801e-07
2.4888896e-07
2.4481504e-07
2.4074814e-07
2.3668807e-07
2.3263552e-07
2.2859183e-07
2.2455828e-07
2.2051973e-07
2.1644938e-07
2.1239651e-07
2.0845125e-07
2.0455735e-07
2.0080346e-07
1.9717825e-07
1.940379e-07
1.9292048e-07
2.0443351e-07
2.718851e-07
6.0498092e-07
1.9590053e-06
6.0242786e-06
1.6616389e-05
4.2831137e-05
9.2611505e-05
0.00017670785
0.00029268695
0.00043722514
0.00059779199
0.0007648064
0.0009321022
0.0010922906
0.0012433212
0.0013870577
0.0015244071
0.0016574264
0.0017847043
0.0019034258
0.0020138555
0.0021165676
0.0022117978
0.0022993992
0.002379671
0.00245326
0.0025205718
0.0025820789
0.0026382575
0.0026895122
0.0027363492
0.0027790145
0.0028190464
0.0028518129
0.0029016102
4.1768484e-07
4.1519564e-07
4.1266978e-07
4.1009323e-07
4.0746267e-07
4.047774e-07
4.0203736e-07
3.992427e-07
3.9639368e-07
3.934906e-07
3.9053386e-07
3.8752396e-07
3.844615e-07
3.8134721e-07
3.781819e-07
3.7496642e-07
3.7170164e-07
3.6838851e-07
3.65028e-07
3.6162115e-07
3.58169e-07
3.5467265e-07
3.5113325e-07
3.4755202e-07
3.4393024e-07
3.4026924e-07
3.3657041e-07
3.328352e-07
3.290651e-07
3.2526167e-07
3.2142654e-07
3.1756135e-07
3.1366782e-07
3.0974771e-07
3.0580282e-07
3.01835e-07
2.9784614e-07
2.9383817e-07
2.8981305e-07
2.8577277e-07
2.8171934e-07
2.7765481e-07
2.7358123e-07
2.6950068e-07
2.6541525e-07
2.6132702e-07
2.5723811e-07
2.5315061e-07
2.4906664e-07
2.4498828e-07
2.4091758e-07
2.3685682e-07
2.3280802e-07
2.2877296e-07
2.2475307e-07
2.2074962e-07
2.1676205e-07
2.1279083e-07
2.088366e-07
2.0490139e-07
2.0092185e-07
1.9696004e-07
1.9311142e-07
1.8932362e-07
1.8568703e-07
1.8220291e-07
1.7933294e-07
1.7943065e-07
2.0081708e-07
3.2662978e-07
9.2835895e-07
3.3353832e-06
1.0010475e-05
2.8922702e-05
6.9378657e-05
0.00014215685
0.00024922513
0.00038608955
0.00054262912
0.00070635149
0.00086898634
0.0010263465
0.0011746873
0.0013163743
0.0014515618
0.0015832718
0.0017098705
0.0018286844
0.0019396564
0.0020432029
0.0021393632
0.0022278927
0.0023092118
0.0023838945
0.0024522338
0.002514709
0.0025716329
0.0026248004
0.0026685517
0.0027346748
4.1800911e-07
4.1551803e-07
4.1299026e-07
4.1041176e-07
4.0777921e-07
4.0509191e-07
4.023498e-07
3.9955304e-07
3.9670188e-07
3.9379663e-07
3.9083771e-07
3.8782559e-07
3.8476089e-07
3.8164432e-07
3.7847669e-07
3.7525885e-07
3.7199168e-07
3.686761e-07
3.6531311e-07
3.6190372e-07
3.5844898e-07
3.5494999e-07
3.5140791e-07
3.4782395e-07
3.441994e-07
3.4053558e-07
3.368339e-07
3.3309579e-07
3.2932275e-07
3.2551636e-07
3.2167821e-07
3.1780998e-07
3.1391338e-07
3.0999017e-07
3.0604215e-07
3.0207117e-07
2.9807914e-07
2.9406796e-07
2.9003962e-07
2.8599609e-07
2.819394e-07
2.7787159e-07
2.7379471e-07
2.6971084e-07
2.6562207e-07
2.6153047e-07
2.5743813e-07
2.5334714e-07
2.4925957e-07
2.451775e-07
2.4110296e-07
2.3703802e-07
2.3298471e-07
2.2894504e-07
2.2492098e-07
2.209145e-07
2.1692768e-07
2.1296247e-07
2.0901982e-07
2.0510162e-07
2.0120644e-07
1.9733421e-07
1.9348542e-07
1.8966418e-07
1.8580006e-07
1.8196484e-07
1.7825008e-07
1.7462075e-07
1.7110653e-07
1.6801556e-07
1.6539244e-07
1.7264749e-07
2.3065499e-07
5.7914251e-07
2.1314765e-06
7.087823e-06
2.2505981e-05
5.8218098e-05
0.00012595034
0.00022935695
0.00036248309
0.0005174013
0.00067854465
0.00083679237
0.0009901343
0.0011349344
0.0012736499
0.0014064623
0.0015360867
0.001661056
0.0017787023
0.0018888833
0.0019919331
0.0020876826
0.002175957
0.0022572284
0.0023316691
0.0024011499
0.0024586054
0.0025452715
4.1831269e-07
4.1581986e-07
4.1329032e-07
4.1071001e-07
4.0807561e-07
4.0538642e-07
4.0264239e-07
3.9984368e-07
3.9699053e-07
3.9408328e-07
3.9112233e-07
3.8810817e-07
3.850414e-07
3.8192273e-07
3.7875297e-07
3.7553295e-07
3.7226357e-07
3.6894575e-07
3.6558047e-07
3.6216875e-07
3.5871164e-07
3.5521024e-07
3.5166572e-07
3.4807929e-07
3.4445222e-07
3.4078586e-07
3.370816e-07
3.3334088e-07
3.2956522e-07
3.2575616e-07
3.2191533e-07
3.1804439e-07
3.1414506e-07
3.102191e-07
3.0626831e-07
3.0229455e-07
2.9829971e-07
2.9428571e-07
2.9025453e-07
2.8620816e-07
2.8214861e-07
2.7807793e-07
2.7399818e-07
2.6991143e-07
2.6581977e-07
2.6172528e-07
2.5763005e-07
2.5353616e-07
2.494457e-07
2.4536072e-07
2.4128328e-07
2.372154e-07
2.3315908e-07
2.2911631e-07
2.2508904e-07
2.2107918e-07
2.1708862e-07
2.1311925e-07
2.0917291e-07
2.0525128e-07
2.0135641e-07
1.9749008e-07
1.9365304e-07
1.8984704e-07
1.8607012e-07
1.8232151e-07
1.7860333e-07
1.7490691e-07
1.7118471e-07
1.6751282e-07
1.6394458e-07
1.6052838e-07
1.573385e-07
1.5447759e-07
1.5661097e-07
1.9140652e-07
4.4371704e-07
1.6539625e-06
5.9324422e-06
2.0450122e-05
5.5373596e-05
0.00012393513
0.00022863964
0.00036229067
0.00051731304
0.00067605994
0.00082979051
0.00097799866
0.0011187889
0.0012541272
0.001384137
0.0015113686
0.0016340163
0.0017495366
0.0018580042
0.0019596263
0.0020537307
0.0021421304
0.0022158444
0.0023275245
4.1859642e-07
4.1610195e-07
4.1357075e-07
4.1098874e-07
4.0835262e-07
4.0566167e-07
4.0291585e-07
4.0011531e-07
3.9726031e-07
3.9435119e-07
3.9138834e-07
3.8837227e-07
3.8530357e-07
3.8218293e-07
3.7901116e-07
3.757891e-07
3.7251763e-07
3.6919768e-07
3.6583023e-07
3.6241629e-07
3.5895692e-07
3.5545323e-07
3.5190637e-07
3.4831757e-07
3.4468811e-07
3.4101932e-07
3.373126e-07
3.335694e-07
3.2979122e-07
3.2597964e-07
3.2213626e-07
3.1826275e-07
3.1436083e-07
3.1043226e-07
3.0647885e-07
3.0250245e-07
2.9850496e-07
2.9448832e-07
2.9045447e-07
2.8640543e-07
2.823432e-07
2.7826984e-07
2.741874e-07
2.7009796e-07
2.6600361e-07
2.6190642e-07
2.5780851e-07
2.5371193e-07
2.4961879e-07
2.4553114e-07
2.4145103e-07
2.3738049e-07
2.3332153e-07
2.2927614e-07
2.2524624e-07
2.2123375e-07
2.1724056e-07
2.1326847e-07
2.0931929e-07
2.0539477e-07
2.0149661e-07
1.9762652e-07
1.9378613e-07
1.8997694e-07
1.862008e-07
1.824592e-07
1.7875283e-07
1.7508224e-07
1.714468e-07
1.6784027e-07
1.6428207e-07
1.6068368e-07
1.57107e-07
1.536724e-07
1.5028395e-07
1.4733982e-07
1.4373002e-07
1.4493456e-07
1.7256099e-07
4.0609884e-07
1.5761971e-06
5.9611006e-06
2.185378e-05
6.0023087e-05
0.00013517497
0.00024547157
0.00038308662
0.0005381533
0.00069359162
0.00084228729
0.00098554001
0.0011221419
0.0012537714
0.0013810739
0.0015055524
0.0016251813
0.0017377358
0.001845506
0.0019365864
0.0020765543
4.1886183e-07
4.1636583e-07
4.1383308e-07
4.112495e-07
4.0861176e-07
4.0591917e-07
4.0317167e-07
4.0036943e-07
3.9751271e-07
3.9460183e-07
3.9163722e-07
3.8861937e-07
3.8554886e-07
3.8242639e-07
3.7925274e-07
3.7602876e-07
3.7275533e-07
3.6943338e-07
3.6606388e-07
3.6264785e-07
3.5918634e-07
3.5568048e-07
3.5213141e-07
3.4854036e-07
3.4490862e-07
3.4123753e-07
3.3752848e-07
3.3378291e-07
3.3000236e-07
3.2618836e-07
3.2234256e-07
3.184666e-07
3.1456222e-07
3.1063117e-07
3.0667527e-07
3.0269637e-07
2.9869637e-07
2.946772e-07
2.9064082e-07
2.8658924e-07
2.8252447e-07
2.7844856e-07
2.7436357e-07
2.7027157e-07
2.6617466e-07
2.6207492e-07
2.5797445e-07
2.5387533e-07
2.4977963e-07
2.4568944e-07
2.4160679e-07
2.3753373e-07
2.3347225e-07
2.2942435e-07
2.2539196e-07
2.2137699e-07
2.1738133e-07
2.1340681e-07
2.094552e-07
2.0552826e-07
2.0162769e-07
1.9775511e-07
1.9391212e-07
1.9010027e-07
1.8632105e-07
1.8257595e-07
1.7886637e-07
1.7519359e-07
1.7155934e-07
1.6796428e-07
1.6440999e-07
1.6089425e-07
1.574129e-07
1.5397451e-07
1.5055072e-07
1.4708685e-07
1.4377162e-07
1.4049656e-07
1.3766176e-07
1.3415237e-07
1.3548167e-07
1.6554834e-07
4.467491e-07
1.8571529e-06
7.317652e-06
2.7126195e-05
7.3654656e-05
0.00015922876
0.00027876372
0.00042203013
0.00057690093
0.00072760608
0.00087075322
0.0010088109
0.001141312
0.0012692699
0.001393695
0.0015172739
0.0016232141
0.0017911795
4.1911015e-07
4.1661273e-07
4.1407853e-07
4.1149347e-07
4.0885423e-07
4.061601e-07
4.0341104e-07
4.0060722e-07
3.9774888e-07
3.9483638e-07
3.9187013e-07
3.888506e-07
3.8577841e-07
3.8265423e-07
3.7947883e-07
3.7625306e-07
3.7297779e-07
3.6965396e-07
3.6628254e-07
3.6286454e-07
3.5940103e-07
3.5589311e-07
3.5234196e-07
3.487488e-07
3.4511491e-07
3.4144163e-07
3.3773038e-07
3.3398259e-07
3.3019978e-07
3.2638351e-07
3.2253541e-07
3.1865715e-07
3.1475044e-07
3.1081705e-07
3.068588e-07
3.0287754e-07
2.9887516e-07
2.9485361e-07
2.9081484e-07
2.8676086e-07
2.8269369e-07
2.7861537e-07
2.7452797e-07
2.7043356e-07
2.6633424e-07
2.6223209e-07
2.581292e-07
2.5402767e-07
2.4992957e-07
2.4583697e-07
2.4175193e-07
2.3767647e-07
2.3361261e-07
2.2956233e-07
2.2552758e-07
2.2151026e-07
2.1751226e-07
2.135354e-07
2.0958149e-07
2.0565225e-07
2.017494e-07
1.9787457e-07
1.9402935e-07
1.9021528e-07
1.8643384e-07
1.8268644e-07
1.7897445e-07
1.7529918e-07
1.7166187e-07
1.6806383e-07
1.6450603e-07
1.6099e-07
1.575169e-07
1.5408661e-07
1.5070089e-07
1.4734974e-07
1.4404816e-07
1.4077396e-07
1.3744947e-07
1.3426168e-07
1.3115573e-07
1.2833241e-07
1.2548421e-07
1.2817693e-07
1.7453807e-07
6.0254367e-07
2.6726848e-06
1.1396816e-05
3.879677e-05
9.9484419e-05
0.00019898748
0.00032909578
0.00047705379
0.00062922861
0.00077415377
0.00091230167
0.0010450899
0.0011757256
0.001288464
0.0014777642
4.1934251e-07
4.1684376e-07
4.1430821e-07
4.1172178e-07
4.0908113e-07
4.0638557e-07
4.0363506e-07
4.0082975e-07
3.9796992e-07
3.950559e-07
3.9208811e-07
3.8906704e-07
3.8599327e-07
3.8286749e-07
3.7969046e-07
3.7646301e-07
3.7318603e-07
3.6986044e-07
3.6648721e-07
3.6306735e-07
3.5960195e-07
3.560921e-07
3.5253899e-07
3.4894383e-07
3.4530791e-07
3.4163258e-07
3.3791924e-07
3.3416934e-07
3.3038441e-07
3.26566e-07
3.2271573e-07
3.1883529e-07
3.1492638e-07
3.1099079e-07
3.0703032e-07
3.0304683e-07
2.9904222e-07
2.9501842e-07
2.909774e-07
2.8692116e-07
2.8285173e-07
2.7877114e-07
2.7468147e-07
2.705848e-07
2.664832e-07
2.6237878e-07
2.5827363e-07
2.5416983e-07
2.5006946e-07
2.459746e-07
2.418873e-07
2.378096e-07
2.337435e-07
2.2969098e-07
2.25654e-07
2.2163447e-07
2.1763426e-07
2.1365521e-07
2.0969911e-07
2.0576772e-07
2.0186271e-07
1.9798575e-07
1.9413841e-07
1.9032225e-07
1.8653873e-07
1.8278928e-07
1.7907526e-07
1.7539797e-07
1.7175864e-07
1.6815845e-07
1.645985e-07
1.6107986e-07
1.5760361e-07
1.5417065e-07
1.5078196e-07
1.4743886e-07
1.4414109e-07
1.4089094e-07
1.3767743e-07
1.3451603e-07
1.3137991e-07
1.2821154e-07
1.251736e-07
1.2223922e-07
1.1955886e-07
1.1715833e-07
1.2502231e-07
2.3220913e-07
1.0332113e-06
4.5743401e-06
1.9651089e-05
6.0466981e-05
0.00014037387
0.0002560776
0.00039616167
0.0005460737
0.00069216251
0.00083305277
0.00095396674
0.0011533731
4.1955997e-07
4.1705997e-07
4.1452317e-07
4.1193545e-07
4.092935e-07
4.0659661e-07
4.0384473e-07
4.0103805e-07
3.9817682e-07
3.9526138e-07
3.9229216e-07
3.8926964e-07
3.8619441e-07
3.8306713e-07
3.7988858e-07
3.7665957e-07
3.7338098e-07
3.7005373e-07
3.666788e-07
3.6325721e-07
3.5979002e-07
3.5627836e-07
3.5272339e-07
3.4912634e-07
3.4548851e-07
3.4181124e-07
3.3809594e-07
3.3434406e-07
3.3055711e-07
3.2673667e-07
3.2288436e-07
3.1900186e-07
3.1509089e-07
3.1115321e-07
3.0719064e-07
3.0320505e-07
2.9919833e-07
2.9517241e-07
2.9112927e-07
2.8707091e-07
2.8299934e-07
2.7891662e-07
2.7482482e-07
2.7072601e-07
2.6662227e-07
2.6251572e-07
2.5840842e-07
2.5430249e-07
2.502e-07
2.4610301e-07
2.4201359e-07
2.3793377e-07
2.3386556e-07
2.2981094e-07
2.2577186e-07
2.2175025e-07
2.1774797e-07
2.1376686e-07
2.0980871e-07
2.0587528e-07
2.0196825e-07
1.9808928e-07
1.9423996e-07
1.9042182e-07
1.8663635e-07
1.8288496e-07
1.7916902e-07
1.7548983e-07
1.7184863e-07
1.6824659e-07
1.6468483e-07
1.6116437e-07
1.5768621e-07
1.5425128e-07
1.5086039e-07
1.4751446e-07
1.4421418e-07
1.4096029e-07
1.3775395e-07
1.3459508e-07
1.314848e-07
1.2841388e-07
1.2539743e-07
1.2238349e-07
1.1938925e-07
1.1642565e-07
1.1398811e-07
1.1027404e-07
1.1063593e-07
1.3368106e-07
4.2116699e-07
2.1509054e-06
9.7907697e-06
3.6481432e-05
9.8802264e-05
0.00019983146
0.00033047643
0.00047894314
0.00061303612
0.00082803794
4.1976354e-07
4.1726239e-07
4.1472441e-07
4.1213549e-07
4.0949232e-07
4.0679418e-07
4.0404104e-07
4.0123307e-07
3.9837054e-07
3.9545378e-07
3.9248322e-07
3.8945935e-07
3.8638275e-07
3.8325409e-07
3.8007411e-07
3.7684363e-07
3.7356353e-07
3.7023474e-07
3.6685822e-07
3.6343499e-07
3.5996613e-07
3.5645275e-07
3.5289603e-07
3.4929721e-07
3.4565758e-07
3.4197847e-07
3.3826131e-07
3.3450755e-07
3.3071871e-07
3.2689636e-07
3.2304212e-07
3.1915767e-07
3.1524474e-07
3.1130509e-07
3.0734055e-07
3.0335297e-07
2.9934426e-07
2.9531634e-07
2.912712e-07
2.8721083e-07
2.8313726e-07
2.7905253e-07
2.7495871e-07
2.7085789e-07
2.6675214e-07
2.6264357e-07
2.5853427e-07
2.5442632e-07
2.5032182e-07
2.4622284e-07
2.4213142e-07
2.3804961e-07
2.3397941e-07
2.2992281e-07
2.2588177e-07
2.2185819e-07
2.1785396e-07
2.1387091e-07
2.0991084e-07
2.0597549e-07
2.0206657e-07
1.9818571e-07
1.9433451e-07
1.9051452e-07
1.867272e-07
1.82974e-07
1.7925626e-07
1.7557528e-07
1.7193231e-07
1.6832853e-07
1.6476504e-07
1.6124288e-07
1.5776305e-07
1.5432646e-07
1.5093396e-07
1.4758632e-07
1.4428429e-07
1.4102849e-07
1.3781964e-07
1.3465823e-07
1.3154488e-07
1.2848038e-07
1.2546492e-07
1.2249779e-07
1.1957083e-07
1.1670362e-07
1.1378965e-07
1.1096533e-07
1.0822069e-07
1.0576635e-07
1.0322396e-07
1.0906423e-07
2.0231625e-07
1.0162704e-06
4.9832635e-06
2.2300244e-05
6.890735e-05
0.00016016901
0.00026713156
0.00049166854
4.1995414e-07
4.174519e-07
4.1491282e-07
4.1232279e-07
4.0967848e-07
4.0697918e-07
4.0422487e-07
4.014157e-07
3.9855195e-07
3.9563396e-07
3.9266216e-07
3.8963703e-07
3.8655915e-07
3.8342919e-07
3.8024788e-07
3.7701604e-07
3.7373453e-07
3.7040428e-07
3.6702627e-07
3.6360151e-07
3.6013107e-07
3.5661608e-07
3.5305772e-07
3.4945723e-07
3.4581589e-07
3.4213506e-07
3.3841615e-07
3.3466061e-07
3.3086998e-07
3.2704582e-07
3.2318976e-07
3.1930348e-07
3.153887e-07
3.114472e-07
3.0748079e-07
3.0349134e-07
2.9948075e-07
2.9545095e-07
2.9140392e-07
2.8734166e-07
2.8326619e-07
2.7917957e-07
2.7508386e-07
2.7098113e-07
2.6687349e-07
2.6276302e-07
2.5865183e-07
2.5454199e-07
2.504356e-07
2.4633473e-07
2.4224143e-07
2.3815775e-07
2.3408568e-07
2.3002722e-07
2.2598433e-07
2.219589e-07
2.1795284e-07
2.1396796e-07
2.1000608e-07
2.0606893e-07