/*--------------------------------*- C++ -*----------------------------------*\
  =========                 |
  \\      /  F ield         | OpenFOAM: The Open Source CFD Toolbox
   \\    /   O peration     | Website:  https://openfoam.org
    \\  /    A nd           | Version:  12
     \\/     M anipulation  |
\*---------------------------------------------------------------------------*/
FoamFile
{
    format      ascii;
    class       volScalarField;
    location    "600";
    object      nut;
}
// * * * * * * * * * * * * * * * * * * * * * * * * * * * * * * * * * * * * * //

dimensions      [0 2 -1 0 0 0 0];

internalField   nonuniform List<scalar> 
7480
(
4.0196122e-09
3.9225241e-09
3.8282847e-09
3.7481185e-09
3.691593e-09
3.666268e-09
3.3032862e-09
2.8499779e-09
2.525487e-09
2.2765346e-09
2.1250092e-09
1.8554124e-09
2.3482684e-07
3.4424747e-06
5.5167557e-06
6.868922e-06
7.6636127e-06
8.0702248e-06
8.279165e-06
8.2717757e-06
8.2274746e-06
8.1447081e-06
7.8467528e-06
7.2036267e-06
6.6524745e-06
6.1831611e-06
5.7891625e-06
5.4745941e-06
5.218257e-06
5.0089778e-06
4.8410909e-06
4.7110221e-06
4.6152046e-06
4.5497878e-06
4.5106991e-06
4.4939219e-06
4.4953318e-06
4.5105463e-06
4.5386182e-06
4.5790339e-06
4.629747e-06
4.688165e-06
4.751803e-06
4.8187688e-06
4.8885488e-06
4.9581527e-06
5.0266863e-06
5.0930185e-06
5.1557823e-06
5.2136994e-06
5.2685057e-06
5.3187076e-06
5.3626213e-06
5.3993224e-06
5.4287246e-06
5.4514055e-06
5.468237e-06
5.4802695e-06
5.4893889e-06
5.4966885e-06
5.5024661e-06
5.506723e-06
5.5095525e-06
5.5111813e-06
5.5118364e-06
5.5116911e-06
5.5108835e-06
5.5097543e-06
5.5085936e-06
5.5073458e-06
5.5057863e-06
5.5037625e-06
5.5012274e-06
5.4981981e-06
5.4947324e-06
5.4909934e-06
5.48712e-06
5.4830833e-06
5.4787686e-06
5.4741078e-06
5.4691055e-06
5.463807e-06
5.4583402e-06
5.452768e-06
5.4470395e-06
5.4410928e-06
5.4348944e-06
5.4284715e-06
5.4219302e-06
5.4153016e-06
5.4085389e-06
5.401601e-06
5.3944781e-06
5.3872046e-06
5.3798612e-06
5.372231e-06
5.3647602e-06
5.3555754e-06
5.3491765e-06
5.3333674e-06
1.6240159e-08
1.6114897e-08
1.597326e-08
1.5823637e-08
1.5668073e-08
1.5507288e-08
1.5342257e-08
1.5174797e-08
1.500005e-08
1.4839769e-08
1.4601562e-08
1.5835626e-08
5.6588554e-09
4.9700582e-07
2.1740255e-06
4.198262e-06
5.1967431e-06
5.4059618e-06
5.2528653e-06
5.0698259e-06
4.9871734e-06
4.9856816e-06
5.0528771e-06
5.177916e-06
5.4310649e-06
5.790022e-06
6.2648195e-06
6.9052094e-06
7.2471036e-06
7.6262961e-06
8.0297746e-06
8.4450405e-06
8.8624462e-06
9.2746935e-06
9.6766404e-06
1.006618e-05
1.0439671e-05
1.0799877e-05
1.1155762e-05
1.151024e-05
1.1856173e-05
1.2188161e-05
1.2504144e-05
1.2804506e-05
1.3095672e-05
1.3357346e-05
1.3604959e-05
1.3831319e-05
1.4035518e-05
1.4218446e-05
1.437923e-05
1.4516274e-05
1.4630917e-05
1.4725936e-05
1.4804629e-05
1.4870247e-05
1.492552e-05
1.4973412e-05
1.5018078e-05
1.5059115e-05
1.5096089e-05
1.5129154e-05
1.5158899e-05
1.5185949e-05
1.5210761e-05
1.5233626e-05
1.5254802e-05
1.5274744e-05
1.5293226e-05
1.5309559e-05
1.5323436e-05
1.5335002e-05
1.5344555e-05
1.5352374e-05
1.535876e-05
1.5363984e-05
1.5367913e-05
1.5370193e-05
1.5370719e-05
1.536969e-05
1.5367375e-05
1.5364067e-05
1.5359942e-05
1.5354799e-05
1.5348405e-05
1.5340783e-05
1.5332109e-05
1.5322679e-05
1.5312645e-05
1.5301828e-05
1.5290071e-05
1.527742e-05
1.5264068e-05
1.5250198e-05
1.5235724e-05
1.5220514e-05
1.5204555e-05
1.5186975e-05
1.5172698e-05
1.5139714e-05
1.6303755e-08
1.6305811e-08
1.6307346e-08
1.6308205e-08
1.6308351e-08
1.6307761e-08
1.6306325e-08
1.6304306e-08
1.6300341e-08
1.6299083e-08
1.6279551e-08
1.6335515e-08
1.6071946e-08
1.6947362e-08
3.3441005e-08
1.3496499e-07
4.9770019e-07
1.1669676e-06
1.9814637e-06
2.6364633e-06
2.9816591e-06
3.0888408e-06
3.0686645e-06
2.9985955e-06
2.9314363e-06
2.953874e-06
3.0618012e-06
3.2665102e-06
3.5558956e-06
3.9250348e-06
4.3873491e-06
4.892179e-06
5.4558802e-06
6.0832493e-06
6.776549e-06
7.5378234e-06
8.3761416e-06
9.3119578e-06
1.0193683e-05
1.105323e-05
1.1930605e-05
1.2805447e-05
1.3661516e-05
1.449576e-05
1.5310099e-05
1.6107849e-05
1.6873189e-05
1.7587854e-05
1.8262831e-05
1.8900134e-05
1.9372858e-05
1.9798222e-05
2.0185222e-05
2.0539437e-05
2.0864386e-05
2.1163142e-05
2.1439734e-05
2.1697956e-05
2.1937254e-05
2.2158162e-05
2.2362506e-05
2.2552544e-05
2.273031e-05
2.2897504e-05
2.3055274e-05
2.320434e-05
2.334547e-05
2.3478257e-05
2.3601996e-05
2.3716891e-05
2.3823677e-05
2.3923148e-05
2.4016016e-05
2.410289e-05
2.4184434e-05
2.4260528e-05
2.4330563e-05
2.4394598e-05
2.445323e-05
2.4507123e-05
2.4556758e-05
2.4602694e-05
2.4644744e-05
2.4682446e-05
2.4715873e-05
2.4745534e-05
2.4771906e-05
2.4795545e-05
2.4816293e-05
2.483376e-05
2.4848036e-05
2.4859521e-05
2.4868696e-05
2.4875712e-05
2.4880143e-05
2.4882339e-05
2.4881275e-05
2.4879969e-05
2.4872642e-05
2.4860265e-05
1.6667402e-08
1.6674798e-08
1.6682447e-08
1.6689943e-08
1.6697163e-08
1.6704068e-08
1.6710642e-08
1.6716873e-08
1.6722743e-08
1.6728239e-08
1.6733367e-08
1.6738195e-08
1.6740235e-08
1.6756143e-08
1.670308e-08
1.6881985e-08
1.770816e-08
2.1475724e-08
3.669826e-08
7.6076422e-08
1.5005443e-07
2.6304773e-07
4.1359323e-07
5.9455128e-07
7.9856107e-07
1.0052828e-06
1.2005659e-06
1.3812377e-06
1.5502202e-06
1.7128971e-06
1.8788343e-06
2.0556549e-06
2.2501663e-06
2.5028882e-06
2.8203164e-06
3.2072534e-06
3.6782232e-06
4.2462916e-06
4.9094158e-06
5.6917387e-06
6.6153592e-06
7.6863629e-06
8.8508809e-06
9.888379e-06
1.0978873e-05
1.2112189e-05
1.3274363e-05
1.4442081e-05
1.5608453e-05
1.6761839e-05
1.7887553e-05
1.8983696e-05
2.0008511e-05
2.097762e-05
2.1902988e-05
2.2783678e-05
2.3620536e-05
2.4389571e-05
2.5001712e-05
2.5571598e-05
2.6106542e-05
2.6612421e-05
2.709283e-05
2.7549622e-05
2.7983989e-05
2.8397523e-05
2.8792557e-05
2.9168093e-05
2.952258e-05
2.9856883e-05
3.0172806e-05
3.0472099e-05
3.0756177e-05
3.1026096e-05
3.1282991e-05
3.1526695e-05
3.1756543e-05
3.1973021e-05
3.2177173e-05
3.237004e-05
3.255245e-05
3.2725404e-05
3.2888574e-05
3.3041553e-05
3.3184801e-05
3.3319196e-05
3.3445465e-05
3.3564495e-05
3.367598e-05
3.3779588e-05
3.3875718e-05
3.3965082e-05
3.4048438e-05
3.4125957e-05
3.4197077e-05
3.4262639e-05
3.4320813e-05
3.4378584e-05
3.4415727e-05
3.4483901e-05
1.6922818e-08
1.6931e-08
1.6939518e-08
1.6947921e-08
1.69561e-08
1.6964026e-08
1.6971687e-08
1.6979076e-08
1.6986189e-08
1.6993004e-08
1.699956e-08
1.7005646e-08
1.7011827e-08
1.7016558e-08
1.7019121e-08
1.7022278e-08
1.7030808e-08
1.7042649e-08
1.7065531e-08
1.7130797e-08
1.7312496e-08
1.7756877e-08
1.8731744e-08
2.0684669e-08
2.4299456e-08
3.0536497e-08
4.0663365e-08
5.6359976e-08
7.9920636e-08
1.144167e-07
1.6430226e-07
2.3569386e-07
3.373457e-07
4.7623566e-07
6.5940542e-07
8.8995158e-07
1.1689909e-06
1.4826138e-06
1.8466763e-06
2.227096e-06
2.6320936e-06
3.1188193e-06
3.7205483e-06
4.4463474e-06
5.3001412e-06
6.3049428e-06
7.4900813e-06
8.8477219e-06
9.956749e-06
1.1151096e-05
1.2420091e-05
1.3750372e-05
1.5111718e-05
1.6493014e-05
1.7876086e-05
1.9243051e-05
2.0594524e-05
2.1879571e-05
2.3115114e-05
2.4314261e-05
2.5472558e-05
2.658265e-05
2.763031e-05
2.8622614e-05
2.9572076e-05
3.0485515e-05
3.1368796e-05
3.2138085e-05
3.2826856e-05
3.3481812e-05
3.4107012e-05
3.4705055e-05
3.5277377e-05
3.582509e-05
3.6350139e-05
3.6851562e-05
3.7327844e-05
3.7780251e-05
3.8210768e-05
3.862114e-05
3.9012652e-05
3.9386826e-05
3.9742941e-05
4.0080616e-05
4.0400779e-05
4.0704758e-05
4.0993636e-05
4.1268745e-05
4.1529548e-05
4.1775891e-05
4.2008577e-05
4.2228652e-05
4.2437192e-05
4.263437e-05
4.2819571e-05
4.2994298e-05
4.3155669e-05
4.3316158e-05
4.3433816e-05
4.3644199e-05
1.6935898e-08
1.6944569e-08
1.6953653e-08
1.6962674e-08
1.6971511e-08
1.6980132e-08
1.6988527e-08
1.6996692e-08
1.7004623e-08
1.7012319e-08
1.7019785e-08
1.702703e-08
1.7034106e-08
1.704102e-08
1.7047913e-08
1.7054731e-08
1.7058945e-08
1.7062321e-08
1.7065811e-08
1.7071207e-08
1.707801e-08
1.7088289e-08
1.7100145e-08
1.7114075e-08
1.7131901e-08
1.7157264e-08
1.7195283e-08
1.7258632e-08
1.7366609e-08
1.7550926e-08
1.7866917e-08
1.841851e-08
1.9404334e-08
2.1211235e-08
2.4615227e-08
3.1091011e-08
4.3599893e-08
6.712449e-08
1.1150727e-07
1.9296746e-07
3.3288015e-07
5.5401382e-07
8.8223645e-07
1.3109532e-06
1.8629701e-06
2.4391398e-06
3.008124e-06
3.6738869e-06
4.4652124e-06
5.4061804e-06
6.5366452e-06
7.8690031e-06
9.4429674e-06
1.0750288e-05
1.2032857e-05
1.3402942e-05
1.4849999e-05
1.6346784e-05
1.7893265e-05
1.9463947e-05
2.1034947e-05
2.2579776e-05
2.4054152e-05
2.5519842e-05
2.6975839e-05
2.8408013e-05
2.9789436e-05
3.1111293e-05
3.2379297e-05
3.3601037e-05
3.4779597e-05
3.5908037e-05
3.6986293e-05
3.8020751e-05
3.902251e-05
3.9916827e-05
4.0719819e-05
4.1487835e-05
4.2224038e-05
4.2930581e-05
4.360879e-05
4.4260746e-05
4.488397e-05
4.5477984e-05
4.6044715e-05
4.658626e-05
4.7104167e-05
4.7600293e-05
4.8073448e-05
4.8523607e-05
4.8952082e-05
4.9360353e-05
4.9749922e-05
5.012091e-05
5.0472657e-05
5.0807383e-05
5.1121002e-05
5.143283e-05
5.1672447e-05
5.2094047e-05
1.6901433e-08
1.6910118e-08
1.6919212e-08
1.6928243e-08
1.6937091e-08
1.6945726e-08
1.6954138e-08
1.6962321e-08
1.6970274e-08
1.6977995e-08
1.6985487e-08
1.6992762e-08
1.6999845e-08
1.7006783e-08
1.7013606e-08
1.7020317e-08
1.702684e-08
1.703311e-08
1.7039076e-08
1.704462e-08
1.7049522e-08
1.7052501e-08
1.7054909e-08
1.7057158e-08
1.7059509e-08
1.706222e-08
1.706611e-08
1.7070799e-08
1.7076382e-08
1.7083292e-08
1.7093489e-08
1.710494e-08
1.711756e-08
1.7132282e-08
1.7151339e-08
1.7179144e-08
1.7225946e-08
1.7317886e-08
1.7510877e-08
1.7935803e-08
1.8939649e-08
2.1350051e-08
2.7529018e-08
4.2604331e-08
8.0008195e-08
1.666578e-07
3.3938369e-07
6.4696813e-07
1.1124047e-06
1.7630221e-06
2.48925e-06
3.169021e-06
3.9474314e-06
4.8608224e-06
5.9668272e-06
7.3102034e-06
8.8900462e-06
1.0745798e-05
1.2209138e-05
1.360319e-05
1.5100945e-05
1.6688201e-05
1.8338597e-05
2.0054102e-05
2.1796629e-05
2.3545995e-05
2.5231568e-05
2.6924631e-05
2.8636444e-05
3.0341852e-05
3.1998049e-05
3.3601569e-05
3.516584e-05
3.6696197e-05
3.8189481e-05
3.9625634e-05
4.0997157e-05
4.231407e-05
4.3582803e-05
4.4802265e-05
4.5972717e-05
4.7104056e-05
4.8094071e-05
4.9011847e-05
4.9892632e-05
5.0739053e-05
5.1552807e-05
5.2336214e-05
5.3085757e-05
5.3801927e-05
5.4487079e-05
5.5143273e-05
5.5772521e-05
5.6374518e-05
5.6948361e-05
5.7497097e-05
5.8015452e-05
5.8530767e-05
5.8937811e-05
5.9645206e-05
1.6898426e-08
1.690704e-08
1.6916049e-08
1.6924985e-08
1.6933731e-08
1.6942256e-08
1.695055e-08
1.6958607e-08
1.6966425e-08
1.6973999e-08
1.698133e-08
1.6988418e-08
1.699527e-08
1.7001892e-08
1.7008282e-08
1.7014429e-08
1.7020331e-08
1.7025987e-08
1.7031398e-08
1.7036549e-08
1.7041431e-08
1.704599e-08
1.7050196e-08
1.7054031e-08
1.7057479e-08
1.7060516e-08
1.7063122e-08
1.706523e-08
1.7066672e-08
1.7067266e-08
1.7066149e-08
1.7064605e-08
1.7062997e-08
1.7061495e-08
1.7060345e-08
1.7059832e-08
1.7061285e-08
1.706389e-08
1.7068048e-08
1.707695e-08
1.7088355e-08
1.7102907e-08
1.7126132e-08
1.7170983e-08
1.7286272e-08
1.7626493e-08
1.8624266e-08
2.179062e-08
3.141642e-08
6.0245549e-08
1.411793e-07
3.2194126e-07
6.7405431e-07
1.219183e-06
2.0192521e-06
2.8109314e-06
3.6187118e-06
4.5821858e-06
5.7420801e-06
7.1482911e-06
8.8309905e-06
1.079545e-05
1.2910759e-05
1.4351343e-05
1.5911252e-05
1.758502e-05
1.9342668e-05
2.1191848e-05
2.3095585e-05
2.5026367e-05
2.6904618e-05
2.8810101e-05
3.0749539e-05
3.2689949e-05
3.4584698e-05
3.6448184e-05
3.8292274e-05
4.0107363e-05
4.1875344e-05
4.3587133e-05
4.5246442e-05
4.686316e-05
4.8418568e-05
4.9903612e-05
5.1327578e-05
5.26988e-05
5.4018196e-05
5.529276e-05
5.6396114e-05
5.7437803e-05
5.8439409e-05
5.9403185e-05
6.0331543e-05
6.1222446e-05
6.2074648e-05
6.289261e-05
6.367004e-05
6.4443144e-05
6.5065716e-05
6.61371e-05
1.6907613e-08
1.6916217e-08
1.6925215e-08
1.6934139e-08
1.6942872e-08
1.6951382e-08
1.6959659e-08
1.6967699e-08
1.6975496e-08
1.6983048e-08
1.6990352e-08
1.6997409e-08
1.700422e-08
1.7010787e-08
1.7017103e-08
1.7023158e-08
1.7028943e-08
1.7034452e-08
1.7039683e-08
1.7044634e-08
1.7049301e-08
1.7053688e-08
1.7057793e-08
1.7061612e-08
1.706514e-08
1.7068369e-08
1.7071287e-08
1.7073882e-08
1.7076136e-08
1.7078033e-08
1.707952e-08
1.7080571e-08
1.7081179e-08
1.708134e-08
1.7081051e-08
1.7080292e-08
1.7079056e-08
1.7077187e-08
1.707451e-08
1.7069544e-08
1.706376e-08
1.7058057e-08
1.7052869e-08
1.7050266e-08
1.7050054e-08
1.7053442e-08
1.7063474e-08
1.7078646e-08
1.7108115e-08
1.7179327e-08
1.7453742e-08
1.8335963e-08
2.1840661e-08
3.318747e-08
7.343878e-08
1.8917619e-07
4.5248763e-07
9.3371546e-07
1.7299069e-06
2.6514047e-06
3.5557034e-06
4.5732619e-06
5.8574034e-06
7.41152e-06
9.2775341e-06
1.144832e-05
1.3902799e-05
1.5607037e-05
1.7275555e-05
1.9072251e-05
2.0966959e-05
2.296864e-05
2.5033687e-05
2.712084e-05
2.9170105e-05
3.1289969e-05
3.3462941e-05
3.5632932e-05
3.7773174e-05
3.9893196e-05
4.1994616e-05
4.4063678e-05
4.6092468e-05
4.8072943e-05
5.000574e-05
5.1882323e-05
5.3695661e-05
5.5454879e-05
5.7143318e-05
5.8757727e-05
6.0305423e-05
6.1795054e-05
6.3234917e-05
6.4521693e-05
6.57062e-05
6.6847799e-05
6.7938847e-05
6.9024618e-05
6.9911659e-05
7.1426402e-05
1.6916776e-08
1.6925387e-08
1.6934394e-08
1.6943326e-08
1.6952068e-08
1.6960587e-08
1.6968874e-08
1.6976924e-08
1.6984732e-08
1.6992295e-08
1.6999611e-08
1.700668e-08
1.7013504e-08
1.7020084e-08
1.7026417e-08
1.7032494e-08
1.7038305e-08
1.7043844e-08
1.7049108e-08
1.7054091e-08
1.7058789e-08
1.70632e-08
1.7067319e-08
1.7071144e-08
1.7074673e-08
1.7077902e-08
1.708083e-08
1.7083453e-08
1.7085768e-08
1.7087775e-08
1.7089475e-08
1.7090865e-08
1.709194e-08
1.7092692e-08
1.7093114e-08
1.7093198e-08
1.7092928e-08
1.7092287e-08
1.7091265e-08
1.7089787e-08
1.7087808e-08
1.7085314e-08
1.7082275e-08
1.7078675e-08
1.7074394e-08
1.7068549e-08
1.7059763e-08
1.7050734e-08
1.7042608e-08
1.7039057e-08
1.703845e-08
1.704737e-08
1.7064015e-08
1.7093563e-08
1.7197539e-08
1.7588787e-08
1.929884e-08
2.5588237e-08
5.1467337e-08
1.4063425e-07
3.7802521e-07
8.4339866e-07
1.6887696e-06
2.7071359e-06
3.7279068e-06
4.8774373e-06
6.34831e-06
8.1510232e-06
1.0317881e-05
1.2798978e-05
1.5537587e-05
1.7401325e-05
1.9227493e-05
2.1182093e-05
2.3241316e-05
2.5409763e-05
2.7646026e-05
2.9883666e-05
3.216181e-05
3.4520956e-05
3.6918079e-05
3.9297129e-05
4.1673144e-05
4.4053681e-05
4.6420374e-05
4.8743388e-05
5.1016256e-05
5.324637e-05
5.5436896e-05
5.7565108e-05
5.9627793e-05
6.1626057e-05
6.3561123e-05
6.5417313e-05
6.7191951e-05
6.8894072e-05
7.0527333e-05
7.2131285e-05
7.3348768e-05
7.5384512e-05
1.6926742e-08
1.6935356e-08
1.6944366e-08
1.6953301e-08
1.6962044e-08
1.6970566e-08
1.6978855e-08
1.6986906e-08
1.6994714e-08
1.7002278e-08
1.7009593e-08
1.7016661e-08
1.702348e-08
1.7030051e-08
1.7036373e-08
1.7042435e-08
1.7048232e-08
1.7053757e-08
1.7059006e-08
1.7063976e-08
1.7068663e-08
1.7073062e-08
1.7077171e-08
1.7080987e-08
1.7084505e-08
1.7087724e-08
1.709064e-08
1.709325e-08
1.709555e-08
1.709754e-08
1.7099216e-08
1.7100577e-08
1.7101621e-08
1.7102348e-08
1.7102756e-08
1.7102843e-08
1.7102609e-08
1.7102054e-08
1.7101175e-08
1.7099979e-08
1.7098465e-08
1.709663e-08
1.7094464e-08
1.7091951e-08
1.7089067e-08
1.7085777e-08
1.7081961e-08
1.707757e-08
1.7072542e-08
1.7066848e-08
1.7060104e-08
1.7048936e-08
1.7037131e-08
1.7027196e-08
1.7022327e-08
1.7022127e-08
1.703364e-08
1.7054568e-08
1.7114984e-08
1.7357307e-08
1.8627495e-08
2.3747678e-08
4.7394368e-08
1.3858059e-07
4.0254751e-07
9.2979432e-07
1.9298348e-06
3.0182892e-06
4.188958e-06
5.568953e-06
7.3577997e-06
9.5386223e-06
1.2126252e-05
1.4997165e-05
1.7916547e-05
1.9805295e-05
2.1827736e-05
2.3967804e-05
2.6224845e-05
2.857975e-05
3.0987946e-05
3.3404626e-05
3.5934687e-05
3.8546753e-05
4.1162005e-05
4.3786353e-05
4.6426339e-05
4.9061669e-05
5.1671034e-05
5.4244979e-05
5.678229e-05
5.9264194e-05
6.1679221e-05
6.4041502e-05
6.6343009e-05
6.8568774e-05
7.0716388e-05
7.2823918e-05
7.4653753e-05
7.7552506e-05
1.693903e-08
1.6947646e-08
1.6956658e-08
1.6965593e-08
1.6974337e-08
1.6982859e-08
1.6991146e-08
1.6999195e-08
1.7007002e-08
1.7014561e-08
1.7021872e-08
1.7028932e-08
1.7035741e-08
1.7042297e-08
1.7048597e-08
1.7054635e-08
1.7060403e-08
1.7065896e-08
1.707111e-08
1.7076043e-08
1.7080691e-08
1.708505e-08
1.7089117e-08
1.709289e-08
1.7096365e-08
1.7099539e-08
1.7102409e-08
1.7104972e-08
1.7107226e-08
1.7109167e-08
1.7110795e-08
1.7112105e-08
1.7113096e-08
1.7113767e-08
1.7114115e-08
1.711414e-08
1.711384e-08
1.7113214e-08
1.7112262e-08
1.7110984e-08
1.7109381e-08
1.7107453e-08
1.7105202e-08
1.7102629e-08
1.7099735e-08
1.7096522e-08
1.7093001e-08
1.7089171e-08
1.7085025e-08
1.7080524e-08
1.7075657e-08
1.7070248e-08
1.7064192e-08
1.7057451e-08
1.7049999e-08
1.7040546e-08
1.7026936e-08
1.7012831e-08
1.7005641e-08
1.7001026e-08
1.7011263e-08
1.7030456e-08
1.7083299e-08
1.7314638e-08
1.8695729e-08
2.5320049e-08
5.7125772e-08
1.852742e-07
5.3817853e-07
1.2814771e-06
2.485222e-06
3.7327789e-06
5.1281864e-06
6.8777083e-06
9.1338171e-06
1.1879896e-05
1.4934389e-05
1.8180454e-05
2.0743154e-05
2.2873837e-05
2.5123273e-05
2.7476995e-05
2.9952512e-05
3.2518928e-05
3.5079604e-05
3.7786639e-05
4.0606197e-05
4.3447343e-05
4.6314738e-05
4.9218253e-05
5.2133215e-05
5.5021381e-05
5.7872885e-05
6.0696964e-05
6.3476342e-05
6.6193089e-05
6.8838557e-05
7.1445227e-05
7.3767124e-05
7.7490181e-05
1.6952553e-08
1.6961174e-08
1.697019e-08
1.697913e-08
1.6987879e-08
1.6996404e-08
1.7004695e-08
1.7012747e-08
1.7020556e-08
1.7028118e-08
1.703543e-08
1.7042491e-08
1.7049298e-08
1.705585e-08
1.7062143e-08
1.7068172e-08
1.7073931e-08
1.7079413e-08
1.7084616e-08
1.7089535e-08
1.7094168e-08
1.7098511e-08
1.7102561e-08
1.7106315e-08
1.7109769e-08
1.7112922e-08
1.7115769e-08
1.7118308e-08
1.7120536e-08
1.712245e-08
1.7124049e-08
1.712533e-08
1.7126291e-08
1.7126929e-08
1.7127244e-08
1.7127233e-08
1.7126896e-08
1.7126232e-08
1.7125238e-08
1.7123916e-08
1.7122264e-08
1.7120282e-08
1.711797e-08
1.7115328e-08
1.7112357e-08
1.7109059e-08
1.7105434e-08
1.7101486e-08
1.7097218e-08
1.7092632e-08
1.7087731e-08
1.7082532e-08
1.7077038e-08
1.7071234e-08
1.7065083e-08
1.7058532e-08
1.7051371e-08
1.704348e-08
1.7034807e-08
1.7025356e-08
1.700985e-08
1.6993284e-08
1.6984057e-08
1.6977652e-08
1.6988278e-08
1.700962e-08
1.7079578e-08
1.7433731e-08
1.9895014e-08
3.294346e-08
9.4725312e-08
3.3310743e-07
8.9883833e-07
2.0715513e-06
3.4134939e-06
4.9009307e-06
6.7299411e-06
9.0839646e-06
1.2037279e-05
1.5335089e-05
1.8817086e-05
2.2073882e-05
2.4343737e-05
2.6717794e-05
2.9181839e-05
3.178959e-05
3.4507483e-05
3.7236552e-05
4.0128683e-05
4.315721e-05
4.622519e-05
4.9341891e-05
5.2508633e-05
5.5693715e-05
5.8864383e-05
6.2013464e-05
6.5121325e-05
6.8212491e-05
7.097362e-05
7.5484131e-05
1.6965697e-08
1.6974325e-08
1.6983348e-08
1.6992296e-08
1.7001052e-08
1.7009584e-08
1.7017883e-08
1.7025942e-08
1.7033758e-08
1.7041328e-08
1.7048647e-08
1.7055714e-08
1.7062527e-08
1.7069084e-08
1.7075383e-08
1.7081417e-08
1.7087182e-08
1.7092671e-08
1.7097881e-08
1.7102808e-08
1.7107449e-08
1.71118e-08
1.7115857e-08
1.7119618e-08
1.712308e-08
1.7126238e-08
1.7129091e-08
1.7131636e-08
1.7133868e-08
1.7135787e-08
1.713739e-08
1.7138673e-08
1.7139636e-08
1.7140275e-08
1.714059e-08
1.7140579e-08
1.7140241e-08
1.7139574e-08
1.7138577e-08
1.713725e-08
1.7135592e-08
1.7133604e-08
1.7131284e-08
1.7128632e-08
1.712565e-08
1.7122337e-08
1.7118694e-08
1.7114721e-08
1.711042e-08
1.7105793e-08
1.710084e-08
1.7095564e-08
1.708997e-08
1.7084063e-08
1.7077846e-08
1.7071325e-08
1.7064519e-08
1.7057435e-08
1.7050009e-08
1.7042254e-08
1.7033883e-08
1.7024728e-08
1.7014743e-08
1.700412e-08
1.6986589e-08
1.6968418e-08
1.6958376e-08
1.6953948e-08
1.6963422e-08
1.7008842e-08
1.7094743e-08
1.8212644e-08
2.4813158e-08
6.32853e-08
2.3204356e-07
7.1088044e-07
1.8579181e-06
3.2898697e-06
4.9009826e-06
6.8817345e-06
9.4114875e-06
1.2659593e-05
1.625829e-05
2.0007373e-05
2.3803166e-05
2.6242117e-05
2.8753358e-05
3.135011e-05
3.4101666e-05
3.6976762e-05
3.9879722e-05
4.2985892e-05
4.6242108e-05
4.9553285e-05
5.2933301e-05
5.637677e-05
5.9832025e-05
6.3329756e-05
6.6476602e-05
7.1717224e-05
1.6978001e-08
1.6986635e-08
1.6995666e-08
1.7004621e-08
1.7013384e-08
1.7021924e-08
1.703023e-08
1.7038296e-08
1.704612e-08
1.7053696e-08
1.7061022e-08
1.7068097e-08
1.7074917e-08
1.708148e-08
1.7087785e-08
1.7093825e-08
1.7099597e-08
1.7105094e-08
1.7110312e-08
1.7115249e-08
1.71199e-08
1.7124261e-08
1.7128329e-08
1.7132101e-08
1.7135573e-08
1.7138743e-08
1.7141607e-08
1.7144163e-08
1.7146407e-08
1.7148337e-08
1.7149951e-08
1.7151245e-08
1.7152219e-08
1.715287e-08
1.7153195e-08
1.7153195e-08
1.7152867e-08
1.715221e-08
1.7151223e-08
1.7149906e-08
1.7148259e-08
1.7146279e-08
1.7143969e-08
1.7141326e-08
1.7138353e-08
1.7135049e-08
1.7131415e-08
1.7127451e-08
1.7123158e-08
1.7118538e-08
1.7113591e-08
1.7108319e-08
1.7102723e-08
1.7096806e-08
1.7090569e-08
1.7084014e-08
1.7077147e-08
1.7069973e-08
1.7062497e-08
1.7054722e-08
1.7046674e-08
1.7038369e-08
1.7029732e-08
1.7020789e-08
1.7011195e-08
1.7000728e-08
1.6989509e-08
1.6976575e-08
1.6957328e-08
1.6939242e-08
1.6927332e-08
1.6932335e-08
1.695976e-08
1.7011634e-08
1.7617461e-08
2.1978713e-08
5.1855839e-08
1.9399928e-07
6.475012e-07
1.8443745e-06
3.3905836e-06
5.1644507e-06
7.3705542e-06
1.0202719e-05
1.3826061e-05
1.7771487e-05
2.1808614e-05
2.586204e-05
2.8552152e-05
3.1219285e-05
3.3979124e-05
3.6908048e-05
3.9957251e-05
4.3077233e-05
4.6420249e-05
4.9908928e-05
5.3471743e-05
5.7193156e-05
6.0585383e-05
6.6401472e-05
1.6989497e-08
1.6998137e-08
1.7007175e-08
1.7016136e-08
1.7024906e-08
1.7033453e-08
1.7041765e-08
1.7049838e-08
1.7057668e-08
1.7065251e-08
1.7072584e-08
1.7079664e-08
1.708649e-08
1.7093059e-08
1.7099368e-08
1.7105413e-08
1.711119e-08
1.7116692e-08
1.7121917e-08
1.712686e-08
1.7131518e-08
1.7135886e-08
1.7139961e-08
1.7143741e-08
1.7147221e-08
1.7150398e-08
1.715327e-08
1.7155834e-08
1.7158086e-08
1.7160024e-08
1.7161645e-08
1.7162948e-08
1.716393e-08
1.7164588e-08
1.7164922e-08
1.716493e-08
1.7164609e-08
1.716396e-08
1.7162982e-08
1.7161673e-08
1.7160033e-08
1.7158061e-08
1.7155759e-08
1.7153125e-08
1.7150159e-08
1.7146864e-08
1.7143238e-08
1.7139282e-08
1.7134998e-08
1.7130387e-08
1.712545e-08
1.7120188e-08
1.7114602e-08
1.7108695e-08
1.7102469e-08
1.7095924e-08
1.7089063e-08
1.7081889e-08
1.7074403e-08
1.706661e-08
1.7058513e-08
1.7050119e-08
1.7041438e-08
1.7032467e-08
1.7023244e-08
1.7013775e-08
1.7003998e-08
1.6993844e-08
1.6983086e-08
1.6970999e-08
1.6959426e-08
1.6939239e-08
1.6916791e-08
1.6905019e-08
1.6895386e-08
1.6938834e-08
1.6889719e-08
1.7415899e-08
2.1142285e-08
5.1039939e-08
1.9798855e-07
6.9316223e-07
2.0535344e-06
3.766868e-06
5.7473748e-06
8.2608475e-06
1.1577113e-05
1.5621707e-05
1.9923071e-05
2.4246616e-05
2.8526646e-05
3.1335749e-05
3.4163677e-05
3.7107421e-05
4.0227096e-05
4.3454829e-05
4.6831694e-05
5.0513375e-05
5.3887071e-05
5.9963822e-05
1.7000248e-08
1.7008895e-08
1.7017938e-08
1.7026906e-08
1.7035682e-08
1.7044235e-08
1.7052553e-08
1.7060633e-08
1.7068468e-08
1.7076057e-08
1.7083396e-08
1.7090482e-08
1.7097313e-08
1.7103886e-08
1.7110199e-08
1.7116248e-08
1.7122029e-08
1.7127536e-08
1.7132765e-08
1.7137713e-08
1.7142376e-08
1.7146749e-08
1.715083e-08
1.7154615e-08
1.71581e-08
1.7161283e-08
1.7164161e-08
1.716673e-08
1.7168987e-08
1.7170931e-08
1.7172558e-08
1.7173865e-08
1.7174852e-08
1.7175516e-08
1.7175855e-08
1.7175868e-08
1.7175552e-08
1.7174908e-08
1.7173934e-08
1.717263e-08
1.7170994e-08
1.7169028e-08
1.7166729e-08
1.71641e-08
1.7161139e-08
1.7157848e-08
1.7154226e-08
1.7150275e-08
1.7145996e-08
1.7141389e-08
1.7136456e-08
1.7131199e-08
1.7125618e-08
1.7119716e-08
1.7113495e-08
1.7106956e-08
1.7100102e-08
1.7092934e-08
1.7085456e-08
1.7077669e-08
1.7069576e-08
1.706118e-08
1.7052485e-08
1.7043493e-08
1.703421e-08
1.7024645e-08
1.7014808e-08
1.7004698e-08
1.6994367e-08
1.6983763e-08
1.697294e-08
1.6961535e-08
1.6948959e-08
1.6936085e-08
1.6919687e-08
1.6893676e-08
1.6879563e-08
1.6864983e-08
1.6910503e-08
1.6856773e-08
1.7412269e-08
2.1738129e-08
5.9809849e-08
2.4760162e-07
8.8776284e-07
2.5102526e-06
4.4520613e-06
6.7663117e-06
9.7326456e-06
1.3619911e-05
1.8104898e-05
2.2746686e-05
2.7354257e-05
3.1575161e-05
3.4564446e-05
3.7587393e-05
4.0751878e-05
4.4146035e-05
4.7211624e-05
5.3124416e-05
1.7010305e-08
1.7018957e-08
1.7028006e-08
1.703698e-08
1.7045762e-08
1.705432e-08
1.7062644e-08
1.7070729e-08
1.707857e-08
1.7086165e-08
1.7093509e-08
1.71006e-08
1.7107435e-08
1.7114013e-08
1.712033e-08
1.7126382e-08
1.7132166e-08
1.7137676e-08
1.7142909e-08
1.7147861e-08
1.7152527e-08
1.7156905e-08
1.716099e-08
1.7164779e-08
1.7168268e-08
1.7171456e-08
1.7174337e-08
1.717691e-08
1.7179172e-08
1.7181119e-08
1.718275e-08
1.7184062e-08
1.7185053e-08
1.718572e-08
1.7186063e-08
1.7186079e-08
1.7185767e-08
1.7185126e-08
1.7184155e-08
1.7182854e-08
1.7181221e-08
1.7179257e-08
1.7176962e-08
1.7174335e-08
1.7171376e-08
1.7168087e-08
1.7164468e-08
1.7160519e-08
1.7156242e-08
1.7151637e-08
1.7146706e-08
1.7141451e-08
1.7135872e-08
1.7129973e-08
1.7123753e-08
1.7117216e-08
1.7110364e-08
1.7103198e-08
1.7095722e-08
1.7087937e-08
1.7079847e-08
1.7071455e-08
1.7062763e-08
1.7053773e-08
1.7044491e-08
1.7034918e-08
1.7025058e-08
1.7014916e-08
1.7004499e-08
1.699382e-08
1.6982874e-08
1.697171e-08
1.6960351e-08
1.6948685e-08
1.6936817e-08
1.6923441e-08
1.6910331e-08
1.6894503e-08
1.6867584e-08
1.6850613e-08
1.6839026e-08
1.6868306e-08
1.6878679e-08
1.7642217e-08
2.4541298e-08
8.6411661e-08
3.7316932e-07
1.4011942e-06
3.2643269e-06
5.4672403e-06
8.2331001e-06
1.1892309e-05
1.6417123e-05
2.1360478e-05
2.6311734e-05
3.1206479e-05
3.5147169e-05
3.8349341e-05
4.1263255e-05
4.6697224e-05
1.7019713e-08
1.702837e-08
1.7037424e-08
1.7046403e-08
1.705519e-08
1.7063754e-08
1.7072083e-08
1.7080173e-08
1.708802e-08
1.7095619e-08
1.7102968e-08
1.7110064e-08
1.7116904e-08
1.7123485e-08
1.7129805e-08
1.7135861e-08
1.7141647e-08
1.714716e-08
1.7152396e-08
1.715735e-08
1.716202e-08
1.71664e-08
1.7170488e-08
1.717428e-08
1.7177773e-08
1.7180963e-08
1.7183848e-08
1.7186424e-08
1.7188688e-08
1.7190638e-08
1.7192272e-08
1.7193586e-08
1.719458e-08
1.719525e-08
1.7195595e-08
1.7195613e-08
1.7195303e-08
1.7194665e-08
1.7193696e-08
1.7192397e-08
1.7190766e-08
1.7188803e-08
1.7186509e-08
1.7183884e-08
1.7180927e-08
1.7177639e-08
1.717402e-08
1.7170073e-08
1.7165796e-08
1.7161192e-08
1.7156262e-08
1.7151007e-08
1.7145429e-08
1.713953e-08
1.7133311e-08
1.7126774e-08
1.7119922e-08
1.7112756e-08
1.710528e-08
1.7097495e-08
1.7089406e-08
1.7081013e-08
1.7072321e-08
1.7063332e-08
1.705405e-08
1.7044478e-08
1.7034619e-08
1.7024477e-08
1.7014056e-08
1.700336e-08
1.6992391e-08
1.6981157e-08
1.6969672e-08
1.6957938e-08
1.6945976e-08
1.6933846e-08
1.6921437e-08
1.690895e-08
1.6894909e-08
1.6881185e-08
1.6864257e-08
1.6837169e-08
1.682047e-08
1.6813698e-08
1.6844346e-08
1.6900522e-08
1.8456545e-08
3.5016652e-08
1.5812147e-07
6.5715157e-07
2.2595254e-06
4.4631836e-06
7.0739723e-06
1.0471925e-05
1.4963538e-05
2.008858e-05
2.5384958e-05
3.0723299e-05
3.5394502e-05
4.0841761e-05
1.7028514e-08
1.7037176e-08
1.7046235e-08
1.7055219e-08
1.7064011e-08
1.707258e-08
1.7080914e-08
1.7089009e-08
1.709686e-08
1.7104464e-08
1.7111818e-08
1.7118918e-08
1.7125761e-08
1.7132346e-08
1.7138669e-08
1.7144727e-08
1.7150515e-08
1.7156031e-08
1.7161268e-08
1.7166225e-08
1.7170896e-08
1.7175279e-08
1.7179369e-08
1.7183163e-08
1.7186657e-08
1.718985e-08
1.7192736e-08
1.7195314e-08
1.719758e-08
1.7199533e-08
1.7201168e-08
1.7202484e-08
1.7203479e-08
1.720415e-08
1.7204497e-08
1.7204516e-08
1.7204208e-08
1.7203571e-08
1.7202603e-08
1.7201304e-08
1.7199674e-08
1.7197713e-08
1.7195419e-08
1.7192794e-08
1.7189837e-08
1.7186549e-08
1.7182931e-08
1.7178983e-08
1.7174706e-08
1.7170102e-08
1.7165171e-08
1.7159916e-08
1.7154337e-08
1.7148437e-08
1.7142217e-08
1.7135679e-08
1.7128826e-08
1.7121659e-08
1.7114182e-08
1.7106396e-08
1.7098304e-08
1.708991e-08
1.7081216e-08
1.7072226e-08
1.7062942e-08
1.7053368e-08
1.7043508e-08
1.7033365e-08
1.7022943e-08
1.7012245e-08
1.7001276e-08
1.699004e-08
1.6978539e-08
1.696678e-08
1.6954764e-08
1.6942511e-08
1.6930019e-08
1.6917309e-08
1.6904441e-08
1.6891347e-08
1.687812e-08
1.6863423e-08
1.684927e-08
1.6828473e-08
1.6804174e-08
1.6775642e-08
1.6825048e-08
1.6676651e-08
1.7141328e-08
2.1178211e-08
6.8277469e-08
3.4282991e-07
1.3905508e-06
3.4750775e-06
6.0447351e-06
9.3148012e-06
1.3723243e-05
1.9125069e-05
2.4204814e-05
3.2958886e-05
1.703675e-08
1.7045416e-08
1.7054481e-08
1.706347e-08
1.7072266e-08
1.7080839e-08
1.7089178e-08
1.7097277e-08
1.7105133e-08
1.7112741e-08
1.7120099e-08
1.7127202e-08
1.713405e-08
1.7140637e-08
1.7146963e-08
1.7153022e-08
1.7158813e-08
1.7164329e-08
1.7169569e-08
1.7174527e-08
1.7179199e-08
1.7183583e-08
1.7187674e-08
1.7191469e-08
1.7194965e-08
1.7198158e-08
1.7201046e-08
1.7203625e-08
1.7205892e-08
1.7207845e-08
1.7209481e-08
1.7210798e-08
1.7211794e-08
1.7212466e-08
1.7212813e-08
1.7212833e-08
1.7212524e-08
1.7211887e-08
1.7210919e-08
1.7209621e-08
1.7207991e-08
1.7206029e-08
1.7203735e-08
1.7201109e-08
1.7198151e-08
1.7194863e-08
1.7191243e-08
1.7187294e-08
1.7183016e-08
1.7178411e-08
1.7173479e-08
1.7168222e-08
1.7162641e-08
1.7156739e-08
1.7150517e-08
1.7143977e-08
1.7137121e-08
1.7129952e-08
1.7122472e-08
1.7114684e-08
1.710659e-08
1.7098193e-08
1.7089496e-08
1.7080502e-08
1.7071216e-08
1.7061639e-08
1.7051775e-08
1.7041629e-08
1.7031203e-08
1.7020502e-08
1.700953e-08
1.699829e-08
1.6986788e-08
1.6975026e-08
1.6963008e-08
1.695074e-08
1.6938226e-08
1.6925467e-08
1.6912484e-08
1.6899276e-08
1.6885867e-08
1.6872305e-08
1.6858577e-08
1.684453e-08
1.6828962e-08
1.6814546e-08
1.6786014e-08
1.6763893e-08
1.6744819e-08
1.6778098e-08
1.6780071e-08
1.8158549e-08
3.4460059e-08
1.7552907e-07
8.0295378e-07
2.7302576e-06
5.2800838e-06
8.7088397e-06
1.2223265e-05
2.1137152e-05
1.7044458e-08
1.7053128e-08
1.7062197e-08
1.707119e-08
1.7079991e-08
1.7088569e-08
1.7096912e-08
1.7105015e-08
1.7112875e-08
1.7120487e-08
1.7127848e-08
1.7134955e-08
1.7141806e-08
1.7148396e-08