/*--------------------------------*- C++ -*----------------------------------*\
  =========                 |
  \\      /  F ield         | OpenFOAM: The Open Source CFD Toolbox
   \\    /   O peration     | Website:  https://openfoam.org
    \\  /    A nd           | Version:  12
     \\/     M anipulation  |
\*---------------------------------------------------------------------------*/
FoamFile
{
    format      ascii;
    class       volScalarField;
    location    "600";
    object      omega;
}
// * * * * * * * * * * * * * * * * * * * * * * * * * * * * * * * * * * * * * //

dimensions      [0 0 -1 0 0 0 0];

internalField   nonuniform List<scalar> 
13056
(
412.11495
168.77123
148.69678
145.29113
144.54946
144.56192
144.70203
144.81102
144.88678
144.94679
145.00067
145.05217
145.10276
145.15318
145.20392
145.25547
145.30784
145.36321
145.4133
145.49741
145.45382
145.95291
144.31998
212.49986
15925793
15925793
15925793
15925793
15925793
15925793
15925793
15925793
15925793
15925793
15925793
15925793
15925793
15925793
15925793
15925793
15925793
15925793
15925793
15925793
15925793
15925793
15925793
15925793
15925793
15925793
15925793
15925793
15925793
15925793
15925793
15925793
15925793
15925793
15925793
15925793
15925793
15925793
15925793
15925793
15925793
15925793
15925793
15925793
15925793
15925793
15925793
15925793
15925793
15925793
15925793
15925793
15925793
15925793
15925793
15925793
15925793
15925793
15925793
15925793
15925793
15925793
15925793
15925793
15925793
15925793
15925793
15925793
15925793
15925793
15925793
15925793
15925793
15925793
15925793
15925793
15925793
15925793
15925793
15925793
15925793
15925793
15925793
15925793
15925793
15925793
15925793
15925793
15925793
15925793
15925793
15925793
15925793
15925793
15925793
15925793
15925793
15925793
15925793
15925793
15925793
15925793
15925793
15925793
15925793
15925793
15925793
15925793
15925793
15925793
15925793
15925793
412.11785
168.75619
148.65763
145.24856
144.50545
144.51731
144.65728
144.76622
144.84196
144.90196
144.95583
145.00733
145.05792
145.10834
145.15908
145.21062
145.26299
145.31836
145.36844
145.45252
145.40878
145.90916
144.27023
209.35597
2727972.1
2723732.4
2723623.7
2723623
2723615.1
2723603.5
2723592.4
2723582.9
2723574.9
2723568
2723562
2723556.6
2723551.8
2723547.4
2723543.3
2723539.6
2723536.1
2723532.9
2723530
2723527.2
2723524.6
2723522.2
2723519.8
2723517.6
2723515.6
2723513.6
2723511.7
2723509.9
2723508.2
2723506.5
2723505
2723503.4
2723502
2723500.6
2723499.2
2723497.9
2723496.6
2723495.3
2723494.1
2723492.9
2723491.8
2723490.7
2723489.6
2723488.5
2723487.5
2723486.4
2723485.4
2723484.4
2723483.5
2723482.5
2723481.6
2723480.7
2723479.8
2723478.9
2723478
2723477.1
2723476.3
2723475.4
2723474.6
2723473.8
2723473
2723472.2
2723471.4
2723470.6
2723469.8
2723469
2723468.2
2723467.4
2723466.7
2723465.9
2723465.2
2723464.4
2723463.6
2723462.9
2723462.1
2723461.4
2723460.6
2723459.9
2723459.1
2723458.3
2723457.6
2723456.8
2723456.1
2723455.3
2723454.5
2723453.7
2723452.9
2723452.1
2723451.3
2723450.5
2723449.8
2723449.1
2723448.4
2723447.7
2723447.1
2723446.5
2723445.9
2723445.4
2723444.9
2723444.4
2723443.9
2723443.4
2723443
2723442.5
2723442.1
2723441.7
2723441.3
2723440.9
2723440.6
2723440.2
2723439.9
2723439.3
412.12886
168.69306
148.51799
145.09798
144.35014
144.36007
144.4994
144.60811
144.68377
144.74372
144.79755
144.84901
144.89956
144.94995
145.00066
145.05217
145.10451
145.15984
145.2099
145.2939
145.25002
145.75227
144.10262
205.70432
912030.75
910429.93
910285.28
910282.51
910254.75
910219.24
910186.7
910159.19
910135.86
910115.7
910098.04
910082.39
910068.14
910055.1
910043.11
910032.08
910021.9
910012.46
910003.67
909995.45
909987.73
909980.45
909973.58
909967.07
909960.89
909955.01
909949.4
909944.05
909938.92
909934
909929.28
909924.73
909920.34
909916.11
909912.01
909908.05
909904.2
909900.47
909896.84
909893.31
909889.87
909886.5
909883.21
909879.99
909876.85
909873.77
909870.76
909867.8
909864.9
909862.06
909859.26
909856.5
909853.79
909851.11
909848.48
909845.88
909843.31
909840.77
909838.26
909835.78
909833.33
909830.89
909828.48
909826.09
909823.71
909821.35
909819.01
909816.68
909814.36
909812.06
909809.76
909807.46
909805.18
909802.9
909800.62
909798.34
909796.06
909793.78
909791.5
909789.21
909786.91
909784.6
909782.29
909779.96
909777.61
909775.25
909772.86
909770.46
909768.03
909765.62
909763.31
909761.12
909759.04
909757.05
909755.16
909753.36
909751.63
909749.98
909748.39
909746.87
909745.41
909744
909742.65
909741.34
909740.07
909738.85
909737.66
909736.5
909735.39
909734.24
909733.23
909731.58
412.14822
168.58084
148.27425
144.83536
144.07929
144.08593
144.22407
144.33239
144.4079
144.46774
144.52149
144.57288
144.62336
144.67369
144.72434
144.77579
144.82806
144.88333
144.93332
145.01721
144.97318
145.47763
143.81302
201.87139
424463.79
421880.76
421645.11
421634.3
421574.84
421501.18
421434.22
421377.68
421329.65
421288.12
421251.71
421219.41
421189.98
421163.03
421138.25
421115.43
421094.38
421074.84
421056.62
421039.59
421023.58
421008.48
420994.22
420980.7
420967.87
420955.65
420944.01
420932.89
420922.22
420911.99
420902.16
420892.69
420883.56
420874.75
420866.22
420857.95
420849.95
420842.17
420834.6
420827.24
420820.05
420813.02
420806.15
420799.44
420792.89
420786.47
420780.17
420774
420767.94
420761.99
420756.14
420750.38
420744.71
420739.12
420733.61
420728.17
420722.8
420717.49
420712.24
420707.05
420701.91
420696.81
420691.75
420686.74
420681.77
420676.83
420671.92
420667.03
420662.17
420657.34
420652.52
420647.71
420642.92
420638.14
420633.35
420628.56
420623.78
420619
420614.2
420609.39
420604.56
420599.72
420594.85
420589.95
420585.02
420580.06
420575.04
420569.98
420564.87
420559.8
420554.95
420550.35
420545.96
420541.78
420537.8
420534
420530.36
420526.88
420523.54
420520.34
420517.26
420514.29
420511.43
420508.67
420506
420503.42
420500.92
420498.48
420496.12
420493.7
420491.57
420488.1
412.17627
168.41798
147.92075
144.45434
143.68627
143.68815
143.82452
143.93225
144.00751
144.0672
144.12081
144.17209
144.22247
144.2727
144.32326
144.37462
144.4268
144.48196
144.53185
144.61557
144.57143
145.07805
143.39463
197.9114
238278.97
234361.24
233984.1
233953.21
233850.28
233725.88
233613.29
233518.15
233437.23
233367.21
233305.76
233251.2
233201.47
233155.9
233113.97
233075.33
233039.65
233006.52
232975.62
232946.7
232919.51
232893.86
232869.6
232846.62
232824.79
232803.99
232784.16
232765.2
232747.02
232729.57
232712.81
232696.64
232681.05
232666.01
232651.44
232637.31
232623.62
232610.33
232597.39
232584.78
232572.48
232560.46
232548.7
232537.21
232525.97
232514.97
232504.18
232493.6
232483.21
232473.01
232462.96
232453.08
232443.35
232433.75
232424.29
232414.94
232405.71
232396.59
232387.56
232378.63
232369.79
232361.02
232352.33
232343.7
232335.14
232326.63
232318.17
232309.76
232301.39
232293.06
232284.75
232276.46
232268.19
232259.94
232251.69
232243.43
232235.17
232226.91
232218.62
232210.31
232201.98
232193.61
232185.19
232176.72
232168.2
232159.6
232150.93
232142.17
232133.32
232124.55
232116.14
232108.16
232100.55
232093.31
232086.41
232079.82
232073.52
232067.48
232061.69
232056.13
232050.78
232045.63
232040.66
232035.87
232031.24
232026.76
232022.42
232018.17
232014.08
232009.87
232006.16
232000.13
412.21345
168.20262
147.44997
143.9464
143.16215
143.15767
143.2916
143.39852
143.47345
143.53292
143.58635
143.63746
143.68771
143.73781
143.78824
143.83947
143.89152
143.94654
143.9963
144.0798
144.03554
144.54428
142.83791
193.82297
151081.48
146110.87
145529
145457.19
145300.94
145117.48
144951.93
144811.85
144692.54
144589.19
144498.39
144417.68
144344.08
144276.58
144214.41
144157.07
144104.07
144054.81
144008.83
143965.78
143925.25
143887.01
143850.81
143816.49
143783.87
143752.77
143723.11
143694.74
143667.5
143641.36
143616.23
143591.98
143568.59
143546.01
143524.12
143502.89
143482.31
143462.32
143442.84
143423.88
143405.35
143387.24
143369.52
143352.2
143335.27
143318.67
143302.39
143286.42
143270.74
143255.32
143240.15
143225.21
143210.49
143195.97
143181.65
143167.51
143153.54
143139.72
143126.04
143112.51
143099.1
143085.81
143072.62
143059.53
143046.53
143033.61
143020.76
143007.98
142995.26
142982.59
142969.95
142957.34
142944.76
142932.21
142919.63
142907.05
142894.47
142881.88
142869.24
142856.57
142843.86
142831.08
142818.23
142805.29
142792.27
142779.13
142765.87
142752.48
142738.94
142725.51
142712.64
142700.42
142688.76
142677.66
142667.09
142656.99
142647.32
142638.05
142629.17
142620.64
142612.43
142604.52
142596.89
142589.53
142582.42
142575.53
142568.85
142562.32
142556.03
142549.56
142543.85
142534.57
412.26029
167.93279
146.85277
143.3011
142.49597
142.48334
142.61411
142.71995
142.79443
142.8536
142.90678
142.95769
143.00774
143.05767
143.10794
143.15901
143.21088
143.26573
143.31532
143.39853
143.35417
143.86501
142.13095
189.59159
104673.55
99065.605
98198.97
98054.017
97837.99
97593.923
97374.4
97188.303
97029.512
96891.771
96770.609
96662.766
96564.349
96473.995
96390.672
96313.715
96242.5
96176.243
96114.325
96056.284
96001.602
95949.945
95901.009
95854.567
95810.395
95768.241
95728.009
95689.49
95652.488
95616.958
95582.764
95549.755
95517.893
95487.103
95457.247
95428.279
95400.179
95372.857
95346.23
95320.284
95294.937
95270.137
95245.873
95222.139
95198.916
95176.153
95153.811
95131.878
95110.331
95089.139
95068.276
95047.723
95027.461
95007.476
94987.745
94968.253
94948.986
94929.924
94911.051
94892.363
94873.844
94855.469
94837.231
94819.125
94801.14
94783.258
94765.463
94747.75
94730.119
94712.55
94695.016
94677.515
94660.051
94642.605
94625.134
94607.642
94590.143
94572.615
94555.029
94537.374
94519.658
94501.855
94483.927
94465.876
94447.695
94429.348
94410.812
94392.09
94373.149
94354.358
94336.333
94319.225
94302.892
94287.334
94272.505
94258.337
94244.768
94231.758
94219.282
94207.3
94195.763
94184.64
94173.913
94163.562
94153.558
94143.859
94134.456
94125.257
94116.405
94107.287
94099.244
94086.168
412.31732
167.60677
146.1187
142.50636
141.67497
141.65219
141.77892
141.88337
141.95726
142.01603
142.0689
142.11953
142.16935
142.21906
142.26911
142.31997
142.37163
142.42625
142.47563
142.55849
142.51404
143.02698
141.25987
185.20177
77698.735
71929.544
70674.221
70411.078
70133.392
69836.014
69569.703
69343.437
69150.007
68981.98
68833.959
68701.995
68581.505
68470.736
68368.42
68273.767
68186.038
68104.297
68027.804
67956.002
67888.269
67824.204
67763.441
67705.707
67650.735
67598.219
67548.041
67499.954
67453.717
67409.275
67366.465
67325.102
67285.143
67246.493
67208.987
67172.566
67137.207
67102.803
67069.248
67036.527
67004.544
66973.239
66942.591
66912.589
66883.213
66854.401
66826.104
66798.304
66770.977
66744.083
66717.589
66691.474
66665.711
66640.285
66615.166
66590.338
66565.781
66541.471
66517.387
66493.526
66469.866
66446.376
66423.048
66399.876
66376.844
66353.932
66331.117
66308.395
66285.765
66263.201
66240.67
66218.167
66195.7
66173.242
66150.738
66128.196
66105.63
66083.014
66060.309
66037.501
66014.601
65991.574
65968.371
65944.994
65921.434
65897.644
65873.593
65849.284
65824.676
65800.244
65776.794
65754.523
65733.256
65712.985
65693.652
65675.173
65657.465
65640.48
65624.183
65608.524
65593.441
65578.892
65564.856
65551.305
65538.205
65525.5
65513.177
65501.117
65489.509
65477.549
65466.994
65449.827
412.38505
167.22338
145.23634
141.54856
140.68498
140.64962
140.77132
140.87398
140.9471
141.00537
141.05782
141.1081
141.15762
141.20705
141.25684
141.30744
141.35883
141.41318
141.4623
141.54473
141.50022
142.01529
140.20913
180.64139
60882.309
55429.086
53663.33
53226.506
52889.38
52554.257
52256.321
52002.676
51785.518
51596.679
51430.099
51281.353
51145.55
51020.531
50904.843
50797.615
50698.046
50605.115
50518.006
50436.108
50358.733
50285.439
50215.822
50149.581
50086.423
50026.007
49968.205
49912.744
49859.354
49807.973
49758.425
49710.498
49664.145
49619.264
49575.668
49533.29
49492.104
49451.993
49412.836
49374.613
49337.236
49300.631
49264.764
49229.621
49195.181
49161.374
49128.143
49095.468
49063.323
49031.66
49000.444
48969.648
48939.245
48909.214
48879.524
48850.153
48821.081
48792.279
48763.724
48735.41
48707.315
48679.399
48651.655
48624.076
48596.644
48569.332
48542.118
48514.993
48487.957
48460.98
48434.022
48407.078
48380.155
48353.224
48326.218
48299.144
48272.021
48244.816
48217.483
48190.005
48162.394
48134.606
48106.586
48078.33
48049.83
48021.029
47991.886
47962.404
47932.533
47902.851
47874.336
47847.235
47821.345
47796.649
47773.08
47750.535
47728.917
47708.168
47688.246
47669.093
47650.634
47632.819
47615.622
47599.012
47582.945
47567.355
47552.227
47537.416
47523.151
47508.45
47495.468
47474.343
412.46392
166.78244
144.19365
140.41301
139.51062
139.45978
139.57524
139.67564
139.74776
139.80537
139.8573
139.90714
139.95627
140.00536
140.05482
140.1051
140.15617
140.21018
140.25899
140.34092
140.29635
140.81359
138.96196
175.90347
49680.985
44962.972
42573.449
41905.662
41512.551
41158.748
40848.265
40583.757
40357.254
40160.313
39986.5
39831.138
39689.517
39559.027
39438.075
39325.761
39221.276
39123.59
39031.872
38945.498
38863.764
38786.219
38712.45
38642.152
38575.025
38510.721
38449.11
38389.914
38332.853
38277.865
38224.771
38173.351
38123.556
38075.285
38028.342
37982.656
37938.203
37894.863
37852.509
37811.117
37770.626
37730.954
37692.044
37653.879
37616.439
37579.65
37543.453
37507.824
37472.738
37438.147
37404.01
37370.301
37336.988
37304.053
37271.462
37239.19
37207.217
37175.511
37144.048
37112.823
37081.809
37050.965
37020.283
36989.755
36959.362
36929.075
36898.868
36868.733
36838.669
36808.642
36778.61
36748.564
36718.515
36688.428
36658.229
36627.926
36597.538
36567.03
36536.348
36505.475
36474.42
36443.135
36411.557
36379.681
36347.496
36314.936
36281.955
36248.555
36214.676
36180.973
36148.561
36117.727
36088.261
36060.128
36033.253
36007.523
35982.83
35959.11
35936.319
35914.389
35893.239
35872.812
35853.081
35834.009
35815.549
35797.627
35780.225
35763.177
35746.749
35729.806
35714.838
35690.46
412.55426
166.2852
142.97849
139.08443
138.13552
138.06583
138.17363
138.27117
138.34199
138.39874
138.45
138.49928
138.54793
138.59659
138.64565
138.69554
138.74621
138.79983
138.84826
138.9296
138.88501
139.40441
137.50084
170.9867
41683.382
38018.527
34945.465
34000.006
33551.585
33194.37
32887.683
32626.948
32404.137
32210.849
32040.475
31888.241
31750.076
31622.812
31504.748
31394.978
31292.718
31196.995
31107.006
31022.147
30941.744
30865.361
30792.602
30723.172
30656.787
30593.11
30532.018
30473.248
30416.529
30361.799
30308.89
30257.591
30207.85
30159.574
30112.576
30066.781
30022.17
29978.631
29936.035
29894.357
29853.592
29813.646
29774.43
29735.922
29698.104
29660.909
29624.273
29588.174
29552.588
29517.469
29482.777
29448.484
29414.558
29380.985
29347.729
29314.766
29282.073
29249.623
29217.39
29185.368
29153.53
29121.835
29090.276
29058.844
29027.518
28996.27
28965.073
28933.92
28902.808
28871.702
28840.559
28809.371
28778.146
28746.848
28715.402
28683.815
28652.104
28620.233
28588.146
28555.823
28523.273
28490.445
28457.271
28423.745
28389.854
28355.527
28320.714
28285.413
28249.56
28213.849
28179.462
28146.715
28115.416
28085.501
28056.893
28029.476
28003.137
27977.812
27953.455
27929.998
27907.357
27885.47
27864.312
27843.845
27824.019
27804.756
27786.038
27767.687
27749.994
27731.727
27715.584
27689.263
412.65617
165.73487
141.57912
137.54725
136.54282
136.45034
136.54878
136.6427
136.71183
136.76748
136.81788
136.86645
136.9145
136.96262
137.01119
137.0606
137.11079
137.16393
137.21192
137.29257
137.248
137.76944
135.80816
165.89569
35538.732
33148.507
29425.598
28174.207
27665.95
27311.893
27017.788
26769.23
26557.855
26375.41
26215.179
26072.348
25943.817
25825.685
25716.148
25614.292
25519.367
25430.481
25346.884
25268.006
25193.228
25122.14
25054.374
24989.657
24927.726
24868.272
24811.175
24756.204
24703.107
24651.823
24602.202
24554.049
24507.312
24461.913
24417.679
24374.535
24332.467
24291.376
24251.141
24211.731
24173.226
24135.521
24098.477
24062.065
24026.274
23991.045
23956.313
23922.058
23888.258
23854.876
23821.869
23789.211
23756.872
23724.842
23693.089
23661.583
23630.306
23599.234
23568.344
23537.626
23507.054
23476.592
23446.234
23415.97
23385.778
23355.632
23325.507
23295.396
23265.295
23235.169
23204.978
23174.714
23144.384
23113.951
23083.343
23052.566
23021.636
22990.517
22959.152
22927.523
22895.636
22863.439
22830.866
22797.91
22764.554
22730.727
22696.379
22661.505
22626.04
22590.668
22556.563
22524.054
22492.998
22463.282
22434.832
22407.537
22381.288
22356.024
22331.702
22308.257
22285.605
22263.691
22242.486
22221.957
22202.055
22182.703
22163.884
22145.418
22127.602
22109.185
22092.909
22066.331
412.7695
165.1371
139.98483
135.78616
134.71565
134.59577
134.68278
134.77212
134.83904
134.89326
134.94255
134.99023
135.03752
135.08497
135.13292
135.18175
135.23137
135.28393
135.33141
135.41123
135.36676
135.88993
133.86719
160.64257
30476.58
29483.284
25250.744
23704.18
23127.798
22774.781
22494.177
22259.451
22061.318
21891.6
21743.452
21611.979
21495.292
21388.496
21289.684
21197.919
21112.468
21032.517
20957.372
20886.497
20819.329
20755.488
20694.634
20636.514
20580.887
20527.475
20476.164
20426.752
20379.011
20332.879
20288.229
20244.884
20202.791
20161.884
20122.015
20083.105
20045.143
20008.049
19971.711
19936.092
19901.383
19867.462
19834.123
19801.331
19769.08
19737.321
19705.992
19675.069
19644.541
19614.374
19584.528
19554.976
19525.693
19496.674
19467.887
19439.305
19410.909
19382.682
19354.602
19326.658
19298.827
19271.076
19243.401
19215.792
19188.228
19160.683
19133.139
19105.587
19078.022
19050.412
19022.721
18994.942
18967.079
18939.096
18910.931
18882.588
18854.078
18825.367
18796.405
18767.172
18737.672
18707.857
18677.665
18647.087
18616.106
18584.655
18552.685
18520.189
18487.104
18454.069
18422.18
18391.765
18362.757
18334.976
18308.351
18282.782
18258.17
18234.46
18211.614
18189.573
18168.26
18147.624
18127.64
18108.279
18089.494
18071.214
18053.426
18035.956
18019.095
18001.634
17986.211
17960.982
412.89376
164.50062
138.18675
133.78668
132.63764
132.48494
132.55799
132.64153
132.70559
132.75794
132.80581
132.85233
132.89865
132.94526
132.99245
133.04057
133.0895
133.14137
133.18824
133.2671
133.22283
133.74701
131.66324
155.24686
26065.104
26483.107
21966.77
20170.498
19521.773
19165.833
18897.631
18676.639
18491.844
18335.032
18199.231
18079.46
17973.89
17877.828
17789.279
17707.264
17631.042
17559.857
17493.064
17430.149
17370.6
17314.059
17260.21
17208.815
17159.652
17112.469
17067.153
17023.531
16981.399
16940.69
16901.296
16863.061
16825.928
16789.843
16754.678
16720.355
16686.863
16654.139
16622.08
16590.644
16560.166
16530.487
16501.321
16472.625
16444.397
16416.597
16389.168
16362.085
16335.34
16308.907
16282.75
16256.84
16231.156
16205.697
16180.437
16155.345
16130.405
16105.606
16080.93
16056.362
16031.882
16007.461
15983.1
15958.788
15934.501
15910.22
15885.93
15861.623
15837.29
15812.904
15788.436
15763.879
15739.234
15714.468
15689.528
15664.419
15639.147
15613.679
15587.974
15562.013
15535.798
15509.285
15482.417
15455.189
15427.581
15399.532
15370.999
15341.973
15312.397
15282.84
15254.285
15227.049
15201.168
15176.365
15152.576
15129.714
15107.693
15086.464
15065.996
15046.234
15027.114
15008.59
14990.641
14973.24
14956.347
14939.897
14923.882
14908.142
14892.947
14877.181
14863.27
14840.469
413.02802
163.83771
136.17872
131.53592
130.29365
130.10168
130.15772
130.23389
130.2942
130.34411
130.39012
130.43516
130.48025
130.5258
130.57205
130.61929
130.66737
130.71842
130.76456
130.8423
130.7984
131.32224
129.18546
149.73199
22076.759
23809.375
19296.448
17312.994
16592.902
16230.1
15972.701
15764.916
15593.061
15448.731
15324.881
15216.462
15120.829
15034.388
14955.115
14881.975
14814.201
14751.076
14691.993
14636.459
14583.998
14534.279
14486.999
14441.932
14398.872
14357.589
14317.97
14279.866
14243.096
14207.588
14173.248
14139.939
14107.603
14076.193
14045.602
14015.752
13986.63
13958.189
13930.337
13903.024
13876.574
13850.854
13825.592
13800.737
13776.29
13752.222
13728.477
13705.029
13681.875
13658.996
13636.356
13613.927
13591.693
13569.654
13547.789
13526.066
13504.471
13482.997
13461.629
13440.353
13419.146
13397.99
13376.883
13355.816
13334.766
13313.715
13292.654
13271.575
13250.468
13229.309
13208.075
13186.76
13165.362
13143.852
13122.188
13100.372
13078.407
13056.265
13033.909
13011.324
12988.51
12965.426
12942.027
12918.304
12894.239
12869.779
12844.887
12819.551
12793.722
12767.898
12742.936
12719.146
12696.686
12675.156
12654.497
12634.634
12615.493
12597.033
12579.227
12562.029
12545.382
12529.247
12513.608
12498.44
12483.709
12469.358
12455.383
12441.638
12428.37
12414.574
12402.423
12382.461
413.17087
163.16471
133.95839
129.02345
127.67049
127.43161
127.46686
127.53367
127.58907
127.63577
127.67937
127.72249
127.766
127.81021
127.85527
127.90142
127.94847
127.99853
128.04381
128.12022
128.07694
128.59808
126.42915
144.12104
18406.075
21248.257
17068.538
14972.298
14184.241
13809.123
13558.998
13362.253
13201.54
13068.006
12954.536
12856.021
12769.244
12691.369
12620.398
12555.241
12495.091
12439.252
12387.152
12338.315
12292.301
12248.799
12207.518
12168.24
12130.77
12094.901
12060.52
12027.496
11995.668
11964.961
11935.295
11906.549
11878.663
11851.595
11825.258
11799.576
11774.531
11750.09
11726.173
11702.727
11679.943
11657.758
11635.987
11614.573
11593.518
11572.8
11552.369
11532.198
11512.283
11492.614
11473.157
11453.884
11434.78
11415.849
11397.074
11378.422
11359.881
11341.447
11323.11
11304.852
11286.654
11268.5
11250.392
11232.32
11214.261
11196.202
11178.136
11160.056
11141.951
11123.801
11105.586
11087.304
11068.949
11050.497
11031.915
11013.204
10994.364
10975.369
10956.19
10936.814
10917.239
10897.429
10877.347
10856.985
10836.326
10815.324
10793.947
10772.185
10749.995
10727.805
10706.35
10685.904
10666.633
10648.159
10630.429
10613.376
10596.942
10581.089
10565.794
10551.017
10536.712
10522.844
10509.399
10496.356
10483.685
10471.339
10459.314
10447.48
10436.061
10424.16
10413.702
10396.478
413.32034
162.50236
131.52844
126.24234
124.75794
124.46302
124.47285
124.52774
124.57669
124.61915
124.6596
124.70023
124.74171
124.7842
124.82775
124.87255
124.91834
124.96718
125.01145
125.08625
125.04399
125.55866
123.39881
138.4313
15013.848
18692.509
15166.135
13042.93
12193.676
11800.725
11553.511
11364.939
11213.07
11088.234
10983.198
10892.786
10813.396
10742.676
10678.689
10620.284
10566.602
10516.952
10470.791
10427.659
10387.146
10348.959
10312.813
10278.494
10245.819
10214.597
10184.715
10156.057
10128.48
10101.909
10076.268
10051.457
10027.411
10004.094
9981.4331
9959.3561
9937.8422
9916.8665
9896.3606
9876.2711
9856.701
9837.6315
9818.9366
9800.559
9782.4984
9764.7401
9747.2398
9729.9686
9712.9242
9696.0993
9679.4664
9662.9961
9646.6754
9630.5101
9614.4854
9598.5717
9582.7555
9567.0363
9551.406
9535.8483
9520.3447
9504.8823
9489.4646
9474.0823
9458.7139
9443.3477
9427.9796
9412.6036
9397.209
9381.7777
9366.2951
9350.7597
9335.1647
9319.488
9303.7089
9287.8261
9271.8355
9255.7147
9239.44
9223.0017
9206.3949
9189.5908
9172.5576
9155.2892
9137.7696
9119.9602
9101.8345
9083.3825
9064.5678
9045.7548
9027.5645
9010.2146
8993.7921
8978.0523
8962.9449
8948.4148
8934.4104
8920.9022
8907.8679
8895.274
8883.0811
8871.2611
8859.8011
8848.682
8837.8793
8827.3523
8817.0985
8807.0043
8797.2684
8787.0973
8778.185
8763.4612
413.47386
161.87588
128.89802
123.19038
121.54983
121.18794
121.16662
121.20631
121.24679
121.28366
121.31996
121.35734
121.39618
121.43647
121.47811
121.5212
121.56543
121.61279
121.65582
121.7287
121.68801
122.19061
120.11083
132.66606
11898.128
16132.039
13502.482
11446.333
10547.485
10132.468
9883.73
9700.3341
9555.0087
9436.8267
9338.3416
9254.286
9180.7988
9115.8344
9057.527
9004.6499
8956.2784
8911.716
8870.4409
8832.0056
8796.0344
8762.2449
8730.3487
8700.1325
8671.4256
8644.0486
8617.8923
8592.8483
8568.7918
8545.6447
8523.3394
8501.7869
8480.9246
8460.7161
8441.1021
8422.0155
8403.4307
8385.3293
8367.6542
8350.3526
8333.4725
8317.0179
8300.9049
8285.0774
8269.5321
8254.2598
8239.2221
8224.3896
8209.7593
8195.3273
8181.0704
8166.9605
8152.9846
8139.149
8125.4427
8111.838
8098.3215
8084.8939
8071.5495
8058.2732
8045.0476
8031.862
8018.7203
8005.6147
7992.5252
7979.4414
7966.3611
7953.2792
7940.1855
7927.0643
7913.9041
7900.7043
7887.4578
7874.1451
7860.7585
7847.2913
7833.7366
7820.0747
7806.2867
7792.3647
7778.3034
7764.0783
7749.6638
7735.0543
7720.2355
7705.1751
7689.8513
7674.2545
7658.3549
7642.4609
7627.0958
7612.4327
7598.5104
7585.1715
7572.37
7560.059
7548.1952
7536.7531
7525.7132
7515.0469
7504.7212
7494.7124
7485.009
7475.5944
7466.4479
7457.535
7448.8544
7440.3065
7432.0669
7423.4419
7415.9071
7403.411
413.62823
161.31465
126.08425
119.8715
118.04537
117.60337
117.54383
117.56409
117.59345
117.62292
117.65376
117.68688
117.72229
117.75972
117.79892
117.83985
117.88213
117.92766
117.96919
118.03973
118.00136
118.48451
116.55215
126.84738
9079.3934
13617.894
12010.354
10117.347
9186.9995
8748.1011
8493.8097
8312.7208
8171.8441
8058.5179
7964.9429
7885.7311
7816.8635
7756.4702
7702.7552
7654.3758
7610.3374
7569.928
7532.6414
7498.0405
7465.7933
7435.6146
7407.2038
7380.3498
7354.8914
7330.6602
7307.55
7285.4587
7264.2749
7243.922
7224.3358
7205.4385
7187.1695
7169.492
7152.3567
7135.7028
7119.5006
7103.7352
7088.36
7073.3243
7058.6418
7044.3265
7030.3237
7016.5808
7003.091
6989.8487
6976.8218
6963.9814
6951.3228
6938.8442
6926.5265
6914.3438
6902.2828
6890.3488
6878.5343
6866.8148
6855.1764
6843.6199
6832.1414
6820.7278
6809.363
6798.0373
6786.7544
6775.5084
6764.2812
6753.063
6741.8525
6730.6459
6719.4335
6708.2019
6696.9416
6685.6521
6674.3272
6662.9495
6651.5272
6640.0446
6628.4919
6616.8519
6605.1092
6593.2574
6581.2912
6569.19
6556.9326
6544.5142
6531.9222
6519.1295
6506.118
6492.879
6479.3878
6465.9067
6452.8782
6440.4422
6428.6091
6417.2765
6406.4031
6395.9487
6385.8766
6376.1648
6366.7958
6357.7453
6348.9856
6340.4963
6332.2674
6324.2842
6316.5293
6308.9733
6301.6156
6294.3696
6287.3893
6280.072
6273.6994
6263.0802
413.77966
160.85143
123.11383
116.29732
114.25063
113.71271
113.60617
113.60163
113.61638
113.63605
113.65968
113.6872
113.71813
113.75185
113.78789
113.82607
113.86589
113.90914
113.94882
114.01648
113.98141
114.4361
112.71141
120.97781
6509.4705
11256.477
10634.27
8997.8693
8062.7422
7601.3175
7338.1462
7156.7236
7018.4311
6908.4307
6818.3974
6742.7832
6677.5348
6620.8196
6570.8961
6526.243
6485.7993
6448.8346
6414.8519
6383.4231
6354.27
6327.0911
6301.5686
6277.4951
6254.7177
6233.0779
6212.4735
6192.8069
6173.9771
6155.9113
6138.5475
6121.8167
6105.6618
6090.0453
6074.9249
6060.2468
6045.9788
6032.1067
6018.5929
6005.3912
5992.494
5979.9167
5967.6248
5955.5715
5943.7465
5932.1462
5920.7445
5909.5142
5898.4483
5887.5458
5876.7916
5866.1628
5855.6455
5845.2433
5834.9513
5824.7489
5814.622
5804.5703
5794.5915
5784.6747
5774.8052
5764.9738
5755.1834
5745.4298
5735.6974
5725.9768
5716.2665
5706.5636
5696.8602
5687.1442
5677.4071
5667.6485
5657.8632
5648.0364
5638.1941
5628.3082
5618.3662
5608.3532
5598.2562
5588.0698
5577.7892
5567.3971
5556.8754
5546.22
5535.4199
5524.4524
5513.302
5501.961
5490.4088
5478.8705
5467.7237
5457.0836
5446.9438
5437.2369
5427.9262
5418.977
5410.3575
5402.0486
5394.0348
5386.2952
5378.8061
5371.5499
5364.5177
5357.6967
5351.0719
5344.6183
5338.3357
5332.1486
5326.1917
5319.9435
5314.5182
5305.4253
413.92391
160.5208
120.02454
112.48882
110.1802
109.52733
109.36294
109.32671
109.32227
109.32897
109.34307
109.36322
109.38825
109.41713
109.44909
109.48373
109.52043
109.56083
109.5982
109.66228
109.63168
110.04782
108.58123
115.0226
4463.3676
9120.3402
9342.7575
8035.47
7131.9292
6652.8726
6378.4833
6194.3721
6056.9906
5949.0056
5861.3778
5788.3534
5726.0133
5672.3676
5625.6904
5584.2206
5546.8476
5512.8237
5481.6539
5452.9187
5426.3844
5401.7319
5378.6345
5356.8906
5336.355
5316.8775
5298.3607
5280.7105
5263.8338
5247.6627
5232.1373
5217.1949
5202.7832
5188.8641
5175.3994
5162.3431
5149.6615
5137.3398
5125.3475
5113.644
5102.2097
5091.0558
5080.1616
5069.4877
5059.0209
5048.7577
5038.678
5028.7569
5018.9854
5009.3619
4999.8751
4990.5054
4981.2386
4972.0758
4963.0143
4954.0375
4945.1316
4936.2946
4927.5248
4918.814
4910.1493
4901.5214
4892.9318
4884.3779
4875.847
4867.3298
4858.8242
4850.328
4841.8349
4833.3344
4824.8184
4816.2859
4807.7334
4799.1483
4790.57
4781.9601
4773.3049
4764.5916
4755.8087
4746.9513
4738.0156
4728.9867
4719.8489
4710.5984
4701.2262
4691.7127
4682.0443
4672.2143
4662.2056
4652.2131
4642.5633
4633.3529
4624.5654
4616.1558
4608.092
4600.3436
4592.883
4585.6931
4578.7601
4572.0661
4565.5904
4559.3176
4553.2396
4547.3454
4541.622
4536.0478
4530.6226
4525.2812
4520.1403
4514.7507
4510.0838
4502.2083
414.05639
160.35678
116.86637
108.47806
105.85896
105.06829
104.83259
104.7559
104.72634
104.7159
104.71738
104.72781
104.74509
104.76763
104.79427
104.82435
104.85705
104.89381
104.92828
104.9879
104.96302
105.33027
104.16054
108.87518
2909.1103
7310.4285
8140.9303
7194.7071
6359.6952
5869.5787
5582.6141
5393.7381
5255.7135
5148.5785
5062.3893
4991.1341
4931.2211
4880.2304
4836.3527
4797.616
4762.8851
4731.3962
4702.648
4676.2286
4651.8666
4629.2763
4608.1628
4588.3304
4569.6384
4551.9426
4535.1491
4519.1655
4503.9049
4489.3035
4475.3026
4461.8441
4448.8801
4436.3716
4424.2835
4412.5759
4401.2147
4390.1837
4379.458
4369.0023
4358.7892
4348.8251
4339.099
4329.5778
4320.2464
4311.1009
4302.126
4293.2993
4284.6099
4276.0556
4267.628
4259.3107
4251.0891
4242.9623
4234.9289
4226.9761
4219.0903
4211.268
4203.508
4195.8043
4188.1456
4180.5224
4172.9349
4165.3822
4157.8538
4150.3404
4142.8394
4135.3492
4127.865
4120.3775
4112.8787
4105.3675
4097.8416
4090.2902
4082.7384
4075.1597
4067.5438
4059.88
4052.1574
4044.3714
4036.5193
4028.5885
4020.5647
4012.4442
4004.2199
3995.8747
3987.3964
3978.7793
3970.0087
3961.2554
3952.805
3944.7403
3937.039
3929.67
3922.6062
3915.8206
3909.2886
3902.995