/*--------------------------------*- C++ -*----------------------------------*\
  =========                 |
  \\      /  F ield         | OpenFOAM: The Open Source CFD Toolbox
   \\    /   O peration     | Website:  https://openfoam.org
    \\  /    A nd           | Version:  12
     \\/     M anipulation  |
\*---------------------------------------------------------------------------*/
FoamFile
{
    format      ascii;
    class       volScalarField;
    location    "600";
    object      p;
}
// * * * * * * * * * * * * * * * * * * * * * * * * * * * * * * * * * * * * * //

dimensions      [0 2 -2 0 0 0 0];

internalField   nonuniform List<scalar> 
7480
(
0.0053224269
0.0052834341
0.0051751473
0.0051426677
0.0051597324
0.0051941395
0.0052419697
0.0053069805
0.0053955551
0.0055147325
0.0056851298
0.0059236918
0.0063924172
0.0068177428
0.0067599341
0.0063258269
0.0058585226
0.0054884561
0.0051728592
0.004890636
0.004644942
0.0044348782
0.0042572528
0.0040905162
0.0039237522
0.0037618344
0.0036086474
0.0034772974
0.003364782
0.0032576766
0.0031596571
0.0030739391
0.00299958
0.0029356624
0.0028806781
0.00283286
0.0027906482
0.0027541402
0.0027221594
0.0026920775
0.0026634654
0.0026364216
0.0026110866
0.002586143
0.002559829
0.0025320017
0.0025031119
0.0024743658
0.00244512
0.0024142156
0.0023810681
0.00234522
0.002308388
0.002271039
0.0022319244
0.0021912264
0.002150034
0.0021100642
0.002070697
0.002029861
0.0019880483
0.001946286
0.0019056116
0.0018648556
0.0018227873
0.001780593
0.0017395296
0.0016986198
0.0016563562
0.0016134418
0.0015709328
0.0015280609
0.0014840084
0.0014395117
0.0013952564
0.00135061
0.0013047274
0.0012584201
0.0012116856
0.0011641823
0.0011157435
0.001066887
0.0010175986
0.00096702544
0.00091606535
0.00086443312
0.0008114596
0.00075832189
0.00070460099
0.00064965463
0.00059470124
0.00053922583
0.0004832413
0.00042780576
0.00037412083
0.00032003536
0.00028140415
0.00022268444
0.00036005018
-0.0002414489
0.0052599045
0.0052212142
0.0051487389
0.0051269239
0.0051474977
0.0051860867
0.0052360982
0.0053020595
0.0053910364
0.0055102336
0.0056791407
0.0059147367
0.0063427407
0.0067159269
0.0066577188
0.006299344
0.0058864055
0.0055412471
0.0052386783
0.0049602643
0.0047154217
0.004501122
0.0043095982
0.0041288876
0.0039561646
0.0037925431
0.0036412759
0.0035093498
0.0033934001
0.0032849263
0.0031861752
0.0030997263
0.0030244863
0.0029593433
0.0029028698
0.0028534324
0.00280956
0.0027715461
0.0027383443
0.0027072035
0.00267748
0.002649276
0.002622873
0.0025970255
0.0025698107
0.0025410952
0.0025114538
0.0024820517
0.0024522129
0.0024207755
0.0023872002
0.0023510003
0.0023138438
0.0022761984
0.0022368146
0.0021958797
0.002154477
0.002114335
0.0020748134
0.0020338124
0.0019918315
0.0019499045
0.0019090723
0.0018681596
0.0018259363
0.0017835929
0.0017423876
0.0017013415
0.0016589459
0.0016159068
0.0015732804
0.0015302961
0.0014861361
0.0014415378
0.0013971856
0.001352446
0.0013064748
0.0012600845
0.0012132715
0.0011656936
0.0011171837
0.0010682595
0.0010189064
0.00096827148
0.0009172537
0.00086556654
0.00081254083
0.00075935375
0.00070558532
0.00065059392
0.00059559839
0.00054008274
0.0004840603
0.00042858861
0.00037487086
0.00032075253
0.00028208077
0.00022339429
0.00036088018
-0.00024085491
0.0052182019
0.0052040758
0.0051590061
0.0051373572
0.0051540678
0.0051919499
0.0052408735
0.0053053819
0.0053928173
0.0055102753
0.0056749976
0.0059037106
0.0062707876
0.0065849472
0.0065458363
0.0062305756
0.0058389997
0.005497586
0.0051985483
0.0049247223
0.0046831614
0.0044715303
0.0042825793
0.0041087098
0.0039447171
0.0037890075
0.0036454186
0.0035171327
0.003402476
0.0032972866
0.0032010263
0.0031155072
0.0030408546
0.0029759616
0.002919416
0.0028696985
0.0028255391
0.0027868613
0.0027525352
0.002720448
0.0026898896
0.0026607899
0.0026335631
0.0026071284
0.002579439
0.0025501853
0.0025199545
0.002489983
0.0024596811
0.0024275307
0.0023931734
0.0023565119
0.0023190413
0.0022811505
0.0022415364
0.0022003955
0.0021588162
0.0021185334
0.0020788771
0.0020377249
0.0019955855
0.0019535091
0.0019125423
0.001871494
0.0018291332
0.0017866591
0.0017453332
0.0017041705
0.0016616553
0.0016184992
0.0015757626
0.0015326715
0.0014884081
0.0014437122
0.0013992679
0.0013544389
0.0013083802
0.0012619076
0.0012150161
0.0011673633
0.0011187817
0.0010697893
0.0010203702
0.00096967124
0.00091859381
0.00086684942
0.00081376892
0.00076053039
0.00070671167
0.00065167197
0.00059663145
0.00054107248
0.00048500903
0.00042949812
0.00037574428
0.00032158787
0.00028288815
0.00022429164
0.00036179478
-0.00024012052
0.0051850865
0.0051842229
0.0051491901
0.0051293468
0.0051453921
0.0051834049
0.0052327781
0.0052973732
0.0053843672
0.0055006138
0.0056607972
0.0058795955
0.0061954898
0.0064685409
0.0064494466
0.0061697325
0.0058042432
0.0054772391
0.0051907854
0.0049271928
0.0046908223
0.0044819258
0.0042939152
0.0041210133
0.0039567601
0.0038000118
0.0036547148
0.003523943
0.0034077141
0.0033023765
0.0032057159
0.0031194232
0.0030445742
0.0029800566
0.0029243374
0.0028758944
0.0028333868
0.0027955847
0.0027613563
0.0027297041
0.0026997428
0.002670934
0.0026430422
0.0026154626
0.0025871362
0.0025574728
0.002526787
0.0024963797
0.0024657803
0.002433163
0.0023982686
0.0023613055
0.0023236269
0.0022856472
0.0022459556
0.0022047088
0.0021629905
0.0021224437
0.0020825216
0.0020412272
0.001998978
0.0019568094
0.0019157638
0.0018746231
0.0018321579
0.0017895878
0.0017481703
0.0017069044
0.0016642788
0.0016210162
0.0015781811
0.0015349943
0.001490637
0.001445852
0.0014013248
0.0013564151
0.0013102742
0.0012637233
0.0012167566
0.0011690318
0.0011203808
0.001071323
0.0010218405
0.00097107875
0.00091994323
0.00086814278
0.00081500807
0.00076171898
0.00070785037
0.00065276232
0.00059767721
0.00054207499
0.00048597021
0.00043041979
0.00037662856
0.00032243323
0.00028370756
0.00022508256
0.00036265332
-0.00023942191
0.0051543458
0.0051614485
0.0051373067
0.0051247723
0.0051428371
0.0051813648
0.005231263
0.0052956773
0.0053815055
0.0054953318
0.0056495129
0.0058544682
0.0061296673
0.0063659748
0.006356755
0.0061067076
0.0057672789
0.0054546188
0.0051779085
0.004921168
0.0046877378
0.0044800454
0.0042926802
0.0041203552
0.0039569059
0.0038015943
0.0036578222
0.003528331
0.003413089
0.0033084043
0.0032120198
0.0031256933
0.0030505451
0.0029854339
0.0029288919
0.002879573
0.0028361842
0.0027973213
0.0027623805
0.002730802
0.0027015066
0.0026737962
0.0026468307
0.0026197827
0.0025920777
0.0025632331
0.0025332802
0.0025026249
0.0024710627
0.0024379428
0.00240286
0.0023657515
0.0023279001
0.0022898276
0.0022501133
0.0022087934
0.0021668867
0.002126023
0.0020858995
0.0020445564
0.0020022526
0.0019600092
0.0019188978
0.0018776955
0.0018351572
0.0017925322
0.0017510102
0.0017095785
0.0016668242
0.0016234802
0.0015805782
0.0015373212
0.0014928895
0.0014480332
0.001403436
0.0013584492
0.001312228
0.0012656015
0.001218562
0.0011707673
0.0011220482
0.0010729274
0.0010233837
0.00097255884
0.00092136421
0.00086950619
0.00081631537
0.0007629748
0.00070905534
0.00065391714
0.00059878575
0.00054313827
0.00048698985
0.00043139791
0.00037756624
0.00032333011
0.00028457002
0.00022586094
0.00036350408
-0.0002386296
0.0051258334
0.0051390895
0.0051255135
0.0051196494
0.0051384081
0.005176045
0.0052254846
0.005289066
0.0053731245
0.0054838395
0.0056311009
0.0058219203
0.0060629075
0.006265827
0.0062621298
0.0060404146
0.0057273525
0.005429437
0.0051624242
0.004913362
0.0046847888
0.0044798649
0.0042945279
0.0041238279
0.0039620516
0.0038085238
0.0036660979
0.0035372315
0.0034218985
0.0033169461
0.0032204434
0.0031338855
0.0030582689
0.0029925508
0.0029353321
0.0028853131
0.0028411815
0.0028016044
0.0027660051
0.002733692
0.0027035416
0.002674941
0.0026472265
0.0026196665
0.002591776
0.0025632892
0.0025341846
0.0025042305
0.0024731469
0.0024407549
0.0024065725
0.0023703504
0.0023325965
0.002293809
0.0022536517
0.0022122056
0.0021701942
0.0021292685
0.0020891794
0.0020478781
0.0020054995
0.0019630824
0.0019218681
0.0018806618
0.0018380964
0.0017954128
0.0017537622
0.0017121712
0.0016693119
0.0016259177
0.0015829759
0.001539665
0.0014951721
0.0014502675
0.0014055958
0.0013604945
0.0013141816
0.0012674961
0.0012204012
0.0011725514
0.0011237762
0.001074599
0.0010249937
0.00097410625
0.0009228539
0.00087093926
0.00081769274
0.00076430235
0.00071033286
0.00065514333
0.0005999642
0.00054426969
0.00048807592
0.0004324413
0.00037856648
0.00032428772
0.00028548362
0.00022668516
0.00036434689
-0.00023766689
0.0050993756
0.0051173367
0.0051126961
0.0051126013
0.0051323322
0.0051696193
0.0052190649
0.005282209
0.0053646562
0.0054720465
0.0056120502
0.0057887614
0.0060000591
0.0061734714
0.0061726999
0.0059765886
0.0056882882
0.0054047411
0.005147157
0.0049057587
0.0046821837
0.0044797711
0.0042961049
0.004126473
0.0039659004
0.0038136495
0.0036721593
0.0035436991
0.0034283319
0.0033234163
0.0032271553
0.0031406582
0.0030648201
0.0029987465
0.0029410911
0.0028905777
0.0028459373
0.0028059142
0.0027698482
0.0027370252
0.0027064043
0.0026773693
0.002649258
0.002621315
0.00259301
0.0025640402
0.0025343514
0.0025038754
0.0024725439
0.0024401586
0.0024063502
0.0023709581
0.0023339367
0.0022954494
0.0022558015
0.0022151791
0.0021739366
0.0021330234
0.0020922549
0.0020505816
0.0020081221
0.0019656793
0.0019245292
0.0018833874
0.0018408396
0.0017980312
0.0017562613
0.0017146573
0.0016717897
0.0016283441
0.0015853312
0.0015419597
0.0014974123
0.0014524707
0.0014077267
0.0013625118
0.0013161177
0.0012693927
0.0012222602
0.0011743682
0.0011255507
0.0010763041
0.0010266109
0.00097566175
0.0009243643
0.00087240492
0.00081911239
0.00076567694
0.00071165602
0.00065641595
0.00060119031
0.00054544953
0.00048921134
0.00043353492
0.00037961529
0.00032529274
0.00028643614
0.00022754688
0.00036514999
-0.00023651171
0.0050746372
0.0050961197
0.0050989031
0.0051041237
0.0051252847
0.0051624227
0.0052116362
0.0052739632
0.0053542836
0.0054576408
0.0055897783
0.0057522963
0.005937505
0.0060851342
0.0060852245
0.0059115555
0.0056465364
0.0053774848
0.0051294804
0.0048958713
0.0046774814
0.0044781001
0.004296424
0.0041282275
0.0039692063
0.0038185434
0.0036783244
0.003550623
0.003435556
0.0033308748
0.0032348852
0.0031484082
0.0030722891
0.0030057781
0.0029475821
0.0028964616
0.0028512038
0.0028106066
0.0027739629
0.0027405789
0.0027094776
0.0026800068
0.0026515026
0.0026232105
0.0025946029
0.0025653795
0.0025354754
0.0025048312
0.0024733215
0.0024406732
0.0024065195
0.0023707309
0.0023333618
0.0022947505
0.0022553419
0.002215348
0.0021751038
0.0021347038
0.0020939304
0.0020526669
0.0020108446
0.0019688817
0.0019274072
0.0018855725
0.0018429
0.0018001062
0.0017584379
0.0017169319
0.0016741139
0.0016305811
0.0015874807
0.0015441105
0.0014995567
0.0014545645
0.0014097514
0.0013644862
0.0013180501
0.0012712903
0.0012241139
0.0011761746
0.0011273181
0.0010780053
0.0010282289
0.00097722554
0.00092589515
0.00087390246
0.00082057417
0.00076707892
0.00071298581
0.0006576998
0.00060243733
0.00054665877
0.00049038066
0.00043466196
0.00038069604
0.00032633049
0.00028741432
0.00022842933
0.00036588209
-0.00023514358
0.0050513172
0.0050754364
0.0050843509
0.0050943887
0.0051171315
0.0051541247
0.0052028767
0.0052641787
0.0053421707
0.0054412079
0.0055653528
0.0057141419
0.005876555
0.0060018842
0.0060014369
0.0058473192
0.0056042467
0.0053497547
0.0051113577
0.0048854667
0.0046724798
0.0044764189
0.0042968849
0.0041302608
0.0039728089
0.0038236812
0.0036846656
0.003557652
0.0034428093
0.0033382408
0.0032423935
0.0031558724
0.0030794574
0.0030125096
0.0029537893
0.0029020929
0.0028562538
0.0028151157
0.0027779406
0.0027440409
0.0027124773
0.0026825682
0.002653658
0.0026250197
0.0025961321
0.0025666931
0.0025366201
0.0025058325
0.002474178
0.0024413929
0.002407143
0.0023713007
0.0023339157
0.0022952895
0.0022557743
0.0022155504
0.0021750076
0.0021342518
0.0020934484
0.0020526879
0.0020117095
0.0019705824
0.0019291421
0.0018872431
0.0018450296
0.0018027164
0.0017608977
0.0017187733
0.0016757815
0.0016322937
0.001589324
0.001546051
0.0015015352
0.0014564664
0.0014116063
0.0013663742
0.001319932
0.0012731216
0.001225893
0.001177914
0.0011290226
0.0010796683
0.0010298467
0.0009788017
0.00092744074
0.00087541164
0.00082204547
0.00076848995
0.00071432979
0.00065900381
0.00060371225
0.00054790475
0.00049157904
0.00043580113
0.00038178623
0.00032738511
0.00028840745
0.00022932123
0.00036651098
-0.00023353424
0.0050291417
0.0050552408
0.0050691606
0.0050834441
0.0051077921
0.0051446859
0.0051928516
0.0052529642
0.0053284255
0.0054228509
0.0055388778
0.0056744181
0.0058166738
0.0059226032
0.0059206107
0.005783321
0.0055607041
0.0053206024
0.0050917683
0.0048735233
0.0046661492
0.0044736689
0.0042964681
0.0041315886
0.0039757962
0.0038282633
0.0036905235
0.0035642951
0.003449796
0.0033454396
0.0032498183
0.0031633501
0.0030867268
0.0030194024
0.0029602006
0.0029079561
0.0028615476
0.0028198654
0.0027821512
0.0027477186
0.0027156661
0.0026852979
0.0026559693
0.0026269776
0.0025977999
0.0025681252
0.0025378486
0.0025068772
0.0024750575
0.0024421412
0.0024078125
0.0023719395
0.0023345595
0.0022959442
0.0022564226
0.0022161938
0.0021756239
0.0021348328
0.0020939843
0.0020530639
0.0020118273
0.0019703755
0.0019287202
0.0018872176
0.0018458541
0.0018043413
0.0017625728
0.001720304
0.0016775864
0.0016344804
0.0015913459
0.0015475335
0.0015029201
0.0014579452
0.0014132273
0.0013680776
0.0013216458
0.0012747869
0.001227557
0.0011795892
0.0011306641
0.0010812641
0.0010314176
0.00098034565
0.00092895385
0.00087688251
0.00082347663
0.00076988966
0.00071569429
0.00066033051
0.00060500859
0.00054917068
0.0004927934
0.00043695727
0.00038289632
0.00032846591
0.00028942178
0.00023021559
0.00036699294
-0.00023165312
0.0050078816
0.0050354628
0.0050534198
0.0050713634
0.0050972664
0.0051340991
0.0051815566
0.0052402824
0.005312999
0.0054025848
0.0055104949
0.0056334171
0.005757825
0.0058469522
0.0058428843
0.0057200385
0.0055163771
0.0052904339
0.0050711801
0.0048605622
0.0046589874
0.0044703443
0.0042956867
0.0041327238
0.003978688
0.0038328052
0.003696392
0.003571008
0.0034569158
0.0033528003
0.003257399
0.003170976
0.0030941349
0.0030264154
0.0029667136
0.0029139042
0.0028669094
0.0028246648
0.0027863981
0.0027514225
0.0027188721
0.0026880424
0.0026582946
0.0026289456
0.0025994713
0.0025695539
0.0025390704
0.00250792
0.002475947
0.0024429077
0.002408497
0.0023725775
0.0023351827
0.0022965686
0.0022570582
0.00221686
0.0021763188
0.0021355562
0.0020947061
0.0020537399
0.002012448
0.001970926
0.0019292146
0.0018876155
0.0018460475
0.0018042268
0.0017622447
0.0017203858
0.0016784702
0.0016360531
0.0015929292
0.0015489562
0.0015045585
0.0014598269
0.00141484
0.0013692557
0.0013228555
0.001276133
0.0012290148
0.0011811007
0.0011321517
0.001082739
0.0010329221
0.00098183597
0.0009304031
0.00087830316
0.00082487028
0.00077126125
0.0007170366
0.00066163957
0.00060629049
0.00055041777
0.00049400088
0.00043813237
0.00038403068
0.00032956844
0.00029044201
0.00023110892
0.00036731098
-0.00022945006
0.0049873432
0.0050160173
0.0050371893
0.0050582203
0.0050855593
0.0051223341
0.0051689638
0.0052261133
0.0052959072
0.0053805142
0.0054804165
0.0055914245
0.0056999802
0.0057745455
0.0057681282
0.0056575891
0.0054713269
0.0052591797
0.0050494832
0.0048464372
0.0046507727
0.0044661835
0.0042942622
0.0041333696
0.0039811815
0.003837
0.0037019609
0.0035774811
0.0034638647
0.0033600352
0.0032648727
0.0031785209
0.0031014966
0.003033413
0.0029732394
0.0029198906
0.0028723292
0.0028295338
0.0027907237
0.002755212
0.002722165
0.0026908738
0.0026607039
0.0026309913
0.0026012136
0.0025710474
0.0025403529
0.0025090202
0.0024768889
0.0024437189
0.0024092176
0.0023732468
0.0023358379
0.002297231
0.0022577365
0.0022175625
0.0021770299
0.0021362666
0.0020953979
0.0020544109
0.0020131263
0.0019716237
0.001929932
0.0018882992
0.0018466443
0.0018047262
0.0017626561
0.0017206932
0.0016785756
0.0016359089
0.0015927386
0.001549347
0.0015056669
0.0014613735
0.0014162991
0.0013705678
0.0013243742
0.0012776166
0.0012301731
0.0011821436
0.0011332951
0.0010840085
0.0010342619
0.0009831714
0.00093172701
0.00087966225
0.00082622298
0.00077258036
0.00071833384
0.0006629168
0.00060754371
0.00055163568
0.00049518829
0.00043929893
0.00038515674
0.00033066198
0.00029143758
0.00023198884
0.00036743634
-0.00022687258
0.004967359
0.0049968133
0.0050205065
0.0050440803
0.0050726813
0.0051093687
0.0051550614
0.0052104647
0.0052771882
0.0053567406
0.0054488161
0.0055486443
0.0056430882
0.0057050265
0.005696185
0.0055961059
0.005425715
0.0052269215
0.0050267472
0.0048312282
0.0046415653
0.0044612429
0.0042922631
0.0041336041
0.003983369
0.0038409537
0.0037073474
0.0035838405
0.0034707743
0.0033672819
0.0032723818
0.0031861255
0.0031089462
0.0030405177
0.0029798841
0.0029260021
0.0028778742
0.0028345206
0.0027951589
0.0027591023
0.002725547
0.0026937835
0.0026631815
0.0026330954
0.0026030056
0.0025725825
0.0025416702
0.0025101489
0.0024778539
0.0024445495
0.0024099558
0.0023739336
0.0023365107
0.0022979102
0.0022584288
0.0022182746
0.0021777496
0.0021369898
0.0020961139
0.0020551164
0.0020138318
0.0019723219
0.0019306201
0.0018889571
0.0018472818
0.001805377
0.001763316
0.0017213054
0.0016790848
0.0016363074
0.0015930365
0.0015495509
0.0015056577
0.0014612239
0.0014164175
0.0013713219
0.001325672
0.0012790375
0.001231434
0.0011834121
0.0011346373
0.0010851367
0.0010351729
0.00098415537
0.00093284945
0.00088086326
0.00082743441
0.00077378388
0.00071956777
0.00066414731
0.00060874479
0.00055281713
0.00049635072
0.0004404393
0.00038625616
0.00033173491
0.00029240273
0.00023283409
0.00036730391
-0.00022387221
0.0049477831
0.0049777595
0.0050033891
0.0050289997
0.0050586513
0.0050951913
0.0051398456
0.0051933518
0.0052568857
0.0053313636
0.0054158549
0.0055052533
0.0055871218
0.0056381058
0.0056269002
0.0055357046
0.0053797032
0.0051937334
0.0050030067
0.0048149612
0.004631355
0.0044554814
0.0042896339
0.0041333608
0.0039851791
0.0038445923
0.0037124741
0.0035900042
0.0034775575
0.0033744513
0.0032798372
0.0031936987
0.0031163915
0.0030476397
0.0029865618
0.0029321592
0.0028834734
0.0028395644
0.0027996528
0.0027630527
0.0027289871
0.0026967497
0.0026657139
0.0026352509
0.002604845
0.0025741603
0.002543026
0.0025113125
0.0024788515
0.0024454113
0.0024107233
0.002374648
0.0023372084
0.002298612
0.0022591424
0.0022190075
0.0021784921
0.0021377374
0.0020968552
0.0020558439
0.0020145528
0.0019730334
0.0019313267
0.0018896462
0.0018479528
0.0018060374
0.0017639535
0.0017218971
0.0016796472
0.001636875
0.0015936066
0.001550064
0.0015060635
0.0014615172
0.0014166092
0.0013713671
0.0013255783
0.0012791171
0.001232013
0.001184497
0.0011360013
0.0010863601
0.0010362508
0.00098533944
0.00093389827
0.00088167186
0.00082830933
0.00077479057
0.00072064908
0.00066524003
0.0006098405
0.00055394595
0.00049747239
0.00044153195
0.00038731796
0.00033277893
0.00029332985
0.00023362715
0.00036685252
-0.00022037645
0.0049284873
0.004958768
0.0049858405
0.0050130256
0.0050434931
0.0050797993
0.0051233187
0.0051747984
0.0052350537
0.0053044876
0.0053816863
0.005461403
0.0055320585
0.0055735316
0.0055601042
0.0054764595
0.0053334368
0.005159691
0.0049782967
0.0047976676
0.0046201497
0.0044488827
0.0042863526
0.0041326181
0.0039865952
0.0038479069
0.0037173383
0.0035959741
0.0034842197
0.0033815548
0.0032872569
0.0032012632
0.0031238593
0.0030548099
0.0029933071
0.002938399
0.0028891648
0.002844703
0.0028042416
0.0027670966
0.0027325159
0.0026997989
0.0026683234
0.0026374761
0.0026067461
0.002575792
0.0025444287
0.0025125173
0.0024798857
0.002446306
0.0024115202
0.0023753883
0.0023379291
0.002299335
0.0022598765
0.0022197601
0.0021792544
0.0021385039
0.0020976144
0.0020565886
0.0020152911
0.0019737649
0.0019320557
0.0018903579
0.0018486407
0.0018067083
0.0017646044
0.0017225141
0.0016802359
0.0016374477
0.0015941584
0.0015505822
0.0015065739
0.0014620341
0.0014170989
0.0013717697
0.0013258577
0.0012792854
0.0012320493
0.0011844359
0.0011361271
0.0010868806
0.0010372048
0.00098662746
0.00093505083
0.00088260497
0.00082932966
0.00077572192
0.00072138716
0.00066603695
0.00061076766
0.00055493629
0.0004984703
0.00044253264
0.00038832408
0.00033377378
0.0002942024
0.00023435182
0.00036602027
-0.00021629934
0.0049093587
0.0049397559
0.0049678529
0.0049961959
0.0050272346
0.005063199
0.0051054911
0.0051548372
0.0052117559
0.0052762192
0.0053464531
0.0054172204
0.0054778767
0.0055110858
0.0054956273
0.0054184186
0.0052870552
0.0051248823
0.0049526616
0.0047793842
0.0046079642
0.0044414351
0.0042823955
0.0041313475
0.0039875882
0.0038508698
0.003721913
0.0036017227
0.0034907319
0.0033885636
0.0032946141
0.0032087925
0.0031313225
0.0030620018
0.0030000937
0.0029446948
0.0028949221
0.0028499109
0.0028089003
0.0027712104
0.0027361111
0.0027029108
0.0026709917
0.002639755
0.0026086953
0.0025774659
0.0025458688
0.0025137555
0.0024809504
0.0024472288
0.0024123427
0.0023761524
0.0023386717
0.0023000789
0.002260631
0.0022205322
0.0021800363
0.0021392896
0.0020983932
0.0020573538
0.0020160502
0.0019745175
0.0019328043
0.0018910878
0.0018493459
0.0018073975
0.0017652767
0.0017231533
0.0016808417
0.0016380316
0.0015947239
0.001551123
0.0015070992
0.0014625447
0.0014175823
0.0013722312
0.0013263124
0.0012797242
0.0012324203
0.0011847025
0.0011362829
0.0010868966
0.0010371601
0.00098682433
0.00093558216
0.00088350103
0.00083052546
0.00077677987
0.00072222017
0.00066693536
0.00061159703
0.00055560412
0.0004992086
0.00044337943
0.00038919678
0.00033465614
0.00029499005
0.00023497966
0.0003647349
-0.00021154443
0.0048902971
0.0049206461
0.0049494119
0.0049785407
0.0050099055
0.0050454051
0.0050863814
0.0051335089
0.0051870625
0.0052466647
0.0053102868
0.0053728137
0.0054245557
0.0054505806
0.0054333052
0.0053616058
0.0052406854
0.0050894003
0.0049261488
0.0047601461
0.004594815
0.004433129
0.004277739
0.0041295208
0.0039881298
0.0038534554
0.0037261755
0.0036072287
0.0034970739
0.0033954604
0.0033018962
0.0032162767
0.0031387734
0.0030692106
0.0030069197
0.0029510476
0.0029007484
0.0028551937
0.0028136367
0.0027754029
0.0027397833
0.0027060964
0.00267373
0.0026420988
0.0026107033
0.0025791923
0.0025473556
0.0025150355
0.0024820529
0.0024481864
0.0024131968
0.0023769452
0.0023394403
0.0023008468
0.0022614082
0.0022213259
0.0021808394
0.0021400962
0.0020991931
0.0020581403
0.00201683
0.0019752904
0.0019335722
0.0018918371
0.0018500711
0.0018081067
0.001765968
0.00172381
0.0016814632
0.0016386321
0.0015953087
0.001551683
0.001507638
0.001463066
0.0014180819
0.0013727081
0.0013267698
0.0012801602
0.0012328485
0.0011851172
0.0011366709
0.0010872355
0.0010373963
0.00098694427
0.00093555822
0.00088349419
0.00083081646
0.00077737349
0.00072310942
0.00066803067
0.00061251325
0.0005563274
0.00049997874
0.00044408405
0.00038979017
0.00033533617
0.00029562974
0.00023543218
0.00036288617
-0.00020600558
0.0048712135
0.0049013682
0.0049304985
0.0049600838
0.0049915369
0.0050264401
0.0050660161
0.0051108609
0.0051610496
0.0052159302
0.0052733095
0.005328275
0.0053720749
0.0053918528
0.0053729815
0.0053060246
0.0051944398
0.0050533403
0.0048988099
0.0047399902
0.0045807232
0.0044239604
0.0042723635
0.0041271125
0.0039881936
0.0038556392
0.0037301028
0.0036124699
0.0035032235
0.0034022247
0.0033090853
0.0032237001
0.0031461974
0.0030764233
0.0030137735
0.0029574467
0.0029066344
0.0028605432
0.002818443
0.0027796671
0.0027435256
0.0027093493
0.0026765322
0.0026445016
0.0026127644
0.0025809658
0.0025488842
0.0025163527
0.002483189
0.0024491748
0.0024140791
0.0023777637
0.0023402323
0.0023016364
0.0022622063
0.0022221393
0.0021816623
0.0021409224
0.0021000131
0.0020589473
0.0020176299
0.0019760834
0.0019343597
0.0018926066
0.0018508164
0.0018088349
0.0017666775
0.0017244847
0.001682103
0.0016392506
0.0015959107
0.0015522585
0.0015081912
0.0014636035
0.0014185989
0.0013731997
0.0013272382
0.00128061
0.0012332886
0.0011855304
0.001137062
0.0010876307
0.0010377765
0.00098728897
0.00093584531
0.00088368937
0.00083088822
0.0007773213
0.00072318288
0.00066841662
0.00061315157
0.00055721673
0.00050094953
0.00044484854
0.00039041995
0.00033598212
0.00029605633
0.00023560426
0.00036031995
-0.00019958956
0.0048520289
0.0048818582
0.004911092
0.0049408439
0.0049721606
0.0050063328
0.0050444294
0.0050869473
0.005133797
0.00518412
0.0052356336
0.005283683
0.005320413
0.0053347595
0.0053145093
0.0052516623
0.0051484158
0.0050167985
0.0048707016
0.0047189552
0.0045657124
0.00441393
0.0042662522
0.0041240981
0.0039877534
0.0038573958
0.0037336709
0.0036174229
0.0035091574
0.0034088348
0.0033161634
0.0032310469
0.0031535805
0.0030836278
0.0030206455
0.0029638844
0.0029125741
0.0028659553
0.002823317
0.0027840017
0.0027473382
0.0027126706
0.0026794002
0.002646966
0.0026148819
0.0025827898
0.002550458
0.0025177107
0.0024843624
0.0024501976
0.0024149928
0.002378611
0.0023410506
0.0023024503
0.0022630275
0.0022229748
0.002182507
0.0021417701
0.0021008546
0.0020597761
0.0020184512
0.0019768977
0.0019351679
0.0018933968
0.0018515823
0.0018095829
0.001767406
0.0017251788
0.0016827618
0.0016398872
0.0015965296
0.0015528506
0.001508761
0.0014641571
0.001419131
0.0013737051
0.0013277207
0.0012810752
0.0012337416
0.0011859547
0.0011374673
0.0010880353
0.0010381553
0.00098764429
0.00093619993
0.00088403382
0.00083119023
0.00077755297
0.00072332248
0.00066841973
0.00061311792
0.00055742773
0.00050144173
0.0004455276
0.00039124199
0.00033674062
0.00029648913
0.00023575438
0.00035695484
-0.00019221711
0.0048326734
0.004862059
0.0048911717
0.0049208364
0.0049518089
0.004985118
0.0050216624
0.0050618273
0.0051053872
0.0051513358
0.0051973627
0.005239105
0.0052695486
0.0052791753
0.0052577529
0.005198494
0.0051026952
0.0049798692
0.0048418844
0.0046970814
0.0045498091
0.0044030424
0.0042593912
0.004120455
0.0039867838
0.0038587003
0.003736856
0.0036220643
0.0035148524
0.0034152691
0.0033231115
0.0032383009
0.0031609076
0.003090811
0.0030275245
0.0029703514
0.0029185598
0.0028714239
0.0028282537
0.0027884029
0.0027512183
0.0027160581
0.002682332
0.0026494905
0.0026170544
0.0025846633
0.0025520761
0.0025191086
0.0024855722
0.0024512538
0.0024159372
0.0023794863
0.0023418942
0.0023032877
0.0022638709
0.0022238314
0.0021833726
0.0021426384
0.0021017169
0.0020606261
0.0020192935
0.0019777329
0.0019359965
0.0018942077
0.0018523688
0.0018103506
0.0017681538
0.0017258923
0.0016834395
0.0016405416
0.0015971657
0.0015534601
0.0015093475
0.0014647265
0.0014196783
0.0013742254
0.0013282181
0.0012815543
0.0012342071
0.0011863926
0.0011378864
0.0010884508
0.0010385447
0.00098801228
0.00093656001
0.00088437633
0.00083151536
0.00077787651
0.00072362634
0.00066866644
0.00061328914
0.00055749795
0.00050138259
0.00044556923
0.00039154484
0.00033724576
0.00029701218
0.00023599166
0.00035295977
-0.00018361486
0.0048130851
0.0048419201
0.004870718
0.0049000747
0.0049305141
0.0049628351
0.0049977628
0.005035565
0.0050759046
0.0051176764
0.005158592
0.0051945986
0.0052194597
0.0052249891
0.0052025871
0.0051464863
0.0050573455
0.0049426431
0.0048124219
0.0046744114
0.0045330422
0.0043913065
0.0042517705
0.0041161629
0.0039852609
0.0038595283
0.003739634
0.0036263701
0.0035202847
0.0034215046
0.0033299097
0.0032454445
0.003168163
0.003097959
0.0030343986
0.0029768377
0.0029245832
0.0028769427
0.0028332483
0.0027928671
0.0027551633
0.0027195103
0.002685327
0.0026520749
0.0026192822
0.002586587
0.0025537394
0.0025205475
0.0024868195
0.0024523449
0.0024169136
0.0023803908
0.0023427645
0.0023041497
0.0022647377
0.0022247102
0.00218426
0.0021435284
0.0021026011
0.0020614983
0.0020201576
0.0019785898
0.0019368463
0.0018950398
0.0018531765
0.0018111389
0.0017689215
0.0017266256
0.0016841368
0.0016412147
0.0015978198
0.0015540875
0.0015099511
0.0014653122
0.0014202414
0.0013747613
0.0013287303
0.0012820475
0.0012346861
0.0011868442
0.0011383181
0.0010888778
0.0010389466
0.00098839258
0.00093692989
0.00088472913
0.0008318516
0.00077820181
0.00072393015
0.00066896273
0.00061357402
0.00055774135
0.00050155859
0.00044565953
0.00039148477
0.00033714971
0.00029697297
0.00023580549
0.00034831753
-0.00017357132
0.0047932097
0.0048213973
0.0048497137
0.0048785714
0.0049083095
0.0049395274
0.0049727831
0.0050082281
0.0050454342
0.0050832372
0.0051194088
0.0051502134
0.0051701243
0.0051721021
0.0051488978
0.0050955996
0.0050124203
0.0049052054
0.00478238
0.0046509898
0.0045154423
0.0043787347
0.0042433835
0.0041112037
0.0039831622
0.0038598559
0.0037419811
0.0036303164
0.0035254299
0.0034275184
0.0033365374
0.0032524595
0.0031753302
0.0031050571
0.0030412553
0.0029833326
0.0029306355
0.0028825045
0.0028382953
0.0027973899
0.0027591701
0.0027230249
0.0026883836
0.0026547183
0.002621565
0.0025885607
0.002555448
0.0025220275
0.0024881046
0.0024534709
0.0024179222
0.0023813247
0.0023436617
0.0023050364
0.0022656278
0.0022256111
0.0021851691
0.0021444398
0.0021035069
0.0020623925
0.0020210436
0.0019794684
0.0019377172
0.0018958932
0.0018540056
0.0018119478
0.0017697092
0.001727379
0.0016848538
0.0016419067
0.0015984922
0.0015547328
0.001510572
0.0014659144
0.0014208207
0.0013753129
0.0013292577
0.0012825552
0.001235179
0.0011873096
0.0011387628
0.0010893169
0.001039361
0.00098878425
0.00093731041
0.00088509337
0.00083219842
0.00077853514
0.00072424441
0.00066926624
0.00061385485
0.00055800042
0.00050181596
0.00044588795
0.00039162562
0.00033719248
0.00029656444
0.00023531676
0.00034184126
-0.00016212002
0.004773
0.0048004532
0.0048281447
0.0048563394
0.0048852288
0.0049152414
0.0049467805
0.0049798874
0.0050140606
0.0050481094
0.0050798935
0.0051059917
0.0051215205
0.0051204259
0.0050965807
0.0050457905
0.0049679612
0.0048676347
0.0047518255
0.0046268635
0.0044970423
0.0043653427
0.0042342276
0.0041055622
0.0039804665
0.0038596604
0.0037438738
0.003633879
0.0035302637
0.0034332866
0.003342973
0.0032593268
0.0031823918
0.0031120896
0.0030480809
0.0029898246
0.002936707
0.0028881014
0.0028433884
0.0028019666
0.0027632351
0.0027265994
0.0026914999
0.0026574196
0.002623902
0.0025905842