/*--------------------------------*- C++ -*----------------------------------*\
  =========                 |
  \\      /  F ield         | OpenFOAM: The Open Source CFD Toolbox
   \\    /   O peration     | Website:  https://openfoam.org
    \\  /    A nd           | Version:  12
     \\/     M anipulation  |
\*---------------------------------------------------------------------------*/
FoamFile
{
    format      ascii;
    class       surfaceScalarField;
    location    "600";
    object      phi;
}
// * * * * * * * * * * * * * * * * * * * * * * * * * * * * * * * * * * * * * //

dimensions      [0 3 -1 0 0 0 0];

internalField   nonuniform List<scalar> 
25880
(
2.0046358e-06
1.8337755e-11
2.0045801e-06
5.5760104e-11
2.004496e-06
8.4079563e-11
2.0043969e-06
9.9040592e-11
2.0042857e-06
1.1120967e-10
2.0041624e-06
1.2336295e-10
2.0040268e-06
1.3560236e-10
2.0038786e-06
1.4812473e-10
2.0037172e-06
1.6141923e-10
2.0035412e-06
1.7598076e-10
2.003349e-06
1.9227821e-10
2.0031381e-06
2.1088715e-10
2.0029055e-06
2.3260197e-10
2.0026468e-06
2.5866932e-10
2.0023561e-06
2.9074096e-10
2.0020238e-06
3.323024e-10
2.0016376e-06
3.8618637e-10
2.0011696e-06
4.6798051e-10
2.0005983e-06
5.7123621e-10
1.999788e-06
8.1033589e-10
1.9987613e-06
1.0266929e-09
1.9957532e-06
3.0081423e-09
1.9933744e-06
2.378773e-09
1.0231996e-06
9.7017478e-07
3.9231077e-08
9.8396855e-07
2.5430703e-08
1.3800373e-08
2.5091038e-08
3.3966569e-10
2.4843612e-08
2.4742532e-10
2.426562e-08
5.7799215e-10
2.3640074e-08
6.2554655e-10
2.3077945e-08
5.6212903e-10
2.2592294e-08
4.8565073e-10
2.2168396e-08
4.2389811e-10
2.1792778e-08
3.7561816e-10
2.1456078e-08
3.3669973e-10
2.1148919e-08
3.0715909e-10
2.0864445e-08
2.8447359e-10
2.0600138e-08
2.6430697e-10
2.0354066e-08
2.4607182e-10
2.0124729e-08
2.2933708e-10
1.9910304e-08
2.1442498e-10
1.9708901e-08
2.0140309e-10
1.9519091e-08
1.8981044e-10
1.9339536e-08
1.7955514e-10
1.9169072e-08
1.7046406e-10
1.9006833e-08
1.6223902e-10
1.8852116e-08
1.5471635e-10
1.8704312e-08
1.4780481e-10
1.8562724e-08
1.4158793e-10
1.8426906e-08
1.3581785e-10
1.8296434e-08
1.3047141e-10
1.8170679e-08
1.2575552e-10
1.8049337e-08
1.2134195e-10
1.7932167e-08
1.1716988e-10
1.7818704e-08
1.1346305e-10
1.77087e-08
1.100044e-10
1.7602021e-08
1.0667882e-10
1.7498314e-08
1.0370702e-10
1.7397294e-08
1.0101973e-10
1.729891e-08
9.8383964e-11
1.7203e-08
9.5910265e-11
1.7109259e-08
9.3740438e-11
1.7017549e-08
9.1709964e-11
1.6927726e-08
8.9823652e-11
1.6839546e-08
8.818005e-11
1.6752918e-08
8.6627885e-11
1.6667854e-08
8.5064031e-11
1.6584349e-08
8.3504553e-11
1.6502292e-08
8.2056738e-11
1.6421516e-08
8.0776046e-11
1.6341942e-08
7.9574712e-11
1.6263534e-08
7.840748e-11
1.6186211e-08
7.7323301e-11
1.6109862e-08
7.6348524e-11
1.6034414e-08
7.5448352e-11
1.5959811e-08
7.4602532e-11
1.5886011e-08
7.3800532e-11
1.5812948e-08
7.3063114e-11
1.5740546e-08
7.2402176e-11
1.5668762e-08
7.1783866e-11
1.5597548e-08
7.121423e-11
1.5526841e-08
7.0706705e-11
1.5456601e-08
7.0240013e-11
1.5386791e-08
6.9810076e-11
1.5317339e-08
6.9451943e-11
1.5248197e-08
6.9141569e-11
1.5179346e-08
6.8851557e-11
1.5110744e-08
6.8601903e-11
1.504234e-08
6.8403841e-11
1.4974078e-08
6.8261708e-11
1.490592e-08
6.8157858e-11
1.4837852e-08
6.8068855e-11
1.4769829e-08
6.8022796e-11
1.4701766e-08
6.8062745e-11
1.4633611e-08
6.8155213e-11
1.4565362e-08
6.8248856e-11
1.4496984e-08
6.8378151e-11
1.4428353e-08
6.8630734e-11
1.4359397e-08
6.8955805e-11
1.4290145e-08
6.9252164e-11
1.4220571e-08
6.9573844e-11
1.4150572e-08
6.9999587e-11
1.4080065e-08
7.0506289e-11
1.4009041e-08
7.1024418e-11
1.3937448e-08
7.1592547e-11
1.3865153e-08
7.2294973e-11
1.3792078e-08
7.30756e-11
1.37182e-08
7.3877956e-11
1.3643421e-08
7.4778498e-11
1.3567608e-08
7.5812973e-11
1.3490705e-08
7.690366e-11
1.3412636e-08
7.8069185e-11
1.3333188e-08
7.9447642e-11
1.3255638e-08
7.755024e-11
1.3181795e-08
7.3842797e-11
1.3111189e-08
7.0605936e-11
1.3043566e-08
6.762321e-11
1.2978883e-08
6.4682425e-11
1.2916932e-08
6.1951662e-11
1.2857459e-08
5.9472487e-11
1.2800275e-08
5.718439e-11
1.2745261e-08
5.5014022e-11
1.2692291e-08
5.2969264e-11
1.2641197e-08
5.1094909e-11
1.2591819e-08
4.9377532e-11
1.2544066e-08
4.7753265e-11
1.2497867e-08
4.6198588e-11
1.2453127e-08
4.4740564e-11
1.2409701e-08
4.3425533e-11
1.2367486e-08
4.2215266e-11
1.2326263e-08
4.1223277e-11
1.2286157e-08
4.0105754e-11
1.2246102e-08
4.0055e-11
1.220769e-08
3.8411589e-11
1.2160616e-08
4.7074012e-11
2.954516e-11
2.0345094e-06
3.6956317e-11
2.0344528e-06
1.1240573e-10
2.0343673e-06
1.6954243e-10
2.0342666e-06
1.9975116e-10
2.0341535e-06
2.2431408e-10
2.0340281e-06
2.4883201e-10
2.0338901e-06
2.7351648e-10
2.0337395e-06
2.9876671e-10
2.0335753e-06
3.2556944e-10
2.0333964e-06
3.549226e-10
2.0332009e-06
3.8777167e-10
2.0329865e-06
4.2527692e-10
2.0327501e-06
4.690395e-10
2.0324872e-06
5.2157183e-10
2.0321917e-06
5.862026e-10
2.0318541e-06
6.6995565e-10
2.0314617e-06
7.785389e-10
2.0309863e-06
9.4336199e-10
2.0304061e-06
1.1514295e-09
2.0295833e-06
1.6332104e-09
2.0285408e-06
2.0691922e-09
2.0254874e-06
6.0614706e-09
2.0230681e-06
4.798116e-09
1.0896837e-06
1.9035591e-06
1.1752346e-07
1.9561288e-06
7.7815482e-08
5.350835e-08
7.6776816e-08
1.3783318e-09
7.6017635e-08
1.0066063e-09
7.4247291e-08
2.3483365e-09
7.2332946e-08
2.5398915e-09
7.0613581e-08
2.2814939e-09
6.9127847e-08
1.9713842e-09
6.7830814e-08
1.7209315e-09
6.6681516e-08
1.5249158e-09
6.5651332e-08
1.366884e-09
6.4711526e-08
1.2469655e-09
6.3841126e-08
1.1548737e-09
6.3032427e-08
1.0730058e-09
6.2279527e-08
9.9897133e-10
6.1577828e-08
9.3103641e-10
6.0921752e-08
8.7050099e-10
6.0305517e-08
8.1763754e-10
5.972475e-08
7.7057813e-10
5.9175362e-08
7.2894263e-10
5.8653786e-08
6.9204017e-10
5.8157382e-08
6.5864367e-10
5.7683991e-08
6.281073e-10
5.7231741e-08
6.0005409e-10
5.6798525e-08
5.7480464e-10
5.6382956e-08
5.5138629e-10
5.598374e-08
5.2968708e-10
5.5598965e-08
5.1053054e-10
5.5227689e-08
4.9261841e-10
5.4869172e-08
4.7568714e-10
5.4522005e-08
4.6062968e-10
5.418542e-08
4.4658914e-10
5.3859004e-08
4.3309501e-10
5.3541683e-08
4.2102846e-10
5.3232591e-08
4.1011109e-10
5.2931559e-08
3.9941636e-10
5.2638089e-08
3.8937984e-10
5.2351265e-08
3.8056484e-10
5.2070659e-08
3.7231645e-10
5.1795817e-08
3.6466479e-10
5.1526e-08
3.5799706e-10
5.1260939e-08
3.516895e-10
5.1000666e-08
3.453367e-10
5.074516e-08
3.3901033e-10
5.049408e-08
3.3313734e-10
5.0246922e-08
3.2793374e-10
5.0003443e-08
3.2305329e-10
4.9763534e-08
3.1831654e-10
4.9526938e-08
3.1391929e-10
4.9293326e-08
3.0996095e-10
4.9062471e-08
3.063033e-10
4.8834206e-08
3.0286763e-10
4.8608391e-08
2.9961578e-10
4.8384829e-08
2.9662495e-10
4.8163293e-08
2.9393757e-10
4.7943652e-08
2.9142562e-10
4.7725751e-08
2.8911464e-10
4.7509401e-08
2.870571e-10
4.7294479e-08
2.8516161e-10
4.7080875e-08
2.8341409e-10
4.6868369e-08
2.8195866e-10
4.6656809e-08
2.8070149e-10
4.6446134e-08
2.7952644e-10
4.6236226e-08
2.7850993e-10
4.6026925e-08
2.7770462e-10
4.5818058e-08
2.7712861e-10
4.5609507e-08
2.7670902e-10
4.5401228e-08
2.7634724e-10
4.5193093e-08
2.7615866e-10
4.4984835e-08
2.7632017e-10
4.4776293e-08
2.7669769e-10
4.4567463e-08
2.7707892e-10
4.4358239e-08
2.7760191e-10
4.4148243e-08
2.7862634e-10
4.3937251e-08
2.7994769e-10
4.3725351e-08
2.8115209e-10
4.3512469e-08
2.8245662e-10
4.3298284e-08
2.8418406e-10
4.3082548e-08
2.8624249e-10
4.2865225e-08
2.8834699e-10
4.2646166e-08
2.9065238e-10
4.2424957e-08
2.9350316e-10
4.2201359e-08
2.9667372e-10
4.1975305e-08
2.9993185e-10
4.1746497e-08
3.0358648e-10
4.1514524e-08
3.0778641e-10
4.1279212e-08
3.1221527e-10
4.1040335e-08
3.1694668e-10
4.079724e-08
3.2254258e-10
4.055995e-08
3.1484043e-10
4.0334004e-08
2.997888e-10
4.0117963e-08
2.8664667e-10
3.9911048e-08
2.745378e-10
3.9713131e-08
2.6259938e-10
3.9523571e-08
2.5151248e-10
3.9341596e-08
2.4144695e-10
3.9166622e-08
2.3215819e-10
3.8998289e-08
2.2334735e-10
3.8836213e-08
2.1504553e-10
3.8679872e-08
2.0743553e-10
3.8528787e-08
2.0046318e-10
3.838267e-08
1.9386942e-10
3.8241311e-08
1.8755773e-10
3.8104414e-08
1.8163761e-10
3.7971541e-08
1.7629825e-10
3.7842373e-08
1.7138376e-10
3.771624e-08
1.6735632e-10
3.7593531e-08
1.6281464e-10
3.7470974e-08
1.6261168e-10
3.7353519e-08
1.5586649e-10
3.7209205e-08
1.9138833e-10
1.1952955e-10
2.0947019e-06
5.6133885e-11
2.0946435e-06
1.7078798e-10
2.0945554e-06
2.5767999e-10
2.0944515e-06
3.0365959e-10
2.0943348e-06
3.4103246e-10
2.0942053e-06
3.7831537e-10
2.094063e-06
4.1583956e-10
2.0939075e-06
4.5421559e-10
2.0937381e-06
4.9494381e-10
2.0935535e-06
5.3954096e-10
2.0933518e-06
5.8944397e-10
2.0931307e-06
6.4641581e-10
2.0928869e-06
7.1288881e-10
2.0926157e-06
7.9267934e-10
2.0923111e-06
8.9084316e-10
2.091963e-06
1.0180484e-09
2.0915586e-06
1.1829632e-09
2.0910687e-06
1.4332921e-09
2.0904708e-06
1.7492904e-09
2.089623e-06
2.4809844e-09
2.0885491e-06
3.1430674e-09
2.0854046e-06
9.2060022e-09
2.0829119e-06
7.2908166e-09
1.173313e-06
2.8131581e-06
2.0024357e-07
2.9291983e-06
1.3486149e-07
1.1889043e-07
1.3305834e-07
3.1814834e-09
1.3173921e-07
2.3257279e-09
1.2866891e-07
5.4186439e-09
1.2535075e-07
5.8580457e-09
1.22372e-07
5.2602503e-09
1.197977e-07
4.5456848e-09
1.1755004e-07
3.9685916e-09
1.1555838e-07
3.516573e-09
1.1377318e-07
3.1520848e-09
1.1214459e-07
2.8755567e-09
1.1063626e-07
2.6631996e-09
1.0923486e-07
2.4744112e-09
1.0793015e-07
2.3036772e-09
1.0671417e-07
2.1470202e-09
1.0557724e-07
2.0074285e-09
1.0450935e-07
1.8855263e-09
1.0350292e-07
1.7770096e-09
1.0255087e-07
1.6809944e-09
1.0164701e-07
1.5959011e-09
1.0078677e-07
1.51888e-09
9.9966409e-08
1.448467e-09
9.9182681e-08
1.3837822e-09
9.8431945e-08
1.3255405e-09
9.7711786e-08
1.2715458e-09
9.7019958e-08
1.2215145e-09
9.6353167e-08
1.1773222e-09
9.5709761e-08
1.1360237e-09
9.508846e-08
1.0969886e-09
9.4486837e-08
1.0622522e-09
9.3903552e-08
1.0298741e-09
9.3337881e-08
9.9876666e-10
9.2787972e-08
9.7093711e-10
9.2252334e-08
9.4574915e-10
9.1730655e-08
9.2109517e-10
9.1222075e-08
8.9796001e-10
9.0725018e-08
8.7762229e-10
9.0238742e-08
8.5859245e-10
8.9762449e-08
8.4095722e-10
8.9294857e-08
8.2558881e-10
8.8835514e-08
8.1103329e-10
8.8384474e-08
7.9637649e-10
8.7941689e-08
7.8179519e-10
8.7506567e-08
7.682593e-10
8.7078248e-08
7.5625273e-10
8.6656309e-08
7.449921e-10
8.6240554e-08
7.3407208e-10
8.5830534e-08
7.2393859e-10
8.5425686e-08
7.1480903e-10
8.5025621e-08
7.0636849e-10
8.4630046e-08
6.9844279e-10
8.4238711e-08
6.9095046e-10
8.3851278e-08
6.8405797e-10
8.3467362e-08
6.7785427e-10
8.3086729e-08
6.7205817e-10
8.2709112e-08
6.6673171e-10
8.2334178e-08
6.6199156e-10
8.196172e-08
6.5761928e-10
8.1591548e-08
6.5358554e-10
8.122328e-08
6.5022701e-10
8.0856649e-08
6.4733264e-10
8.0491549e-08
6.4462658e-10
8.0127781e-08
6.4227789e-10
7.9765067e-08
6.4041842e-10
7.9403104e-08
6.3909193e-10
7.9041685e-08
6.3812768e-10
7.8680739e-08
6.3729278e-10
7.8320043e-08
6.3685512e-10
7.7959137e-08
6.3722666e-10
7.7597733e-08
6.3810073e-10
7.7235831e-08
6.3898171e-10
7.6873248e-08
6.4018472e-10
7.6509329e-08
6.425455e-10
7.6143681e-08
6.4559541e-10
7.5776458e-08
6.4837498e-10
7.5407534e-08
6.5138114e-10
7.5036354e-08
6.5536325e-10
7.4662485e-08
6.6011238e-10
7.4285864e-08
6.6496732e-10
7.3906234e-08
6.702821e-10
7.3522883e-08
6.7685494e-10
7.3135388e-08
6.8416883e-10
7.2743636e-08
6.9168368e-10
7.2347113e-08
7.0010966e-10
7.1945104e-08
7.0979541e-10
7.1537309e-08
7.2001036e-10
7.1123334e-08
7.3092105e-10
7.0702051e-08
7.4382547e-10
7.0290827e-08
7.260648e-10
6.9899262e-08
6.9135363e-10
6.9524864e-08
6.6104455e-10
6.9166281e-08
6.3312053e-10
6.8823291e-08
6.0559001e-10
6.8494782e-08
5.8002138e-10
6.8179421e-08
5.5680808e-10
6.7876191e-08
5.3538776e-10
6.7584469e-08
5.1506955e-10
6.7303591e-08
4.9592371e-10
6.7032653e-08
4.7837322e-10
6.6770822e-08
4.622939e-10
6.6517603e-08
4.4708855e-10
6.6272628e-08
4.3253294e-10
6.6035387e-08
4.1887903e-10
6.580512e-08
4.065645e-10
6.5581275e-08
3.9522962e-10
6.5362691e-08
3.8594004e-10
6.5150044e-08
3.7546183e-10
6.4937668e-08
3.7498725e-10
6.4734183e-08
3.5935109e-10
6.4483899e-08
4.416724e-10
2.7519009e-10
2.1861102e-06
7.6157468e-11
2.1860492e-06
2.3178687e-10
2.185957e-06
3.4983071e-10
2.1858484e-06
4.1235268e-10
2.1857262e-06
4.6315194e-10
2.1855908e-06
5.13797e-10
2.1854418e-06
5.6475183e-10
2.1852792e-06
6.1685112e-10
2.185102e-06
6.7213275e-10
2.1849089e-06
7.3265598e-10
2.184698e-06
8.0037149e-10
2.1844667e-06
8.7767207e-10
2.1842118e-06
9.6785822e-10
2.1839283e-06
1.0761079e-09
2.1836099e-06
1.2092799e-09
2.1832461e-06
1.3818473e-09
2.1828235e-06
1.6055674e-09
2.1823116e-06
1.945156e-09
2.1816871e-06
2.3738153e-09
2.1808017e-06
3.3663842e-09
2.1796803e-06
4.2644142e-09
2.1763977e-06
1.2488655e-08
2.1737941e-06
9.8944255e-09
1.2774302e-06
3.709522e-06
2.920209e-07
3.9146075e-06
1.9997625e-07
2.1093508e-07
1.9729838e-07
5.8593498e-09
1.9533399e-07
4.2901187e-09
1.9077841e-07
9.9742229e-09
1.8585789e-07
1.0778568e-08
1.8144291e-07
9.6752337e-09
1.77627e-07
8.3615942e-09
1.7429477e-07
7.3008143e-09
1.7134203e-07
6.4693151e-09
1.6869542e-07
5.7986987e-09
1.6628097e-07
5.2900072e-09
1.6404479e-07
4.8993748e-09
1.6196712e-07
4.5520793e-09
1.6003282e-07
4.2379835e-09
1.5823004e-07
3.9497993e-09
1.5654445e-07
3.6930133e-09
1.5496122e-07
3.4687657e-09
1.5346908e-07
3.2691412e-09
1.5205757e-07
3.0925079e-09
1.507175e-07
2.9359739e-09
1.494421e-07
2.7942734e-09
1.4822582e-07
2.6647474e-09
1.4706385e-07
2.5457599e-09
1.4595079e-07
2.4385947e-09
1.4488306e-07
2.3392767e-09
1.4385733e-07
2.2472486e-09
1.4286872e-07
2.1659267e-09
1.4191478e-07
2.0899627e-09
1.4099361e-07
2.0181658e-09
1.4010161e-07
1.9542435e-09
1.3923681e-07
1.8946784e-09
1.3839811e-07
1.8374685e-09
1.3758278e-07
1.7862658e-09
1.3678862e-07
1.7399103e-09
1.3601514e-07
1.6945686e-09
1.3526108e-07
1.6520233e-09
1.3452411e-07
1.6145931e-09
1.3380313e-07
1.5795706e-09
1.3309695e-07
1.5471437e-09
1.3240365e-07
1.5188836e-09
1.3172259e-07
1.4920905e-09
1.3105386e-07
1.4651153e-09
1.3039735e-07
1.4383032e-09
1.2975219e-07
1.4134139e-09
1.2911713e-07
1.3913153e-09
1.2849153e-07
1.3705891e-09
1.278751e-07
1.3505054e-09
1.2726716e-07
1.3318743e-09
1.266669e-07
1.3150771e-09
1.2607373e-07
1.2995393e-09
1.2548721e-07
1.2849544e-09
1.2490698e-07
1.271182e-09
1.2433253e-07
1.2585094e-09
1.237633e-07
1.2470868e-09
1.2319894e-07
1.2364177e-09
1.2263905e-07
1.2266238e-09
1.2208313e-07
1.2179112e-09
1.2153088e-07
1.2098662e-09
1.2098203e-07
1.2024388e-09
1.20436e-07
1.196257e-09
1.1989239e-07
1.1909404e-09
1.1935105e-07
1.1859681e-09
1.1881168e-07
1.1816405e-09
1.1827389e-07
1.1782156e-09
1.177372e-07
1.1757787e-09
1.1720132e-07
1.1740105e-09
1.1666614e-07
1.172474e-09
1.1613133e-07
1.1716643e-09
1.1559621e-07
1.1723468e-09
1.1506035e-07
1.1739609e-09
1.1452374e-07
1.1755849e-09
1.1398614e-07
1.1777935e-09
1.1344655e-07
1.1821343e-09
1.1290439e-07
1.1877502e-09
1.123599e-07
1.1928677e-09
1.1181288e-07
1.1983951e-09
1.1126253e-07
1.2057189e-09
1.1070818e-07
1.21446e-09
1.1014975e-07
1.2233951e-09
1.0958687e-07
1.2331705e-09
1.0901846e-07
1.2452611e-09
1.0844391e-07
1.2587208e-09
1.0786304e-07
1.2725487e-09
1.072751e-07
1.2880478e-09
1.0667903e-07
1.3058679e-09
1.0607438e-07
1.3246638e-09
1.0546056e-07
1.3447366e-09
1.0483591e-07
1.3684776e-09
1.0422617e-07
1.3358045e-09
1.0364558e-07
1.2719435e-09
1.0309045e-07
1.216179e-09
1.0255876e-07
1.1648061e-09
1.0205019e-07
1.1141577e-09
1.015631e-07
1.0671158e-09
1.010955e-07
1.0244071e-09
1.0064589e-07
9.8499976e-10
1.0021334e-07
9.4761997e-10
9.9796866e-08
9.1239466e-10
9.9395136e-08
8.8010415e-10
9.9006908e-08
8.5052151e-10
9.8631448e-08
8.2254819e-10
9.8268212e-08
7.9576896e-10
9.7916445e-08
7.706466e-10
9.7575021e-08
7.4798807e-10
9.7243118e-08
7.2713242e-10
9.6919022e-08
7.1003677e-10
9.6603728e-08
6.9075579e-10
9.6288858e-08
6.8985699e-10
9.59872e-08
6.6100892e-10
9.561598e-08
8.1289251e-10
5.0583026e-10
2.3100965e-06
9.7327136e-11
2.310032e-06
2.9632509e-10
2.3099344e-06
4.4740198e-10
2.3098193e-06
5.2750254e-10
2.3096898e-06
5.9255759e-10
2.3095463e-06
6.5737007e-10
2.3093885e-06
7.2255339e-10
2.3092161e-06
7.8918325e-10
2.3090284e-06
8.5986738e-10
2.3088238e-06
9.3723957e-10
2.3086004e-06
1.0237945e-09
2.3083555e-06
1.1225914e-09
2.3080855e-06
1.2378489e-09
2.3077854e-06
1.3761848e-09
2.3074483e-06
1.5463642e-09
2.3070633e-06
1.7668819e-09
2.3066161e-06
2.0527602e-09
2.3060746e-06
2.4866966e-09
2.3054139e-06
3.0344297e-09
2.3044776e-06
4.3027312e-09
2.3032919e-06
5.45007e-09
2.2998222e-06
1.5958433e-08
2.2970683e-06
1.2648277e-08
1.4056489e-06
4.6009414e-06
3.9776133e-07
4.9224951e-06
2.770349e-07
3.3166152e-07
2.7330909e-07
9.5851565e-09
2.7056665e-07
7.0325613e-09
2.6425306e-07
1.6287807e-08
2.5743872e-07
1.7592914e-08
2.5132767e-07
1.5786284e-08
2.4604519e-07
1.3644073e-08
2.4143149e-07
1.1914509e-08
2.3734307e-07
1.0557739e-08
2.3367853e-07
9.4632401e-09
2.3033538e-07
8.6331546e-09
2.2723901e-07
7.9957423e-09
2.2436208e-07
7.4290065e-09
2.2168364e-07
6.9164295e-09
2.1918728e-07
6.4461546e-09
2.1685317e-07
6.027125e-09
2.1466075e-07
5.6611878e-09
2.1259446e-07
5.3354274e-09
2.1063979e-07
5.0471776e-09
2.0878403e-07
4.7917343e-09
2.0701783e-07
4.5604753e-09
2.0533347e-07
4.3491099e-09
2.0372429e-07
4.1549412e-09
2.0218286e-07
3.9800219e-09
2.0070418e-07
3.8179581e-09
1.9928364e-07
3.6677885e-09
1.9791453e-07
3.5350398e-09
1.965934e-07
3.411084e-09
1.9531764e-07
3.2939344e-09
1.9408229e-07
3.1895853e-09
1.928846e-07
3.0923742e-09
1.9172303e-07
2.9990349e-09
1.9059383e-07
2.9154631e-09
1.8949396e-07
2.8397831e-09
1.8842272e-07
2.7658058e-09
1.8737835e-07
2.6963962e-09
1.8635766e-07
2.6352857e-09
1.8535912e-07
2.578107e-09
1.8438105e-07
2.5252111e-09
1.8342083e-07
2.4791103e-09
1.8247756e-07
2.4353591e-09
1.8155136e-07
2.3913166e-09
1.8064208e-07
2.3475791e-09
1.7974852e-07
2.3069788e-09
1.7886893e-07
2.270898e-09
1.7800247e-07
2.2370558e-09
1.7714869e-07
2.204288e-09
1.7630666e-07
2.1738997e-09
1.7547525e-07
2.1464842e-09
1.7465368e-07
2.1211103e-09
1.7384134e-07
2.0973014e-09
1.7303767e-07
2.0748425e-09
1.7224201e-07
2.0541727e-09
1.7145358e-07
2.035516e-09
1.7067191e-07
2.0180943e-09
1.6989641e-07
2.0021194e-09
1.6912641e-07
1.9879133e-09
1.6836149e-07
1.9747825e-09
1.6760128e-07
1.9626505e-09
1.6684498e-07
1.9525579e-09
1.6609202e-07
1.9438947e-09
1.653422e-07
1.9357904e-09
1.6459512e-07
1.9287184e-09
1.6385022e-07
1.9231229e-09
1.6310684e-07
1.919153e-09
1.6236458e-07
1.9162776e-09
1.6162328e-07
1.9137706e-09
1.608825e-07
1.9124433e-09
1.6014129e-07
1.9135574e-09
1.5939905e-07
1.9162029e-09
1.5865577e-07
1.9188605e-09
1.5791111e-07
1.9224597e-09
1.571637e-07
1.9295426e-09
1.5641273e-07
1.9387182e-09
1.5565852e-07
1.9470785e-09
1.5490082e-07
1.9560971e-09
1.5413849e-07
1.9680494e-09
1.5337062e-07
1.9823247e-09
1.525971e-07
1.9969156e-09
1.518174e-07
2.0128694e-09
1.5103006e-07
2.0326031e-09
1.502342e-07
2.0545805e-09
1.4942959e-07
2.0771564e-09
1.4861519e-07
2.1024528e-09
1.4778951e-07
2.1315423e-09
1.4695195e-07
2.1622282e-09
1.4610169e-07
2.1949939e-09
1.4523642e-07
2.2337474e-09
1.4439181e-07
2.1804213e-09
1.4358757e-07
2.0761834e-09
1.4281859e-07
1.9851575e-09
1.4208209e-07
1.9013047e-09
1.4137761e-07
1.8186359e-09
1.4070288e-07
1.7418492e-09
1.4005515e-07
1.6721352e-09
1.3943233e-07
1.6078138e-09
1.3883315e-07
1.5468018e-09
1.3825624e-07
1.4893028e-09
1.3769976e-07
1.4365934e-09
1.3716197e-07
1.3883062e-09
1.3664187e-07
1.3426479e-09
1.361387e-07
1.2989366e-09
1.3565142e-07
1.2579265e-09
1.3517847e-07
1.2209372e-09
1.3471871e-07
1.1868922e-09
1.3426977e-07
1.1589778e-09
1.3383303e-07
1.1275044e-09
1.333969e-07
1.1259826e-09
1.3297909e-07
1.0788139e-09
1.3246479e-07
1.3272017e-09
8.252141e-10
2.4685085e-06
1.1996058e-10
2.4684395e-06
3.6538255e-10
2.468335e-06
5.5189327e-10
2.4682116e-06
6.5089491e-10
2.4680729e-06
7.3126485e-10
2.467919e-06
8.1127321e-10
2.4677498e-06
8.9170394e-10
2.4675651e-06
9.7389533e-10
2.4673639e-06
1.0610663e-09
2.4671447e-06
1.1564661e-09
2.4669053e-06
1.2631719e-09
2.466643e-06
1.3849563e-09
2.4663538e-06
1.52702e-09
2.4660324e-06
1.6975204e-09
2.4656716e-06
1.9072603e-09
2.4652594e-06
2.1790345e-09
2.4647808e-06
2.5313538e-09
2.4642014e-06
3.0661372e-09
2.4634947e-06
3.7411365e-09
2.4624932e-06
5.304148e-09
2.4612254e-06
6.7178724e-09
2.4575167e-06
1.9667154e-08
2.4545709e-06
1.5594109e-08
1.5619892e-06
5.4935231e-06
5.228709e-07
5.9616134e-06
3.705571e-07
4.8397532e-07
3.6550823e-07
1.4634026e-08
3.6178987e-07
1.0750919e-08
3.5334765e-07
2.4730029e-08
3.442457e-07
2.6694864e-08
3.3608728e-07
2.3944705e-08
3.2903375e-07
2.0697599e-08
3.2287184e-07
1.8076419e-08
3.1741104e-07
1.6018537e-08
3.1251625e-07
1.4358032e-08
3.0805052e-07
1.3098884e-08
3.0391423e-07
1.2132036e-08
3.0007091e-07
1.1272322e-08
2.9649261e-07
1.0494736e-08
2.9315743e-07
9.7813309e-09
2.9003889e-07
9.1456709e-09
2.8710953e-07
8.5905389e-09
2.8434862e-07
8.0963413e-09
2.8173676e-07
7.6590377e-09
2.7925699e-07
7.2715053e-09
2.7689683e-07
6.9206307e-09
2.7464597e-07
6.5999725e-09
2.7249552e-07
6.3053977e-09
2.7043557e-07
6.0399646e-09
2.6845943e-07
5.7941046e-09
2.6656093e-07
5.5662855e-09
2.6473115e-07
5.3648235e-09
2.6296546e-07
5.1767716e-09
2.6126034e-07
4.9990548e-09
2.5960924e-07
4.8406854e-09
2.5800843e-07
4.6931841e-09
2.5645586e-07
4.5516001e-09
2.5494654e-07
4.4247811e-09
2.5347642e-07
4.3099094e-09
2.5204453e-07
4.1976918e-09
2.5064852e-07
4.0924117e-09
2.4928415e-07
3.9996503e-09
2.479494e-07
3.9128577e-09
2.4664198e-07
3.832635e-09
2.4535837e-07
3.7627148e-09
2.4409744e-07
3.6962919e-09
2.4285932e-07
3.6294356e-09
2.416438e-07
3.5631016e-09
2.4044925e-07
3.5015267e-09
2.3927339e-07
3.4467565e-09
2.3811507e-07
3.3953807e-09
2.3697368e-07
3.3456753e-09
2.3584798e-07
3.299594e-09
2.3473648e-07
3.2579933e-09
2.3363812e-07
3.2194684e-09
2.3255208e-07
3.1833344e-09
2.3147764e-07
3.1492857e-09
2.3041387e-07
3.1179425e-09
2.2935977e-07
3.0896138e-09
2.283147e-07
3.0631658e-09
2.2727788e-07
3.0389428e-09
2.2624838e-07
3.0174099e-09
2.2522568e-07
2.9974871e-09
2.2420926e-07
2.9790657e-09
2.2319807e-07
2.9637495e-09
2.2219134e-07
2.9506297e-09
2.2118877e-07
2.9383526e-09
2.2018988e-07
2.9276122e-09
2.1919389e-07
2.919117e-09
2.1819993e-07
2.9131095e-09
2.1720744e-07
2.9087679e-09
2.1621624e-07
2.9049705e-09
2.1522573e-07
2.9029532e-09
2.1423464e-07
2.9046508e-09
2.1324215e-07
2.9086899e-09
2.1224827e-07
2.9127404e-09
2.1125253e-07
2.9182014e-09
2.1025311e-07
2.9289553e-09
2.0924893e-07
2.9429037e-09
2.082404e-07
2.9556118e-09
2.0722719e-07
2.9693028e-09
2.0620779e-07
2.9874489e-09
2.0518098e-07
3.0091363e-09
2.0414659e-07
3.0313014e-09
2.0310394e-07
3.0555218e-09
2.0205106e-07
3.0854819e-09
2.0098678e-07
3.1188617e-09
1.9991079e-07
3.1531464e-09
1.9882169e-07
3.1915495e-09
1.9771752e-07
3.235718e-09
1.9659743e-07
3.2823156e-09
1.9546036e-07
3.3320637e-09
1.9430321e-07
3.3909023e-09
1.9317366e-07
3.3099675e-09
1.920981e-07
3.1517392e-09
1.910697e-07
3.0135601e-09
1.9008473e-07
2.8862767e-09
1.8914257e-07
2.7607926e-09
1.8824019e-07
2.6442299e-09
1.8737392e-07
2.5384026e-09
1.8654097e-07
2.4407673e-09
1.8573962e-07
2.3481552e-09
1.8496805e-07
2.2608696e-09
1.8422379e-07
2.1808534e-09
1.8350454e-07
2.1075533e-09
1.8280894e-07
2.0382471e-09
1.8213599e-07
1.9718929e-09
1.8148428e-07
1.9096342e-09
1.8085174e-07
1.8534772e-09
1.8023684e-07
1.8017928e-09
1.7963642e-07
1.7594024e-09
1.7905229e-07
1.7116264e-09
1.7846906e-07
1.7092203e-09
1.7791033e-07
1.6375371e-09
1.772224e-07
2.0151347e-09
1.2523115e-09
2.6637069e-06
1.4439793e-10
2.6636323e-06
4.4001196e-10
2.6635193e-06
6.6492115e-10
2.6633857e-06
7.8446005e-10
2.6632355e-06
8.8145503e-10
2.6630689e-06
9.7793014e-10
2.6628857e-06
1.0748664e-09
2.6626857e-06
1.1738916e-09
2.6624679e-06
1.278887e-09
2.6622306e-06
1.3937677e-09
2.6619715e-06
1.5222412e-09
2.6616876e-06
1.668851e-09
2.6613748e-06
1.839859e-09
2.6610272e-06
2.0450849e-09
2.660637e-06
2.2975318e-09
2.6601914e-06
2.6246365e-09
2.659674e-06
3.0486745e-09
2.6590479e-06
3.6923135e-09
2.6582843e-06
4.5046742e-09
2.6572027e-06
6.3857782e-09
2.6558336e-06
8.0869361e-09
2.6518306e-06
2.3670214e-08
2.6486479e-06
1.8776772e-08
1.7509888e-06
6.3911822e-06
6.7344164e-07
7.0391605e-06
4.8584169e-07
6.7157526e-07
4.7899609e-07
2.1479632e-08
4.7400689e-07
1.5740121e-08
4.6296178e-07
3.5775131e-08
4.5107422e-07
3.8582432e-08
4.4042362e-07
3.4595302e-08
4.3121267e-07
2.9908547e-08
4.2316345e-07
2.6125636e-08
4.1602894e-07
2.3153055e-08
4.0963318e-07
2.0753783e-08
4.0379736e-07
1.8934705e-08
3.9839145e-07
1.753795e-08
3.9336791e-07
1.6295864e-08
3.8869027e-07
1.5172373e-08
3.8433002e-07
1.4141586e-08
3.8025257e-07
1.3223114e-08
3.7642215e-07
1.2420961e-08
3.7281167e-07
1.1706817e-08
3.6939585e-07
1.107486e-08
3.6615253e-07
1.0514823e-08
3.6306546e-07
1.0007705e-08
3.6012114e-07
9.5442967e-09
3.5730797e-07
9.1185658e-09
3.5461307e-07
8.7348611e-09
3.5202764e-07
8.379537e-09
3.4954365e-07
8.0502759e-09
3.4714947e-07
7.7590058e-09
3.4483902e-07
7.4872128e-09
3.4260771e-07
7.2303676e-09
3.4044702e-07
7.0013817e-09
3.3835204e-07
6.7881574e-09
3.363201e-07
6.5835466e-09
3.3434468e-07
6.400199e-09
3.324205e-07
6.2340833e-09
3.3054629e-07
6.0719043e-09
3.2871894e-07
5.9197638e-09
3.2693298e-07
5.7856135e-09
3.2518574e-07
5.6600962e-09
3.2347419e-07
5.5441797e-09
3.2179376e-07
5.4431447e-09
3.2014299e-07
5.3470668e-09
3.1852205e-07
5.250375e-09
3.1693062e-07
5.1545261e-09
3.153666e-07
5.0655555e-09
3.1382701e-07
4.9863458e-09
3.1231035e-07
4.9120391e-09
3.1081582e-07
4.8402072e-09
3.0934177e-07
4.773635e-09
3.0788627e-07
4.7134967e-09
3.0644797e-07
4.6577723e-09
3.0502577e-07
4.6055298e-09
3.036187e-07
4.5563566e-09
3.0222556e-07
4.5110813e-09
3.0084507e-07
4.470106e-09
2.9947638e-07
4.4318593e-09
2.9811844e-07
4.396875e-09
2.9677006e-07
4.3657897e-09
2.9543055e-07
4.3370005e-09
2.9409926e-07
4.3103605e-09
2.9277478e-07
4.2882284e-09
2.9145609e-07
4.269313e-09
2.9014284e-07
4.2516078e-09
2.8883437e-07
4.2360815e-09
2.8752968e-07
4.2238087e-09
2.8622762e-07
4.2151657e-09
2.8492745e-07
4.2089395e-09
2.8362894e-07
4.2034784e-09
2.8233132e-07
4.2005767e-09
2.8103291e-07
4.2030643e-09
2.7973263e-07
4.2089647e-09
2.784305e-07
4.2148716e-09
2.7712591e-07
4.2227913e-09
2.7581649e-07
4.2383774e-09
2.7450078e-07
4.2586128e-09
2.7317934e-07
4.2770496e-09
2.7185176e-07
4.2968844e-09
2.7051604e-07
4.3231694e-09
2.6917057e-07
4.3546015e-09
2.6781515e-07
4.3867233e-09
2.6644887e-07
4.4217995e-09
2.6506917e-07
4.4651848e-09
2.6367449e-07
4.51354e-09
2.6226444e-07
4.5632001e-09
2.6083718e-07
4.6188045e-09
2.5939014e-07
4.6827636e-09
2.5792221e-07
4.7502478e-09
2.5643199e-07
4.8222825e-09
2.5491541e-07
4.9074752e-09
2.5343499e-07
4.7903902e-09
2.520253e-07
4.5614276e-09
2.506774e-07
4.3614661e-09
2.4938639e-07
4.1772811e-09
2.4815148e-07
3.9957022e-09
2.4696869e-07
3.8270217e-09
2.4583322e-07
3.6738745e-09
2.447414e-07
3.5325906e-09
2.4369098e-07
3.3985742e-09
2.4267959e-07
3.2722561e-09
2.4170399e-07
3.1564557e-09
2.4076116e-07
3.0503793e-09
2.3984932e-07
2.9500867e-09
2.3896716e-07
2.8540604e-09
2.3811284e-07
2.7639533e-09
2.3728364e-07
2.6826734e-09
2.3647756e-07
2.6078713e-09
2.3569046e-07
2.5464996e-09
2.3492473e-07
2.4773634e-09
2.3416022e-07
2.4737305e-09
2.3342785e-07
2.3699081e-09
2.3252594e-07
2.9170448e-09
1.8121958e-09
2.8986007e-06
1.7100698e-10
2.8985193e-06
5.2135578e-10
2.898396e-06
7.8824663e-10
2.8982501e-06
9.3030688e-10
2.8980861e-06
1.0455147e-09
2.897904e-06
1.1599938e-09
2.8977039e-06
1.2749552e-09
2.8974855e-06
1.3923497e-09
2.8972476e-06
1.5167824e-09
2.8969885e-06
1.6528957e-09
2.8967056e-06
1.8050845e-09
2.8963957e-06
1.9787331e-09
2.8960543e-06
2.1812594e-09
2.8956751e-06
2.4242939e-09
2.8952494e-06
2.7232352e-09
2.8947635e-06
3.1105742e-09
2.8941995e-06
3.6126832e-09
2.893517e-06
4.374817e-09
2.8926849e-06
5.3366894e-09
2.8915067e-06
7.5640245e-09
2.8900157e-06
9.5779505e-09
2.8856585e-06
2.8027402e-08
2.8821903e-06
2.2245005e-08
1.9777921e-06
7.2955804e-06
8.5638109e-07
8.1605715e-06
6.289827e-07
8.9897366e-07
6.194464e-07
3.1015934e-08
6.1273998e-07
2.2446538e-08
5.9852165e-07
4.9993458e-08
5.8326374e-07
5.3840347e-08
5.6959783e-07
4.8261205e-08
5.5777341e-07
4.1732968e-08
5.4743551e-07
3.6463532e-08
5.3826967e-07
3.2318898e-08
5.3005091e-07
2.8972551e-08
5.2254992e-07
2.6435695e-08
5.1560003e-07
2.4487838e-08
5.091403e-07
2.2755594e-08
5.0312403e-07
2.1188636e-08
4.9751479e-07
1.9750833e-08
4.9226831e-07
1.8469595e-08
4.8733874e-07
1.7350523e-08
4.8269143e-07
1.6354131e-08
4.7829394e-07
1.5472348e-08
4.7411789e-07
1.469088e-08
4.7014243e-07
1.3983156e-08
4.6635027e-07
1.3336464e-08
4.6272653e-07
1.2742304e-08
4.5925473e-07
1.2206662e-08
4.5592352e-07
1.1710741e-08
4.5272263e-07
1.1251167e-08
4.4963716e-07
1.0844477e-08
4.4665928e-07
1.0465097e-08
4.4378306e-07
1.0106585e-08
4.4099763e-07
9.7868167e-09
4.3829666e-07
9.4891203e-09
4.3567668e-07
9.2035252e-09
4.3312938e-07
8.9475045e-09
4.3064797e-07
8.7154912e-09
4.2823077e-07
8.4891078e-09
4.2587378e-07
8.2767512e-09
4.2357003e-07
8.0893677e-09
4.2131608e-07
7.914045e-09
4.1910799e-07
7.752268e-09
4.1693988e-07
7.6112504e-09
4.1480993e-07
7.4770191e-09
4.1271835e-07
7.3419517e-09
4.106647e-07
7.2081838e-09
4.0864623e-07
7.0840178e-09
4.066592e-07
6.9733782e-09
4.0470166e-07
6.8695798e-09
4.0277255e-07
6.769322e-09
4.0086974e-07
6.676439e-09
3.9899076e-07
6.5924814e-09
3.9713389e-07
6.5146421e-09
3.9529771e-07
6.4417035e-09
3.9348094e-07
6.3731293e-09
3.9168204e-07
6.3099803e-09
3.8989939e-07
6.2527561e-09
3.8813189e-07
6.1993573e-09
3.8637819e-07
6.150582e-09
3.8463671e-07
6.1072679e-09
3.8290659e-07
6.0671167e-09
3.8118702e-07
6.0299367e-09
3.7947616e-07
5.9990839e-09
3.7777269e-07
5.9727848e-09
3.7607613e-07
5.9481646e-09
3.7438569e-07
5.9265279e-09
3.7270005e-07
5.9094488e-09
3.7101772e-07
5.8974911e-09
3.6933774e-07
5.8889229e-09
3.6765982e-07
5.8813925e-09
3.6598298e-07
5.877419e-09
3.6430504e-07
5.8810061e-09
3.626246e-07
5.8894035e-09
3.6094168e-07
5.8977955e-09
3.592555e-07
5.9089634e-09
3.5756301e-07
5.9308698e-09
3.558623e-07
5.9593205e-09
3.541541e-07
5.9852494e-09
3.5243789e-07
6.0131002e-09
3.5071108e-07
6.0499828e-09
3.4897158e-07
6.0941016e-09
3.4721911e-07
6.1391841e-09
3.4545254e-07
6.1883739e-09
3.4366853e-07