/*--------------------------------*- C++ -*----------------------------------*\
  =========                 |
  \\      /  F ield         | OpenFOAM: The Open Source CFD Toolbox
   \\    /   O peration     | Website:  https://openfoam.org
    \\  /    A nd           | Version:  12
     \\/     M anipulation  |
\*---------------------------------------------------------------------------*/
FoamFile
{
    format      ascii;
    class       surfaceScalarField;
    location    "600";
    object      phi;
}
// * * * * * * * * * * * * * * * * * * * * * * * * * * * * * * * * * * * * * //

dimensions      [0 3 -1 0 0 0 0];

internalField   nonuniform List<scalar> 
14782
(
0.00079839085
1.0681934e-06
-0.00079945905
0.00079695538
1.4354724e-06
0.00079532335
1.6320341e-06
0.00079361536
1.7079865e-06
0.00079183189
1.783468e-06
0.00078997157
1.86032e-06
0.00078803701
1.9345598e-06
0.00078602488
2.0121293e-06
0.00078392493
2.0999553e-06
0.00078173717
2.1877543e-06
0.00077938758
2.3495894e-06
0.00077698926
2.398327e-06
0.00077340807
3.5811883e-06
0.00076706734
6.3407316e-06
0.00075813271
8.9346259e-06
0.00074741006
1.0722648e-05
0.0007357572
1.1652862e-05
0.00072356512
1.2192085e-05
0.00071111839
1.2446725e-05
0.00069866389
1.2454503e-05
0.0006863516
1.2312286e-05
0.00067426118
1.2090421e-05
0.00066233844
1.1922739e-05
0.00065052961
1.1808835e-05
0.00063892882
1.1600789e-05
0.00062768107
1.1247752e-05
0.00061699235
1.0688713e-05
0.00060694119
1.0051161e-05
0.00059747453
9.4666586e-06
0.00058862442
8.8501102e-06
0.0005804413
8.1831202e-06
0.00057295605
7.4852572e-06
0.00056617231
6.7837388e-06
0.00056007123
6.1010795e-06
0.00055461546
5.4557633e-06
0.00054975386
4.8615994e-06
0.00054542799
4.3258769e-06
0.00054158692
3.8410695e-06
0.00053818696
3.399955e-06
0.0005351803
3.0066641e-06
0.00053251382
2.6664761e-06
0.00053013258
2.3812449e-06
0.00052798675
2.1458272e-06
0.00052603718
1.9495735e-06
0.00052424089
1.7962879e-06
0.00052255547
1.6854181e-06
0.00052094895
1.606521e-06
0.0005193926
1.556355e-06
0.00051786366
1.5289389e-06
0.00051634026
1.523398e-06
0.0005147968
1.5434593e-06
0.00051320932
1.5874762e-06
0.00051156579
1.6435328e-06
0.00050986552
1.7002737e-06
0.00050811394
1.7515758e-06
0.00050632059
1.7933504e-06
0.00050449636
1.8242321e-06
0.0005026559
1.8404558e-06
0.00050081199
1.8439098e-06
0.00049896973
1.8422609e-06
0.00049713183
1.8379045e-06
0.00049530034
1.8314891e-06
0.00049348041
1.8199254e-06
0.00049167709
1.803322e-06
0.00048989292
1.7841697e-06
0.00048813052
1.7624003e-06
0.00048639405
1.736469e-06
0.00048468602
1.7080314e-06
0.00048300404
1.6819781e-06
0.00048134428
1.6597604e-06
0.00047970499
1.6392966e-06
0.00047808552
1.6194613e-06
0.00047648522
1.6002993e-06
0.00047490459
1.5806316e-06
0.00047334568
1.5589165e-06
0.0004718096
1.5360771e-06
0.00047029425
1.5153445e-06
0.00046879763
1.4966212e-06
0.00046731824
1.4793893e-06
0.00046585572
1.4625225e-06
0.00046441018
1.4455395e-06
0.0004629829
1.4272778e-06
0.00046157475
1.4081588e-06
0.00046018344
1.391301e-06
0.00045880785
1.3755897e-06
0.00045744729
1.3605693e-06
0.00045610076
1.346523e-06
0.00045476982
1.3309426e-06
0.00045345481
1.3150063e-06
0.00045215359
1.3012212e-06
0.0004508655
1.2880929e-06
0.00044958977
1.2757267e-06
0.00044832562
1.2641545e-06
0.00044707346
1.252157e-06
0.00044583038
1.2430862e-06
0.00044459388
1.2364904e-06
0.00044335409
1.2397955e-06
0.00044208072
1.2733685e-06
0.00044085075
1.2299757e-06
1.4790472e-06
0.00082684518
1.0459803e-06
-0.00082682297
0.00082687793
1.4027224e-06
0.00082688491
1.6250557e-06
0.00082686904
1.7238597e-06
0.00082684097
1.8115362e-06
0.00082679643
1.9048613e-06
0.00082673475
1.9962366e-06
0.00082665353
2.0933534e-06
0.00082654755
2.2059328e-06
0.00082640493
2.3303755e-06
0.00082621456
2.5399557e-06
0.00082584987
2.7630147e-06
0.00082542661
4.0044532e-06
0.00082493833
6.8290109e-06
0.00082398577
9.8871867e-06
0.00082231974
1.2388681e-05
0.0008198705
1.4102094e-05
0.00081671138
1.5351207e-05
0.00081291624
1.6241867e-05
0.00080853871
1.6832034e-05
0.00080359928
1.7251715e-05
0.0007981258
1.7563901e-05
0.00079224873
1.7799811e-05
0.00078606852
1.7989043e-05
0.00077960363
1.8065673e-05
0.00077287688
1.7974507e-05
0.00076586936
1.7696236e-05
0.00075863701
1.7283511e-05
0.00075129219
1.6811473e-05
0.00074389363
1.6248675e-05
0.00073649545
1.5581299e-05
0.00072914868
1.4832029e-05
0.00072190638
1.4026037e-05
0.00071482273
1.318473e-05
0.00070794848
1.2330013e-05
0.00070132881
1.1481273e-05
0.0006950115
1.0643179e-05
0.0006890135
9.8390681e-06
0.00068331048
9.1029824e-06
0.00067788941
8.4277308e-06
0.00067275261
7.8032807e-06
0.0006678999
7.2339552e-06
0.00066332187
6.723849e-06
0.00065899663
6.2748147e-06
0.00065490356
5.8893647e-06
0.00065102512
5.5638503e-06
0.00064733831
5.2933362e-06
0.00064382418
5.0704789e-06
0.00064047139
4.8817341e-06
0.0006372391
4.755683e-06
0.00063408357
4.6989932e-06
0.00063099826
4.672785e-06
0.00062798504
4.6567523e-06
0.00062504605
4.6392648e-06
0.00062217956
4.6180695e-06
0.00061938111
4.5918003e-06
0.00061664518
4.560162e-06
0.00061396228
4.5233538e-06
0.00061132089
4.4853008e-06
0.00060871545
4.4476958e-06
0.00060614624
4.4071143e-06
0.00060361477
4.3629649e-06
0.0006011239
4.3107893e-06
0.00059867596
4.2512635e-06
0.00059627127
4.1888592e-06
0.0005939104
4.123275e-06
0.00059159389
4.052981e-06
0.00058931901
3.9829031e-06
0.00058708068
3.9203163e-06
0.00058487586
3.8645736e-06
0.00058270482
3.8103415e-06
0.00058056845
3.7558291e-06
0.0005784666
3.7021457e-06
0.00057639934
3.647898e-06
0.00057436722
3.5910363e-06
0.00057236896
3.5343391e-06
0.00057040102
3.4832759e-06
0.00056846137
3.4362743e-06
0.0005665495
3.3912607e-06
0.00056466558
3.3464404e-06
0.00056280971
3.3014144e-06
0.00056098211
3.2548738e-06
0.00055918193
3.2083443e-06
0.0005574064
3.1668238e-06
0.0005556544
3.1275933e-06
0.00055392568
3.0892872e-06
0.00055221976
3.0524436e-06
0.0005505372
3.0135083e-06
0.0005488772
2.9749986e-06
0.00054723745
2.9409722e-06
0.00054561711
2.9084344e-06
0.00054401583
2.8770021e-06
0.00054243266
2.8473261e-06
0.00054086744
2.817384e-06
0.00053931513
2.7953916e-06
0.00053777847
2.7731517e-06
0.0005362304
2.7878649e-06
0.00053470605
2.7977212e-06
0.0005329685
2.9675218e-06
2.9622985e-06
0.00085447075
1.0422924e-06
-0.00085446707
0.00085448557
1.3879041e-06
0.00085449733
1.6133027e-06
0.00085449114
1.7300482e-06
0.00085447151
1.8311601e-06
0.00085443861
1.9377676e-06
0.00085438997
2.0448749e-06
0.00085432382
2.1595015e-06
0.00085423568
2.2940692e-06
0.00085411305
2.4530071e-06
0.00085394576
2.7072518e-06
0.00085364059
3.0681809e-06
0.00085337245
4.2725947e-06
0.00085335871
6.842748e-06
0.00085349815
9.7477523e-06
0.00085369553
1.21913e-05
0.00085384266
1.395496e-05
0.00085389334
1.5300523e-05
0.00085379289
1.6342323e-05
0.00085350132
1.7123598e-05
0.00085300357
1.7749472e-05
0.00085228308
1.8284386e-05
0.00085132504
1.8757858e-05
0.00085011293
1.9201153e-05
0.00084858989
1.9588705e-05
0.00084666934
1.9895065e-05
0.00084425308
2.011249e-05
0.00084128716
2.0249436e-05
0.00083777021
2.0328419e-05
0.0008336733
2.0345582e-05
0.00082900227
2.0252332e-05
0.00082380015
2.003415e-05
0.00081810969
1.97165e-05
0.00081199106
1.9303352e-05
0.00080552263
1.8798444e-05
0.0007987977
1.8206207e-05
0.00079191682
1.7524061e-05
0.00078498666
1.6769221e-05
0.00077810887
1.5980779e-05
0.00077136528
1.5171314e-05
0.00076482152
1.4347046e-05
0.00075852566
1.3529818e-05
0.00075247152
1.2777984e-05
0.00074663185
1.2114483e-05
0.00074101558
1.1505633e-05
0.00073563888
1.0940556e-05
0.00073051355
1.041866e-05
0.00072563992
9.9441144e-06
0.00072099904
9.5226139e-06
0.00071656988
9.1848401e-06
0.00071233661
8.9322644e-06
0.00070828107
8.7283217e-06
0.00070438835
8.5494728e-06
0.00070064862
8.3789976e-06
0.00069704859
8.2180986e-06
0.00069357278
8.0676117e-06
0.00069020484
7.9281027e-06
0.00068691675
7.8114385e-06
0.00068369059
7.7114625e-06
0.00068053041
7.607878e-06
0.00067743868
7.498846e-06
0.00067441346
7.3881885e-06
0.00067145285
7.2713974e-06
0.00066855597
7.1481404e-06
0.00066572126
7.0235688e-06
0.00066294764
6.8968972e-06
0.00066023155
6.7690682e-06
0.0006575653
6.6491508e-06
0.00065494339
6.54223e-06
0.00065236523
6.442734e-06
0.00064983247
6.343101e-06
0.00064734604
6.2422619e-06
0.00064490527
6.1429116e-06
0.00064250971
6.0434574e-06
0.00064015862
5.9421305e-06
0.00063784854
5.8444177e-06
0.00063557513
5.7566894e-06
0.00063333697
5.6744333e-06
0.00063113435
5.593876e-06
0.00062896759
5.5132049e-06
0.00062683659
5.4324108e-06
0.00062474076
5.3507044e-06
0.0006226779
5.2712016e-06
0.00062064492
5.1998079e-06
0.00061864094
5.1315741e-06
0.00061666606
5.0641657e-06
0.00061471997
4.9985288e-06
0.00061280263
4.9308536e-06
0.00061091239
4.8652368e-06
0.00060904673
4.8066296e-06
0.00060720489
4.7502822e-06
0.00060538674
4.6951444e-06
0.00060359117
4.6428978e-06
0.00060181754
4.5910135e-06
0.00060005985
4.5530878e-06
0.00059832273
4.5102624e-06
0.00059657229
4.5383066e-06
0.00059486993
4.50008e-06
0.00059284836
4.9891004e-06
4.5286554e-06
0.00088301901
1.0500136e-06
-0.00088302674
0.00088303031
1.3766102e-06
0.00088304001
1.6035962e-06
0.00088303181
1.7382508e-06
0.00088301053
1.8524451e-06
0.00088297622
1.9720694e-06
0.00088292596
2.0951377e-06
0.0008828578
2.2276622e-06
0.00088276749
2.38438e-06
0.00088264328
2.5772154e-06
0.00088247406
2.8764766e-06
0.00088220427
3.3379648e-06
0.000881958
4.5188633e-06
0.00088193414
6.8666156e-06
0.00088208458
9.5973115e-06
0.00088232801
1.1947868e-05
0.00088258835
1.3694623e-05
0.0008828494
1.5039471e-05
0.00088308988
1.6101841e-05
0.00088329481
1.6918664e-05
0.00088346629
1.7577994e-05
0.00088360564
1.8145034e-05
0.00088371101
1.8652493e-05
0.00088378262
1.9129541e-05
0.00088381322
1.9558103e-05
0.00088378787
1.9920417e-05
0.0008836861
2.0214259e-05
0.00088348148
2.0454057e-05
0.00088314262
2.0667279e-05
0.00088263158
2.0856628e-05
0.00088187675
2.1007162e-05
0.00088078751
2.112339e-05
0.00087928589
2.1218115e-05
0.0008772928
2.1296449e-05
0.00087473093
2.1360306e-05
0.0008715301
2.140704e-05
0.00086763097
2.142319e-05
0.00086303309
2.1367099e-05
0.00085779507
2.1218805e-05
0.00085198476
2.0981625e-05
0.00084569347
2.0638328e-05
0.00083904999
2.0173303e-05
0.00083221119
1.9616783e-05
0.00082532455
1.9001123e-05
0.00081850493
1.8325256e-05
0.00081184255
1.760293e-05
0.00080541408
1.6847134e-05
0.00079921938
1.613881e-05
0.00079321866
1.5523335e-05
0.00078744238
1.4961124e-05
0.0007819306
1.4444047e-05
0.00077669328
1.3965639e-05
0.00077172149
1.3521267e-05
0.0007669858
1.3114682e-05
0.00076245165
1.2752251e-05
0.00075809535
1.2423908e-05
0.00075390078
1.2122677e-05
0.00074985744
1.1854773e-05
0.00074595751
1.1611397e-05
0.00074218733
1.1378053e-05
0.00073853158
1.1154602e-05
0.00073497574
1.0944024e-05
0.00073151176
1.0735378e-05
0.00072813737
1.0522531e-05
0.00072484942
1.0311515e-05
0.00072164359
1.0102728e-05
0.00071850791
9.9047511e-06
0.0007154293
9.7277664e-06
0.00071240748
9.5640406e-06
0.00070944639
9.4038268e-06
0.00070654695
9.2425396e-06
0.0007037081
9.0811119e-06
0.00070092788
8.9231385e-06
0.00069820514
8.7661983e-06
0.00069553684
8.6104248e-06
0.00069291647
8.4647893e-06
0.00069033985
8.3333105e-06
0.00068780739
8.2068883e-06
0.00068532003
8.0812417e-06
0.00068287764
7.9555903e-06
0.00068047969
7.8303675e-06
0.00067812422
7.7061663e-06
0.00067580738
7.5880505e-06
0.00067352603
7.4811531e-06
0.00067128002
7.3775802e-06
0.00066906976
7.2744268e-06
0.00066689492
7.1733759e-06
0.00066475458
7.0711921e-06
0.00066264604
6.973778e-06
0.00066056669
6.8859777e-06
0.00065851605
6.8009169e-06
0.00065649425
6.7169459e-06
0.00065449984
6.6373141e-06
0.00065253152
6.5593259e-06
0.00065058261
6.5019991e-06
0.00064865892
6.4339583e-06
0.00064672244
6.4747791e-06
0.00064485124
6.3712792e-06
0.00064259132
7.2490193e-06
6.2036901e-06
0.00091252406
1.0646975e-06
-0.00091253874
0.00091252959
1.3710818e-06
0.00091253357
1.5996169e-06
0.0009125221
1.7497202e-06
0.00091249792
1.8766165e-06
0.00091246131
2.0086862e-06
0.00091240935
2.1470997e-06
0.00091233952
2.2974867e-06
0.00091224763
2.4762755e-06
0.00091212289
2.7019466e-06
0.00091195644
3.042934e-06
0.00091171341
3.580988e-06
0.00091148911
4.7431628e-06
0.00091145754
6.8981854e-06
0.00091159811
9.4567444e-06
0.00091183067
1.1715314e-05
0.00091208676
1.3438533e-05
0.00091234848
1.4777746e-05
0.00091259961
1.5850717e-05
0.00091282599
1.6692276e-05
0.00091302824
1.7375751e-05
0.00091321054
1.7962728e-05
0.00091337556
1.8487476e-05
0.00091352968
1.8975425e-05
0.00091367338
1.9414401e-05
0.00091380476
1.9789036e-05
0.00091392213
2.009689e-05
0.00091402432
2.0351868e-05
0.00091411252
2.0579075e-05
0.00091418556
2.0783587e-05
0.00091423772
2.0955005e-05
0.00091426194
2.109917e-05
0.0009142482
2.1231853e-05
0.00091417994
2.1364712e-05
0.00091403181
2.1508431e-05
0.00091376697
2.1671886e-05
0.00091332889
2.1861267e-05
0.00091262094
2.2075047e-05
0.00091152582
2.2313929e-05
0.00090992949
2.2577954e-05
0.00090771123
2.2856588e-05
0.00090475021
2.3134317e-05
0.00090097945
2.3387543e-05
0.00089642365
2.3556927e-05
0.00089115324
2.3595662e-05
0.0008852569
2.349927e-05
0.00087886249
2.3241544e-05
0.00087214777
2.2853532e-05
0.00086529086
2.2380247e-05
0.00085844045
2.1811531e-05
0.00085172076
2.1163739e-05
0.00084523563
2.0450766e-05
0.00083900435
1.9752555e-05
0.00083297936
1.9139665e-05
0.00082715773
1.8573883e-05
0.00082156098
1.8020662e-05
0.00081620989
1.7473762e-05
0.00081112065
1.6944016e-05
0.00080627623
1.6455813e-05
0.0008016337
1.6020588e-05
0.00079716274
1.5625563e-05
0.00079284599
1.5260766e-05
0.00078867704
1.4904331e-05
0.00078464974
1.4549835e-05
0.00078075042
1.4210828e-05
0.00077696368
1.3889477e-05
0.0007732792
1.3589229e-05
0.00076969344
1.3313522e-05
0.00076620295
1.3054538e-05
0.00076280178
1.2804997e-05
0.00075948351
1.2560805e-05
0.00075624358
1.2321042e-05
0.00075307894
1.2087775e-05
0.00074998756
1.1857585e-05
0.00074696172
1.1636265e-05
0.00074399113
1.1435372e-05
0.00074107489
1.1249551e-05
0.00073821645
1.1065336e-05
0.00073541603
1.0881653e-05
0.00073267214
1.0699489e-05
0.00072998336
1.0519141e-05
0.00072734545
1.0344082e-05
0.00072475241
1.0181083e-05
0.00072220223
1.0031341e-05
0.00071969592
9.8838841e-06
0.00071723391
9.7364401e-06
0.00071481546
9.5918246e-06
0.00071243821
9.4484468e-06
0.00071009804
9.3139437e-06
0.00070779273
9.1912868e-06
0.00070552236
9.0712844e-06
0.00070328719
8.952118e-06
0.00070108512
8.839384e-06
0.0006989139
8.7305431e-06
0.00069676634
8.6495615e-06
0.00069464927
8.5510329e-06
0.00069252165
8.6024001e-06
0.00069047459
8.418335e-06
0.00068798175
9.741864e-06
8.0048252e-06
0.00094301476
1.085111e-06
-0.00094303517
0.00094301361
1.3722347e-06
0.00094301239
1.6008293e-06
0.00094299861
1.7635085e-06
0.00094297252
1.9027003e-06
0.00094293438
2.0468251e-06
0.0009428814
2.2000805e-06
0.00094281055
2.3683379e-06
0.0009427177
2.5691206e-06
0.00094259365
2.8260039e-06
0.00094243132
3.2052617e-06
0.0009422108
3.8015037e-06
0.00094200869
4.9452755e-06
0.0009419734
6.9334806e-06
0.00094210393
9.3262098e-06
0.00094232587
1.1493373e-05
0.00094257532
1.3189084e-05
0.00094283123
1.452184e-05
0.00094307876
1.5603182e-05
0.00094330444
1.6466595e-05
0.00094350826
1.7171931e-05
0.00094369414
1.7776852e-05
0.00094386454
1.8317072e-05
0.0009440251
1.8814864e-05
0.00094417679
1.9262714e-05
0.00094431837
1.9647456e-05
0.00094444788
1.9967376e-05
0.00094456458
2.0235165e-05
0.00094467062
2.0473042e-05
0.00094476702
2.0687186e-05
0.00094485283
2.0869195e-05
0.0009449281
2.1023902e-05
0.0009449935
2.1166448e-05
0.00094504963
2.1308581e-05
0.00094509719
2.1460874e-05
0.00094513629
2.1632787e-05
0.00094516597
2.183159e-05
0.00094518194
2.2059074e-05
0.00094517622
2.2319651e-05
0.00094513514
2.2619029e-05
0.00094503419
2.2957545e-05
0.00094483083
2.3337676e-05
0.00094445786
2.3760513e-05
0.00094379313
2.4221658e-05
0.00094267637
2.471242e-05
0.00094095558
2.5220058e-05
0.00093847289
2.5724232e-05
0.00093512703
2.6199394e-05
0.0009309242
2.6583081e-05
0.000925929
2.6806727e-05
0.00092023788
2.6854861e-05
0.00091398998
2.6698667e-05
0.00090738032
2.6362209e-05
0.00090061098
2.5909007e-05
0.00089384572
2.5339144e-05
0.00088720433
2.4662051e-05
0.00088078243
2.3895666e-05
0.0008745885
2.3137946e-05
0.00086856945
2.2474865e-05
0.00086273365
2.1856381e-05
0.0008571163
2.1242917e-05
0.00085174436
2.0632703e-05
0.00084661223
2.0036466e-05
0.0008416818
1.9480259e-05
0.00083692311
1.8969522e-05
0.00083232059
1.8492e-05
0.00082787714
1.8032678e-05
0.00082359992
1.7590739e-05
0.0008194752
1.7179257e-05
0.00081548056
1.6799639e-05
0.00081160138
1.643998e-05
0.00080783233
1.6090097e-05
0.00080416875
1.5751349e-05
0.00080060314
1.5423202e-05
0.00079712787
1.511153e-05
0.00079373809
1.4825154e-05
0.00079043015
1.4557489e-05
0.0007872005
1.4294987e-05
0.00078404503
1.403712e-05
0.00078096006
1.3784458e-05
0.00077794325
1.353596e-05
0.00077498644
1.3300891e-05
0.00077208192
1.3085597e-05
0.00076923098
1.2882287e-05
0.00076643569
1.2679171e-05
0.0007636955
1.2476629e-05
0.00076100875
1.2278574e-05
0.00075837073
1.2086474e-05
0.00075577589
1.1908779e-05
0.00075322336
1.1743814e-05
0.00075071386
1.1580783e-05
0.00074824744
1.1418545e-05
0.0007458208
1.1266018e-05
0.00074343044
1.1120902e-05
0.00074106902
1.1010987e-05
0.00073874449
1.0875565e-05
0.00073641298
1.0933906e-05
0.00073417723
1.0654084e-05
0.00073144322
1.2475877e-05
9.9480436e-06
0.00097452374
1.1101404e-06
-0.00097454877
0.0009745164
1.3795756e-06
0.00097451055
1.6066773e-06
0.00097449429
1.7797706e-06
0.00097446606
1.930923e-06
0.00097442601
2.0868825e-06
0.00097437158
2.2545071e-06
0.00097429951
2.4404042e-06
0.00097420588
2.6627531e-06
0.00097408305
2.9488328e-06
0.0009739258
3.3625144e-06
0.00097372511
4.0021926e-06
0.00097354393
5.1264559e-06
0.00097350715
6.9702564e-06
0.00097362767
9.2056974e-06
0.00097383989
1.1281151e-05
0.00097408342
1.2945553e-05
0.00097433506
1.4270195e-05
0.00097458105
1.53572e-05
0.00097480804
1.6239604e-05
0.00097501467
1.69653e-05
0.0009752035
1.7588023e-05
0.00097537731
1.8143263e-05
0.00097554061
1.8651563e-05
0.00097569438
1.9108938e-05
0.00097583763
1.9504206e-05
0.00097596899
1.9836019e-05
0.00097608812
2.0116037e-05
0.00097619701
2.0364149e-05
0.00097629683
2.0587366e-05
0.0009763867
2.077932e-05
0.00097646658
2.0944025e-05
0.00097653732
2.1095709e-05
0.00097659945
2.1246452e-05
0.00097665374
2.1406581e-05
0.00097670131
2.1585215e-05
0.00097674335
2.1789553e-05
0.00097678059
2.2021837e-05
0.00097681391
2.2286327e-05
0.00097684427
2.2588672e-05
0.00097687199
2.2929821e-05
0.00097689706
2.3312609e-05
0.00097691824
2.3739327e-05
0.00097693077
2.4209135e-05
0.00097692313
2.4720055e-05
0.00097687463
2.5268562e-05
0.00097674611
2.5852753e-05
0.00097647449
2.6471013e-05
0.00097593685
2.7120723e-05
0.00097494931
2.7794267e-05
0.00097332798
2.8476185e-05
0.00097088779
2.9138866e-05
0.00096750934
2.9740649e-05
0.00096322518
3.0193172e-05
0.00095813919
3.0425136e-05
0.00095237339
3.0427846e-05
0.00094609575
3.0173304e-05
0.00093951753
2.9716174e-05
0.00093283637
2.9156017e-05
0.0009261949
2.8497854e-05
0.00091969522
2.7742596e-05
0.00091341403
2.6913891e-05
0.00090731088
2.613962e-05
0.0009013258
2.5465336e-05
0.00089550389
2.4791431e-05
0.00088989491
2.4100985e-05
0.00088451564
2.3411945e-05
0.00087934401
2.2762366e-05
0.00087435611
2.2167159e-05
0.00086953915
2.1616598e-05
0.00086489041
2.1088722e-05
0.00086040647
2.057404e-05
0.00085607344
2.0084373e-05
0.00085187336
1.9623286e-05
0.00084780059
1.9184297e-05
0.00084385933
1.8766417e-05
0.00084004174
1.8375081e-05
0.00083633324
1.8003485e-05
0.00083272354
1.7646819e-05
0.00082920692
1.7301073e-05
0.00082577859
1.696429e-05
0.00082243327
1.6646214e-05
0.00081916609
1.6352783e-05
0.00081597292
1.6075452e-05
0.00081285102
1.5801073e-05
0.00080979726
1.5530383e-05
0.00080680865
1.5267193e-05
0.00080387696
1.5018163e-05
0.00080099593
1.4789803e-05
0.00079816764
1.4572111e-05
0.00079539283
1.4355591e-05
0.00079267067
1.4140706e-05
0.00078999595
1.3940738e-05
0.00078736374
1.3753111e-05
0.00078476723
1.3607493e-05
0.00078221565
1.3427148e-05
0.00077966198
1.348757e-05
0.00077721997
1.3096098e-05
0.00077422809
1.5467755e-05
1.2050432e-05
0.001007085
1.1388175e-06
-0.0010071137
0.0010070721
1.3924944e-06
0.0010070617
1.6170619e-06
0.0010070427
1.7988079e-06
0.0010070123
1.9613204e-06
0.0010069704
2.1287844e-06
0.0010069147
2.3102092e-06
0.0010068418
2.513253e-06
0.0010067481
2.7564647e-06
0.0010066274
3.0695401e-06
0.0010064763
3.5136072e-06
0.0010062935
4.1850488e-06
0.0010061316
5.288297e-06
0.0010060953
7.0065395e-06
0.0010062064
9.0946211e-06
0.0010064092
1.1078421e-05
0.0010066465
1.2708249e-05
0.0010068937
1.402296e-05
0.0010071378
1.51131e-05
0.001007366
1.6011356e-05
0.0010075754
1.6755967e-05
0.0010077676
1.7395799e-05
0.0010079453
1.7965546e-05
0.0010081122
1.848466e-05
0.0010082694
1.8951767e-05
0.0010084159
1.9357704e-05
0.0010085504
1.9701488e-05
0.0010086727
1.9993798e-05
0.0010087843
2.0252488e-05
0.0010088866
2.0485113e-05
0.0010089787
2.0687173e-05
0.0010090606
2.0862174e-05
0.0010091329
2.1023402e-05
0.0010091964
2.1182904e-05
0.0010092522
2.1350763e-05
0.0010093016
2.1535894e-05
0.0010093457
2.1745447e-05
0.0010093853
2.1982207e-05
0.0010094214
2.2250227e-05
0.001009455
2.2555066e-05
0.0010094865
2.289832e-05
0.0010095165
2.3282575e-05
0.0010095457
2.3710155e-05
0.0010095745
2.4180312e-05
0.0010096034
2.4691159e-05
0.0010096324
2.5239641e-05
0.001009661
2.582407e-05
0.0010096883
2.6443733e-05
0.0010097101
2.7098925e-05
0.0010097147
2.7789672e-05
0.0010096788
2.8512105e-05
0.0010095569
2.9260765e-05
0.00100927
3.0027587e-05
0.0010086602
3.0802888e-05
0.0010075107
3.1574629e-05
0.0010056186
3.2319998e-05
0.0010027798
3.3012107e-05
0.00099892724
3.356873e-05
0.00099418274
3.3900519e-05
0.00098870033
3.3980263e-05
0.00098264577
3.3797157e-05
0.00097622219
3.3337466e-05
0.00096963955
3.2722261e-05
0.00096305125
3.2053638e-05
0.00095654993
3.1292752e-05
0.00095022139
3.0429522e-05
0.00094404468
2.9588656e-05
0.00093795446
2.885258e-05
0.00093199441
2.8127212e-05
0.00092623224
2.7378775e-05
0.00092069269
2.6628271e-05
0.00091535041
2.5916314e-05
0.00091018182
2.5252965e-05
0.00090518
2.462511e-05
0.0009003497
2.4014591e-05
0.00089569367
2.3422451e-05
0.00089119948
2.2869271e-05
0.00088685124
2.2351728e-05
0.00088263956
2.1858499e-05
0.00087855804
2.1382592e-05
0.00087459628
2.092605e-05
0.00087075023
2.0492265e-05
0.00086701922
2.0083792e-05
0.00086339339
1.9701281e-05
0.00085986265
1.933181e-05
0.00085641973
1.8973308e-05
0.00085305911
1.8627815e-05
0.00084977664
1.8300631e-05
0.00084656786
1.7998579e-05
0.00084342844
1.7711536e-05
0.00084035549
1.7428537e-05
0.00083734649
1.7149708e-05
0.00083439347
1.6893762e-05
0.00083149034
1.6656233e-05
0.00082863197
1.6465867e-05
0.00082582867
1.6230444e-05
0.00082302951
1.6286733e-05
0.00082035906
1.5766545e-05
0.00081708591
1.8740905e-05
1.4331308e-05
0.0010407338
1.1704229e-06
-0.0010407654
0.0010407158
1.4104135e-06
0.001040701
1.6318609e-06
0.0010406791
1.8207038e-06
0.0010406467
1.9937932e-06
0.0010406031
2.1724e-06
0.0010405462
2.3670782e-06
0.0010404728
2.58665e-06
0.0010403794
2.8498346e-06
0.0010402613
3.1876064e-06
0.001040117
3.6580014e-06
0.0010399501
4.3519383e-06
0.0010398058
5.4325393e-06
0.0010397715
7.0408319e-06
0.0010398739
8.9922099e-06
0.0010400673
1.0885098e-05
0.0010402981
1.2477401e-05
0.0010405409
1.37802e-05
0.0010407828
1.4871127e-05
0.0010410119
1.5782255e-05
0.0010412237
1.6544192e-05
0.0010414192
1.7200284e-05
0.0010416008
1.7784021e-05
0.0010417714
1.8314064e-05
0.0010419321
1.8791006e-05
0.0010420822
1.9207637e-05
0.0010422203
1.9563342e-05
0.0010423462
1.9867902e-05
0.0010424613
2.0137387e-05
0.0010425668
2.0379684e-05
0.001042662
2.0591967e-05
0.0010427467
2.0777434e-05
0.0010428217
2.094844e-05
0.0010428877
2.1116911e-05
0.0010429457
2.1292723e-05
0.001042997
2.1484591e-05
0.0010430428
2.1699611e-05
0.001043084
2.1941058e-05
0.0010431213
2.2212917e-05
0.0010431558
2.2520553e-05
0.0010431882
2.2865966e-05
0.0010432191
2.3251613e-05
0.0010432495
2.3679778e-05
0.0010432799
2.4149945e-05
0.0010433107
2.4660277e-05
0.0010433424
2.5208002e-05
0.0010433748
2.5791658e-05
0.0010434079
2.6410675e-05
0.0010434416
2.706517e-05
0.0010434764
2.7754905e-05
0.0010435121
2.8476424e-05
0.0010435482
2.9224673e-05
0.0010435831
2.9992664e-05
0.0010436103
3.0775682e-05
0.0010436128
3.1572085e-05
0.0010435551
3.237772e-05
0.0010433734
3.3193768e-05
0.0010429255
3.4016706e-05
0.0010419857
3.4840303e-05
0.0010403177
3.5648289e-05
0.0010377052
3.640964e-05
0.0010340069
3.7035757e-05
0.0010293188
3.7410347e-05
0.001023874
3.7498428e-05
0.0010178625
3.7304231e-05
0.001011488
3.6804e-05
0.0010049522
3.6124455e-05
0.00099839746
3.5407368e-05
0.00099190613
3.4618545e-05
0.00098555869
3.3726207e-05
0.00097933221
3.285476e-05
0.0009731671
3.2081422e-05
0.00096711929
3.1300769e-05
0.00096125955
3.0484857e-05
0.00095560413
2.9670004e-05
0.00095012798
2.8898604e-05
0.00094482188
2.817537e-05
0.0009396918
2.748181e-05
0.00093474101
2.6809286e-05
0.00092996087
2.6162738e-05
0.0009253353
2.5551612e-05
0.0009208574
2.4970173e-05
0.00091652847
2.441272e-05
0.00091234023
2.3889516e-05
0.00090827958
2.3392466e-05
0.00090433695
2.2915933e-05
0.00090050395
2.2460811e-05
0.00089677944
2.2025149e-05
0.00089316073
2.161729e-05
0.00088963631
2.1235954e-05
0.00088619807
2.086677e-05
0.00088283999
2.050779e-05
0.000879556
2.017775e-05
0.00087634249
1.986975e-05
0.00087318984
1.9618511e-05
0.00087010491
1.931538e-05
0.00086703152
1.9360118e-05
0.00086410549
1.8692573e-05
0.00086052138
2.2325022e-05
1.6812973e-05
0.0010755062
1.2044411e-06
-0.0010755402
0.0010754839
1.4327653e-06
0.0010754649
1.6508642e-06
0.0010754401
1.8454675e-06
0.0010754056
2.0282885e-06
0.0010753604
2.217642e-06
0.0010753024
2.4250175e-06
0.0010752287
2.6603582e-06
0.0010751361
2.942412e-06
0.0010750213
3.3024944e-06
0.001074884
3.7952415e-06
0.0010747317
4.5042516e-06
0.0010746036
5.5606854e-06
0.0010745724
7.0719521e-06
0.0010746672
8.8974848e-06
0.0010748513
1.0700988e-05
0.0010750755
1.2253127e-05
0.0010753138
1.3541954e-05
0.0010755534
1.4631514e-05
0.0010757829
1.5552733e-05
0.0010759969
1.6330247e-05
0.0010761955
1.7001679e-05
0.0010763806
1.7598876e-05
0.0010765548
1.8139852e-05
0.0010767191
1.8626715e-05
0.0010768727
1.9054049e-05
0.0010770144
1.9421619e-05
0.0010771439
1.9738381e-05
0.0010772625
2.0018846e-05
0.0010773711
2.0271058e-05
0.0010774694
2.0493665e-05
0.0010775571
2.0689712e-05
0.0010776349
2.0870661e-05
0.0010777036
2.1048246e-05
0.0010777641
2.1232173e-05
0.0010778178
2.1430959e-05
0.0010778657
2.1651649e-05
0.0010779088
2.1897935e-05
0.001077948
2.2173788e-05
0.0010779841
2.248439e-05
0.001078018
2.2832085e-05
0.0010780504
2.3219252e-05
0.001078082
2.3648129e-05
0.0010781136
2.4118426e-05
0.0010781454
2.4628454e-05
0.0010781777
2.5175666e-05
0.0010782107
2.5758625e-05
0.0010782446
2.6376775e-05
0.0010782797
2.7030144e-05
0.0010783162
2.7718353e-05
0.0010783547
2.8437989e-05
0.001078395
2.9184352e-05
0.0010784365
2.9951169e-05
0.0010784786
3.0733582e-05
0.0010785211
3.1529595e-05
0.0010785631
3.2335674e-05
0.0010786038
3.3153048e-05
0.0010786393
3.3981245e-05
0.0010786559
3.4823675e-05
0.0010786201
3.568407e-05
0.001078471
3.6558808e-05
0.001078061
3.744571e-05
0.0010771404
3.833096e-05
0.0010754433
3.919554e-05
0.0010727363
4.0011219e-05
0.0010688843
4.0655994e-05
0.0010640052
4.100353e-05
0.0010583788
4.1033802e-05
0.0010522436
4.0753784e-05
0.001045813
4.0156721e-05
0.0010392687
3.9399069e-05
0.0010327234
3.8626716e-05
0.0010262445
3.7779674e-05
0.0010198915
3.6837889e-05
0.0010136179
3.5943641e-05
0.0010073831
3.5133395e-05
0.0010012743
3.4284159e-05
0.00099534923
3.3406875e-05
0.00098960758
3.2550929e-05
0.00098403631
3.1734006e-05
0.00097863681
3.0951114e-05
0.00097341628
3.0190707e-05
0.0009683757
2.9453301e-05
0.00096350415
2.8761061e-05
0.00095879238
2.8104237e-05
0.00095423598
2.7472332e-05
0.00094982437
2.687242e-05
0.00094554969
2.6299834e-05
0.00094140895
2.5758028e-05
0.00093739363
2.5251276e-05
0.00093349307
2.476733e-05
0.00092969718
2.4303678e-05
0.0009260019
2.3873036e-05
0.00092240608
2.346557e-05
0.00091889454
2.3130043e-05
0.00091546901
2.2740914e-05
0.00091206693
2.2762198e-05
0.00090884254
2.1916967e-05
0.00090491038
2.6257181e-05
1.9521537e-05
0.00111144
1.2404952e-06
-0.0011114761
0.0011114137
1.4590145e-06
0.0011113908
1.6738117e-06
0.0011113632
1.8730728e-06
0.0011113267
2.0647603e-06
0.00111128
2.264395e-06
0.0011112211
2.4838733e-06
0.0011111474
2.7341073e-06
0.001111056
3.0337582e-06
0.0011109448
3.4137462e-06
0.0011108149
3.9250603e-06
0.001110676
4.6431775e-06
0.0011105625
5.6741922e-06
0.0011105353
7.0991522e-06
0.0011106233
8.8094543e-06
0.0011107985
1.052585e-05
0.0011110161
1.2035548e-05
0.0011112497
1.3308315e-05
0.0011114867
1.43945e-05
0.0011117162
1.5323201e-05
0.0011119321
1.6114427e-05
0.0011121336
1.6800194e-05
0.0011123222
1.7410279e-05
0.0011124999
1.7962094e-05
0.0011126677
1.8458922e-05
0.0011128248
1.8896942e-05
0.0011129701
1.9276302e-05
0.0011131033
1.9605212e-05
0.0011132253
1.9896807e-05
0.0011133372
2.0159159e-05
0.0011134387
2.039219e-05
0.0011135295
2.0598918e-05
0.0011136102
2.078997e-05
0.0011136816
2.0976819e-05
0.0011137448
2.1169022e-05
0.0011138008
2.1374909e-05
0.001113851
2.1601464e-05
0.0011138962
2.1852742e-05
0.0011139373
2.213273e-05
0.0011139752
2.2446444e-05
0.0011140108
2.2796521e-05
0.0011140447
2.3185303e-05
0.0011140779
2.3614985e-05
0.0011141108
2.4085483e-05
0.001114144
2.4595271e-05
0.0011141776
2.514202e-05
0.0011142119
2.5724332e-05
0.001114247
2.6341659e-05
0.0011142832
2.6993953e-05
0.0011143208
2.7680755e-05
0.00111436
2.8398812e-05
0.0011144008
2.914352e-05
0.0011144431
2.9908877e-05
0.0011144866
3.069009e-05
0.0011145313
3.1484964e-05
0.0011145768
3.2290129e-05
0.001114623
3.3106886e-05
0.0011146688
3.3935415e-05
0.0011147141
3.4778335e-05
0.0011147589
3.5639293e-05
0.0011148022
3.6515469e-05
0.0011148411
3.7406836e-05
0.0011148611
3.8310944e-05
0.0011148236
3.9233108e-05
0.0011146584
4.017634e-05