/*--------------------------------*- C++ -*----------------------------------*\
  =========                 |
  \\      /  F ield         | OpenFOAM: The Open Source CFD Toolbox
   \\    /   O peration     | Website:  https://openfoam.org
    \\  /    A nd           | Version:  12
     \\/     M anipulation  |
\*---------------------------------------------------------------------------*/
FoamFile
{
    format      ascii;
    class       volVectorField;
    location    "600";
    object      U;
}
// * * * * * * * * * * * * * * * * * * * * * * * * * * * * * * * * * * * * * //

dimensions      [0 1 -1 0 0 0 0];

internalField   nonuniform List<vector> 
13056
(
(1 2.2880459e-10 3.7009062e-24)
(0.99998279 7.895218e-10 0)
(0.99994563 1.3507138e-09 0)
(0.99989947 1.8048212e-09 0)
(0.99984719 2.2982612e-09 0)
(0.99978889 2.890057e-09 0)
(0.99972448 3.599264e-09 0)
(0.99965395 4.4512632e-09 0)
(0.99957706 5.4867255e-09 0)
(0.99949328 6.7577635e-09 0)
(0.99940188 8.3287453e-09 0)
(0.99930187 1.0283959e-08 0)
(0.99919193 1.273812e-08 0)
(0.99907029 1.585835e-08 0)
(0.9989344 1.9876308e-08 0)
(0.99878082 2.5209307e-08 0)
(0.99860357 3.2315782e-08 0)
(0.99839624 4.2881238e-08 0)
(0.99813785 5.6816908e-08 0)
(0.99782688 8.6593302e-08 0)
(0.99733298 1.164794e-07 0)
(0.99680021 3.5753614e-07 0)
(0.99435762 2.9179334e-07 -4.6277646e-21)
(0.99439234 0.00012176791 1.434447e-16)
(0.026221509 0.00012485728 0)
(0.012855973 1.2822331e-06 -5.0144856e-17)
(0.012514271 8.4601237e-09 1.4901827e-20)
(0.012519651 5.9560696e-09 6.309159e-21)
(0.012265162 1.4045372e-08 0)
(0.011942362 1.5133761e-08 0)
(0.01164138 1.3497017e-08 0)
(0.011381787 1.1536086e-08 0)
(0.011156967 9.9639362e-09 0)
(0.010958957 8.7415234e-09 0)
(0.010782307 7.7561525e-09 0)
(0.010623112 7.0004684e-09 0)
(0.010475903 6.413075e-09 0)
(0.010339338 5.8920445e-09 0)
(0.010212244 5.4232388e-09 0)
(0.010093872 4.9952688e-09 0)
(0.0099834703 4.614516e-09 0)
(0.0098799714 4.2811835e-09 0)
(0.0097825584 3.9840482e-09 0)
(0.0096906217 3.7205735e-09 0)
(0.0096034389 3.4856188e-09 0)
(0.0095205679 3.2731202e-09 0)
(0.0094415917 3.078385e-09 0)
(0.0093662243 2.8993402e-09 0)
(0.0092941397 2.7379493e-09 0)
(0.0092249773 2.5876091e-09 0)
(0.0091586471 2.4482685e-09 0)
(0.0090948149 2.3240466e-09 0)
(0.0090331924 2.2071841e-09 0)
(0.0089737617 2.0970239e-09 0)
(0.0089162987 1.997818e-09 0)
(0.0088605677 1.9045897e-09 0)
(0.008806555 1.8153653e-09 0)
(0.0087541398 1.7341512e-09 0)
(0.0087030905 1.6594592e-09 0)
(0.0086533586 1.5867035e-09 0)
(0.0086049376 1.5180259e-09 0)
(0.0085576712 1.4558178e-09 0)
(0.0085114153 1.3969549e-09 0)
(0.008466176 1.3411345e-09 0)
(0.0084217993 1.2900222e-09 0)
(0.0083781981 1.2414776e-09 0)
(0.0083353716 1.193634e-09 0)
(0.0082933314 1.1466109e-09 0)
(0.0082520599 1.1020479e-09 0)
(0.0082114622 1.0607978e-09 0)
(0.0081714689 1.0213343e-09 0)
(0.00813207 9.8297053e-10 0)
(0.0080932408 9.4633319e-10 0)
(0.008054922 9.1183362e-10 0)
(0.0080170652 8.7888898e-10 0)
(0.0079796443 8.4716821e-10 0)
(0.0079426315 8.1641364e-10 0)
(0.0079060098 7.8695211e-10 0)
(0.0078697314 7.5897095e-10 0)
(0.0078337698 7.3187058e-10 0)
(0.0077981077 7.0569414e-10 0)
(0.0077627137 6.8055638e-10 0)
(0.0077275568 6.5629872e-10 0)
(0.0076926285 6.3279952e-10 0)
(0.0076578999 6.1033143e-10 0)
(0.0076233285 5.8857154e-10 0)
(0.0075889087 5.6733407e-10 0)
(0.0075546255 5.4683808e-10 0)
(0.0075204549 5.2703063e-10 0)
(0.0074863682 5.0792183e-10 0)
(0.0074523385 4.8935504e-10 0)
(0.0074183545 4.7119012e-10 0)
(0.0073844132 4.5358682e-10 0)
(0.0073504738 4.3677896e-10 0)
(0.0073164914 4.2048016e-10 0)
(0.0072824586 4.0439811e-10 0)
(0.0072483819 3.8875375e-10 0)
(0.0072142188 3.7396693e-10 0)
(0.0071798876 3.5968251e-10 0)
(0.0071453991 3.4538332e-10 0)
(0.0071107713 3.3137553e-10 0)
(0.0070759599 3.1798236e-10 0)
(0.0070409046 3.0503497e-10 0)
(0.0070055854 2.9222851e-10 0)
(0.0069700116 2.7973083e-10 0)
(0.0069341224 2.6782099e-10 0)
(0.0068978439 2.562235e-10 0)
(0.0068611731 2.4474128e-10 0)
(0.0068240908 2.3362627e-10 0)
(0.0067865165 2.2292424e-10 0)
(0.006748397 2.1237523e-10 0)
(0.0067097306 2.0202899e-10 0)
(0.0066704417 1.9219745e-10 0)
(0.0066312892 1.8285452e-10 0)
(0.0065935732 1.7411209e-10 0)
(0.0065576178 1.6648381e-10 0)
(0.0065231314 1.5944859e-10 0)
(0.0064901516 1.5251162e-10 0)
(0.006458599 1.4607454e-10 0)
(0.0064283437 1.4023079e-10 0)
(0.0063992647 1.3483351e-10 0)
(0.0063712921 1.2971401e-10 0)
(0.0063443783 1.2489456e-10 0)
(0.0063184458 1.204764e-10 0)
(0.006293402 1.1642754e-10 0)
(0.006269183 1.1259584e-10 0)
(0.0062457596 1.0892989e-10 0)
(0.0062230916 1.054953e-10 0)
(0.006201123 1.023957e-10 0)
(0.0061797667 9.9547066e-11 0)
(0.006159006 9.7202255e-11 0)
(0.0061386381 9.4600501e-11 0)
(0.006118996 9.4439773e-11 0)
(0.0060986676 3.4185327e-10 0)
(0.0060807145 1.0933796e-10 1.5017725e-22)
(0.0060515183 2.6413565e-10 0)
(1 6.8998509e-10 0)
(0.99998279 2.381699e-09 0)
(0.99994558 4.0759682e-09 0)
(0.99989934 5.4475588e-09 0)
(0.99984695 6.9376013e-09 0)
(0.99978852 8.7241654e-09 0)
(0.99972398 1.0864866e-08 0)
(0.9996533 1.3436309e-08 0)
(0.99957625 1.6561155e-08 0)
(0.99949231 2.0396559e-08 0)
(0.99940074 2.5136628e-08 0)
(0.99930055 3.1035524e-08 0)
(0.99919044 3.843915e-08 0)
(0.99906862 4.7851405e-08 0)
(0.99893253 5.9970755e-08 0)
(0.99877876 7.605543e-08 0)
(0.99860131 9.7487485e-08 0)
(0.99839378 1.293488e-07 0)
(0.99813517 1.7137054e-07 0)
(0.99782398 2.6115124e-07 0)
(0.99732981 3.5123492e-07 0)
(0.99679684 1.0780218e-06 0)
(0.99435358 8.8025007e-07 1.7109221e-20)
(0.99438767 0.00036125529 -1.209254e-20)
(0.076602275 0.00036850799 0)
(0.03876089 7.2540082e-06 0)
(0.037729707 1.7662508e-07 2.3144363e-20)
(0.037745923 1.2770695e-07 0)
(0.036978234 2.9561934e-07 -4.5467309e-21)
(0.036004131 3.1697487e-07 0)
(0.035096954 2.8218362e-07 0)
(0.034314564 2.414819e-07 0)
(0.033636806 2.0871843e-07 0)
(0.033039827 1.8308638e-07 0)
(0.032507269 1.6242281e-07 0)
(0.032027341 1.4660503e-07 0)
(0.031583542 1.3430398e-07 0)
(0.031171831 1.2339497e-07 0)
(0.030788672 1.1357173e-07 0)
(0.030431811 1.0461185e-07 0)
(0.030098975 9.6639806e-08 0)
(0.029786949 8.9659234e-08 0)
(0.029493269 8.3439326e-08 0)
(0.029216099 7.7918428e-08 0)
(0.02895326 7.3002623e-08 0)
(0.028703421 6.8547156e-08 0)
(0.028465324 6.447138e-08 0)
(0.028238104 6.0726908e-08 0)
(0.028020782 5.7337435e-08 0)
(0.027812273 5.4194276e-08 0)
(0.027612297 5.1280773e-08 0)
(0.027419854 4.8669817e-08 0)
(0.027234075 4.6227054e-08 0)
(0.0270549 4.3924344e-08 0)
(0.026881658 4.184005e-08 0)
(0.02671364 3.9888344e-08 0)
(0.0265508 3.8024009e-08 0)
(0.026392775 3.6322061e-08 0)
(0.02623887 3.4752601e-08 0)
(0.026088938 3.3232603e-08 0)
(0.025942955 3.1797759e-08 0)
(0.025800452 3.0491243e-08 0)
(0.025660999 2.9255513e-08 0)
(0.025524611 2.8089982e-08 0)
(0.02539082 2.7022109e-08 0)
(0.025259367 2.6001961e-08 0)
(0.025130254 2.4998061e-08 0)
(0.02500351 2.4015566e-08 0)
(0.024879081 2.3084616e-08 0)
(0.024756683 2.2218358e-08 0)
(0.02463611 2.1390477e-08 0)
(0.024517329 2.0587803e-08 0)
(0.024400264 1.9822369e-08 0)
(0.024284737 1.9099214e-08 0)
(0.024170603 1.8408045e-08 0)
(0.024057786 1.774282e-08 0)
(0.023946198 1.7100322e-08 0)
(0.023835787 1.6484437e-08 0)
(0.023726411 1.5896615e-08 0)
(0.023617993 1.5328538e-08 0)
(0.023510477 1.4780783e-08 0)
(0.023403769 1.425529e-08 0)
(0.023297774 1.3746825e-08 0)
(0.02319247 1.3254062e-08 0)
(0.023087768 1.278292e-08 0)
(0.022983541 1.2328045e-08 0)
(0.022879768 1.1883941e-08 0)
(0.022776408 1.1453655e-08 0)
(0.022673388 1.1038547e-08 0)
(0.022570622 1.0638537e-08 0)
(0.022468026 1.0250178e-08 0)
(0.022365568 9.8695449e-09 0)
(0.022263239 9.5004828e-09 0)
(0.022160917 9.1482519e-09 0)
(0.022058464 8.8073522e-09 0)
(0.021955859 8.4707289e-09 0)
(0.021853121 8.1426256e-09 0)
(0.021750124 7.8327194e-09 0)
(0.02164662 7.533845e-09 0)
(0.021542641 7.2345715e-09 0)
(0.021438241 6.9409028e-09 0)
(0.021333289 6.6602223e-09 0)
(0.021227602 6.3892569e-09 0)
(0.021121119 6.1211704e-09 0)
(0.021013867 5.8592368e-09 0)
(0.020905666 5.609653e-09 0)
(0.020796291 5.3669338e-09 0)
(0.020685732 5.1265282e-09 0)
(0.020573933 4.8935357e-09 0)
(0.020460651 4.6694154e-09 0)
(0.020345725 4.4485619e-09 0)
(0.020229149 4.2318102e-09 0)
(0.020110698 4.0258393e-09 0)
(0.019992658 3.830234e-09 0)
(0.019878948 3.6471225e-09 0)
(0.019770546 3.4872492e-09 0)
(0.019666573 3.3399324e-09 0)
(0.019567143 3.1946895e-09 0)
(0.019472015 3.0598146e-09 0)
(0.019380799 2.9373656e-09 0)
(0.019293129 2.8243576e-09 0)
(0.019208795 2.7171642e-09 0)
(0.019127653 2.6161711e-09 0)
(0.019049469 2.523595e-09 0)
(0.018973965 2.4387727e-09 0)
(0.018900948 2.3585512e-09 0)
(0.018830329 2.2817655e-09 0)
(0.018761987 2.2097504e-09 0)
(0.018695755 2.1448002e-09 0)
(0.01863137 2.0850199e-09 0)
(0.018568779 2.0360331e-09 0)
(0.018507376 1.980803e-09 0)
(0.018448157 1.978352e-09 0)
(0.018386885 1.9244305e-09 0)
(0.018332758 2.3267154e-09 -2.3386953e-22)
(0.018244735 1.4778441e-09 4.2406014e-23)
(1 1.1616297e-09 0)
(0.99998278 4.0108912e-09 0)
(0.99994552 6.8661542e-09 0)
(0.99989919 9.1785789e-09 0)
(0.99984669 1.1690204e-08 0)
(0.99978812 1.4700919e-08 0)
(0.99972343 1.830794e-08 0)
(0.99965259 2.2640336e-08 0)
(0.99957537 2.7904642e-08 0)
(0.99949125 3.4365439e-08 0)
(0.99939949 4.2349516e-08 0)
(0.99929912 5.2284752e-08 0)
(0.9991888 6.4753436e-08 0)
(0.99906678 8.0603818e-08 0)
(0.99893049 1.0101162e-07 0)
(0.9987765 1.2809484e-07 0)
(0.99859883 1.641797e-07 0)
(0.99839108 2.1782049e-07 0)
(0.99813223 2.885632e-07 0)
(0.9978208 4.3969587e-07 0)
(0.99732633 5.913667e-07 0)
(0.99679315 1.8146019e-06 0)
(0.99434921 1.482971e-06 -9.034305e-21)
(0.99438273 0.00059143242 5.2324626e-54)
(0.12568409 0.00061029433 -8.1690161e-54)
(0.065247117 1.9801019e-05 0)
(0.063508867 5.12904e-07 -1.2328525e-20)
(0.063534654 3.7138027e-07 0)
(0.06224176 8.5881547e-07 0)
(0.060600955 9.2034218e-07 0)
(0.059074384 8.1896733e-07 0)
(0.05775785 7.0093449e-07 0)
(0.05661714 6.0591657e-07 0)
(0.055612327 5.3150703e-07 0)
(0.054715973 4.7150964e-07 0)
(0.053908208 4.2559336e-07 0)
(0.053161244 3.8988593e-07 0)
(0.052468286 3.5821814e-07 0)
(0.051823386 3.2970003e-07 0)
(0.051222748 3.0369055e-07 0)
(0.050662545 2.8054887e-07 0)
(0.050137366 2.602849e-07 0)
(0.049643063 2.4222939e-07 0)
(0.049176549 2.262018e-07 0)
(0.048734154 2.1193228e-07 0)
(0.048313638 1.9899666e-07 0)
(0.04791289 1.8716557e-07 0)
(0.047530441 1.7629663e-07 0)
(0.047164657 1.6645419e-07 0)
(0.046813707 1.5733112e-07 0)
(0.046477114 1.4887453e-07 0)
(0.046153202 1.4129203e-07 0)
(0.045840511 1.3420192e-07 0)
(0.045538927 1.2751854e-07 0)
(0.045247331 1.2146562e-07 0)
(0.044964534 1.1579979e-07 0)
(0.044690447 1.1038915e-07 0)
(0.044424461 1.0544778e-07 0)
(0.044165416 1.0088978e-07 0)
(0.043913058 9.6478398e-08 0)
(0.04366734 9.2314291e-08 0)
(0.043427481 8.852e-08 0)
(0.043192761 8.4931428e-08 0)
(0.042963199 8.1549136e-08 0)
(0.042738002 7.8450012e-08 0)
(0.042516742 7.5487152e-08 0)
(0.042299424 7.2571905e-08 0)
(0.042086094 6.9720577e-08 0)
(0.041876656 6.701884e-08 0)
(0.041670637 6.4503192e-08 0)
(0.041467692 6.2099102e-08 0)
(0.041267764 5.9769221e-08 0)
(0.041070722 5.7547824e-08 0)
(0.040876266 5.5448258e-08 0)
(0.040684159 5.3441127e-08 0)
(0.040494269 5.1509616e-08 0)
(0.040306447 4.9645028e-08 0)
(0.040120603 4.7857472e-08 0)
(0.039936502 4.6150333e-08 0)
(0.039754015 4.4500839e-08 0)
(0.039573048 4.2910885e-08 0)
(0.039393437 4.1385709e-08 0)
(0.039215027 3.9909456e-08 0)
(0.039037779 3.8478592e-08 0)
(0.038861549 3.7110628e-08 0)
(0.038686115 3.5790423e-08 0)
(0.038511445 3.4501393e-08 0)
(0.038337469 3.3251874e-08 0)
(0.038164068 3.2046597e-08 0)
(0.037991094 3.088543e-08 0)
(0.037818406 2.9758176e-08 0)
(0.037645947 2.8653093e-08 0)
(0.037473708 2.7581482e-08 0)
(0.037301481 2.6558845e-08 0)
(0.037129034 2.556935e-08 0)
(0.036956328 2.4592167e-08 0)
(0.036783401 2.3639467e-08 0)
(0.036610037 2.2739677e-08 0)
(0.03643582 2.1872122e-08 0)
(0.036260802 2.1003368e-08 0)
(0.036085077 2.0150697e-08 0)
(0.035908423 1.9335767e-08 0)
(0.035730531 1.8549191e-08 0)
(0.035551298 1.7770948e-08 0)
(0.035370772 1.7010443e-08 0)
(0.035188648 1.6285808e-08 0)
(0.035004548 1.558122e-08 0)
(0.034818455 1.4883311e-08 0)
(0.034630275 1.420683e-08 0)
(0.0344396 1.3556173e-08 0)
(0.034246156 1.2915029e-08 0)
(0.034049936 1.2285743e-08 0)
(0.033850559 1.1687761e-08 0)
(0.033651873 1.1119915e-08 0)
(0.033460476 1.0588304e-08 0)
(0.033278015 1.0124128e-08 0)
(0.033103008 9.6964526e-09 0)
(0.032935647 9.2748081e-09 0)
(0.032775527 8.8832246e-09 0)
(0.032621993 8.5277143e-09 0)
(0.032474427 8.1996476e-09 0)
(0.032332475 7.8884605e-09 0)
(0.032195896 7.5952431e-09 0)
(0.032064298 7.3264608e-09 0)
(0.031937209 7.0802026e-09 0)
(0.031814307 6.8473202e-09 0)
(0.031695441 6.6243969e-09 0)
(0.031580409 6.4152965e-09 0)
(0.031468927 6.2267097e-09 0)
(0.031360555 6.0531254e-09 0)
(0.031255204 5.910878e-09 0)
(0.031151853 5.7504309e-09 0)
(0.031052177 5.7432858e-09 0)
(0.030949067 5.4959252e-09 0)
(0.03085796 6.7620309e-09 0)
(0.030709798 4.2116517e-09 0)
(1 1.6508182e-09 7.9318639e-24)
(0.99998277 5.70182e-09 0)
(0.99994546 9.7640184e-09 0)
(0.99989904 1.3055464e-08 0)
(0.9998464 1.6629661e-08 0)
(0.99978768 2.0912939e-08 0)
(0.99972282 2.6043797e-08 0)
(0.99965181 3.2205824e-08 0)
(0.99957439 3.9692573e-08 0)
(0.99949008 4.8880061e-08 0)
(0.99939812 6.0232699e-08 0)
(0.99929753 7.4358535e-08 0)
(0.999187 9.2085007e-08 0)
(0.99906475 1.1461746e-07 0)
(0.99892824 1.4362649e-07 0)
(0.99877402 1.8212167e-07 0)
(0.99859611 2.3340805e-07 0)
(0.9983881 3.0964082e-07 0)
(0.998129 4.1017238e-07 0)
(0.9978173 6.2493182e-07 0)
(0.99732252 8.4046138e-07 0)
(0.9967891 2.5784725e-06 0)
(0.99434447 2.1082881e-06 0)
(0.99437744 0.00081661267 -2.7123396e-54)
(0.17411059 0.00085523778 4.2543884e-54)
(0.092704002 3.9307217e-05 0)
(0.090235747 1.056882e-06 0)
(0.090266501 7.6640528e-07 0)
(0.088428386 1.7698212e-06 0)
(0.086095787 1.8958245e-06 0)
(0.083927721 1.6863842e-06 0)
(0.082058008 1.4434704e-06 0)
(0.080437638 1.2479352e-06 0)
(0.079010217 1.0946921e-06 0)
(0.077736907 9.7110756e-07 0)
(0.076589445 8.7654431e-07 0)
(0.075528338 8.0300764e-07 0)
(0.074543944 7.3778734e-07 0)
(0.073627818 6.7905101e-07 0)
(0.072774569 6.2548411e-07 0)
(0.071978753 5.7782414e-07 0)
(0.071232688 5.3609023e-07 0)
(0.070530481 4.9890472e-07 0)
(0.069867748 4.6589437e-07 0)
(0.069239275 4.3650639e-07 0)
(0.068641883 4.098626e-07 0)
(0.068072574 3.8549679e-07 0)
(0.067529254 3.631128e-07 0)
(0.06700961 3.4283769e-07 0)
(0.066511043 3.2404995e-07 0)
(0.066032859 3.0663456e-07 0)
(0.065572697 2.910138e-07 0)
(0.065128478 2.7641263e-07 0)
(0.064700029 2.6264951e-07 0)
(0.064285771 2.5017984e-07 0)
(0.063884017 2.3851032e-07 0)
(0.063494632 2.2736879e-07 0)
(0.063116751 2.1719056e-07 0)
(0.062748738 2.0780022e-07 0)
(0.062390226 1.9871618e-07 0)
(0.062041138 1.9014159e-07 0)
(0.061700374 1.8232466e-07 0)
(0.061366917 1.7493173e-07 0)
(0.061040787 1.6796735e-07 0)
(0.060720851 1.6158571e-07 0)
(0.060406508 1.5548134e-07 0)
(0.060097772 1.4947562e-07 0)
(0.059794701 1.4360427e-07 0)
(0.059497152 1.3804092e-07 0)
(0.05920446 1.3285835e-07 0)
(0.058916141 1.2790564e-07 0)
(0.058632109 1.2310741e-07 0)
(0.058352171 1.1853315e-07 0)
(0.058075906 1.142085e-07 0)
(0.05780298 1.1007351e-07 0)
(0.057533206 1.060948e-07 0)
(0.05726637 1.0225532e-07 0)
(0.057002338 9.857414e-08 0)
(0.056740784 9.5057066e-08 0)
(0.056481526 9.1659121e-08 0)
(0.056224427 8.8384691e-08 0)
(0.055969252 8.5243881e-08 0)
(0.055715781 8.2203095e-08 0)
(0.055463964 7.9255444e-08 0)
(0.055213594 7.6437595e-08 0)
(0.054964354 7.3718905e-08 0)
(0.054716197 7.1064265e-08 0)
(0.054469025 6.8490134e-08 0)
(0.054222674 6.6007344e-08 0)
(0.053976928 6.3615863e-08 0)
(0.053731586 6.1294352e-08 0)
(0.05348657 5.9018129e-08 0)
(0.053241867 5.6810647e-08 0)
(0.052997182 5.4704222e-08 0)
(0.052752183 5.2666423e-08 0)
(0.052506814 5.0653826e-08 0)
(0.052261131 4.8691283e-08 0)
(0.052014831 4.6837836e-08 0)
(0.051767317 4.5051097e-08 0)
(0.051518663 4.326183e-08 0)
(0.051269005 4.1505406e-08 0)
(0.051018028 3.9826769e-08 0)
(0.050765293 3.8206755e-08 0)
(0.050510649 3.6603868e-08 0)
(0.05025417 3.5037329e-08 0)
(0.049995421 3.35447e-08 0)
(0.049733865 3.2093533e-08 0)
(0.049469475 3.065607e-08 0)
(0.04920212 2.9262605e-08 0)
(0.048931221 2.7922421e-08 0)
(0.048656388 2.6601879e-08 0)
(0.048377611 2.530569e-08 0)
(0.048094348 2.4073982e-08 0)
(0.047812067 2.2904407e-08 0)
(0.04754014 2.1809418e-08 0)
(0.047280909 2.0853282e-08 0)
(0.047032271 1.9972411e-08 0)
(0.046794492 1.9103946e-08 0)
(0.046567003 1.8297357e-08 0)
(0.04634887 1.7565066e-08 0)
(0.046139216 1.6889354e-08 0)
(0.045937538 1.6248408e-08 0)
(0.045743494 1.5644429e-08 0)
(0.045556526 1.5090776e-08 0)
(0.045375967 1.4583539e-08 0)
(0.045201353 1.4103881e-08 0)
(0.045032474 1.3644712e-08 0)
(0.044869043 1.3213974e-08 0)
(0.044710657 1.2825487e-08 0)
(0.044556689 1.2467905e-08 0)
(0.044407013 1.2174833e-08 0)
(0.044260184 1.1844254e-08 0)
(0.044118568 1.1829172e-08 0)
(0.043972107 1.1329106e-08 0)
(0.043842667 1.3935654e-08 0)
(0.043632164 8.6725698e-09 0)
(1 2.1648666e-09 0)
(0.99998276 7.4799396e-09 0)
(0.9999454 1.2813498e-08 0)
(0.99989886 1.7137309e-08 0)
(0.99984609 2.183146e-08 0)
(0.9997872 2.7455227e-08 0)
(0.99972215 3.4190725e-08 0)
(0.99965094 4.2278943e-08 0)
(0.99957332 5.2104908e-08 0)
(0.99948878 6.4161749e-08 0)
(0.99939659 7.9058497e-08 0)
(0.99929577 9.7592515e-08 0)
(0.999185 1.2084881e-07 0)
(0.99906251 1.5040789e-07 0)
(0.99892574 1.8846023e-07 0)
(0.99877126 2.3895204e-07 0)
(0.99859309 3.0621648e-07 0)
(0.99838481 4.0619181e-07 0)
(0.99812542 5.3802515e-07 0)
(0.99781342 8.1963587e-07 0)
(0.9973183 1.1022269e-06 0)
(0.99678461 3.3810345e-06 0)
(0.99433928 2.7655682e-06 0)
(0.99437176 0.001039651 0)
(0.22240846 0.0011036088 0)
(0.1215327 6.5712719e-05 0)
(0.11829872 1.833466e-06 0)
(0.11832281 1.3328617e-06 1.2537472e-20)
(0.11591148 3.0705103e-06 0)
(0.11285295 3.2877678e-06 0)
(0.11001304 2.9234961e-06 0)
(0.10756395 2.5026005e-06 0)
(0.10544093 2.1638429e-06 0)
(0.10357056 1.8981602e-06 0)
(0.10190215 1.6838539e-06 0)
(0.10039862 1.5198991e-06 0)
(0.099008206 1.3924043e-06 0)
(0.097718291 1.279321e-06 0)
(0.096517817 1.1774759e-06 0)
(0.095399725 1.0845974e-06 0)
(0.094356873 1.001962e-06 0)
(0.093379202 9.2960047e-07 0)
(0.092458989 8.6512474e-07 0)
(0.091590497 8.0788657e-07 0)
(0.090766889 7.5693071e-07 0)
(0.089984007 7.1072905e-07 0)
(0.089237924 6.6848159e-07 0)
(0.088525883 6.2967036e-07 0)
(0.087844871 5.9450856e-07 0)
(0.087191481 5.6193381e-07 0)
(0.086564787 5.3173819e-07 0)
(0.085961713 5.0464636e-07 0)
(0.085379536 4.7933015e-07 0)
(0.08481801 4.5546776e-07 0)
(0.084275083 4.3384077e-07 0)
(0.083748549 4.1360527e-07 0)
(0.083238215 3.9428915e-07 0)
(0.082742952 3.7663835e-07 0)
(0.082260627 3.6035127e-07 0)
(0.081790755 3.4460177e-07 0)
(0.081333221 3.2973605e-07 0)
(0.080886594 3.1617786e-07 0)
(0.080449554 3.0335531e-07 0)
(0.080022113 2.9128164e-07 0)
(0.079602778 2.8021772e-07 0)
(0.079190775 2.6962934e-07 0)
(0.078786126 2.5921281e-07 0)
(0.078388902 2.490336e-07 0)
(0.077998904 2.3938831e-07 0)
(0.077615271 2.3039945e-07 0)
(0.077237375 2.2180922e-07 0)
(0.076865097 2.1348947e-07 0)
(0.076498179 2.0555895e-07 0)
(0.076136072 1.9805921e-07 0)
(0.075778343 1.908871e-07 0)
(0.075424749 1.8398693e-07 0)
(0.075075003 1.7733036e-07 0)
(0.074728925 1.709477e-07 0)
(0.074386095 1.6484727e-07 0)
(0.074046278 1.5895394e-07 0)
(0.07370929 1.5327628e-07 0)
(0.073374818 1.478306e-07 0)
(0.07304258 1.4255722e-07 0)
(0.072712509 1.3744474e-07 0)
(0.072384337 1.325578e-07 0)
(0.072057645 1.2784403e-07 0)
(0.071732365 1.2324106e-07 0)
(0.071408379 1.1877638e-07 0)
(0.07108547 1.1447036e-07 0)
(0.070763354 1.1032345e-07 0)
(0.070441764 1.0629805e-07 0)
(0.070120599 1.023506e-07 0)
(0.069799845 9.8522007e-08 0)
(0.069479116 9.4868983e-08 0)
(0.069157974 9.133552e-08 0)
(0.068836343 8.7845517e-08 0)
(0.0685143 8.4441725e-08 0)
(0.06819145 8.1227301e-08 0)
(0.067867008 7.8129055e-08 0)
(0.067541067 7.5026325e-08 0)
(0.06721381 7.1980112e-08 0)
(0.066884827 6.9068865e-08 0)
(0.066553537 6.625963e-08 0)
(0.066219742 6.3480038e-08 0)
(0.065883541 6.0763187e-08 0)
(0.065544365 5.8174549e-08 0)
(0.065201509 5.5658078e-08 0)
(0.064854935 5.3165284e-08 0)
(0.064504475 5.0748586e-08 0)
(0.064149369 4.8424419e-08 0)
(0.063789104 4.6134388e-08 0)
(0.063423668 4.3886478e-08 0)
(0.063052351 4.1750401e-08 0)
(0.062682321 3.9722163e-08 0)
(0.062325861 3.7823194e-08 0)
(0.061986044 3.6164961e-08 0)
(0.061660113 3.4637351e-08 0)
(0.061348416 3.3131282e-08 0)
(0.061050206 3.1732429e-08 0)
(0.060764261 3.0462423e-08 0)
(0.060489431 2.9290615e-08 0)
(0.060225055 2.8179097e-08 0)
(0.059970685 2.7131617e-08 0)
(0.059725593 2.6171402e-08 0)
(0.059488901 2.5291725e-08 0)
(0.059260003 2.4459916e-08 0)
(0.059038621 2.36636e-08 0)
(0.058824382 2.291653e-08 0)
(0.058616755 2.2242719e-08 0)
(0.058414922 2.1622528e-08 0)
(0.058218716 2.1114106e-08 0)
(0.058026247 2.0540737e-08 0)
(0.057840603 2.0513675e-08 0)
(0.057648651 1.965457e-08 0)
(0.057478967 2.4175716e-08 -3.0115862e-22)
(0.057203016 1.5037193e-08 5.4608163e-23)
(1 2.7114811e-09 0)
(0.99998275 9.3721794e-09 0)
(0.99994532 1.6061269e-08 0)
(0.99989867 2.1487089e-08 0)
(0.99984574 2.7376153e-08 0)
(0.99978666 3.4429193e-08 0)
(0.99972141 4.2874968e-08 0)
(0.99964998 5.3015639e-08 0)
(0.99957212 6.5333544e-08 0)
(0.99948734 8.0446354e-08 0)
(0.9993949 9.9116888e-08 0)
(0.99929382 1.2234381e-07 0)
(0.99918278 1.5148595e-07 0)
(0.99906002 1.8852267e-07 0)
(0.99892297 2.361971e-07 0)
(0.9987682 2.9945112e-07 0)
(0.99858974 3.8371059e-07 0)
(0.99838116 5.0893544e-07 0)
(0.99812145 6.7405256e-07 0)
(0.99780912 1.0267383e-06 0)
(0.99731361 1.3805903e-06 0)
(0.99677964 4.2342594e-06 0)
(0.99433358 3.4648073e-06 0)
(0.99436564 0.0012623585 0)
(0.27099582 0.0013588953 0)
(0.15213514 9.9353497e-05 0)
(0.14807278 2.8904834e-06 0)
(0.1480639 2.1080208e-06 0)
(0.14504438 4.8351169e-06 0)
(0.14121933 5.1746905e-06 0)
(0.13767136 4.5996529e-06 0)
(0.13461147 3.9378202e-06 0)
(0.13195815 3.4052306e-06 0)
(0.12962029 2.9872111e-06 0)
(0.12753481 2.6499484e-06 0)
(0.12565536 2.3919665e-06 0)
(0.1239172 2.1913607e-06 0)
(0.1223046 2.0134155e-06 0)
(0.12080376 1.8531481e-06 0)
(0.11940586 1.7069936e-06 0)
(0.11810197 1.5769589e-06 0)
(0.11687953 1.4630892e-06 0)
(0.11572889 1.3616265e-06 0)
(0.11464289 1.2715508e-06 -6.2766154e-33)
(0.11361298 1.1913622e-06 0)
(0.11263397 1.1186494e-06 0)
(0.11170096 1.0521654e-06 0)
(0.11081048 9.9108816e-07 0)
(0.10995879 9.3574376e-07 0)
(0.10914164 8.8448196e-07 0)
(0.10835784 8.3696345e-07 0)
(0.10760357 7.9431795e-07 0)
(0.10687544 7.5447764e-07 0)
(0.1061731 7.1692644e-07 0)
(0.10549402 6.8288225e-07 0)
(0.10483544 6.5103368e-07 0)
(0.1041971 6.2063794e-07 0)
(0.1035776 5.9285541e-07 0)
(0.10297428 5.6721543e-07 0)
(0.10238653 5.4243109e-07 0)
(0.1018142 5.1903835e-07 0)
(0.1012555 4.976939e-07 0)
(0.1007088 4.7750777e-07 0)
(0.1001741 4.5850913e-07 0)
(0.099649517 4.410986e-07 0)
(0.099134104 4.2442836e-07 0)
(0.098627897 4.0802969e-07 0)
(0.098130971 3.9201128e-07 0)
(0.09764307 3.7683288e-07 0)
(0.097163125 3.6268178e-07 0)
(0.09669036 3.4915795e-07 0)
(0.096224621 3.3606399e-07 0)
(0.095765575 3.2358389e-07 0)
(0.095312541 3.1177867e-07 0)
(0.094864983 3.0048708e-07 0)
(0.094422599 2.8962504e-07 0)
(0.093985023 2.7914972e-07 0)
(0.093552025 2.6910456e-07 0)
(0.093123087 2.5950008e-07 0)
(0.092697923 2.5022223e-07 0)
(0.092276293 2.4128621e-07 0)
(0.091857804 2.3271573e-07 0)
(0.091442102 2.244147e-07 0)
(0.091029113 2.1636585e-07 0)
(0.090618499 2.086728e-07 0)
(0.090209732 2.012542e-07 0)
(0.089802723 1.9400953e-07 0)
(0.08939733 1.8698052e-07 0)
(0.088993286 1.8020159e-07 0)
(0.088590231 1.7367435e-07 0)
(0.088187828 1.673386e-07 0)
(0.087785952 1.6112464e-07 0)
(0.087384588 1.5509721e-07 0)
(0.086983256 1.4934665e-07 0)
(0.086581402 1.4378514e-07 0)
(0.086178929 1.3829164e-07 0)
(0.085775939 1.3293293e-07 0)
(0.085371939 1.2787258e-07 0)
(0.084965943 1.2299588e-07 0)
(0.084558065 1.1811194e-07 0)
(0.084148538 1.1331629e-07 0)
(0.083736849 1.0873319e-07 0)
(0.08332227 1.0431121e-07 0)
(0.082904551 9.9935796e-08 0)
(0.082483818 9.5658679e-08 0)
(0.082059362 9.1583459e-08 0)
(0.081630295 8.7622237e-08 0)
(0.08119657 8.3698144e-08 0)
(0.08075798 7.9893528e-08 0)
(0.080313573 7.6234757e-08 0)
(0.079862706 7.2629833e-08 0)
(0.079405362 6.9091042e-08 0)
(0.078940656 6.5728307e-08 0)
(0.078477556 6.2535463e-08 0)
(0.078031435 5.9545993e-08 0)
(0.077606142 5.6935397e-08 0)
(0.077198225 5.4530567e-08 0)
(0.076808119 5.2159705e-08 0)
(0.076434891 4.9957476e-08 0)
(0.076077012 4.7958077e-08 0)
(0.075733043 4.6113386e-08 0)
(0.075402154 4.4363603e-08 0)
(0.075083787 4.2714519e-08 0)
(0.074777032 4.1202794e-08 0)
(0.074480789 3.981792e-08 0)
(0.074194299 3.8508467e-08 0)
(0.073917216 3.7254824e-08 0)
(0.073649071 3.6078616e-08 0)
(0.073389203 3.5017708e-08 0)
(0.073136588 3.4041265e-08 0)
(0.072891013 3.3240564e-08 0)
(0.072650122 3.2337898e-08 0)
(0.072417764 3.2293578e-08 0)
(0.072177564 3.0940542e-08 0)
(0.07196518 3.8068795e-08 0)
(0.071619783 2.366422e-08 -3.1139624e-23)
(1 3.2988712e-09 0)
(0.99998274 1.1407329e-08 0)
(0.99994524 1.9557413e-08 0)
(0.99989846 2.6172553e-08 0)
(0.99984535 3.3350515e-08 0)
(0.99978607 4.1944119e-08 0)
(0.99972059 5.2232562e-08 0)
(0.9996489 6.4583905e-08 0)
(0.99957079 7.9585104e-08 0)
(0.99948573 9.7987682e-08 0)
(0.99939301 1.2071972e-07 0)
(0.99929164 1.4899618e-07 0)
(0.9991803 1.8447012e-07 0)
(0.99905724 2.2954937e-07 0)
(0.99891988 2.8757073e-07 0)
(0.99876479 3.6454573e-07 0)
(0.998586 4.6707376e-07 0)
(0.99837708 6.1943518e-07 0)
(0.99811702 8.2031796e-07 0)
(0.99780433 1.2493669e-06 0)
(0.99730839 1.6797717e-06 0)
(0.9967741 5.1508609e-06 0)
(0.99432729 4.2166456e-06 0)
(0.99435904 0.0014859352 0)
(0.32018009 0.0016230578 0)
(0.18489027 0.00014126159 0)
(0.17987171 4.3085688e-06 0)
(0.17977372 3.1490594e-06 -3.2727906e-20)
(0.17610705 7.1661231e-06 1.5247723e-20)
(0.17147516 7.6642218e-06 0)
(0.16718319 6.8099982e-06 0)
(0.16348091 5.8308472e-06 0)
(0.16026923 5.0430202e-06 0)
(0.15743879 4.4241672e-06 0)
(0.15491365 3.9247393e-06 0)
(0.15263768 3.5427703e-06 0)
(0.15053258 3.2457597e-06 0)
(0.14857934 2.9822729e-06 0)
(0.14676127 2.7449505e-06 0)
(0.14506772 2.5285252e-06 0)
(0.14348792 2.3359691e-06 0)
(0.14200665 2.167345e-06 0)
(0.14061227 2.0170877e-06 0)
(0.13929611 1.8836889e-06 6.721434e-33)
(0.13804783 1.7649313e-06 0)
(0.13686116 1.6572359e-06 0)
(0.13573018 1.5587728e-06 0)
(0.13465067 1.4683145e-06 0)
(0.13361814 1.3863317e-06 0)
(0.13262742 1.3104107e-06 0)
(0.13167707 1.2400319e-06 0)
(0.13076249 1.1768538e-06 0)
(0.12987956 1.1178453e-06 0)
(0.12902785 1.0622287e-06 0)
(0.12820431 1.0117904e-06 0)
(0.12740561 9.6461194e-07 0)
(0.12663141 9.1959403e-07 0)
(0.12588002 8.7843523e-07 0)
(0.12514825 8.4044456e-07 0)
(0.12443534 8.0373513e-07 0)
(0.12374108 7.6908802e-07 0)
(0.12306333 7.3746066e-07 0)
(0.12240014 7.0754975e-07 0)
(0.12175147 6.79411e-07 0)
(0.12111505 6.5362304e-07 0)
(0.12048974 6.289194e-07 0)
(0.11987559 6.0461957e-07 0)
(0.11927268 5.8089312e-07 0)
(0.11868069 5.5841051e-07 0)
(0.11809834 5.3744094e-07 0)
(0.11752469 5.1740022e-07 0)
(0.11695955 4.9800258e-07 0)
(0.11640251 4.7951615e-07 0)
(0.11585275 4.620248e-07 0)
(0.11530962 4.4529112e-07 0)
(0.11477277 4.2919617e-07 0)
(0.11424173 4.1367907e-07 0)
(0.11371622 3.9879775e-07 0)
(0.11319564 3.8456395e-07 0)
(0.11267962 3.7081493e-07 0)
(0.11216789 3.57576e-07 0)
(0.11165995 3.4487916e-07 0)
(0.11115538 3.3257886e-07 0)
(0.11065409 3.2065052e-07 0)
(0.11015568 3.0925053e-07 0)
(0.10965949 2.9825996e-07 0)
(0.10916543 2.8752635e-07 0)
(0.10867331 2.771092e-07 0)
(0.10818283 2.6706303e-07 0)
(0.10769354 2.573917e-07 0)
(0.10720502 2.4800439e-07 0)
(0.10671713 2.3879613e-07 0)
(0.10622986 2.2986335e-07 0)
(0.10574262 2.2134163e-07 0)
(0.10525473 2.1310126e-07 0)
(0.10476608 2.0496105e-07 0)
(0.10427678 1.9701915e-07 0)
(0.10378626 1.8951976e-07 0)
(0.1032933 1.8229364e-07 0)
(0.10279805 1.7505651e-07 0)
(0.10230078 1.6794913e-07 0)
(0.10180088 1.6115688e-07 0)
(0.10129745 1.5460416e-07 0)
(0.10079021 1.4812029e-07 0)
(0.10027929 1.4178134e-07 0)
(0.099763842 1.3574169e-07 0)
(0.099242786 1.2987154e-07 0)
(0.098716058 1.2405617e-07 0)
(0.098183411 1.1841738e-07 0)
(0.097643693 1.1299498e-07 0)
(0.097096114 1.0765253e-07 0)
(0.096540658 1.024078e-07 0)
(0.095976249 9.7423989e-08 0)
(0.095413779 9.2692131e-08 0)
(0.094871918 8.8261476e-08 0)
(0.094355347 8.4392172e-08 0)
(0.093859875 8.0828039e-08 0)
(0.093386027 7.7314273e-08 0)
(0.092932672 7.4050229e-08 0)
(0.092497955 7.108678e-08 0)
(0.09208013 6.8352798e-08 0)
(0.091678186 6.5759462e-08 0)
(0.091291447 6.3315195e-08 0)
(0.09091881 6.1074478e-08 0)
(0.090558939 5.9021869e-08 0)
(0.090210911 5.7081128e-08 0)
(0.089874306 5.5223006e-08 0)
(0.089548556 5.3479507e-08 0)
(0.08923286 5.190685e-08 0)
(0.088925974 5.045948e-08 0)
(0.088627636 4.9272221e-08 0)
(0.088334998 4.7934367e-08 0)
(0.088052708 4.7865829e-08 0)
(0.08776096 4.5857831e-08 -3.6683859e-23)
(0.087502932 5.6437999e-08 0)
(0.087083295 3.5067482e-08 0)
(1 3.9358713e-09 0)
(0.99998273 1.361648e-08 0)
(0.99994516 2.3356209e-08 0)
(0.99989822 3.1267343e-08 0)
(0.99984492 3.984899e-08 0)
(0.9997854 5.0118989e-08 0)
(0.99971967 6.241161e-08 0)
(0.99964771 7.7166582e-08 0)
(0.9995693 9.5084374e-08 0)
(0.99948394 1.1706169e-07 0)
(0.9993909 1.4420584e-07 0)
(0.9992892 1.7796634e-07 0)
(0.99917754 2.2031523e-07 0)
(0.99905413 2.7412492e-07 0)
(0.99891642 3.4337575e-07 0)
(0.99876098 4.3523888e-07 0)
(0.99858182 5.5758555e-07 0)
(0.99837253 7.3937992e-07 0)
(0.99811207 9.7904836e-07 0)
(0.99779899 1.4908933e-06 0)
(0.99730257 2.0042815e-06 0)
(0.99676793 6.14454e-06 0)
(0.99432034 5.0325586e-06 0)
(0.9943519 0.0017110734 -6.9976532e-54)
(0.37014919 0.0018977881 1.1141359e-53)
(0.22010745 0.00019263994 -6.14991e-19)
(0.21385321 6.236691e-06 0)
(0.21355562 4.5422483e-06 -3.7739592e-20)
(0.20920464 1.0191949e-05 0)