/*--------------------------------*- C++ -*----------------------------------*\
  =========                 |
  \\      /  F ield         | OpenFOAM: The Open Source CFD Toolbox
   \\    /   O peration     | Website:  https://openfoam.org
    \\  /    A nd           | Version:  12
     \\/     M anipulation  |
\*---------------------------------------------------------------------------*/
FoamFile
{
    format      ascii;
    class       volVectorField;
    location    "600";
    object      U;
}
// * * * * * * * * * * * * * * * * * * * * * * * * * * * * * * * * * * * * * //

dimensions      [0 1 -1 0 0 0 0];

internalField   nonuniform List<vector> 
7480
(
(0.99717946 8.1032243e-05 1.4987475e-17)
(0.99545444 0.00018551535 0)
(0.99352845 0.00025524339 1.8009596e-19)
(0.99145755 0.00029815643 0)
(0.98927122 0.00033004655 0)
(0.9869916 0.00035205422 0)
(0.9846233 0.00036781739 0)
(0.98216073 0.00038028389 0)
(0.9795997 0.00039202261 0)
(0.97691177 0.00040064219 0)
(0.97414026 0.00042246867 0)
(0.97097721 0.0004042615 0)
(0.96836184 0.00063381218 0)
(0.96221693 0.00086043986 1.1771123e-16)
(0.95211456 0.0014577683 -2.6568469e-18)
(0.9396074 0.0019806468 0)
(0.9255474 0.0023183535 0)
(0.9105884 0.0025039433 0)
(0.89509928 0.0025824229 0)
(0.87951043 0.0025508603 0)
(0.86401804 0.0024703012 0)
(0.84878578 0.0023370684 0)
(0.83385528 0.0021314113 0)
(0.8190245 0.0018957314 0)
(0.80437714 0.0016871943 0)
(0.79007646 0.0015032403 0)
(0.77630794 0.0013244862 0)
(0.76342076 0.0011579356 0)
(0.75123763 0.0010172052 0)
(0.73979551 0.0008941064 0)
(0.72916162 0.00078231635 0)
(0.71938691 0.00067977521 0)
(0.71049283 0.00058588089 0)
(0.70246917 0.00050141167 0)
(0.69527813 0.00042707238 0)
(0.68886398 0.0003628769 0)
(0.68315402 0.0003081959 0)
(0.67807749 0.00026163775 0)
(0.67357672 0.00022150788 0)
(0.66959836 0.00018648681 0)
(0.66607918 0.00015658585 0)
(0.6629491 0.00013213453 0)
(0.66014159 0.00011271177 0)
(0.6575976 9.7061624e-05 0)
(0.65527825 8.5002427e-05 0)
(0.65311641 7.6605614e-05 0)
(0.65107313 7.1162341e-05 0)
(0.64910893 6.8011714e-05 0)
(0.6471896 6.6434183e-05 0)
(0.64529294 6.6506676e-05 0)
(0.64338721 6.823522e-05 0)
(0.641439 7.0838082e-05 0)
(0.63942476 7.3816131e-05 0)
(0.63733669 7.666264e-05 0)
(0.63517937 7.9034815e-05 0)
(0.63296373 8.0661486e-05 0)
(0.6307025 8.1438691e-05 0)
(0.62841138 8.121677e-05 0)
(0.62610946 8.0100491e-05 0)
(0.62380805 7.8524025e-05 0)
(0.6215113 7.6760221e-05 0)
(0.61922104 7.4901725e-05 0)
(0.61694133 7.2859588e-05 0)
(0.61467903 7.0631451e-05 0)
(0.61243978 6.8315013e-05 0)
(0.61022641 6.5941877e-05 0)
(0.60804251 6.3466426e-05 0)
(0.60589314 6.0929021e-05 0)
(0.6037791 5.8506994e-05 0)
(0.60169552 5.6290278e-05 0)
(0.59963773 5.4226337e-05 0)
(0.59760444 5.2261367e-05 0)
(0.59559554 5.0381177e-05 0)
(0.59361074 4.854874e-05 0)
(0.59165142 4.6712616e-05 0)
(0.5897204 4.4885821e-05 0)
(0.58781739 4.3157236e-05 0)
(0.58593902 4.1540109e-05 0)
(0.58408249 4.0019833e-05 0)
(0.58224693 3.8563533e-05 0)
(0.58043233 3.7152437e-05 0)
(0.57863961 3.5755781e-05 0)
(0.5768707 3.4376379e-05 0)
(0.57512479 3.3082601e-05 0)
(0.57339894 3.1860756e-05 0)
(0.57169192 3.0695615e-05 0)
(0.57000282 2.9589347e-05 0)
(0.56833201 2.8491788e-05 0)
(0.56668135 2.7415994e-05 0)
(0.56504966 2.6411145e-05 0)
(0.56343449 2.545576e-05 0)
(0.56183483 2.4545196e-05 0)
(0.5602504 2.3678807e-05 0)
(0.55867989 2.2832862e-05 0)
(0.55712642 2.205894e-05 0)
(0.55557233 2.1374754e-05 0)
(0.55405512 2.0237404e-05 0)
(0.55242924 3.3338053e-05 3.8796527e-20)
(0.55106722 2.2115096e-05 -2.1942194e-19)
(0.54855683 3.3069683e-05 -5.1019166e-18)
(0.99846849 0.00034769939 0)
(0.99849076 0.00051622776 0)
(0.99854929 0.00061634022 -2.3385938e-19)
(0.99854842 0.00061373381 -2.9325758e-18)
(0.99852083 0.00062346736 0)
(0.99847279 0.00062965293 0)
(0.99840797 0.00063263639 0)
(0.99832252 0.00063535072 0)
(0.99821154 0.00064067369 0)
(0.9980608 0.00064641657 0)
(0.99786804 0.00067086325 0)
(0.9975523 0.00067945189 0)
(0.99715146 0.00088013342 0)
(0.99657335 0.0014057007 0)
(0.99573817 0.0020269112 0)
(0.99422206 0.0024020457 0)
(0.99176119 0.002537132 0)
(0.98835528 0.0025551649 0)
(0.98411513 0.0025103296 0)
(0.97916684 0.0024352885 0)
(0.97353738 0.0023487526 0)
(0.96722864 0.0022654182 0)
(0.96031008 0.002215915 0)
(0.95302477 0.0022009422 0)
(0.94537645 0.0021781636 0)
(0.93740501 0.0021234656 0)
(0.92912381 0.0020394429 0)
(0.92047935 0.0019260053 0)
(0.9116555 0.0017976085 0)
(0.90273399 0.0016631497 0)
(0.89378596 0.0015234687 0)
(0.88486791 0.0013841701 0)
(0.87604339 0.0012467151 0)
(0.86737879 0.0011131809 0)
(0.85893836 0.00098679742 0)
(0.85078022 0.00087022273 0)
(0.84295476 0.0007642795 0)
(0.83552922 0.00067124561 0)
(0.82847461 0.00059226937 0)
(0.82175946 0.00052423569 0)
(0.81538649 0.00046483412 0)
(0.80935817 0.00041378914 0)
(0.80367195 0.0003706059 0)
(0.79830637 0.00033388554 0)
(0.79322925 0.00030230163 0)
(0.78842461 0.00027600149 0)
(0.78386557 0.00025498273 0)
(0.77952416 0.00023805622 0)
(0.77538138 0.00022373978 0)
(0.77142911 0.00021346887 0)
(0.76757622 0.00020721314 0)
(0.76380842 0.00020261593 0)
(0.76012629 0.00019854919 0)
(0.75653277 0.00019437888 0)
(0.7530289 0.00019000536 0)
(0.74961063 0.00018532026 0)
(0.7462711 0.00018027647 0)
(0.74300464 0.00017488428 0)
(0.73979258 0.00016926346 0)
(0.73662502 0.00016358454 0)
(0.73350043 0.00015792987 0)
(0.73042055 0.00015230019 0)
(0.72738774 0.00014651497 0)
(0.72440535 0.00014062425 0)
(0.72147559 0.00013481459 0)
(0.71859833 0.00012908284 0)
(0.715775 0.00012335483 0)
(0.71300438 0.00011776806 0)
(0.71028085 0.00011258311 0)
(0.7075989 0.00010782069 0)
(0.70495683 0.00010331501 0)
(0.702356 9.8989219e-05 0)
(0.69979733 9.4854719e-05 0)
(0.69728026 9.0859676e-05 0)
(0.6948054 8.6930629e-05 0)
(0.69237295 8.3120862e-05 0)
(0.68997941 7.957418e-05 0)
(0.6876207 7.6260292e-05 0)
(0.68529532 7.312833e-05 0)
(0.68300361 7.0125597e-05 0)
(0.68074565 6.7232702e-05 0)
(0.67852192 6.4408012e-05 0)
(0.6763323 6.1671639e-05 0)
(0.67417424 5.912919e-05 0)
(0.67204471 5.6726266e-05 0)
(0.66994328 5.4434071e-05 0)
(0.66786959 5.2258743e-05 0)
(0.66582384 5.0122534e-05 0)
(0.6638063 4.8062471e-05 0)
(0.6618147 4.6149063e-05 0)
(0.65984661 4.4329135e-05 0)
(0.6579015 4.2595802e-05 0)
(0.6559794 4.0952617e-05 0)
(0.65407813 3.9361082e-05 0)
(0.6521999 3.7928473e-05 0)
(0.65032651 3.6558666e-05 0)
(0.64849646 3.572061e-05 0)
(0.64656175 3.6776026e-05 0)
(0.64491348 3.4835762e-05 0)
(0.64195034 3.7424908e-05 0)
(0.99850255 0.00034300717 0)
(0.99850922 0.00043732079 0)
(0.99854076 0.00045983566 0)
(0.99855508 0.00046019588 0)
(0.99854022 0.00046312775 0)
(0.99850536 0.00046805353 0)
(0.99845644 0.00047451057 0)
(0.99839033 0.00048360317 0)
(0.9983018 0.00049727797 0)
(0.9981796 0.00051521758 0)
(0.99801523 0.00055138808 0)
(0.99776263 0.00060792802 0)
(0.99741805 0.00084945588 0)
(0.99717895 0.0014287931 0)
(0.99721804 0.002044361 0)
(0.99745868 0.0024944273 0)
(0.99771756 0.0027849249 0)
(0.99786092 0.0029912562 0)
(0.99783707 0.0031353894 0)
(0.99761256 0.0032216166 0)
(0.99715613 0.0032656906 0)
(0.99644731 0.003284611 0)
(0.99546807 0.0032785841 0)
(0.99420268 0.0032530155 0)
(0.9926289 0.0031961538 0)
(0.99063449 0.0031116848 0)
(0.98813294 0.0029999584 0)
(0.98497949 0.0028760701 0)
(0.98119243 0.0027553579 0)
(0.9767483 0.002632055 0)
(0.97160576 0.0024937995 0)
(0.96582234 0.0023388304 0)
(0.95943895 0.0021792952 0)
(0.95251469 0.0020194056 0)
(0.94513178 0.0018610089 0)
(0.93739134 0.0017055241 0)
(0.92941036 0.0015538691 0)
(0.92130815 0.001408281 0)
(0.91321389 0.0012719089 0)
(0.90523476 0.0011464503 0)
(0.8974558 0.0010320622 0)
(0.88994478 0.00092901115 0)
(0.88274658 0.00084081657 0)
(0.87579934 0.00076718076 0)
(0.86910144 0.00070383703 0)
(0.86267704 0.00064821514 0)
(0.85653935 0.00059906633 0)
(0.85070347 0.00055615426 0)
(0.84515344 0.00051867031 0)
(0.83986047 0.00048643559 0)
(0.83480528 0.00046064659 0)
(0.8299695 0.00044031299 0)
(0.82533014 0.00042259219 0)
(0.82087481 0.000405502 0)
(0.81659195 0.00038878291 0)
(0.81246306 0.00037266435 0)
(0.80847034 0.00035731631 0)
(0.80459401 0.00034325043 0)
(0.80078691 0.00032999394 0)
(0.7970544 0.00031682805 0)
(0.79340215 0.00030378418 0)
(0.78982975 0.00029102686 0)
(0.78633336 0.00027837872 0)
(0.78291143 0.00026588848 0)
(0.77956347 0.00025379807 0)
(0.77628734 0.00024204674 0)
(0.7730826 0.00023063452 0)
(0.76994042 0.00021987235 0)
(0.7668515 0.00020995808 0)
(0.7638133 0.0002007278 0)
(0.76082705 0.0001918933 0)
(0.75789463 0.00018337299 0)
(0.75501638 0.00017522437 0)
(0.75219098 0.00016738454 0)
(0.74941859 0.00015976785 0)
(0.74669687 0.0001524989 0)
(0.74401996 0.00014576939 0)
(0.74138429 0.00013946878 0)
(0.73878968 0.00013347889 0)
(0.73623702 0.00012772259 0)
(0.73372613 0.0001221838 0)
(0.73125724 0.00011681937 0)
(0.72882855 0.00011168379 0)
(0.72643631 0.00010692039 0)
(0.7240778 0.00010241637 0)
(0.72175323 9.811012e-05 0)
(0.71946246 9.400834e-05 0)
(0.71720563 9.0012643e-05 0)
(0.71498183 8.6192686e-05 0)
(0.71278807 8.26437e-05 0)
(0.71062211 7.9271113e-05 0)
(0.70848372 7.605112e-05 0)
(0.70637312 7.2997649e-05 0)
(0.70428755 7.0056704e-05 0)
(0.70222861 6.7426085e-05 0)
(0.70017786 6.4845593e-05 0)
(0.69817445 6.3333288e-05 0)
(0.69606837 6.098014e-05 0)
(0.69426561 6.440672e-05 0)
(0.6910494 5.9083148e-05 -4.1186263e-20)
(0.99853106 0.00033360692 0)
(0.9985283 0.00042235528 0)
(0.99855208 0.00047739944 0)
(0.9985639 0.0005094382 0)
(0.99854875 0.00053422452 0)
(0.99851361 0.00055694873 0)
(0.99846437 0.00057779881 0)
(0.99839834 0.00059819813 0)
(0.99831021 0.00062156309 0)
(0.99819038 0.00064939475 0)
(0.99802905 0.0006991452 0)
(0.9977966 0.0007703655 0)
(0.99749642 0.001021945 0)
(0.99728429 0.0015263203 0)
(0.99731759 0.0020614951 0)
(0.99756723 0.0024749885 0)
(0.99789629 0.0027437203 0)
(0.99821172 0.0029167795 0)
(0.99849465 0.0030177447 0)
(0.99874523 0.0030586763 0)
(0.99895942 0.0030639626 0)
(0.99913533 0.0030495881 0)
(0.99927348 0.0030266479 0)
(0.99937317 0.002996771 0)
(0.99943242 0.002962879 0)
(0.99943943 0.0029248284 0)
(0.99937446 0.0028824515 0)
(0.9992091 0.0028387921 0)
(0.99891118 0.0027930926 0)
(0.99843938 0.002740278 0)
(0.99775043 0.0026805031 0)
(0.99672747 0.0026164074 0)
(0.99528147 0.0025470521 0)
(0.99332374 0.0024715201 0)
(0.99076464 0.0023896558 0)
(0.98751921 0.0023016502 0)
(0.9835139 0.0022058864 0)
(0.97868826 0.0020973883 0)
(0.97310355 0.0019795612 0)
(0.96683122 0.0018581259 0)
(0.95995336 0.0017334299 0)
(0.95259517 0.0016060929 0)
(0.94492353 0.0014783439 0)
(0.93712646 0.0013575757 0)
(0.92934847 0.0012482788 0)
(0.92170459 0.0011478879 0)
(0.91428361 0.0010553112 0)
(0.90717093 0.00097499768 0)
(0.9002771 0.00090721105 0)
(0.8936022 0.00084901267 0)
(0.88721743 0.00079879213 0)
(0.88114085 0.00075350953 0)
(0.87537751 0.00071202284 0)
(0.86990124 0.00067393531 0)
(0.86467034 0.00063874657 0)
(0.85964955 0.00060624028 0)
(0.85482075 0.00057633035 0)
(0.85016609 0.00054876984 0)
(0.84567899 0.00052329998 0)
(0.8413476 0.0004994303 0)
(0.83715416 0.00047669371 0)
(0.83308142 0.00045514414 0)
(0.82911418 0.00043426822 0)
(0.82524863 0.00041382345 0)
(0.82148354 0.00039413702 0)
(0.81781392 0.00037518587 0)
(0.81423487 0.00035727148 0)
(0.8107232 0.0003407319 0)
(0.80727266 0.00032530738 0)
(0.80388992 0.00031061448 0)
(0.80057708 0.00029643721 0)
(0.79733345 0.00028279468 0)
(0.79415738 0.00026978999 0)
(0.79104657 0.00025731629 0)
(0.78800068 0.00024533407 0)
(0.78501273 0.0002340777 0)
(0.78207485 0.00022365988 0)
(0.77918618 0.0002138173 0)
(0.77634814 0.00020439943 0)
(0.77356139 0.00019534501 0)
(0.77082501 0.00018664951 0)
(0.76813889 0.00017828999 0)
(0.76549857 0.00017036473 0)
(0.76289942 0.00016300851 0)
(0.76033971 0.00015602927 0)
(0.75782039 0.00014933773 0)
(0.75534129 0.00014295065 0)
(0.75290243 0.00013676724 0)
(0.75050119 0.00013089415 0)
(0.748134 0.00012543202 0)
(0.7457991 0.00012023509 0)
(0.74349662 0.0001152608 0)
(0.7412269 0.00011054498 0)
(0.7389864 0.00010602297 0)
(0.73677601 0.0001019915 0)
(0.7345774 9.7970194e-05 0)
(0.7324301 9.5661841e-05 0)
(0.73018285 9.1427002e-05 0)
(0.72825492 9.9938719e-05 0)
(0.72483224 8.516049e-05 3.309501e-20)
(0.99855873 0.00033731147 0)
(0.99854955 0.00042465004 0)
(0.99856418 0.0004824891 0)
(0.99856967 0.0005110158 0)
(0.99855192 0.00052790438 0)
(0.99851575 0.00054310537 0)
(0.998466 0.00055789627 0)
(0.99840023 0.00057393395 0)
(0.99831318 0.00059509062 0)
(0.99819632 0.00062487754 0)
(0.99804078 0.00067830082 0)
(0.99782747 0.00077051954 0)
(0.99756454 0.0010090096 0)
(0.99737682 0.0014594392 0)
(0.99740135 0.0019622044 0)
(0.99762454 0.0023705193 0)
(0.99793121 0.0026437898 0)
(0.99823416 0.0028223645 0)
(0.99851469 0.0029361538 0)
(0.99877472 0.0029993631 0)
(0.99901026 0.0030309195 0)
(0.99922036 0.0030451 0)
(0.99940871 0.0030460143 0)
(0.9995815 0.0030400742 0)
(0.99974335 0.0030244698 0)
(0.99989405 0.0029969159 0)
(1.0000311 0.0029571905 0)
(1.0001519 0.0029076343 0)
(1.000256 0.0028518249 0)
(1.000344 0.0027920842 0)
(1.0004138 0.0027293815 0)
(1.0004581 0.0026648151 0)
(1.0004673 0.0026001458 0)
(1.0004274 0.0025370872 0)
(1.0003167 0.0024769934 0)
(1.0001016 0.0024203708 0)
(0.99973477 0.0023668925 0)
(0.99913895 0.0023167149 0)
(0.99817985 0.0022682535 0)
(0.99673504 0.0022175679 0)
(0.9946767 0.0021619387 0)
(0.99186892 0.0021 0)
(0.988183 0.0020333442 0)
(0.9836027 0.0019561423 0)
(0.97819982 0.0018634344 0)
(0.97205665 0.0017619484 0)
(0.96528565 0.0016538912 0)
(0.95805533 0.0015412545 0)
(0.95058656 0.0014321009 0)
(0.94304734 0.0013328251 0)
(0.93559517 0.0012413915 0)
(0.92834346 0.0011559355 0)
(0.92140708 0.0010801233 0)
(0.91471006 0.0010151902 0)
(0.90822373 0.00095690572 0)
(0.90197232 0.00090239125 0)
(0.89597864 0.00085120386 0)
(0.89026588 0.00080412752 0)
(0.88484527 0.00076145968 0)
(0.87966664 0.0007219111 0)
(0.87468764 0.00068523542 0)
(0.86988432 0.00065133063 0)
(0.86524309 0.0006189495 0)
(0.86076268 0.00058761202 0)
(0.85643082 0.00055789294 0)
(0.85223081 0.00052996671 0)
(0.8481454 0.00050373221 0)
(0.84416877 0.00047934713 0)
(0.84029897 0.00045673106 0)
(0.83653109 0.00043537209 0)
(0.83285699 0.00041492367 0)
(0.82927015 0.00039535129 0)
(0.82576722 0.00037672745 0)
(0.82234538 0.00035888254 0)
(0.81900289 0.00034195339 0)
(0.8157241 0.0003262428 0)
(0.81250221 0.00031157849 0)
(0.80934276 0.00029754447 0)
(0.80624731 0.0002840689 0)
(0.8032148 0.0002711485 0)
(0.80024295 0.00025877467 0)
(0.79733121 0.00024698955 0)
(0.79447055 0.00023592907 0)
(0.79165671 0.00022562078 0)
(0.78889012 0.00021578725 0)
(0.78617226 0.00020634192 0)
(0.7835024 0.00019732312 0)
(0.78088019 0.0001886509 0)
(0.77830026 0.00018046821 0)
(0.77575901 0.00017284271 0)
(0.77325566 0.00016557218 0)
(0.77079069 0.00015860093 0)
(0.76836434 0.0001519992 0)
(0.76597182 0.00014569749 0)
(0.76361324 0.00014008721 0)
(0.76127074 0.00013443238 0)
(0.75898422 0.00013123985 0)
(0.75660125 0.00012491706 1.8002209e-20)
(0.75455393 0.00013918196 0)
(0.75093556 0.00011310276 0)
(0.99858484 0.00034324543 0)
(0.99857017 0.00042451536 0)
(0.99857618 0.00048055985 0)
(0.99857613 0.00051126592 0)
(0.99855701 0.00053305433 0)
(0.99852105 0.00055527854 0)
(0.99847174 0.00057866016 0)
(0.99840692 0.00060418985 0)
(0.99832161 0.00063564242 0)
(0.99820841 0.00067742833 0)
(0.99805985 0.00074426335 0)
(0.99786427 0.00085474872 0)
(0.99763367 0.001088532 0)
(0.99746951 0.0015026136 0)
(0.99748891 0.0019750178 0)
(0.99768897 0.0023667197 0)
(0.99797262 0.0026336605 0)
(0.99825931 0.0028102275 0)
(0.99852704 0.002925936 0)
(0.99877626 0.002992241 0)
(0.99900448 0.0030251117 0)
(0.99921075 0.0030340777 0)
(0.9993981 0.0030294751 0)
(0.99957161 0.0030149251 0)
(0.9997357 0.0029905034 0)
(0.99989121 0.0029546957 0)
(1.0000356 0.0029084033 0)
(1.0001664 0.0028547912 0)
(1.0002839 0.0027983033 0)
(1.0003902 0.0027406894 0)
(1.0004864 0.0026808586 0)
(1.000572 0.0026192163 0)
(1.0006465 0.0025577306 0)
(1.0007105 0.0024979853 0)
(1.0007652 0.0024411267 0)
(1.000811 0.0023879233 0)
(1.0008478 0.0023390683 0)
(1.0008734 0.0022946275 0)
(1.0008814 0.002254067 0)
(1.000861 0.0022176797 0)
(1.0007935 0.0021856828 0)
(1.000646 0.0021577717 0)
(1.0003607 0.002132809 0)
(0.99985258 0.0021091377 0)
(0.99894678 0.0020840783 0)
(0.99747884 0.0020539356 0)
(0.99529161 0.0020154353 0)
(0.99220731 0.0019708064 0)
(0.98819143 0.0019166516 0)
(0.98329309 0.0018446285 0)
(0.97760023 0.0017593968 0)
(0.97122962 0.0016643962 0)
(0.96436059 0.001562126 0)
(0.95722766 0.0014612392 0)
(0.95002291 0.0013680315 0)
(0.94290091 0.0012809428 0)
(0.93595994 0.0011985072 0)
(0.9293052 0.0011247342 0)
(0.92284553 0.001060449 0)
(0.91655975 0.0010013818 0)
(0.91048924 0.00094544414 0)
(0.90466678 0.0008926489 0)
(0.89911697 0.00084304189 0)
(0.89380122 0.0007969897 0)
(0.88867741 0.00075413047 0)
(0.88372567 0.00071443298 0)
(0.87893278 0.00067732713 0)
(0.87431784 0.00064264589 0)
(0.86987652 0.00061030569 0)
(0.86558453 0.0005801836 0)
(0.86141867 0.00055180267 0)
(0.85737078 0.00052474631 0)
(0.85343787 0.00049907188 0)
(0.84961356 0.00047468757 0)
(0.84588811 0.00045165074 0)
(0.84225486 0.00043024726 0)
(0.83871019 0.00041034236 0)
(0.83525054 0.00039137884 0)
(0.83187152 0.00037322907 0)
(0.82856887 0.00035589427 0)
(0.82533905 0.00033932192 0)
(0.82218084 0.00032370221 0)
(0.81907789 0.00030913155 0)
(0.81603017 0.00029542272 0)
(0.81304101 0.00028226024 0)
(0.8101111 0.00026961732 0)
(0.8072384 0.00025756021 0)
(0.80442196 0.00024607063 0)
(0.80165217 0.00023530498 0)
(0.79892701 0.00022522185 0)
(0.79624713 0.00021557776 0)
(0.79361292 0.00020632289 0)
(0.79102422 0.00019758108 0)
(0.78847425 0.00018928172 0)
(0.7859626 0.00018188981 0)
(0.7834723 0.00017438725 0)
(0.7810437 0.00017016511 0)
(0.77852258 0.00016122357 0)
(0.77635462 0.00018214764 4.7351313e-20)
(0.7725392 0.00014295386 0)
(0.99860937 0.00035050746 0)
(0.99859034 0.0004257451 0)
(0.99858911 0.00048128566 0)
(0.99858421 0.00051596693 0)
(0.9985636 0.00054206588 0)
(0.99852743 0.00056751293 0)
(0.99847814 0.00059352551 0)
(0.99841393 0.0006214597 0)
(0.99833028 0.00065550171 0)
(0.9982209 0.00070128636 0)
(0.99807982 0.00077308998 0)
(0.99790086 0.0008909775 0)
(0.99769866 0.0011161399 0)
(0.99755605 0.0014940575 0)
(0.997572 0.0019306687 0)
(0.99775137 0.0023016746 0)
(0.9980139 0.0025623161 0)
(0.99828592 0.0027387062 0)
(0.99854328 0.0028573705 0)
(0.99878462 0.0029289307 0)
(0.99900751 0.0029657202 0)
(0.99921033 0.002981112 0)
(0.99939513 0.0029820806 0)
(0.99956631 0.0029734294 0)
(0.99972771 0.0029552947 0)
(0.99987994 0.0029265617 0)
(1.0000213 0.0028879886 0)
(1.00015 0.0028421753 0)
(1.0002664 0.0027926027 0)
(1.0003725 0.0027403026 0)
(1.0004695 0.0026842941 0)
(1.0005567 0.0026253945 0)
(1.0006338 0.0025658047 0)
(1.0007017 0.0025071385 0)
(1.000761 0.0024505659 0)
(1.0008128 0.0023970177 0)
(1.0008583 0.0023471521 0)
(1.0008986 0.0023008629 0)
(1.0009346 0.0022583899 0)
(1.0009669 0.0022202716 0)
(1.0009965 0.0021863859 0)
(1.0010237 0.0021566096 0)
(1.0010479 0.0021307834 0)
(1.001067 0.0021084084 0)
(1.0010732 0.0020891779 0)
(1.0010508 0.0020727162 0)
(1.000973 0.002058798 0)
(1.0007857 0.0020465564 0)
(1.0004136 0.0020337655 0)
(0.99967842 0.0020179961 0)
(0.99838112 0.0019962079 0)
(0.99634441 0.0019650832 0)
(0.99336581 0.0019252145 0)
(0.98940568 0.0018729588 0)
(0.98457261 0.0018033341 0)
(0.97897068 0.0017209525 0)
(0.97274649 0.0016278597 0)
(0.96609917 0.0015288384 0)
(0.95926233 0.0014332422 0)
(0.95240602 0.0013451103 0)
(0.94565255 0.0012631995 0)
(0.93908823 0.0011864348 0)
(0.93278439 0.0011183851 0)
(0.92658182 0.0010572379 0)
(0.92051997 0.00099861622 0)
(0.91465325 0.00094228794 0)
(0.90902896 0.00088904991 0)
(0.90363241 0.00083990735 0)
(0.89843268 0.0007945537 0)
(0.89341279 0.00075281787 0)
(0.88856362 0.00071370052 0)
(0.88388818 0.00067659829 0)
(0.87937636 0.00064173379 0)
(0.87501026 0.00060914743 0)
(0.87077073 0.00057861869 0)
(0.86666547 0.00055011175 0)
(0.86269527 0.00052349367 0)
(0.85884355 0.00049833078 0)
(0.85509661 0.00047447514 0)
(0.85144721 0.00045180451 0)
(0.84789094 0.00043021689 0)
(0.84442252 0.0004098685 0)
(0.84103629 0.00039092842 0)
(0.83772769 0.00037318855 0)
(0.8344934 0.00035619504 0)
(0.83133072 0.00033991459 0)
(0.82823585 0.00032441477 0)
(0.82520692 0.00030979235 0)
(0.82222836 0.00029612883 0)
(0.81930316 0.00028321936 0)
(0.81643296 0.00027083411 0)
(0.8136172 0.00025895444 0)
(0.81085486 0.0002477871 0)
(0.80813625 0.00023725193 0)
(0.80546123 0.00022783971 0)
(0.80281428 0.00021823378 0)
(0.80023602 0.00021278683 0)
(0.79756945 0.00020080841 0)
(0.7952751 0.00022918344 4.4503377e-20)
(0.79125392 0.00017516434 0)
(0.99863256 0.00035911497 0)
(0.99861017 0.00042897945 0)
(0.99860285 0.00048387652 0)
(0.99859345 0.00052134793 0)
(0.99857112 0.00055038865 0)
(0.99853466 0.00057836112 0)
(0.99848557 0.00060747221 0)
(0.99842233 0.00063951765 0)
(0.99834088 0.00067880001 0)
(0.99823595 0.00073157764 0)
(0.99810302 0.00081131115 0)
(0.99793991 0.00093799255 0)
(0.99776278 0.0011587 0)
(0.99763961 0.0015080743 0)
(0.99765354 0.0019139541 0)
(0.99781456 0.0022681518 0)
(0.99805714 0.0025250231 0)
(0.99831466 0.0027023968 0)
(0.99856162 0.0028240839 0)
(0.99879515 0.002900425 0)
(0.99901279 0.002942574 0)
(0.9992123 0.0029621296 0)
(0.99939496 0.0029664773 0)
(0.99956447 0.0029601209 0)
(0.9997242 0.002943455 0)
(0.99987476 0.0029157679 0)
(1.0000146 0.0028778383 0)
(1.0001423 0.0028321195 0)
(1.0002579 0.0027818703 0)
(1.0003633 0.0027284769 0)
(1.0004594 0.0026716495 0)
(1.0005459 0.0026123759 0)
(1.0006223 0.0025527104 0)
(1.0006893 0.0024942108 0)
(1.0007481 0.002438032 0)
(1.0007999 0.0023850731 0)
(1.0008458 0.0023359018 0)
(1.000887 0.0022905021 0)
(1.0009243 0.0022490557 0)
(1.0009587 0.0022118137 0)
(1.0009908 0.0021784806 0)
(1.0010211 0.0021489171 0)
(1.0010503 0.002123009 0)
(1.0010788 0.0021004894 0)
(1.0011074 0.0020809988 0)
(1.001136 0.0020640824 0)
(1.0011647 0.0020494302 0)
(1.0011929 0.0020365897 0)
(1.0012189 0.002025329 0)
(1.0012361 0.0020158345 0)
(1.0012275 0.0020079176 0)
(1.0011639 0.0020009379 0)
(1.0009838 0.0019937524 0)
(1.0005916 0.0019840546 0)
(0.99976825 0.0019683143 0)
(0.9983022 0.0019431767 0)
(0.99600324 0.0019074085 0)
(0.99265656 0.0018584174 0)
(0.98834827 0.0017961931 0)
(0.98323508 0.0017221497 0)
(0.97746548 0.0016373579 0)
(0.97122045 0.0015449282 0)
(0.9647229 0.0014514421 0)
(0.95816471 0.0013641123 0)
(0.95165743 0.0012842791 0)
(0.94527307 0.0012088512 0)
(0.93911062 0.0011405879 0)
(0.93302466 0.0010788133 0)
(0.92703347 0.001019746 0)
(0.92120711 0.00096287909 0)
(0.91560979 0.00090906034 0)
(0.91022431 0.00085917032 0)
(0.9050174 0.00081278307 0)
(0.89997652 0.00076965023 0)
(0.89510049 0.00072904865 0)
(0.89039974 0.00069082634 0)
(0.885869 0.00065533809 0)
(0.8814893 0.00062229898 0)
(0.87724769 0.00059120736 0)
(0.87313868 0.00056179469 0)
(0.86915506 0.00053401558 0)
(0.86528348 0.00050799608 0)
(0.86152944 0.00048374982 0)
(0.85788566 0.00046099776 0)
(0.85434031 0.00043933995 0)
(0.85088489 0.00041873226 0)
(0.84751342 0.00039918693 0)
(0.84422146 0.00038073411 0)
(0.84100479 0.00036353087 0)
(0.83785876 0.00034734871 0)
(0.83477984 0.00033185262 0)
(0.83176543 0.00031701274 0)
(0.82881327 0.00030314767 0)
(0.82590974 0.00029011832 0)
(0.82305677 0.00027839669 0)
(0.82024053 0.00026638235 0)
(0.81750138 0.00025947922 0)
(0.81467827 0.0002440727 -7.3714806e-21)
(0.81224827 0.00028065441 0)
(0.80800722 0.00021007622 -1.1981587e-20)
(0.9986546 0.0003687293 0)
(0.99862964 0.00043382597 0)
(0.99861721 0.00048772665 0)
(0.99860374 0.0005272971 0)
(0.99857971 0.00055916923 0)
(0.99854302 0.00059001755 0)
(0.99849433 0.00062253592 0)
(0.99843224 0.00065867017 0)
(0.99835323 0.00070262169 0)
(0.99825297 0.00076094714 0)
(0.99812834 0.00084629658 0)
(0.99798007 0.0009776937 0)
(0.99782489 0.0011916173 0)
(0.99771904 0.0015139896 0)
(0.99773205 0.0018894174 0)
(0.99787684 0.0022250853 0)
(0.99810064 0.0024753893 0)
(0.9983439 0.0026512755 0)
(0.99858056 0.0027739401 0)
(0.99880629 0.002853572 0)
(0.99901847 0.0028996837 0)
(0.99921447 0.0029226671 0)
(0.99939481 0.0029299585 0)
(0.99956259 0.0029259164 0)
(0.99972072 0.0029113728 0)
(0.99986982 0.0028860157 0)
(1.0000086 0.0028506891 0)
(1.0001355 0.0028077296 0)
(1.0002509 0.0027601667 0)
(1.0003561 0.0027094904 0)
(1.0004521 0.0026556017 0)
(1.0005386 0.0025992759 0)
(1.0006152 0.0025423073 0)
(1.0006825 0.0024861973 0)
(1.0007417 0.0024320704 0)
(1.0007938 0.002380792 0)
(1.00084 0.0023329338 0)
(1.0008814 0.0022885724 0)
(1.0009189 0.0022478671 0)
(1.0009531 0.0022110605 0)
(1.0009849 0.0021780132 0)
(1.0010151 0.0021486866 0)
(1.0010443 0.0021230197 0)
(1.0010733 0.0021006732 0)
(1.0011025 0.0020811776 0)
(1.0011325 0.0020640017 0)
(1.0011632 0.0020487503 0)
(1.0011947 0.0020351787 0)
(1.0012267 0.0020232512 0)
(1.0012595 0.0020129239 0)
(1.0012934 0.0020038288 0)
(1.0013279 0.0019955153 0)
(1.0013625 0.0019872986 0)
(1.0013949 0.001978758 0)
(1.0014147 0.0019699912 0)
(1.0013992 0.0019610635 0)
(1.0013028 0.001951456 0)
(1.0010481 0.0019410138 0)
(1.0004377 0.0019267526 0)
(0.99923578 0.0019038514 0)
(0.9972242 0.0018710152 0)
(0.994207 0.0018234964 0)
(0.99011041 0.00176111 0)
(0.98519756 0.0016906467 0)
(0.97965164 0.0016106355 0)
(0.9736539 0.0015234239 0)
(0.96741504 0.001434538 0)
(0.96110983 0.0013506698 0)
(0.95483586 0.0012741873 0)
(0.94865347 0.0012021199 0)
(0.94265766 0.0011364409 0)
(0.93670475 0.0010761156 0)
(0.93082689 0.001017704 0)
(0.92510061 0.00096116016 0)
(0.91958479 0.00090770895 0)
(0.91424998 0.00085811246 0)
(0.9090776 0.00081200078 0)
(0.9040696 0.00076898701 0)
(0.89923503 0.00072854506 0)
(0.89457101 0.00069053597 0)
(0.89006367 0.00065503367 0)
(0.8856962 0.00062179101 0)
(0.8814723 0.00059056054 0)
(0.87739045 0.00056141498 0)
(0.87343666 0.00053399304 0)
(0.86959936 0.00050807674 0)
(0.8658718 0.00048361476 0)
(0.86224507 0.00046060381 0)
(0.85872565 0.00043915994 0)
(0.85530164 0.00041900038 0)
(0.85196331 0.00039979736 0)
(0.84870443 0.00038150232 0)
(0.84551981 0.00036441499 0)
(0.84240311 0.00034837548 0)
(0.83935393 0.00033396226 0)
(0.8363525 0.00031922968 0)
(0.83343783 0.00031065172 0)
(0.83044343 0.0002914228 0)
(0.82786541 0.00033698829 4.273498e-20)
(0.82338567 0.00024801223 0)
(0.99867571 0.00037919206 0)
(0.99864878 0.00044012058 0)
(0.99863213 0.00049286232 0)
(0.99861506 0.00053411086 0)
(0.99858942 0.00056864688 0)
(0.99855253 0.00060226001 0)
(0.99850434 0.00063788566 0)
(0.99844356 0.00067769419 0)
(0.99836722 0.00072587581 0)
(0.99827187 0.00078915289 0)
(0.99815566 0.00087937415 0)
(0.99802132 0.0010140572 0)
(0.99788556 0.0012216426 0)
(0.9977952 0.0015210681 0)
(0.99780817 0.0018693239 0)
(0.99793875 0.0021876395 0)
(0.99814499 0.0024317028 0)
(0.99837437 0.0026067502 0)
(0.99860086 0.0027311038 0)
(0.99881879 0.0028145267 0)
(0.99902533 0.0028650952 0)
(0.99921755 0.0028921775 0)
(0.99939538 0.0029030366 0)
(0.99956124 0.0029019206 0)
(0.99971764 0.0028899904 0)
(0.99986517 0.0028672199 0)
(1.0000027 0.0028344758 0)
(1.0001289 0.0027939456 0)
(1.0002438 0.0027484143 0)
(1.0003487 0.0026994032 0)
(1.0004446 0.0026470008 0)
(1.0005311 0.0025919472 0)
(1.0006079 0.0025359715 0)
(1.0006756 0.0024806288 0)
(1.0007352 0.0024270769 0)
(1.0007879 0.0023761997 0)
(1.0008347 0.0023286027 0)
(1.0008767 0.0022844377 0)
(1.0009147 0.0022438714 0)
(1.0009494 0.0022071564 0)
(1.0009817 0.002174214 0)
(1.0010123 0.0021449808 0)
(1.0010418 0.002119354 0)
(1.0010709 0.0020969835 0)
(1.0011002 0.0020774273 0)
(1.0011299 0.0020602174 0)
(1.0011603 0.002045036 0)
(1.0011913 0.0020316808 0)
(1.0012233 0.0020200023 0)
(1.0012564 0.0020097769 0)
(1.0012911 0.0020005506 0)
(1.0013277 0.0019918266 0)
(1.0013659 0.001983109 0)
(1.0014048 0.0019741152 0)
(1.0014442 0.0019648944 0)
(1.0014836 0.0019553168 0)
(1.0015223 0.0019455754 0)
(1.0015592 0.0019355508 0)
(1.0015882 0.001925051 0)
(1.0015898 0.0019144401 0)
(1.0015205 0.0019034613 0)
(1.0013107 0.0018916779 0)
(1.0007538 0.0018774263 0)
(0.99959201 0.001855045 0)
(0.99758944 0.0018225439 0)
(0.99454907 0.0017736811 0)
(0.99041945 0.0017092182 0)
(0.98547569 0.0016387282 0)
(0.97996194 0.0015611471 0)
(0.9740762 0.0014780667 0)
(0.96801746 0.0013939233 0)
(0.96192201 0.0013151453 0)
(0.95586257 0.0012431732 0)
(0.94989132 0.0011751147 0)
(0.94406683 0.0011126578 0)
(0.93824048 0.0010540614 0)
(0.93248897 0.00099674766 0)
(0.92689842 0.00094174678 0)
(0.92148829 0.00089025633 0)
(0.91623796 0.00084214969 0)
(0.91114413 0.00079717523 0)
(0.90621305 0.00075488882 0)
(0.90145171 0.00071509629 0)
(0.89685443 0.00067815772 0)
(0.89240716 0.00064362783 0)
(0.88810642 0.00061107492 0)
(0.88394741 0.00058054225 0)
(0.87991568 0.00055186227 0)
(0.87601079 0.00052501445 0)
(0.87222758 0.00049991365 0)
(0.86855575 0.00047620344 0)
(0.86498532 0.0004537691 0)
(0.86150771 0.00043286039 0)
(0.85812421 0.00041324384 0)
(0.85483149 0.00039559721 0)
(0.85160282 0.00037766763 0)
(0.84847445 0.00036706416 0)
(0.84527379 0.00034336995 0)
(0.84253056 0.00039858851 0)
(0.83778882 0.00028928968 0)
(0.99869604 0.0003903684 0)
(0.99866764 0.00044769309 0)
(0.99864755 0.00049921992 0)
(0.99862737 0.00054177015 0)
(0.99860023 0.00057869296 0)
(0.99856318 0.00061489223 0)
(0.99851563 0.00065343112 0)
(0.99845634 0.00069672227 0)
(0.99838288 0.00074891681 0)
(0.99829262 0.00081667362 0)
(0.99818479 0.00091094468 0)
(0.99806347 0.0010474438 0)
(0.99794489 0.0012484241 0)
(0.99786827 0.0015273333 0)
(0.99788175 0.0018503347 0)
(0.9979999 0.0021512443 0)
(0.99818982 0.0023880892 0)
(0.99840571 0.0025614107 0)
(0.99862214 0.0026865279 0)
(0.99883227 0.0027726621 0)
(0.999033 0.0028268017 0)
(0.99922125 0.0028573151 0)
(0.99939635 0.0028711583 0)
(0.99956014 0.0028725026 0)
(0.99971472 0.0028627661 0)
(0.99986063 0.0028421876 0)
(0.99999684 0.0028116875 0)
(1.0001222 0.0027733414 0)
(1.0002367 0.002729743 0)
(1.0003413 0.0026824537 0)
(1.0004369 0.0026317658 0)
(1.0005234 0.0025784272 0)
(1.0006004 0.0025240797 0)