/*--------------------------------*- C++ -*----------------------------------*\
  =========                 |
  \\      /  F ield         | OpenFOAM: The Open Source CFD Toolbox
   \\    /   O peration     | Website:  https://openfoam.org
    \\  /    A nd           | Version:  12
     \\/     M anipulation  |
\*---------------------------------------------------------------------------*/
FoamFile
{
    format      ascii;
    class       volScalarField;
    location    "1600";
    object      nut;
}
// * * * * * * * * * * * * * * * * * * * * * * * * * * * * * * * * * * * * * //

dimensions      [0 2 -1 0 0 0 0];

internalField   nonuniform List<scalar> 
7480
(
1.2607748e-06
1.5180553e-06
1.8396521e-06
2.2152242e-06
2.6429643e-06
3.1193656e-06
3.6366532e-06
4.1821753e-06
4.7389948e-06
5.2868482e-06
5.8042474e-06
6.272163e-06
6.6760708e-06
7.0073018e-06
7.2630844e-06
7.4468948e-06
7.5612714e-06
7.6388422e-06
7.6359965e-06
7.6137292e-06
7.5651481e-06
7.4975185e-06
7.4176783e-06
7.3315969e-06
7.2444484e-06
7.1607368e-06
7.0843556e-06
7.0184883e-06
6.9654896e-06
6.92651e-06
6.9009754e-06
6.8864042e-06
6.878787e-06
6.8736405e-06
6.8673077e-06
6.8577712e-06
6.8446796e-06
6.8287826e-06
6.8111505e-06
6.7925857e-06
6.7734357e-06
6.7537329e-06
6.7334569e-06
6.7127102e-06
6.6917196e-06
6.6707294e-06
6.6499026e-06
6.6293007e-06
6.6089291e-06
6.5887864e-06
6.5688806e-06
6.5492169e-06
6.5297984e-06
6.5106215e-06
6.4916793e-06
6.4729671e-06
6.4544813e-06
6.4362156e-06
6.4181632e-06
6.4003234e-06
6.3826907e-06
6.3652548e-06
6.348008e-06
6.3309449e-06
6.3140609e-06
6.2973525e-06
6.280816e-06
6.2644471e-06
6.2482419e-06
6.2321966e-06
6.2163068e-06
6.2005688e-06
6.1849794e-06
6.1695347e-06
6.1542311e-06
6.1390654e-06
6.1240347e-06
6.1091359e-06
6.0943663e-06
6.0797228e-06
6.0652029e-06
6.0508037e-06
6.0365227e-06
6.0223571e-06
6.0083043e-06
5.9943617e-06
5.9805266e-06
5.9667962e-06
5.9531679e-06
5.9396378e-06
5.9262039e-06
5.9128588e-06
5.8996059e-06
5.8864169e-06
5.8733297e-06
5.8602133e-06
5.8472962e-06
5.8337801e-06
5.8223618e-06
5.8012133e-06
2.3846775e-05
1.1948589e-05
7.3911532e-06
4.9339443e-06
3.4154686e-06
2.4380244e-06
1.8156966e-06
1.4370263e-06
1.2257682e-06
1.1328655e-06
1.1307654e-06
1.191985e-06
1.2964184e-06
1.4338625e-06
1.5961743e-06
1.7764864e-06
1.9710799e-06
2.1774718e-06
2.4013471e-06
2.6519646e-06
2.9455103e-06
3.3158849e-06
3.7860564e-06
4.3235863e-06
4.9261761e-06
5.5981449e-06
6.3375339e-06
7.144084e-06
8.0033633e-06
8.8814256e-06
9.7344353e-06
1.0518355e-05
1.1197293e-05
1.1758439e-05
1.2214935e-05
1.2593305e-05
1.292046e-05
1.3214408e-05
1.3481298e-05
1.3719519e-05
1.3926651e-05
1.41041e-05
1.4257678e-05
1.4394762e-05
1.4520942e-05
1.4638842e-05
1.4748832e-05
1.4850632e-05
1.4944682e-05
1.5032044e-05
1.5113692e-05
1.5190191e-05
1.5261755e-05
1.5328579e-05
1.5390981e-05
1.5449286e-05
1.5503715e-05
1.5554427e-05
1.5601639e-05
1.5645644e-05
1.5686463e-05
1.5724174e-05
1.5758914e-05
1.5790821e-05
1.5820038e-05
1.5846695e-05
1.5870901e-05
1.5892765e-05
1.591239e-05
1.5929868e-05
1.5945293e-05
1.5958757e-05
1.5970339e-05
1.5980126e-05
1.5988204e-05
1.5994656e-05
1.5999557e-05
1.6002978e-05
1.6004989e-05
1.6005656e-05
1.6005044e-05
1.6003211e-05
1.6000217e-05
1.5996115e-05
1.5990958e-05
1.5984796e-05
1.5977678e-05
1.596965e-05
1.5960756e-05
1.5951035e-05
1.5940529e-05
1.5929291e-05
1.5917332e-05
1.5904748e-05
1.589144e-05
1.587775e-05
1.5863091e-05
1.5848343e-05
1.5834834e-05
1.5805221e-05
0.00011658818
6.853699e-05
4.5589117e-05
3.2550325e-05
2.4040897e-05
1.8018014e-05
1.3584521e-05
1.0281447e-05
7.8270369e-06
6.0155411e-06
4.6854191e-06
3.7047676e-06
2.9751861e-06
2.4287471e-06
2.0178829e-06
1.7076902e-06
1.4742528e-06
1.2976521e-06
1.1656501e-06
1.0689793e-06
1.0009546e-06
9.5974386e-07
9.3853133e-07
9.7852133e-07
1.0909121e-06
1.2802955e-06
1.5597851e-06
1.9194224e-06
2.3765486e-06
2.9776286e-06
3.8095192e-06
4.8471187e-06
6.0383576e-06
7.3290127e-06
8.6706764e-06
9.9922799e-06
1.1224967e-05
1.2323869e-05
1.3276538e-05
1.4099421e-05
1.4825326e-05
1.548695e-05
1.6105345e-05
1.6687023e-05
1.7229648e-05
1.7730002e-05
1.818938e-05
1.8613953e-05
1.9010751e-05
1.9384554e-05
1.97374e-05
2.0070141e-05
2.0383945e-05
2.068055e-05
2.0961658e-05
2.1228488e-05
2.1481872e-05
2.1722567e-05
2.1951307e-05
2.2168618e-05
2.2375219e-05
2.257171e-05
2.2758614e-05
2.29364e-05
2.3105491e-05
2.3266275e-05
2.3419107e-05
2.3564318e-05
2.3702216e-05
2.3833089e-05
2.3957213e-05
2.4074854e-05
2.418626e-05
2.4291675e-05
2.4391333e-05
2.4485461e-05
2.4574277e-05
2.4657988e-05
2.4736797e-05
2.4810897e-05
2.4880471e-05
2.4945699e-05
2.5006752e-05
2.5063793e-05
2.511698e-05
2.5166467e-05
2.5212399e-05
2.5254921e-05
2.5294168e-05
2.5330289e-05
2.5363402e-05
2.5393644e-05
2.5421091e-05
2.5445974e-05
2.5468154e-05
2.5488375e-05
2.550529e-05
2.5522631e-05
2.5533015e-05
2.5547994e-05
0.00020008957
0.0001528871
0.00011715266
9.2164523e-05
7.4101666e-05
6.0426385e-05
4.9690068e-05
4.1067246e-05
3.406551e-05
2.8362485e-05
2.3721565e-05
1.9946939e-05
1.6872485e-05
1.4362474e-05
1.2308655e-05
1.0623214e-05
9.2371125e-06
8.0920453e-06
7.1417377e-06
6.3474596e-06
5.6770737e-06
5.1018409e-06
4.596726e-06
4.1437195e-06
3.7290183e-06
3.345396e-06
2.9862307e-06
2.6472802e-06
2.3344129e-06
2.0613287e-06
1.8435093e-06
1.7095066e-06
1.7624981e-06
2.0353598e-06
2.4898067e-06
3.1619286e-06
4.1324174e-06
5.4126817e-06
6.8833264e-06
8.462499e-06
1.0066768e-05
1.160591e-05
1.3018548e-05
1.4283086e-05
1.5414148e-05
1.6445995e-05
1.7411693e-05
1.8329803e-05
1.920347e-05
2.0028907e-05
2.0804393e-05
2.1533637e-05
2.2223237e-05
2.2878713e-05
2.3502946e-05
2.4097353e-05
2.4663495e-05
2.5203441e-05
2.5719175e-05
2.6212134e-05
2.6683497e-05
2.7134417e-05
2.7566013e-05
2.7979284e-05
2.8375101e-05
2.8754258e-05
2.9117486e-05
2.9465457e-05
2.9798789e-05
3.0118056e-05
3.0423801e-05
3.0716536e-05
3.0996742e-05
3.126488e-05
3.152139e-05
3.1766691e-05
3.200119e-05
3.2225273e-05
3.2439316e-05
3.2643676e-05
3.2838699e-05
3.3024717e-05
3.3202049e-05
3.3371003e-05
3.3531877e-05
3.3684959e-05
3.3830527e-05
3.3968852e-05
3.4100192e-05
3.4224816e-05
3.4342961e-05
3.4454887e-05
3.456077e-05
3.4660978e-05
3.4755404e-05
3.4845133e-05
3.4928032e-05
3.501146e-05
3.5074126e-05
3.5182576e-05
0.00023547958
0.00021053716
0.00018231416
0.00015673398
0.00013509172
0.00011699915
0.00010177131
8.8821827e-05
7.7719297e-05
6.8155772e-05
5.9904897e-05
5.2786413e-05
4.6646063e-05
4.1348964e-05
3.6778115e-05
3.283209e-05
2.9423521e-05
2.6475605e-05
2.3921196e-05
2.170245e-05
1.9769166e-05
1.8075862e-05
1.6582065e-05
1.5251161e-05
1.4050668e-05
1.2950668e-05
1.1923825e-05
1.094523e-05
9.9878301e-06
9.0388233e-06
8.0651491e-06
7.0910652e-06
6.1118641e-06
5.1955135e-06
4.3614896e-06
3.6540482e-06
3.1052611e-06
2.7387705e-06
2.7177134e-06
2.9982037e-06
3.5758953e-06
4.5030016e-06
5.8254666e-06
7.3984893e-06
9.1226836e-06
1.0892269e-05
1.260832e-05
1.4209896e-05
1.5681109e-05
1.7040744e-05
1.8320037e-05
1.9542444e-05
2.0715811e-05
2.1837855e-05
2.2906029e-05
2.3922649e-05
2.4893274e-05
2.582281e-05
2.6713964e-05
2.7568303e-05
2.8387616e-05
2.9174031e-05
2.9929478e-05
3.0655504e-05
3.1353463e-05
3.2024658e-05
3.2670292e-05
3.3291445e-05
3.3889099e-05
3.446417e-05
3.5017515e-05
3.5549935e-05
3.6062178e-05
3.6554952e-05
3.7028929e-05
3.7484747e-05
3.7923018e-05
3.8344328e-05
3.874924e-05
3.9138293e-05
3.9512005e-05
3.9870876e-05
4.0215389e-05
4.0546007e-05
4.0863183e-05
4.1167352e-05
4.1458938e-05
4.1738354e-05
4.2005998e-05
4.2262268e-05
4.2507537e-05
4.2742198e-05
4.296655e-05
4.3181102e-05
4.3385799e-05
4.3582095e-05
4.3766869e-05
4.3952322e-05
4.4096984e-05
4.4351106e-05
0.00024756503
0.00023753931
0.00022204784
0.00020410425
0.00018602183
0.00016894372
0.00015326046
0.00013901495
0.00012612485
0.00011447888
0.00010397042
9.4503235e-05
8.5988432e-05
7.8341904e-05
7.1483803e-05
6.5338462e-05
5.9836749e-05
5.4914053e-05
5.0510172e-05
4.6569432e-05
4.3040725e-05
3.9876558e-05
3.7032913e-05
3.4468403e-05
3.2144144e-05
3.0022867e-05
2.8069821e-05
2.6252245e-05
2.4536628e-05
2.2897494e-05
2.130029e-05
1.9715456e-05
1.8113528e-05
1.6489931e-05
1.4817184e-05
1.313942e-05
1.1435857e-05
9.7491502e-06
8.1665707e-06
6.7478453e-06
5.5494546e-06
4.6295446e-06
3.9881294e-06
3.8088386e-06
4.0175796e-06
4.623279e-06
5.6876733e-06
7.1521181e-06
8.8679356e-06
1.07295e-05
1.2617472e-05
1.4444961e-05
1.617106e-05
1.7796891e-05
1.9344791e-05
2.083507e-05
2.2274914e-05
2.3662088e-05
2.4994262e-05
2.6273482e-05
2.7504198e-05
2.8689967e-05
2.9832766e-05
3.0934175e-05
3.1996089e-05
3.3020448e-05
3.4008897e-05
3.4962852e-05
3.5883655e-05
3.6772581e-05
3.7630801e-05
3.8459398e-05
3.9259387e-05
4.0031726e-05
4.0777314e-05
4.1497007e-05
4.2191621e-05
4.2861934e-05
4.3508692e-05
4.413261e-05
4.4734375e-05
4.5314648e-05
4.5874069e-05
4.6413256e-05
4.693281e-05
4.7433312e-05
4.7915328e-05
4.8379412e-05
4.88261e-05
4.9255924e-05
4.9669389e-05
5.0067026e-05
5.0449253e-05
5.0816728e-05
5.1169448e-05
5.1509281e-05
5.1831868e-05
5.2155532e-05
5.2412502e-05
5.2865033e-05
0.00025195929
0.00024841238
0.00024151306
0.00023163485
0.00021981989
0.0002070921
0.00019417714
0.00018150938
0.00016932403
0.00015774003
0.00014681359
0.00013656717
0.00012700336
0.00011811153
0.00010987155
0.00010225644
9.523499e-05
8.8773291e-05
8.2835867e-05
7.7386484e-05
7.2388906e-05
6.7807402e-05
6.3607056e-05
5.9753752e-05
5.6214111e-05
5.295574e-05
4.9944664e-05
4.7146934e-05
4.4530488e-05
4.2065333e-05
3.9719791e-05
3.7461007e-05
3.5252768e-05
3.3067799e-05
3.0876694e-05
2.8661748e-05
2.6407908e-05
2.4099553e-05
2.1735827e-05
1.9340729e-05
1.693105e-05
1.4574767e-05
1.2306689e-05
1.0238754e-05
8.4186048e-06
6.9345855e-06
5.8135132e-06
5.1544606e-06
5.0392885e-06
5.3940222e-06
6.2682389e-06
7.6363756e-06
9.3327128e-06
1.1245996e-05
1.3246801e-05
1.523391e-05
1.715307e-05
1.8994671e-05
2.077233e-05
2.2498948e-05
2.4176751e-05
2.5802122e-05
2.7373396e-05
2.889268e-05
3.0363047e-05
3.1786494e-05
3.3164326e-05
3.4498007e-05
3.5789192e-05
3.7039397e-05
3.8249957e-05
3.9422143e-05
4.0557177e-05
4.1656205e-05
4.2720304e-05
4.3750503e-05
4.4747785e-05
4.5713084e-05
4.6647299e-05
4.755129e-05
4.8425885e-05
4.9271882e-05
5.0090056e-05
5.0881156e-05
5.1645911e-05
5.2385029e-05
5.3099203e-05
5.378911e-05
5.445541e-05
5.5098758e-05
5.5719778e-05
5.6319123e-05
5.6897331e-05
5.7455193e-05
5.7992749e-05
5.8512324e-05
5.9008085e-05
5.9505646e-05
5.9905323e-05
6.0608568e-05
0.00025403904
0.00025283431
0.00025012533
0.00024551657
0.00023906895
0.000231149
0.00022221203
0.00021266668
0.00020282956
0.00019292966
0.00018312857
0.00017354025
0.00016424527
0.00015530007
0.00014674282
0.00013859744
0.00013087662
0.00012358426
0.0001167174
0.00011026764
0.00010422233
9.8565718e-05
9.327974e-05
8.8344568e-05
8.3738876e-05
7.9440408e-05
7.5425266e-05
7.1667933e-05
6.814224e-05
6.4821999e-05
6.1680464e-05
5.8689964e-05
5.5820623e-05
5.3043604e-05
5.0329651e-05
4.7656067e-05
4.4977274e-05
4.2267353e-05
3.9509734e-05
3.6692869e-05
3.3808124e-05
3.0850062e-05
2.7865657e-05
2.4843542e-05
2.1826412e-05
1.8882458e-05
1.6054713e-05
1.3428718e-05
1.1107462e-05
9.1617799e-06
7.656693e-06
6.6687762e-06
6.3289188e-06
6.5416785e-06
7.3627093e-06
8.7147554e-06
1.0448282e-05
1.2436475e-05
1.4544832e-05
1.6667615e-05
1.8749567e-05
2.0779122e-05
2.2762667e-05
2.4703517e-05
2.6597954e-05
2.8441619e-05
3.0233724e-05
3.1975717e-05
3.3668896e-05
3.5314056e-05
3.6912128e-05
3.8464301e-05
3.9971745e-05
4.1435554e-05
4.2856807e-05
4.4236573e-05
4.5575884e-05
4.6875736e-05
4.8137094e-05
4.9360894e-05
5.0548042e-05
5.1699418e-05
5.2815881e-05
5.3898265e-05
5.4947389e-05
5.596405e-05
5.6949034e-05
5.7903109e-05
5.8827031e-05
5.9721548e-05
6.0587385e-05
6.1425292e-05
6.2235904e-05
6.3020131e-05
6.3778033e-05
6.4512419e-05
6.5215773e-05
6.5922026e-05
6.6494506e-05
6.7499879e-05
0.00025559564
0.00025513162
0.00025410619
0.0002521657
0.00024907862
0.00024479844
0.0002394308
0.00023316308
0.00022620385
0.00021874801
0.00021096343
0.00020298933
0.00019493953
0.00018690644
0.00017896461
0.00017117354
0.00016357988
0.0001562194
0.00014911863
0.00014229619
0.00013576392
0.00012952807
0.00012359027
0.00011794822
0.00011259619
0.00010752561
0.00010272526
9.8181255e-05
9.3877477e-05
8.9796057e-05
8.5917697e-05
8.2221763e-05
7.8685756e-05
7.5286225e-05
7.1998334e-05
6.8800085e-05
6.5660892e-05
6.2551027e-05
5.9445156e-05
5.6321841e-05
5.3161992e-05
4.9946998e-05
4.6657373e-05
4.3291565e-05
3.9831639e-05
3.6342762e-05
3.2781885e-05
2.9214516e-05
2.5689473e-05
2.2253596e-05
1.896977e-05
1.5921738e-05
1.32301e-05
1.0977074e-05
9.2211788e-06
8.1131197e-06
7.6983209e-06
7.9366976e-06
8.8616956e-06
1.030725e-05
1.2163116e-05
1.4280841e-05
1.6519153e-05
1.878089e-05
2.102241e-05
2.3233898e-05
2.5413383e-05
2.7555173e-05
2.9652492e-05
3.1701789e-05
3.3702363e-05
3.5654159e-05
3.7557076e-05
3.9411331e-05
4.1217498e-05
4.2976271e-05
4.4688382e-05
4.6354625e-05
4.7975827e-05
4.9552825e-05
5.108646e-05
5.2577576e-05
5.4027013e-05
5.5435606e-05
5.6804184e-05
5.813357e-05
5.9424578e-05
6.0678019e-05
6.1894694e-05
6.3075404e-05
6.4220929e-05
6.5332083e-05
6.6409566e-05
6.7454374e-05
6.8466563e-05
6.944943e-05
7.0393596e-05
7.1342181e-05
7.2116951e-05
7.3474669e-05
0.00025716885
0.00025691082
0.00025646895
0.00025566007
0.00025428606
0.00025219481
0.00024931257
0.00024564294
0.00024124611
0.00023621417
0.00023065166
0.00022466343
0.0002183483
0.00021179641
0.00020508832
0.00019829503
0.00019147825
0.00018469094
0.00017797797
0.00017137668
0.00016491756
0.00015862492
0.00015251764
0.00014660969
0.00014091063
0.00013542602
0.00013015787
0.00012510476
0.00012026209
0.00011562244
0.00011117595
0.00010691069
0.00010281258
9.8865803e-05
9.5052617e-05
9.1355409e-05
8.7753214e-05
8.4222496e-05
8.0739507e-05
7.728164e-05
7.3827454e-05
7.0357158e-05
6.6847801e-05
6.3284542e-05
5.9646569e-05
5.5946028e-05
5.2172042e-05
4.8287935e-05
4.4361922e-05
4.0352307e-05
3.6309765e-05
3.2285345e-05
2.832712e-05
2.4500449e-05
2.0860126e-05
1.7526745e-05
1.4610326e-05
1.2218794e-05
1.0406441e-05
9.4196957e-06
9.1327166e-06
9.6156268e-06
1.075939e-05
1.243705e-05
1.4503924e-05
1.679791e-05
1.9190164e-05
2.1607962e-05
2.4022171e-05
2.642076e-05
2.8793103e-05
3.1129212e-05
3.3422768e-05
3.5670741e-05
3.7871381e-05
4.0023446e-05
4.2126292e-05
4.4179765e-05
4.618397e-05
4.8139187e-05
5.0045842e-05
5.1904463e-05
5.3715649e-05
5.5480049e-05
5.7198351e-05
5.8871272e-05
6.049955e-05
6.2083941e-05
6.3625209e-05
6.5124136e-05
6.6581495e-05
6.7998105e-05
6.9374681e-05
7.0712258e-05
7.2010847e-05
7.3274221e-05
7.449098e-05
7.5714168e-05
7.6719828e-05
7.8478643e-05
0.00025890221
0.00025869333
0.00025842842
0.00025803519
0.00025740641
0.00025642351
0.00025498255
0.00025301235
0.00025048025
0.00024738846
0.0002437655
0.00023965728
0.00023511966
0.00023021302
0.00022499876
0.00021953686
0.00021388448
0.00020809487
0.00020221692
0.00019629478
0.00019036772
0.0001844702
0.00017863205
0.00017287864
0.0001672311
0.0001617065
0.00015631812
0.00015107561
0.00014598512
0.00014104952
0.00013626867
0.0001316398
0.00012715763
0.00012281468
0.00011860127
0.00011450637
0.00011051684
0.0001066169
0.00010278877
9.9013748e-05
9.5272654e-05
9.1546936e-05
8.7816228e-05
8.4062236e-05
8.0264778e-05
7.6414288e-05
7.2502616e-05
6.8503908e-05
6.442924e-05
6.0268401e-05
5.6011962e-05
5.1707405e-05
4.7302206e-05
4.2857931e-05
3.8403739e-05
3.3985383e-05
2.9672368e-05
2.5548009e-05
2.1669327e-05
1.8212393e-05
1.5271675e-05
1.2921848e-05
1.1391302e-05
1.0669075e-05
1.0781862e-05
1.1658327e-05
1.3176147e-05
1.5190754e-05
1.7523746e-05
2.0024351e-05
2.2598298e-05
2.5199445e-05
2.7804492e-05
3.0396289e-05
3.2961052e-05
3.5489692e-05
3.7976818e-05
4.0418847e-05
4.2813259e-05
4.5158454e-05
4.7453491e-05
4.9697851e-05
5.1891332e-05
5.4033966e-05
5.6125961e-05
5.8167654e-05
6.0159485e-05
6.210197e-05
6.3995688e-05
6.584127e-05
6.7639375e-05
6.939073e-05
7.1095986e-05
7.275614e-05
7.4371104e-05
7.5945079e-05
7.7464505e-05
7.8992966e-05
8.025695e-05
8.2463854e-05
0.00026082877
0.00026062889
0.00026041045
0.00026015107
0.0002598054
0.00025930914
0.00025858843
0.00025757167
0.00025619958
0.00025443107
0.00025224469
0.00024963703
0.00024661944
0.00024321455
0.00023945297
0.0002353706
0.00023100645
0.00022640089
0.00022159438
0.00021662642
0.00021153477
0.00020635494
0.0002011198
0.00019585937
0.0001906006
0.00018536731
0.00018018014
0.00017505657
0.0001700109
0.00016505428
0.00016019488
0.0001554381
0.00015078671
0.00014624108
0.00014179931
0.00013745752
0.00013320981
0.00012904791
0.00012496115
0.0001209369
0.00011696095
0.00011301845
0.00010909309
0.00010516833
0.00010122634
9.7252114e-05
9.3234043e-05
8.9153678e-05
8.5002603e-05
8.0771342e-05
7.6447233e-05
7.204257e-05
6.7539135e-05
6.2932292e-05
5.8266189e-05
5.3515037e-05
4.8701133e-05
4.3868001e-05
3.9042806e-05
3.4306338e-05
2.975316e-05
2.5433977e-05
2.1510067e-05
1.8115373e-05
1.5341324e-05
1.3407201e-05
1.2351368e-05
1.2197819e-05
1.2882139e-05
1.4302243e-05
1.6302572e-05
1.8690639e-05
2.1302224e-05
2.4029508e-05
2.6813551e-05
2.9620794e-05
3.2427463e-05
3.5215969e-05
3.7974601e-05
4.0695752e-05
4.3374124e-05
4.6005987e-05
4.8588807e-05
5.1120878e-05
5.3601075e-05
5.6028715e-05
5.8403439e-05
6.0725136e-05
6.2993886e-05
6.5209917e-05
6.7373568e-05
6.9485302e-05
7.1545568e-05
7.3555198e-05
7.5513906e-05
7.7426247e-05
7.927634e-05
8.1138836e-05
8.2687089e-05
8.538696e-05
0.00026295539
0.00026275589
0.00026254733
0.00026232547
0.00026207448
0.00026176635
0.00026136174
0.00026081364
0.00026007279
0.00025909323
0.00025783656
0.00025627449
0.00025438961
0.00025217499
0.00024963298
0.0002467738
0.00024361396
0.00024017479
0.00023648111
0.00023256009
0.0002284402
0.00022415039
0.00021971938
0.00021517513
0.00021054435
0.00020585212
0.00020112161
0.00019637386
0.00019162759
0.00018689908
0.00018220212
0.00017754809
0.00017294596
0.00016840249
0.00016392227
0.00015950784
0.00015515975
0.00015087637
0.00014665376
0.00014248573
0.00013836402
0.00013427885
0.00013021884
0.00012617142
0.00012212255
0.00011805815
0.00011396569
0.00010983029
0.00010563931
0.00010138122
9.7042758e-05
9.2620549e-05
8.8104365e-05
8.3482316e-05
7.876579e-05
7.3948594e-05
6.902223e-05
6.4011903e-05
5.8909585e-05
5.3766366e-05
4.8583839e-05
4.3397965e-05
3.8282159e-05
3.3336971e-05
2.8639377e-05
2.4344447e-05
2.0600777e-05
1.7509189e-05
1.5314731e-05
1.4042384e-05
1.3740558e-05
1.4336613e-05
1.5752588e-05
1.7804924e-05
2.0289435e-05
2.3035363e-05
2.5928587e-05
2.8902153e-05
3.1914699e-05
3.4937122e-05
3.7948806e-05
4.0935857e-05
4.3888777e-05
4.6800817e-05
4.9667188e-05
5.2484508e-05
5.525039e-05
5.7963169e-05
6.0621723e-05
6.3225336e-05
6.5773602e-05
6.8266382e-05
7.0703648e-05
7.3085849e-05
7.541232e-05
7.7687828e-05
7.9893972e-05
8.2116903e-05
8.3973446e-05
8.7208552e-05
0.00026528435
0.00026508382
0.00026487629
0.00026466306
0.0002644397
0.00026419586
0.00026391426
0.00026357045
0.0002631342
0.00026257181
0.0002618491
0.00026093414
0.00025979947
0.00025842345
0.00025679095
0.0002548934
0.00025272845
0.00025029941
0.00024761445
0.00024468581
0.00024152903
0.00023816212
0.00023460491
0.00023087835
0.00022700395
0.00022300324
0.00021889735
0.00021470661
0.00021045021
0.00020614592
0.0002018099
0.00019745662
0.00019309875
0.00018874718
0.00018441103
0.00018009768
0.00017581268
0.00017155973
0.00016734049
0.00016315448
0.00015899912
0.00015486996
0.00015076075
0.00014666365
0.00014256915
0.00013846652
0.00013434501
0.00013019264
0.00012599744
0.00012174782
0.00011743116
0.00011303857
0.00010856036
0.00010398439
9.9307235e-05
9.4524079e-05
8.9625559e-05
8.461721e-05
7.9475418e-05
7.4263548e-05
6.8921623e-05
6.3494777e-05
5.8008331e-05
5.2493806e-05
4.6969849e-05
4.1514801e-05
3.6233407e-05
3.1214288e-05
2.6635004e-05
2.2635242e-05
1.9340713e-05
1.7029947e-05
1.5676176e-05
1.5346922e-05
1.5996129e-05
1.7512412e-05
1.9692534e-05
2.2325518e-05
2.5240089e-05
2.832147e-05
3.1498746e-05
3.4725501e-05
3.7969189e-05
4.1207227e-05
4.4424135e-05
4.7609016e-05
5.075406e-05
5.3853652e-05
5.6903733e-05
5.9901365e-05
6.2844438e-05
6.5731481e-05
6.856143e-05
7.1333902e-05
7.4047512e-05
7.6706964e-05
7.9291046e-05
8.1897725e-05
8.4084023e-05
8.7893285e-05
0.0002678177
0.00026761606
0.00026740778
0.00026719561
0.00026697882
0.00026675411
0.0002665149
0.00026625047
0.00026594552
0.00026558047
0.00026513245
0.00026457674
0.00026388844
0.00026304395
0.00026202231
0.00026080603
0.00025938173
0.00025774033
0.00025587707
0.00025379127
0.00025148602
0.00024896774
0.0002462457
0.00024333154
0.00024023874
0.00023698214
0.0002335775
0.00023004103
0.000226389
0.0002226374
0.00021880161
0.00021489625
0.0002109349
0.0002069301
0.00020289318
0.00019883425
0.00019476203
0.00019068383
0.00018660531
0.00018253036
0.00017846103
0.00017439755
0.00017033836
0.00016628019
0.00016221806
0.00015814535
0.00015405449
0.00014993675
0.00014578258
0.00014158202
0.00013732419
0.00013299924
0.0001285975
0.0001241078
0.00011952175
0.00011483227
0.00011002977
0.00010511118
0.00010006003
9.4896907e-05
8.9601802e-05
8.4171536e-05
7.8632922e-05
7.2980555e-05
6.7234673e-05
6.1414546e-05
5.5578708e-05
4.9737428e-05
4.39773e-05
3.8406809e-05
3.3121818e-05
2.8347499e-05
2.4184999e-05
2.0844718e-05
1.8508419e-05
1.7225548e-05
1.7021278e-05
1.7865306e-05
1.9591827e-05
2.1981033e-05
2.482006e-05
2.7943403e-05
3.124047e-05
3.4639876e-05
3.8093129e-05
4.1566412e-05
4.5036325e-05
4.8486498e-05
5.1905226e-05
5.5284047e-05
5.8616793e-05
6.1898951e-05
6.5127155e-05
6.8299242e-05
7.1412379e-05
7.4470663e-05
7.7449551e-05
8.0458982e-05
8.2992954e-05
8.7410752e-05
0.00027055783
0.00027035513
0.00027014581
0.00026993299
0.00026971693
0.00026949674
0.00026927015
0.00026903302
0.00026877866
0.00026849743
0.00026817664
0.00026780088
0.00026735266
0.00026681332
0.00026616394
0.00026538631
0.00026446374
0.00026338171
0.00026212832
0.00026069458
0.00025907453
0.00025726521
0.00025526658
0.00025308121
0.00025071412
0.00024817238
0.00024546477
0.00024260146
0.00023959361
0.00023645304
0.00023319193
0.00022982253
0.00022635695
0.00022280696
0.00021918384
0.00021549828
0.00021176018
0.00020797852
0.00020416118
0.00020031478
0.00019644451
0.00019255405
0.00018864556
0.00018471959
0.00018077509
0.00017680939
0.00017281845
0.00016879693
0.00016473833
0.00016063526
0.00015647929
0.00015226173
0.00014797383
0.00014360585
0.00013914856
0.00013459363
0.00012993163
0.00012515592
0.00012025358
0.00011522633
0.00011006511
0.00010476108
9.9320044e-05
9.3727185e-05
8.8015077e-05
8.215727e-05
7.619021e-05
7.0122004e-05
6.3979206e-05
5.7822125e-05
5.1683775e-05
4.5659064e-05
3.9841036e-05
3.4377795e-05
2.9470877e-05
2.5263375e-05
2.2025318e-05
1.9815858e-05
1.8746107e-05
1.8843662e-05
2.0011039e-05
2.204653e-05
2.4717503e-05
2.7815538e-05
3.1186321e-05
3.4726578e-05
3.8367142e-05
4.2060198e-05
4.5772499e-05
4.948082e-05
5.3168636e-05
5.6824015e-05
6.0438204e-05
6.4005047e-05
6.7518633e-05
7.0981277e-05
7.4364099e-05
7.7788826e-05
8.068318e-05
8.5737357e-05
0.00027350735
0.0002733036
0.00027309322
0.0002728794
0.00027266265
0.00027244277
0.00027221899
0.00027198981
0.00027175262
0.00027150321
0.00027123548
0.00027094122
0.00027061012
0.00027023005
0.00026978739
0.00026926763
0.00026865599
0.00026793795
0.00026709988
0.00026612947
0.00026501615
0.00026375131
0.00026232848
0.00026074345
0.00025899417
0.0002570807
0.00025500508
0.00025277106
0.00025038392
0.00024785021
0.00024517746
0.00024237399
0.00023944865
0.00023641063
0.00023326932
0.0002300341
0.00022671418
0.00022331843
0.0002198552
0.00021633211
0.00021275587
0.00020913218
0.00020546555
0.00020175926
0.00019801522
0.00019423393
0.00019041451
0.00018655477
0.00018265124
0.00017869934
0.00017469334
0.00017062668
0.00016649231
0.00016228227
0.00015798827
0.00015360217
0.00014911513
0.00014451944
0.00013980429
0.00013496427
0.00012999182
0.00012487727
0.00011961752
0.00011420156
0.00010863808
0.00010291296
9.7032996e-05
9.1004647e-05
8.4829237e-05
7.8541518e-05
7.2149794e-05
6.5697404e-05
5.9231704e-05
5.2826843e-05
4.6560121e-05
4.0547472e-05
3.4994747e-05
3.0061324e-05
2.5984592e-05
2.2931858e-05
2.1027938e-05
2.0366326e-05
2.092082e-05
2.2527642e-05
2.4955848e-05
2.796819e-05
3.1369481e-05
3.5020856e-05
3.8828245e-05
4.2727037e-05
4.6672309e-05
5.0632677e-05
5.4585867e-05
5.8516134e-05
6.2410567e-05
6.6266959e-05
7.0049927e-05
7.3892059e-05
7.7151332e-05
8.2859703e-05
0.00027666903
0.00027646421
0.00027625275
0.00027603786
0.0002758201
0.00027559944
0.00027537556
0.0002751479
0.00027491546
0.00027467655
0.00027442852
0.0002741675
0.00027388819
0.00027358376
0.00027324588
0.00027286488
0.00027242997
0.00027192965
0.00027135205
0.00027068534
0.00026991817
0.00026903999
0.00026804137
0.00026691422
0.000265652
0.00026424975
0.00026270423
0.00026101378
0.00025917832
0.0002571992
0.00025507908
0.00025282172
0.0002504319
0.00024791519
0.00024527784
0.00024252661
0.00023966863
0.0002367112
0.00023366161
0.00023052697
0.00022731403
0.000224029
0.00022067738
0.00021726387
0.00021379217
0.00021026491
0.00020668355
0.00020304841
0.00019935859
0.00019561206
0.00019180567
0.00018793519
0.00018399564
0.00017998108
0.00017588486
0.00017169996
0.00016741868
0.00016303355
0.00015853539
0.00015391669
0.00014916973
0.00014428523
0.00013925647
0.00013407329
0.00012873383
0.00012322827
0.00011755428
0.00011170914
0.00010567933
9.9502009e-05
9.3149313e-05
8.6657985e-05
8.0039635e-05
7.333031e-05
6.6569142e-05
5.9807566e-05
5.3162213e-05
4.6701894e-05
4.0597787e-05
3.5030392e-05
3.0228424e-05
2.6410418e-05
2.3726901e-05
2.2331306e-05
2.2260428e-05
2.3399341e-05
2.5534642e-05
2.8414743e-05
3.1810718e-05
3.5548099e-05
3.9505221e-05
4.3598327e-05
4.7769184e-05
5.1977413e-05
5.6192934e-05
6.0402163e-05
6.4558192e-05
6.880167e-05
7.2416663e-05
7.8780642e-05
0.0002800457
0.0002798398
0.00027962722
0.00027941122
0.00027919237
0.00027897067
0.00027874592
0.00027851784
0.000278286
0.0002780497
0.00027780786
0.00027755879
0.00027730002
0.00027702814
0.00027673868
0.00027642598
0.0002760833
0.00027570283
0.0002752759
0.00027479319
0.00027424499
0.00027362152
0.00027291317
0.00027211079
0.00027120597
0.00027019118
0.00026905998
0.00026780708
0.00026642845
0.00026492128
0.00026328401
0.00026151625
0.00025961872
0.00025759316
0.00025544224
0.00025316947
0.00025077907
0.0002482758
0.00024566488
0.00024295175
0.00024014197
0.000237241
0.00023425411
0.00023118613
0.0002280414
0.00022482353
0.00022153533
0.00021817871
0.00021475464
0.00021126306
0.00020770289
0.00020407205
0.00020036753
0.00019658541
0.00019272087
0.00018876845
0.00018472193
0.00018057478
0.00017631938
0.00017194823
0.00016745377
0.00016282741
0.00015806135
0.00015314601
0.00014807514
0.00014283977
0.0001374329
0.00013184888
0.00012607603
0.00012012375
0.00011396767
0.00010765
0.00010113837
9.4459955e-05
8.7632967e-05
8.0676586e-05
7.3647837e-05
6.6586729e-05
5.957492e-05
5.2723496e-05
4.6151325e-05
4.0042818e-05
3.4610371e-05
3.0099278e-05
2.6706054e-05
2.4628163e-05
2.3952093e-05
2.4615993e-05
2.6434502e-05
2.9153784e-05
3.2519731e-05
3.632512e-05
4.0419873e-05
4.4699898e-05
4.9091024e-05
5.3550279e-05
5.8006675e-05
6.2601227e-05
6.653799e-05
7.3530248e-05
0.0002836403
0.00028343327
0.00028321954
0.0002830024
0.00028278242
0.00028255959
0.00028233376
0.00028210472
0.00028187222
0.0002816359
0.00028139529
0.00028114965
0.00028089791
0.00028063849
0.00028036922
0.00028008716
0.00027978855
0.00027946874
0.00027912221
0.00027874257
0.00027832275
0.00027785508
0.00027733151
0.00027674379
0.00027608371
0.00027534327
0.00027451493
0.0002735917
0.00027256734
0.00027143645
0.00027019452
0.00026883799
0.00026736429
0.00026577183
0.00026405994
0.0002622289
0.00026027984
0.00025821465
0.00025603591
0.00025374676
0.00025135074
0.00024885171
0.00024625369
0.00024356069
0.00024077658
0.00023790495
0.00023494894
0.00023191114
0.00022879347
0.00022559711
0.00022232241
0.00021896888
0.00021553518
0.00021201905
0.00020841743
0.00020472643
0.00020094139
0.00019705708
0.00019306738
0.0001889657
0.00018474515
0.00018039807
0.00017591676
0.0001712924
0.00016651727
0.00016158261
0.00015647982
0.00015120136
0.00014573589
0.00014008199
0.00013422453
0.00012817342
0.00012191434
0.00011545146
0.00010879073
0.0001019363
9.4912029e-05
8.7738403e-05
8.0451405e-05
7.3109714e-05
6.5777575e-05
5.8553866e-05
5.1571702e-05
4.499107e-05
3.9012558e-05
3.388323e-05
2.9853225e-05
2.715291e-05
2.591256e-05
2.6120227e-05
2.7622811e-05
3.0172341e-05
3.349721e-05
3.7362145e-05
4.1587938e-05
4.6057849e-05
5.0645333e-05
5.5470939e-05
5.9647557e-05
6.7186714e-05
0.00028745583
0.00028724762
0.00028703271
0.00028681437
0.00028659321
0.00028636922
0.00028614225
0.0002859121
0.00028567856
0.00028544142
0.00028520037
0.00028495508
0.00028470504
0.00028444956
0.00028418763
0.00028391787
0.00028363836
0.00028334664
0.00028303954
0.00028271321
0.00028236308
0.00028198389
0.00028156977
0.00028111432
0.00028061075
0.00028005205
0.0002794311
0.00027874085
0.00027797449
0.00027712555
0.00027618805
0.00027515658
0.00027402641
0.00027279355
0.00027145478
0.00027000769
0.00026845069
0.00026678297
0.00026500448
0.00026311585
0.00026111833
0.00025901369
0.00025680411
0.0002544921
0.00025208032
0.00024957149
0.00024696822
0.00024427294
0.00024148769
0.0002386141
0.00023565323
0.00023260551
0.00022947069
0.00022624779
0.00022293507
0.00021953005
0.00021602947
0.00021242939
0.00020872512
0.00020491125
0.00020098192
0.00019693051
0.00019275004
0.00018843264
0.0001839705
0.00017935526
0.00017457809
0.00016963063
0.00016450219
0.00015918639
0.00015367087
0.00014795339
0.00014202447
0.00013587798
0.00012951076
0.00012292049
0.0001161138
0.00010909676
0.00010188265
9.4497858e-05
8.6974676e-05
7.9361497e-05
7.172961e-05
6.4169693e-05
5.6800498e-05
4.9783557e-05
4.3317588e-05
3.7651946e-05
3.306353e-05
2.9809093e-05
2.8060747e-05
2.785158e-05
2.9060769e-05
3.1451044e-05
3.4737309e-05
3.8669822e-05
4.3003586e-05
4.7787805e-05
5.2023101e-05
5.9918137e-05
0.00029149537
0.00029128593
0.00029106977
0.0002908502
0.00029062782
0.00029040262
0.00029017445
0.00028994313
0.00028970846
0.00028947023