/*--------------------------------*- C++ -*----------------------------------*\
  =========                 |
  \\      /  F ield         | OpenFOAM: The Open Source CFD Toolbox
   \\    /   O peration     | Website:  https://openfoam.org
    \\  /    A nd           | Version:  12
     \\/     M anipulation  |
\*---------------------------------------------------------------------------*/
FoamFile
{
    format      ascii;
    class       volVectorField;
    location    "1600";
    object      U;
}
// * * * * * * * * * * * * * * * * * * * * * * * * * * * * * * * * * * * * * //

dimensions      [0 1 -1 0 0 0 0];

internalField   nonuniform List<vector> 
7480
(
(0.99633331 0.00031328113 0)
(0.99394768 0.0003413808 -2.521841e-20)
(0.9909104 0.00051085479 0)
(0.98718729 0.0006843937 0)
(0.982697 0.00086787836 0)
(0.97736967 0.00099725534 -1.6325546e-17)
(0.97110496 0.0010787913 -3.0066653e-19)
(0.96387839 0.0013091319 0)
(0.95563595 0.0015525731 0)
(0.94635905 0.0017873458 0)
(0.93608281 0.002006597 0)
(0.92488151 0.0022012629 0)
(0.91286109 0.0023625182 0)
(0.90015688 0.0024777527 0)
(0.88691781 0.0025653947 0)
(0.87329962 0.0025651534 0)
(0.85947294 0.0025402329 0)
(0.84555219 0.0024673641 0)
(0.83171701 0.0023501971 0)
(0.81808362 0.00220078 0)
(0.80477494 0.0020210231 0)
(0.79192619 0.0018149999 0)
(0.77969435 0.0015940458 0)
(0.76820769 0.0013688581 0)
(0.75756763 0.0011452131 0)
(0.74785397 0.00092909945 0)
(0.73911613 0.00072525241 0)
(0.73137528 0.00054039708 0)
(0.72461724 0.00038180546 0)
(0.71877327 0.00025582779 0)
(0.71372273 0.00016790017 0)
(0.70931259 0.00011762782 0)
(0.70537482 9.8712615e-05 0)
(0.70175214 0.00010136763 0)
(0.69832534 0.00011443524 0)
(0.69502121 0.00012854114 0)
(0.69180399 0.00013798006 0)
(0.68866072 0.00014079879 0)
(0.68558471 0.00013867336 0)
(0.68256471 0.00013467295 0)
(0.67958472 0.00013119539 0)
(0.67662975 0.00012908407 0)
(0.67369286 0.00012780882 0)
(0.67077731 0.00012647534 0)
(0.66789165 0.00012452786 0)
(0.66504308 0.0001218496 0)
(0.6622346 0.00011863043 0)
(0.65946629 0.00011512522 0)
(0.65673785 0.00011151815 0)
(0.65404949 0.00010786077 0)
(0.65140166 0.00010416109 0)
(0.64879482 0.00010043445 0)
(0.64622918 9.6737135e-05 0)
(0.64370413 9.3134479e-05 0)
(0.64121869 8.963433e-05 0)
(0.63877235 8.6224692e-05 0)
(0.63636479 8.2919099e-05 0)
(0.63399512 7.9735536e-05 0)
(0.63166231 7.666048e-05 0)
(0.62936586 7.3686906e-05 0)
(0.62710491 7.0840371e-05 0)
(0.62487817 6.8112158e-05 0)
(0.6226848 6.5491307e-05 0)
(0.6205239 6.2984331e-05 0)
(0.61839446 6.0577202e-05 0)
(0.61629575 5.8261736e-05 0)
(0.61422696 5.6044168e-05 0)
(0.61218716 5.3915722e-05 0)
(0.61017558 5.1871415e-05 0)
(0.60819143 4.9913882e-05 0)
(0.60623383 4.8036148e-05 0)
(0.60430201 4.6235978e-05 0)
(0.60239517 4.4510265e-05 0)
(0.60051256 4.285455e-05 0)
(0.59865347 4.1266661e-05 0)
(0.59681719 3.9742399e-05 0)
(0.59500305 3.8279298e-05 0)
(0.59321041 3.687487e-05 0)
(0.59143863 3.5526551e-05 0)
(0.58968711 3.4231866e-05 0)
(0.58795525 3.298846e-05 0)
(0.58624248 3.1794137e-05 0)
(0.58454825 3.0646838e-05 0)
(0.58287201 2.9544648e-05 0)
(0.58121323 2.8485744e-05 0)
(0.57957138 2.7468487e-05 0)
(0.57794595 2.6491263e-05 0)
(0.57633639 2.5552924e-05 0)
(0.57474222 2.4651985e-05 0)
(0.57316272 2.378865e-05 0)
(0.5715976 2.2959978e-05 0)
(0.57004538 2.2172226e-05 0)
(0.56850694 2.1413939e-05 0)
(0.56697687 2.0721183e-05 0)
(0.5654631 2.0025874e-05 0)
(0.56394028 1.9557927e-05 0)
(0.56245231 1.8315497e-05 -1.080877e-20)
(0.56086856 3.1967424e-05 8.2353327e-20)
(0.55956495 1.8333285e-05 -2.535625e-19)
(0.55710502 3.3651852e-05 -4.2799309e-18)
(0.99783844 0.00049213427 0)
(0.99773705 0.00072925461 0)
(0.99763671 0.00093098325 0)
(0.99748157 0.0010913482 -5.5163607e-19)
(0.99727284 0.0012412209 0)
(0.99701619 0.0013946196 0)
(0.9966952 0.0015771004 0)
(0.99627083 0.0017696131 0)
(0.99569375 0.0019223062 0)
(0.99490929 0.0020462459 0)
(0.99385226 0.002146348 0)
(0.99244948 0.0022207424 0)
(0.99062614 0.0022685118 0)
(0.98830991 0.0022932048 0)
(0.98543802 0.0022903636 0)
(0.98195599 0.0022784327 0)
(0.97782777 0.0022518073 0)
(0.97301536 0.0022142685 0)
(0.96751733 0.0021689455 0)
(0.96132141 0.0021206642 0)
(0.9544298 0.0020707445 0)
(0.94683677 0.0020123732 0)
(0.93858092 0.0019330487 0)
(0.92976325 0.001834566 0)
(0.92048134 0.001724524 0)
(0.91084946 0.0016037889 0)
(0.9010094 0.0014742367 0)
(0.89111463 0.0013366466 0)
(0.88133026 0.0011920072 0)
(0.8718314 0.0010419026 0)
(0.86281677 0.00089478335 0)
(0.8544429 0.00076117972 0)
(0.84678042 0.00064646016 0)
(0.83981201 0.00055532649 0)
(0.83346258 0.00048931242 0)
(0.827621 0.00044659692 0)
(0.82216925 0.00042232545 0)
(0.81701283 0.00040926796 0)
(0.81208973 0.00040009949 0)
(0.80736499 0.00039006186 0)
(0.80282071 0.00037737706 0)
(0.79844438 0.00036221463 0)
(0.79422246 0.00034538308 0)
(0.79013895 0.00032808761 0)
(0.78617622 0.00031152877 0)
(0.78231754 0.00029632579 0)
(0.77855018 0.0002824145 0)
(0.7748673 0.00026943673 0)
(0.77126608 0.00025717634 0)
(0.76774408 0.00024550707 0)
(0.76429754 0.00023437645 0)
(0.76092219 0.00022374263 0)
(0.75761473 0.00021360122 0)
(0.75437267 0.00020396101 0)
(0.75119374 0.00019476343 0)
(0.74807596 0.0001859658 0)
(0.74501745 0.00017758115 0)
(0.74201611 0.00016961469 0)
(0.73906986 0.0001620225 0)
(0.73617698 0.00015477777 0)
(0.73333586 0.00014790145 0)
(0.73054469 0.00014135439 0)
(0.72780202 0.00013511227 0)
(0.72510644 0.00012918494 0)
(0.7224563 0.00012353892 0)
(0.71985025 0.00011815555 0)
(0.71728694 0.00011303982 0)
(0.71476491 0.00010816653 0)
(0.71228289 0.00010352189 0)
(0.70983963 9.9105062e-05 0)
(0.70743382 9.4897112e-05 0)
(0.70506426 9.0889784e-05 0)
(0.70272977 8.7072758e-05 0)
(0.70042923 8.3434737e-05 0)
(0.69816152 7.9968589e-05 0)
(0.69592558 7.6663077e-05 0)
(0.6937204 7.3510569e-05 0)
(0.691545 7.0503345e-05 0)
(0.68939844 6.7633913e-05 0)
(0.68727981 6.4895224e-05 0)
(0.68518822 6.2280631e-05 0)
(0.68312283 5.9783929e-05 0)
(0.68108282 5.7399303e-05 0)
(0.6790674 5.5121339e-05 0)
(0.67707578 5.294494e-05 0)
(0.6751072 5.0865449e-05 0)
(0.67316092 4.8878425e-05 0)
(0.67123618 4.6980248e-05 0)
(0.66933227 4.51669e-05 0)
(0.66744829 4.3436897e-05 0)
(0.66558372 4.1785565e-05 0)
(0.66373686 4.0219471e-05 0)
(0.6619084 3.8724765e-05 0)
(0.66009257 3.7345908e-05 0)
(0.65829731 3.6005668e-05 0)
(0.65649628 3.4957108e-05 0)
(0.65473452 3.3850442e-05 1.095827e-20)
(0.65287448 3.5136221e-05 0)
(0.65131802 3.026809e-05 0)
(0.64845707 3.8820388e-05 0)
(0.9979078 0.00049610165 0)
(0.99787608 0.00069584559 0)
(0.99786794 0.00084949236 0)
(0.99784481 0.00098874758 0)
(0.99781428 0.0011424068 0)
(0.99779201 0.0013165573 0)
(0.99778343 0.0015023643 0)
(0.99778815 0.0016883491 0)
(0.99780974 0.0018784638 0)
(0.99785073 0.0020779175 0)
(0.99790833 0.0022809354 0)
(0.99797712 0.0024785442 0)
(0.99804912 0.002663785 0)
(0.9981135 0.0028305702 0)
(0.99815832 0.00297647 0)
(0.99816823 0.0030976491 0)
(0.99812573 0.0031928039 0)
(0.99801328 0.0032605436 0)
(0.99780702 0.0033009639 0)
(0.99747914 0.0033116971 0)
(0.99699619 0.0032976551 0)
(0.99631961 0.0032565403 0)
(0.99535236 0.0031903732 0)
(0.99396266 0.0031009015 0)
(0.99203937 0.0029890886 0)
(0.98946829 0.0028577333 0)
(0.98612735 0.002710339 0)
(0.98189819 0.0025517031 0)
(0.97667424 0.0023884828 0)
(0.97037905 0.0022284483 0)
(0.9629707 0.0020629156 0)
(0.95459837 0.0018901794 0)
(0.94548796 0.0017227992 0)
(0.93596391 0.0015622752 0)
(0.92637725 0.0014080382 0)
(0.91705428 0.0012582012 0)
(0.90825942 0.001115945 0)
(0.90015695 0.00099024384 0)
(0.89276359 0.00088690038 0)
(0.88599621 0.00080726044 0)
(0.87973107 0.00074951753 0)
(0.87384542 0.00070897685 0)
(0.86824972 0.00067859355 0)
(0.86289189 0.00065171687 0)
(0.8577454 0.00062436335 0)
(0.85279464 0.00059574033 0)
(0.8480253 0.00056648481 0)
(0.84342189 0.00053753646 0)
(0.83896805 0.00050988654 0)
(0.83464789 0.00048404726 0)
(0.83044792 0.00045999437 0)
(0.82635847 0.00043741986 0)
(0.82237318 0.00041612165 0)
(0.81848671 0.00039603173 0)
(0.81469337 0.00037702647 0)
(0.81098774 0.00035900714 0)
(0.80736532 0.00034194649 0)
(0.80382218 0.00032580497 0)
(0.80035476 0.00031048599 0)
(0.79695994 0.00029593588 0)
(0.79363469 0.0002821709 0)
(0.79037607 0.00026910991 0)
(0.78718165 0.00025669847 0)
(0.7840491 0.00024493835 0)
(0.78097599 0.00023376902 0)
(0.77796023 0.00022315161 0)
(0.7749998 0.00021308281 0)
(0.77209265 0.00020351576 0)
(0.76923693 0.00019442095 0)
(0.7664309 0.00018578859 0)
(0.76367277 0.00017758333 0)
(0.7609609 0.00016978563 0)
(0.7582937 0.00016237327 0)
(0.75566965 0.00015532342 0)
(0.75308728 0.00014861982 0)
(0.75054516 0.00014224045 0)
(0.74804194 0.00013616871 0)
(0.74557633 0.00013038832 0)
(0.74314707 0.00012488371 0)
(0.74075295 0.00011964021 0)
(0.73839283 0.00011464404 0)
(0.73606557 0.00010988232 0)
(0.73377012 0.000105343 0)
(0.73150541 0.00010101482 0)
(0.72927045 9.6887264e-05 0)
(0.72706425 9.2950592e-05 0)
(0.72488584 8.9195737e-05 0)
(0.72273426 8.5614751e-05 0)
(0.72060859 8.2200062e-05 0)
(0.71850774 7.8946344e-05 0)
(0.71643099 7.5847832e-05 0)
(0.71437646 7.2906617e-05 0)
(0.71234465 7.0116667e-05 0)
(0.71032962 6.7510059e-05 0)
(0.70833905 6.5052023e-05 0)
(0.70634652 6.2960936e-05 0)
(0.7043968 6.1062377e-05 7.6546605e-21)
(0.7023499 5.9750362e-05 0)
(0.70062317 5.8711021e-05 0)
(0.69748889 6.1972125e-05 -2.6298259e-20)
(0.99793976 0.00050841539 0)
(0.99791143 0.00069783993 0)
(0.9979096 0.00085933794 0)
(0.99790215 0.0010124171 0)
(0.99789213 0.0011737186 0)
(0.99789141 0.0013451917 0)
(0.99790583 0.0015220006 0)
(0.99793752 0.0017038505 0)
(0.99799018 0.0018907663 0)
(0.99806592 0.0020749084 0)
(0.998164 0.0022485678 0)
(0.99828274 0.0024055674 0)
(0.99841889 0.0025417505 0)
(0.99856774 0.0026544036 0)
(0.99872459 0.0027430582 0)
(0.99888412 0.0028055388 0)
(0.99904148 0.0028458823 0)
(0.99919397 0.0028655716 0)
(0.99933683 0.002865491 0)
(0.99946509 0.0028525743 0)
(0.99957612 0.0028290551 0)
(0.9996673 0.0027970161 0)
(0.99973355 0.0027576498 0)
(0.99976679 0.0027128741 0)
(0.99975727 0.0026652145 0)
(0.9996928 0.0026166284 0)
(0.99955622 0.0025690796 0)
(0.99932472 0.0025241109 0)
(0.9989663 0.0024821311 0)
(0.99843218 0.0024419504 0)
(0.99764278 0.0024025844 0)
(0.99639612 0.0023611745 0)
(0.9945024 0.0023117873 0)
(0.9917608 0.0022501992 0)
(0.98799022 0.002174638 0)
(0.98306441 0.0020892723 0)
(0.97692405 0.0019903727 0)
(0.96969956 0.0018716591 0)
(0.96168527 0.0017408149 0)
(0.95324661 0.0016056994 0)
(0.94475697 0.0014699404 0)
(0.93653417 0.001337215 0)
(0.92880012 0.0012160617 0)
(0.92162382 0.0011126311 0)
(0.91496195 0.0010278244 0)
(0.90871778 0.00096043866 0)
(0.90279388 0.00090672071 0)
(0.89712372 0.00086110737 0)
(0.89167207 0.00081904289 0)
(0.88642167 0.0007783609 0)
(0.88135982 0.00073870954 0)
(0.87647282 0.00070039549 0)
(0.87174566 0.00066399322 0)
(0.86716347 0.00062990292 0)
(0.86271332 0.00059802365 0)
(0.85838547 0.00056807256 0)
(0.85417265 0.0005398911 0)
(0.85006823 0.00051336402 0)
(0.84606579 0.00048832727 0)
(0.84215969 0.00046466934 0)
(0.83834486 0.00044236261 0)
(0.83461671 0.00042126277 0)
(0.83097133 0.00040127449 0)
(0.82740502 0.00038237987 0)
(0.8239142 0.00036448034 0)
(0.82049577 0.00034750611 0)
(0.81714682 0.00033143656 0)
(0.81386449 0.00031619742 0)
(0.81064623 0.00030173708 0)
(0.80748963 0.00028803098 0)
(0.80439231 0.00027502334 0)
(0.80135208 0.00026267889 0)
(0.79836687 0.00025095993 0)
(0.7954347 0.00023982918 0)
(0.79255365 0.00022925825 0)
(0.78972191 0.0002192118 0)
(0.78693773 0.00020966169 0)
(0.78419946 0.00020058083 0)
(0.7815055 0.00019194348 0)
(0.77885434 0.00018372548 0)
(0.77624449 0.00017590412 0)
(0.77367456 0.00016845821 0)
(0.77114318 0.00016136791 0)
(0.76864905 0.00015461474 0)
(0.76619091 0.00014818142 0)
(0.76376752 0.00014205192 0)
(0.7613777 0.00013621148 0)
(0.75902024 0.00013064669 0)
(0.75669404 0.00012534566 0)
(0.75439777 0.00012029798 0)
(0.75213053 0.00011549723 0)
(0.74989026 0.00011093781 0)
(0.74767721 0.00010662698 0)
(0.74548542 0.00010257069 0)
(0.7433221 9.8808693e-05 0)
(0.74116118 9.5450575e-05 0)
(0.73904659 9.2709042e-05 6.1485785e-21)
(0.73683748 8.9888132e-05 0)
(0.73496392 9.2719823e-05 0)
(0.73159258 8.8727051e-05 2.1317241e-20)
(0.99797413 0.00052540971 0)
(0.99793834 0.00070329553 0)
(0.99793185 0.00086303247 0)
(0.99792612 0.0010145254 0)
(0.99792126 0.0011714364 0)
(0.99792642 0.0013373515 0)
(0.99794678 0.0015100411 0)
(0.99798441 0.0016883269 0)
(0.99804221 0.0018695405 0)
(0.99812219 0.0020477013 0)
(0.99822423 0.0022185235 0)
(0.99834701 0.002377563 0)
(0.9984877 0.0025207801 0)
(0.99864215 0.0026451097 0)
(0.99880635 0.0027492323 0)
(0.99897536 0.0028314451 0)
(0.99914492 0.0028939984 0)
(0.99931245 0.0029366529 0)
(0.99947453 0.0029608004 0)
(0.99962807 0.0029673734 0)
(0.99977179 0.0029601942 0)
(0.9999054 0.002938879 0)
(1.0000271 0.0029040931 0)
(1.0001343 0.002857379 0)
(1.0002253 0.0028013054 0)
(1.0002985 0.0027385544 0)
(1.0003515 0.0026714245 0)
(1.0003825 0.00260251 0)
(1.0003896 0.002534887 0)
(1.0003711 0.0024720471 0)
(1.0003256 0.0024167786 0)
(1.0002465 0.0023707222 0)
(1.0001225 0.0023348239 0)
(0.99993428 0.0023084337 0)
(0.99965301 0.0022894704 0)
(0.99922923 0.0022730417 0)
(0.99859141 0.0022538083 0)
(0.99755279 0.0022275783 0)
(0.99588252 0.0021896809 0)
(0.99336168 0.0021371569 0)
(0.98980717 0.0020710235 0)
(0.98510875 0.0019922382 0)
(0.97929371 0.001894375 0)
(0.9726068 0.0017804025 0)
(0.96537412 0.0016601582 0)
(0.95794815 0.0015373879 0)
(0.95064023 0.0014181665 0)
(0.94365245 0.0013100676 0)
(0.9370485 0.0012159201 0)
(0.93080092 0.0011361335 0)
(0.92484501 0.0010691403 0)
(0.91912486 0.0010112316 0)
(0.91360774 0.0009586929 0)
(0.90827793 0.00090928823 0)
(0.90312526 0.0008621821 0)
(0.89813911 0.00081727946 0)
(0.89330732 0.00077489001 0)
(0.88861747 0.00073516387 0)
(0.88405881 0.00069789645 0)
(0.87962315 0.00066284906 0)
(0.87530363 0.00062992257 0)
(0.87109367 0.00059889679 0)
(0.86698735 0.00056961889 0)
(0.86297927 0.00054202805 0)
(0.85906446 0.00051596486 0)
(0.85523867 0.0004913145 0)
(0.85149786 0.00046802784 0)
(0.8478382 0.00044599241 0)
(0.84425627 0.00042512466 0)
(0.84074889 0.0004053769 0)
(0.83731301 0.00038666645 0)
(0.8339458 0.00036893631 0)
(0.83064462 0.00035212813 0)
(0.82740694 0.00033618563 0)
(0.8242304 0.0003210642 0)
(0.8211127 0.00030671165 0)
(0.8180517 0.00029308503 0)
(0.81504535 0.00028014347 0)
(0.81209167 0.00026784844 0)
(0.80918881 0.00025616376 0)
(0.80633495 0.00024505555 0)
(0.80352838 0.0002344922 0)
(0.80076744 0.0002244442 0)
(0.79805054 0.00021488401 0)
(0.79537615 0.00020578598 0)
(0.79274279 0.00019712627 0)
(0.79014902 0.00018888301 0)
(0.78759341 0.00018103604 0)
(0.78507462 0.00017356808 0)
(0.78259112 0.00016646238 0)
(0.78014179 0.00015971119 0)
(0.7777244 0.00015329931 0)
(0.77533897 0.00014724883 0)
(0.77297946 0.00014153352 0)
(0.77065266 0.00013628041 0)
(0.76833288 0.00013145577 0)
(0.7660632 0.00012779117 5.3225046e-21)
(0.76370214 0.00012294836 4.0046901e-20)
(0.7616922 0.00013073279 0)
(0.75810048 0.00011707135 0)
(0.99801375 0.0005446046 0)
(0.99796995 0.00071076074 0)
(0.99795547 0.00086615748 0)
(0.9979471 0.0010157227 0)
(0.99794315 0.0011703954 0)
(0.99795013 0.0013334172 0)
(0.99797225 0.0015029028 0)
(0.99801137 0.0016771471 0)
(0.99806999 0.0018537293 0)
(0.99814997 0.0020279635 0)
(0.99825127 0.0021955546 0)
(0.99837255 0.0023517522 0)
(0.99851114 0.0024922886 0)
(0.99866324 0.0026139984 0)
(0.99882502 0.0027153657 0)
(0.99899216 0.0027948918 0)
(0.99916073 0.002854042 0)
(0.99932807 0.0028930457 0)
(0.99949113 0.00291276 0)
(0.99964704 0.0029161091 0)
(0.99979472 0.0029052758 0)
(0.9999338 0.0028812526 0)
(1.0000628 0.0028452687 0)
(1.0001797 0.0027992858 0)
(1.0002829 0.0027456712 0)
(1.0003717 0.0026866846 0)
(1.0004459 0.0026248902 0)
(1.0005053 0.0025628369 0)
(1.0005501 0.0025034254 0)
(1.0005814 0.0024498513 0)
(1.0006011 0.0024034227 0)
(1.0006108 0.0023644925 0)
(1.0006117 0.0023329832 0)
(1.0006041 0.0023072048 0)
(1.0005863 0.002284588 0)
(1.0005537 0.0022633776 0)
(1.000501 0.0022431295 0)
(1.0004167 0.0022238988 0)
(1.0002803 0.0022062135 0)
(1.0000636 0.0021904381 0)
(0.99972419 0.0021757248 0)
(0.99919708 0.0021588165 0)
(0.99834588 0.00213672 0)
(0.99694466 0.0021055016 0)
(0.99477877 0.0020611301 0)
(0.99166746 0.0020045769 0)
(0.9874916 0.0019318823 0)
(0.98232388 0.0018400187 0)
(0.97638841 0.0017368118 0)
(0.96998333 0.001628215 0)
(0.96342007 0.0015191768 0)
(0.95694712 0.001416417 0)
(0.95069168 0.0013234459 0)
(0.94468264 0.001241397 0)
(0.93889591 0.001169781 0)
(0.93329955 0.0011062086 0)
(0.92787351 0.0010480864 0)
(0.92260853 0.00099373193 0)
(0.91749891 0.00094229991 0)
(0.91253777 0.00089360835 0)
(0.90771626 0.00084782105 0)
(0.90302528 0.00080480061 0)
(0.89845736 0.00076432907 0)
(0.89400623 0.00072628281 0)
(0.88966602 0.00069043235 0)
(0.88543131 0.00065661286 0)
(0.88129702 0.00062473608 0)
(0.87725842 0.00059463667 0)
(0.87331135 0.00056618849 0)
(0.86945187 0.00053931222 0)
(0.86567626 0.00051389008 0)
(0.86198109 0.00048983599 0)
(0.85836315 0.00046706465 0)
(0.85481941 0.00044549528 0)
(0.85134699 0.00042506222 0)
(0.84794318 0.00040569216 0)
(0.84460541 0.00038732359 0)
(0.84133123 0.00036989853 0)
(0.83811832 0.00035336252 0)
(0.83496445 0.00033766464 0)
(0.83186748 0.00032275724 0)
(0.82882539 0.00030859598 0)
(0.82583622 0.00029513944 0)
(0.82289809 0.00028234907 0)
(0.82000921 0.000270189 0)
(0.81716782 0.00025862585 0)
(0.81437224 0.0002476291 0)
(0.81162081 0.00023717035 0)
(0.80891197 0.00022722564 0)
(0.80624397 0.00021777058 0)
(0.80361546 0.00020879514 0)
(0.80102404 0.00020027306 0)
(0.7984695 0.00019224137 0)
(0.79594573 0.00018463832 0)
(0.79345909 0.00017768426 0)
(0.79098427 0.00017118302 0)
(0.78856361 0.0001664559 0)
(0.78605471 0.00015906184 0)
(0.78391329 0.00017282343 5.597828e-20)
(0.78010853 0.00014747326 0)
(0.99805673 0.00056528284 0)
(0.9980074 0.00072063228 0)
(0.99798512 0.00087082459 0)
(0.99797243 0.0010178926 0)
(0.99796709 0.0011699889 0)
(0.99797365 0.0013296322 0)
(0.99799545 0.0014952454 0)
(0.99803418 0.0016651743 0)
(0.99809198 0.0018372259 0)
(0.99817047 0.0020071883 0)
(0.9982696 0.0021707803 0)
(0.99838808 0.0023235255 0)
(0.99852344 0.0024614332 0)
(0.99867214 0.0025814863 0)
(0.99883049 0.0026821135 0)
(0.99899447 0.0027619535 0)
(0.99916034 0.0028220278 0)
(0.9993254 0.0028627461 0)
(0.99948676 0.0028850365 0)
(0.99964172 0.0028910147 0)
(0.99978911 0.0028832425 0)
(0.99992842 0.0028626475 0)
(1.0000582 0.0028301654 0)
(1.0001767 0.0027875686 0)
(1.0002828 0.0027371361 0)
(1.0003758 0.0026811638 0)
(1.0004554 0.002622063 0)
(1.0005217 0.0025623794 0)
(1.0005751 0.0025047549 0)
(1.0006172 0.0024518485 0)
(1.0006504 0.0024052164 0)
(1.0006769 0.0023655059 0)
(1.0006992 0.0023329811 0)
(1.0007192 0.002306426 0)
(1.0007374 0.0022838202 0)
(1.0007531 0.002263834 0)
(1.0007653 0.0022454025 0)
(1.000772 0.0022276589 0)
(1.0007702 0.0022105099 0)
(1.0007565 0.0021938558 0)
(1.0007261 0.0021772736 0)
(1.0006726 0.0021607683 0)
(1.0005855 0.0021442632 0)
(1.0004419 0.0021275797 0)
(1.0002099 0.0021108984 0)
(0.99984014 0.0020932936 0)
(0.99926151 0.0020733645 0)
(0.99830303 0.0020487493 0)
(0.99676124 0.0020151496 0)
(0.99444393 0.001970563 0)
(0.99119716 0.001911988 0)
(0.98699931 0.0018356574 0)
(0.98199631 0.0017462556 0)
(0.97642455 0.0016499625 0)
(0.97056316 0.0015519765 0)
(0.96465088 0.0014579809 0)
(0.95882986 0.0013706138 0)
(0.95315372 0.001291396 0)
(0.94762619 0.0012202126 0)
(0.94223749 0.0011555416 0)
(0.93698186 0.0010957131 0)
(0.93185829 0.0010395163 0)
(0.9268659 0.00098638187 0)
(0.92200098 0.00093628729 0)
(0.91725793 0.00088910033 0)
(0.9126314 0.00084464395 0)
(0.90811666 0.00080279057 0)
(0.90370921 0.00076332179 0)
(0.89940472 0.00072607226 0)
(0.89519901 0.00069092924 0)
(0.89108808 0.00065773324 0)
(0.88706822 0.0006263638 0)
(0.88313588 0.00059670391 0)
(0.87928771 0.0005686432 0)
(0.87552052 0.00054209006 0)
(0.87183127 0.00051694576 0)
(0.86821707 0.00049312645 0)
(0.86467517 0.00047055359 0)
(0.86120295 0.00044915379 0)
(0.85779788 0.00042885848 0)
(0.85445755 0.00040960372 0)
(0.85117964 0.00039132996 0)
(0.84796195 0.00037398174 0)
(0.84480233 0.0003575074 0)
(0.84169874 0.00034185894 0)
(0.83864918 0.0003269917 0)
(0.83565175 0.00031286486 0)
(0.83270455 0.00029944026 0)
(0.8298058 0.00028668584 0)
(0.82695356 0.0002745683 0)
(0.82414626 0.00026307417 0)
(0.82138134 0.00025216489 0)
(0.81865832 0.00024189192 0)
(0.81597107 0.00023215575 0)
(0.81332554 0.0002232736 0)
(0.81069669 0.00021487287 0)
(0.80812634 0.00020891741 0)
(0.80547081 0.00019858692 0)
(0.80319986 0.00021916209 5.2510021e-20)
(0.79918476 0.00018032442 0)
(0.99810083 0.0005867388 0)
(0.99804886 0.00073256424 0)
(0.99802066 0.00087731282 0)
(0.99800369 0.0010211843 0)
(0.99799596 0.0011700862 0)
(0.99800085 0.0013259435 0)
(0.9980211 0.0014874477 0)
(0.99805827 0.0016530118 0)
(0.9981142 0.0018205084 0)
(0.99819027 0.0019860809 0)
(0.99828644 0.0021456571 0)
(0.99840149 0.0022950699 0)
(0.99853311 0.0024305392 0)
(0.99867799 0.002549119 0)
(0.9988326 0.0026491466 0)
(0.99899312 0.0027293124 0)
(0.99915594 0.002790271 0)
(0.99931835 0.0028324408 0)
(0.99947753 0.002856663 0)
(0.9996309 0.0028647795 0)
(0.99977718 0.0028591294 0)
(0.99991571 0.0028406724 0)
(1.0000451 0.0028104237 0)
(1.0001637 0.0027701161 0)
(1.0002705 0.0027219607 0)
(1.0003649 0.0026682059 0)
(1.0004465 0.0026111911 0)
(1.0005155 0.0025533724 0)
(1.0005725 0.0024973429 0)
(1.000619 0.0024457343 0)
(1.0006574 0.0024001393 0)
(1.0006901 0.0023613107 0)
(1.0007193 0.0023293885 0)
(1.0007475 0.0023032259 0)
(1.0007755 0.002281085 0)
(1.0008035 0.0022615087 0)
(1.0008307 0.0022432855 0)
(1.0008565 0.0022256685 0)
(1.0008796 0.0022086716 0)
(1.0008995 0.0021922738 0)
(1.0009151 0.0021763832 0)
(1.0009253 0.0021609641 0)
(1.0009285 0.002145529 0)
(1.0009212 0.0021298544 0)
(1.0008988 0.0021140283 0)
(1.0008547 0.0020981609 0)
(1.000781 0.0020822554 0)
(1.0006603 0.0020659201 0)
(1.0004631 0.0020489595 0)
(1.0001466 0.002031021 0)
(0.99964793 0.0020113033 0)
(0.99883571 0.0019882924 0)
(0.99752459 0.001958547 0)
(0.99553351 0.0019196259 0)
(0.99270396 0.0018669476 0)
(0.9890082 0.0017978861 0)
(0.98455117 0.0017176259 0)
(0.97953371 0.001630755 0)
(0.97420207 0.0015425437 0)
(0.96876118 0.0014570649 0)
(0.96333867 0.0013763875 0)
(0.9579906 0.0013019339 0)
(0.95273367 0.001233565 0)
(0.94757317 0.0011703168 0)
(0.94251451 0.0011110754 0)
(0.93756284 0.001055125 0)
(0.93272005 0.0010022762 0)
(0.92798496 0.00095236794 0)
(0.92335538 0.00090525157 0)
(0.91882888 0.00086079983 0)
(0.91440277 0.00081882171 0)
(0.91007416 0.00077917217 0)
(0.90584001 0.00074170745 0)
(0.90169731 0.00070628799 0)
(0.89764307 0.00067279528 0)
(0.89367434 0.00064110384 0)
(0.88978828 0.00061110545 0)
(0.88598208 0.00058269868 0)
(0.88225304 0.00055578886 0)
(0.87859852 0.00053028763 0)
(0.87501598 0.00050611253 0)
(0.87150293 0.00048318684 0)
(0.86805701 0.00046143909 0)
(0.86467591 0.0004408027 0)
(0.86135739 0.00042121582 0)
(0.85809928 0.00040262086 0)
(0.8548995 0.00038496516 0)
(0.85175595 0.00036819932 0)
(0.84866668 0.00035228186 0)
(0.84562957 0.00033716921 0)
(0.84264287 0.00032284336 0)
(0.83970385 0.00030925225 0)
(0.83681183 0.00029646103 0)
(0.83396061 0.00028433075 0)
(0.83115579 0.00027327773 0)
(0.82837257 0.00026274135 0)
(0.8256524 0.00025537736 0)
(0.82284991 0.00024174331 -1.6402821e-20)
(0.82044979 0.00026990337 0)
(0.81622454 0.00021584401 -7.7581542e-21)
(0.99814475 0.00060841451 0)
(0.99809227 0.00074588877 0)
(0.99806036 0.00088525552 0)
(0.99804013 0.0010255091 0)
(0.9980301 0.0011708302 0)
(0.99803293 0.0013226706 0)
(0.99805104 0.00147991 0)
(0.99808595 0.0016410059 0)
(0.99813929 0.0018038801 0)
(0.99821228 0.001965007 0)
(0.99830489 0.0021205536 0)
(0.998416 0.002266607 0)
(0.99854345 0.0023995657 0)
(0.99868415 0.0025165554 0)
(0.99883472 0.0026158478 0)
(0.99899152 0.0026961582 0)
(0.99915107 0.0027578468 0)
(0.99931062 0.0028012917 0)
(0.99946742 0.0028272477 0)
(0.99961898 0.0028373653 0)
(0.9997639 0.0028337545 0)
(0.99990137 0.0028174549 0)
(1.00003 0.0027895165 0)
(1.0001484 0.0027516137 0)
(1.0002553 0.0027058703 0)
(1.0003503 0.0026544739 0)
(1.000433 0.0025997058 0)
(1.0005035 0.0025439655 0)
(1.0005626 0.0024897712 0)
(1.0006116 0.0024396423 0)
(1.0006529 0.0023951604 0)
(1.0006888 0.0023570631 0)
(1.0007216 0.0023255247 0)
(1.0007534 0.0022995571 0)
(1.0007856 0.0022775091 0)
(1.0008183 0.0022579726 0)
(1.0008511 0.0022398493 0)
(1.0008834 0.0022224476 0)
(1.0009146 0.0022057407 0)
(1.0009445 0.0021897366 0)
(1.0009729 0.0021743211 0)
(1.0009993 0.0021593262 0)
(1.0010233 0.0021442979 0)
(1.001044 0.0021290757 0)
(1.00106 0.0021137718 0)
(1.0010698 0.0020985088 0)
(1.001072 0.002083224 0)
(1.0010638 0.0020677501 0)
(1.0010404 0.0020522204 0)
(1.000995 0.0020367738 0)
(1.0009189 0.0020213815 0)
(1.0007958 0.0020055966 0)
(1.0005962 0.0019889025 0)
(1.0002764 0.0019708113 0)
(0.99977387 0.0019510149 0)
(0.9989555 0.0019281562 0)
(0.99765528 0.0018989902 0)
(0.995705 0.0018607167 0)
(0.99296998 0.0018083795 0)
(0.98945132 0.0017422101 0)
(0.98524977 0.001667186 0)
(0.98055637 0.0015875536 0)
(0.97558277 0.001507424 0)
(0.97049567 0.0014290918 0)
(0.96539447 0.0013547784 0)
(0.96032608 0.0012854052 0)
(0.95531215 0.0012207722 0)
(0.95036715 0.0011600804 0)
(0.94550268 0.0011026929 0)
(0.940726 0.0010483644 0)
(0.93604042 0.00099693319 0)
(0.93144707 0.00094828096 0)
(0.92694604 0.00090226356 0)
(0.92253666 0.00085873215 0)
(0.91821763 0.00081755688 0)
(0.91398721 0.00077859494 0)
(0.90984345 0.00074171945 0)
(0.9057842 0.00070680932 0)
(0.90180721 0.00067375016 0)
(0.89791018 0.00064243413 0)
(0.89409078 0.00061275997 0)
(0.89034668 0.00058463312 0)
(0.88667556 0.00055796523 0)
(0.88307514 0.00053267385 0)
(0.87954317 0.00050868217 0)
(0.87607743 0.00048591858 0)
(0.87267574 0.00046431742 0)
(0.86933594 0.00044381696 0)
(0.86605596 0.00042436509 0)
(0.86283356 0.00040590696 0)
(0.85966687 0.00038841891 0)
(0.85655305 0.00037183448 0)
(0.85349125 0.00035623152 0)
(0.85047521 0.00034143059 0)
(0.84751026 0.00032794833 0)
(0.84457176 0.00031502636 0)
(0.84170095 0.00030605956 2.1726319e-21)
(0.83875052 0.00028873955 0)
(0.83622078 0.00032523977 4.9763081e-20)
(0.83178425 0.00025422808 0)
(0.99818794 0.00062997503 0)
(0.99813625 0.00076005268 0)
(0.99810242 0.00089420901 0)
(0.99808021 0.0010306627 0)
(0.99806855 0.0011722231 0)
(0.99806958 0.001319931 0)
(0.99808554 0.001472796 0)
(0.99811794 0.0016293306 0)
(0.99816833 0.0017875256 0)
(0.99823783 0.0019441536 0)
(0.99832646 0.0020956148 0)
(0.99843321 0.0022382273 0)
(0.9985561 0.0023685671 0)
(0.99869225 0.0024838427 0)
(0.99883846 0.0025822815 0)
(0.99899125 0.0026626069 0)
(0.99914725 0.0027249376 0)
(0.99930372 0.0027695849 0)
(0.99945795 0.0027972218 0)
(0.9996075 0.002809316 0)
(0.99975088 0.0028077719 0)
(0.99988714 0.0027936751 0)
(1.000015 0.0027680884 0)
(1.0001328 0.0027326269 0)
(1.0002397 0.002689329 0)
(1.000335 0.0026403211 0)
(1.0004184 0.0025878266 0)
(1.0004901 0.0025341842 0)
(1.0005506 0.0024818271 0)
(1.0006015 0.0024331609 0)
(1.0006448 0.0023897565 0)
(1.0006828 0.0023523721 0)
(1.0007178 0.0023212082 0)
(1.000752 0.002295396 0)
(1.0007864 0.0022734128 0)
(1.0008214 0.0022539346 0)
(1.0008568 0.0022359232 0)
(1.0008922 0.0022187069 0)
(1.000927 0.0022022121 0)
(1.0009611 0.0021864216 0)
(1.0009946 0.002171206 0)
(1.0010272 0.0021563962 0)
(1.0010587 0.0021416034 0)
(1.0010887 0.0021266815 0)
(1.0011167 0.0021117401 0)
(1.001142 0.0020969162 0)
(1.0011643 0.0020821401 0)
(1.0011828 0.0020672661 0)
(1.0011962 0.0020524025 0)
(1.0012028 0.0020376465 0)
(1.0012009 0.0020229116 0)
(1.0011874 0.0020079631 0)
(1.001157 0.0019928558 0)
(1.0011018 0.0019778568 0)
(1.0010122 0.0019628513 0)
(1.000868 0.0019472781 0)
(1.0006364 0.0019305854 0)
(1.0002694 0.00191227 0)
(0.99968845 0.0018920477 0)
(0.99875166 0.0018680384 0)
(0.99730628 0.0018375758 0)
(0.99519477 0.0017956119 0)
(0.99235046 0.0017402797 0)
(0.98879959 0.0016753516 0)
(0.98467068 0.0016041372 0)
(0.98014957 0.0015301164 0)
(0.97541097 0.0014557848 0)
(0.9705783 0.0013836389 0)
(0.96572131 0.0013151803 0)
(0.9608773 0.0012507341 0)
(0.95607038 0.0011898831 0)
(0.95131836 0.0011321873 0)
(0.94663334 0.0010773977 0)
(0.94202266 0.0010253943 0)
(0.93749063 0.00097608533 0)
(0.93303978 0.00092934161 0)
(0.92867132 0.00088504277 0)
(0.92438549 0.00084306795 0)
(0.9201818 0.00080329633 0)
(0.91605929 0.00076560939 0)
(0.91201666 0.00072989298 0)
(0.90805235 0.00069603846 0)
(0.90416462 0.00066394289 0)
(0.90035163 0.00063350923 0)
(0.89661142 0.00060464642 0)
(0.89294201 0.00057726904 0)
(0.88934137 0.00055129837 0)
(0.88580743 0.00052666003 0)
(0.88233816 0.00050329085 0)
(0.87893134 0.00048112415 0)
(0.87558507 0.0004601299 0)
(0.87229648 0.00044022673 0)
(0.86906465 0.00042150434 0)
(0.8658833 0.00040374222 0)
(0.86275756 0.00038755804 0)
(0.85966295 0.00037198744 0)
(0.85664067 0.00036120988 0)
(0.85354117 0.00033980704 0)
(0.85088108 0.00038541029 0)
(0.84623163 0.00029568485 0)
(0.99823028 0.00065123319 0)
(0.99818009 0.00077468459 0)
(0.99814556 0.00090380906 0)
(0.99812242 0.0010363778 0)
(0.99810992 0.001174103 0)
(0.99810975 0.0013176489 0)
(0.99812392 0.0014661057 0)
(0.99815398 0.001618046 0)
(0.99820141 0.0017715426 0)
(0.99826729 0.0019236361 0)
(0.99835174 0.0020709593 0)
(0.99845387 0.0022100534 0)
(0.9985719 0.0023376719 0)
(0.99870318 0.0024511143 0)
(0.9988447 0.0025485807 0)
(0.99899316 0.0026287931 0)
(0.99914533 0.0026916691 0)
(0.99929843 0.002737437 0)
(0.99944985 0.002766686 0)
(0.99959717 0.0027807102 0)
(0.9997388 0.0027812258 0)
(0.99987369 0.0027693325 0)
(1.0000005 0.0027460989 0)
(1.0001178 0.0027130837 0)
(1.0002244 0.0026722418 0)
(1.0003199 0.002625636 0)
(1.0004039 0.0025754293 0)
(1.0004765 0.0025238959 0)
(1.0005383 0.0024733848 0)
(1.0005906 0.0024261984 0)
(1.0006356 0.0023838937 0)
(1.0006753 0.0023472515 0)
(1.000712 0.0023164939 0)