/*--------------------------------*- C++ -*----------------------------------*\
  =========                 |
  \\      /  F ield         | OpenFOAM: The Open Source CFD Toolbox
   \\    /   O peration     | Website:  https://openfoam.org
    \\  /    A nd           | Version:  12
     \\/     M anipulation  |
\*---------------------------------------------------------------------------*/
FoamFile
{
    format      ascii;
    class       volVectorField;
    location    "1600";
    object      wallShearStress;
}
// * * * * * * * * * * * * * * * * * * * * * * * * * * * * * * * * * * * * * //

dimensions      [0 2 -2 0 0 0 0];

internalField   uniform (0 0 0);

boundaryField
{
    inlet
    {
        type            calculated;
        value           uniform (0 0 0);
    }
    top
    {
        type            calculated;
        value           uniform (0 0 0);
    }
    outlet
    {
        type            calculated;
        value           uniform (0 0 0);
    }
    slipsurface
    {
        type            calculated;
        value           uniform (0 0 0);
    }
    bottom
    {
        type            calculated;
        value           nonuniform List<vector> 
100
(
(-0.00062514197 -3.6081213e-07 1.8921499e-21)
(-0.00072409789 -4.9470337e-07 1.8371565e-23)
(-0.00084365428 -8.1052354e-07 0)
(-0.00097837081 -1.2208238e-06 9.6967249e-21)
(-0.0011263291 -1.7507706e-06 4.8400587e-20)
(-0.0012851327 -2.3062502e-06 -5.1028879e-20)
(-0.0014510511 -2.8652109e-06 4.4925637e-22)
(-0.0016190625 -3.8273283e-06 1.4303509e-19)
(-0.0017830737 -4.9553759e-06 0)
(-0.001936476 -6.1744143e-06 3.9600533e-19)
(-0.0020728878 -7.4217216e-06 0)
(-0.0021872639 -8.6184337e-06 -6.1870672e-19)
(-0.0022763889 -9.6824676e-06 0)
(-0.00233912 -1.052351e-05 1.1943966e-18)
(-0.0023761648 -1.1171861e-05 -2.3090858e-22)
(-0.0023900638 -1.1394164e-05 1.3786265e-18)
(-0.002382992 -1.1411888e-05 0)
(-0.0023648906 -1.1179994e-05 0)
(-0.0023254486 -1.0660935e-05 3.925548e-19)
(-0.0022816319 -9.9871847e-06 3.5985716e-19)
(-0.0022322848 -9.1639873e-06 6.4793163e-19)
(-0.0021798802 -8.221147e-06 0)
(-0.0021267039 -7.2154954e-06 -4.0918646e-19)
(-0.0020746244 -6.200033e-06 0)
(-0.0020251464 -5.2048363e-06 1.0055323e-19)
(-0.0019794822 -4.2569902e-06 0)
(-0.0019385683 -3.3760855e-06 -0)
(-0.001903071 -2.5861287e-06 0)
(-0.0018733624 -1.9120891e-06 -5.9614398e-21)
(-0.0018494035 -1.3751405e-06 -4.6612448e-20)
(-0.0018306501 -9.9198284e-07 0)
(-0.0018160732 -7.5850243e-07 7.0542729e-20)
(-0.0018042944 -6.4994029e-07 -6.0482273e-20)
(-0.0017938869 -6.2865622e-07 0)
(-0.0017837279 -6.5179271e-07 0)
(-0.0017731899 -6.8327922e-07 9.8531567e-21)
(-0.0017621137 -7.0102009e-07 0)
(-0.0017506397 -6.9727569e-07 0)
(-0.0017389904 -6.7778375e-07 0)
(-0.0017273146 -6.5331396e-07 -0)
(-0.001715648 -6.3203297e-07 -0)
(-0.0017039605 -6.1637628e-07 -0)
(-0.0016922313 -6.0390892e-07 -0)
(-0.0016804914 -5.9115798e-07 0)
(-0.0016688112 -5.7620178e-07 -0)
(-0.0016572603 -5.5886983e-07 -0)
(-0.0016458797 -5.4002581e-07 0)
(-0.0016346813 -5.206106e-07 0)
(-0.0016236641 -5.0122256e-07 0)
(-0.0016128272 -4.8200274e-07 -0)
(-0.0016021719 -4.6296251e-07 0)
(-0.0015916992 -4.4414878e-07 0)
(-0.001581409 -4.2575879e-07 0)
(-0.0015712976 -4.080172e-07 -0)
(-0.00156136 -3.9093106e-07 0)
(-0.0015515929 -3.7443262e-07 0)
(-0.0015419936 -3.5855895e-07 0)
(-0.0015325574 -3.4336698e-07 0)
(-0.0015232794 -3.2879114e-07 0)
(-0.0015141572 -3.1479225e-07 -0)
(-0.0015051866 -3.0145258e-07 0)
(-0.0014963615 -2.8873002e-07 0)
(-0.0014876774 -2.7657019e-07 0)
(-0.0014791302 -2.6498459e-07 0)
(-0.0014707156 -2.5391467e-07 0)
(-0.0014624304 -2.4332106e-07 0)
(-0.0014542713 -2.3321644e-07 0)
(-0.0014462343 -2.2356295e-07 0)
(-0.0014383162 -2.14334e-07 -0)
(-0.0014305135 -2.0553074e-07 -0)
(-0.0014228228 -1.9712285e-07 -0)
(-0.0014152408 -1.8909458e-07 0)
(-0.0014077645 -1.8142871e-07 0)
(-0.0014003906 -1.7410341e-07 0)
(-0.0013931163 -1.6710502e-07 0)
(-0.0013859387 -1.6041399e-07 0)
(-0.0013788552 -1.540162e-07 0)
(-0.0013718631 -1.4789825e-07 0)
(-0.0013649601 -1.4204673e-07 0)
(-0.0013581435 -1.3644882e-07 0)
(-0.0013514112 -1.3109243e-07 0)
(-0.0013447607 -1.2596608e-07 0)
(-0.00133819 -1.2105922e-07 0)
(-0.0013316967 -1.1636197e-07 0)
(-0.0013252789 -1.1186494e-07 -0)
(-0.0013189344 -1.0755951e-07 0)
(-0.0013126612 -1.034376e-07 -0)
(-0.0013064571 -9.9492358e-08 -0)
(-0.0013003203 -9.5717397e-08 0)
(-0.001294248 -9.210915e-08 0)
(-0.0012882389 -8.8660669e-08 0)
(-0.001282288 -8.5380789e-08 0)
(-0.0012763976 -8.2255386e-08 0)
(-0.0012705501 -7.9349008e-08 0)
(-0.00126477 -7.6564807e-08 0)
(-0.0012589765 -7.4390916e-08 -0)
(-0.0012533092 -7.0386056e-08 2.4085117e-23)
(-0.0012473319 -1.0935445e-07 -1.8314796e-22)
(-0.0012423688 -7.2546491e-08 5.6296975e-22)
(-0.0012331001 -1.1109583e-07 2.1367095e-20)
)
;
    }
    frontandback
    {
        type            empty;
    }
}


// ************************************************************************* //
