/*--------------------------------*- C++ -*----------------------------------*\
  =========                 |
  \\      /  F ield         | OpenFOAM: The Open Source CFD Toolbox
   \\    /   O peration     | Website:  https://openfoam.org
    \\  /    A nd           | Version:  12
     \\/     M anipulation  |
\*---------------------------------------------------------------------------*/
FoamFile
{
    format      ascii;
    class       volScalarField;
    location    "1600";
    object      yPlus;
}
// * * * * * * * * * * * * * * * * * * * * * * * * * * * * * * * * * * * * * //

dimensions      [];

internalField   uniform 0;

boundaryField
{
    inlet
    {
        type            calculated;
        value           uniform 0;
    }
    top
    {
        type            calculated;
        value           uniform 0;
    }
    outlet
    {
        type            calculated;
        value           uniform 0;
    }
    slipsurface
    {
        type            calculated;
        value           uniform 0;
    }
    bottom
    {
        type            calculated;
        value           nonuniform List<scalar> 
100
(
15.375121
18.512672
22.434564
27.014693
32.231017
38.040774
44.349151
51.001859
57.792348
64.473504
70.783276
76.489595
81.415333
85.454771
88.574103
90.815722
92.210581
93.156593
93.121897
92.850354
92.257909
91.433163
90.459504
89.409731
88.346943
87.326069
86.394588
85.591325
84.944996
84.469632
84.158231
83.980532
83.887638
83.824874
83.747645
83.631346
83.471692
83.277826
83.0628
82.8364
82.602863
82.362585
82.115316
81.862307
81.606324
81.350346
81.09636
80.845117
80.596682
80.35104
80.108286
79.868484
79.631674
79.397809
79.166806
78.938609
78.713172
78.49042
78.270268
78.052711
77.837677
77.625045
77.414718
77.206631
77.000729
76.796967
76.595302
76.395682
76.198058
76.002383
75.808605
75.616678
75.426563
75.238213
75.051584
74.866637
74.683335
74.501643
74.321525
74.142947
73.965874
73.790275
73.616116
73.443365
73.271989
73.101957
72.933237
72.765793
72.599595
72.434593
72.270766
72.108021
71.9464
71.785559
71.62596
71.466004
71.308479
71.143649
71.0044
70.746492
)
;
    }
    frontandback
    {
        type            empty;
    }
}


// ************************************************************************* //
