#      distance             U_x             U_y             U_z wallShearStr... wallShearStr... wallShearStr...               p           omega               k             nut
  3.0219182e-06     0.018444005   2.5364303e-09   -3.387347e-23               0               0               0   0.00022643287       5570601.8   3.9948385e-07   3.7372621e-13
  5.0865428e-06     0.031048132   6.4355586e-09  -1.4346442e-23               0               0               0   0.00022643307       1240850.3   1.8243366e-06   3.4541782e-12
  7.2269684e-06     0.044114191   1.2675143e-08  -3.6960284e-23               0               0               0   0.00022643328       495682.42   5.7539543e-06   1.9315836e-11
  9.4750924e-06     0.057834819   2.1605629e-08  -5.5434496e-23               0               0               0    0.0002264335       256765.02   1.4410308e-05   7.8778972e-11
  1.1864417e-05     0.072408021   3.3723029e-08  -2.3030957e-23               0               0               0   0.00022643372       152803.03   3.1070006e-05   2.5976687e-10
  1.4430548e-05      0.08803321   4.9739021e-08   7.7342757e-23               0               0               0   0.00022643397       99059.048   6.0486441e-05   7.3619095e-10
  1.7211727e-05      0.10489917   7.0582469e-08   1.2511375e-22               0               0               0   0.00022643424       68141.026   0.00010934478   1.8600796e-09
  2.0249401e-05      0.12315779   9.7412436e-08   2.8083109e-23               0               0               0   0.00022643455       49054.162   0.00018646078   4.2789398e-09
  2.3588836e-05       0.1428785   1.3161049e-07   -3.026229e-23               0               0               0   0.00022643493       36673.001   0.00030212139   9.0601073e-09
  2.7279799e-05      0.16398905   1.7471876e-07  -1.5131145e-23               0               0               0   0.00022643539       28323.862   0.00046577791   1.7743919e-08
  3.1377293e-05       0.1862305   2.2832129e-07               0               0               0               0   0.00022643599       22486.636   0.00068197241   3.2226258e-08
  3.5942381e-05      0.20916967   2.9392957e-07    7.065956e-23               0               0               0   0.00022643679        18246.76   0.00094629624   5.4457549e-08
  4.1043091e-05      0.23228761   3.7296322e-07     1.05978e-22               0               0               0   0.00022643784       15042.735    0.0012446319   8.6115271e-08
  4.6755437e-05      0.25510395   4.6681182e-07   1.1933911e-22               0               0               0    0.0002264392        12533.45    0.0015571542   1.2846462e-07
  5.3164546e-05      0.27728258    5.770823e-07   1.2601753e-22               0               0               0   0.00022644092       10513.988    0.0018646397   1.8187092e-07
  6.0365928e-05       0.2986643   7.0590861e-07  -1.9041222e-22               0               0               0   0.00022644307       8857.4679    0.0021532769   2.4654485e-07
    6.84669e-05      0.31919339   8.5589365e-07  -4.0595124e-22               0               0               0   0.00022644574       7480.8764     0.002415472   3.2451262e-07
  7.7588184e-05       0.3388325   1.0299153e-06   -2.127019e-22               0               0               0   0.00022644906       6328.3921    0.0026477458   4.1898839e-07
   8.786571e-05      0.35755665   1.2311914e-06   5.9602925e-23               0               0               0   0.00022645315       5361.1477    0.0028493115   5.3289141e-07
  9.9452634e-05      0.37537516   1.4634298e-06   2.6726316e-22               0               0               0   0.00022645814       4549.8783    0.0030216498   6.6876127e-07
  0.00011252163      0.39233895   1.7309773e-06   5.6589238e-23               0               0               0   0.00022646416       3870.5009    0.0031677831   8.2810355e-07
  0.00012726745      0.40854051   2.0391051e-06  -1.4805671e-22               0               0               0   0.00022647129       3301.7314    0.0032914406   1.0111011e-06
  0.00014390985      0.42409202   2.3941527e-06  -3.6145442e-23               0               0               0   0.00022647967       2824.5558    0.0033963372   1.2194868e-06
  0.00016269684      0.43908881   2.8032825e-06   6.7906455e-23               0               0               0   0.00022648949       2422.8682    0.0034856026   1.4578704e-06
  0.00018390838      0.45359929   3.2744707e-06   5.3690618e-22               0               0               0   0.00022650102       2083.6238    0.0035616365   1.7310139e-06
  0.00020786057      0.46767857   3.8169218e-06   6.6948202e-22               0               0               0   0.00022651451       1796.2436    0.0036263762   2.0432206e-06
  0.00023491035      0.48137594   4.4412898e-06   2.0048229e-22               0               0               0   0.00022653026       1552.0626    0.0036814757   2.3993292e-06
  0.00026546084       0.4947353   5.1597886e-06               0               0               0               0   0.00022654861       1343.9735    0.0037283311   2.8047731e-06
   0.0002999673      0.50779568   5.9864351e-06               0               0               0               0   0.00022656991       1166.1351    0.0037681118    3.265645e-06
  0.00033894396      0.52059175   6.9373293e-06  -1.8448452e-22               0               0               0   0.00022659461       1013.7353    0.0038017915   3.7887664e-06
  0.00038297165      0.53315443   8.0309707e-06  -3.6896905e-22               0               0               0    0.0002266232       882.79777     0.003830177    4.381761e-06
  0.00043270649      0.54551128   9.2886215e-06   7.8864547e-22               0               0               0   0.00022665625       770.02728     0.003853933   5.0531316e-06
  0.00048888965      0.55768704   1.0734731e-05   1.5357703e-21               0               0               0   0.00022669437       672.68336    0.0038736035   5.8123375e-06
  0.00055235838      0.56970397   1.2397427e-05   5.6264033e-22               0               0               0    0.0002267383       588.47924    0.0038896287   6.6698722e-06
   0.0006240585      0.58158227   1.4309097e-05               0               0               0               0   0.00022678885       515.50013    0.0039023595   7.6373347e-06
  0.00070505852      0.59334039   1.6507055e-05   2.3843247e-22               0               0               0   0.00022684696       452.13716    0.0039120683   8.7274915e-06
  0.00079656552      0.60499534   1.9034347e-05   4.7686495e-22               0               0               0   0.00022691368       397.03394    0.0039189576   9.9543213e-06
  0.00089994316      0.61656297   2.1940682e-05   2.3843248e-22               0               0               0   0.00022699018       349.04318    0.0039231668   1.1333032e-05
    0.001016732      0.62805827   2.5283553e-05               0               0               0               0   0.00022707779       307.19142    0.0039247763   1.2880033e-05
   0.0011486725      0.63949563   2.9129568e-05   1.0269795e-21               0               0               0   0.00022717802       270.65022    0.0039238104   1.4612855e-05
   0.0012977308      0.65088908   3.3556052e-05  -7.7677316e-22               0               0               0   0.00022729251       238.71254    0.0039202383   1.6549968e-05
   0.0014661282      0.66225257   3.8652987e-05  -3.4469077e-21               0               0               0   0.00022742314        210.7734    0.0039139735   1.8710499e-05
   0.0016563743       0.6736003   4.4525377e-05  -2.6765025e-21               0               0               0   0.00022757194       186.31386     0.003904872   2.1113762e-05
   0.0018713042      0.68494697   5.1296148e-05  -1.5817071e-21               0               0               0   0.00022774115       164.88783     0.003892728    2.377858e-05
   0.0021141207       0.6963082   5.9109753e-05  -5.4835959e-22               0               0               0   0.00022793322       146.11104    0.0038772688   2.6722294e-05
   0.0023884425      0.70770091    6.813667e-05  -3.9992445e-22               0               0               0   0.00022815074       129.65198     0.003858146   2.9959376e-05
   0.0026983575       0.7191438   7.8579089e-05    1.211152e-21               0               0               0   0.00022839646       115.22423    0.0038349258   3.3499516e-05
   0.0030484842      0.73065797   9.0678167e-05  -2.2065285e-21               0               0               0   0.00022867316       102.58014    0.0038070741    3.734503e-05
   0.0034440402       0.7422676   0.00010472338  -5.5951806e-21               0               0               0   0.00022898358       91.505481    0.0037739388   4.1487404e-05
   0.0038909203       0.7540009   0.00012106469  -1.7775756e-21               0               0               0   0.00022933021        81.81507    0.0037347257   4.5902771e-05
    0.004395784      0.76589123   0.00014012874   3.1284041e-21               0               0               0   0.00022971497       73.349086    0.0036884671   5.0546076e-05
   0.0049661549      0.77797855   0.00016244071  -4.5449165e-21               0               0               0   0.00023013891       65.970123    0.0036339812   5.5343732e-05
   0.0056105328      0.79031139   0.00018865446  -1.3523796e-20               0               0               0   0.00023060142       59.560874    0.0035698187    6.018459e-05
   0.0063385204      0.80294935   0.00021959125   5.2118538e-21               0               0               0   0.00023109854        54.02252    0.0034941935   6.4909243e-05
   0.0071609664      0.81596653   0.00025627242   1.8227037e-20               0               0               0   0.00023161926       49.273921    0.0034048963   6.9297954e-05
   0.0080901272      0.82946707   0.00030006291   2.6286352e-20               0               0               0   0.00023214859       45.247123    0.0032989196   7.2934507e-05
   0.0091398493      0.84361974    0.0003529103   2.9598409e-20               0               0               0   0.00023267257       41.874082    0.0031715386   7.5145281e-05
    0.010325776      0.85867164   0.00041772228   1.4508932e-20               0               0               0   0.00023315843       39.072698    0.0030151763   7.5357035e-05
     0.01166558      0.87492474   0.00049849024   4.0321688e-21               0               0               0   0.00023353873       36.733877    0.0028180442   7.3218937e-05
    0.013179228      0.89271518   0.00060051147   1.7540844e-20               0               0               0   0.00023372321       34.698458    0.0025627927   6.8458537e-05
    0.014889277      0.91234896   0.00073071135   1.6077322e-20               0               0               0   0.00023356475       32.744302     0.002227735   6.1097365e-05
    0.016821209      0.93384164   0.00089389154   4.9543133e-20               0               0               0   0.00023274429       30.640491    0.0017962433   5.1667005e-05
    0.019003816      0.95655915    0.0010939267   7.5770238e-20               0               0               0   0.00023107195       28.113209     0.001268787     4.03786e-05
    0.021469624      0.97861142    0.0013207496   4.2532511e-20               0               0               0    0.0002284115       23.113367   0.00069457817   2.6501704e-05
    0.024255377      0.99513312    0.0014987227   2.2935416e-20               0               0               0   0.00022373536       14.423972   0.00023965037   1.2299485e-05
    0.027402591       1.0024352    0.0015675708   5.1664456e-21               0               0               0   0.00021710029       7.3627185   3.7818846e-05   3.1817556e-06
    0.030958166        1.003779     0.001572039               0               0               0               0   0.00021029799       5.3311005   1.8409385e-06   3.3515098e-07
    0.034975088       1.0038231    0.0015634399               0               0               0               0   0.00020397705       5.2603999   6.5621091e-07   1.2474579e-07
    0.039513219       1.0038202    0.0015534734   1.9350332e-20               0               0               0   0.00019770735       5.2618572   6.5391695e-07   1.2427365e-07
    0.044640187       1.0038219    0.0015445429   2.9022464e-20               0               0               0   0.00019125569       5.2622864   6.5412719e-07   1.2430331e-07
    0.050432395       1.0038287    0.0015344885   9.6720968e-21               0               0               0   0.00018461858       5.2622648   6.5413997e-07   1.2430625e-07
    0.056976161       1.0038345    0.0015229004               0               0               0               0   0.00017788692       5.2622569   6.5413674e-07   1.2430583e-07
    0.064369002       1.0038349    0.0015106165               0               0               0               0   0.00017122696        5.262251   6.5413551e-07   1.2430573e-07
    0.072721087       1.0038318    0.0014971918               0               0               0               0    0.0001647924       5.2622406   6.5413387e-07   1.2430567e-07
    0.082156882       1.0038264    0.0014828068               0               0               0               0   0.00015867122       5.2622229   6.5413129e-07   1.2430559e-07
    0.092817002       1.0038184    0.0014672242               0               0               0               0    0.0001529381       5.2621954   6.5412745e-07   1.2430551e-07
