#      distance             U_x             U_y             U_z wallShearStr... wallShearStr... wallShearStr...               p           omega               k             nut
              0      0.99970111               0               0               0               0               0    0.0046617712       279.30264   4.4910876e-05   1.6079647e-07
   0.0021021021       0.9996923               0               0               0               0               0    0.0046799754       279.31305    4.490984e-05   1.6078677e-07
   0.0042042042      0.99968348               0               0               0               0               0    0.0046981795       279.32346   4.4908804e-05   1.6077707e-07
   0.0063063063      0.99967467               0               0               0               0               0    0.0047163837       279.33388   4.4907769e-05   1.6076736e-07
   0.0084084084      0.99966586               0               0               0               0               0    0.0047345878       279.34429   4.4906733e-05   1.6075766e-07
    0.010510511      0.99965564               0               0               0               0               0    0.0047552212       279.35532   4.4906177e-05   1.6074932e-07
    0.012612613      0.99964454               0               0               0               0               0    0.0047773633       279.36675   4.4905918e-05   1.6074182e-07
    0.014714715      0.99963344               0               0               0               0               0    0.0047995054       279.37817    4.490566e-05   1.6073432e-07
    0.016816817      0.99962235               0               0               0               0               0    0.0048216475        279.3896   4.4905401e-05   1.6072682e-07
    0.018918919      0.99961125               0               0               0               0               0    0.0048437896       279.40102   4.4905143e-05   1.6071932e-07
    0.021021021      0.99959978               0               0               0               0               0    0.0048665492       279.41263   4.4904986e-05   1.6071208e-07
    0.023123123      0.99958577               0               0               0               0               0    0.0048934608       279.42551   4.4905512e-05   1.6070655e-07
    0.025225225      0.99957175               0               0               0               0               0    0.0049203724        279.4384   4.4906038e-05   1.6070103e-07
    0.027327327      0.99955774               0               0               0               0               0     0.004947284       279.45128   4.4906564e-05   1.6069551e-07
    0.029429429      0.99954372               0               0               0               0               0    0.0049741955       279.46416    4.490709e-05   1.6068998e-07
    0.031531532      0.99952875               0               0               0               0               0    0.0050025963       279.47753    4.490783e-05   1.6068494e-07
    0.033633634      0.99951097               0               0               0               0               0    0.0050353465       279.49232   4.4909195e-05   1.6068133e-07
    0.035735736      0.99949319               0               0               0               0               0    0.0050680967       279.50711   4.4910561e-05   1.6067771e-07
    0.037837838      0.99947542               0               0               0               0               0    0.0051008469        279.5219   4.4911927e-05    1.606741e-07
     0.03993994      0.99945764               0               0               0               0               0    0.0051335971       279.53669   4.4913292e-05   1.6067048e-07
    0.042042042      0.99943536               0               0               0               0               0    0.0051729703       279.55369    4.491551e-05   1.6066864e-07
    0.044144144      0.99941267               0               0               0               0               0    0.0052129642       279.57089   4.4917808e-05   1.6066697e-07
    0.046246246      0.99938997               0               0               0               0               0    0.0052529581        279.5881   4.4920106e-05    1.606653e-07
    0.048348348      0.99936704               0               0               0               0               0    0.0052932876       279.60542   4.4922443e-05   1.6066371e-07
     0.05045045      0.99933783               0               0               0               0               0    0.0053424255       279.62559   4.4925802e-05   1.6066413e-07
    0.052552553      0.99930863               0               0               0               0               0    0.0053915634       279.64577    4.492916e-05   1.6066454e-07
    0.054654655      0.99927942               0               0               0               0               0    0.0054407014       279.66595   4.4932519e-05   1.6066496e-07
    0.056756757      0.99924525               0               0               0               0               0    0.0054964321       279.68812   4.4936564e-05   1.6066669e-07
    0.058858859      0.99920717               0               0               0               0               0    0.0055573606       279.71186   4.4941148e-05   1.6066944e-07
    0.060960961      0.99916909               0               0               0               0               0    0.0056182891       279.73559   4.4945733e-05    1.606722e-07
    0.063063063      0.99912582               0               0               0               0               0    0.0056858909       279.76119    4.495094e-05   1.6067611e-07
    0.065165165      0.99907555               0               0               0               0               0     0.005762515        279.7893   4.4956989e-05   1.6068158e-07
    0.067267267      0.99902527               0               0               0               0               0     0.005839139       279.81741   4.4963038e-05   1.6068706e-07
    0.069369369      0.99896416               0               0               0               0               0    0.0059283677       279.84811   4.4970037e-05   1.6069444e-07
    0.071471471      0.99889531               0               0               0               0               0    0.0060265831       279.88066   4.4977715e-05   1.6070319e-07
    0.073573574      0.99882646               0               0               0               0               0    0.0061247986       279.91321   4.4985392e-05   1.6071193e-07
    0.075675676      0.99873237               0               0               0               0               0    0.0062547122       279.95709   4.4995932e-05   1.6072438e-07
    0.077777778      0.99863799               0               0               0               0               0    0.0063849858       280.00109   4.5006505e-05   1.6073688e-07
     0.07987988      0.99851081               0               0               0               0               0    0.0065444015       280.03209   4.5016272e-05   1.6075397e-07
    0.081981982      0.99836156               0               0               0               0               0    0.0067234099       280.05435   4.5025497e-05   1.6077414e-07
    0.084084084      0.99818952               0               0               0               0               0    0.0069379455       280.13939   4.5045103e-05   1.6079531e-07
    0.086186186      0.99797906               0               0               0               0               0    0.0072123263       280.33019   4.5082197e-05   1.6081817e-07
    0.088288288      0.99764463               0  -3.0991851e-22               0               0               0    0.0075264715        280.3182   4.5088144e-05   1.6084636e-07
     0.09039039      0.99698532               0  -1.4319952e-21               0               0               0    0.0079448216       279.77479   4.5012468e-05   1.6088851e-07
    0.092492492      0.99637735               0   1.1442351e-17               0               0               0    0.0085579134       284.14867   4.5267726e-05   1.5960684e-07
    0.094594595      0.99590474               0    5.306474e-17               0               0               0    0.0096845118       301.48872   4.6395611e-05   1.5483445e-07
    0.096696697      0.90786185               0   8.0691609e-17  -0.00046258276  -3.0857882e-06               0     0.010462279       1403871.3   4.3202233e-05   1.3747891e-07
    0.098798799      0.64696436               0   8.0692781e-17   -0.0018382556    -1.22626e-05               0      0.01055149       5577907.2   3.1479132e-05   9.5285512e-08
      0.1009009       0.3860772               0   6.2573102e-17   -0.0029138545  -1.7570489e-05   8.0419064e-20    0.0097089539       9751162.5   1.9218263e-05   5.5192094e-08
       0.103003      0.12520379               0   2.0292288e-17   -0.0035893545  -1.7719814e-05   2.6806355e-19     0.007624088        13923377   6.2403703e-06   1.7898647e-08
     0.10510511               0               0               0   -0.0035425495  -1.3060517e-05   4.8736661e-19    0.0059624505        15925793   1.5146036e-08               0
     0.10720721               0               0               0   -0.0028291595  -3.9635465e-06   7.3588606e-19    0.0046913928        15925793   2.1676196e-08               0
     0.10930931               0               0               0   -0.0025291222  -2.0283568e-07    6.748536e-19    0.0042471875        15925793   2.7018201e-08               0
     0.11141141               0               0               0   -0.0025091379  -5.7526094e-08   4.0409478e-19    0.0043631879        15925793   3.1555214e-08               0
     0.11351351               0               0               0   -0.0024930653  -8.2742994e-09   1.5065269e-19    0.0044831638        15925793    3.354699e-08               0
     0.11561562               0               0               0   -0.0024790427  -9.3616896e-09  -9.3714533e-20    0.0046052231        15925793    3.420493e-08               0
     0.11771772               0               0               0   -0.0024541127   -1.107904e-08  -1.0791151e-19    0.0046152782        15925793   3.3873364e-08               0
     0.11981982               0               0               0   -0.0024244974  -1.3066998e-08  -2.3236161e-20    0.0045772207        15925793   3.3116744e-08               0
     0.12192192               0               0               0   -0.0023935861  -1.3480039e-08               0    0.0045001577        15925793   3.2222218e-08               0
     0.12402402               0               0               0   -0.0023621846   -1.329745e-08               0    0.0044083428        15925793   3.1275537e-08               0
     0.12612613               0               0               0   -0.0023333553    -1.26353e-08               0    0.0043350888        15925793   3.0421056e-08               0
     0.12822823               0               0               0   -0.0023054596  -1.1799087e-08               0    0.0042685718        15925793    2.960004e-08               0
     0.13033033               0               0               0    -0.002280477  -1.0988102e-08               0    0.0042207993        15925793    2.887097e-08               0
     0.13243243               0               0               0   -0.0022566094  -1.0186774e-08               0    0.0041802024        15925793   2.8177097e-08               0
     0.13453453               0               0               0    -0.002234986  -9.5046058e-09  -1.4572398e-19    0.0041430992        15925793   2.7550318e-08               0
     0.13663664               0               0               0   -0.0022143554  -8.8751524e-09  -3.5591354e-19    0.0041075417        15925793    2.695322e-08               0
     0.13873874               0               0               0   -0.0021953557  -8.3328603e-09  -4.3087463e-19    0.0040722277        15925793   2.6406827e-08               0
     0.14084084               0               0               0     -0.00217726  -7.8388842e-09  -4.3087467e-19    0.0040370486        15925793   2.5888541e-08               0
     0.14294294               0               0               0   -0.0021603358  -7.4069088e-09    -4.07318e-19    0.0040032845        15925793   2.5407451e-08               0
     0.14504505               0               0               0   -0.0021442859  -7.0212078e-09  -3.6617965e-19    0.0039705765        15925793   2.4954122e-08               0
     0.14714715               0               0               0   -0.0021289886  -6.6793549e-09  -2.7308433e-19    0.0039392018        15925793    2.452381e-08               0
     0.14924925               0               0               0   -0.0021145057  -6.3849475e-09  -1.2376924e-19    0.0039092699        15925793   2.4118403e-08               0
     0.15135135               0               0               0   -0.0021004686  -6.1103436e-09  -1.9676612e-20    0.0038801174        15925793   2.3726532e-08               0
     0.15345345               0               0               0   -0.0020872053  -5.8701037e-09   5.9434515e-21    0.0038523174        15925793   2.3358149e-08               0
     0.15555556               0               0               0    -0.002074188  -5.6362791e-09  -7.5256016e-21    0.0038249377        15925793   2.2997658e-08               0
     0.15765766               0               0               0    -0.002062005  -5.4242138e-09  -1.5357749e-19    0.0037989841        15925793   2.2663933e-08               0
     0.15975976               0               0               0   -0.0020498861  -5.2136023e-09  -2.7392039e-19     0.003773152        15925793   2.2332267e-08               0
     0.16186186               0               0               0   -0.0020386763  -5.0236494e-09  -2.8939217e-20    0.0037490476        15925793   2.2029864e-08               0
     0.16396396               0               0               0   -0.0020274665  -4.8336965e-09   2.1604196e-19    0.0037249431        15925793   2.1727462e-08               0
     0.16606607               0               0               0   -0.0020170366  -4.6619577e-09   2.4571781e-19    0.0037024468        15925793    2.144978e-08               0
     0.16816817               0               0               0   -0.0020067142  -4.4927293e-09   2.4571784e-19    0.0036801721        15925793   2.1175505e-08               0
     0.17027027               0               0               0   -0.0019969175  -4.3378929e-09   1.4132642e-19    0.0036588983        15925793    2.091754e-08               0
     0.17237237               0               0               0   -0.0019873842  -4.1902696e-09  -1.5384482e-20     0.003638126        15925793    2.066775e-08               0
     0.17447447               0               0               0   -0.0019781456   -4.050715e-09  -1.0523825e-19    0.0036179164        15925793   2.0426969e-08               0
     0.17657658               0               0               0   -0.0019693032  -3.9220043e-09  -1.0523826e-19     0.003598463        15925793   2.0198296e-08               0
     0.17867868               0               0               0   -0.0019605588  -3.7958008e-09    -1.10625e-19     0.003579183        15925793   1.9972596e-08               0
     0.18078078               0               0               0   -0.0019523317  -3.6828244e-09  -1.4443009e-19    0.0035608174        15925793   1.9762579e-08               0
     0.18288288               0               0               0   -0.0019441046   -3.569848e-09  -1.7823517e-19    0.0035424517        15925793   1.9552563e-08               0
     0.18498498               0               0               0   -0.0019363481  -3.4688838e-09   -1.192741e-19    0.0035249689        15925793   1.9356667e-08               0
     0.18708709               0               0               0   -0.0019286662  -3.3698219e-09  -4.5621586e-20     0.003507626        15925793   1.9163007e-08               0
     0.18918919               0               0               0    -0.001921245  -3.2768245e-09    3.014457e-20    0.0034907458        15925793   1.8977092e-08               0
     0.19129129               0               0               0   -0.0019140484  -3.1890481e-09   1.0773034e-19    0.0034742641        15925793   1.8797846e-08               0
     0.19339339               0               0               0   -0.0019069313   -3.102886e-09   1.5836221e-19    0.0034579319        15925793   1.8620944e-08               0
      0.1954955               0               0               0   -0.0019001752  -3.0240513e-09   8.6652199e-20    0.0034422778        15925793   1.8454683e-08               0
      0.1975976               0               0               0   -0.0018934192  -2.9452167e-09   1.4942188e-20    0.0034266238        15925793   1.8288423e-08               0
      0.1996997               0               0               0   -0.0018869819  -2.8723926e-09               0    0.0034116945        15925793   1.8131409e-08               0
      0.2018018               0               0               0   -0.0018806284  -2.8011507e-09               0    0.0033969561        15925793   1.7976829e-08               0
      0.2039039               0               0               0   -0.0018744115  -2.7325768e-09  -2.0225595e-20    0.0033823941        15925793   1.7826166e-08               0
     0.20600601               0               0               0   -0.0018684274  -2.6685561e-09  -7.4968509e-20    0.0033681332        15925793   1.7682188e-08               0
     0.20810811               0               0               0   -0.0018624433  -2.6045355e-09  -1.2971142e-19    0.0033538724        15925793   1.7538211e-08               0
     0.21021021               0               0               0   -0.0018567645  -2.5462192e-09  -1.3448429e-19    0.0033402147        15925793   1.7402957e-08               0
     0.21231231               0               0               0   -0.0018511148  -2.4884477e-09  -1.3448432e-19    0.0033266147        15925793   1.7268536e-08               0
     0.21441441               0               0               0   -0.0018455954  -2.4327699e-09   -1.121337e-19    0.0033133637        15925793   1.7137778e-08               0
     0.21651652               0               0               0   -0.0018402557  -2.3799786e-09   -5.896778e-20     0.003300594        15925793   1.7012069e-08               0
     0.21861862               0               0               0   -0.0018349159  -2.3271873e-09  -5.8018643e-21    0.0032878242        15925793   1.6886361e-08               0
     0.22072072               0               0               0    -0.001829832  -2.2792127e-09               0    0.0032752948        15925793   1.6767752e-08               0
     0.22282282               0               0               0   -0.0018247793  -2.2318281e-09               0    0.0032627949        15925793   1.6650013e-08               0
     0.22492492               0               0               0   -0.0018198098  -2.1859722e-09               0    0.0032504568        15925793   1.6534577e-08               0
     0.22702703               0               0               0   -0.0018150144  -2.1433225e-09               0     0.003238458        15925793   1.6423971e-08               0
     0.22912913               0               0               0   -0.0018102191  -2.1006729e-09               0    0.0032264592        15925793   1.6313365e-08               0
     0.23123123               0               0               0   -0.0018055955   -2.060343e-09  -2.7807905e-20    0.0032149687        15925793   1.6207456e-08               0
     0.23333333               0               0               0   -0.0018010405  -2.0209383e-09  -6.6705483e-20    0.0032036809        15925793    1.610342e-08               0
     0.23543544               0               0               0   -0.0017965003  -1.9817679e-09  -1.0066794e-19    0.0031924066        15925793   1.5999784e-08               0
     0.23753754               0               0               0   -0.0017921716  -1.9459394e-09  -6.4205439e-20    0.0031813252        15925793   1.5901848e-08               0
     0.23963964               0               0               0   -0.0017878429  -1.9101109e-09  -2.7742935e-20    0.0031702438        15925793   1.5803912e-08               0
     0.24174174               0               0               0   -0.0017835906   -1.875545e-09   9.1629222e-21    0.0031592812        15925793   1.5708041e-08               0
     0.24384384               0               0               0   -0.0017794671  -1.8431008e-09   4.6813921e-20    0.0031485182        15925793   1.5615638e-08               0
     0.24594595               0               0               0   -0.0017753435  -1.8106566e-09    8.446492e-20    0.0031377552        15925793   1.5523236e-08               0
     0.24804805               0               0               0   -0.0017713421  -1.7796716e-09   7.5745747e-20    0.0031273594        15925793   1.5434096e-08               0
     0.25015015               0               0               0   -0.0017674108  -1.7495221e-09   4.0476511e-20    0.0031171738        15925793   1.5346823e-08               0
     0.25225225               0               0               0   -0.0017634794  -1.7193726e-09   5.2072757e-21    0.0031069882        15925793   1.5259551e-08               0
     0.25435435               0               0               0    -0.001759704  -1.6913548e-09               0     0.003097047        15925793   1.5176363e-08               0
     0.25645646               0               0               0   -0.0017559557  -1.6637062e-09               0    0.0030871482        15925793   1.5093882e-08               0
     0.25855856               0               0               0   -0.0017522108  -1.6361138e-09   5.8313978e-22    0.0030772517        15925793   1.5011492e-08               0
     0.26066066               0               0               0   -0.0017486295  -1.6111937e-09   2.8897922e-20    0.0030674638        15925793   1.4933377e-08               0
     0.26276276               0               0               0   -0.0017450481  -1.5862736e-09   5.7212704e-20    0.0030576759        15925793   1.4855262e-08               0
     0.26486486               0               0               0   -0.0017414881  -1.5615997e-09    8.159939e-20    0.0030479497        15925793    1.477771e-08               0
     0.26696697               0               0               0   -0.0017380612  -1.5384549e-09    8.159941e-20    0.0030386066        15925793   1.4703644e-08               0
     0.26906907               0               0               0   -0.0017346342  -1.5153101e-09   8.1599429e-20    0.0030292635        15925793   1.4629579e-08               0
     0.27117117               0               0               0   -0.0017312378  -1.4924565e-09    7.600721e-20    0.0030200236        15925793   1.4556298e-08               0
     0.27327327               0               0               0   -0.0017279603  -1.4707337e-09   4.8699084e-20    0.0030111846        15925793   1.4486063e-08               0
     0.27537538               0               0               0   -0.0017246829  -1.4490109e-09   2.1390958e-20    0.0030023456        15925793   1.4415827e-08               0
     0.27747748               0               0               0   -0.0017214359  -1.4277175e-09  -5.0996194e-21    0.0029935188        15925793   1.4346358e-08               0
     0.27957958               0               0               0    -0.001718299  -1.4079758e-09    -2.86347e-20    0.0029847364        15925793   1.4279662e-08               0
     0.28168168               0               0               0   -0.0017151621  -1.3882341e-09  -5.2169781e-20     0.002975954        15925793   1.4212965e-08               0
     0.28378378               0               0               0   -0.0017120473  -1.3688016e-09   -7.165089e-20    0.0029671812        15925793   1.4146831e-08               0
     0.28588589               0               0               0   -0.0017090385  -1.3508544e-09  -7.1650909e-20    0.0029584549        15925793   1.4083399e-08               0
     0.28798799               0               0               0   -0.0017060297  -1.3329072e-09  -7.1650928e-20    0.0029497285        15925793   1.4019968e-08               0
     0.29009009               0               0               0   -0.0017030293  -1.3150584e-09  -7.0083564e-20    0.0029410335        15925793    1.395675e-08               0
     0.29219219               0               0               0   -0.0017001417  -1.2985336e-09  -4.7438186e-20    0.0029327595        15925793   1.3896412e-08               0
     0.29429429               0               0               0    -0.001697254  -1.2820088e-09  -2.4792809e-20    0.0029244854        15925793   1.3836073e-08               0
      0.2963964               0               0               0   -0.0016943663   -1.265484e-09  -2.1474316e-21    0.0029162114        15925793   1.3775735e-08               0
      0.2984985               0               0               0   -0.0016915803  -1.2503118e-09               0    0.0029083057        15925793   1.3717837e-08               0
      0.3006006               0               0               0   -0.0016888049  -1.2352813e-09               0    0.0029004386        15925793   1.3660195e-08               0
      0.3027027               0               0               0   -0.0016860295  -1.2202508e-09               0    0.0028925715        15925793   1.3602553e-08               0
      0.3048048               0               0               0   -0.0016833247  -1.2059519e-09   1.2589633e-20    0.0028847039        15925793   1.3546556e-08               0
     0.30690691               0               0               0   -0.0016806534  -1.1920011e-09   3.1169197e-20    0.0028768359        15925793   1.3491342e-08               0
     0.30900901               0               0               0   -0.0016779822  -1.1780503e-09   4.9748762e-20     0.002868968        15925793   1.3436127e-08               0
     0.31111111               0               0               0   -0.0016753501  -1.1643426e-09   5.7838043e-20    0.0028611187        15925793   1.3381871e-08               0
     0.31321321               0               0               0   -0.0016727807  -1.1510253e-09   4.9090065e-20    0.0028532995        15925793   1.3329153e-08               0
     0.31531532               0               0               0   -0.0016702114  -1.1377079e-09   4.0342086e-20    0.0028454802        15925793   1.3276435e-08               0
     0.31741742               0               0               0   -0.0016676441  -1.1244032e-09     3.17507e-20    0.0028376693        15925793    1.322377e-08               0
     0.31951952               0               0               0    -0.001665174  -1.1116834e-09    3.039528e-20    0.0028302488        15925793   1.3173505e-08               0
     0.32162162               0               0               0   -0.0016627038  -1.0989637e-09    2.903986e-20    0.0028228282        15925793   1.3123241e-08               0
     0.32372372               0               0               0   -0.0016602336  -1.0862439e-09    2.768444e-20    0.0028154076        15925793   1.3072977e-08               0
     0.32582583               0               0               0     -0.00165782  -1.0739766e-09   3.2040978e-20    0.0028081945        15925793   1.3024071e-08               0
     0.32792793               0               0               0   -0.0016554462  -1.0620281e-09   4.0422908e-20    0.0028011276        15925793   1.2976123e-08               0
     0.33003003               0               0               0   -0.0016530724  -1.0500797e-09   4.8804838e-20    0.0027940606        15925793   1.2928174e-08               0
     0.33213213               0               0               0   -0.0016507056  -1.0382068e-09   5.5326906e-20    0.0027869949        15925793   1.2880393e-08               0
     0.33423423               0               0               0   -0.0016484229  -1.0272379e-09    3.956769e-20    0.0027799438        15925793   1.2834606e-08               0
     0.33633634               0               0               0   -0.0016461401   -1.016269e-09   2.3808474e-20    0.0027728928        15925793    1.278882e-08               0
     0.33843844               0               0               0   -0.0016438574  -1.0053002e-09   8.0492581e-21    0.0027658417        15925793   1.2743033e-08               0
     0.34054054               0               0               0   -0.0016416162  -9.9474401e-10  -1.0081835e-20    0.0027587978        15925793   1.2698248e-08               0
     0.34264264               0               0               0   -0.0016394184  -9.8461874e-10  -3.0689186e-20    0.0027517616        15925793   1.2654509e-08               0
     0.34474474               0               0               0   -0.0016372207  -9.7449347e-10  -5.1296537e-20    0.0027447254        15925793    1.261077e-08               0
     0.34684685               0               0               0    -0.001635023   -9.643682e-10  -7.1903888e-20    0.0027376891        15925793   1.2567031e-08               0
     0.34894895               0               0               0    -0.001632892  -9.5473607e-10  -7.5618586e-20    0.0027308791        15925793   1.2524898e-08               0
     0.35105105               0               0               0   -0.0016307757  -9.4521239e-10  -7.5618615e-20    0.0027241187        15925793   1.2483118e-08               0
     0.35315315               0               0               0   -0.0016286594   -9.356887e-10  -7.5618644e-20    0.0027173584        15925793   1.2441337e-08               0