/*--------------------------------*- C++ -*----------------------------------*\
  =========                 |
  \\      /  F ield         | OpenFOAM: The Open Source CFD Toolbox
   \\    /   O peration     | Website:  https://openfoam.org
    \\  /    A nd           | Version:  12
     \\/     M anipulation  |
\*---------------------------------------------------------------------------*/
FoamFile
{
    format      ascii;
    class       volScalarField;
    location    "600";
    object      k;
}
// * * * * * * * * * * * * * * * * * * * * * * * * * * * * * * * * * * * * * //

dimensions      [0 2 -2 0 0 0 0];

internalField   nonuniform List<scalar> 
7480
(
9.1319213e-06
9.5178022e-06
1.0336557e-05
1.2715143e-05
0.0017676101
0.0035112438
0.0049554846
0.0060289891
0.0067627454
0.0072238487
0.0074852492
0.0076042759
0.0076238395
0.0075752193
0.0074810541
0.0073575088
0.0072161717
0.0070661953
0.0069173422
0.0067705865
0.0066278315
0.0064895704
0.0063579121
0.0062347688
0.0061214189
0.0060186362
0.0059267002
0.005845404
0.005774175
0.0057121927
0.0056584732
0.0056119935
0.0055718713
0.0055373755
0.0055076312
0.0054816216
0.0054582782
0.0054367102
0.0054162705
0.0053965012
0.005376993
0.0053573755
0.0053373632
0.0053167441
0.0052954138
0.0052733336
0.0052504645
0.005226671
0.0052018222
0.0051759343
0.0051491359
0.0051215509
0.0050932812
0.0050644918
0.0050354349
0.0050063168
0.004977206
0.0049481141
0.0049191001
0.0048902565
0.0048616254
0.004833232
0.0048051487
0.0047774497
0.0047501395
0.0047232114
0.0046966693
0.0046704734
0.0046445558
0.0046189078
0.0045935694
0.0045685358
0.0045438083
0.0045194451
0.0044954213
0.0044716707
0.0044481968
0.0044249846
0.0044020115
0.0043793203
0.0043569257
0.004334801
0.0043129483
0.0042913368
0.0042699385
0.0042487768
0.0042278629
0.0042071964
0.0041867572
0.0041665214
0.0041464949
0.004126671
0.0041070579
0.0040876281
0.0040684016
0.0040491629
0.0040305962
0.004010763
0.0039933002
0.0039668028
8.9479437e-06
8.8222306e-06
8.7067754e-06
8.6318733e-06
4.7739699e-05
0.00014931638
0.00031207771
0.00052025346
0.00075169439
0.00098615985
0.0012045677
0.0013985271
0.0015688409
0.001722632
0.0018691937
0.0020188893
0.0021845018
0.0023871122
0.002612911
0.00284053
0.0030742186
0.0033132721
0.0035546873
0.0037950579
0.0040310024
0.0042582726
0.0044728864
0.0046715541
0.0048517076
0.0050116538
0.0051507481
0.0052695771
0.0053699332
0.0054549477
0.0055250981
0.0055801573
0.0056199967
0.0056466514
0.0056617293
0.0056666593
0.0056630159
0.0056524706
0.0056364709
0.0056159738
0.0055917931
0.0055646694
0.0055352972
0.0055042749
0.0054721135
0.005439481
0.0054069798
0.0053750327
0.0053439031
0.0053137764
0.0052848135
0.0052569008
0.0052296523
0.0052028721
0.0051765182
0.0051506565
0.0051253868
0.0051007596
0.0050767282
0.0050531934
0.0050300739
0.0050072846
0.0049845263
0.0049616519
0.0049387091
0.004915818
0.0048930959
0.0048706234
0.0048484255
0.0048265049
0.0048047278
0.0047829655
0.0047611984
0.0047395014
0.0047179709
0.0046966594
0.0046756018
0.004654728
0.0046339307
0.0046131929
0.0045925711
0.004572118
0.0045518806
0.0045318309
0.0045118946
0.0044920507
0.0044723316
0.0044527825
0.0044334253
0.0044141927
0.0043950927
0.0043759831
0.0043573232
0.0043378105
0.0043221171
0.0042880591
8.943401e-06
8.8096791e-06
8.6758786e-06
8.5428251e-06
9.0513639e-06
1.1697502e-05
1.865496e-05
3.1946401e-05
5.2805599e-05
8.1720632e-05
0.00011804505
0.0001604483
0.00020748382
0.00025789545
0.00031073688
0.00036554641
0.00042264251
0.00048391404
0.00054884656
0.00061893885
0.00069627068
0.0007845943
0.00088743222
0.0010087882
0.0011534254
0.0013105562
0.0014770967
0.0016535525
0.0018399643
0.0020359325
0.0022406999
0.002453512
0.0026715778
0.0028850741
0.0030921946
0.0032899482
0.003473971
0.0036411477
0.0037923539
0.0039272712
0.0040470168
0.0041528959
0.0042443887
0.0043205594
0.0043831951
0.0044340232
0.0044747771
0.0045041166
0.004525644
0.0045414273
0.004552677
0.0045602216
0.0045648215
0.0045673464
0.0045684889
0.0045684841
0.0045672886
0.004564938
0.0045616478
0.0045577183
0.0045533595
0.004548644
0.0045435267
0.0045379384
0.0045318818
0.0045253171
0.0045178808
0.0045095931
0.0045006479
0.0044912415
0.0044815028
0.0044714929
0.004461236
0.0044507503
0.0044398088
0.0044283186
0.0044163708
0.0044041059
0.0043916537
0.0043790809
0.0043664228
0.0043535532
0.0043403635
0.0043268911
0.0043132511
0.0042995277
0.0042857793
0.004271944
0.004257931
0.004243756
0.0042294907
0.0042152054
0.0042009213
0.0041865545
0.0041720871
0.0041575354
0.0041430609
0.0041280162
0.0041154817
0.0040889029
8.9432952e-06
8.8092375e-06
8.6750806e-06
8.5409349e-06
8.4160265e-06
8.3326145e-06
8.3606626e-06
8.6167301e-06
9.2641862e-06
1.0526167e-05
1.2643109e-05
1.5842505e-05
2.0314896e-05
2.6203517e-05
3.3610025e-05
4.260842e-05
5.3273372e-05
6.575531e-05
8.0215677e-05
9.6857878e-05
0.00011593043
0.00013783129
0.00016312331
0.00019257482
0.00022725207
0.00026786101
0.0003151462
0.00037021286
0.00043469649
0.00051096176
0.0006023742
0.00071354847
0.00084291072
0.00098579724
0.0011432028
0.0013164924
0.0015062936
0.0017099789
0.001916961
0.0021227209
0.0023236106
0.0025166352
0.0026988159
0.0028687295
0.0030250238
0.0031666412
0.0032943047
0.0034084594
0.0035095805
0.0035961483
0.0036702468
0.0037337919
0.0037886536
0.0038367952
0.0038792362
0.0039155634
0.0039458742
0.0039718465
0.0039946482
0.0040151202
0.0040335861
0.0040501288
0.0040647903
0.0040777262
0.0040891741
0.0040992032
0.0041077008
0.0041146892
0.0041203744
0.0041249608
0.0041285712
0.0041312509
0.0041330436
0.0041340067
0.0041339073
0.0041327559
0.0041307314
0.0041279963
0.0041246752
0.0041208367
0.004116522
0.0041115609
0.0041058948
0.004099634
0.0040929218
0.0040858531
0.0040784911
0.0040707387
0.0040625155
0.0040538864
0.0040449549
0.004035803
0.0040264428
0.0040167755
0.0040067906
0.0039965967
0.0039862188
0.0039753552
0.0039660324
0.0039455071
8.9433033e-06
8.8092361e-06
8.6750924e-06
8.5409453e-06
8.4069813e-06
8.2738372e-06
8.143179e-06
8.0185108e-06
7.905985e-06
7.8156339e-06
7.7621194e-06
7.7653404e-06
7.8505379e-06
8.048203e-06
8.3941886e-06
8.9297174e-06
9.7017027e-06
1.0764218e-05
1.2180348e-05
1.4021493e-05
1.6366208e-05
1.9308025e-05
2.2963099e-05
2.7477965e-05
3.3049004e-05
3.9923005e-05
4.8388047e-05
5.8795981e-05
7.1598659e-05
8.7395981e-05
0.00010700458
0.00013157996
0.00016239351
0.00020070582
0.00024820829
0.00030731687
0.00038144414
0.00047523422
0.00059228301
0.00072592421
0.0008756072
0.0010401464
0.0012193401
0.0014080586
0.0016000714
0.0017911882
0.0019777132
0.0021564376
0.0023251416
0.0024838403
0.0026300475
0.0027631997
0.0028843014
0.0029953458
0.0030954152
0.0031836276
0.0032610681
0.0033295405
0.0033910042
0.0034466553
0.0034967815
0.0035418415
0.0035824343
0.0036193104
0.0036529998
0.0036834434
0.0037101617
0.0037340611
0.0037557075
0.003775395
0.0037932372
0.0038092874
0.0038236866
0.0038365612
0.0038478968
0.0038577432
0.0038662528
0.0038735763
0.0038798283
0.0038850815
0.0038893908
0.0038926006
0.0038947456
0.0038959874
0.0038964658
0.0038962729
0.0038954726
0.0038939445
0.0038916518
0.0038887131
0.0038852482
0.0038813392
0.0038769856
0.0038720803
0.0038666491
0.0038608515
0.0038546578
0.0038479193
0.0038421439
0.0038264332
8.9433259e-06
8.8092684e-06
8.6751349e-06
8.5409892e-06
8.4068936e-06
8.2729187e-06
8.1391566e-06
8.0057487e-06
7.8729296e-06
7.7410889e-06
7.6108541e-06
7.4831903e-06
7.3595076e-06
7.2417681e-06
7.1326086e-06
7.0354595e-06
6.954691e-06
6.8958072e-06
6.8657591e-06
6.8731837e-06
6.9284358e-06
7.0441887e-06
7.2363878e-06
7.5253076e-06
7.937992e-06
8.5102746e-06
9.2881599e-06
1.0331194e-05
1.1718434e-05
1.3556184e-05
1.5988415e-05
1.921737e-05
2.351923e-05
2.9265045e-05
3.6952013e-05
4.7269546e-05
6.1191334e-05
8.0098473e-05
0.00010585117
0.0001401102
0.00018484636
0.0002425139
0.00031658397
0.00041008237
0.00052524535
0.00065788967
0.00080704158
0.00097009669
0.0011439922
0.001321563
0.0014991597
0.0016733618
0.0018414782
0.0020018376
0.0021552754
0.0022995869
0.0024330768
0.0025558173
0.0026693235
0.0027737055
0.0028674981
0.0029521085
0.0030289059
0.0030992837
0.00316374
0.0032221809
0.0032745899
0.0033219874
0.0033653051
0.0034048984
0.0034409859
0.0034738612
0.0035039385
0.0035314645
0.0035561023
0.0035782774
0.0035984166
0.0036167514
0.0036334038
0.0036484645
0.0036620229
0.0036741055
0.0036847943
0.0036942164
0.0037024902
0.0037097095
0.0037159396
0.0037210822
0.0037251737
0.0037283654
0.0037307705
0.0037324656
0.0037334414
0.0037336034
0.0037330312
0.0037319058
0.0037301698
0.0037277497
0.0037258861
0.0037147142
8.9433578e-06
8.8093052e-06
8.6751732e-06
8.5410268e-06
8.406929e-06
8.272942e-06
8.1391267e-06
8.0055433e-06
7.872255e-06
7.7393302e-06
7.6068451e-06
7.474889e-06
7.3435775e-06
7.2130554e-06
7.0835098e-06
6.955186e-06
6.8284053e-06
6.7035857e-06
6.5812719e-06
6.4621664e-06
6.34715e-06
6.2373235e-06
6.1340802e-06
6.0391908e-06
5.9549733e-06
5.8844997e-06
5.8317751e-06
5.8021002e-06
5.8026513e-06
5.8433215e-06
5.937929e-06
6.1064967e-06
6.3784363e-06
6.7963934e-06
7.4224867e-06
8.3492831e-06
9.7167258e-06
1.173735e-05
1.4736674e-05
1.9172023e-05
2.5683325e-05
3.5166734e-05
4.8894461e-05
6.8545388e-05
9.6281279e-05
0.00013421434
0.00018481224
0.00025106612
0.00033684993
0.00044291207
0.00056604353
0.00070560782
0.00085926426
0.0010229486
0.0011888072
0.0013542459
0.0015166798
0.0016740427
0.0018250048
0.0019708108
0.0021091895
0.0022387723
0.0023597375
0.0024732306
0.002578389
0.0026740829
0.0027611466
0.0028408457
0.0029141091
0.0029808448
0.0030415197
0.0030969414
0.0031478619
0.0031945854
0.003236937
0.0032753669
0.0033105174
0.003342755
0.0033722731
0.0033992845
0.0034240218
0.0034463465
0.003466579
0.0034850152
0.0035018195
0.0035171077
0.0035309485
0.0035433801
0.0035544929
0.0035644021
0.0035732034
0.0035809735
0.0035877119
0.0035933747
0.0035980862
0.00360202
0.003605103
0.0036073037
0.0036097569
0.0036031822
8.9433999e-06
8.8093528e-06
8.6752243e-06
8.5410808e-06
8.406985e-06
8.2729984e-06
8.1391813e-06
8.0055924e-06
7.872291e-06
7.739337e-06
7.6067901e-06
7.4747102e-06
7.3431574e-06
7.2121936e-06
7.0818808e-06
6.9522832e-06
6.8234687e-06
6.6955099e-06
6.5684867e-06
6.4424895e-06
6.3176212e-06
6.1940011e-06
6.0717699e-06
5.9510967e-06
5.8321905e-06
5.7153154e-06
5.6008051e-06
5.4890881e-06
5.3807283e-06
5.2764841e-06
5.1773926e-06
5.0849241e-06
5.0012137e-06
4.9293596e-06
4.8739068e-06
4.8417006e-06
4.8433066e-06
4.8953218e-06
5.0248513e-06
5.2757063e-06
5.7173879e-06
6.4618047e-06
7.6904764e-06
9.692142e-06
1.2915199e-05
1.8014307e-05
2.5931609e-05
3.8003975e-05
5.6115158e-05
8.2543773e-05
0.00011955379
0.00016976736
0.00023635911
0.00032383947
0.00042946842
0.00055122566
0.00068817592
0.00083776894
0.00099522283
0.0011516052
0.0013065588
0.0014584385
0.0016059755
0.0017488673
0.0018876407
0.0020197728
0.0021443157
0.0022615813
0.0023721854
0.0024732973
0.0025659961
0.0026514901
0.0027305319
0.0028030715
0.0028691432
0.0029294142
0.0029846574
0.0030352272
0.0030814573
0.0031238249
0.0031627913
0.0031983025
0.0032306591
0.0032603038
0.003287536
0.0033125358
0.0033354451
0.0033562319
0.0033751497
0.0033924363
0.003408217
0.0034225873
0.0034355934
0.0034472995
0.0034578032
0.003467251
0.0034755695
0.0034827608
0.0034899918
0.0034882065
8.9434487e-06
8.809408e-06
8.6752842e-06
8.5411436e-06
8.4070491e-06
8.2730621e-06
8.1392433e-06
8.0056524e-06
7.8723488e-06
7.7393924e-06
7.6068423e-06
7.4747578e-06
7.3431972e-06
7.2122187e-06
7.0818792e-06
6.952235e-06
6.8233414e-06
6.6952525e-06
6.5680219e-06
6.4417024e-06
6.3163463e-06
6.1920054e-06
6.0687311e-06
5.9465752e-06
5.825591e-06
5.7058337e-06
5.5873626e-06
5.4702415e-06
5.3545423e-06
5.2403484e-06
5.1277609e-06
5.0169078e-06
4.9079596e-06
4.8011488e-06
4.6968002e-06
4.5953843e-06
4.4976049e-06
4.4045415e-06
4.3179294e-06
4.2405998e-06
4.177118e-06
4.1350262e-06
4.1270387e-06
4.1748636e-06
4.3161327e-06
4.6153267e-06
5.1821767e-06
6.2038878e-06
7.996723e-06
1.1066383e-05
1.6169088e-05
2.4410517e-05
3.7371818e-05
5.7382838e-05
8.682597e-05
0.00012818691
0.00018437683
0.00025928125
0.00035531025
0.00046718718
0.00059368967
0.00073303152
0.00088149412
0.0010325924
0.0011806774
0.0013269512
0.0014702878
0.0016095497
0.0017461926
0.0018774766
0.0020021137
0.0021201176
0.0022320105
0.0023356635
0.0024311525
0.0025194031
0.0026009726
0.0026757238
0.0027441338
0.0028069518
0.0028647718
0.0029175875
0.0029657655
0.0030099184
0.0030504578
0.003087664
0.003121853
0.0031531177
0.0031817079
0.0032079413
0.0032320648
0.003254236
0.003274493
0.003292906
0.0033097592
0.0033252131
0.0033392125
0.0033518217
0.0033643675
0.0033675718
8.9435027e-06
8.809469e-06
8.6753501e-06
8.5412125e-06
8.4071193e-06
8.2731323e-06
8.1393126e-06
8.0057202e-06
7.8724149e-06
7.7394563e-06
7.606904e-06
7.4748169e-06
7.3432536e-06
7.212272e-06
7.0819289e-06
6.9522805e-06
6.8233813e-06
6.6952851e-06
6.5680438e-06
6.4417086e-06
6.3163291e-06
6.1919529e-06
6.0686264e-06
5.9463939e-06
5.8252985e-06
5.7053819e-06
5.5866843e-06
5.4692447e-06
5.3531008e-06
5.2382892e-06
5.124846e-06
5.0128074e-06
4.9022106e-06
4.7930952e-06
4.685505e-06
4.5794911e-06
4.4751171e-06
4.3724676e-06
4.2716649e-06
4.1728952e-06
4.0764483e-06
3.9827911e-06
3.8927012e-06
3.8075057e-06
3.7295316e-06
3.6628736e-06
3.6147276e-06
3.5979513e-06
3.635842e-06
3.7707649e-06
4.0786392e-06
4.6943749e-06
5.8563504e-06
7.9846455e-06
1.1743044e-05
1.8136575e-05
2.863374e-05
4.5394203e-05
7.1232922e-05
0.00010871685
0.00016065405
0.00023079152
0.00032135044
0.000429951
0.00055210769
0.00068619359
0.00082870844
0.00097507285
0.0011174303
0.0012585449
0.0013974186
0.0015328773
0.0016662995
0.0017951906
0.0019181925
0.002035109
0.0021461959
0.0022491037
0.002344339
0.0024326563
0.0025144573
0.0025894892
0.0026582931
0.0027215023
0.0027794632
0.0028325715
0.0028813693
0.0029261039
0.0029670083
0.0030045068
0.0030390045
0.0030707478
0.003099869
0.0031264967
0.0031509596
0.0031734963
0.0031941522
0.0032128921
0.0032313908
0.0032396286
8.9435608e-06
8.8095345e-06
8.6754207e-06
8.5412864e-06
8.4071949e-06
8.2732082e-06
8.1393876e-06
8.0057938e-06
7.8724865e-06
7.7395258e-06
7.6069711e-06
7.4748815e-06
7.3433157e-06
7.2123315e-06
7.0819858e-06
6.9523347e-06
6.8234329e-06
6.6953339e-06
6.5680898e-06
6.4417515e-06
6.3163685e-06
6.1919885e-06
6.0686572e-06
5.9464189e-06
5.825316e-06
5.7053893e-06
5.5866782e-06
5.46922e-06
5.3530501e-06
5.2382022e-06
5.1247083e-06
5.0125985e-06
4.9019014e-06
4.792644e-06
4.684852e-06
4.5785496e-06
4.4737596e-06
4.3705047e-06
4.2688076e-06
4.1686935e-06
4.0701919e-06
3.9733409e-06
3.8781943e-06
3.7848366e-06
3.6934087e-06
3.6041547e-06
3.5175035e-06
3.4342255e-06
3.3557317e-06
3.2846495e-06
3.2258648e-06
3.1884191e-06
3.1892221e-06
3.2606181e-06
3.4633982e-06
3.9103497e-06
4.8090615e-06
6.5386315e-06
9.7517343e-06
1.5470517e-05
2.5207921e-05
4.1213954e-05
6.6413167e-05
0.00010387327
0.00015643214
0.00022803854
0.00031910958
0.00042888571
0.00055104253
0.00068333019
0.00082228605
0.00096402002
0.0011019879
0.0012383121
0.0013728097
0.001504666
0.0016346045
0.001760052
0.0018799277
0.0019941993
0.0021025257
0.0022028605
0.0022960785
0.0023825961
0.0024623344
0.0025356674
0.0026031979
0.0026652332
0.0027220143
0.0027740606
0.0028218725
0.0028657754
0.0029060732
0.0029429993
0.002976888
0.0030080825
0.0030367926
0.0030629419
0.0030885836
0.003102864
8.9436224e-06
8.8096034e-06
8.6754952e-06
8.5413643e-06
8.4072747e-06
8.2732885e-06
8.1394673e-06
8.005872e-06
7.872563e-06
7.7396001e-06
7.6070431e-06
7.4749511e-06
7.3433827e-06
7.2123958e-06
7.0820475e-06
6.9523935e-06
6.8234888e-06
6.6953869e-06
6.5681399e-06
6.4417987e-06
6.3164128e-06
6.1920298e-06
6.0686955e-06
5.9464543e-06
5.8253486e-06
5.7054192e-06
5.5867052e-06
5.469244e-06
5.3530708e-06
5.2382193e-06
5.1247211e-06
5.012606e-06
4.901902e-06
4.7926355e-06
4.6848308e-06
4.5785105e-06
4.4736951e-06
4.3704031e-06
4.2686516e-06
4.168456e-06
4.0698303e-06
3.9727872e-06
3.8773385e-06
3.7834958e-06
3.6912724e-06
3.6006861e-06
3.5117635e-06
3.4245494e-06
3.3391239e-06
3.2556374e-06
3.1743748e-06
3.0958749e-06
3.021164e-06
2.952239e-06
2.892994e-06
2.8509648e-06
2.8407818e-06
2.8913303e-06
3.0597799e-06
3.4571587e-06
4.2955284e-06
5.9756495e-06
9.2067819e-06
1.515183e-05
2.5540154e-05
4.2981514e-05
7.0593398e-05
0.00011185731
0.00016990063
0.0002477201
0.00034439771
0.00045875249
0.00058365116
0.00071576582
0.00085222951
0.00098952863
0.0011229749
0.0012552051
0.0013854851
0.0015141574
0.0016400962
0.0017613364
0.0018772857
0.0019879633
0.0020915751
0.0021879536
0.0022775879
0.0023605927
0.0024370259
0.0025073648
0.0025720516
0.002631413
0.0026859228
0.0027359338
0.0027817671
0.002823865
0.0028626192
0.0028979584
0.0029323413
0.0029543499
8.9436867e-06
8.8096753e-06
8.6755727e-06
8.5414455e-06
8.4073579e-06
8.2733723e-06
8.1395507e-06
8.0059543e-06
7.8726435e-06
7.7396786e-06
7.6071192e-06
7.4750247e-06
7.3434537e-06
7.2124641e-06
7.0821129e-06
6.9524561e-06
6.8235485e-06
6.6954436e-06
6.5681937e-06
6.4418495e-06
6.3164607e-06
6.1920747e-06
6.0687376e-06
5.9464936e-06
5.8253852e-06
5.7054532e-06
5.5867367e-06
5.4692731e-06
5.3530978e-06
5.2382442e-06
5.124744e-06
5.012627e-06
4.9019212e-06
4.7926528e-06
4.6848462e-06
4.5785238e-06
4.4737059e-06
4.370411e-06
4.2686555e-06
4.1684544e-06
4.0698209e-06
3.9727661e-06
3.8772993e-06
3.7834282e-06
3.6911587e-06
3.6004958e-06
3.5114434e-06
3.4240046e-06
3.3381831e-06
3.253985e-06
3.171423e-06
3.090523e-06
3.0113381e-06
2.9339776e-06
2.8586643e-06
2.7858462e-06
2.7164176e-06
2.6521854e-06
2.596833e-06
2.5578272e-06
2.5502542e-06
2.6050587e-06
2.7857864e-06
3.2215739e-06
4.1679799e-06
6.1229051e-06
9.9713184e-06
1.7180378e-05
2.9962968e-05
5.1401374e-05
8.4939096e-05
0.00013438465
0.00020335067
0.00029114616
0.00039699572
0.00051759233
0.00064504885
0.00077693813
0.00091103607
0.0010433645
0.0011727469
0.0013011296
0.0014278196
0.0015529697
0.0016742702
0.0017906465
0.0019020312
0.0020073619
0.0021054404
0.0021967258
0.0022814497
0.0023596008
0.0024316354
0.0024979286
0.0025587517
0.0026145924
0.0026659624
0.0027128307
0.0027580442
0.0027900374
8.9437534e-06
8.8097495e-06
8.6756525e-06
8.5415292e-06
8.4074438e-06
8.2734592e-06
8.1396373e-06
8.0060398e-06
7.8727275e-06
7.7397605e-06
7.6071989e-06
7.4751019e-06
7.3435282e-06
7.2125358e-06
7.0821818e-06
6.9525221e-06
6.8236114e-06
6.6955035e-06
6.5682506e-06
6.4419034e-06
6.3165115e-06
6.1921225e-06
6.0687824e-06
5.9465355e-06
5.8254243e-06
5.7054896e-06
5.5867706e-06
5.4693045e-06
5.3531269e-06
5.2382712e-06
5.124769e-06
5.0126502e-06
4.9019427e-06
4.7926729e-06
4.6848649e-06
4.5785411e-06
4.473722e-06
4.3704259e-06
4.2686693e-06
4.1684671e-06
4.0698323e-06
3.9727761e-06
3.8773076e-06
3.7834342e-06
3.6911616e-06
3.6004939e-06
3.5114338e-06
3.4239822e-06
3.3381384e-06
3.2539007e-06
3.1712662e-06
3.0902318e-06
3.0107942e-06
2.9329523e-06
2.85671e-06
2.7820839e-06
2.7091157e-06
2.6379009e-06
2.568649e-06
2.5018062e-06
2.4383056e-06
2.3801129e-06
2.3313987e-06
2.3009909e-06
2.3075044e-06
2.3909009e-06
2.6362625e-06
3.2230065e-06
4.5190872e-06
7.2337155e-06
1.2615641e-05
2.2691372e-05
4.0504675e-05
6.9535813e-05
0.00011357405
0.00017698086
0.0002597492
0.00036063842
0.00047714454
0.00060218541
0.00073077429
0.00086158569
0.00099217089
0.0011195605
0.001245533
0.0013700173
0.0014937171
0.0016142157
0.0017301454
0.0018413086
0.0019469138
0.0020453416
0.0021370784
0.0022223604
0.0023010816
0.0023736351
0.002440536
0.0025017093
0.0025602683
0.0026049813
8.9438223e-06
8.8098256e-06
8.6757344e-06
8.5416151e-06
8.4075321e-06
8.2735485e-06
8.1397266e-06
8.0061282e-06
7.8728143e-06
7.7398455e-06
7.6072816e-06
7.4751821e-06
7.3436058e-06
7.2126106e-06
7.0822537e-06
6.952591e-06
6.8236773e-06
6.6955663e-06
6.5683103e-06
6.44196e-06
6.3165649e-06
6.1921728e-06
6.0688297e-06
5.9465798e-06
5.8254657e-06
5.7055282e-06
5.5868066e-06
5.4693381e-06
5.3531581e-06
5.2383002e-06
5.1247959e-06
5.0126753e-06
4.9019661e-06
4.7926946e-06
4.6848852e-06
4.5785601e-06
4.4737397e-06
4.3704424e-06
4.2686848e-06
4.1684816e-06
4.069846e-06
3.9727889e-06
3.8773195e-06
3.7834453e-06
3.6911719e-06
3.6005033e-06
3.5114422e-06
3.4239893e-06
3.3381438e-06
3.2539035e-06
3.1712647e-06
3.0902226e-06
3.010771e-06
2.9329024e-06
2.8566086e-06
2.7818812e-06
2.7087119e-06
2.6370947e-06
2.5670291e-06
2.4985279e-06
2.4316327e-06
2.3664469e-06
2.3032112e-06
2.2424616e-06
2.1853702e-06
2.1345246e-06
2.0956502e-06
2.0813788e-06
2.1197235e-06
2.2729726e-06
2.6782842e-06
3.6326987e-06
5.7518319e-06
1.0175264e-05
1.8814253e-05
3.4731897e-05
6.159212e-05
0.00010328058
0.00016430183
0.00024516494
0.00034410895
0.00045832395
0.00058206189
0.00070848458
0.00083652245
0.00096486816
0.0010902557
0.0012137755
0.0013361876
0.001458161
0.0015772557
0.0016920353
0.0018022285
0.0019070273
0.0020047763
0.0020959189
0.0021807798
0.0022588661
0.0023333369
0.0023938206
8.943893e-06
8.8099035e-06
8.675818e-06
8.5417027e-06
8.4076222e-06
8.2736398e-06
8.1398181e-06
8.006219e-06
7.8729038e-06
7.7399331e-06
7.607367e-06
7.4752651e-06
7.3436861e-06
7.2126882e-06
7.0823283e-06
6.9526626e-06
6.8237458e-06
6.6956317e-06
6.5683725e-06
6.442019e-06
6.3166208e-06
6.1922255e-06
6.0688792e-06
5.9466262e-06
5.8255092e-06
5.7055689e-06
5.5868446e-06
5.4693735e-06
5.3531911e-06
5.2383308e-06
5.1248245e-06
5.0127019e-06
4.9019909e-06
4.7927178e-06
4.6849069e-06
4.5785804e-06
4.4737587e-06
4.3704602e-06
4.2687015e-06
4.1684973e-06
4.0698606e-06
3.9728026e-06
3.8773325e-06
3.7834574e-06
3.6911833e-06
3.600514e-06
3.5114522e-06
3.4239987e-06
3.3381525e-06
3.2539115e-06
3.1712719e-06
3.090229e-06
3.0107762e-06
2.9329057e-06
2.8566088e-06
2.7818756e-06
2.7086951e-06
2.6370555e-06
2.5669443e-06
2.498349e-06
2.431258e-06
2.3656624e-06
2.3015607e-06
2.2389686e-06
2.1779404e-06
2.1186174e-06
2.0613405e-06
2.0068968e-06
1.9570911e-06
1.9160794e-06
1.8934212e-06
1.9111227e-06
2.0204323e-06
2.3390117e-06
3.1313132e-06
4.9773496e-06
9.0023205e-06
1.7148891e-05
3.259282e-05
5.9246622e-05
0.00010116845
0.0001628923
0.00024463283
0.0003442054
0.00045807411
0.00058114668
0.00070592618
0.00083157831
0.00095747661
0.0010806913
0.0012019479
0.0013225371
0.0014426286
0.0015598779
0.0016730182
0.0017816501
0.0018848475
0.0019808522
0.0020728914
0.0021518555
8.9439655e-06
8.8099829e-06
8.675903e-06
8.5417918e-06
8.407714e-06
8.273733e-06
8.1399116e-06
8.0063119e-06
7.8729954e-06
7.740023e-06
7.6074548e-06
7.4753505e-06
7.3437689e-06
7.2127682e-06
7.0824054e-06
6.9527366e-06
6.8238167e-06
6.6956994e-06
6.5684369e-06
6.4420803e-06
6.3166788e-06
6.1922802e-06
6.0689308e-06
5.9466747e-06
5.8255546e-06
5.7056114e-06
5.5868843e-06
5.4694106e-06
5.3532257e-06
5.2383631e-06
5.1248546e-06
5.01273e-06
4.9020171e-06
4.7927423e-06
4.6849298e-06
4.5786018e-06
4.4737788e-06
4.370479e-06
4.2687192e-06
4.1685139e-06
4.0698763e-06
3.9728173e-06
3.8773462e-06
3.7834704e-06
3.6911954e-06
3.6005254e-06
3.5114629e-06
3.4240087e-06
3.3381619e-06
3.2539203e-06
3.1712802e-06
3.0902367e-06
3.0107833e-06
2.9329123e-06
2.8566148e-06
2.7818808e-06
2.7086994e-06
2.6370582e-06
2.5669442e-06
2.4983435e-06
2.4312415e-06
2.3656228e-06
2.3014717e-06
2.2387731e-06
2.1775134e-06
2.1176835e-06
2.059286e-06
2.0023503e-06
1.946969e-06
1.8933838e-06
1.8421875e-06
1.7947962e-06
1.7546137e-06
1.7298117e-06
1.739877e-06
1.8321361e-06
2.1198365e-06
2.8674037e-06
4.6756656e-06
8.7508204e-06
1.721474e-05
3.352367e-05
6.186914e-05
0.00010652589
0.00017150521
0.00025669595
0.00035894615
0.00047382034
0.00059642791
0.00071976171
0.00084334676
0.0009667647
0.0010877655
0.0012069075
0.0013259171
0.0014440109
0.0015591831
0.0016701144
0.0017789701
0.001877186
8.9440395e-06
8.8100636e-06
8.6759892e-06
8.5418822e-06
8.4078071e-06
8.2738276e-06
8.1400067e-06
8.0064066e-06
7.873089e-06
7.7401149e-06
7.6075447e-06
7.4754381e-06
7.3438539e-06
7.2128504e-06
7.0824846e-06
6.9528128e-06
6.8238898e-06
6.6957692e-06
6.5685035e-06
6.4421436e-06
6.3167388e-06
6.1923369e-06
6.0689842e-06
5.9467249e-06
5.8256018e-06
5.7056557e-06
5.5869257e-06
5.4694493e-06
5.3532618e-06
5.2383968e-06
5.124886e-06
5.0127593e-06
4.9020446e-06
4.792768e-06
4.6849538e-06
4.5786243e-06
4.4737999e-06
4.3704988e-06
4.2687378e-06
4.1685314e-06
4.0698927e-06
3.9728328e-06
3.8773608e-06
3.783484e-06
3.6912083e-06
3.6005375e-06
3.5114743e-06
3.4240193e-06
3.3381719e-06
3.2539296e-06
3.1712889e-06
3.0902448e-06
3.0107909e-06
2.9329194e-06
2.8566214e-06
2.781887e-06
2.708705e-06
2.6370634e-06
2.5669489e-06
2.4983475e-06
2.4312446e-06
2.3656243e-06
2.3014703e-06
2.2387656e-06
2.1774927e-06
2.1176337e-06
2.0591711e-06
2.0020883e-06
1.9463721e-06
1.8920179e-06
1.8390426e-06
1.7875143e-06
1.7376272e-06
1.6898869e-06
1.6455527e-06
1.6077777e-06
1.5844471e-06
1.5951205e-06
1.6891118e-06
1.9891352e-06
2.792179e-06
4.787773e-06
9.3794667e-06
1.9051583e-05
3.7670839e-05
6.9749541e-05
0.00011978051
0.00019052328
0.0002810955
0.00038724745
0.00050370162
0.00062565156
0.00074750867
0.00086920952
0.00099018246
0.0011089463
0.0012262273
0.0013436354
0.001461835
0.0015740593
8.944115e-06
8.8101455e-06
8.6760766e-06
8.5419736e-06
8.4079013e-06
8.2739235e-06
8.1401032e-06
8.0065029e-06
7.8731843e-06
7.7402087e-06
7.6076366e-06
7.4755276e-06
7.3439409e-06
7.2129346e-06
7.0825659e-06
6.952891e-06
6.8239648e-06
6.695841e-06
6.568572e-06
6.4422087e-06
6.3168006e-06
6.1923954e-06
6.0690394e-06
5.9467769e-06
5.8256506e-06
5.7057014e-06
5.5869686e-06
5.4694894e-06
5.3532993e-06
5.2384318e-06
5.1249188e-06
5.0127899e-06
4.9020732e-06
4.7927948e-06
4.6849789e-06
4.5786478e-06
4.4738219e-06
4.3705195e-06
4.2687572e-06
4.1685497e-06
4.0699099e-06
3.9728489e-06
3.877376e-06
3.7834983e-06
3.6912217e-06
3.6005502e-06
3.5114862e-06
3.4240305e-06
3.3381824e-06
3.2539394e-06
3.1712981e-06
3.0902534e-06
3.0107989e-06
2.9329268e-06
2.8566283e-06
2.7818934e-06
2.708711e-06
2.6370689e-06
2.566954e-06
2.4983523e-06
2.4312489e-06
2.3656282e-06
2.3014737e-06
2.2387684e-06
2.1774946e-06
2.1176338e-06
2.0591673e-06
2.002076e-06
1.9463405e-06
1.8919413e-06
1.8388603e-06
1.7870819e-06
1.7365978e-06
1.6874189e-06
1.6396037e-06
1.5933314e-06
1.549092e-06
1.5081591e-06
1.4738475e-06
1.4547789e-06
1.4732082e-06
1.5873317e-06
1.9472254e-06
2.9279683e-06
5.4028366e-06
1.1128066e-05
2.3178932e-05
4.5914008e-05
8.4106963e-05
0.0001422767
0.00022083814
0.00031792484
0.00042807307
0.00054604262
0.00066697407
0.00078724579
0.00090730463
0.0010255879
0.0011444543
0.0012604374
8.9441918e-06
8.8102285e-06
8.6761649e-06
8.542066e-06
8.4079966e-06
8.2740205e-06
8.140201e-06
8.0066005e-06
7.8732811e-06
7.7403041e-06
7.6077301e-06
7.4756189e-06
7.3440297e-06
7.2130207e-06
7.0826491e-06
6.9529711e-06
6.8240417e-06
6.6959146e-06
6.5686423e-06
6.4422757e-06
6.3168641e-06
6.1924556e-06
6.0690962e-06
5.9468304e-06
5.825701e-06
5.7057487e-06
5.5870129e-06
5.4695309e-06
5.3533381e-06
5.2384681e-06
5.1249527e-06
5.0128216e-06
4.9021029e-06
4.7928226e-06
4.685005e-06
4.5786723e-06
4.4738448e-06
4.370541e-06
4.2687774e-06
4.1685687e-06
4.0699278e-06
3.9728658e-06
3.8773918e-06
3.7835132e-06
3.6912357e-06
3.6005633e-06
3.5114985e-06
3.4240421e-06
3.3381932e-06
3.2539496e-06
3.1713077e-06
3.0902624e-06
3.0108073e-06
2.9329346e-06
2.8566356e-06
2.7819002e-06
2.7087173e-06
2.6370747e-06
2.5669594e-06
2.4983572e-06
2.4312535e-06
2.3656325e-06
2.3014776e-06
2.2387719e-06
2.1774978e-06
2.1176366e-06
2.0591697e-06
2.0020777e-06
1.9463409e-06
1.8919391e-06
1.8388519e-06
1.7870589e-06
1.7365396e-06
1.6872747e-06
1.6392474e-06
1.5924481e-06
1.5468867e-06
1.5026227e-06
1.4598474e-06
1.4191034e-06
1.3818562e-06
1.3520698e-06
1.340458e-06
1.375841e-06
1.5361286e-06
2.0281563e-06
3.3798388e-06
6.7931039e-06
1.4602669e-05
3.0712303e-05
5.9876818e-05
0.00010705233
0.00017512682
0.00026300062
0.00036688221
0.00048050005
0.00059969637
0.0007188338
0.00083978671
0.00095729587
8.94427e-06
8.8103127e-06
8.6762541e-06
8.5421593e-06
8.4080928e-06
8.2741185e-06
8.1402998e-06
8.0066994e-06
7.8733793e-06
7.740401e-06
7.6078252e-06
7.4757119e-06
7.3441202e-06
7.2131084e-06
7.0827339e-06
6.9530529e-06
6.8241203e-06
6.6959899e-06
6.5687143e-06
6.4423442e-06
6.3169293e-06
6.1925174e-06
6.0691546e-06
5.9468855e-06
5.8257528e-06
5.7057974e-06
5.5870586e-06
5.4695736e-06
5.3533781e-06
5.2385056e-06
5.1249877e-06
5.0128544e-06
4.9021336e-06
4.7928514e-06
4.6850319e-06
4.5786975e-06
4.4738685e-06
4.3705633e-06
4.2687983e-06
4.1685884e-06
4.0699463e-06
3.9728832e-06
3.8774082e-06
3.7835286e-06
3.6912502e-06
3.600577e-06
3.5115114e-06
3.4240541e-06
3.3382045e-06
3.2539602e-06
3.1713176e-06
3.0902716e-06
3.0108159e-06
2.9329427e-06
2.8566431e-06
2.7819072e-06
2.7087238e-06
2.6370807e-06
2.5669649e-06
2.4983624e-06
2.4312583e-06
2.3656368e-06
2.3014816e-06
2.2387756e-06
2.1775011e-06
2.1176397e-06
2.0591725e-06
2.0020802e-06
1.9463431e-06
1.8919409e-06
1.8388532e-06
1.7870592e-06
1.7365378e-06
1.6872678e-06
1.6392281e-06
1.5923975e-06
1.5467563e-06
1.5022875e-06
1.4589821e-06
1.4168534e-06
1.375974e-06
1.3365793e-06
1.2993567e-06
1.2662328e-06
1.2426118e-06
1.2436222e-06
1.3116777e-06
1.564806e-06
2.3232354e-06
4.4001e-06
9.5476799e-06
2.100476e-05
4.3453105e-05
8.1948698e-05
0.00014100038
0.00022051851
0.00031819361
0.00042751684
0.00054591846
0.00066445163
8.9443494e-06
8.8103978e-06
8.6763441e-06
8.5422533e-06
8.4081897e-06
8.2742174e-06
8.1403996e-06
8.0067993e-06
7.8734786e-06
7.7404992e-06
7.6079217e-06
7.4758063e-06
7.3442122e-06
7.2131978e-06
7.0828204e-06
6.9531362e-06
6.8242005e-06
6.6960668e-06
6.5687878e-06
6.4424144e-06
6.316996e-06
6.1925806e-06
6.0692144e-06
5.9469419e-06
5.8258059e-06
5.7058474e-06
5.5871055e-06
5.4696176e-06
5.3534193e-06
5.2385441e-06
5.1250238e-06
5.0128882e-06
4.9021652e-06
4.792881e-06
4.6850597e-06
4.5787236e-06
4.473893e-06
4.3705862e-06
4.2688199e-06
4.1686087e-06
4.0699654e-06
3.9729012e-06
3.8774251e-06
3.7835445e-06
3.6912652e-06
3.600591e-06
3.5115246e-06
3.4240665e-06
3.3382162e-06
3.2539711e-06
3.1713278e-06
3.0902812e-06
3.0108248e-06
2.932951e-06
2.8566508e-06
2.7819143e-06
2.7087304e-06
2.6370869e-06
2.5669707e-06
2.4983677e-06
2.4312631e-06
2.3656413e-06