/*--------------------------------*- C++ -*----------------------------------*\
  =========                 |
  \\      /  F ield         | OpenFOAM: The Open Source CFD Toolbox
   \\    /   O peration     | Website:  https://openfoam.org
    \\  /    A nd           | Version:  12
     \\/     M anipulation  |
\*---------------------------------------------------------------------------*/
FoamFile
{
    format      ascii;
    class       volScalarField;
    location    "600";
    object      nut;
}
// * * * * * * * * * * * * * * * * * * * * * * * * * * * * * * * * * * * * * //

dimensions      [0 2 -1 0 0 0 0];

internalField   nonuniform List<scalar> 
7480
(
8.0759611e-08
4.2961973e-08
3.1056253e-08
2.8365059e-08
3.1794986e-06
5.3315787e-06
6.3338589e-06
6.9863053e-06
7.399235e-06
7.6473263e-06
7.4895022e-06
7.2193794e-06
6.8980794e-06
6.5575669e-06
6.2182897e-06
5.8931668e-06
5.5905961e-06
5.3200729e-06
5.0763195e-06
4.8645666e-06
4.680376e-06
4.5210831e-06
4.3860127e-06
4.2746531e-06
4.1861783e-06
4.119962e-06
4.07492e-06
4.0495632e-06
4.0421851e-06
4.0509056e-06
4.0736774e-06
4.1083988e-06
4.1530167e-06
4.2077287e-06
4.2711848e-06
4.3413444e-06
4.4158706e-06
4.4924497e-06
4.5696911e-06
4.6465829e-06
4.7220101e-06
4.7948618e-06
4.8642621e-06
4.9294975e-06
4.9900035e-06
5.0454555e-06
5.0953391e-06
5.1412451e-06
5.1827965e-06
5.2192573e-06
5.2501886e-06
5.2754979e-06
5.2955059e-06
5.3109681e-06
5.3227045e-06
5.3315492e-06
5.3384441e-06
5.343905e-06
5.3482117e-06
5.3514458e-06
5.3535419e-06
5.3545739e-06
5.3547979e-06
5.3544104e-06
5.3534606e-06
5.3520581e-06
5.3505077e-06
5.3488314e-06
5.3468794e-06
5.3446008e-06
5.3419623e-06
5.3388618e-06
5.3353808e-06
5.331641e-06
5.3276237e-06
5.3233802e-06
5.3189895e-06
5.3143239e-06
5.3093334e-06
5.3041208e-06
5.2986509e-06
5.2929626e-06
5.2871631e-06
5.2811772e-06
5.2749714e-06
5.2685946e-06
5.2620342e-06
5.2553243e-06
5.2484778e-06
5.2414968e-06
5.2343871e-06
5.2271196e-06
5.2197169e-06
5.2122065e-06
5.2045065e-06
5.196772e-06
5.1889122e-06
5.1803488e-06
5.1684768e-06
5.1776472e-06
1.6699857e-07
1.6479305e-07
1.6275581e-07
1.6152405e-07
7.8952521e-07
2.001424e-06
3.2199546e-06
4.1001033e-06
4.6102663e-06
4.8537362e-06
4.9292101e-06
4.9200656e-06
4.9202902e-06
4.9673055e-06
5.0575666e-06
5.1937377e-06
5.4001233e-06
5.7434968e-06
5.8738058e-06
6.1613439e-06
6.4632295e-06
6.7819184e-06
7.115536e-06
7.4620947e-06
7.8193565e-06
8.1874899e-06
8.5617478e-06
8.9378129e-06
9.3126495e-06
9.6838558e-06
1.0049719e-05
1.0409577e-05
1.0764417e-05
1.1116868e-05
1.1463988e-05
1.1800494e-05
1.2120579e-05
1.2422142e-05
1.2708263e-05
1.2978476e-05
1.3231731e-05
1.346746e-05
1.3684897e-05
1.3883309e-05
1.4063208e-05
1.4225402e-05
1.4370782e-05
1.4498948e-05
1.4609859e-05
1.4704749e-05
1.4785433e-05
1.4853854e-05
1.4912065e-05
1.4962328e-05
1.5006444e-05
1.5046407e-05
1.5083752e-05
1.5118021e-05
1.5149204e-05
1.5177524e-05
1.5203199e-05
1.5226663e-05
1.5248396e-05
1.5268593e-05
1.5287231e-05
1.5304402e-05
1.5320324e-05
1.5334542e-05
1.5346745e-05
1.5357077e-05
1.5365732e-05
1.5372782e-05
1.5378536e-05
1.5383167e-05
1.5386476e-05
1.5388387e-05
1.5388911e-05
1.538794e-05
1.5385686e-05
1.538246e-05
1.5378271e-05
1.5373147e-05
1.5367049e-05
1.5359788e-05
1.5351486e-05
1.5342354e-05
1.5332489e-05
1.5321933e-05
1.5310572e-05
1.5298392e-05
1.5285475e-05
1.5271907e-05
1.5257804e-05
1.5243127e-05
1.5227673e-05
1.5211892e-05
1.5195235e-05
1.5177452e-05
1.5157315e-05
1.5154083e-05
1.6882494e-07
1.6856648e-07
1.6827212e-07
1.6795698e-07
1.7998489e-07
2.3387127e-07
3.7066144e-07
6.1994035e-07
9.7979648e-07
1.4139748e-06
1.8590346e-06
2.2551518e-06
2.5711645e-06
2.8049526e-06
2.9700507e-06
3.0862972e-06
3.1761026e-06
3.2764543e-06
3.4092359e-06
3.5801825e-06
3.7897977e-06
4.0379682e-06
4.3259862e-06
4.6573569e-06
5.0374979e-06
5.4517041e-06
5.9086639e-06
6.4112108e-06
6.9626001e-06
7.5669274e-06
8.230074e-06
8.9618534e-06
9.7490854e-06
1.0441496e-05
1.1159125e-05
1.1897329e-05
1.2644516e-05
1.3390921e-05
1.4133855e-05
1.4866949e-05
1.5587483e-05
1.6292783e-05
1.6970272e-05
1.7614454e-05
1.8230658e-05
1.8817217e-05
1.9374453e-05
1.9795142e-05
2.0168034e-05
2.0510518e-05
2.0826768e-05
2.1119811e-05
2.1392468e-05
2.1647917e-05
2.1888764e-05
2.2114941e-05
2.2325237e-05
2.2520843e-05
2.2703762e-05
2.287597e-05
2.3038828e-05
2.3193347e-05
2.3340158e-05
2.3479619e-05
2.3612101e-05
2.3737839e-05
2.3855752e-05
2.3965704e-05
2.40684e-05
2.4164795e-05
2.4255535e-05
2.4340916e-05
2.4421424e-05
2.4497358e-05
2.4567861e-05
2.4632792e-05
2.4692594e-05
2.4747665e-05
2.479869e-05
2.4846135e-05
2.4890094e-05
2.4930287e-05
2.4966447e-05
2.4998643e-05
2.5027483e-05
2.505341e-05
2.5076684e-05
2.5097182e-05
2.511456e-05
2.5129008e-05
2.5140895e-05
2.5150534e-05
2.5158117e-05
2.5163329e-05
2.5166061e-05
2.5166825e-05
2.5165948e-05
2.5159509e-05
2.5161625e-05
2.5117435e-05
1.6885086e-07
1.6864759e-07
1.684395e-07
1.6822684e-07
1.6818691e-07
1.6896541e-07
1.7200439e-07
1.7977387e-07
1.9582157e-07
2.2501154e-07
2.7252099e-07
3.4287719e-07
4.3898e-07
5.6140321e-07
7.0817632e-07
8.7496609e-07
1.0557665e-06
1.2452706e-06
1.4385586e-06
1.6317263e-06
1.8219131e-06
2.0080654e-06
2.1905446e-06
2.3709972e-06
2.5526774e-06
2.7515882e-06
2.9713454e-06
3.2171141e-06
3.4959186e-06
3.8170428e-06
4.1928079e-06
4.6394735e-06
5.1787842e-06
5.7986595e-06
6.5088839e-06
7.3170423e-06
8.2237011e-06
9.2226768e-06
1.004998e-05
1.0924399e-05
1.183993e-05
1.279094e-05
1.3770263e-05
1.4770331e-05
1.5777292e-05
1.6778524e-05
1.776816e-05
1.8737408e-05
1.9673791e-05
2.0577581e-05
2.1449559e-05
2.2286102e-05
2.3084572e-05
2.3843105e-05
2.4564115e-05
2.5198179e-05
2.5728519e-05
2.6228713e-05
2.6703868e-05
2.7157504e-05
2.7591286e-05
2.8006394e-05
2.8403966e-05
2.8785243e-05
2.9151296e-05
2.9501962e-05
2.9834367e-05
3.0149299e-05
3.0448518e-05
3.0733701e-05
3.1005915e-05
3.1265722e-05
3.1513974e-05
3.1751342e-05
3.1976461e-05
3.2189297e-05
3.2390808e-05
3.2581787e-05
3.2763183e-05
3.2935734e-05
3.3099741e-05
3.3254645e-05
3.3400316e-05
3.35372e-05
3.3666211e-05
3.3788049e-05
3.3903163e-05
3.4011268e-05
3.4112028e-05
3.4205947e-05
3.4293698e-05
3.4375794e-05
3.4452469e-05
3.452329e-05
3.4588175e-05
3.4648319e-05
3.4703461e-05
3.4750444e-05
3.4799385e-05
3.480132e-05
1.6885086e-07
1.6864875e-07
1.6844339e-07
1.6823495e-07
1.6802591e-07
1.6782783e-07
1.676738e-07
1.6763631e-07
1.6784742e-07
1.6852881e-07
1.7001419e-07
1.7276995e-07
1.7740517e-07
1.8467651e-07
1.9549425e-07
2.1091916e-07
2.3215781e-07
2.6056988e-07
2.9767738e-07
3.4508243e-07
4.0434585e-07
4.7703303e-07
5.6470031e-07
6.6880763e-07
7.9073782e-07
9.3170936e-07
1.0920364e-06
1.2711831e-06
1.4680037e-06
1.6810715e-06
1.9091753e-06
2.1522047e-06
2.4111477e-06
2.7049122e-06
3.0419004e-06
3.4341168e-06
3.896822e-06
4.4487371e-06
5.1205104e-06
5.8939436e-06
6.7770181e-06
7.7761327e-06
8.8969669e-06
9.8758755e-06
1.0795307e-05
1.178926e-05
1.2840749e-05
1.394503e-05
1.5095224e-05
1.6281296e-05
1.7478748e-05
1.8671441e-05
1.9852311e-05
2.1016452e-05
2.2172944e-05
2.3311668e-05
2.4419696e-05
2.5488152e-05
2.6510387e-05
2.7490047e-05
2.8432251e-05
2.934223e-05
3.0222139e-05
3.1070643e-05
3.1885173e-05
3.2646163e-05
3.3283841e-05
3.3893423e-05
3.4478451e-05
3.504083e-05
3.5581609e-05
3.6101641e-05
3.6602252e-05
3.7084339e-05
3.7544589e-05
3.7983169e-05
3.8402043e-05
3.8802666e-05
3.9186308e-05
3.9553994e-05
3.9906338e-05
4.0242245e-05
4.0561756e-05
4.0865803e-05
4.1155625e-05
4.1432207e-05
4.1696228e-05
4.194718e-05
4.218486e-05
4.2410175e-05
4.2624099e-05
4.2827357e-05
4.3020205e-05
4.3202108e-05
4.3373201e-05
4.3535305e-05
4.3687667e-05
4.3828182e-05
4.3962146e-05
4.4045889e-05
1.6885049e-07
1.6864846e-07
1.6844329e-07
1.6823505e-07
1.6802382e-07
1.6780982e-07
1.6759373e-07
1.673773e-07
1.6716429e-07
1.66962e-07
1.6678324e-07
1.6664901e-07
1.6659143e-07
1.6665708e-07
1.6691089e-07
1.6744035e-07
1.6836061e-07
1.6982122e-07
1.7201621e-07
1.7519308e-07
1.7965702e-07
1.8578928e-07
1.9407587e-07
2.0513763e-07
2.1979713e-07
2.3913496e-07
2.645173e-07
2.9766952e-07
3.4078537e-07
3.9663522e-07
4.6865187e-07
5.611158e-07
6.7894199e-07
8.2758993e-07
1.0123806e-06
1.2381082e-06
1.5082795e-06
1.8239841e-06
2.18246e-06
2.5773921e-06
3.0272316e-06
3.5421528e-06
4.140515e-06
4.8351162e-06
5.67862e-06
6.648159e-06
7.7519436e-06
8.9906357e-06
1.0304301e-05
1.126008e-05
1.2309196e-05
1.3434556e-05
1.4627515e-05
1.5879814e-05
1.7189938e-05
1.8534911e-05
1.9894363e-05
2.1253456e-05
2.2600827e-05
2.396361e-05
2.5323825e-05
2.6670737e-05
2.7991614e-05
2.9277977e-05
3.0534228e-05
3.1762168e-05
3.2953113e-05
3.41036e-05
3.5207595e-05
3.6267624e-05
3.7290063e-05
3.8281219e-05
3.9239223e-05
4.016462e-05
4.0960868e-05
4.1697112e-05
4.2405421e-05
4.3087599e-05
4.3744866e-05
4.4378418e-05
4.498918e-05
4.5574134e-05
4.6133518e-05
4.6669256e-05
4.7183095e-05
4.7676341e-05
4.8149904e-05
4.8602775e-05
4.903485e-05
4.9447509e-05
4.9842063e-05
5.02195e-05
5.0580068e-05
5.0923081e-05
5.1249044e-05
5.1560301e-05
5.1855745e-05
5.2134384e-05
5.2396956e-05
5.260372e-05
1.6885016e-07
1.6864809e-07
1.6844291e-07
1.6823466e-07
1.6802342e-07
1.6780923e-07
1.6759213e-07
1.6737216e-07
1.6714942e-07
1.6692414e-07
1.6669672e-07
1.6646788e-07
1.6623897e-07
1.6601208e-07
1.6579045e-07
1.6557892e-07
1.6538444e-07
1.652168e-07
1.6508958e-07
1.650212e-07
1.6503593e-07
1.6516542e-07
1.6545124e-07
1.6594799e-07
1.6672899e-07
1.6789357e-07
1.6957432e-07
1.7195014e-07
1.7526686e-07
1.7986716e-07
1.8623392e-07
1.9507055e-07
2.0741016e-07
2.2475411e-07
2.4927542e-07
2.8415778e-07
3.3407036e-07
4.0573948e-07
5.086028e-07
6.5404143e-07
8.5474896e-07
1.1226031e-06
1.4655355e-06
1.88022e-06
2.3509718e-06
2.8755387e-06
3.4692519e-06
4.1468265e-06
4.9424656e-06
5.896151e-06
6.9900342e-06
8.2366375e-06
9.6369575e-06
1.1178901e-05
1.2324528e-05
1.3446829e-05
1.4657986e-05
1.5950495e-05
1.731591e-05
1.8758528e-05
2.0247628e-05
2.1756799e-05
2.3270171e-05
2.4793255e-05
2.6355591e-05
2.7929403e-05
2.9503113e-05
3.1051929e-05
3.2577989e-05
3.4080619e-05
3.5559397e-05
3.7009192e-05
3.8418567e-05
3.9788049e-05
4.1111657e-05
4.2389474e-05
4.3618903e-05
4.4800273e-05
4.5939012e-05
4.7040381e-05
4.8108359e-05
4.9041232e-05
4.9902078e-05
5.0731466e-05
5.1531347e-05
5.2303016e-05
5.3047516e-05
5.3762154e-05
5.4446865e-05
5.5103989e-05
5.5735328e-05
5.6342157e-05
5.6924546e-05
5.748134e-05
5.8013606e-05
5.8524143e-05
5.9011731e-05
5.9476271e-05
5.9914954e-05
6.0289789e-05
1.6884992e-07
1.686478e-07
1.684426e-07
1.6823437e-07
1.6802315e-07
1.6780898e-07
1.6759188e-07
1.6737186e-07
1.6714893e-07
1.6692311e-07
1.6669443e-07
1.6646293e-07
1.6622868e-07
1.6599177e-07
1.6575237e-07
1.655107e-07
1.6526712e-07
1.6502216e-07
1.6477661e-07
1.6453158e-07
1.6428863e-07
1.6404989e-07
1.6381825e-07
1.6359762e-07
1.6339332e-07
1.6321264e-07
1.630654e-07
1.6296497e-07
1.6292974e-07
1.6298537e-07
1.6316806e-07
1.6353035e-07
1.6415005e-07
1.6514232e-07
1.666793e-07
1.6902424e-07
1.7258877e-07
1.7802697e-07
1.86415e-07
1.9950967e-07
2.2011699e-07
2.5273622e-07
3.0451772e-07
3.8633158e-07
5.1353692e-07
7.0508631e-07
9.8107008e-07
1.3565736e-06
1.8329714e-06
2.3845295e-06
3.001144e-06
3.6959273e-06
4.487172e-06
5.4553448e-06
6.584732e-06
7.8712814e-06
9.3281051e-06
1.0952426e-05
1.2719179e-05
1.3969559e-05
1.5211484e-05
1.6547891e-05
1.797062e-05
1.9479812e-05
2.1073205e-05
2.2712158e-05
2.4377128e-05
2.6050853e-05
2.7803746e-05
2.958942e-05
3.1385104e-05
3.3162597e-05
3.4927559e-05
3.6682466e-05
3.8431408e-05
4.0159292e-05
4.1845835e-05
4.3489044e-05
4.5094398e-05
4.6660473e-05
4.8182227e-05
4.9645644e-05
5.105136e-05
5.2404845e-05
5.3707988e-05
5.4964065e-05
5.6181421e-05
5.7262883e-05
5.8255142e-05
5.9212079e-05
6.0135721e-05
6.1027363e-05
6.1886287e-05
6.2709927e-05
6.350072e-05
6.4261932e-05
6.4992549e-05
6.5692695e-05
6.6357424e-05
6.6948123e-05
1.6884975e-07
1.6864759e-07
1.6844237e-07
1.6823414e-07
1.6802293e-07
1.6780876e-07
1.6759166e-07
1.6737164e-07
1.6714871e-07
1.6692289e-07
1.666942e-07
1.6646265e-07
1.6622827e-07
1.6599109e-07
1.6575113e-07
1.6550842e-07
1.6526299e-07
1.6501491e-07
1.6476423e-07
1.6451103e-07
1.6425543e-07
1.6399757e-07
1.6373766e-07
1.6347596e-07
1.6321284e-07
1.6294881e-07
1.6268454e-07
1.6242099e-07
1.6215943e-07
1.6190167e-07
1.6165022e-07
1.6140872e-07
1.6118248e-07
1.6097932e-07
1.6081081e-07
1.6069448e-07
1.6065746e-07
1.6074252e-07
1.6101981e-07
1.6160602e-07
1.6269342e-07
1.6460579e-07
1.6789816e-07
1.7353292e-07
1.8319926e-07
1.9982971e-07
2.2844404e-07
2.7751649e-07
3.6086565e-07
4.9876854e-07
7.1682133e-07
1.0416954e-06
1.4905151e-06
2.0608443e-06
2.7110661e-06
3.4482334e-06
4.2811516e-06
5.2760572e-06
6.4972058e-06
7.8848479e-06
9.4507826e-06
1.1199321e-05
1.3109978e-05
1.4941733e-05
1.6246834e-05
1.7651901e-05
1.9153134e-05
2.0749271e-05
2.2455324e-05
2.4229021e-05
2.6042375e-05
2.7871892e-05
2.9799249e-05
3.1784084e-05
3.3791699e-05
3.5795765e-05
3.78063e-05
3.9820889e-05
4.1827045e-05
4.3804786e-05
4.5743097e-05
4.7654807e-05
4.9536362e-05
5.1370064e-05
5.3148165e-05
5.487554e-05
5.655719e-05
5.8174948e-05
5.972301e-05
6.1211545e-05
6.2647082e-05
6.4033486e-05
6.5329161e-05
6.6469719e-05
6.7569801e-05
6.86326e-05
6.9657533e-05
7.0643386e-05
7.1584631e-05
7.2441106e-05
1.6884963e-07
1.6864743e-07
1.6844221e-07
1.6823397e-07
1.6802276e-07
1.6780859e-07
1.675915e-07
1.6737148e-07
1.6714855e-07
1.6692273e-07
1.6669404e-07
1.664625e-07
1.6622812e-07
1.6599093e-07
1.6575095e-07
1.655082e-07
1.6526272e-07
1.6501452e-07
1.6476365e-07
1.6451012e-07
1.6425398e-07
1.6399526e-07
1.63734e-07
1.6347026e-07
1.6320407e-07
1.629355e-07
1.6266463e-07
1.6239154e-07
1.6211636e-07
1.6183924e-07
1.6156036e-07
1.6128001e-07
1.6099856e-07
1.6071655e-07
1.6043479e-07
1.6015442e-07
1.5987721e-07
1.5960589e-07
1.5934483e-07
1.5910123e-07
1.5888688e-07
1.5872155e-07
1.5863914e-07
1.5869891e-07
1.5900695e-07
1.5975398e-07
1.6128266e-07
1.6421757e-07
1.697107e-07
1.7988928e-07
1.9862021e-07
2.3282003e-07
2.9453895e-07
4.0404413e-07
5.8985205e-07
8.861492e-07
1.3219235e-06
1.9048536e-06
2.6011453e-06
3.4049841e-06
4.3143555e-06
5.4040572e-06
6.7370633e-06
8.2948347e-06
1.0036738e-05
1.1970039e-05
1.4070562e-05
1.6297388e-05
1.7757447e-05
1.9266697e-05
2.0877727e-05
2.2592908e-05
2.4429558e-05
2.6345074e-05
2.8308335e-05
3.031344e-05
3.2447647e-05
3.4650232e-05
3.6873159e-05
3.910419e-05
4.1355347e-05
4.3620726e-05
4.5881583e-05
4.8114781e-05
5.0316083e-05
5.248715e-05
5.4614019e-05
5.6695725e-05
5.8731562e-05
6.0713566e-05
6.2634353e-05
6.4495479e-05
6.6296602e-05
6.8019296e-05
6.9672115e-05
7.1260381e-05
7.2807006e-05
7.4206929e-05
7.5472867e-05
7.6647891e-05
1.6884956e-07
1.6864733e-07
1.6844209e-07
1.6823385e-07
1.6802263e-07
1.6780847e-07
1.6759138e-07
1.6737136e-07
1.6714843e-07
1.6692261e-07
1.6669392e-07
1.6646238e-07
1.66228e-07
1.6599081e-07
1.6575083e-07
1.6550808e-07
1.652626e-07
1.650144e-07
1.6476352e-07
1.6450999e-07
1.6425383e-07
1.6399508e-07
1.6373377e-07
1.6346993e-07
1.632036e-07
1.6293482e-07
1.6266361e-07
1.6239004e-07
1.6211412e-07
1.6183592e-07
1.6155548e-07
1.6127285e-07
1.6098809e-07
1.6070129e-07
1.6041252e-07
1.601219e-07
1.5982958e-07
1.5953577e-07
1.5924077e-07
1.5894505e-07
1.5864937e-07
1.5835493e-07
1.5806377e-07
1.5777938e-07
1.5750801e-07
1.5726093e-07
1.5705853e-07
1.5693838e-07
1.5697082e-07
1.5728955e-07
1.5814878e-07
1.6002996e-07
1.6385248e-07
1.7140594e-07
1.8610723e-07
2.1437753e-07
2.6799416e-07
3.6774939e-07
5.4627656e-07
8.4545068e-07
1.3030832e-06
1.9316782e-06
2.6965246e-06
3.5950537e-06
4.6182566e-06
5.8786148e-06
7.3967166e-06
9.1868731e-06
1.1172198e-05
1.3348948e-05
1.568647e-05
1.8145023e-05
1.9767435e-05
2.1413143e-05
2.3165468e-05
2.5033374e-05
2.7029463e-05
2.9108697e-05
3.1234808e-05
3.3467334e-05
3.5836482e-05
3.8259101e-05
4.0702776e-05
4.3184563e-05
4.5701813e-05
4.8226498e-05
5.0727361e-05
5.3207277e-05
5.5672778e-05
5.8101907e-05
6.0476258e-05
6.2797526e-05
6.506936e-05
6.7289884e-05
6.9445676e-05
7.1530183e-05
7.3562539e-05
7.551868e-05
7.7321398e-05
7.9468896e-05
1.6884951e-07
1.6864726e-07
1.6844201e-07
1.6823377e-07
1.6802255e-07
1.6780839e-07
1.675913e-07
1.6737128e-07
1.6714835e-07
1.6692253e-07
1.6669384e-07
1.6646229e-07
1.6622791e-07
1.6599072e-07
1.6575074e-07
1.6550799e-07
1.6526251e-07
1.6501431e-07
1.6476343e-07
1.6450989e-07
1.6425373e-07
1.6399497e-07
1.6373366e-07
1.6346982e-07
1.6320348e-07
1.6293468e-07
1.6266347e-07
1.6238986e-07
1.6211392e-07
1.6183566e-07
1.6155514e-07
1.6127239e-07
1.6098746e-07
1.6070038e-07
1.6041122e-07
1.6012001e-07
1.598268e-07
1.5953165e-07
1.5923462e-07
1.5893578e-07
1.5863521e-07
1.5833303e-07
1.580294e-07
1.5772455e-07
1.574189e-07
1.5711311e-07
1.5680839e-07
1.5650692e-07
1.5621279e-07
1.559338e-07
1.5568501e-07
1.554954e-07
1.5542129e-07
1.5557444e-07
1.5617727e-07
1.5767042e-07
1.6092883e-07
1.6771344e-07
1.815662e-07
2.094621e-07
2.647196e-07
3.716984e-07
5.6965669e-07
9.1072144e-07
1.4384811e-06
2.1591189e-06
3.0372053e-06
4.071386e-06
5.292995e-06
6.7995605e-06
8.5920537e-06
1.0685187e-05
1.2979475e-05
1.544667e-05
1.8057434e-05
2.0592106e-05
2.2315884e-05
2.4128726e-05
2.6054085e-05
2.8118072e-05
3.0302587e-05
3.2560378e-05
3.4897838e-05
3.7411462e-05
4.0032924e-05
4.268691e-05
4.5389207e-05
4.8149894e-05
5.0937129e-05
5.3716104e-05
5.6479593e-05
5.9225507e-05
6.1934244e-05
6.4600684e-05
6.7222634e-05
6.9782847e-05
7.2284192e-05
7.4738019e-05
7.7013177e-05
8.0061311e-05
1.6884949e-07
1.6864723e-07
1.6844197e-07
1.6823372e-07
1.6802251e-07
1.6780835e-07
1.6759125e-07
1.6737123e-07
1.671483e-07
1.6692248e-07
1.6669379e-07
1.6646224e-07
1.6622786e-07
1.6599067e-07
1.6575068e-07
1.6550793e-07
1.6526244e-07
1.6501424e-07
1.6476336e-07
1.6450982e-07
1.6425365e-07
1.639949e-07
1.6373358e-07
1.6346973e-07
1.6320339e-07
1.629346e-07
1.6266338e-07
1.6238977e-07
1.6211382e-07
1.6183557e-07
1.6155504e-07
1.6127228e-07
1.6098734e-07
1.6070026e-07
1.6041107e-07
1.6011983e-07
1.5982658e-07
1.5953135e-07
1.5923421e-07
1.5893519e-07
1.5863435e-07
1.5833172e-07
1.5802738e-07
1.5772136e-07
1.5741374e-07
1.571046e-07
1.5679405e-07
1.5648225e-07
1.5616947e-07
1.5585618e-07
1.5554328e-07
1.5523244e-07
1.5492697e-07
1.5463341e-07
1.5436502e-07
1.5414856e-07
1.5403826e-07
1.5414555e-07
1.5470211e-07
1.5618836e-07
1.595977e-07
1.6700854e-07
1.8276051e-07
2.1578545e-07
2.8368255e-07
4.1927112e-07
6.7439213e-07
1.1133975e-06
1.7776852e-06
2.6396568e-06
3.6855783e-06
4.9210294e-06
6.4630256e-06
8.3075006e-06
1.0476865e-05
1.2944324e-05
1.5583784e-05
1.8372631e-05
2.1284627e-05
2.355393e-05
2.5458648e-05
2.7469155e-05
2.9614148e-05
3.1907575e-05
3.4300167e-05
3.6762202e-05
3.9428417e-05
4.224937e-05
4.5115493e-05
4.8049802e-05
5.1065431e-05
5.4116237e-05
5.7163806e-05
6.0208116e-05
6.3245703e-05
6.6243629e-05
6.9195818e-05
7.2119256e-05
7.484137e-05
7.8511075e-05
1.6884949e-07
1.6864722e-07
1.6844196e-07
1.6823371e-07
1.680225e-07
1.6780833e-07
1.6759123e-07
1.6737121e-07
1.6714828e-07
1.6692246e-07
1.6669377e-07
1.6646222e-07
1.6622783e-07
1.6599064e-07
1.6575065e-07
1.655079e-07
1.6526241e-07
1.650142e-07
1.6476331e-07
1.6450977e-07
1.642536e-07
1.6399484e-07
1.6373352e-07
1.6346967e-07
1.6320333e-07
1.6293453e-07
1.6266331e-07
1.623897e-07
1.6211375e-07
1.6183549e-07
1.6155496e-07
1.612722e-07
1.6098726e-07
1.6070017e-07
1.6041098e-07
1.6011974e-07
1.5982648e-07
1.5953126e-07
1.5923411e-07
1.5893508e-07
1.5863422e-07
1.5833158e-07
1.5802719e-07
1.5772112e-07
1.5741339e-07
1.5710407e-07
1.567932e-07
1.5648083e-07
1.5616703e-07
1.5585185e-07
1.555354e-07
1.5521779e-07
1.5489927e-07
1.5458023e-07
1.5426146e-07
1.5394453e-07
1.5363265e-07
1.5333245e-07
1.5305793e-07
1.5283865e-07
1.5273709e-07
1.5288694e-07
1.5357743e-07
1.5543479e-07
1.5981021e-07
1.6966038e-07
1.91383e-07
2.3859264e-07
3.3869319e-07
5.4068891e-07
9.1601223e-07
1.53351e-06
2.3972127e-06
3.4759412e-06
4.7535399e-06
6.3657586e-06
8.3162672e-06
1.0616725e-05
1.325791e-05
1.6118807e-05
1.9119957e-05
2.2247673e-05
2.5120575e-05
2.7167309e-05
2.9280505e-05
3.1527971e-05
3.3944949e-05
3.6478904e-05
3.9088876e-05
4.1932259e-05
4.4961778e-05
4.8053161e-05
5.1233156e-05
5.4509263e-05
5.7829979e-05
6.1157947e-05
6.4494768e-05
6.7837737e-05
7.0986859e-05
7.5136334e-05
1.6884951e-07
1.6864723e-07
1.6844197e-07
1.6823372e-07
1.6802251e-07
1.6780834e-07
1.6759124e-07
1.6737122e-07
1.6714829e-07
1.6692247e-07
1.6669377e-07
1.6646222e-07
1.6622783e-07
1.6599063e-07
1.6575064e-07
1.6550789e-07
1.6526239e-07
1.6501419e-07
1.6476329e-07
1.6450975e-07
1.6425357e-07
1.6399481e-07
1.6373348e-07
1.6346963e-07
1.6320329e-07
1.6293448e-07
1.6266326e-07
1.6238965e-07
1.6211369e-07
1.6183543e-07
1.6155489e-07
1.6127214e-07
1.6098719e-07
1.607001e-07
1.6041091e-07
1.6011967e-07
1.5982641e-07
1.5953119e-07
1.5923404e-07
1.5893501e-07
1.5863415e-07
1.583315e-07
1.5802712e-07
1.5772104e-07
1.5741331e-07
1.5710398e-07
1.5679309e-07
1.564807e-07
1.5616684e-07
1.5585156e-07
1.5553492e-07
1.5521696e-07
1.5489773e-07
1.545773e-07
1.5425576e-07
1.5393322e-07
1.5360991e-07
1.5328625e-07
1.5296306e-07
1.5264211e-07
1.5232714e-07
1.5202624e-07
1.5175719e-07
1.5155918e-07
1.5151868e-07
1.5182966e-07
1.5293011e-07
1.5580938e-07
1.6270937e-07
1.7870633e-07
2.151318e-07
2.9640283e-07
4.7055126e-07
8.1450726e-07
1.4135096e-06
2.3003907e-06
3.4374722e-06
4.7984115e-06
6.526348e-06
8.6358838e-06
1.1125499e-05
1.3978685e-05
1.7097946e-05
2.0346014e-05
2.3713907e-05
2.7054395e-05
2.9260461e-05
3.1493944e-05
3.3869139e-05
3.6428112e-05
3.9113467e-05
4.190672e-05
4.4961872e-05
4.8211413e-05
5.1545547e-05
5.4994241e-05
5.8551249e-05
6.2167849e-05
6.5665449e-05
7.0152605e-05
1.6884955e-07
1.6864726e-07
1.68442e-07
1.6823375e-07
1.6802254e-07
1.6780837e-07
1.6759127e-07
1.6737125e-07
1.6714832e-07
1.669225e-07
1.666938e-07
1.6646224e-07
1.6622785e-07
1.6599065e-07
1.6575066e-07
1.655079e-07
1.652624e-07
1.6501419e-07
1.6476329e-07
1.6450974e-07
1.6425357e-07
1.639948e-07
1.6373347e-07
1.6346961e-07
1.6320326e-07
1.6293445e-07
1.6266322e-07
1.6238961e-07
1.6211365e-07
1.6183538e-07
1.6155485e-07
1.6127208e-07
1.6098714e-07
1.6070005e-07
1.6041086e-07
1.6011961e-07
1.5982635e-07
1.5953112e-07
1.5923397e-07
1.5893495e-07
1.5863408e-07
1.5833144e-07
1.5802705e-07
1.5772097e-07
1.5741324e-07
1.5710391e-07
1.5679302e-07
1.5648063e-07
1.5616677e-07
1.5585149e-07
1.5553483e-07
1.5521685e-07
1.5489759e-07
1.5457709e-07
1.542554e-07
1.5393257e-07
1.5360865e-07
1.532837e-07
1.529578e-07
1.5263111e-07
1.5230385e-07
1.5197654e-07
1.5165025e-07
1.5132734e-07
1.5101306e-07
1.5071934e-07
1.5047362e-07
1.5033906e-07
1.5046208e-07
1.5118617e-07
1.5331944e-07
1.5876544e-07
1.7204313e-07
2.0369382e-07
2.7744376e-07
4.4320963e-07
7.8617334e-07
1.4066955e-06
2.3488755e-06
3.5787471e-06
5.0702107e-06
6.9760494e-06
9.3061325e-06
1.2049295e-05
1.5169198e-05
1.8577371e-05
2.2099392e-05
2.5730735e-05
2.9370546e-05
3.1739061e-05
3.4114871e-05
3.6648532e-05
3.937409e-05
4.2226664e-05
4.5248816e-05
4.8553137e-05
5.204045e-05
5.565665e-05
5.9324485e-05
6.3880763e-05
1.6884959e-07
1.6864731e-07
1.6844204e-07
1.6823379e-07
1.6802258e-07
1.6780842e-07
1.6759132e-07
1.673713e-07
1.6714836e-07
1.6692254e-07
1.6669384e-07
1.6646228e-07
1.6622789e-07
1.6599069e-07
1.6575069e-07
1.6550793e-07
1.6526242e-07
1.6501421e-07
1.6476331e-07
1.6450975e-07
1.6425357e-07
1.639948e-07
1.6373346e-07
1.634696e-07
1.6320325e-07
1.6293444e-07
1.626632e-07
1.6238958e-07
1.6211362e-07
1.6183535e-07
1.6155481e-07
1.6127205e-07
1.609871e-07
1.6070001e-07
1.6041081e-07
1.6011956e-07
1.598263e-07
1.5953107e-07
1.5923392e-07
1.5893489e-07
1.5863403e-07
1.5833138e-07
1.58027e-07
1.5772092e-07
1.5741319e-07
1.5710385e-07
1.5679297e-07
1.5648057e-07
1.5616671e-07
1.5585143e-07
1.5553478e-07
1.5521679e-07
1.5489753e-07
1.5457703e-07
1.5425533e-07
1.5393248e-07
1.5360853e-07
1.5328351e-07
1.5295748e-07
1.5263047e-07
1.5230255e-07
1.5197377e-07
1.5164423e-07
1.5131412e-07
1.5098375e-07
1.5065388e-07
1.5032615e-07
1.5000443e-07
1.4969775e-07
1.4942768e-07
1.4924601e-07
1.4927718e-07
1.4982528e-07
1.5163637e-07
1.5653264e-07
1.6902843e-07
2.0010746e-07
2.7549783e-07
4.5131929e-07
8.2637354e-07
1.5161986e-06
2.5580491e-06
3.9241816e-06
5.6108791e-06
7.7593628e-06
1.0384976e-05
1.3450753e-05
1.6891063e-05
2.0611454e-05
2.4429332e-05
2.8346977e-05
3.2092346e-05
3.4624477e-05
3.7168475e-05
3.989414e-05
4.2806631e-05
4.5846235e-05
4.9155648e-05
5.2735502e-05
5.6920479e-05
1.6884965e-07
1.6864736e-07
1.684421e-07
1.6823385e-07
1.6802264e-07
1.6780848e-07
1.6759138e-07
1.6737136e-07
1.6714843e-07
1.669226e-07
1.666939e-07
1.6646234e-07
1.6622794e-07
1.6599074e-07
1.6575074e-07
1.6550797e-07
1.6526246e-07
1.6501425e-07
1.6476334e-07
1.6450978e-07
1.642536e-07
1.6399482e-07
1.6373348e-07
1.6346961e-07
1.6320325e-07
1.6293444e-07
1.626632e-07
1.6238958e-07
1.6211361e-07
1.6183533e-07
1.6155479e-07
1.6127202e-07
1.6098707e-07
1.6069998e-07
1.6041078e-07
1.6011953e-07
1.5982627e-07
1.5953104e-07
1.5923388e-07
1.5893485e-07
1.5863399e-07
1.5833134e-07
1.5802695e-07
1.5772087e-07
1.5741314e-07
1.5710381e-07
1.5679292e-07
1.5648052e-07
1.5616666e-07
1.5585138e-07
1.5553472e-07
1.5521674e-07
1.5489748e-07
1.5457698e-07
1.5425528e-07
1.5393243e-07
1.5360847e-07
1.5328345e-07
1.5295741e-07
1.5263039e-07
1.5230243e-07
1.5197357e-07
1.5164387e-07
1.5131335e-07
1.5098209e-07
1.5065016e-07
1.5031768e-07
1.4998492e-07
1.4965244e-07
1.4932156e-07
1.4899546e-07
1.4868186e-07
1.4839993e-07
1.4819765e-07
1.4819487e-07
1.4869616e-07
1.5047966e-07
1.555229e-07
1.6891346e-07
2.0352302e-07
2.9053253e-07
4.9884464e-07
9.4837398e-07
1.7668878e-06
2.9728686e-06
4.5239738e-06
6.4867454e-06
8.9607395e-06
1.1958538e-05
1.5410597e-05
1.9214987e-05
2.3261943e-05
2.7391873e-05
3.1616807e-05
3.5256784e-05
3.794379e-05
4.0690012e-05
4.3629702e-05
4.6819216e-05
5.0146624e-05
1.6884971e-07
1.6864743e-07
1.6844216e-07
1.6823392e-07
1.6802272e-07
1.6780856e-07
1.6759146e-07
1.6737143e-07
1.671485e-07
1.6692267e-07
1.6669397e-07
1.6646241e-07
1.6622801e-07
1.659908e-07
1.657508e-07
1.6550803e-07
1.6526252e-07
1.6501429e-07
1.6476339e-07
1.6450982e-07
1.6425363e-07
1.6399485e-07
1.637335e-07
1.6346963e-07
1.6320327e-07
1.6293445e-07
1.626632e-07
1.6238958e-07
1.6211361e-07
1.6183533e-07
1.6155478e-07
1.6127201e-07
1.6098706e-07
1.6069996e-07
1.6041076e-07
1.6011951e-07
1.5982624e-07
1.5953101e-07
1.5923385e-07
1.5893482e-07
1.5863396e-07
1.5833131e-07
1.5802692e-07
1.5772083e-07
1.574131e-07
1.5710377e-07
1.5679288e-07
1.5648048e-07
1.5616661e-07
1.5585133e-07
1.5553468e-07
1.552167e-07
1.5489743e-07
1.5457693e-07
1.5425523e-07
1.5393238e-07
1.5360842e-07
1.532834e-07
1.5295736e-07
1.5263034e-07
1.5230238e-07
1.5197352e-07
1.516438e-07
1.5131327e-07
1.5098196e-07
1.5064991e-07
1.5031718e-07
1.499838e-07
1.4964984e-07
1.4931542e-07
1.4898075e-07
1.4864632e-07
1.4831331e-07
1.4798468e-07
1.4766793e-07
1.4738236e-07
1.4717837e-07
1.4718698e-07
1.4775434e-07
1.4980071e-07
1.5575968e-07
1.7212334e-07
2.158941e-07
3.2929424e-07
6.0424399e-07
1.1888268e-06
2.204051e-06
3.634714e-06
5.4464979e-06
7.7888992e-06
1.0682171e-05
1.4126832e-05
1.8008408e-05
2.2209085e-05
2.6593126e-05
3.1050538e-05
3.5609067e-05
3.889294e-05
4.1880907e-05
4.448472e-05
1.6884978e-07
1.686475e-07
1.6844224e-07
1.68234e-07
1.680228e-07
1.6780864e-07
1.6759154e-07
1.6737152e-07
1.6714859e-07
1.6692276e-07
1.6669405e-07
1.6646249e-07
1.6622809e-07
1.6599088e-07
1.6575087e-07
1.655081e-07
1.6526258e-07
1.6501436e-07
1.6476344e-07
1.6450987e-07
1.6425368e-07
1.6399489e-07
1.6373354e-07
1.6346967e-07
1.632033e-07
1.6293447e-07
1.6266322e-07
1.6238959e-07
1.6211362e-07
1.6183533e-07
1.6155479e-07
1.6127201e-07
1.6098705e-07
1.6069995e-07
1.6041075e-07
1.6011949e-07
1.5982623e-07
1.5953099e-07
1.5923383e-07
1.589348e-07
1.5863393e-07
1.5833128e-07
1.5802689e-07
1.577208e-07
1.5741307e-07
1.5710373e-07
1.5679284e-07
1.5648044e-07
1.5616658e-07
1.558513e-07
1.5553464e-07
1.5521666e-07
1.5489739e-07
1.5457689e-07
1.5425519e-07
1.5393234e-07
1.5360838e-07
1.5328336e-07
1.5295732e-07
1.5263029e-07
1.5230233e-07
1.5197347e-07
1.5164375e-07
1.5131322e-07
1.5098191e-07
1.5064986e-07
1.5031711e-07
1.4998369e-07
1.4964966e-07
1.4931504e-07
1.4897989e-07
1.4864426e-07
1.4830825e-07
1.4797207e-07
1.476362e-07
1.4730183e-07
1.4697209e-07
1.4665524e-07
1.4637342e-07
1.4618675e-07
1.4625803e-07
1.4703475e-07
1.4975441e-07
1.5782612e-07
1.8064791e-07
2.4346654e-07
4.0928072e-07
8.0714286e-07
1.6116763e-06
2.8947566e-06
4.6086063e-06
6.8183809e-06
9.6273325e-06
1.3040487e-05
1.699702e-05
2.1338349e-05
2.5963104e-05
3.0678016e-05
3.5567259e-05
3.9578743e-05
1.6884986e-07
1.6864758e-07
1.6844233e-07
1.6823409e-07
1.6802289e-07
1.6780873e-07
1.6759164e-07
1.6737162e-07
1.6714868e-07
1.6692285e-07
1.6669414e-07
1.6646258e-07
1.6622818e-07
1.6599096e-07
1.6575095e-07
1.6550818e-07
1.6526266e-07
1.6501443e-07
1.6476351e-07
1.6450994e-07
1.6425374e-07
1.6399495e-07
1.6373359e-07
1.6346971e-07
1.6320334e-07
1.6293451e-07
1.6266325e-07
1.6238962e-07
1.6211364e-07
1.6183535e-07
1.615548e-07
1.6127202e-07
1.6098706e-07
1.6069995e-07
1.6041075e-07
1.6011949e-07
1.5982622e-07
1.5953098e-07
1.5923382e-07
1.5893478e-07
1.5863392e-07
1.5833126e-07
1.5802687e-07
1.5772078e-07
1.5741305e-07
1.5710371e-07
1.5679282e-07
1.5648041e-07
1.5616655e-07
1.5585127e-07
1.5553461e-07
1.5521662e-07
1.5489736e-07
1.5457685e-07
1.5425515e-07
1.539323e-07
1.5360834e-07
1.5328332e-07
1.5295728e-07
1.5263025e-07
1.5230229e-07
1.5197343e-07
1.5164371e-07
1.5131318e-07
1.5098186e-07
1.5064981e-07
1.5031706e-07
1.4998365e-07
1.4964961e-07
1.4931498e-07
1.489798e-07
1.486441e-07
1.4830793e-07
1.4797132e-07
1.4763434e-07
1.4729708e-07
1.4695976e-07
1.466229e-07
1.4628788e-07
1.4595847e-07
1.4564501e-07
1.4537644e-07
1.4523454e-07
1.4545018e-07
1.4668329e-07
1.508263e-07
1.6330528e-07
1.9949412e-07
3.0119644e-07
5.6912789e-07
1.1820357e-06
2.3043064e-06
3.932483e-06
6.0385089e-06
8.7808135e-06
1.2169761e-05
1.6195495e-05
2.0679172e-05
2.5593741e-05
3.0576784e-05
1.6884994e-07
1.6864767e-07
1.6844242e-07
1.6823419e-07
1.6802299e-07
1.6780884e-07
1.6759174e-07
1.6737172e-07
1.6714878e-07
1.6692295e-07