/*--------------------------------*- C++ -*----------------------------------*\
  =========                 |
  \\      /  F ield         | OpenFOAM: The Open Source CFD Toolbox
   \\    /   O peration     | Website:  https://openfoam.org
    \\  /    A nd           | Version:  12
     \\/     M anipulation  |
\*---------------------------------------------------------------------------*/
FoamFile
{
    format      ascii;
    class       volScalarField;
    location    "600";
    object      omega;
}
// * * * * * * * * * * * * * * * * * * * * * * * * * * * * * * * * * * * * * //

dimensions      [0 0 -1 0 0 0 0];

internalField   nonuniform List<scalar> 
7480
(
99.668428
99.668428
99.668428
99.668428
467.27001
658.57489
782.38001
862.97246
913.979
944.6241
961.5632
969.17819
970.4241
967.32475
961.29368
953.32301
944.12196
934.25941
924.36668
914.50857
904.81615
895.32883
886.20019
877.57599
869.56209
862.2309
855.62015
849.73164
844.53857
839.99353
836.03438
832.5936
829.61197
827.03984
824.81554
822.86558
821.11156
819.48759
817.94559
816.45139
814.97424
813.4861
811.96522
810.39524
808.76791
807.0799
805.32787
803.50097
801.5886
799.59139
797.5187
795.37953
793.18128
790.93635
788.6641
786.38048
784.09079
781.7959
779.50043
777.21174
774.93324
772.66702
770.41901
768.19533
765.99656
763.82236
761.67326
759.54624
757.43595
755.34182
753.26725
751.21203
749.1764
747.16533
745.17697
743.206
741.25282
739.31635
737.3948
735.49189
733.60901
731.74404
729.89731
728.06633
726.24885
724.44696
722.66174
720.8933
719.14
717.39993
715.6737
713.96081
712.26209
710.57525
708.90211
707.22396
705.60066
703.86255
702.32851
699.99453
53.580961
53.535211
53.495943
53.440175
60.466339
74.605069
96.919911
126.88789
163.04793
203.17541
244.37339
284.24969
318.8513
346.79406
369.58362
388.71608
404.52814
415.62001
423.15122
426.11385
427.71456
430.61995
434.66202
439.16486
443.57177
447.34723
450.10887
451.63914
451.84329
450.72914
448.39128
444.99894
440.78454
436.05086
430.91861
425.37693
419.36712
413.12621
406.81681
400.55605
394.44268
388.55247
382.93715
377.61455
372.58531
367.84589
363.39083
359.26166
355.44617
351.92091
348.66312
345.64839
342.84816
340.23152
337.77451
335.45477
333.2464
331.13439
329.10821
327.16304
325.29677
323.5028
321.77288
320.10113
318.48359
316.91351
315.38077
313.88305
312.42029
310.99216
309.60019
308.24621
306.92648
305.63955
304.38432
303.15497
301.94926
300.77011
299.61666
298.4879
297.3857
296.30664
295.24757
294.20912
293.19004
292.19024
291.21056
290.24944
289.3057
288.37763
287.46516
286.56887
285.68808
284.82144
283.96993
283.12478
282.30356
281.48156
280.74408
279.43415
52.974408
52.262344
51.558622
50.863174
50.289576
50.01684
50.328839
51.531412
53.894456
57.794971
63.498036
71.147447
80.696439
91.942889
104.62343
118.44174
133.06954
147.69442
160.98815
172.87913
183.72239
194.30423
205.13986
216.60101
228.96791
240.39387
249.98828
257.91579
264.26397
269.0567
272.25757
273.77284
273.52058
271.63699
268.57932
265.11034
261.96364
258.98805
256.07295
253.12673
250.16071
247.21389
244.19613
240.96623
237.61445
234.21519
230.83192
227.53646
224.39688
221.41944
218.59738
215.92151
213.38452
210.98318
208.71388
206.57908
204.57962
202.69836
200.92035
199.23606
197.63851
196.11848
194.66563
193.27138
191.93048
190.63728
189.38329
188.1686
186.99407
185.85887
184.76207
183.70274
182.67714
181.68287
180.71613
179.77331
178.85407
177.96046
177.09217
176.24797
175.42813
174.62908
173.84787
173.08504
172.34058
171.61447
170.90694
170.21608
169.54034
168.87877
168.23151
167.59905
166.98075
166.37523
165.78229
165.19904
164.62964
164.07379
163.56184
162.79142
52.965648
52.234588
51.502649
50.770346
50.039723
49.315506
48.607261
47.930939
47.309325
46.780565
46.393159
46.204605
46.277499
46.67504
47.459967
48.697224
50.459427
52.804033
55.761146
59.359144
63.631156
68.638848
74.467009
81.221026
89.024987
97.34778
106.06179
115.07607
124.344
133.86325
143.66845
153.79945
162.76228
170.00433
175.6373
179.92138
183.16493
185.41026
186.67419
186.93846
186.22807
184.69983
182.81872
181.00406
179.16166
177.22946
175.21896
173.18006
171.12387
168.9065
166.60008
164.26228
161.9413
159.68255
157.49942
155.39073
153.36577
151.43124
149.59062
147.8457
146.19058
144.61443
143.10644
141.6603
140.27418
138.9468
137.68352
136.47711
135.32266
134.21621
133.15431
132.13355
131.14955
130.19943
129.2797
128.38913
127.52789
126.69644
125.8936
125.1175
124.3672
123.6387
122.92982
122.24139
121.57358
120.92598
120.29825
119.68794
119.09335
118.51408
117.95039
117.40247
116.8695
116.34973
115.84279
115.34749
114.86517
114.39725
113.96846
113.37234
52.965697
52.23422
51.501531
50.76796
50.03384
49.299554
48.565601
47.832779
47.102213
46.375654
45.655714
44.94613
44.252024
43.580005
42.938289
42.337157
41.789258
41.310294
40.91795
40.6323
40.475765
40.475237
40.664223
41.085005
41.795147
42.849205
44.309921
46.252959
48.772807
51.988261
56.04754
61.137286
67.351124
74.200495
81.596457
89.489347
97.885954
106.82452
115.66874
123.16443
129.20243
133.7614
137.05121
139.3977
140.88657
141.56019
141.47956
140.74334
139.61581
138.43297
137.12842
135.69265
134.1649
132.62417
131.0086
129.27492
127.47564
125.66301
123.8844
122.16006
120.48251
118.84826
117.25937
115.72404
114.24802
112.82929
111.47036
110.17067
108.92912
107.74274
106.60668
105.51563
104.46588
103.45503
102.48872
101.56454
100.67831
99.827582
99.009796
98.222228
97.462984
96.72921
96.020141
95.336126
94.676385
94.039714
93.42506
92.829709
92.252334
91.692928
91.151445
90.627569
90.120108
89.627114
89.148346
88.683231
88.232173
87.795549
87.396643
86.873788
52.965947
52.234502
51.501812
50.768192
50.03394
49.299373
48.564804
47.830552
47.096957
46.364376
45.633207
44.903899
44.176988
43.453109
42.733034
42.017707
41.308301
40.606274
39.913444
39.23205
38.564793
37.914935
37.286386
36.684188
36.115084
35.587747
35.11362
34.706926
34.386552
34.177964
34.11576
34.248491
34.641001
35.36177
36.500121
38.17885
40.570289
43.914018
48.500852
54.361229
61.061188
68.465116
76.460047
84.813344
92.495245
98.958172
104.10829
107.90079
110.48131
112.23567
113.24618
113.59226
113.36523
112.70019
111.87682
110.94813
109.89094
108.72726
107.52142
106.26707
104.90061
103.47074
102.01928
100.58277
99.1697
97.772681
96.391967
95.042712
93.738164
92.47955
91.263646
90.088252
88.954801
87.863222
86.817064
85.815952
84.857467
83.939499
83.058976
82.212585
81.397859
80.618219
79.872387
79.157387
78.470692
77.810282
77.174394
76.561106
75.969921
75.400469
74.851847
74.323035
73.812502
73.31849
72.840992
72.379442
71.933588
71.50271
71.108827
70.616949
52.966239
52.234835
51.502157
50.768532
50.034269
49.299684
48.56509
47.830795
47.097112
46.364356
45.632843
44.90289
44.174826
43.44898
42.72568
42.005263
41.288076
40.574479
39.864854
39.159613
38.4592
37.764101
37.074853
36.39207
35.716485
35.048987
34.390674
33.742922
33.107522
32.486873
31.88425
31.304042
30.752766
30.239239
29.776247
29.382561
29.085866
28.928292
28.974819
29.313163
30.047799
31.326061
33.362864
36.456047
40.953822
46.674504
53.271494
60.544158
68.154227
75.118848
80.97865
85.666975
89.163437
91.507076
93.008208
93.886342
94.224169
94.103195
93.630664
93.000743
92.271278
91.434123
90.516276
89.564691
88.548141
87.434613
86.259752
85.063597
83.869521
82.673312
81.480047
80.30198
79.151152
78.030433
76.937404
75.875491
74.850346
73.86387
72.914186
71.999292
71.118353
70.274468
69.467628
68.695339
67.955134
67.244834
66.561996
65.908447
65.283701
64.685011
64.110206
63.557622
63.025745
62.513761
62.02142
61.547591
61.091294
60.65114
60.248013
59.764386
52.966562
52.235207
51.502554
50.768942
50.034683
49.300093
48.565486
47.831173
47.097467
46.364684
45.63314
44.903151
44.175033
43.449102
42.725668
42.005039
41.287516
40.573398
39.86298
39.156552
38.454402
37.756813
37.064062
36.376426
35.694179
35.017603
34.346986
33.682625
33.024838
32.373974
31.73043
31.094681
30.46733
29.84916
29.241223
28.645007
28.062698
27.497642
26.955188
26.443362
25.974314
25.567387
25.254611
25.087626
25.149505
25.54908
26.431964
28.014681
30.614311
34.616378
39.836072
45.933632
52.674405
59.361871
65.221853
70.029978
73.77446
76.491632
78.24584
79.282396
79.836427
79.984435
79.802089
79.390597
78.877808
78.272507
77.577279
76.824844
76.034581
75.134662
74.165598
73.165566
72.15446
71.131575
70.097506
69.064631
68.046816
67.048887
66.072537
65.121403
64.199637
63.307038
62.444927
61.615172
60.818107
60.05244
59.316127
58.610949
57.937369
57.292977
56.675416
56.082832
55.514614
54.97215
54.452977
53.954976
53.47643
53.015953
52.59384
52.103127
52.966905
52.235601
51.50298
50.769384
50.03513
49.300536
48.56592
47.831594
47.097873
46.365075
45.633516
44.903513
44.17538
43.449432
42.725979
42.005326
41.287775
40.573621
39.863154
39.156659
38.454414
37.756689
37.063746
36.375839
35.693215
35.016113
34.344766
33.679401
33.020234
32.367477
31.721335
31.082012
30.449709
29.824631
29.206994
28.597027
27.994995
27.401221
26.816138
26.240358
25.674781
25.120783
24.580607
24.058049
23.559772
23.096299
22.684666
22.355024
22.159834
22.187411
22.55665
23.43345
25.073089
27.844335
32.026504
37.174661
43.06711
49.142995
54.686624
59.251261
62.819101
65.453211
67.238413
68.293593
68.859077
69.089669
69.041581
68.77232
68.388488
67.92075
67.366568
66.75238
66.095466
65.354166
64.542774
63.693066
62.821187
61.926738
61.01863
60.110674
59.213007
58.325544
57.451855
56.599103
55.771297
54.969222
54.193651
53.445238
52.725188
52.033682
51.370181
50.733527
50.122992
49.539942
48.982817
48.44947
47.937565
47.44707
46.998461
46.48703
52.967262
52.23601
51.503423
50.769845
50.0356
49.301005
48.566382
47.832046
47.098314
46.365502
45.633928
44.903909
44.175761
43.449796
42.726326
42.005655
41.288086
40.573914
39.863429
39.156914
38.454649
37.756902
37.063934
36.375999
35.693342
35.016199
34.344802
33.679369
33.020114
32.367239
31.720937
31.081394
30.448786
29.823282
29.205044
28.594223
27.990963
27.395403
26.807677
26.227925
25.656293
25.092945
24.538089
23.992009
23.455147
22.928214
22.412376
21.909662
21.423764
20.961588
20.534865
20.163106
19.88311
19.761815
19.908457
20.466728
21.660663
23.830809
27.385215
31.928738
37.237092
42.707083
47.69889
51.833583
55.008679
57.325928
58.896611
59.830006
60.302012
60.506046
60.483933
60.275982
59.966351
59.580259
59.118749
58.599418
58.035109
57.386652
56.67904
55.936672
55.171212
54.381069
53.57704
52.771126
51.969214
51.175666
50.396747
49.635349
48.892966
48.172502
47.476581
46.805651
46.15912
45.537375
44.941332
44.370216
43.822145
43.29639
42.815265
42.266376
52.96763
52.236431
51.503878
50.770321
50.036086
49.301493
48.566865
47.83252
47.098776
46.365952
45.634364
44.90433
44.176166
43.450186
42.7267
42.006014
41.288428
40.57424
39.863738
39.157207
38.454924
37.75716
37.064176
36.376224
35.693551
35.016392
34.344978
33.679529
33.020257
32.367364
31.721043
31.081478
30.448844
29.823308
29.205028
28.59415
27.990811
27.39514
26.807253
26.227261
25.655266
25.091361
24.535632
23.988158
23.449021
22.918309
22.396131
21.882636
21.378061
20.882821
20.397658
19.923889
19.463984
19.022784
18.609692
18.240483
17.94465
17.780128
17.851277
18.298544
19.344829
21.335829
24.629172
28.893385
33.872553
38.791203
43.142058
46.684624
49.32266
51.189814
52.420083
53.12862
53.47115
53.591905
53.540061
53.347495
53.073687
52.729934
52.320734
51.857723
51.347312
50.761327
50.130041
49.467434
48.776574
48.066116
47.3478
46.62739
45.908039
45.196328
44.49814
43.816063
43.151988
42.5074
41.884241
41.28373
40.705861
40.148202
39.635742
39.045012
52.968009
52.23686
51.504343
50.770808
50.036584
49.301995
48.567363
47.833011
47.099257
46.36642
45.634818
44.90477
44.176592
43.450596
42.727094
42.006391
41.288789
40.574584
39.864065
39.157517
38.455217
37.757436
37.064435
36.376467
35.693777
35.016604
34.345175
33.679713
33.020427
32.367522
31.721189
31.081613
30.448969
29.823423
29.205132
28.594244
27.990894
27.39521
26.807309
26.227298
25.655277
25.091336
24.535552
23.987995
23.448725
22.917795
22.395253
21.881138
21.375484
20.87833
20.389727
19.909753
19.438546
18.976376
18.523784
18.081798
17.652411
17.239705
16.852144
16.504936
16.226711
16.076608
16.161983
16.637173
17.754946
19.90697
23.24288
27.474013
32.099147
36.431781
40.083282
42.933502
44.967238
46.337872
47.195494
47.658953
47.851101
47.883784
47.782345
47.585774
47.323068
46.998368
46.618356
46.19251
45.70338
45.161727
44.584195
43.977831
43.347442
42.703138
42.052615
41.40062
40.753272
40.114719
39.487836
38.876268
38.282709
37.704804
37.170462
36.548961
52.968395
52.237296
51.504816
50.771304
50.037092
49.302507
48.567874
47.833515
47.099752
46.366903
45.635289
44.905227
44.177033
43.451022
42.727504
42.006785
41.289166
40.574943
39.864408
39.157843
38.455526
37.757728
37.06471
36.376725
35.69402
35.01683
34.345387
33.679911
33.020613
32.367695
31.72135
31.081764
30.449109
29.823554
29.205255
28.594359
27.991002
27.395311
26.807402
26.227385
25.655358
25.091409
24.535618
23.988052
23.44877
22.917825
22.395259
21.881105
21.375389
20.878126
20.389328
19.909002
19.437146
18.973762
18.51886
18.072475
17.634694
17.205722
16.786022
16.376554
15.979267
15.598356
15.242825
14.929523
14.692408
14.603689
14.785639
15.430588
16.855046
19.472749
23.046341
27.30824
31.463695
35.04618
37.892606
39.986047
41.392312
42.287799
42.80254
43.050753
43.112316
43.062954
42.917204
42.70818
42.442599
42.124051
41.757353
41.341497
40.870075
40.359712
39.819716
39.254797
38.674629
38.085845
37.492682
36.901547
36.317817
35.740661
35.20147
34.567097
52.96879
52.237739
51.505294
50.771806
50.037608
49.303029
48.568395
47.834031
47.100259
46.367399
45.635772
44.905696
44.177488
43.451462
42.727927
42.007192
41.289556
40.575317
39.864764
39.158181
38.455847
37.758032
37.064996
36.376995
35.694273
35.017068
34.34561
33.68012
33.020808
32.367877
31.721521
31.081923
30.449259
29.823695
29.205387
28.594483
27.991118
27.39542
26.807506
26.227482
25.655449
25.091495
24.535699
23.988127
23.448841
22.917891
22.39532
21.88116
21.375437
20.878165
20.389354
19.909005
19.437111
18.973657
18.518625
18.07199
17.633724
17.2038
16.782202
16.368937
15.96407
15.567797
15.180608
14.803577
14.43903
14.092276
13.774799
13.508407
13.342716
13.378701
13.77235
14.797016
16.896571
20.004888
23.89252
27.802006
31.233869
33.968894
35.989425
37.359179
38.220499
38.727003
38.979808
39.058472
39.026699
38.908955
38.734875
38.509518
38.235165
37.913276
37.548538
37.128965
36.67123
36.185013
35.673999
35.14675
34.61067
34.06676
33.549561
32.928165
52.969192
52.238186
51.505778
50.772313
50.03813
49.303558
48.568925
47.834557
47.100777
46.367907
45.636268
44.906178
44.177955
43.451913
42.728363
42.007611
41.289958
40.575701
39.865131
39.158531
38.456179
37.758346
37.065294
36.377275
35.694537
35.017316
34.345843
33.680338
33.021012
32.368069
31.7217
31.082092
30.449417
29.823843
29.205527
28.594614
27.991242
27.395537
26.807616
26.227586
25.655548
25.091588
24.535786
23.98821
23.448919
22.917964
22.395389
21.881225
21.375497
20.878222
20.389406
19.909053
19.437154
18.973694
18.518652
18.072
17.633705
17.203727
16.78202
16.368536
15.963226
15.566042
15.176949
14.795947
14.423107
14.05868
13.70332
13.358494
13.027667
12.719038
12.449504
12.255951
12.223603
12.492539
13.310312
15.09826
17.917852
21.523911
25.175156
28.389097
30.929755
32.787345
34.042796
34.821788
35.275606
35.500011
35.575239
35.543569
35.440313
35.287937
35.089104
34.8441
34.554465
34.225405
33.844636
33.427581
32.984173
32.514639
32.05486
31.482731
52.9696
52.238639
51.506265
50.772825
50.038658
49.304094
48.569463
47.835091
47.101304
46.368424
45.636773
44.906671
44.178433
43.452376
42.72881
42.008041
41.290371
40.576097
39.865509
39.158891
38.456522
37.758671
37.0656
36.377564
35.694809
35.017572
34.346084
33.680564
33.021224
32.368267
31.721887
31.082266
30.449581
29.823998
29.205672
28.594751
27.991371
27.395658
26.807731
26.227695
25.65565
25.091685
24.535878
23.988297
23.449001
22.918042
22.395462
21.881294
21.375563
20.878283
20.389464
19.909107
19.437204
18.973741
18.518695
18.07204
17.633741
17.203757
16.782042
16.368544
15.963208
15.56597
15.176768
14.795533
14.422199
14.056706
13.699015
13.349138
13.007205
12.673642
12.349518
12.037397
11.743755
11.482978
11.286299
11.230238
11.450809
12.190905
13.875925
16.55513
19.953499
23.350222
26.287271
28.566435
30.197649
31.282504
31.943239
32.318482
32.498128
32.553417
32.513605
32.416124
32.27515
32.09263
31.866368
31.599716
31.295037
30.940431
30.57588
30.097868
52.970015
52.239095
51.506756
50.773341
50.03919
49.304635
48.570007
47.835633
47.101839
46.368951
45.637288
44.907173
44.178921
43.452849
42.729267
42.008481
41.290794
40.576502
39.865896
39.15926
38.456873
37.759004
37.065915
36.377862
35.69509
35.017837
34.346332
33.680797
33.021443
32.368473
31.722079
31.082447
30.449752
29.824158
29.205823
28.594893
27.991505
27.395785
26.80785
26.227808
25.655758
25.091787
24.535974
23.988387
23.449087
22.918123
22.395539
21.881367
21.375631
20.878347
20.389525
19.909164
19.437258
18.973791
18.518743
18.072084
17.633782
17.203796
16.782077
16.368576
15.963236
15.565994
15.176783
14.795533
14.42217
14.056615
13.698787
13.348608
13.006001
12.670904
12.343295
12.023246
11.711066
11.40763
11.115107
10.839218
10.59349
10.408081
10.359995
10.589425
11.353882
13.105171
15.766126
18.985597
22.103002
24.71801
26.685952
28.051541
28.936723
29.463013
29.750853
29.880954
29.908488
29.855765
29.758618
29.622484
29.44956
29.232844
28.99938
28.662798
52.970436
52.239557
51.50725
50.773861
50.039726
49.305181
48.570556
47.836181
47.102382
46.369485
45.637812
44.907684
44.179418
43.453331
42.729733
42.00893
41.291226
40.576916
39.866292
39.159639
38.457233
37.759345
37.066239
36.378168
35.695378
35.018108
34.346587
33.681037
33.021668
32.368684
31.722278
31.082634
30.449927
29.824323
29.205979
28.59504
27.991643
27.395916
26.807974
26.227925
25.655868
25.091891
24.536073
23.988481
23.449175
22.918207
22.395618
21.881442
21.375702
20.878414
20.389588
19.909224
19.437314
18.973844
18.518792
18.072131
17.633826
17.203836
16.782115
16.368612
15.963269
15.566024
15.176811
14.795558
14.422192
14.056631
13.698794
13.348597
13.005949
12.670761
12.342944
12.02241
11.709084
11.402926
11.103978
10.812504
10.52931
10.256499
9.9998646
9.7735143
9.6105556
9.5977235
9.8900506
10.782565
12.671545
15.41776
18.465425
21.262004
23.505842
25.128647
26.213997
26.895929
27.289432
27.492009
27.574047
27.571515
27.50476
27.404009
27.280887
27.094712
52.970863
52.240022
51.507748
50.774383
50.040266
49.305731
48.57111
47.836734
47.102931
46.370026
45.638343
44.908203
44.179924
43.453822
42.730207
42.009388
41.291667
40.577339
39.866697
39.160025
38.457601
37.759695
37.06657
36.378481
35.695673
35.018386
34.346849
33.681283
33.0219
32.368902
31.722482
31.082826
30.450108
29.824493
29.206139
28.595191
27.991786
27.39605
26.808101
26.228045
25.655982
25.091999
24.536174
23.988577
23.449266
22.918293
22.3957
21.881519
21.375775
20.878483
20.389653
19.909285
19.437371
18.973898
18.518843
18.072178
17.63387
17.203878
16.782154
16.368648
15.963303
15.566056
15.17684
14.795586
14.422217
14.056654
13.698815
13.348615
13.005964
12.67077
12.342939
12.022376
11.708982
11.40266
11.103316
10.810869
10.525269
10.246553
9.9749862
9.7114284
9.4582128
9.2220594
9.0193545
8.8916476
8.9414817
9.3605445
10.516513
12.632083
15.442393
18.266599
20.673527
22.505035
23.770734
24.586452
25.080694
25.353692
25.479596
25.517217
25.494663
25.424076
52.971296
52.240492
51.508249
50.774908
50.040808
49.306284
48.571669
47.837293
47.103486
46.370574
45.638882
44.90873
44.180437
43.45432
42.73069
42.009854
41.292116
40.57777
39.86711
39.160419
38.457976
37.760052
37.066908
36.378801
35.695976
35.018671
34.347118
33.681536
33.022137
32.369125
31.722692
31.083023
30.450293
29.824668
29.206303
28.595346
27.991932
27.396188
26.808231
26.228169
25.656099
25.092109
24.536279
23.988676
23.44936
22.918382
22.395783
21.881598
21.375849
20.878554
20.389719
19.909347
19.43743
18.973953
18.518895
18.072227
17.633916
17.20392
16.782194
16.368685
15.963338
15.566088
15.176871
14.795614
14.422243
14.056678
13.698838
13.348636
13.005983
12.670787
12.342954
12.022388
11.708989
11.402656
11.103289
10.810783
10.525037
10.245953
9.9734466
9.7074693
9.4480712
9.1955803
8.9510417
8.7174478
8.5034396
8.3303284
8.2579966
8.4162348
9.0605474
10.609632
12.992392
15.70055
18.190586
20.168006
21.58509
22.518146
23.098023
23.431561
23.611229
23.689717
52.971735
52.240966
51.508753
50.775436
50.041353
49.306841
48.572231
47.837857
47.104047
46.371129
45.639427
44.909263
44.180958
43.454826
42.731181
42.010328
41.292572
40.578209
39.867531
39.160821
38.45836
37.760416
37.067254
36.379128
35.696285
35.018963
34.347392
33.681794
33.02238
32.369353
31.722906
31.083225
30.450483
29.824846
29.206471
28.595504
27.992081
27.396329
26.808365
26.228295
25.656218
25.092222
24.536386
23.988777
23.449456
22.918472
22.395869
21.881679
21.375926
20.878626
20.389787
19.909411
19.43749
18.97401
18.518948
18.072277
17.633963
17.203964
16.782235
16.368724
15.963373
15.566121
15.176901
14.795642
14.422269
14.056703
13.698861
13.348657
13.006002
12.670805
12.34297
12.022403
11.709002
11.402668
11.103298
10.810788
10.525033
10.245926
9.9733627
9.7072368
9.4474501
9.1939196
8.9466094
8.7056121
8.4713933
8.2453935
8.0320591
7.8438704
7.7133562
7.7313027
8.0773196
9.1154369
11.049789
13.571015
16.05778
18.120201
19.647044
20.673789
21.330154
21.730592
52.97218
52.241443
51.509259
50.775966
50.041901
49.3074
48.572797
47.838424
47.104612
46.371688
45.639977
44.909803
44.181485
43.45534
42.731679
42.01081
41.293036
40.578655
39.867958
39.16123
38.45875
37.760787
37.067606
36.379461
35.6966
35.01926
34.347673
33.682058
33.022628
32.369586
31.723126
31.083431
30.450677
29.825029
29.206644
28.595667
27.992234
27.396474
26.808501
26.228424
25.65634
25.092337
24.536495
23.98888
23.449553
22.918564
22.395956
21.881761
21.376003
20.878699
20.389856
19.909476
19.437552
18.974067
18.519002
18.072327
17.63401
17.204008
16.782276
16.368762
15.963409
15.566155
15.176933
14.795671
14.422296
14.056728
13.698884
13.348678
13.006022
12.670823
12.342987
12.022418
11.709016
11.402681
11.103309
10.810798
10.525041
10.245933
9.9733651
9.7072298
9.4474193
9.1938252
8.9463425
8.7048743
8.4693464
8.23975
8.0162721
7.7996649
7.5922542
7.4014263
7.2467979
7.1870896
7.3555312
8.0269521
9.573271
11.862966
14.269221
16.358085
17.957103
19.080468
52.97263
52.241925
51.509769
50.776498
50.042451
49.307962
48.573366
47.838995
47.105181
46.372252
45.640534
44.910349
44.182019
43.455859
42.732183
42.011298
41.293507
40.579108
39.868393
39.161646
38.459147
37.761165
37.067965
36.379801
35.696921
35.019564
34.347959
33.682327
33.022882
32.369825
31.72335
31.083642
30.450875
29.825216
29.206819
28.595832
27.99239
27.396621
26.80864
26.228555
25.656464
25.092455
24.536606
23.988985
23.449652
22.918658
22.396044
21.881844
21.376082
20.878773
20.389926
19.909542
19.437614
18.974125
18.519056
18.072378
17.634058
17.204053
16.782318
16.368801
15.963445
15.566189
15.176964
14.7957
14.422323
14.056753
13.698907
13.348699
13.006041
12.670841
12.343003
12.022433
11.70903
11.402693
11.103321
10.810809
10.525051
10.245941
9.9733723
9.7072358
9.4474231
9.1938246
8.9463311
8.704834
8.469225
8.2394009
8.0152709
7.7967802
7.5839814
7.3772617
7.1779468
6.9904504
6.8278256
6.7272185
6.7916358
7.2363928
8.4690657
10.473082
12.784978
14.909242
52.973086
52.242411
51.510281
50.777033
50.043003
49.308526
48.573937
47.839569
47.105754
46.372821
45.641095
44.9109
44.182558
43.456385
42.732694
42.011792
41.293985
40.579568
39.868834
39.162069
38.45955
37.761549
37.06833
36.380147
35.697249
35.019873
34.34825
33.682602
33.02314
32.370068
31.723579
31.083857
30.451077
29.825406
29.206998
28.596001
27.99255
27.396771
26.808782
26.228689
25.65659
25.092574
24.536718
23.989091
23.449753
22.918753
22.396134
21.881929
21.376162
20.878848
20.389997
19.909609
19.437676
18.974184
18.519111
18.07243
17.634106
17.204098
16.78236
16.36884
15.963482
15.566222
15.176995
14.795729
14.42235
14.056778
13.698929
13.34872
13.00606
12.670858
12.34302
12.022448
11.709043
11.402705
11.103332
10.810819
10.52506
10.245949
9.9733795
9.7072421
9.4474286
9.1938292
8.9463345
8.7048351
8.4692208
8.2393825
8.0152121
7.7966033
7.5834579
7.3756986
7.1733124
6.9764905
6.786047
6.6047026
6.441496
6.3219744
6.3275323
6.6254273
7.6793608
9.4409398
52.973546
52.2429
51.510796
50.77757
50.043556
49.309092
48.57451
47.840146
47.106331
46.373393
45.64166
44.911456
44.183103
43.456916
42.73321
42.012293
41.294468
40.580034
39.869281
39.162497
38.459959
37.761939
37.0687
36.380499
35.697582
35.020188
34.348547
33.682882
33.023403
32.370315
31.723811
31.084076
30.451284
29.8256
29.207181
28.596173
27.992712
27.396924
26.808926
26.228825
25.656719
25.092695
24.536833
23.989199
23.449855
22.918849
22.396225
21.882015
21.376243
20.878925
20.390069
19.909676
19.437739
18.974243
18.519167
18.072482
17.634154
17.204143
16.782402
16.368879
15.963518
15.566256
15.177026
14.795758
14.422377
14.056802
13.698952
13.348741
13.00608
12.670876
12.343036
12.022462
11.709056
11.402717
11.103343
10.810828
10.525068
10.245957
9.9733864
9.7072481
9.4474338
9.1938337
8.9463383
8.7048381
8.469223
8.2393835
8.0152101
7.7965939
7.5834269
7.3756026
7.1730195
6.9755898
6.7832668
6.5961344
6.4147115
6.2408114
6.0811039
5.9536887
5.946952
6.146767
52.974012
52.243394
51.511314
50.778108
50.044112
49.309659
48.575086
47.840725
47.10691
46.373968
45.642229
44.912017
44.183652
43.457453
42.733732
42.012799
41.294957
40.580505
39.869735
39.162932
38.460374
37.762335
37.069077
36.380856
35.69792
35.020507
34.348849
33.683166
33.023671
32.370568
31.724049
31.084299
30.451493
29.825797
29.207367
28.596348
27.992876
27.397079
26.809072
26.228963
25.656849
25.092819
24.536949
23.989309
23.449958
22.918947
22.396317
21.882101
21.376324
20.879001
20.390141
19.909744
19.437803
18.974303
18.519222
18.072534
17.634203
17.204188
16.782444
16.368918
15.963554
15.56629
15.177058
14.795787
14.422403
14.056827
13.698974
13.348761
13.006098
12.670893
12.343051
12.022476
11.709069
11.402729
11.103353
10.810837
10.525077
10.245964
9.9733926
9.7072536
9.4474385
9.1938377
8.9463416
8.7048408
8.4692251
8.239385
8.0152111
7.796594
7.5834253
7.3755968
7.1730014
6.9755336
6.7830907
6.5955799
6.4129368
6.2351871
6.0626875
5.896676
5.7452247
5.6149198
52.974483
52.243891
51.511835
50.778649
50.044668
49.310228
48.575663
47.841306
47.107491
46.374547
45.642802
44.912581
44.184205
43.457993
42.734259
42.01331
41.295452
40.580982
39.870193
39.163371
38.460795
37.762736
37.069459
36.381219
35.698263
35.020832
34.349156
33.683456
33.023944
32.370824
31.72429
31.084526
30.451707
29.825998
29.207556
28.596525
27.993044
27.397237
26.809221
26.229103
25.656981
25.092943
24.537066
23.98942
23.450063
22.919045
22.39641
21.882189
21.376406
20.879079
20.390214
19.909812
19.437867
18.974362
18.519278
18.072586
17.634251
17.204233
16.782486
16.368957
15.96359
15.566323
15.177088
14.795815
14.422429
14.05685
13.698996
13.348781
13.006116
12.670909
12.343066
12.02249
11.709081
11.40274
11.103363
10.810846
10.525084
10.245971
9.9733983
9.7072584
9.4474425
9.193841
8.9463443
8.7048429
8.4692267
8.239386
8.0152116
7.796594
7.5834249
7.3755959
7.1729994
6.975529
6.7830786
6.595544
6.4128232
6.2348212
6.0614651
5.8927467
5.7291647
5.5710469
52.974958
52.244391
51.512358
50.779191
50.045226
49.310798
48.576241
47.841889
47.108074
46.375128
45.643377
44.913148
44.184763
43.458538
42.73479
42.013826
41.295951
40.581464
39.870657
39.163817
38.461221
37.763143
37.069846
36.381586
35.698612
35.021162
34.349467
33.683749
33.024221
32.371084
31.724535
31.084756
30.451923
29.826202
29.207747
28.596706
27.993213
27.397396
26.809371
26.229245
25.657115
25.093069
24.537185
23.989532
23.450168
22.919145
22.396503
21.882277
21.376489
20.879156
20.390287
19.90988
19.43793
18.974422
18.519334
18.072638
17.6343
17.204278
16.782528
16.368996
15.963626
15.566356
15.177119
14.795843
14.422455
14.056874
13.699018
13.348801
13.006134
12.670925
12.34308
12.022503
11.709093
11.40275
11.103372
10.810854
10.525091
10.245977
9.9734032
9.7072625
9.4474459
9.1938437
8.9463463
8.7048443
8.4692275
8.2393863
8.0152114
7.7965935
7.5834239
7.3755945
7.1729977
6.9755269
6.7830758
6.5955396
6.4128138
6.2347961
6.0613845
5.8924871
5.7280273
5.5679966
52.975439
52.244895
51.512883
50.779735
50.045786
49.311369
48.57682
47.842473
47.108659
46.375711
45.643955
44.913719
44.185323
43.459087
42.735325
42.014346
41.296455
40.581951
39.871126
39.164266
38.461652
37.763554
37.070238
36.381959
35.698965
35.021496
34.349783
33.684047
33.024501
32.371349
31.724783
31.08499
30.452143
29.826409
29.207942
28.596889
27.993386
27.397558
26.809524
26.229389
25.657251
25.093197
24.537305
23.989645
23.450275
22.919245
22.396598
21.882365
21.376572
20.879234
20.39036
19.909949
19.437994
18.974482
18.51939
18.07269
17.634348
17.204323
16.782569
16.369034
15.963661
15.566388
15.177148
14.79587
14.422479
14.056896
13.699038
13.348819
13.006151
12.67094
12.343094
12.022515
11.709103
11.402759
11.10338
10.810861
10.525097
10.245982
9.9734073
9.7072658
9.4474484
9.1938455
8.9463475
8.7048448
8.4692275
8.2393858
8.0152105
7.7965921
7.5834222
7.3755924
7.1729953
6.9755242
6.7830729
6.5955363
6.4128101
6.2347912
6.0613769
5.892469
5.7279502
5.5677896
52.975923
52.245402
51.51341
50.780281
50.046346
49.311941
48.5774
47.843057
47.109245
46.376295
45.644535
44.914291
44.185886
43.459639
42.735863
42.01487
41.296963
40.582441
39.871599
39.164721
38.462087
37.76397
37.070634
36.382336
35.699323
35.021835
34.350103
33.684349
33.024786
32.371617
31.725036
31.085227
30.452366
29.826618
29.208139
28.597074
27.99356
27.397722
26.809678
26.229534
25.657387
25.093325
24.537426
23.989759
23.450382
22.919346
22.396692
21.882454
21.376656
20.879312
20.390433
19.910017
19.438058
18.974541
18.519445
18.072741
17.634395
17.204367
16.78261
16.369072
15.963696
15.56642
15.177177
14.795897
14.422503
14.056918
13.699058
13.348837