/*--------------------------------*- C++ -*----------------------------------*\
  =========                 |
  \\      /  F ield         | OpenFOAM: The Open Source CFD Toolbox
   \\    /   O peration     | Website:  https://openfoam.org
    \\  /    A nd           | Version:  12
     \\/     M anipulation  |
\*---------------------------------------------------------------------------*/
FoamFile
{
    format      ascii;
    class       volScalarField;
    location    "600";
    object      p;
}
// * * * * * * * * * * * * * * * * * * * * * * * * * * * * * * * * * * * * * //

dimensions      [0 2 -2 0 0 0 0];

internalField   nonuniform List<scalar> 
7480
(
0.0087427037
0.0076963438
0.006572338
0.0060500739
0.0057144203
0.0054562522
0.0052490434
0.005060741
0.0048993136
0.0047655853
0.0046500582
0.0045323111
0.0044088939
0.0042835904
0.0041586616
0.0040352749
0.0039155696
0.0038075428
0.0037076056
0.0036024292
0.0034954091
0.0033972602
0.0033107784
0.0032353115
0.003173005
0.0031191063
0.0030658478
0.003017765
0.0029782887
0.0029457195
0.0029185091
0.0028975468
0.002881497
0.0028625269
0.0028395998
0.0028171921
0.0027964007
0.0027773534
0.0027616332
0.0027416843
0.0027127456
0.0026816077
0.002652572
0.0026255369
0.0025988785
0.0025674734
0.0025306894
0.0024934989
0.00245832
0.0024245367
0.0023863451
0.0023428237
0.002299687
0.002261268
0.002224159
0.0021827537
0.0021392486
0.002098091
0.0020594955
0.0020187402
0.001974694
0.001932611
0.001892816
0.0018514031
0.0018078958
0.0017668459
0.0017264877
0.0016829238
0.0016391735
0.0015971779
0.0015539145
0.0015081763
0.0014648758
0.0014215867
0.001374575
0.0013293031
0.0012847155
0.0012363769
0.0011890764
0.0011426154
0.0010929506
0.001044385
0.00099610383
0.00094447961
0.00089378873
0.00084301082
0.00079036101
0.00073808745
0.00068450772
0.00063106787
0.00057713939
0.00052177311
0.00046770874
0.0004128744
0.00036078071
0.00030626449
0.00027364053
0.00016247295
0.00035966561
-0.00031292135
0.0082292821
0.0073038692
0.006422192
0.0060055999
0.0057875614
0.0055880566
0.0053895373
0.0051954073
0.0050227932
0.004868156
0.0047279599
0.0045924316
0.0044570793
0.0043238652
0.0041938208
0.0040679696
0.0039488425
0.0038387898
0.0037361698
0.0036311007
0.0035240284
0.0034256225
0.003338766
0.003262796
0.0032000884
0.0031455757
0.0030913325
0.0030421415
0.0030013674
0.0029673756
0.0029387081
0.0029163463
0.0028989801
0.002878777
0.0028547525
0.0028312024
0.0028092184
0.0027891133
0.0027725443
0.0027517265
0.002721939
0.0026900955
0.0026604454
0.0026328841
0.0026057643
0.0025738962
0.0025367009
0.0024992259
0.002463842
0.0024298498
0.0023914137
0.0023476591
0.0023043324
0.0022657512
0.0022284734
0.0021868977
0.0021432438
0.0021019476
0.0020632105
0.0020222993
0.0019780997
0.0019358802
0.001895947
0.0018543889
0.0018107426
0.0017695692
0.0017290872
0.0016854007
0.0016415419
0.0015994435
0.0015560754
0.0015102377
0.0014668471
0.0014234646
0.0013763629
0.001331013
0.0012863477
0.0012379336
0.0011905661
0.0011440377
0.0010943064
0.001045681
0.00099734078
0.0009456603
0.00089491878
0.00084409071
0.00079139245
0.00073907328
0.00068544979
0.00063196928
0.00057800152
0.0005225978
0.00046849834
0.00041362942
0.00036150683
0.00030695526
0.00027426644
0.0001637569
0.00036269723
-0.00031040251
0.0079241967
0.0072674157
0.0065390383
0.0061019738
0.0058531895
0.005610933
0.005377452
0.0051653061
0.004983961
0.0048273958
0.0046877882
0.0045578063
0.0044298364
0.0043041373
0.0041809222
0.0040613931
0.0039484196
0.0038414466
0.0037399492
0.0036380656
0.0035349135
0.0034397468
0.0033556469
0.0032818053
0.0032206294
0.0031663816
0.0031117289
0.0030621364
0.0030208457
0.0029862547
0.0029570049
0.0029342654
0.0029158532
0.0028939657
0.0028687982
0.0028443359
0.0028214118
0.0028005095
0.0027834908
0.0027621514
0.0027317104
0.0026993131
0.0026691015
0.0026410643
0.0026135493
0.0025812223
0.0025433248
0.002505153
0.0024694051
0.0024351906
0.0023965057
0.0023525205
0.0023090318
0.0022703386
0.0022329252
0.0021911772
0.0021473777
0.0021059592
0.002067098
0.0020260369
0.0019816873
0.0019393488
0.0018992941
0.0018575992
0.00181382
0.0017725401
0.0017319442
0.0016881333
0.0016441678
0.0016019705
0.0015584964
0.0015125556
0.0014690785
0.0014256015
0.001378404
0.0013329763
0.0012882305
0.0012397342
0.001192298
0.0011456991
0.0010958948
0.0010472065
0.00099880263
0.00094705922
0.00089626349
0.0008453805
0.00079262837
0.00074025897
0.00068658598
0.0006330602
0.00057904822
0.00052360179
0.00046946279
0.00041455375
0.00036239797
0.000307805
0.00027505116
0.00016592588
0.00036811397
-0.0003062926
0.0077049839
0.0071862222
0.0065144592
0.0060621204
0.0058043475
0.0055740468
0.0053526258
0.0051569731
0.0049881827
0.0048408202
0.0047040075
0.0045750675
0.0044470024
0.0043198776
0.0041955844
0.0040750327
0.0039599519
0.0038503531
0.0037466574
0.0036444505
0.0035420236
0.0034470444
0.0033629328
0.0032889391
0.0032262991
0.0031699648
0.003114939
0.0030658695
0.0030252165
0.0029916112
0.0029636378
0.0029424466
0.0029247577
0.0029027953
0.0028779
0.0028538649
0.0028312414
0.0028098022
0.0027919833
0.002770088
0.0027390766
0.0027063753
0.0026758856
0.0026476665
0.0026200884
0.0025875183
0.0025490162
0.0025102572
0.0024742894
0.00244003
0.0024012074
0.0023570398
0.0023134273
0.0022746778
0.0022371117
0.002195034
0.0021509833
0.0021094692
0.0020705477
0.002029387
0.0019849257
0.0019425171
0.001902389
0.0018605934
0.0018167077
0.0017753441
0.0017346466
0.0016907217
0.0016466626
0.0016043824
0.0015608131
0.0015147768
0.0014712277
0.0014276679
0.0013803809
0.001334885
0.0012900652
0.0012414884
0.0011939897
0.0011473253
0.0010974501
0.0010487043
0.0010002406
0.00094843533
0.00089758866
0.00084665311
0.00079384868
0.00074143113
0.0006877096
0.0006341403
0.00058008529
0.00052459686
0.00047041926
0.00041547044
0.00036328076
0.00030865091
0.00027583594
0.00016870046
0.00037508999
-0.00030142136
0.0074985819
0.0070678872
0.0064751482
0.0060525057
0.0058032602
0.005588094
0.0053710189
0.0051757905
0.0050042355
0.0048518894
0.0047100513
0.0045769393
0.0044467231
0.0043185034
0.0041949181
0.0040758276
0.0039615881
0.0038527912
0.003749874
0.0036492765
0.003548934
0.0034550345
0.0033712455
0.0032971397
0.0032332011
0.0031757696
0.0031211002
0.0030722554
0.0030311539
0.0029969436
0.0029683057
0.0029458854
0.0029262346
0.0029033871
0.0028786275
0.0028551806
0.0028334499
0.0028126502
0.0027955023
0.0027745272
0.0027440804
0.0027120406
0.0026816427
0.0026528599
0.0026249422
0.0025921207
0.0025533363
0.0025145302
0.0024786603
0.0024445342
0.0024056693
0.002361291
0.0023175128
0.0022787284
0.0022410646
0.0021986868
0.0021544034
0.0021128101
0.0020738543
0.0020326188
0.0019880652
0.0019456248
0.0019054638
0.001863591
0.0018195982
0.0017780954
0.0017372486
0.0016932251
0.0016491002
0.001606766
0.0015631229
0.0015170078
0.0014734084
0.0014297755
0.0013823955
0.001336837
0.0012919476
0.0012432901
0.0011957324
0.0011490051
0.0010990595
0.0010502599
0.0010017374
0.00094986799
0.00089897004
0.00084798091
0.00079512295
0.00074265701
0.00068888557
0.0006352718
0.00058117226
0.00052563989
0.00047142222
0.00041643188
0.00036420536
0.00030954188
0.0002766501
0.00017188028
0.00038292901
-0.00029605937
0.0073075607
0.0069494982
0.0064389003
0.0060463022
0.0057958017
0.0055815472
0.0053655786
0.0051700717
0.004998956
0.0048469517
0.0047067472
0.0045751724
0.0044470227
0.0043211955
0.0041996177
0.0040820236
0.0039687476
0.0038606128
0.0037578467
0.0036576144
0.0035582036
0.0034647178
0.0033808694
0.0033065168
0.0032418221
0.0031838408
0.0031292458
0.0030801722
0.0030383717
0.0030033007
0.0029737502
0.0029499812
0.0029287498
0.0029054927
0.0028807319
0.0028570615
0.0028349249
0.0028137691
0.0027955847
0.0027739575
0.0027437771
0.002712347
0.0026824448
0.0026541243
0.0026270906
0.0025951482
0.0025569467
0.0025187082
0.0024826685
0.002448048
0.0024090035
0.002364491
0.0023207343
0.0022821327
0.0022445772
0.0022021563
0.0021577735
0.0021160792
0.002077087
0.0020358085
0.0019911697
0.0019486878
0.0019084748
0.001866509
0.0018224077
0.0017807796
0.0017398101
0.0016957027
0.0016515256
0.0016091575
0.0015654636
0.0015192895
0.0014756624
0.0014319315
0.0013844123
0.0013387946
0.0012938537
0.0012451282
0.0011975265
0.0011507491
0.001100737
0.001051884
0.0010033038
0.00095136984
0.0009004223
0.00084938029
0.00079646935
0.00074395624
0.00069013399
0.00063647464
0.00058232884
0.00052675057
0.00047249167
0.00041745834
0.00036519179
0.00031049754
0.00027750353
0.00017535364
0.00039111309
-0.00029018629
0.0071329126
0.0068332691
0.0063941774
0.006030007
0.0057802715
0.005569864
0.0053616677
0.0051705576
0.0050024383
0.0048516166
0.0047122658
0.0045803498
0.0044524479
0.0043270558
0.0042055648
0.0040879954
0.0039748545
0.0038668103
0.0037638919
0.0036639235
0.0035655429
0.0034728125
0.0033892388
0.0033149136
0.0032497339
0.0031912763
0.0031366075
0.0030872416
0.0030448965
0.0030092306
0.002979077
0.0029543703
0.0029322972
0.0029088226
0.0028839361
0.0028598718
0.0028372489
0.0028155714
0.0027961913
0.002773924
0.0027440427
0.0027126799
0.0026826418
0.0026541877
0.002626756
0.00259469
0.0025568882
0.0025193265
0.0024836773
0.0024494814
0.0024111348
0.0023671866
0.002324013
0.0022854948
0.0022474383
0.0022046847
0.0021602561
0.0021186611
0.0020798587
0.002038661
0.0019940062
0.0019514803
0.0019111931
0.0018691636
0.0018250215
0.0017833786
0.0017423524
0.0016981461
0.0016539154
0.0016115186
0.0015677773
0.0015215394
0.0014778857
0.0014340556
0.0013864066
0.0013407498
0.0012957712
0.0012469867
0.0011993576
0.0011525471
0.0011024514
0.0010535167
0.0010048793
0.00095289161
0.00090190691
0.00085082196
0.00079786308
0.00074530282
0.00069142958
0.00063772627
0.00058353509
0.00052791143
0.00047361253
0.00041853622
0.0003662272
0.00031150585
0.00027838454
0.00017905322
0.00039924653
-0.00028373142
0.0069728949
0.0067193135
0.0063416736
0.0060076139
0.0057633956
0.0055581552
0.0053574323
0.0051698927
0.0050028686
0.004852304
0.0047128406
0.0045804693
0.0044529644
0.004328708
0.0042081724
0.0040915541
0.003979394
0.0038721295
0.003769694
0.0036704473
0.0035733095
0.0034814897
0.0033982451
0.0033239121
0.0032582482
0.0031992591
0.0031444201
0.0030947853
0.003051944
0.0030156655
0.0029848282
0.0029591314
0.0029361273
0.0029121602
0.0028869372
0.0028624641
0.0028394575
0.0028174287
0.0027973166
0.0027747101
0.0027451786
0.0027138872
0.0026836992
0.0026548869
0.0026267817
0.0025944513
0.0025568576
0.0025193637
0.0024836442
0.0024491623
0.0024108142
0.002367378
0.0023249853
0.0022869577
0.0022490663
0.0022065237
0.0021625222
0.0021214279
0.0020826013
0.0020408388
0.0019959621
0.0019535087
0.001913365
0.0018714501
0.0018273522
0.0017857569
0.0017446627
0.0017003813
0.0016561744
0.0016137841
0.0015699747
0.001523646
0.0014799751
0.0014360976
0.0013883828
0.0013427062
0.0012976839
0.0012488345
0.0012011843
0.001154344
0.0011041588
0.0010551493
0.0010064662
0.00095443334
0.00090342169
0.00085230462
0.00079928847
0.00074665983
0.00069273303
0.00063899569
0.00058476803
0.00052910487
0.00047476738
0.00041964679
0.00036729467
0.0003125519
0.00027928202
0.0001829309
0.00040699896
-0.00027664172
0.0068257675
0.0066087658
0.006283859
0.0059802974
0.0057443015
0.0055439612
0.0053499124
0.0051664611
0.0050013212
0.0048520004
0.0047133921
0.0045818379
0.0044551951
0.0043321823
0.004212603
0.0040968786
0.0039854853
0.0038787362
0.0037765684
0.0036777731
0.0035815278
0.003490388
0.0034073312
0.0033328892
0.0032667461
0.0032072352
0.0031521926
0.0031022973
0.0030589562
0.0030220343
0.0029904839
0.0029638316
0.002939914
0.0029154405
0.0028899355
0.0028651395
0.0028417809
0.0028193908
0.002798563
0.0027755172
0.0027462031
0.0027149366
0.0026846459
0.0026556161
0.0026271247
0.0025947888
0.0025575235
0.0025200939
0.0024842152
0.0024492645
0.0024107611
0.0023675802
0.0023253591
0.0022870358
0.0022488441
0.0022064795
0.0021631031
0.0021228152
0.0020843008
0.002042337
0.0019976485
0.0019556055
0.0019157389
0.0018734978
0.0018289654
0.0017874095
0.0017464168
0.0017022459
0.0016581565
0.0016158315
0.001571944
0.0015255528
0.0014819468
0.0014380638
0.0013902726
0.0013445722
0.0012995224
0.0012506153
0.0012029467
0.0011560693
0.0011058172
0.0010567839
0.0010080723
0.00095598792
0.00090494694
0.00085379921
0.00080072415
0.0007480289
0.00069405392
0.00064029098
0.00058603474
0.00053033228
0.00047593981
0.00042076456
0.00036837465
0.00031362289
0.00028018935
0.00018694391
0.00041406276
-0.00026887826
0.0066897836
0.0065022195
0.006222193
0.0059480894
0.0057222712
0.0055272711
0.0053399373
0.0051614941
0.0049989781
0.0048511968
0.0047135812
0.0045827639
0.0044568374
0.004334657
0.0042159278
0.0041010538
0.0039904176
0.0038842613
0.0037825284
0.0036843244
0.0035890394
0.0034987131
0.0034160082
0.0033415909
0.0032751238
0.0032151993
0.0031599745
0.0031098456
0.003066032
0.0030284845
0.0029962363
0.0029686782
0.0029438764
0.0029188838
0.0028930829
0.0028679424
0.002844186
0.0028213875
0.0027998593
0.0027763604
0.0027472258
0.0027160174
0.0026856458
0.0026564124
0.0026275465
0.0025951718
0.0025581736
0.0025207901
0.0024847972
0.0024495926
0.0024111693
0.0023683298
0.0023262044
0.002287543
0.0022490264
0.002206749
0.0021635622
0.0021232098
0.0020842447
0.0020421712
0.0019980483
0.0019567642
0.0019174658
0.0018750221
0.0018303509
0.001789095
0.0017484003
0.0017040086
0.0016595246
0.0016172176
0.0015734131
0.0015271426
0.001483688
0.0014398341
0.001391951
0.0013462764
0.0013012715
0.0012523204
0.0012046228
0.0011577124
0.001107415
0.001058378
0.0010096401
0.00095749971
0.00090643423
0.00085525774
0.00080213954
0.00074940957
0.00069539886
0.00064160909
0.00058732079
0.00053157647
0.0004771281
0.00042190173
0.00036947658
0.00031472854
0.00028110931
0.00019104294
0.00042011998
-0.00026040089
0.0065634999
0.0063999484
0.0061578964
0.0059114759
0.0056973722
0.0055084713
0.0053278562
0.0051548409
0.0049953322
0.0048492495
0.004712799
0.0045829202
0.0044579051
0.0043367437
0.0042191053
0.0041052619
0.0039955224
0.0038900885
0.0037889131
0.0036913463
0.0035969656
0.0035074159
0.0034250489
0.0033506242
0.003283831
0.0032234767
0.003168002
0.0031175958
0.0030732914
0.0030350999
0.0030021316
0.0029736763
0.0029479904
0.0029224411
0.0028963058
0.0028708003
0.0028466302
0.0028234127
0.0028012285
0.0027772879
0.0027482931
0.0027171473
0.0026866814
0.0026572302
0.0026279979
0.0025955621
0.0025588032
0.0025214764
0.0024853899
0.0024499655
0.0024115832
0.0023690609
0.002327028
0.002288165
0.0022495455
0.0022074687
0.0021644033
0.0021238702
0.0020845108
0.0020424313
0.0019985389
0.0019572332
0.0019175834
0.0018748954
0.001830706
0.0017901791
0.0017500053
0.0017054324
0.0016607451
0.0016186459
0.0015750607
0.0015286333
0.0014849005
0.0014410419
0.0013932105
0.0013477194
0.0013028098
0.0012538285
0.0012061283
0.0011592517
0.0011089473
0.0010598983
0.0010111284
0.00095894953
0.00090787698
0.0008566716
0.00080351397
0.00075076476
0.00069672726
0.00064290997
0.00058858667
0.00053280668
0.00047832663
0.00042306571
0.00037060008
0.00031585953
0.00028203109
0.00019518079
0.00042487714
-0.00025114588
0.0064457286
0.0063019957
0.0060919844
0.0058710692
0.0056696732
0.0054876114
0.0053136704
0.0051463187
0.0049902501
0.004846198
0.0047112091
0.0045825324
0.0044586166
0.004338576
0.0042220649
0.0041092467
0.0040003908
0.0038956804
0.0037950873
0.0036981557
0.0036046219
0.0035158269
0.0034338249
0.0033594268
0.0032923728
0.0032316476
0.0031759334
0.0031252691
0.0030805072
0.0030416963
0.003008022
0.0029787068
0.0029521663
0.0029260514
0.0028995681
0.0028736999
0.0028491165
0.0028254737
0.0028026675
0.0027782862
0.0027493812
0.0027182922
0.002687724
0.0026580551
0.0026284811
0.0025959788
0.0025594438
0.0025221851
0.0024860091
0.0024503709
0.0024120107
0.0023697847
0.0023278499
0.0022888143
0.0022500793
0.0022081658
0.0021652173
0.0021245591
0.0020850576
0.0020431117
0.001999363
0.0019578898
0.0019178861
0.0018751589
0.0018312101
0.0017905884
0.0017500549
0.0017053992
0.0016612115
0.0016197811
0.0015765136
0.0015299349
0.0014860533
0.0014423094
0.0013945684
0.0013489769
0.0013038468
0.0012548752
0.0012073334
0.0011605839
0.0011102929
0.0010612439
0.0010124897
0.00096032722
0.00090925797
0.00085801606
0.00080483507
0.00075208099
0.00069801596
0.00064417343
0.00058982312
0.00053401494
0.00047951131
0.00042422148
0.00037171492
0.00031698443
0.00028293151
0.00019930144
0.00042801201
-0.00024113252
0.0063354585
0.0062082546
0.0060252619
0.0058274897
0.005639279
0.0054647231
0.0052974752
0.0051359573
0.0049837442
0.0048420634
0.0047087834
0.0045815046
0.0044588258
0.0043399823
0.0042246447
0.0041129057
0.0040049992
0.0039010925
0.0038011768
0.0037049464
0.003612265
0.0035242389
0.0034426475
0.0033683188
0.0033010579
0.0032400014
0.0031840385
0.0031331053
0.0030878883
0.0030484556
0.0030140666
0.0029839048
0.0029565193
0.0029298141
0.0029029525
0.0028767063
0.002851694
0.0028276067
0.0028041986
0.0027793742
0.0027505122
0.002719473
0.0026887991
0.0026589132
0.0026290165
0.0025964362
0.0025601011
0.0025229108
0.0024866439
0.0024508031
0.0024124608
0.0023705174
0.0023286892
0.0022894929
0.0022506352
0.0022088688
0.0021660382
0.002125276
0.0020856406
0.0020437739
0.0020001534
0.0019585692
0.0019184202
0.001875826
0.0018319931
0.0017911058
0.0017502615
0.0017056855
0.0016616475
0.0016200939
0.0015765244
0.0015301048
0.0014867779
0.0014434676
0.0013958649
0.0013501467
0.0013048739
0.0012559979
0.0012085157
0.0011615919
0.0011112016
0.0010622702
0.0010136488
0.00096152763
0.0009104716
0.00085923407
0.00080608942
0.00075334094
0.00069923551
0.00064538674
0.00059102754
0.00053519129
0.00048066388
0.00042535079
0.00037280788
0.00031809357
0.00028379729
0.00020333863
0.00042916664
-0.00023051094
0.0062318227
0.0061185378
0.005958351
0.0057813389
0.005606365
0.0054398629
0.005279377
0.0051237934
0.0049757726
0.0048367832
0.0047054476
0.0045797636
0.0044584816
0.0043409462
0.0042268621
0.0041162752
0.0040093835
0.0039063426
0.0038071676
0.0037116723
0.0036198237
0.0035325498
0.0034513855
0.0033771498
0.0033097185
0.0032483618
0.0031921452
0.0031409372
0.0030952754
0.0030552316
0.0030201344
0.00298915
0.0029609411
0.0029336356
0.0029063769
0.0028797466
0.002854301
0.0028297622
0.0028057785
0.0027805185
0.0027516624
0.002720667
0.0026898869
0.0026597853
0.0026295831
0.0025969164
0.0025607603
0.0025236412
0.0024872881
0.0024512605
0.0024129328
0.0023712551
0.0023295367
0.0022901908
0.0022512129
0.0022095845
0.0021668743
0.0021260175
0.0020862429
0.0020444389
0.0020009495
0.0019592769
0.0019189924
0.0018764892
0.0018327428
0.0017916605
0.001750726
0.0017063322
0.0016622844
0.0016204633
0.0015767072
0.0015304604
0.0014871072
0.0014435663
0.0013960207
0.001350636
0.0013057791
0.0012571324
0.001209675
0.0011625688
0.001112134
0.001063342
0.0010146256
0.00096233901
0.00091137008
0.00086026278
0.000807182
0.00075444346
0.00070033179
0.00064653556
0.00059218017
0.00053630774
0.00048177196
0.00042644626
0.00037386609
0.00031917733
0.00028461778
0.00020723619
0.00042811045
-0.00021943035
0.0061340775
0.0060326176
0.0058917191
0.0057331746
0.0055711579
0.0054131008
0.0052594653
0.0051098681
0.0049663069
0.0048303172
0.0047011679
0.0045772769
0.0044575535
0.0043414398
0.0042286866
0.0041193154
0.0040134955
0.0039113778
0.0038130051
0.0037182865
0.0036272707
0.0035407496
0.003460043
0.0033859414
0.0033183893
0.0032567758
0.0032003152
0.0031488349
0.0031027422
0.003062101
0.0030263031
0.0029945162
0.002965501
0.0029375836
0.0029099051
0.0028828789
0.002856991
0.0028319902
0.0028074488
0.0027817557
0.0027528664
0.0027219009
0.0026910105
0.0026606921
0.0026301984
0.0025974372
0.0025614384
0.0025243906
0.0024879551
0.0024517528
0.0024134339
0.0023720032
0.0023303964
0.0022909136
0.002251819
0.0022103169
0.0021677244
0.0021267795
0.0020868688
0.0020451234
0.0020017644
0.0019600114
0.0019195856
0.0018771533
0.0018334948
0.0017922486
0.0017512238
0.001706976
0.0016629068
0.0016209076
0.0015771884
0.001531091
0.001487531
0.0014437663
0.0013963179
0.0013509115
0.0013059248
0.0012572943
0.0012101093
0.0011633298
0.0011131005
0.0010644506
0.0010155661
0.00096314468
0.00091233432
0.00086117732
0.00080792816
0.00075525074
0.00070125318
0.00064753416
0.00059318695
0.00053731479
0.00048281986
0.00042748751
0.00037486649
0.00032022412
0.00028537992
0.00021093492
0.00042480862
-0.00020799086
0.0060415827
0.005950249
0.0058257078
0.0056834958
0.0055339163
0.0053845258
0.0052378248
0.0050942379
0.0049553422
0.004822637
0.0046959117
0.0045740038
0.0044559947
0.0043414181
0.0042300782
0.0041219915
0.004017308
0.0039161783
0.0038186729
0.0037247764
0.0036346011
0.0035488344
0.0034686113
0.0033946805
0.0033270496
0.003265215
0.0032085177
0.0031567632
0.0031102485
0.0030690208
0.0030325293
0.0029999576
0.0029701531
0.0029416152
0.0029134968
0.002886064
0.002859728
0.0028342585
0.0028091765
0.0027830561
0.0027541
0.0027231511
0.0026921496
0.0026616164
0.0026308459
0.002597985
0.0025621237
0.0025251471
0.0024886341
0.0024522697
0.0024139558
0.0023727556
0.002331263
0.0022916567
0.0022524493
0.0022110615
0.0021685845
0.0021275603
0.0020875191
0.0020458257
0.002002591
0.0019607636
0.0019201992
0.0018778319
0.0018342645
0.0017928648
0.0017517371
0.0017076156
0.0016635348
0.0016213845
0.001577696
0.0015317157
0.0014879884
0.0014441581
0.0013968656
0.0013513284
0.0013061567
0.0012575611
0.0012103502
0.0011634691
0.0011132859
0.0010648967
0.0010162375
0.00096400021
0.00091336805
0.00086204867
0.00080865612
0.0007561171
0.00070207719
0.00064822297
0.00059393188
0.00053816445
0.00048372712
0.00042839649
0.00037577272
0.00032121404
0.0002860581
0.00021437352
0.00041939583
-0.00019626549
0.0059537847
0.0058711853
0.0057605602
0.0056327369
0.0054949145
0.0053542479
0.0052145396
0.0050769679
0.004942889
0.0048137194
0.0046896462
0.0045699052
0.004453763
0.0043408427
0.0042310049
0.0041242763
0.004020797
0.0039207203
0.0038241437
0.0037311132
0.0036417904
0.0035567823
0.0034770675
0.0034033457
0.0033356793
0.0032736616
0.0032167418
0.0031647175
0.0031177934
0.0030759953
0.0030388228
0.0030054863
0.0029749113
0.0029457486
0.0029171725
0.0028893228
0.0028625333
0.0028365893
0.0028109811
0.0027844384
0.0027553846
0.002724436
0.0026933211
0.0026625738
0.0026315386
0.0025985722
0.0025628283
0.0025259205
0.0024893346
0.002452819
0.0024145063
0.0023735197
0.0023321421
0.0022924247
0.0022531081
0.0022118229
0.0021694585
0.0021283632
0.0020881965
0.0020465472
0.0020034306
0.0019615366
0.0019208386
0.0018785283
0.0018350481
0.0017935022
0.0017522685
0.0017082668
0.0016641848
0.0016218877
0.0015782112
0.0015323355
0.0014884644
0.0014445729
0.0013974271
0.0013517745
0.0013065158
0.0012580372
0.0012107322
0.0011637027
0.0011135546
0.0010651005
0.0010163317
0.00096422016
0.00091385425
0.0008626679
0.00080945481
0.00075706516
0.00070285535
0.00064889566
0.00059471325
0.00053890248
0.00048435911
0.00042908706
0.00037653634
0.0003220696
0.00028659565
0.00021750582
0.00041207094
-0.00018430566
0.005870204
0.0057951869
0.0056964432
0.0055812675
0.0054544277
0.0053223968
0.005189697
0.0050581285
0.0049289709
0.0048035505
0.0046823441
0.0045649473
0.0044508204
0.0043396765
0.0042314333
0.004126139
0.004023933
0.0039249748
0.0038293881
0.003737269
0.0036488168
0.0035645769
0.0034853965
0.0034119231
0.0033442649
0.0032821022
0.0032249771
0.0031726893
0.0031253682
0.0030830156
0.0030451755
0.0030110925
0.0029797643
0.0029499735
0.0029209229
0.0028926448
0.0028653966
0.0028389735
0.002812851
0.002785891
0.0027567114
0.0027257456
0.0026945151
0.0026635557
0.0026322667
0.002599191
0.0025635456
0.0025267037
0.0024900503
0.0024533947
0.0024150802
0.0023742915
0.002333029
0.0022932131
0.0022537916
0.0022125985
0.0021703437
0.0021291856
0.0020888986
0.0020472865
0.0020042823
0.0019623295
0.0019215027
0.0018792405
0.0018358432
0.0017941608
0.0017528213
0.0017089308
0.0016648511
0.0016224097
0.0015787381
0.001532967
0.0014889649
0.0014450034
0.0013979874
0.0013522293
0.001306891
0.0012585363
0.0012111478
0.0011640443
0.0011139929
0.0010654197
0.0010165318
0.00096447273
0.0009140391
0.00086275913
0.00080972895
0.00075758336
0.00070344451
0.00064965838
0.00059556188
0.00053959798
0.00048498579
0.00042977832
0.00037715151
0.00032268852
0.00028694519
0.00022030227
0.00040296652
-0.00017210053
0.0057904239
0.0057220272
0.0056334658
0.0055293961
0.0054127221
0.0052891172
0.0051633893
0.0050377939
0.0049136228
0.0047921266
0.0046739837
0.0045591001
0.0044471315
0.0043378831
0.0042313295
0.0041275483
0.0040266866
0.0039289136
0.0038343779
0.0037432166
0.0036556585
0.0035722002
0.0034935805
0.0034203949
0.0033527881
0.0032905184
0.0032332083
0.0031806661
0.0031329617
0.0030900723
0.0030515805
0.0030167706
0.0029847073
0.0029542882
0.002924749
0.0028960325
0.0028683214
0.0028414164
0.0028147904
0.0027874182
0.0027580879
0.0027270867
0.002695738
0.0026645685
0.0026330357
0.0025998471
0.0025642821
0.0025275021
0.0024907862
0.0024540007
0.0024156819
0.0023750754
0.0023339271
0.0022940247
0.002254503
0.0022133915
0.0021712426
0.0021300295
0.0020896276
0.0020480459
0.0020051478
0.0019631436
0.0019221924
0.0018799698
0.0018366515
0.0017948424
0.0017533968
0.0017096072
0.0016655328
0.0016229525
0.001579281
0.0015336106
0.0014894848
0.0014454485
0.0013985555
0.0013527036
0.0013072837
0.0012590383
0.0012115689
0.0011643966
0.0011144549
0.0010657829
0.0010168432
0.00096486851
0.0009143116
0.00086295524
0.00080994443
0.0007577303
0.0007035677
0.00065000976
0.0005960819
0.00054019195
0.00048570313
0.00043049766
0.00037772744
0.00032332791
0.00028723124
0.00022274136
0.00039219781
-0.00015952488
0.0057140811
0.0056514947
0.0055716937
0.0054773765
0.0053700469
0.0052545639
0.0051357151
0.0050160418
0.0048968893
0.0047794541
0.0046645494
0.0045523381
0.0044426642
0.0043354279
0.0042306603
0.0041284731
0.0040290284
0.0039325081
0.0038390841
0.0037489281
0.0036622911
0.0035796321
0.0035016005
0.0034287424
0.0033612307
0.0032988925
0.0032414208
0.0031886367
0.003140564
0.0030971571
0.0030580318
0.0030225149
0.0029897345
0.0029586889
0.002928649
0.002899484
0.0028713061
0.0028439172
0.0028167968
0.0027890168
0.0027595134
0.0027284578
0.0026969875
0.0026656104
0.0026338425
0.0026005379
0.0025650363
0.0025283132
0.0024915398
0.0024546342
0.002416309
0.0023758699
0.0023348344
0.0022948572
0.0022552404
0.0022142007
0.0021721536
0.0021308932
0.0020903821
0.0020488246
0.0020060266
0.0019639775
0.0019229072
0.0018807161
0.0018374727
0.0017955463
0.0017539945
0.0017102959
0.00166623
0.001623517
0.0015798401
0.0015342647
0.0014900232
0.0014459099
0.001399133
0.0013531954
0.0013076911
0.0012595474
0.0012120058
0.0011647648
0.0011149215
0.0010661524
0.0010171623
0.0009652864
0.00091463936
0.00086326371
0.0008102753
0.00075795368
0.00070377087
0.00065017363
0.00059616784
0.0005403985
0.00048612
0.00043099602
0.00037828007
0.0003240331
0.00028746642
0.00022496709
0.00038036671
-0.00014650311
0.0056408587
0.0055833948
0.005511161
0.0054254144
0.0053266296
0.0052188961
0.0051067793
0.0049929532
0.0048788222
0.0047655489
0.0046540325
0.0045446402
0.0044373902
0.004332279
0.0042293936
0.0041288826
0.0040309284
0.0039357284
0.003843477
0.0037543747
0.0036686899
0.0035868518
0.0035094371
0.0034369465
0.0033695737
0.0033072063
0.0032495986
0.0031965882
0.003148164
0.00310426
0.0030645211
0.003028318
0.002994839
0.0029631705
0.0029326201
0.0029029977
0.0028743499
0.0028464764
0.0028188696
0.0027906863
0.0027609898
0.0027298611
0.0026982653
0.002666683
0.0026346881
0.0026012651
0.0025658108
0.002529139
0.002492313
0.0024552966
0.0024169631
0.0023766773
0.0023357522
0.0022957114
0.0022560048
0.0022150279
0.0021730781
0.0021317776
0.0020911632
0.0020496239
0.0020069196
0.0019648321
0.0019236478
0.0018814808
0.0018383077
0.001796273
0.0017546153
0.0017109979
0.0016669432
0.0016241036
0.0015804157
0.0015349297
0.001490581
0.0014463891
0.0013997199
0.001353704
0.0013081141
0.0012600655
0.0012124585
0.0011651469
0.0011153951
0.001066536
0.0010174943
0.00096570959
0.00091497336
0.00086358764
0.00081063105
0.00075823773
0.00070408306
0.00065041813
0.00059633839
0.00054058041
0.00048623764
0.00043109959
0.00037853771
0.00032448475
0.00028754582
0.0002269957
0.00036824384
-0.0001335368
0.0055704786
0.0055175492
0.0054518781
0.0053736741
0.005282674
0.0051822727
0.0050766922
0.0049686125
0.0048594797
0.0047504358
0.0046424318
0.0045359904
0.004431285
0.0043284069
0.0042274985
0.0041287462
0.0040323564
0.0039385448
0.0038475268
0.0037595276
0.0036748291
0.0035938372
0.0035170699
0.003444987
0.0033777973
0.0033154403
0.003257725
0.0032045067
0.0031557496
0.0031113707
0.0030710399
0.0030341724
0.0030000136
0.0029677281
0.0029366598
0.0029065719
0.0028774517
0.0028490937
0.0028210079
0.002792425
0.002762518
0.0027312974
0.0026995715
0.0026677867
0.0026355718
0.0026020281
0.0025666062
0.0025299794
0.0024931053
0.0024559868
0.0024176436
0.0023774976
0.0023366802
0.0022965863
0.0022567956
0.0022158728
0.0021740157
0.0021326819
0.0020919702
0.0020504439
0.0020078268
0.0019657068
0.0019244141
0.0018822638
0.0018391562
0.0017970219
0.0017552595
0.0017117136
0.0016676724
0.0016247123
0.0015810081
0.0015356059
0.0014911583
0.0014468862
0.0014003162
0.0013542294
0.0013085534
0.0012605929
0.0012129263
0.001165543
0.0011158767
0.0010669343
0.0010178386
0.00096613995
0.00091532046
0.0008639208
0.00081099029
0.00075852732
0.00070441749
0.00065070244
0.00059658686
0.00054085469
0.00048641816
0.0004312485
0.00037861383
0.00032457875
0.00028728694
0.00022860945
0.00035631425
-0.00012141073
0.0055026969
0.005453796
0.0053938393
0.0053222858
0.0052383596
0.0051448481
0.0050455674
0.0049431069
0.0048389248
0.0047341476
0.0046297532
0.0045263783
0.0044243284
0.0043237855
0.0042249461
0.0041280342
0.0040332829
0.0039409274
0.0038512034
0.0037643574
0.0036806824
0.0036005655
0.0035244776
0.003452843
0.0033858806
0.0033235747
0.0032657823
0.0032123776
0.0031633081
0.0031184777
0.0030775787
0.0030400695
0.0030052505
0.0029723556
0.0029407644
0.0029102043
0.0028806098
0.0028517685
0.0028232103
0.0027942315
0.0027640985
0.0027327678
0.0027009066
0.002668922