/*--------------------------------*- C++ -*----------------------------------*\
  =========                 |
  \\      /  F ield         | OpenFOAM: The Open Source CFD Toolbox
   \\    /   O peration     | Website:  https://openfoam.org
    \\  /    A nd           | Version:  12
     \\/     M anipulation  |
\*---------------------------------------------------------------------------*/
FoamFile
{
    format      ascii;
    class       volScalarField;
    location    "600";
    object      yPlus;
}
// * * * * * * * * * * * * * * * * * * * * * * * * * * * * * * * * * * * * * //

dimensions      [];

internalField   uniform 0;

boundaryField
{
    inlet
    {
        type            calculated;
        value           uniform 0;
    }
    top
    {
        type            calculated;
        value           uniform 0;
    }
    outlet
    {
        type            calculated;
        value           uniform 0;
    }
    slipsurface
    {
        type            calculated;
        value           uniform 0;
    }
    bottom
    {
        type            calculated;
        value           nonuniform List<scalar> 
100
(
115.8552
114.57556
113.22186
111.77674
110.34309
108.95809
107.6243
106.34068
105.09788
103.88621
102.68498
101.48506
100.28306
99.079441
97.876619
96.678979
95.494158
94.337941
93.197916
92.092456
91.028531
90.012108
89.049293
88.145387
87.305133
86.532974
85.83039
85.196074
84.627383
84.120638
83.671001
83.273254
82.923299
82.616619
82.34723
82.10853
81.89392
81.69733
81.514913
81.343815
81.180273
81.020396
80.861237
80.700714
80.537814
80.371807
80.201604
80.024867
79.839857
79.646491
79.445505
79.23727
79.022092
78.801281
78.577048
78.351056
78.123806
77.895422
77.666636
77.438296
77.210472
76.983266
76.757539
76.534119
76.312965
76.094129
75.878109
75.664664
75.453063
75.243242
75.035552
74.829746
74.62583
74.424501
74.225558
74.028492
73.833536
73.640428
73.448807
73.259147
73.071506
72.885667
72.701884
72.519846
72.339214
72.160233
71.982935
71.807355
71.633393
71.460855
71.289803
71.120092
70.951801
70.78472
70.619121
70.45273
70.292943
70.118852
69.966934
69.737095
)
;
    }
    frontandback
    {
        type            empty;
    }
}


// ************************************************************************* //
