#      distance             U_x             U_y             U_z wallShearStr... wallShearStr... wallShearStr...               p           omega               k             nut
  5.5511169e-17      0.99945956   3.4841445e-22               0               0               0               0    0.0045628963       82.608717   1.4478258e-05   1.7503879e-07
   0.0021021021      0.99944357   3.4841445e-22               0               0               0               0     0.004578502       81.764539   1.4318681e-05   1.7489774e-07
   0.0042042042      0.99942757   3.4841445e-22               0               0               0               0    0.0045941077       80.920361   1.4159105e-05   1.7475668e-07
   0.0063063063      0.99941157   3.4841445e-22               0               0               0               0    0.0046097134       80.076183   1.3999528e-05   1.7461563e-07
   0.0084084084      0.99939557   3.4841445e-22               0               0               0               0    0.0046253191       79.232006   1.3839952e-05   1.7447458e-07
    0.010510511      0.99937957   3.4841445e-22               0               0               0               0    0.0046409248       78.387828   1.3680375e-05   1.7433352e-07
    0.012612613      0.99936357   3.4841445e-22               0               0               0               0    0.0046565305        77.54365   1.3520799e-05   1.7419247e-07
    0.014714715      0.99934757   3.4841445e-22               0               0               0               0    0.0046721362       76.699473   1.3361222e-05   1.7405141e-07
    0.016816817      0.99933157   3.4841445e-22               0               0               0               0    0.0046877419       75.855295   1.3201646e-05   1.7391036e-07
    0.018918919      0.99931558   3.4841445e-22               0               0               0               0    0.0047033476       75.011117   1.3042069e-05    1.737693e-07
    0.021021021      0.99929958   3.4841445e-22               0               0               0               0    0.0047189533       74.166939   1.2882493e-05   1.7362825e-07
    0.023123123      0.99927296    5.686696e-22               0               0               0               0    0.0047452325       73.498687   1.2757388e-05   1.7349592e-07
    0.025225225        0.999246    5.686696e-22               0               0               0               0    0.0047718607       72.836187   1.2633409e-05   1.7336389e-07
    0.027327327      0.99921903    5.686696e-22               0               0               0               0    0.0047984889       72.173687   1.2509431e-05   1.7323185e-07
    0.029429429      0.99919207    5.686696e-22               0               0               0               0    0.0048251171       71.511187   1.2385453e-05   1.7309981e-07
    0.031531532      0.99916511    5.686696e-22               0               0               0               0    0.0048517453       70.848686   1.2261474e-05   1.7296777e-07
    0.033633634      0.99913814    5.686696e-22               0               0               0               0    0.0048783735       70.186186   1.2137496e-05   1.7283573e-07
    0.035735736      0.99911118    5.686696e-22               0               0               0               0    0.0049050017       69.523686   1.2013518e-05   1.7270369e-07
    0.037837838      0.99908422    5.686696e-22               0               0               0               0    0.0049316299       68.861186    1.188954e-05   1.7257165e-07
     0.03993994      0.99905725    5.686696e-22               0               0               0               0    0.0049582581       68.198686   1.1765561e-05   1.7243961e-07
    0.042042042      0.99903029    5.686696e-22               0               0               0               0    0.0049848863       67.536186   1.1641583e-05   1.7230757e-07
    0.044144144      0.99900333    5.686696e-22               0               0               0               0    0.0050115146       66.873686   1.1517605e-05   1.7217554e-07
    0.046246246      0.99897636    5.686696e-22               0               0               0               0    0.0050381428       66.211186   1.1393626e-05    1.720435e-07
    0.048348348      0.99893552   1.0223077e-21               0               0               0               0    0.0050772066       65.615128   1.1282564e-05   1.7191559e-07
     0.05045045      0.99888786   1.0223077e-21               0               0               0               0    0.0051223761       65.051691   1.1177844e-05   1.7178972e-07
    0.052552553      0.99884019   1.0223077e-21               0               0               0               0    0.0051675456       64.488255   1.1073123e-05   1.7166384e-07
    0.054654655      0.99879253   1.0223077e-21               0               0               0               0    0.0052127151       63.924819   1.0968403e-05   1.7153797e-07
    0.056756757      0.99874487   1.0223077e-21               0               0               0               0    0.0052578846       63.361383   1.0863682e-05   1.7141209e-07
    0.058858859      0.99869721   1.0223077e-21               0               0               0               0    0.0053030541       62.797946   1.0758961e-05   1.7128622e-07
    0.060960961      0.99864955   1.0223077e-21               0               0               0               0    0.0053482235        62.23451   1.0654241e-05   1.7116034e-07
    0.063063063      0.99860188   1.0223077e-21               0               0               0               0     0.005393393       61.671074    1.054952e-05   1.7103447e-07
    0.065165165      0.99855422   1.0223077e-21               0               0               0               0    0.0054385625       61.107638     1.04448e-05   1.7090859e-07
    0.067267267      0.99848091   1.5264869e-21               0               0               0               0      0.00551288        60.59461   1.0349827e-05   1.7078636e-07
    0.069369369      0.99840325   1.5264869e-21               0               0               0               0    0.0055921456       60.090139    1.025651e-05   1.7066475e-07
    0.071471471      0.99832559   1.5264869e-21               0               0               0               0    0.0056714111       59.585669   1.0163192e-05   1.7054314e-07
    0.073573574      0.99824793   1.5264869e-21               0               0               0               0    0.0057506766       59.081198   1.0069874e-05   1.7042153e-07
    0.075675676      0.99817026   1.5264869e-21               0               0               0               0    0.0058299421       58.576727   9.9765565e-06   1.7029992e-07
    0.077777778       0.9980926   1.5264869e-21               0               0               0               0    0.0059092076       58.072257   9.8832389e-06    1.701783e-07
     0.07987988      0.99795976   3.7832991e-21               0               0               0               0    0.0060251216       57.587646   9.7937493e-06   1.7005829e-07
    0.081981982      0.99777899   3.7832991e-21               0               0               0               0    0.0061728795       57.120291   9.7075859e-06   1.6993967e-07
    0.084084084      0.99759821   3.7832991e-21               0               0               0               0    0.0063206374       56.652936   9.6214226e-06   1.6982104e-07
    0.086186186      0.99741743   3.7832991e-21               0               0               0               0    0.0064683954       56.185582   9.5352593e-06   1.6970242e-07
    0.088288288      0.99723624   7.7179004e-21               0               0               0               0    0.0066169817       55.718342   9.4491179e-06    1.695838e-07
     0.09039039      0.99696648   7.7179004e-21               0               0               0               0     0.006945416       55.276085   9.3677335e-06   1.6946674e-07
    0.092492492      0.99669671   7.7179004e-21               0               0               0               0    0.0072738504       54.833829   9.2863492e-06   1.6934967e-07
    0.094594595      0.99642694   7.7179004e-21               0               0               0               0    0.0076022848       54.391572   9.2049649e-06    1.692326e-07
    0.096696697      0.83437404   8.9258564e-20               0  -0.00054359056  -5.7401254e-07               0    0.0079682213       61.565496   9.1591024e-06   3.3090278e-07
    0.098798799      0.62033402   8.9258564e-20               0   -0.0012618576  -1.3324773e-06               0    0.0083462087        71.18679   9.1246544e-06   5.4456138e-07
      0.1009009      0.35480025   8.4047599e-20               0   -0.0021426722  -2.7013339e-06               0    0.0084691782       83.294481   9.1682446e-06   8.0792484e-07
       0.103003     0.020608131   8.4047599e-20               0   -0.0032402171  -4.8840463e-06               0    0.0082521239       98.717368   9.3158856e-06   1.1375614e-06
     0.10510511   1.0765874e-16   1.5564645e-19               0   -0.0032619968  -6.4298718e-06               0    0.0075751941       99.668428   9.6929306e-06   1.1498797e-06
     0.10720721   1.0618958e-16    1.955484e-19               0   -0.0032126935  -7.7190721e-06               0    0.0069431112       99.668428   1.0333536e-05   1.1412323e-06
     0.10930931   1.0618958e-16    1.955484e-19               0    -0.003162817  -8.6892049e-06               0    0.0064225527       99.668428   1.1343294e-05   1.1324184e-06
     0.11141141   1.0462358e-16   2.3096348e-19               0    -0.003113539  -9.6563231e-06               0    0.0061126158       191.92625   0.00045255379   1.1236097e-06
     0.11351351   1.0307244e-16   2.7571397e-19               0   -0.0030649599  -1.0594275e-05               0    0.0058653809        314.5791    0.0010849013   1.1148824e-06
     0.11561562   1.0307244e-16   2.7571397e-19               0     -0.00301884  -1.1408523e-05               0     0.005688402       480.72317    0.0021248976   1.1065038e-06
     0.11771772   1.0157634e-16   3.0350149e-19               0   -0.0029744886  -1.1963265e-05               0    0.0055328554       608.83858    0.0031039619   1.0983913e-06
     0.11981982   1.0157634e-16   3.0350149e-19               0   -0.0029318689   -1.226391e-05               0    0.0053982942       699.71813    0.0040233644   1.0905393e-06
     0.12192192   1.0013784e-16   3.0676234e-19               0   -0.0028918115  -1.2258258e-05               0    0.0052819854       764.60439    0.0047769384   1.0830793e-06
     0.12402402   1.0013784e-16   3.0676234e-19               0   -0.0028525125  -1.2161944e-05               0    0.0051710792       821.79672    0.0054814277   1.0757354e-06
     0.12612613    9.875558e-17   2.9954581e-19               0   -0.0028161132  -1.1910889e-05               0    0.0050757561       857.85052    0.0059753189   1.0688417e-06
     0.12822823   9.7419255e-17   2.8745608e-19               0   -0.0027801149   -1.164556e-05               0    0.0049831449       891.54403    0.0064408025   1.0620103e-06
     0.13033033   9.7419255e-17   2.8745608e-19               0   -0.0027462513  -1.1309026e-05               0    0.0049053505       913.04917    0.0067555014   1.0555106e-06
     0.13243243    9.611832e-17   2.7069874e-19               0   -0.0027128622  -1.0959475e-05               0    0.0048310062       932.26957    0.0070384011   1.0490824e-06
     0.13453453    9.611832e-17   2.7069874e-19               0   -0.0026809392   -1.056969e-05               0     0.004767325       944.42855    0.0072230198   1.0428751e-06
     0.13663664    9.483047e-17   2.5123078e-19               0   -0.0026494361   -1.018137e-05               0    0.0047053434       954.84049    0.0073816544   1.0367273e-06
     0.13873874    9.483047e-17   2.5123078e-19               0   -0.0026189726  -9.7966777e-06               0    0.0046475694       960.92763    0.0074759655   1.0307265e-06
     0.14084084    9.354589e-17   2.3296389e-19               0   -0.0025888463  -9.4225631e-06               0    0.0045897547       965.94315    0.0075537585   1.0247715e-06
     0.14294294    9.354589e-17   2.3296389e-19               0   -0.0025596273  -9.0769206e-06               0    0.0045318302       968.07429    0.0075870913   1.0189401e-06
     0.14504505   9.2260984e-17   2.1594707e-19               0   -0.0025306318  -8.7378646e-06               0    0.0044739007       969.71298     0.007612719   1.0131388e-06
     0.14714715   9.2260984e-17   2.1594707e-19               0   -0.0025025764  -8.4265133e-06               0    0.0044159503       969.28036    0.0076059371   1.0074649e-06
     0.14924925    9.097628e-17   1.9996375e-19               0    -0.002474578  -8.1165733e-06               0    0.0043580681       968.76698    0.0075978933   1.0017988e-06
     0.15135135    9.097628e-17   1.9996375e-19               0   -0.0024476762  -7.8337891e-06               0    0.0043014983       966.69975    0.0075655655   9.9628472e-07
     0.15345345    9.097628e-17   1.9996375e-19               0   -0.0024207744  -7.5510049e-06               0    0.0042449286       964.63252    0.0075332378    9.907706e-07
     0.15555556   8.9694381e-17   1.8486396e-19               0   -0.0023948667  -7.2876634e-06               0    0.0041901171       961.71735    0.0074878814   9.8539973e-07
     0.15765766   8.9694381e-17   1.8486396e-19               0    -0.002369147  -7.0280005e-06               0    0.0041356383       958.64175      0.00744006   9.8005597e-07
     0.15975976   8.8419968e-17   1.7039529e-19               0   -0.0023441363  -6.7757359e-06               0     0.004082691       955.23653    0.0073873681   9.7482009e-07
     0.16186186   8.8419968e-17   1.7039529e-19               0   -0.0023196723  -6.5291777e-06               0    0.0040309252       951.57706    0.0073309195   9.6966741e-07
     0.16396396   8.7161152e-17   1.5577695e-19               0   -0.0022955198  -6.2846508e-06               0    0.0039801829       947.85602    0.0072736454   9.6456576e-07
     0.16606607   8.7161152e-17   1.5577695e-19               0   -0.0022724826  -6.0473988e-06               0    0.0039331066       943.91448    0.0072134146   9.5964685e-07
     0.16816817   8.7161152e-17   1.5577695e-19               0   -0.0022494455  -5.8101468e-06               0    0.0038860303       939.97293    0.0071531839   9.5472794e-07
     0.17027027   8.5934622e-17   1.4128464e-19               0    -0.002227514  -5.5901358e-06               0    0.0038432239       936.01437    0.0070931833   9.4999422e-07
     0.17237237   8.5934622e-17   1.4128464e-19               0   -0.0022058591  -5.3744379e-06               0    0.0038014856       932.05156    0.0070332402   9.4530683e-07
     0.17447447   8.4727121e-17   1.2832759e-19               0   -0.0021846208   -5.165758e-06               0    0.0037602907       928.12531    0.0069740386    9.406914e-07
     0.17657658   8.4727121e-17   1.2832759e-19               0   -0.0021643219  -4.9729033e-06               0    0.0037203209       924.28149     0.006916509   9.3623824e-07
     0.17867868   8.4727121e-17   1.2832759e-19               0    -0.002144023  -4.7800486e-06               0    0.0036803512       920.43766    0.0068589794   9.3178508e-07
     0.18078078   8.3558014e-17   1.1605749e-19               0    -0.002124829  -4.5977723e-06               0    0.0036402528        916.7063     0.006803565   9.2753384e-07
     0.18288288   8.3558014e-17   1.1605749e-19               0   -0.0021060273   -4.419252e-06               0    0.0036001087       913.01488    0.0067489015   9.2335429e-07
     0.18498498   8.2434515e-17   1.0427946e-19               0   -0.0020873612  -4.2419161e-06               0    0.0035601854       909.33943    0.0066945241   9.1920042e-07
     0.18708709   8.2434515e-17   1.0427946e-19               0   -0.0020700701  -4.0765868e-06               0    0.0035225006       905.82596    0.0066430461   9.1530685e-07
     0.18918919   8.2434515e-17   1.0427946e-19               0    -0.002052779  -3.9112574e-06               0    0.0034848158       902.31249    0.0065915681   9.1141328e-07
     0.19129129   8.1362734e-17   9.3015039e-20               0   -0.0020360313  -3.7506214e-06               0    0.0034488434       898.87285    0.0065413534   9.0762605e-07
     0.19339339   8.1362734e-17   9.3015039e-20               0   -0.0020202486  -3.5983204e-06               0     0.003415912       895.56433    0.0064933821   9.0402765e-07
      0.1954955   8.1362734e-17   9.3015039e-20               0   -0.0020044659  -3.4460193e-06               0    0.0033829806        892.2558    0.0064454108   9.0042924e-07
      0.1975976   8.0348903e-17   8.2325115e-20               0   -0.0019895008  -3.3009742e-06               0    0.0033527165        889.0826    0.0063996471   8.9699588e-07
      0.1996997   8.0348903e-17   8.2325115e-20               0   -0.0019752131  -3.1619417e-06               0    0.0033246629       886.02153    0.0063557126   8.9369927e-07
      0.2018018   8.0348903e-17   8.2325115e-20               0   -0.0019609254  -3.0229092e-06               0    0.0032966092       882.96047    0.0063117781   8.9040266e-07
      0.2039039   7.9398372e-17   7.2307348e-20               0    -0.001947587  -2.8920787e-06               0    0.0032717072        880.0791    0.0062706727    8.873033e-07
     0.20600601   7.9398372e-17   7.2307348e-20               0   -0.0019347664  -2.7657226e-06               0    0.0032485248       877.29578    0.0062311107   8.8431156e-07
     0.20810811   7.9398372e-17   7.2307348e-20               0   -0.0019219459  -2.6393665e-06               0    0.0032253423       874.51246    0.0061915487   8.8131981e-07
     0.21021021   7.8515894e-17   6.2882394e-20               0   -0.0019100671  -2.5207371e-06               0    0.0032049154       871.92184    0.0061549376   8.7852917e-07
     0.21231231   7.8515894e-17   6.2882394e-20               0   -0.0018986775   -2.406122e-06               0    0.0031859203       869.43135    0.0061198596     8.75843e-07
     0.21441441   7.8515894e-17   6.2882394e-20               0    -0.001887288  -2.2915069e-06               0    0.0031669251       866.94086    0.0060847816   8.7315682e-07
     0.21651652   7.7705887e-17   5.4067678e-20               0   -0.0018766908  -2.1840208e-06               0    0.0031490795        864.6208     0.006052254   8.7064398e-07
     0.21861862   7.7705887e-17   5.4067678e-20               0   -0.0018666735  -2.0817537e-06               0    0.0031320755       862.42549    0.0060215935   8.6825803e-07
     0.22072072   7.7705887e-17   5.4067678e-20               0   -0.0018566563  -1.9794865e-06               0    0.0031150716       860.23019     0.005990933   8.6587208e-07
     0.22282282   7.6969668e-17   4.6047398e-20               0    -0.001847153  -1.8823097e-06               0      0.00309863       858.14978    0.0059619593   8.6360092e-07
     0.22492492   7.6969668e-17   4.6047398e-20               0   -0.0018384143  -1.7927068e-06               0    0.0030830252       856.24031    0.0059354952   8.6150055e-07
     0.22702703   7.6969668e-17   4.6047398e-20               0   -0.0018296757   -1.703104e-06               0    0.0030674204       854.33085    0.0059090312   8.5940018e-07
     0.22912913   7.6305647e-17   3.8801301e-20               0   -0.0018210875  -1.6150314e-06               0    0.0030521399       852.45582    0.0058830647   8.5733401e-07
     0.23123123   7.6305647e-17   3.8801301e-20               0    -0.001813515   -1.537292e-06               0    0.0030390493       850.81339    0.0058604586    8.554988e-07
     0.23333333   7.6305647e-17   3.8801301e-20               0   -0.0018059425  -1.4595526e-06               0    0.0030259587       849.17096    0.0058378524    8.536636e-07
     0.23543544   7.6305647e-17   3.8801301e-20               0     -0.00179837  -1.3818132e-06               0    0.0030128681       847.52852    0.0058152463    8.518284e-07
     0.23753754   7.5710861e-17   3.2322717e-20               0   -0.0017915898  -1.3128294e-06               0    0.0030017638       846.06902    0.0057952473   8.5017626e-07
     0.23963964   7.5710861e-17   3.2322717e-20               0   -0.0017850661  -1.2466795e-06               0    0.0029913023       844.66872    0.0057760922   8.4858337e-07
     0.24174174   7.5710861e-17   3.2322717e-20               0   -0.0017785424  -1.1805295e-06               0    0.0029808409       843.26843    0.0057569371   8.4699048e-07
     0.24384384   7.5181288e-17   2.6716188e-20               0   -0.0017722772  -1.1175068e-06               0    0.0029709451       841.92766    0.0057386207   8.4545816e-07
     0.24594595   7.5181288e-17   2.6716188e-20               0   -0.0017666824  -1.0625925e-06               0    0.0029625159       840.74124    0.0057224792   8.4408289e-07
     0.24804805   7.5181288e-17   2.6716188e-20               0   -0.0017610876  -1.0076782e-06               0    0.0029540868       839.55481    0.0057063376   8.4270763e-07
     0.25015015   7.5181288e-17   2.6716188e-20               0   -0.0017554928  -9.5276393e-07               0    0.0029456576       838.36839    0.0056901961   8.4133236e-07
     0.25225225   7.4711733e-17   2.1966521e-20               0   -0.0017504612  -9.0466381e-07               0    0.0029385003       837.31029    0.0056758454   8.4009064e-07
     0.25435435   7.4711733e-17   2.1966521e-20               0   -0.0017456775  -8.5956315e-07               0    0.0029319029       836.30869    0.0056622832   8.3890771e-07
     0.25645646   7.4711733e-17   2.1966521e-20               0   -0.0017408939  -8.1446249e-07               0    0.0029253055       835.30708    0.0056487209   8.3772478e-07
     0.25855856   7.4296631e-17   1.7943207e-20               0   -0.0017361104  -7.6936402e-07               0    0.0029187085       834.30552    0.0056351592    8.365419e-07
     0.26066066   7.4296631e-17   1.7943207e-20               0   -0.0017320348  -7.3228782e-07               0    0.0029137825       833.46212    0.0056237865   8.3552867e-07
     0.26276276   7.4296631e-17   1.7943207e-20               0   -0.0017279592  -6.9521162e-07               0    0.0029088565       832.61872    0.0056124139   8.3451545e-07
     0.26486486   7.4296631e-17   1.7943207e-20               0   -0.0017238835  -6.5813542e-07               0    0.0029039305       831.77532    0.0056010412   8.3350223e-07
     0.26696697   7.3931611e-17   1.4524686e-20               0   -0.0017199269  -6.2239484e-07               0    0.0028990833       830.95809    0.0055900281   8.3251782e-07
     0.26906907   7.3931611e-17   1.4524686e-20               0    -0.001716469  -5.9224984e-07               0    0.0028945663        830.2505    0.0055805211   8.3165411e-07
     0.27117117   7.3931611e-17   1.4524686e-20               0    -0.001713011  -5.6210484e-07               0    0.0028900494        829.5429    0.0055710141   8.3079039e-07
     0.27327327   7.3931611e-17   1.4524686e-20               0   -0.0017095531  -5.3195984e-07               0    0.0028855324        828.8353     0.005561507   8.2992668e-07
     0.27537538   7.3611884e-17   1.1702117e-20               0   -0.0017062361  -5.0344957e-07               0    0.0028808256       828.15845    0.0055524199   8.2909735e-07
     0.27747748   7.3611884e-17   1.1702117e-20               0   -0.0017033037  -4.7940107e-07               0    0.0028756005       827.56555    0.0055444789   8.2836188e-07
     0.27957958   7.3611884e-17   1.1702117e-20               0   -0.0017003714  -4.5535257e-07               0    0.0028703755       826.97265    0.0055365379    8.276264e-07
     0.28168168   7.3611884e-17   1.1702117e-20               0   -0.0016974391  -4.3130407e-07               0    0.0028651504       826.37974    0.0055285969   8.2689093e-07
     0.28378378   7.3331156e-17   9.3824031e-21               0   -0.0016946029  -4.0844704e-07               0    0.0028598695       825.80742    0.0055209357   8.2617907e-07
     0.28588589   7.3331156e-17   9.3824031e-21               0    -0.001692102  -3.8974104e-07               0    0.0028543939       825.30679    0.0055142489   8.2554947e-07
     0.28798799   7.3331156e-17   9.3824031e-21               0    -0.001689601  -3.7103503e-07               0    0.0028489184       824.80617    0.0055075622   8.2491988e-07
     0.29009009   7.3331156e-17   9.3824031e-21               0      -0.0016871  -3.5232902e-07               0    0.0028434428       824.30554    0.0055008754   8.2429029e-07
     0.29219219   7.3082502e-17   7.5672724e-21               0   -0.0016846174  -3.3389405e-07               0    0.0028379896       823.80865    0.0054942393   8.2366522e-07
     0.29429429   7.3082502e-17   7.5672724e-21               0   -0.0016824589  -3.2024327e-07               0    0.0028329303       823.37765    0.0054884965   8.2312006e-07
      0.2963964   7.3082502e-17   7.5672724e-21               0   -0.0016803003  -3.0659249e-07               0     0.002827871       822.94666    0.0054827537    8.225749e-07
      0.2984985   7.3082502e-17   7.5672724e-21               0   -0.0016781418   -2.929417e-07               0    0.0028228118       822.51567    0.0054770109   8.2202974e-07
      0.3006006   7.3082502e-17   7.5672724e-21               0   -0.0016759833  -2.7929092e-07               0    0.0028177525       822.08468    0.0054712682   8.2148458e-07
      0.3027027   7.2859017e-17   6.2908833e-21               0   -0.0016740243  -2.6896756e-07               0    0.0028130965       821.69122    0.0054660339   8.2098874e-07
      0.3048048   7.2859017e-17   6.2908833e-21               0   -0.0016721297  -2.5971743e-07               0    0.0028085706       821.30987    0.0054609636   8.2050881e-07
     0.30690691   7.2859017e-17   6.2908833e-21               0    -0.001670235   -2.504673e-07               0    0.0028040447       820.92852    0.0054558933   8.2002888e-07
     0.30900901   7.2859017e-17   6.2908833e-21               0   -0.0016683403  -2.4121717e-07               0    0.0027995187       820.54717     0.005450823   8.1954895e-07
     0.31111111   7.2654359e-17   5.4573553e-21               0   -0.0016665124  -2.3292266e-07               0    0.0027952189       820.17711    0.0054459059   8.1908556e-07
     0.31321321   7.2654359e-17   5.4573553e-21               0   -0.0016648222  -2.2659855e-07               0    0.0027913852       819.83035    0.0054413047   8.1865626e-07
     0.31531532   7.2654359e-17   5.4573553e-21               0    -0.001663132  -2.2027443e-07               0    0.0027875515       819.48359    0.0054367035   8.1822697e-07
     0.31741742   7.2654359e-17   5.4573553e-21               0   -0.0016614418  -2.1395031e-07               0    0.0027837177       819.13682    0.0054321024   8.1779767e-07
     0.31951952   7.2654359e-17   5.4573553e-21               0   -0.0016597515  -2.0762619e-07               0     0.002779884       818.79006    0.0054275012   8.1736838e-07
     0.32162162    7.246451e-17    4.847606e-21               0   -0.0016581862  -2.0279442e-07               0    0.0027760651       818.46165    0.0054231498   8.1697006e-07
     0.32372372    7.246451e-17    4.847606e-21               0   -0.0016566601  -1.9843139e-07               0    0.0027722508       818.13901    0.0054188768   8.1658148e-07
     0.32582583    7.246451e-17    4.847606e-21               0    -0.001655134  -1.9406835e-07               0    0.0027684365       817.81637    0.0054146039   8.1619289e-07
     0.32792793    7.246451e-17    4.847606e-21               0   -0.0016536078  -1.8970531e-07               0    0.0027646222       817.49373    0.0054103309   8.1580431e-07
     0.33003003    7.228649e-17   4.4662791e-21               0   -0.0016520887  -1.8545179e-07               0    0.0027607391       817.17199    0.0054060703   8.1541746e-07
     0.33213213    7.228649e-17   4.4662791e-21               0   -0.0016506901  -1.8307595e-07               0    0.0027556759       816.86565    0.0054020208    8.150605e-07
     0.33423423    7.228649e-17   4.4662791e-21               0   -0.0016492915  -1.8070011e-07               0    0.0027506127       816.55932    0.0053979712   8.1470354e-07
     0.33633634    7.228649e-17   4.4662791e-21               0   -0.0016478929  -1.7832426e-07               0    0.0027455495       816.25298    0.0053939217   8.1434658e-07
     0.33843844    7.228649e-17   4.4662791e-21               0   -0.0016464943  -1.7594842e-07               0    0.0027404863       815.94665    0.0053898721   8.1398962e-07
     0.34054054   7.2116376e-17   4.3621589e-21               0   -0.0016451141  -1.7392361e-07               0    0.0027352248       815.64231    0.0053858504    8.136372e-07
     0.34264264   7.2116376e-17   4.3621589e-21               0   -0.0016438053  -1.7326299e-07               0    0.0027291927       815.34571    0.0053819368   8.1330242e-07
     0.34474474   7.2116376e-17   4.3621589e-21               0   -0.0016424965  -1.7260238e-07               0    0.0027231606       815.04912    0.0053780232   8.1296763e-07
     0.34684685   7.2116376e-17   4.3621589e-21               0   -0.0016411878  -1.7194176e-07               0    0.0027171285       814.75252    0.0053741095   8.1263285e-07
     0.34894895   7.2116376e-17   4.3621589e-21               0    -0.001639879  -1.7128114e-07               0    0.0027110964       814.45592    0.0053701959   8.1229806e-07
     0.35105105   7.1950117e-17   4.4460475e-21               0   -0.0016385823  -1.7085283e-07               0     0.002705099       814.16027    0.0053662962   8.1196622e-07
     0.35315315   7.1950117e-17   4.4460475e-21               0   -0.0016373322  -1.7132443e-07               0     0.002699236       813.86828    0.0053624503   8.1164574e-07