#      distance             U_x             U_y             U_z wallShearStr... wallShearStr... wallShearStr...               p           omega               k             nut
    0.034013023      0.99914665   5.1136216e-06               0               0               0               0     0.004867072       69.038364   1.1919977e-05   1.7265713e-07
    0.056204344      0.99878828   9.1928507e-06               0               0               0               0    0.0052267804       62.950817   1.0786214e-05   1.7134344e-07
    0.072112662      0.99830629   1.3726559e-05               0               0               0               0    0.0056635217       59.102562   1.0073297e-05   1.7043753e-07
    0.083516877      0.99780643   3.4020387e-05               0               0               0               0    0.0062287267       56.573809   9.6065841e-06    1.698062e-07
     0.09169223      0.99666849   6.9401322e-05               0               0               0               0    0.0070025462       54.867514   9.2925059e-06   1.6936261e-07
    0.097552904      0.99564149   0.00080263569               0  -1.3873665e-06  -1.4650103e-09               0    0.0083616059       53.720307   9.0779939e-06   1.6945866e-07
     0.10156632      0.98101199   0.00075577737               0  -4.1316577e-06  -5.6285674e-09               0    0.0087617973        99.64936   9.1321947e-06   8.2130851e-08
     0.10474707      0.96809473    0.0013996125               0  -5.4262461e-06  -1.0243639e-08               0    0.0077150481       99.668428   9.5181025e-06    4.480198e-08
     0.10802554      0.95488368    0.0017584209               0  -5.2983992e-06  -1.3434395e-08               0    0.0065902473       99.668428   1.0337316e-05   3.2893249e-08
     0.11140473      0.94080182    0.0020768823               0  -5.1663543e-06  -1.6017021e-08               0    0.0060668502       99.820912   1.3442201e-05   3.0182854e-08
     0.11488774      0.92685362    0.0024792901               0  -5.0354642e-06  -1.8461623e-08               0    0.0057303005       467.19506    0.0017676001   3.1760722e-06
     0.11847776      0.91340024    0.0027291625               0  -4.9098095e-06  -2.0030239e-08               0    0.0054714423       658.54417     0.003511108   5.3245545e-06
     0.12217807      0.90046489    0.0027584849               0  -4.7902514e-06  -2.0319867e-08               0    0.0052637095       782.35874    0.0049553136   6.3251503e-06
     0.12599207      0.88803528    0.0026935921               0  -4.6764426e-06  -1.9789794e-08               0    0.0050750709       862.95636    0.0060288262   6.9764932e-06
     0.12992323       0.8760187    0.0025848781               0  -4.5675597e-06  -1.8872479e-08               0    0.0049134696       913.96636    0.0067626066   7.3887171e-06
     0.13397518      0.86432037    0.0024341919               0  -4.4624045e-06  -1.7709702e-08               0    0.0047796966       944.61392    0.0072237368   7.6363762e-06
     0.13815161      0.85273969     0.002259131               0  -4.3596108e-06  -1.6433278e-08               0    0.0046642434       961.55461    0.0074851582   7.4787683e-06
     0.14245635      0.84118842    0.0020948705               0  -4.2582475e-06  -1.5193505e-08               0    0.0045466443       969.17061    0.0076041999   7.2090658e-06
     0.14689334      0.82963422     0.001941851               0  -4.1579847e-06  -1.4043947e-08               0    0.0044234158       970.41711    0.0076237737   6.8882717e-06
     0.15146665      0.81808183    0.0017981248               0  -4.0588236e-06  -1.2972368e-08               0    0.0042983091       967.31808    0.0075751598   6.5482981e-06
     0.15618046      0.80655467    0.0016623437               0  -3.9609622e-06  -1.1963874e-08               0    0.0041735485       961.28716    0.0074809982   6.2095585e-06
     0.16103908      0.79509483    0.0015322377               0   -3.864771e-06  -1.0993569e-08               0    0.0040502845       953.31649    0.0073574544   5.8849507e-06
     0.16604698      0.78377523    0.0014007859               0  -3.7709314e-06  -1.0037634e-08               0    0.0039306376       944.11537    0.0072161177   5.5828585e-06
     0.17120873      0.77274596    0.0012704674               0    -3.67993e-06  -9.1155747e-09               0    0.0038225906       934.25274    0.0070661418   5.3127615e-06
     0.17652907      0.76188781    0.0011539543               0  -3.5918814e-06  -8.2584507e-09               0    0.0037225512       924.35971    0.0069172858   5.0693886e-06
     0.18201286       0.7513749    0.0010436184               0  -3.5073074e-06  -7.4551764e-09               0    0.0036172021       914.50134    0.0067705273   4.8579652e-06
     0.18766512      0.74127211   0.00093770744               0  -3.4268451e-06  -6.6885864e-09               0    0.0035099393       904.80864    0.0066277691   4.6740607e-06
     0.19349103      0.73163439   0.00083641487               0  -3.3508523e-06  -5.9587242e-09               0    0.0034114831       895.32111    0.0064895057   4.5150151e-06
     0.19949593      0.72251776   0.00074028836               0  -3.2796422e-06  -5.2687685e-09               0    0.0033246418       886.19234    0.0063578459   4.3801545e-06
     0.20568532      0.71397035   0.00065020605               0  -3.2134789e-06    -4.62097e-09               0    0.0032487817       877.56805    0.0062347016   4.2689679e-06
     0.21206485      0.70603487   0.00056545447               0  -3.1525783e-06  -4.0147108e-09               0    0.0031860594       869.55412    0.0061213514   4.1806307e-06
     0.21864039      0.69875109    0.0004861903               0  -3.0970793e-06   -3.452363e-09               0    0.0031317377       862.22294    0.0060185687   4.1145173e-06
     0.22541793      0.69213082   0.00041406991               0  -3.0469622e-06  -2.9396549e-09               0    0.0030780693       855.61222    0.0059266329   4.0695447e-06
     0.23240371      0.68615978   0.00034891116               0  -3.0020408e-06  -2.4787852e-09               0    0.0030295935       849.72373    0.0058453371    4.044226e-06
      0.2396041      0.68081131   0.00029065408               0  -2.9620285e-06   -2.070391e-09               0    0.0029897474       844.53067    0.0057741083    4.036857e-06
      0.2470257      0.67604925   0.00024023875               0  -2.9265743e-06  -1.7162894e-09               0    0.0029568401        839.9856    0.0057121258   4.0455602e-06
     0.25467531       0.6718269   0.00019752854               0  -2.8952787e-06  -1.4147921e-09               0    0.0029293273       836.02639    0.0056584056   4.0682915e-06
     0.26255994      0.66809419   0.00016134988               0  -2.8677441e-06  -1.1594555e-09               0    0.0029080971       832.58551    0.0056119245   4.1029525e-06
      0.2706868      0.66481184   0.00013060967               0  -2.8436112e-06  -9.4418952e-10               0    0.0028918111       829.60374    0.0055718005   4.1474936e-06
     0.27906334      0.66193678   0.00010522841               0  -2.8225119e-06  -7.6533645e-10               0    0.0028726394       827.03144    0.0055373023   4.2021119e-06
     0.28769723      0.65941239   8.4368953e-05               0  -2.8040203e-06  -6.1992762e-10               0    0.0028495405       824.80694     0.005507555   4.2654598e-06
     0.29659637      0.65717644   6.8046837e-05               0  -2.7876737e-06   -5.065545e-10               0     0.002826982       822.85676     0.005481542      4.3355e-06
     0.30576892       0.6551668   5.6569221e-05               0  -2.7730154e-06  -4.2389315e-10               0    0.0028060567        821.1025     0.005458195   4.4098994e-06
     0.31522326      0.65332647   4.9073926e-05               0  -2.7596508e-06  -3.6594671e-10               0    0.0027868873       819.47831    0.0054366235   4.4863485e-06
     0.32496807      0.65161929   4.3590905e-05               0  -2.7472907e-06  -3.2495912e-10               0    0.0027710477       817.93609    0.0054161801   4.5634592e-06
     0.33501226      0.65001849   4.0161917e-05               0  -2.7357045e-06  -2.9836504e-10               0    0.0027509831       816.44168    0.0053964072   4.6402212e-06
     0.34536503      0.64848879   3.9225641e-05               0  -2.7246481e-06  -2.8606459e-10               0    0.0027219309       814.96434    0.0053768956   4.7155213e-06
     0.35603587      0.64699374    3.997999e-05               0  -2.7138758e-06  -2.8534067e-10               0     0.002690673       813.47602    0.0053572747   4.7882503e-06
     0.36703454       0.6455058   4.1938065e-05               0  -2.7031875e-06  -2.9244852e-10               0    0.0026615082       811.95498    0.0053372594   4.8575338e-06
     0.37837111      0.64400552   4.4575706e-05               0  -2.6924472e-06  -3.0397257e-10               0    0.0026343344       810.38487    0.0053166376   4.9226594e-06
     0.39005597      0.64248343   4.7319292e-05               0  -2.6815749e-06  -3.1748198e-10               0    0.0026075253       808.75742    0.0052953049   4.9830636e-06
     0.40209982      0.64093273   5.0307426e-05               0  -2.6705125e-06  -3.3323373e-10               0    0.0025759605       807.06935    0.0052732225   5.0384222e-06
     0.41451368      0.63934332   5.4060741e-05               0  -2.6591742e-06  -3.5275364e-10               0    0.0025390074       805.31728    0.0052503516   5.0882215e-06
     0.42730893      0.63769335    5.844029e-05               0  -2.6474379e-06   -3.753023e-10               0    0.0025016359       803.49037    0.0052265567   5.1340515e-06
     0.44049728      0.63596668   6.2711684e-05               0  -2.6352088e-06  -3.9763305e-10               0    0.0024662655       801.57803    0.0052017068   5.1755334e-06
      0.4540908      0.63416261   6.6344806e-05               0  -2.6224713e-06  -4.1714118e-10               0    0.0024322791        799.5809    0.0051758182   5.2119319e-06
     0.46810195      0.63228807   6.9450387e-05               0  -2.6092584e-06  -4.3347607e-10               0    0.0023938768       797.50832    0.0051490198   5.2428096e-06
     0.48254356      0.63034661    7.213722e-05               0  -2.5956031e-06  -4.4680692e-10               0    0.0023501365       795.36932    0.0051214351   5.2680744e-06
     0.49742885      0.62834116   7.4184515e-05               0  -2.5815466e-06  -4.5607172e-10               0    0.0023067709       793.17128    0.0050931665   5.2880463e-06
     0.51277145      0.62628397   7.5193005e-05               0  -2.5671759e-06  -4.5978089e-10               0    0.0022681133       790.92662    0.0050643787   5.3034799e-06
     0.52858541      0.62419571   7.5161034e-05               0  -2.5526143e-06  -4.5807668e-10               0     0.002230757       788.65468    0.0050353241   5.3151936e-06
     0.54488522      0.62209188   7.4562376e-05               0  -2.5379616e-06  -4.5276709e-10               0    0.0021890992        786.3714    0.0050062086   5.3240214e-06
     0.56168579      0.61997716   7.3638227e-05               0  -2.5232639e-06  -4.4537336e-10               0    0.0021453326       784.08209     0.004977101   5.3309029e-06
     0.57900252      0.61785273   7.2432253e-05               0  -2.5085458e-06  -4.3629032e-10               0    0.0021039037       781.78762    0.0049480127   5.3363523e-06
     0.59685126       0.6157254    7.088227e-05               0   -2.493847e-06  -4.2568538e-10               0    0.0020650289        779.4926    0.0049190028   5.3406489e-06
     0.61524836      0.61360306   6.9196539e-05               0  -2.4792077e-06  -4.1437387e-10               0    0.0020239893        777.2044    0.0048901638   5.3438746e-06
     0.63421066      0.61148636    6.758817e-05               0  -2.4646452e-06   -4.029262e-10               0    0.0019796533       774.92644    0.0048615378   5.3459638e-06
     0.65375553      0.60937624   6.5813194e-05               0  -2.4501772e-06  -3.9080841e-10               0    0.0019372734       772.66078      0.00483315   5.3469904e-06
     0.67390086      0.60728069   6.3767571e-05               0  -2.4358453e-06  -3.7764963e-10               0    0.0018971787       770.41335    0.0048050727   5.3472104e-06
     0.69466511      0.60520738   6.1640161e-05               0   -2.421688e-06  -3.6411751e-10               0    0.0018554652       768.19028      0.00477738     5.34682e-06
     0.71606728      0.60315591   5.9619863e-05               0  -2.4077164e-06  -3.5073197e-10               0    0.0018116566       765.99212    0.0047500764   5.3458679e-06
     0.73812698       0.6011267   5.7496564e-05               0  -2.3939383e-06  -3.3726154e-10               0    0.0017703039       763.81855    0.0047231552   5.3444639e-06
     0.76086441      0.59912438   5.5328243e-05               0  -2.3803648e-06   -3.239909e-10               0    0.0017296471       761.67007    0.0046966199   5.3429126e-06
     0.78430038      0.59714667   5.3409699e-05               0  -2.3669835e-06  -3.1170987e-10               0    0.0016857912       759.54368    0.0046704311   5.3412353e-06
     0.80845637      0.59518676   5.1660875e-05               0  -2.3537655e-06  -3.0034396e-10               0    0.0016417537       757.43399    0.0046445205   5.3392822e-06
     0.83335448      0.59324405   4.9901828e-05               0  -2.3407016e-06  -2.8933052e-10               0    0.0015994783       755.34045    0.0046188797   5.3370029e-06
     0.85901753      0.59132178   4.8181048e-05               0   -2.327797e-06  -2.7870951e-10               0    0.0015559469       753.26646    0.0045935483   5.3343643e-06
       0.885469      0.58941761   4.6621058e-05               0  -2.3150486e-06    -2.68531e-10               0    0.0015099495       751.21177    0.0045685216   5.3312641e-06
     0.91273313      0.58753159   4.4969314e-05               0  -2.3024623e-06  -2.5832185e-10               0    0.0014663995       749.17662    0.0045438006   5.3277839e-06
     0.94083488      0.58567013   4.3264156e-05               0  -2.2900555e-06    -2.48202e-10               0    0.0014228771         747.166    0.0045194433   5.3240455e-06
     0.96979998      0.58383136   4.1767832e-05               0  -2.2778237e-06  -2.3869277e-10               0    0.0013756468       745.17802    0.0044954251   5.3200302e-06
     0.99965496      0.58201051   4.0296087e-05               0  -2.2657507e-06  -2.2962009e-10               0    0.0013301663       743.20736    0.0044716795   5.3157894e-06
      1.0304272      0.58020976   3.8825275e-05               0  -2.2538308e-06  -2.2092123e-10               0    0.0012853833       741.25444    0.0044482098   5.3114015e-06
      1.0621447      0.57842663   3.7548183e-05               0  -2.2420531e-06   -2.128151e-10               0     0.001236866       739.31815    0.0044250013   5.3067391e-06
      1.0948368      0.57665778   3.6273961e-05               0  -2.2304088e-06  -2.0496243e-10               0    0.0011893971       737.39673    0.0044020311   5.3017525e-06
      1.1285332      0.57490757   3.4944545e-05               0  -2.2189069e-06   -1.971828e-10               0    0.0011427798       735.49386    0.0043793419   5.2965442e-06
      1.1632648      0.57317651   3.3737994e-05               0  -2.2075522e-06  -1.8970722e-10               0     0.001092975       733.61096    0.0043569486   5.2910791e-06
      1.1990635      0.57146259   3.2530031e-05               0  -2.1963419e-06  -1.8245476e-10               0    0.0010442799       731.74591    0.0043348243    5.285396e-06
       1.235962      0.56976813   3.1326581e-05               0  -2.1852749e-06  -1.7547208e-10               0   0.00099588184       729.89903    0.0043129713   5.2796021e-06
      1.2739941      0.56809025   3.0275155e-05               0  -2.1743397e-06    -1.68965e-10               0   0.00094415667       728.06787    0.0042913587   5.2736222e-06
      1.3131947      0.56642581    2.923301e-05               0  -2.1635244e-06  -1.6273845e-10               0   0.00089337689       726.25016    0.0042699587   5.2674227e-06
      1.3535996      0.56477707   2.8195446e-05               0  -2.1528311e-06  -1.5665039e-10               0   0.00084252498       724.44802    0.0042487948   5.2610526e-06
      1.3952458      0.56314434   2.7214049e-05               0  -2.1422643e-06  -1.5075544e-10               0   0.00078981554       722.66254    0.0042278784   5.2544989e-06
      1.4381715      0.56152791   2.6233161e-05               0  -2.1318233e-06  -1.4507469e-10               0    0.0007374964       720.89383    0.0042072091   5.2477961e-06
       1.482416      0.55992687   2.5325839e-05               0  -2.1215022e-06  -1.3966457e-10               0   0.00068388941       719.14028    0.0041867669   5.2409567e-06
      1.5280198      0.55833943   2.4445553e-05               0  -2.1112942e-06   -1.344942e-10               0   0.00063043775       717.39998    0.0041665283   5.2339829e-06
      1.5750246      0.55676617   2.3591111e-05               0  -2.1011953e-06  -1.2953575e-10               0   0.00057651375       715.67355    0.0041464993   5.2268805e-06
      1.6234735      0.55520576   2.2793431e-05               0  -2.0912029e-06  -1.2478921e-10               0   0.00052116624       713.96051    0.0041266731   5.2196204e-06
      1.6734109      0.55365889   2.1993674e-05               0  -2.0813136e-06  -1.2022327e-10               0   0.00046713388       712.26166    0.0041070581   5.2122252e-06
      1.7248825      0.55212367   2.1255945e-05               0  -2.0715259e-06  -1.1591646e-10               0   0.00041234957       710.57475    0.0040876269   5.2047223e-06
      1.7779355      0.55060256   2.0565878e-05               0  -2.0618109e-06  -1.1190706e-10               0   0.00036031345       708.90154    0.0040683992   5.1970307e-06
      1.8326183       0.5490747   1.9937859e-05               0   -2.052214e-06  -1.0788626e-10               0   0.00030588196       707.22347    0.0040491604   5.1893025e-06
      1.8889812      0.54760817   1.9078855e-05               0  -2.0426124e-06  -1.4288795e-10               0   0.00027327851       705.60002    0.0040305943    5.181457e-06
      1.9470756      0.54601009   5.0011655e-05               0  -2.0330341e-06  -2.7289558e-10               0   0.00016227993       703.86177     0.004010758   5.1729015e-06
      2.0069548      0.54461652   9.4048601e-05               0  -2.0227893e-06  -4.1458804e-10               0   0.00035907202       702.32776    0.0039932916   5.1610353e-06
