#      distance             U_x             U_y             U_z wallShearStr... wallShearStr... wallShearStr...               p           omega               k             nut
    0.001215373      0.62966118   9.9020494e-05               0               0               0               0   0.00015920531       356.91802    0.0041861471   1.5160233e-05
   0.0020572852      0.68699711   0.00011973365               0               0               0               0   0.00016330723       180.47894    0.0041284563   2.5066852e-05
   0.0029273097      0.72303684   0.00014432313               0               0               0               0   0.00016854505       119.73083    0.0039714025   3.4680985e-05
   0.0038263852      0.75019333   0.00017337624               0               0               0               0   0.00017448455       89.971487    0.0038431061   4.3783375e-05
   0.0047554818      0.77243452   0.00020672052               0               0               0               0   0.00018082779       72.469444    0.0037249242   5.2171751e-05
   0.0057156019      0.79159589   0.00024422816               0               0               0               0   0.00018735904       61.054615    0.0036077242   5.9648239e-05
   0.0067077814      0.80869485   0.00028586643               0               0               0               0   0.00019390188       53.114636    0.0034871946   6.6051028e-05
   0.0077330908      0.82435965   0.00033167938               0               0               0               0   0.00020029411       47.357794    0.0033608743   7.1239845e-05
   0.0087926364      0.83901898   0.00038187844               0               0               0               0   0.00020637946       43.072113    0.0032268982   7.5007048e-05
   0.0098875613      0.85301702    0.0004369156               0               0               0               0   0.00021199573       39.821064    0.0030828366   7.6909827e-05
    0.011019047      0.86666117   0.00049749947               0               0               0               0   0.00021694754       37.303577    0.0029251155   7.6702701e-05
    0.012188314      0.88020095   0.00056470941               0               0               0               0   0.00022102628       35.292882     0.002749156   7.4569632e-05
    0.013396624      0.89381877   0.00064001119               0               0               0               0   0.00022408084       33.604478    0.0025496363   7.0738624e-05
    0.014645281      0.90764108   0.00072494544               0               0               0               0   0.00022605533       32.077874    0.0023212217   6.5469647e-05
    0.015935632      0.92171258    0.0008204992               0               0               0               0   0.00022697366        30.57389    0.0020602291   5.9222816e-05
    0.017269069      0.93591501   0.00092619697               0               0               0               0   0.00022689995       28.986325    0.0017678312   5.2726323e-05
    0.018647031      0.94987148    0.0010389944               0               0               0               0   0.00022591141       27.282227    0.0014549634   4.6781822e-05
    0.020071004      0.96302202    0.0011538691               0               0               0               0   0.00022414621       25.486845    0.0011401081   4.1379189e-05
    0.021542526      0.97503579    0.0012669293               0               0               0               0   0.00022183636       23.532146   0.00083490349   3.4512884e-05
    0.023063183      0.98587093    0.0013756538               0               0               0               0   0.00021918569       21.086394   0.00054503171   2.5311801e-05
    0.024634616      0.99493429    0.0014702078               0               0               0               0   0.00021627142       17.524176   0.00029264406   1.5826302e-05
    0.026258521       1.0008282    0.0015306963               0               0               0               0   0.00021318695       12.689945   0.00011661813   8.1268997e-06
     0.02793665       1.0032288    0.0015525248               0               0               0               0   0.00021017179       8.3019991   3.1253306e-05   3.1487118e-06
    0.029670814       1.0037139    0.0015544554               0               0               0               0    0.0002073604       6.2086323   5.6792577e-06   8.3597836e-07
    0.031462883       1.0037482    0.0015512249               0               0               0               0   0.00020464826       5.7843228   1.2886552e-06   2.2139088e-07
    0.033314791       1.0037459    0.0015474095               0               0               0               0   0.00020189546       5.7421143   8.3847617e-07   1.4601166e-07
    0.035228536       1.0037442    0.0015421828               0               0               0               0   0.00019899549       5.7389275   8.0335655e-07   1.3997928e-07
    0.037206184       1.0037431    0.0015390289               0               0               0               0   0.00019595032       5.7387049   8.0084819e-07   1.3954735e-07
    0.039249867       1.0037413    0.0015413959               0               0               0               0   0.00019290076       5.7386863   8.0067757e-07   1.3951804e-07
     0.04136179       1.0037386    0.0015429908               0               0               0               0   0.00018991062       5.7386804   8.0066567e-07   1.3951611e-07
    0.043544233       1.0037357    0.0015416991               0               0               0               0   0.00018692537       5.7386746   8.0066394e-07   1.3951595e-07
     0.04579955       1.0037327    0.0015398035               0               0               0               0   0.00018389192       5.7386679   8.0066271e-07    1.395159e-07
    0.048130175       1.0037301    0.0015377333               0               0               0               0   0.00018077729       5.7386602   8.0066139e-07   1.3951585e-07
    0.050538621       1.0037322     0.001536767               0               0               0               0   0.00017758757       5.7386525   8.0066018e-07   1.3951583e-07
    0.053027488       1.0037434    0.0015423051               0               0               0               0    0.0001744239       5.7386439   8.0065893e-07   1.3951582e-07
    0.055599461       1.0037562    0.0015544347               0               0               0               0   0.00017147496       5.7386323     8.00657e-07   1.3951577e-07
    0.058257315       1.0037644    0.0015646554               0               0               0               0    0.0001688251       5.7386187   8.0065461e-07   1.3951568e-07
    0.061003917       1.0037698    0.0015708879               0               0               0               0   0.00016640808       5.7386043   8.0065221e-07   1.3951562e-07
    0.063842231       1.0037741    0.0015753527               0               0               0               0   0.00016417109       5.7385886   8.0064967e-07   1.3951555e-07
     0.06677532       1.0037776    0.0015776848               0               0               0               0   0.00016209194       5.7385714   8.0064692e-07   1.3951549e-07
    0.069806347       1.0037808    0.0015777319               0               0               0               0    0.0001601664       5.7385525   8.0064394e-07   1.3951543e-07
    0.072938584       1.0037836    0.0015750763               0               0               0               0   0.00015839732       5.7385317   8.0064066e-07   1.3951537e-07
    0.076175409        1.003784    0.0015700265               0               0               0               0    0.0001567396        5.738509    8.006371e-07    1.395153e-07
    0.079520315        1.003781    0.0015627118               0               0               0               0   0.00015512472       5.7384842   8.0063324e-07   1.3951523e-07
    0.082976911       1.0037762    0.0015548627               0               0               0               0   0.00015352203       5.7384573   8.0062904e-07   1.3951515e-07
    0.086548926       1.0037706    0.0015474306               0               0               0               0   0.00015193786        5.738428   8.0062449e-07   1.3951507e-07
    0.090240215       1.0037645    0.0015403613               0               0               0               0   0.00015037516       5.7383967   8.0061958e-07   1.3951498e-07
     0.09405476       1.0037589    0.0015334927               0               0               0               0     0.000148827       5.7383697   8.0061525e-07   1.3951488e-07
