/*--------------------------------*- C++ -*----------------------------------*\
  =========                 |
  \\      /  F ield         | OpenFOAM: The Open Source CFD Toolbox
   \\    /   O peration     | Website:  https://openfoam.org
    \\  /    A nd           | Version:  12
     \\/     M anipulation  |
\*---------------------------------------------------------------------------*/
FoamFile
{
    format      ascii;
    class       volScalarField;
    location    "2000";
    object      k;
}
// * * * * * * * * * * * * * * * * * * * * * * * * * * * * * * * * * * * * * //

dimensions      [0 2 -2 0 0 0 0];

internalField   nonuniform List<scalar> 
7480
(
9.1320268e-06
9.5178899e-06
1.0336631e-05
1.2715201e-05
0.0017676095
0.0035112422
0.004955482
0.0060289855
0.0067627409
0.0072238431
0.0074852425
0.0076042678
0.0076238298
0.0075752078
0.0074810406
0.0073574933
0.007216154
0.0070661754
0.0069173202
0.006770562
0.0066278047
0.0064895413
0.0063578813
0.0062347365
0.0061213858
0.0060186027
0.0059266666
0.0058453705
0.0057741417
0.0057121594
0.0056584395
0.0056119589
0.0055718356
0.0055373381
0.0055075919
0.00548158
0.0054582341
0.0054366635
0.005416221
0.005396449
0.0053769381
0.0053573179
0.0053373031
0.0053166816
0.0052953492
0.0052732669
0.0052503959
0.0052266009
0.0052017506
0.0051758615
0.0051490623
0.0051214767
0.0050932069
0.0050644177
0.0050353616
0.0050062445
0.0049771351
0.0049480449
0.0049190329
0.0048901918
0.0048615635
0.0048331732
0.0048050934
0.0047773982
0.0047500921
0.0047231683
0.0046966307
0.0046704394
0.0046445264
0.0046188833
0.0045935497
0.004568521
0.0045437982
0.0045194394
0.0044954199
0.0044716732
0.0044482028
0.0044249937
0.0044020232
0.0043793341
0.004356941
0.0043348172
0.0043129648
0.0042913531
0.004269954
0.0042487911
0.0042278757
0.0042072074
0.0041867661
0.0041665284
0.0041465
0.0041266744
0.0041070598
0.0040876288
0.0040684014
0.0040491621
0.0040305966
0.0040107612
0.0039932976
0.0039668029
8.9479452e-06
8.8222302e-06
8.7067748e-06
8.6318726e-06
4.773968e-05
0.00014931639
0.0003120778
0.00052025363
0.00075169468
0.00098616039
0.0012045679
0.0013985268
0.0015688397
0.0017226293
0.0018691893
0.0020188826
0.0021844917
0.0023870974
0.0026128903
0.0028405042
0.0030741891
0.0033132403
0.0035546545
0.0037950254
0.004030971
0.0042582426
0.0044728576
0.0046715255
0.004851678
0.005011622
0.005150713
0.0052695378
0.0053698894
0.0054548991
0.0055250445
0.0055800986
0.005619933
0.005646583
0.0056616565
0.0056665823
0.0056629349
0.0056523859
0.0056363825
0.005615882
0.005591698
0.0055645713
0.0055351963
0.0055041716
0.005472008
0.005439374
0.0054068718
0.0053749243
0.0053437949
0.005313669
0.0052847072
0.0052567958
0.0052295487
0.0052027705
0.0051764192
0.0051505609
0.005125295
0.0051006722
0.0050766455
0.0050531158
0.0050300019
0.0050072181
0.0049844654
0.0049615971
0.0049386607
0.0049157763
0.0048930609
0.004870595
0.0048484034
0.0048264888
0.004804717
0.0047829594
0.0047611966
0.0047395035
0.0047179762
0.0046966672
0.0046756113
0.0046547384
0.0046339414
0.0046132034
0.0045925808
0.0045721266
0.0045518877
0.0045318366
0.004511899
0.004492054
0.0044723339
0.0044527842
0.0044334267
0.0044141942
0.0043950945
0.0043759857
0.0043573253
0.0043378132
0.0043221226
0.0042880666
8.9433984e-06
8.809676e-06
8.6758741e-06
8.5428195e-06
9.0513591e-06
1.1697506e-05
1.8654984e-05
3.1946458e-05
5.2805717e-05
8.1720884e-05
0.00011804539
0.00016044871
0.00020748428
0.00025789573
0.00031073696
0.00036554613
0.00042264167
0.00048391239
0.00054884363
0.00061893445
0.00069626474
0.00078458687
0.00088742344
0.0010087784
0.0011534148
0.0013105455
0.0014770865
0.0016535431
0.001839956
0.0020359251
0.0022406932
0.0024535054
0.0026715701
0.0028850647
0.0030921827
0.0032899331
0.0034739518
0.0036411238
0.0037923256
0.0039272383
0.0040469795
0.0041528542
0.0042443419
0.0043205078
0.004383139
0.0044339629
0.0044747128
0.0045040461
0.0045255692
0.0045413494
0.0045525967
0.0045601395
0.0045647382
0.0045672624
0.0045684045
0.0045683994
0.0045672039
0.004564854
0.004561565
0.0045576374
0.0045532808
0.004548568
0.0045434538
0.0045378689
0.0045318162
0.004525255
0.0045178228
0.0045095399
0.0045005999
0.004491199
0.004481466
0.0044714615
0.0044612099
0.0044507294
0.0044397923
0.0044283061
0.0044163623
0.004404101
0.004391652
0.0043790819
0.0043664257
0.0043535573
0.0043403682
0.0043268962
0.0043132561
0.0042995324
0.0042857835
0.0042719476
0.0042579342
0.0042437589
0.0042294936
0.0042152084
0.0042009246
0.0041865584
0.0041720917
0.0041575406
0.0041430646
0.0041280235
0.004115492
0.0040889112
8.9432927e-06
8.8092336e-06
8.6750755e-06
8.5409288e-06
8.4160195e-06
8.3326074e-06
8.3606573e-06
8.61673e-06
9.2641979e-06
1.0526205e-05
1.2643183e-05
1.5842627e-05
2.0315091e-05
2.6203761e-05
3.3610349e-05
4.2608814e-05
5.327382e-05
6.5755781e-05
8.0216117e-05
9.6858217e-05
0.00011593061
0.00013783125
0.00016312302
0.00019257431
0.00022725138
0.0002678603
0.00031514567
0.00037021272
0.00043469707
0.0005109634
0.00060237732
0.00071355355
0.0008429168
0.00098580433
0.0011432109
0.0013165015
0.0015063033
0.0017099886
0.0019169686
0.002122726
0.0023236129
0.0025166342
0.0026988111
0.0028687209
0.0030250109
0.0031666239
0.0032942832
0.0034084327
0.003509548
0.0035961108
0.0036702048
0.0037337462
0.0037886046
0.0038367434
0.0038791818
0.0039155048
0.0039458131
0.0039717838
0.0039945846
0.0040150561
0.004033522
0.004050065
0.0040647273
0.0040776645
0.0040891141
0.0040991451
0.0041076452
0.0041146368
0.0041203256
0.004124916
0.0041285305
0.0041312146
0.0041330115
0.0041339789
0.0041338832
0.0041327357
0.0041307151
0.004127984
0.0041246664
0.004120831
0.004116519
0.0041115598
0.0041058953
0.0040996359
0.0040929246
0.0040858566
0.0040784951
0.0040707429
0.0040625203
0.0040538916
0.0040449605
0.004035809
0.0040264494
0.0040167829
0.0040067986
0.0039966047
0.0039862261
0.0039753662
0.0039660449
0.003945515
8.9433009e-06
8.8092324e-06
8.6750875e-06
8.5409393e-06
8.4069742e-06
8.2738291e-06
8.1431702e-06
8.0185014e-06
7.9059756e-06
7.8156256e-06
7.7621138e-06
7.7653401e-06
7.850547e-06
8.0482232e-06
8.3942275e-06
8.9297803e-06
9.7017957e-06
1.0764348e-05
1.2180519e-05
1.4021706e-05
1.6366466e-05
1.930833e-05
2.2963454e-05
2.7478377e-05
3.3049486e-05
3.9923589e-05
4.8388775e-05
5.8796903e-05
7.1599867e-05
8.7397584e-05
0.00010700672
0.00013158281
0.00016239725
0.0002007106
0.00024821431
0.00030732441
0.0003814536
0.00047524611
0.00059229608
0.00072593828
0.00087562188
0.0010401613
0.0012193555
0.0014080728
0.0016000838
0.0017911984
0.0019777208
0.0021564419
0.0023251421
0.0024838363
0.0026300388
0.0027631862
0.0028842834
0.0029953236
0.0030953882
0.0031835952
0.0032610309
0.003329499
0.0033909591
0.003446607
0.0034967305
0.0035417883
0.0035823794
0.0036192542
0.0036529428
0.0036833847
0.0037101034
0.0037340042
0.0037556525
0.0037753424
0.0037931875
0.0038092409
0.0038236436
0.0038365218
0.0038478613
0.0038577119
0.0038662258
0.0038735539
0.0038798101
0.0038850674
0.0038893805
0.0038925933
0.0038947413
0.0038959858
0.0038964665
0.0038962756
0.0038954768
0.00389395
0.0038916586
0.003888721
0.0038852568
0.0038813485
0.0038769956
0.0038720908
0.0038666601
0.0038608619
0.0038546678
0.0038479328
0.0038421572
0.0038264404
8.9433235e-06
8.8092646e-06
8.67513e-06
8.5409831e-06
8.4068865e-06
8.2729107e-06
8.1391476e-06
8.0057389e-06
7.872919e-06
7.7410778e-06
7.6108424e-06
7.4831783e-06
7.3594958e-06
7.2417568e-06
7.1325986e-06
7.0354517e-06
6.9546865e-06
6.8958075e-06
6.8657659e-06
6.8731994e-06
6.9284629e-06
7.0442299e-06
7.2364467e-06
7.5253885e-06
7.9381003e-06
8.5104189e-06
9.2883507e-06
1.0331445e-05
1.1718767e-05
1.3556628e-05
1.5989007e-05
1.9218162e-05
2.3520289e-05
2.926645e-05
3.6953857e-05
4.727195e-05
6.1194448e-05
8.0102488e-05
0.00010585622
0.00014011642
0.00018485386
0.00024252285
0.00031659473
0.00041009503
0.00052525874
0.00065790361
0.00080705568
0.00097011038
0.001144005
0.0013215742
0.0014991688
0.0016733682
0.0018414814
0.0020018372
0.0021552709
0.0022995774
0.0024330618
0.0025557967
0.0026692974
0.0027736739
0.0028674613
0.002952067
0.00302886
0.0030992339
0.0031636869
0.0032221241
0.0032745308
0.0033219269
0.0033652442
0.0034048378
0.0034409264
0.0034738036
0.0035038833
0.0035314122
0.0035560524
0.0035782317
0.0035983757
0.0036167156
0.0036333733
0.0036484392
0.0036620027
0.0036740902
0.0036847837
0.0036942101
0.0037024877
0.0037097104
0.0037159434
0.0037210884
0.003725182
0.0037283755
0.0037307818
0.0037324778
0.0037334543
0.0037336167
0.0037330446
0.0037319181
0.0037301814
0.0037277646
0.0037258993
0.003714721
8.9433554e-06
8.8093015e-06
8.6751683e-06
8.5410208e-06
8.4069219e-06
8.272934e-06
8.1391178e-06
8.0055335e-06
7.8722445e-06
7.7393188e-06
7.6068331e-06
7.4748764e-06
7.3435645e-06
7.2130419e-06
7.083496e-06
6.9551721e-06
6.8283913e-06
6.703572e-06
6.5812586e-06
6.462154e-06
6.3471387e-06
6.237314e-06
6.134073e-06
6.0391865e-06
5.9549731e-06
5.8845046e-06
5.831787e-06
5.8021215e-06
5.8026852e-06
5.8433723e-06
5.9380026e-06
6.1066014e-06
6.378584e-06
6.7965994e-06
7.4227715e-06
8.349676e-06
9.717266e-06
1.1738091e-05
1.4737682e-05
1.9173383e-05
2.5685133e-05
3.5169092e-05
4.88975e-05
6.8549244e-05
9.6286006e-05
0.00013421998
0.00018481882
0.00025107374
0.0003368586
0.00044292097
0.0005660525
0.00070561653
0.00085927215
0.001022955
0.0011888117
0.0013542479
0.0015166786
0.0016740375
0.001824995
0.0019707955
0.0021091684
0.0022387451
0.0023597042
0.0024731911
0.0025783438
0.0026740322
0.0027610907
0.0028407854
0.0029140456
0.0029807791
0.0030414529
0.0030968744
0.0031477955
0.0031945206
0.003236874
0.0032753073
0.0033104623
0.0033427052
0.0033722292
0.0033992468
0.0034239903
0.0034463207
0.0034665595
0.0034850018
0.0035018116
0.0035171048
0.0035309501
0.0035433856
0.0035545017
0.0035644135
0.0035732166
0.0035809879
0.0035877271
0.0035933902
0.0035981016
0.0036020341
0.0036051165
0.0036073194
0.0036097701
0.0036031892
8.9433975e-06
8.8093491e-06
8.6752194e-06
8.5410748e-06
8.4069779e-06
8.2729904e-06
8.1391724e-06
8.0055826e-06
7.8722804e-06
7.7393257e-06
7.6067781e-06
7.4746976e-06
7.3431443e-06
7.21218e-06
7.0818668e-06
6.9522689e-06
6.8234542e-06
6.6954952e-06
6.568472e-06
6.4424747e-06
6.3176066e-06
6.1939867e-06
6.0717557e-06
5.9510829e-06
5.8321773e-06
5.7153029e-06
5.6007934e-06
5.4890776e-06
5.3807193e-06
5.2764772e-06
5.1773882e-06
5.0849233e-06
5.0012176e-06
4.92937e-06
4.8739262e-06
4.8417325e-06
4.8433556e-06
4.895395e-06
5.0249588e-06
5.2758626e-06
5.7176124e-06
6.4621239e-06
7.6909273e-06
9.6927732e-06
1.2916067e-05
1.8015472e-05
2.5933128e-05
3.8005887e-05
5.6117498e-05
8.2546503e-05
0.00011955684
0.00016977068
0.00023636269
0.00032384337
0.00042947137
0.00055122759
0.00068817655
0.00083776774
0.00099521898
0.0011515983
0.0013065482
0.0014584235
0.0016059554
0.0017488411
0.001887608
0.0020197333
0.0021442694
0.0022615284
0.0023721266
0.0024732335
0.0025659282
0.0026514192
0.0027304591
0.0028029982
0.0028690701
0.0029293429
0.0029845894
0.0030351638
0.0030813996
0.0031237736
0.0031627469
0.003198265
0.0032306289
0.0032602811
0.0032875206
0.003312527
0.0033354425
0.0033562346
0.003375157
0.0033924472
0.0034082307
0.0034226029
0.0034356101
0.0034473166
0.0034578202
0.0034672667
0.0034755851
0.0034827774
0.0034900052
0.0034882146
8.9434463e-06
8.8094044e-06
8.6752793e-06
8.5411376e-06
8.407042e-06
8.2730541e-06
8.1392344e-06
8.0056426e-06
7.8723383e-06
7.7393811e-06
7.6068304e-06
7.4747452e-06
7.3431841e-06
7.2122051e-06
7.0818652e-06
6.9522207e-06
6.8233268e-06
6.6952378e-06
6.5680071e-06
6.4416875e-06
6.3163315e-06
6.1919906e-06
6.0687164e-06
5.9465607e-06
5.8255766e-06
5.7058196e-06
5.5873487e-06
5.470228e-06
5.3545291e-06
5.2403357e-06
5.1277486e-06
5.016896e-06
4.9079484e-06
4.8011384e-06
4.6967908e-06
4.5953761e-06
4.4975984e-06
4.4045374e-06
4.3179286e-06
4.2406035e-06
4.1771284e-06
4.1350463e-06
4.1270728e-06
4.1749179e-06
4.316216e-06
4.6154515e-06
5.182358e-06
6.2041435e-06
7.9970739e-06
1.1066844e-05
1.6169658e-05
2.4411164e-05
3.7372466e-05
5.738337e-05
8.6826152e-05
0.00012818653
0.00018437574
0.00025927928
0.00035530647
0.00046718146
0.00059368182
0.00073302112
0.00088148051
0.0010325754
0.0011806561
0.0013269248
0.0014702555
0.0016095111
0.0017461466
0.0018774235
0.002002054
0.0021200519
0.0022319395
0.0023355894
0.0024310761
0.0025193257
0.002600896
0.0026756501
0.0027440642
0.0028068876
0.0028647141
0.0029175369
0.0029657229
0.003009884
0.0030504319
0.0030876464
0.003121843
0.0031531146
0.003181711
0.0032079494
0.0032320769
0.0032542509
0.0032745099
0.0032929238
0.0033097772
0.0033252302
0.0033392299
0.0033518392
0.0033643817
0.0033675818
8.9435003e-06
8.8094653e-06
8.6753452e-06
8.5412065e-06
8.4071123e-06
8.2731243e-06
8.1393036e-06
8.0057104e-06
7.8724043e-06
7.739445e-06
7.606892e-06
7.4748044e-06
7.3432405e-06
7.2122584e-06
7.081915e-06
6.9522662e-06
6.8233668e-06
6.6952703e-06
6.568029e-06
6.4416937e-06
6.3163142e-06
6.1919381e-06
6.0686116e-06
5.9463793e-06
5.8252841e-06
5.7053677e-06
5.5866703e-06
5.469231e-06
5.3530873e-06
5.238276e-06
5.124833e-06
5.0127947e-06
4.9021981e-06
4.7930829e-06
4.6854931e-06
4.5794794e-06
4.4751057e-06
4.3724565e-06
4.2716542e-06
4.172885e-06
4.0764387e-06
3.9827823e-06
3.8926937e-06
3.8074999e-06
3.7295283e-06
3.6628741e-06
3.6147336e-06
3.5979652e-06
3.6358666e-06
3.7708037e-06
4.0786945e-06
4.6944449e-06
5.8564243e-06
7.9846955e-06
1.1743003e-05
1.8136323e-05
2.8633093e-05
4.539289e-05
7.1230546e-05
0.00010871307
0.00016064858
0.00023078404
0.00032134016
0.00042993817
0.00055209209
0.0006861747
0.00082868551
0.00097504504
0.0011173978
0.0012585069
0.0013973746
0.0015328272
0.001666242
0.0017951267
0.0019181231
0.002035035
0.0021461188
0.0022490263
0.0023442627
0.0024325829
0.0025143887
0.0025894265
0.0026582374
0.0027214548
0.0027794246
0.002832542
0.0028813485
0.0029260915
0.0029670035
0.0030045086
0.0030390118
0.0030707593
0.0030998836
0.0031265134
0.0031509773
0.003173514
0.0031941705
0.0032129104
0.0032314063
0.0032396412
8.9435584e-06
8.8095308e-06
8.6754159e-06
8.5412804e-06
8.4071879e-06
8.2732002e-06
8.1393787e-06
8.005784e-06
7.872476e-06
7.7395145e-06
7.6069591e-06
7.474869e-06
7.3433026e-06
7.2123179e-06
7.0819719e-06
6.9523204e-06
6.8234184e-06
6.6953191e-06
6.5680749e-06
6.4417366e-06
6.3163536e-06
6.1919736e-06
6.0686424e-06
5.9464042e-06
5.8253015e-06
5.7053751e-06
5.5866642e-06
5.4692062e-06
5.3530365e-06
5.2381889e-06
5.1246953e-06
5.0125857e-06
4.9018888e-06
4.7926316e-06
4.6848399e-06
4.5785376e-06
4.4737478e-06
4.370493e-06
4.2687961e-06
4.1686821e-06
4.0701807e-06
3.9733297e-06
3.8781834e-06
3.7848259e-06
3.6933981e-06
3.6041444e-06
3.5174937e-06
3.4342164e-06
3.3557236e-06
3.2846426e-06
3.2258596e-06
3.1884156e-06
3.1892198e-06
3.2606145e-06
3.4633857e-06
3.9103103e-06
4.8089571e-06
6.5383888e-06
9.7512165e-06
1.5469503e-05
2.5206097e-05
4.1210894e-05
6.6408341e-05
0.0001038663
0.0001564227
0.00022802617
0.00031909362
0.0004288656
0.00055101904
0.00068330299
0.00082225439
0.00096398315
0.0011019471
0.0012382659
0.0013727579
0.0015046072
0.0016345396
0.0017599826
0.0018798553
0.0019941253
0.0021024529
0.0022027904
0.0022960129
0.0023825367
0.0024622827
0.0025356242
0.0026031638
0.0026652081
0.0027219979
0.0027740522
0.002821871
0.0028657798
0.0029060824
0.0029430121
0.0029769031
0.0030080989
0.0030368104
0.0030629601
0.0030886
0.0031028794
8.9436199e-06
8.8095998e-06
8.6754903e-06
8.5413584e-06
8.4072677e-06
8.2732805e-06
8.1394584e-06
8.0058623e-06
7.8725524e-06
7.7395888e-06
7.6070311e-06
7.4749385e-06
7.3433696e-06
7.2123822e-06
7.0820335e-06
6.9523792e-06
6.8234743e-06
6.6953722e-06
6.5681251e-06
6.4417838e-06
6.3163979e-06
6.1920149e-06
6.0686808e-06
5.9464397e-06
5.8253342e-06
5.705405e-06
5.5866912e-06
5.4692302e-06
5.3530573e-06
5.238206e-06
5.1247081e-06
5.0125932e-06
4.9018894e-06
4.7926231e-06
4.6848186e-06
4.5784985e-06
4.4736832e-06
4.3703914e-06
4.2686401e-06
4.1684445e-06
4.0698189e-06
3.9727759e-06
3.8773273e-06
3.7834846e-06
3.6912613e-06
3.600675e-06
3.5117526e-06
3.4245385e-06
3.3391132e-06
3.2556267e-06
3.1743644e-06
3.0958647e-06
3.0211539e-06
2.952229e-06
2.8929834e-06
2.8509522e-06
2.8407638e-06
2.8912991e-06
3.0597183e-06
3.4570312e-06
4.2952657e-06
5.9751256e-06
9.2057791e-06
1.5150023e-05
2.5537107e-05
4.2976683e-05
7.0586176e-05
0.00011184708
0.00016988698
0.00024770267
0.00034437613
0.00045872624
0.00058362193
0.00071573301
0.00085219232
0.00098948802
0.0011229303
0.0012551552
0.0013854305
0.0015140968
0.0016400317
0.0017612698
0.0018772187
0.0019878977
0.0020915142
0.0021878987
0.0022775404
0.0023605534
0.0024369952
0.0025073428
0.0025720377
0.0026314063
0.0026859225
0.0027359389
0.0027817764
0.0028238774
0.0028626343
0.0028979748
0.0029323574
0.0029543671
8.9436843e-06
8.8096716e-06
8.6755678e-06
8.5414395e-06
8.4073509e-06
8.2733643e-06
8.1395418e-06
8.0059445e-06
7.8726329e-06
7.7396673e-06
7.6071072e-06
7.4750121e-06
7.3434406e-06
7.2124505e-06
7.0820989e-06
6.9524418e-06
6.8235339e-06
6.6954289e-06
6.5681788e-06
6.4418346e-06
6.3164457e-06
6.1920598e-06
6.0687228e-06
5.946479e-06
5.8253707e-06
5.7054389e-06
5.5867227e-06
5.4692593e-06
5.3530842e-06
5.2382309e-06
5.1247309e-06
5.0126141e-06
4.9019086e-06
4.7926404e-06
4.684834e-06
4.5785118e-06
4.473694e-06
4.3703992e-06
4.2686439e-06
4.168443e-06
4.0698095e-06
3.9727548e-06
3.8772881e-06
3.783417e-06
3.6911475e-06
3.6004847e-06
3.5114323e-06
3.4239936e-06
3.3381722e-06
3.2539741e-06
3.1714121e-06
3.0905122e-06
3.0113274e-06
2.933967e-06
2.8586537e-06
2.7858356e-06
2.7164067e-06
2.6521736e-06
2.5968189e-06
2.5578077e-06
2.5502227e-06
2.6050008e-06
2.785673e-06
3.2213464e-06
4.1675296e-06
6.1220412e-06
9.9697279e-06
1.7177598e-05
2.9958398e-05
5.1394395e-05
8.4929116e-05
0.00013437097
0.00020333318
0.0002911248
0.00039697016
0.00051756452
0.00064501848
0.00077690394
0.00091099718
0.0010433231
0.0011727014
0.0013010804
0.001427765
0.0015529117
0.0016742111
0.001790588
0.0019019752
0.0020073112
0.0021053962
0.0021966891
0.0022814209
0.0023595799
0.0024316222
0.0024979223
0.0025587514
0.0026145972
0.0026659718
0.0027128428
0.0027580577
0.0027900545
8.943751e-06
8.8097458e-06
8.6756477e-06
8.5415233e-06
8.4074368e-06
8.2734512e-06
8.1396284e-06
8.0060301e-06
7.8727169e-06
7.7397492e-06
7.6071869e-06
7.4750893e-06
7.3435151e-06
7.2125223e-06
7.0821678e-06
6.9525078e-06
6.8235969e-06
6.6954888e-06
6.5682357e-06
6.4418885e-06
6.3164966e-06
6.1921076e-06
6.0687676e-06
5.9465208e-06
5.8254098e-06
5.7054753e-06
5.5867565e-06
5.4692907e-06
5.3531133e-06
5.2382579e-06
5.1247559e-06
5.0126374e-06
4.9019301e-06
4.7926605e-06
4.6848527e-06
4.5785291e-06
4.4737101e-06
4.3704141e-06
4.2686577e-06
4.1684556e-06
4.0698209e-06
3.9727648e-06
3.8772964e-06
3.783423e-06
3.6911505e-06
3.6004828e-06
3.5114228e-06
3.4239712e-06
3.3381274e-06
3.2538897e-06
3.1712553e-06
3.090221e-06
3.0107835e-06
2.9329416e-06
2.8566995e-06
2.7820735e-06
2.7091053e-06
2.6378906e-06
2.5686387e-06
2.5017957e-06
2.4382943e-06
2.3800997e-06
2.3313811e-06
2.3009634e-06
2.3074558e-06
2.3908077e-06
2.6360772e-06
3.2226358e-06
4.5183585e-06
7.2323429e-06
1.2613192e-05
2.2687234e-05
4.0498255e-05
6.9526571e-05
0.00011356148
0.00017696484
0.00025973003
0.00036061574
0.00047711751
0.00060215706
0.00073074333
0.00086155104
0.00099213444
0.0011195215
0.0012454903
0.001369969
0.0014936658
0.001614164
0.0017300948
0.0018412611
0.0019468718
0.0020453063
0.0021370503
0.0022223397
0.0023010682
0.0023736286
0.002440536
0.0025017138
0.002560276
0.0026049951
8.9438199e-06
8.809822e-06
8.6757296e-06
8.5416091e-06
8.4075251e-06
8.2735405e-06
8.1397177e-06
8.0061185e-06
7.8728038e-06
7.7398342e-06
7.6072696e-06
7.4751695e-06
7.3435927e-06
7.2125971e-06
7.0822397e-06
6.9525767e-06
6.8236628e-06
6.6955516e-06
6.5682954e-06
6.4419451e-06
6.31655e-06
6.192158e-06
6.0688149e-06
5.9465651e-06
5.8254512e-06
5.705514e-06
5.5867926e-06
5.4693243e-06
5.3531445e-06
5.2382868e-06
5.1247829e-06
5.0126624e-06
4.9019535e-06
4.7926822e-06
4.684873e-06
4.5785481e-06
4.4737278e-06
4.3704307e-06
4.2686732e-06
4.1684701e-06
4.0698345e-06
3.9727775e-06
3.8773083e-06
3.7834341e-06
3.6911607e-06
3.6004922e-06
3.5114311e-06
3.4239783e-06
3.3381328e-06
3.2538925e-06
3.1712538e-06
3.0902118e-06
3.0107602e-06
2.9328917e-06
2.856598e-06
2.7818707e-06
2.7087016e-06
2.6370845e-06
2.5670191e-06
2.4985181e-06
2.4316229e-06
2.3664372e-06
2.3032014e-06
2.2424512e-06
2.1853583e-06
2.1345093e-06
2.0956272e-06
2.0813388e-06
2.1196472e-06
2.2728205e-06
2.6779772e-06
3.6320867e-06
5.7506607e-06
1.0173146e-05
1.8810675e-05
3.4726305e-05
6.1584139e-05
0.00010326987
0.0001642876
0.00024514772
0.0003440886
0.00045829976
0.00058203729
0.00070845819
0.0008364925
0.00096483654
0.0010902215
0.0012137377
0.0013361441
0.0014581149
0.0015772097
0.001691991
0.0018021878
0.0019069925
0.0020047484
0.0020958984
0.002180767
0.0022588593
0.002333335
0.0023938272
8.9438906e-06
8.8098998e-06
8.6758132e-06
8.5416967e-06
8.4076152e-06
8.2736319e-06
8.1398092e-06
8.0062093e-06
7.8728932e-06
7.7399218e-06
7.607355e-06
7.4752525e-06
7.343673e-06
7.2126746e-06
7.0823144e-06
6.9526483e-06
6.8237313e-06
6.695617e-06
6.5683576e-06
6.4420041e-06
6.3166059e-06
6.1922106e-06
6.0688644e-06
5.9466116e-06
5.8254947e-06
5.7055546e-06
5.5868305e-06
5.4693597e-06
5.3531775e-06
5.2383175e-06
5.1248114e-06
5.012689e-06
4.9019783e-06
4.7927054e-06
4.6848947e-06
4.5785683e-06
4.4737468e-06
4.3704484e-06
4.2686899e-06
4.1684858e-06
4.0698492e-06
3.9727913e-06
3.8773212e-06
3.7834462e-06
3.6911721e-06
3.6005029e-06
3.5114411e-06
3.4239876e-06
3.3381415e-06
3.2539005e-06
3.171261e-06
3.0902181e-06
3.0107654e-06
2.9328951e-06
2.8565983e-06
2.7818652e-06
2.7086848e-06
2.6370453e-06
2.5669342e-06
2.4983391e-06
2.4312483e-06
2.3656529e-06
2.3015514e-06
2.2389595e-06
2.1779314e-06
2.1186085e-06
2.0613311e-06
2.0068864e-06
1.957078e-06
1.91606e-06
1.893388e-06
1.9110595e-06
2.0203053e-06
2.3387544e-06
3.1307985e-06
4.9763569e-06
9.000524e-06
1.7145873e-05
3.2588037e-05
5.9239727e-05
0.00010115911
0.00016287982
0.00024461775
0.00034418752
0.00045805241
0.0005811251
0.00070590265
0.00083155085
0.00095744746
0.0010806595
0.0012019126
0.0013224962
0.0014425859
0.0015598364
0.0016729793
0.0017816159
0.0018848207
0.0019808319
0.0020728767
0.0021518511
8.9439631e-06
8.8099792e-06
8.6758981e-06
8.5417859e-06
8.407707e-06
8.273725e-06
8.1399027e-06
8.0063022e-06
7.8729849e-06
7.7400117e-06
7.6074428e-06
7.4753379e-06
7.3437558e-06
7.2127546e-06
7.0823914e-06
6.9527223e-06
6.8238022e-06
6.6956847e-06
6.5684221e-06
6.4420654e-06
6.3166639e-06
6.1922654e-06
6.068916e-06
5.94666e-06
5.8255401e-06
5.7055972e-06
5.5868703e-06
5.4693968e-06
5.3532121e-06
5.2383498e-06
5.1248415e-06
5.0127171e-06
4.9020045e-06
4.7927299e-06
4.6849176e-06
4.5785898e-06
4.4737669e-06
4.3704673e-06
4.2687075e-06
4.1685024e-06
4.0698648e-06
3.972806e-06
3.877335e-06
3.7834592e-06
3.6911843e-06
3.6005143e-06
3.5114519e-06
3.4239977e-06
3.3381509e-06
3.2539093e-06
3.1712693e-06
3.0902258e-06
3.0107725e-06
2.9329016e-06
2.8566042e-06
2.7818704e-06
2.7086891e-06
2.637048e-06
2.5669342e-06
2.4983337e-06
2.4312318e-06
2.3656133e-06
2.3014624e-06
2.2387641e-06
2.1775046e-06
2.117675e-06
2.0592776e-06
2.0023422e-06
1.946961e-06
1.8933756e-06
1.8421784e-06
1.7947849e-06
1.7545972e-06
1.7297836e-06
1.7398237e-06
1.8320291e-06
2.1196188e-06
2.8669686e-06
4.6748209e-06
8.749281e-06
1.7212136e-05
3.3519538e-05
6.1863173e-05
0.00010651767
0.00017149383
0.00025668192
0.00035892892
0.00047379873
0.00059640657
0.00071973806
0.00084331886
0.00096673534
0.0010877338
0.0012068732
0.0013258781
0.0014439719
0.0015591474
0.001670082
0.0017789411
0.0018771679
8.9440371e-06
8.8100599e-06
8.6759844e-06
8.5418762e-06
8.4078001e-06
8.2738196e-06
8.1399978e-06
8.0063968e-06
7.8730785e-06
7.7401037e-06
7.6075328e-06
7.4754255e-06
7.3438408e-06
7.2128368e-06
7.0824707e-06
6.9527985e-06
6.8238752e-06
6.6957545e-06
6.5684887e-06
6.4421286e-06
6.3167238e-06
6.1923221e-06
6.0689694e-06
5.9467103e-06
5.8255873e-06
5.7056414e-06
5.5869116e-06
5.4694354e-06
5.3532482e-06
5.2383835e-06
5.1248729e-06
5.0127465e-06
4.902032e-06
4.7927556e-06
4.6849416e-06
4.5786123e-06
4.473788e-06
4.3704871e-06
4.2687261e-06
4.1685199e-06
4.0698813e-06
3.9728214e-06
3.8773495e-06
3.7834728e-06
3.6911971e-06
3.6005264e-06
3.5114632e-06
3.4240083e-06
3.3381609e-06
3.2539187e-06
3.171278e-06
3.090234e-06
3.0107801e-06
2.9329087e-06
2.8566108e-06
2.7818765e-06
2.7086947e-06
2.6370532e-06
2.5669388e-06
2.4983377e-06
2.4312349e-06
2.3656148e-06
2.301461e-06
2.2387565e-06
2.1774839e-06
2.1176252e-06
2.0591628e-06
2.0020803e-06
1.9463644e-06
1.8920105e-06
1.8390354e-06
1.7875072e-06
1.73762e-06
1.689879e-06
1.6455431e-06
1.6077637e-06
1.5844232e-06
1.595075e-06
1.6890199e-06
1.9889471e-06
2.7918003e-06
4.7870344e-06
9.3781173e-06
1.9049273e-05
3.7667081e-05
6.974391e-05
0.00011977216
0.00019051104
0.00028107993
0.00038722797
0.00050367712
0.00062562747
0.00074748223
0.0008691792
0.00099015173
0.0011089147
0.001226195
0.0013435997
0.001461799
0.001574029
8.9441126e-06
8.8101418e-06
8.6760717e-06
8.5419677e-06
8.4078944e-06
8.2739155e-06
8.1400943e-06
8.0064931e-06
7.8731738e-06
7.7401975e-06
7.6076246e-06
7.475515e-06
7.3439278e-06
7.212921e-06
7.082552e-06
6.9528767e-06
6.8239502e-06
6.6958263e-06
6.5685572e-06
6.4421938e-06
6.3167857e-06
6.1923806e-06
6.0690246e-06
5.9467623e-06
5.8256361e-06
5.7056872e-06
5.5869545e-06
5.4694756e-06
5.3532857e-06
5.2384185e-06
5.1249057e-06
5.012777e-06
4.9020606e-06
4.7927824e-06
4.6849667e-06
4.5786358e-06
4.47381e-06
4.3705077e-06
4.2687455e-06
4.1685381e-06
4.0698985e-06
3.9728376e-06
3.8773647e-06
3.7834871e-06
3.6912105e-06
3.600539e-06
3.5114751e-06
3.4240194e-06
3.3381713e-06
3.2539285e-06
3.1712872e-06
3.0902425e-06
3.0107881e-06
2.9329161e-06
2.8566177e-06
2.7818829e-06
2.7087007e-06
2.6370587e-06
2.5669439e-06
2.4983424e-06
2.4312392e-06
2.3656188e-06
2.3014645e-06
2.2387594e-06
2.1774858e-06
2.1176252e-06
2.059159e-06
2.002068e-06
1.9463328e-06
1.8919339e-06
1.8388532e-06
1.7870751e-06
1.7365913e-06
1.6874126e-06
1.6395976e-06
1.5933252e-06
1.5490853e-06
1.5081509e-06
1.4738355e-06
1.4547582e-06
1.4731684e-06
1.5872504e-06
1.9470576e-06
2.9276246e-06
5.4021482e-06
1.112676e-05
2.3176526e-05
4.5909782e-05
8.410013e-05
0.00014226614
0.0002208224
0.00031790483
0.00042804863
0.00054601317
0.00066694588
0.00078721621
0.00090727288
0.0010255575
0.0011444233
0.0012604031
8.9441894e-06
8.8102249e-06
8.67616e-06
8.5420601e-06
8.4079896e-06
8.2740126e-06
8.1401921e-06
8.0065908e-06
7.8732706e-06
7.7402929e-06
7.6077182e-06
7.4756064e-06
7.3440166e-06
7.2130071e-06
7.0826351e-06
6.9529568e-06
6.8240271e-06
6.6958999e-06
6.5686274e-06
6.4422607e-06
6.3168492e-06
6.1924407e-06
6.0690815e-06
5.9468158e-06
5.8256865e-06
5.7057344e-06
5.5869989e-06
5.469517e-06
5.3533245e-06
5.2384548e-06
5.1249396e-06
5.0128088e-06
4.9020902e-06
4.7928102e-06
4.6849927e-06
4.5786602e-06
4.4738329e-06
4.3705292e-06
4.2687658e-06
4.1685571e-06
4.0699163e-06
3.9728544e-06
3.8773805e-06
3.783502e-06
3.6912245e-06
3.6005522e-06
3.5114874e-06
3.424031e-06
3.3381822e-06
3.2539387e-06
3.1712967e-06
3.0902515e-06
3.0107965e-06
2.9329239e-06
2.856625e-06
2.7818897e-06
2.7087069e-06
2.6370645e-06
2.5669493e-06
2.4983473e-06
2.4312438e-06
2.3656229e-06
2.3014683e-06
2.2387629e-06
2.1774889e-06
2.1176281e-06
2.0591614e-06
2.0020697e-06
1.9463332e-06
1.8919316e-06
1.8388448e-06
1.7870521e-06
1.7365331e-06
1.6872685e-06
1.6392415e-06
1.5924425e-06
1.5468813e-06
1.5026175e-06
1.4598423e-06
1.4190977e-06
1.3818493e-06
1.3520595e-06
1.3404397e-06
1.3758048e-06
1.5360521e-06
2.0279908e-06
3.3794739e-06
6.7923021e-06
1.4600997e-05
3.0709038e-05
5.9870819e-05
0.00010704228
0.00017511167
0.00026297916
0.00036685639
0.00048047036
0.00059966297
0.00071880293
0.00083975471
0.0009572652
8.9442676e-06
8.810309e-06
8.6762492e-06
8.5421533e-06
8.4080858e-06
8.2741106e-06
8.1402909e-06
8.0066896e-06
7.8733688e-06
7.7403897e-06
7.6078133e-06
7.4756993e-06
7.3441071e-06
7.2130949e-06
7.08272e-06
6.9530386e-06
6.8241057e-06
6.6959752e-06
6.5686994e-06
6.4423293e-06
6.3169144e-06
6.1925025e-06
6.0691398e-06
5.9468708e-06
5.8257383e-06
5.7057831e-06
5.5870445e-06
5.4695598e-06
5.3533645e-06
5.2384922e-06
5.1249746e-06
5.0128415e-06
4.9021209e-06
4.7928389e-06
4.6850197e-06
4.5786855e-06
4.4738566e-06
4.3705515e-06
4.2687867e-06
4.1685768e-06
4.0699349e-06
3.9728718e-06
3.8773969e-06
3.7835174e-06
3.691239e-06
3.6005658e-06
3.5115002e-06
3.4240431e-06
3.3381935e-06
3.2539492e-06
3.1713067e-06
3.0902607e-06
3.0108051e-06
2.932932e-06
2.8566325e-06
2.7818966e-06
2.7087134e-06
2.6370705e-06
2.5669548e-06
2.4983525e-06
2.4312485e-06
2.3656273e-06
2.3014723e-06
2.2387666e-06
2.1774923e-06
2.1176311e-06
2.0591642e-06
2.0020722e-06
1.9463354e-06
1.8919335e-06
1.8388461e-06
1.7870524e-06
1.7365313e-06
1.6872616e-06
1.6392222e-06
1.5923919e-06
1.546751e-06
1.5022825e-06
1.4589774e-06
1.416849e-06
1.3759697e-06
1.3365751e-06
1.299352e-06
1.2662269e-06
1.2426025e-06
1.2436048e-06
1.3116402e-06
1.5647173e-06
2.3230182e-06
4.3995669e-06
9.5464178e-06
2.1001987e-05
4.3447741e-05
8.193915e-05
0.00014098555
0.00022049776
0.00031816648
0.00042748584
0.00054588354
0.00066441986
8.944347e-06
8.8103941e-06
8.6763393e-06
8.5422473e-06
8.4081827e-06
8.2742094e-06
8.1403907e-06
8.0067896e-06
7.8734681e-06
7.7404879e-06
7.6079097e-06
7.4757937e-06
7.3441991e-06
7.2131842e-06
7.0828064e-06
6.953122e-06
6.8241859e-06
6.6960521e-06
6.568773e-06
6.4423994e-06
6.3169811e-06
6.1925657e-06
6.0691996e-06
5.9469273e-06
5.8257914e-06
5.7058331e-06
5.5870914e-06
5.4696038e-06
5.3534057e-06
5.2385308e-06
5.1250107e-06
5.0128753e-06
4.9021526e-06
4.7928686e-06
4.6850475e-06
4.5787115e-06
4.473881e-06
4.3705745e-06
4.2688083e-06
4.1685971e-06
4.069954e-06
3.9728898e-06
3.8774138e-06
3.7835333e-06
3.6912539e-06
3.6005799e-06
3.5115134e-06
3.4240555e-06
3.3382051e-06
3.2539601e-06
3.1713169e-06
3.0902703e-06
3.010814e-06
2.9329403e-06
2.8566402e-06
2.7819038e-06
2.70872e-06
2.6370767e-06
2.5669606e-06
2.4983578e-06
2.4312534e-06
2.3656318e-06
2.3014764e-06
2.2387703e-06
2.1774957e-06