/*--------------------------------*- C++ -*----------------------------------*\
  =========                 |
  \\      /  F ield         | OpenFOAM: The Open Source CFD Toolbox
   \\    /   O peration     | Website:  https://openfoam.org
    \\  /    A nd           | Version:  12
     \\/     M anipulation  |
\*---------------------------------------------------------------------------*/
FoamFile
{
    format      ascii;
    class       volScalarField;
    location    "2000";
    object      nut;
}
// * * * * * * * * * * * * * * * * * * * * * * * * * * * * * * * * * * * * * //

dimensions      [0 2 -1 0 0 0 0];

internalField   nonuniform List<scalar> 
7480
(
8.0753526e-08
4.2962914e-08
3.1056796e-08
2.8365432e-08
3.1795145e-06
5.3315885e-06
6.3338708e-06
6.9863186e-06
7.3992493e-06
7.6473411e-06
7.4895054e-06
7.2193765e-06
6.898071e-06
6.557554e-06
6.2182728e-06
5.8931467e-06
5.5905734e-06
5.320048e-06
5.076291e-06
4.8645353e-06
4.6803428e-06
4.521049e-06
4.3859788e-06
4.2746206e-06
4.1861483e-06
4.1199353e-06
4.0748972e-06
4.0495446e-06
4.0421707e-06
4.050895e-06
4.0736701e-06
4.1083943e-06
4.1530144e-06
4.2077281e-06
4.2711854e-06
4.3413458e-06
4.4158724e-06
4.4924518e-06
4.5696936e-06
4.646586e-06
4.7220139e-06
4.7948664e-06
4.8642677e-06
4.9295042e-06
4.9900114e-06
5.0454647e-06
5.0953496e-06
5.1412582e-06
5.1828117e-06
5.2192738e-06
5.2502061e-06
5.2755162e-06
5.2955249e-06
5.3109877e-06
5.3227246e-06
5.3315705e-06
5.3384667e-06
5.3439285e-06
5.3482358e-06
5.3514704e-06
5.3535667e-06
5.3545987e-06
5.3548226e-06
5.3544349e-06
5.3534847e-06
5.3520819e-06
5.3505313e-06
5.3488545e-06
5.3469018e-06
5.3446221e-06
5.3419826e-06
5.338881e-06
5.3353986e-06
5.3316576e-06
5.3276391e-06
5.3233948e-06
5.3190031e-06
5.3143366e-06
5.3093452e-06
5.3041318e-06
5.2986612e-06
5.2929722e-06
5.2871723e-06
5.281186e-06
5.2749798e-06
5.2686026e-06
5.2620417e-06
5.2553314e-06
5.2484843e-06
5.2415027e-06
5.2343921e-06
5.2271238e-06
5.2197199e-06
5.2122084e-06
5.2045076e-06
5.1967707e-06
5.1889125e-06
5.1803493e-06
5.1684702e-06
5.1776365e-06
1.6699856e-07
1.6479302e-07
1.627558e-07
1.6152406e-07
7.8952513e-07
2.0014248e-06
3.2199568e-06
4.1001075e-06
4.6102729e-06
4.8537451e-06
4.9292195e-06
4.9200752e-06
4.9202975e-06
4.9673097e-06
5.0575675e-06
5.1937346e-06
5.4001126e-06
5.7434758e-06
5.8737495e-06
6.1612772e-06
6.4631558e-06
6.7818415e-06
7.1154596e-06
7.4620223e-06
7.8192907e-06
8.1874325e-06
8.5616993e-06
8.937773e-06
9.3126166e-06
9.6838281e-06
1.0049695e-05
1.0409554e-05
1.0764395e-05
1.1116844e-05
1.1463962e-05
1.1800466e-05
1.2120548e-05
1.2422109e-05
1.2708229e-05
1.2978441e-05
1.3231696e-05
1.3467424e-05
1.3684862e-05
1.3883274e-05
1.4063176e-05
1.4225371e-05
1.4370753e-05
1.4498919e-05
1.4609831e-05
1.4704722e-05
1.4785407e-05
1.485383e-05
1.4912044e-05
1.496231e-05
1.500643e-05
1.5046398e-05
1.5083748e-05
1.511802e-05
1.5149207e-05
1.517753e-05
1.5203208e-05
1.5226675e-05
1.5248412e-05
1.5268612e-05
1.5287253e-05
1.5304426e-05
1.5320351e-05
1.5334571e-05
1.5346775e-05
1.5357109e-05
1.5365765e-05
1.5372816e-05
1.5378569e-05
1.53832e-05
1.5386509e-05
1.5388419e-05
1.538894e-05
1.5387968e-05
1.5385712e-05
1.5382483e-05
1.5378292e-05
1.5373166e-05
1.5367065e-05
1.5359802e-05
1.5351497e-05
1.5342364e-05
1.5332498e-05
1.5321942e-05
1.5310581e-05
1.5298402e-05
1.5285486e-05
1.5271919e-05
1.5257817e-05
1.5243141e-05
1.5227688e-05
1.5211905e-05
1.5195252e-05
1.5177473e-05
1.5157324e-05
1.5154079e-05
1.6882488e-07
1.6856643e-07
1.6827207e-07
1.6795693e-07
1.7998488e-07
2.3387148e-07
3.7066214e-07
6.1994182e-07
9.7979917e-07
1.4139795e-06
1.8590402e-06
2.2551577e-06
2.5711703e-06
2.8049572e-06
2.9700544e-06
3.0862999e-06
3.1761038e-06
3.2764525e-06
3.4092289e-06
3.5801701e-06
3.78978e-06
4.0379456e-06
4.3259599e-06
4.6573285e-06
5.0374692e-06
5.4516763e-06
5.9086398e-06
6.4111923e-06
6.962589e-06
7.5669246e-06
8.2300799e-06
8.9618684e-06
9.749095e-06
1.044151e-05
1.1159142e-05
1.1897347e-05
1.2644534e-05
1.3390937e-05
1.4133868e-05
1.486696e-05
1.5587492e-05
1.6292792e-05
1.6970278e-05
1.7614461e-05
1.8230667e-05
1.8817228e-05
1.9374469e-05
1.979506e-05
2.0167942e-05
2.051042e-05
2.0826668e-05
2.1119711e-05
2.139237e-05
2.1647822e-05
2.1888674e-05
2.2114854e-05
2.2325153e-05
2.2520764e-05
2.2703689e-05
2.2875906e-05
2.3038772e-05
2.31933e-05
2.3340121e-05
2.3479591e-05
2.3612083e-05
2.3737828e-05
2.3855749e-05
2.396571e-05
2.4068414e-05
2.4164819e-05
2.4255567e-05
2.4340955e-05
2.4421469e-05
2.4497408e-05
2.4567913e-05
2.4632845e-05
2.4692647e-05
2.4747718e-05
2.4798741e-05
2.4846184e-05
2.4890139e-05
2.4930327e-05
2.4966481e-05
2.4998672e-05
2.5027508e-05
2.505343e-05
2.50767e-05
2.5097196e-05
2.5114574e-05
2.5129023e-05
2.5140913e-05
2.5150554e-05
2.5158141e-05
2.5163357e-05
2.5166093e-05
2.5166858e-05
2.5165977e-05
2.5159558e-05
2.5161673e-05
2.5117458e-05
1.6885081e-07
1.6864754e-07
1.6843945e-07
1.6822679e-07
1.6818686e-07
1.6896537e-07
1.7200442e-07
1.7977402e-07
1.95822e-07
2.2501258e-07
2.7252284e-07
3.4288014e-07
4.389845e-07
5.6140871e-07
7.0818326e-07
8.7497401e-07
1.0557748e-06
1.2452785e-06
1.4385651e-06
1.6317304e-06
1.8219143e-06
2.0080637e-06
2.1905404e-06
2.3709912e-06
2.5526713e-06
2.7515832e-06
2.9713425e-06
3.2171147e-06
3.4959243e-06
3.817055e-06
4.1928284e-06
4.6395041e-06
5.1788248e-06
5.7987109e-06
6.5089464e-06
7.3171154e-06
8.2237831e-06
9.2227652e-06
1.0050008e-05
1.0924424e-05
1.1839951e-05
1.2790957e-05
1.3770276e-05
1.4770339e-05
1.5777293e-05
1.677852e-05
1.7768155e-05
1.8737397e-05
1.9673776e-05
2.0577563e-05
2.1449541e-05
2.2286088e-05
2.3084566e-05
2.384311e-05
2.4564138e-05
2.5198119e-05
2.5728458e-05
2.6228655e-05
2.6703817e-05
2.715746e-05
2.7591252e-05
2.8006371e-05
2.8403954e-05
2.8785243e-05
2.9151308e-05
2.9501981e-05
2.9834393e-05
3.0149335e-05
3.0448563e-05
3.0733757e-05
3.1005981e-05
3.1265796e-05
3.1514055e-05
3.1751428e-05
3.1976547e-05
3.2189384e-05
3.2390895e-05
3.2581873e-05
3.2763268e-05
3.2935815e-05
3.3099817e-05
3.3254713e-05
3.3400378e-05
3.3537255e-05
3.3666259e-05
3.3788091e-05
3.39032e-05
3.4011302e-05
3.4112061e-05
3.420598e-05
3.4293733e-05
3.437583e-05
3.4452508e-05
3.4523331e-05
3.4588219e-05
3.4648359e-05
3.4703502e-05
3.4750506e-05
3.479943e-05
3.4801325e-05
1.6885081e-07
1.686487e-07
1.6844334e-07
1.682349e-07
1.6802585e-07
1.6782778e-07
1.6767375e-07
1.6763627e-07
1.678474e-07
1.6852883e-07
1.7001429e-07
1.7277017e-07
1.7740563e-07
1.8467724e-07
1.9549545e-07
2.1092095e-07
2.3216036e-07
2.6057335e-07
2.9768187e-07
3.4508798e-07
4.0435246e-07
4.7704065e-07
5.6470889e-07
6.6881712e-07
7.9074819e-07
9.3172085e-07
1.0920492e-06
1.2711975e-06
1.46802e-06
1.6810903e-06
1.909197e-06
2.1522297e-06
2.4111789e-06
2.7049502e-06
3.041946e-06
3.4341714e-06
3.896887e-06
4.4488142e-06
5.1205966e-06
5.8940386e-06
6.7771208e-06
7.7762421e-06
8.8970821e-06
9.8758654e-06
1.0795291e-05
1.1789238e-05
1.2840721e-05
1.3945002e-05
1.5095195e-05
1.6281262e-05
1.7478712e-05
1.8671405e-05
1.9852282e-05
2.1016435e-05
2.2172942e-05
2.3311674e-05
2.441971e-05
2.5488177e-05
2.651043e-05
2.7490112e-05
2.8432339e-05
2.9342343e-05
3.0222274e-05
3.1070803e-05
3.1885361e-05
3.2646199e-05
3.3283884e-05
3.3893478e-05
3.447852e-05
3.5040912e-05
3.5581705e-05
3.610175e-05
3.6602372e-05
3.7084467e-05
3.7544716e-05
3.7983298e-05
3.8402173e-05
3.8802797e-05
3.9186438e-05
3.9554122e-05
3.9906461e-05
4.0242359e-05
4.0561861e-05
4.0865899e-05
4.1155711e-05
4.1432284e-05
4.1696297e-05
4.1947242e-05
4.2184917e-05
4.2410229e-05
4.2624149e-05
4.2827404e-05
4.3020252e-05
4.3202153e-05
4.3373244e-05
4.3535338e-05
4.3687704e-05
4.3828237e-05
4.3962169e-05
4.4045865e-05
1.6885044e-07
1.6864841e-07
1.6844324e-07
1.68235e-07
1.6802377e-07
1.6780977e-07
1.6759368e-07
1.6737725e-07
1.6716424e-07
1.6696195e-07
1.667832e-07
1.6664897e-07
1.6659141e-07
1.6665708e-07
1.6691094e-07
1.6744046e-07
1.6836082e-07
1.6982156e-07
1.7201672e-07
1.7519383e-07
1.7965809e-07
1.8579075e-07
1.9407783e-07
2.0514022e-07
2.1980051e-07
2.3913938e-07
2.6452305e-07
2.9767697e-07
3.4079509e-07
3.9664792e-07
4.6866839e-07
5.611371e-07
6.7896912e-07
8.276237e-07
1.0124214e-06
1.2381562e-06
1.5083343e-06
1.8240449e-06
2.1825241e-06
2.5774613e-06
3.0273057e-06
3.5422322e-06
4.1406015e-06
4.8352121e-06
5.6787165e-06
6.6482565e-06
7.7520412e-06
8.9907316e-06
1.0304223e-05
1.1259997e-05
1.230911e-05
1.3434469e-05
1.462743e-05
1.5879737e-05
1.7189866e-05
1.8534852e-05
1.9894321e-05
2.1253434e-05
2.2600834e-05
2.3963645e-05
2.5323889e-05
2.6670832e-05
2.7991747e-05
2.9278149e-05
3.0534442e-05
3.1762404e-05
3.295337e-05
3.410388e-05
3.5207907e-05
3.6267968e-05
3.7290436e-05
3.8281614e-05
3.9239638e-05
4.0165055e-05
4.096105e-05
4.1697299e-05
4.2405613e-05
4.3087797e-05
4.3745067e-05
4.4378619e-05
4.4989377e-05
4.5574316e-05
4.6133688e-05
4.6669413e-05
4.7183238e-05
4.7676468e-05
4.8150016e-05
4.8602872e-05
4.9034935e-05
4.9447583e-05
4.9842125e-05
5.0219552e-05
5.0580112e-05
5.0923118e-05
5.1249074e-05
5.1560316e-05
5.1855764e-05
5.2134418e-05
5.2396948e-05
5.2603665e-05
1.6885011e-07
1.6864804e-07
1.6844286e-07
1.6823461e-07
1.6802337e-07
1.6780918e-07
1.6759207e-07
1.673721e-07
1.6714937e-07
1.6692409e-07
1.6669666e-07
1.6646783e-07
1.6623892e-07
1.6601203e-07
1.6579041e-07
1.6557888e-07
1.6538442e-07
1.652168e-07
1.6508959e-07
1.6502124e-07
1.6503601e-07
1.6516554e-07
1.6545143e-07
1.6594827e-07
1.6672938e-07
1.6789413e-07
1.6957508e-07
1.7195119e-07
1.752683e-07
1.7986914e-07
1.8623663e-07
1.9507428e-07
2.0741531e-07
2.247612e-07
2.4928515e-07
2.841711e-07
3.3408851e-07
4.0576397e-07
5.0863523e-07
6.5408331e-07
8.5480106e-07
1.122665e-06
1.4656057e-06
1.8802959e-06
2.3510489e-06
2.8756156e-06
3.4693278e-06
4.1469015e-06
4.9425393e-06
5.896217e-06
6.990094e-06
8.2366911e-06
9.637004e-06
1.1178939e-05
1.2324372e-05
1.3446674e-05
1.465784e-05
1.5950366e-05
1.7315806e-05
1.8758447e-05
2.0247576e-05
2.1756784e-05
2.3270206e-05
2.4793339e-05
2.6355723e-05
2.7929601e-05
2.9503374e-05
3.1052256e-05
3.2578382e-05
3.4081072e-05
3.5559903e-05
3.7009747e-05
3.8419172e-05
3.9788698e-05
4.1112308e-05
4.2390126e-05
4.3619561e-05
4.4800933e-05
4.5939664e-05
4.7041019e-05
4.810898e-05
4.9041509e-05
4.9902339e-05
5.0731709e-05
5.1531568e-05
5.2303215e-05
5.3047688e-05
5.3762298e-05
5.4446985e-05
5.5104085e-05
5.5735401e-05
5.6342208e-05
5.692458e-05
5.7481359e-05
5.8013613e-05
5.852413e-05
5.9011722e-05
5.9476272e-05
5.991491e-05
6.0289706e-05
1.6884987e-07
1.6864775e-07
1.6844255e-07
1.6823432e-07
1.680231e-07
1.6780893e-07
1.6759183e-07
1.6737181e-07
1.6714887e-07
1.6692305e-07
1.6669438e-07
1.6646288e-07
1.6622863e-07
1.6599173e-07
1.6575233e-07
1.6551066e-07
1.6526708e-07
1.6502213e-07
1.6477659e-07
1.6453156e-07
1.6428862e-07
1.6404989e-07
1.6381826e-07
1.6359764e-07
1.6339336e-07
1.632127e-07
1.6306549e-07
1.6296509e-07
1.629299e-07
1.629856e-07
1.6316836e-07
1.6353077e-07
1.6415062e-07
1.6514312e-07
1.6668041e-07
1.690258e-07
1.7259095e-07
1.7803005e-07
1.8641938e-07
1.9951593e-07
2.2012592e-07
2.5274885e-07
3.0453546e-07
3.863561e-07
5.1356977e-07
7.0512838e-07
9.8112092e-07
1.3566311e-06
1.8330328e-06
2.3845911e-06
3.0012002e-06
3.6959765e-06
4.4872138e-06
5.4553768e-06
6.5847435e-06
7.871277e-06
9.3280876e-06
1.0952397e-05
1.2719137e-05
1.3969328e-05
1.5211272e-05
1.6547712e-05
1.7970487e-05
1.9479728e-05
2.1073174e-05
2.2712199e-05
2.4377256e-05
2.6051082e-05
2.7804064e-05
2.9589821e-05
3.1385589e-05
3.3163175e-05
3.4928225e-05
3.6683203e-05
3.8432227e-05
4.0160172e-05
4.1846754e-05
4.3489983e-05
4.509534e-05
4.6661412e-05
4.8183152e-05
4.9646507e-05
5.1052162e-05
5.240559e-05
5.3708668e-05
5.496467e-05
5.6181942e-05
5.726309e-05
5.8255308e-05
5.9212204e-05
6.0135808e-05
6.1027413e-05
6.1886308e-05
6.2709923e-05
6.3500696e-05
6.4261886e-05
6.4992504e-05
6.5692654e-05
6.6357342e-05
6.6948014e-05
1.688497e-07
1.6864754e-07
1.6844232e-07
1.6823409e-07
1.6802288e-07
1.6780871e-07
1.6759161e-07
1.6737159e-07
1.6714866e-07
1.6692284e-07
1.6669415e-07
1.664626e-07
1.6622823e-07
1.6599104e-07
1.6575108e-07
1.6550837e-07
1.6526296e-07
1.6501488e-07
1.647642e-07
1.6451101e-07
1.6425541e-07
1.6399756e-07
1.6373766e-07
1.6347596e-07
1.6321285e-07
1.6294882e-07
1.6268457e-07
1.6242102e-07
1.6215947e-07
1.6190172e-07
1.6165028e-07
1.6140879e-07
1.6118257e-07
1.6097943e-07
1.6081095e-07
1.6069466e-07
1.606577e-07
1.6074285e-07
1.6102025e-07
1.6160664e-07
1.626943e-07
1.6460706e-07
1.6790002e-07
1.7353565e-07
1.8320325e-07
1.9983555e-07
2.2845246e-07
2.7752831e-07
3.6088175e-07
4.9878942e-07
7.1684641e-07
1.0417228e-06
1.4905426e-06
2.0608711e-06
2.7110838e-06
3.4482394e-06
4.2811447e-06
5.2760288e-06
6.4971483e-06
7.8847666e-06
9.4506836e-06
1.1199209e-05
1.3109856e-05
1.4941442e-05
1.6246587e-05
1.7651722e-05
1.9153039e-05
2.0749273e-05
2.2455418e-05
2.4229224e-05
2.6042702e-05
2.7872364e-05
2.9799827e-05
3.1784766e-05
3.3792505e-05
3.579668e-05
3.7807294e-05
3.9821942e-05
4.1828145e-05
4.3805926e-05
4.5744247e-05
4.7655957e-05
4.9537473e-05
5.1371112e-05
5.3149125e-05
5.4876395e-05
5.6557929e-05
5.8175557e-05
5.97235e-05
6.1211927e-05
6.2647355e-05
6.4033647e-05
6.5329173e-05
6.6469694e-05
6.7569745e-05
6.8632517e-05
6.9657444e-05
7.0643299e-05
7.158451e-05
7.2440971e-05
1.6884958e-07
1.6864738e-07
1.6844215e-07
1.6823392e-07
1.680227e-07
1.6780854e-07
1.6759144e-07
1.6737142e-07
1.671485e-07
1.6692268e-07
1.6669399e-07
1.6646245e-07
1.6622807e-07
1.6599088e-07
1.657509e-07
1.6550816e-07
1.6526268e-07
1.6501449e-07
1.6476362e-07
1.645101e-07
1.6425396e-07
1.6399525e-07
1.63734e-07
1.6347026e-07
1.6320407e-07
1.6293551e-07
1.6266464e-07
1.6239157e-07
1.6211639e-07
1.6183927e-07
1.615604e-07
1.6128005e-07
1.609986e-07
1.6071661e-07
1.6043484e-07
1.6015448e-07
1.5987728e-07
1.5960596e-07
1.5934492e-07
1.5910133e-07
1.58887e-07
1.5872169e-07
1.5863933e-07
1.5869917e-07
1.5900733e-07
1.5975452e-07
1.6128344e-07
1.6421872e-07
1.6971239e-07
1.7989169e-07
1.986235e-07
2.328242e-07
2.9454356e-07
4.0404806e-07
5.8985263e-07
8.8614264e-07
1.3219071e-06
1.9048281e-06
2.6011046e-06
3.4049276e-06
4.3142823e-06
5.4039533e-06
6.7369238e-06
8.2946738e-06
1.0036564e-05
1.1969859e-05
1.407038e-05
1.6297206e-05
1.775721e-05
1.9266582e-05
2.0877755e-05
2.2593088e-05
2.4429879e-05
2.6345552e-05
2.8308998e-05
3.0314236e-05
3.2448553e-05
3.4651267e-05
3.6874326e-05
3.9105447e-05
4.1356648e-05
4.3622054e-05
4.5882913e-05
4.8116065e-05
5.0317279e-05
5.2488245e-05
5.4614994e-05
5.6696566e-05
5.8732251e-05
6.0714108e-05
6.2634746e-05
6.4495725e-05
6.6296742e-05
6.8019346e-05
6.967208e-05
7.1260301e-05
7.2806828e-05
7.4206792e-05
7.5472706e-05
7.6647728e-05
1.688495e-07
1.6864728e-07
1.6844204e-07
1.6823379e-07
1.6802258e-07
1.6780842e-07
1.6759132e-07
1.673713e-07
1.6714838e-07
1.6692256e-07
1.6669387e-07
1.6646233e-07
1.6622795e-07
1.6599076e-07
1.6575078e-07
1.6550804e-07
1.6526256e-07
1.6501437e-07
1.6476349e-07
1.6450996e-07
1.6425381e-07
1.6399507e-07
1.6373376e-07
1.6346993e-07
1.6320361e-07
1.6293483e-07
1.6266363e-07
1.6239006e-07
1.6211415e-07
1.6183595e-07
1.6155552e-07
1.6127289e-07
1.6098814e-07
1.6070133e-07
1.6041257e-07
1.6012195e-07
1.5982963e-07
1.5953582e-07
1.5924082e-07
1.5894511e-07
1.5864943e-07
1.5835499e-07
1.5806382e-07
1.5777944e-07
1.5750808e-07
1.5726101e-07
1.5705862e-07
1.569385e-07
1.5697098e-07
1.5728976e-07
1.5814908e-07
1.6003035e-07
1.6385295e-07
1.7140637e-07
1.8610726e-07
2.1437624e-07
2.6798959e-07
3.6773798e-07
5.4625225e-07
8.4540621e-07
1.3030146e-06
1.9315901e-06
2.6964151e-06
3.5949277e-06
4.618115e-06
5.8784386e-06
7.396505e-06
9.1866289e-06
1.1171952e-05
1.3348713e-05
1.5686251e-05
1.8144822e-05
1.9767341e-05
2.1413248e-05
2.3165782e-05
2.5033876e-05
2.7030166e-05
2.9109611e-05
3.1235948e-05
3.3468582e-05
3.5837824e-05
3.8260545e-05
4.0704267e-05
4.3186029e-05
4.570323e-05
4.8227851e-05
5.0728608e-05
5.3208379e-05
5.5673725e-05
5.8102688e-05
6.047686e-05
6.2797966e-05
6.5069645e-05
6.7290028e-05
6.9445706e-05
7.153014e-05
7.3562365e-05
7.5518452e-05
7.7321222e-05
7.9468701e-05
1.6884946e-07
1.6864721e-07
1.6844196e-07
1.6823372e-07
1.680225e-07
1.6780834e-07
1.6759124e-07
1.6737122e-07
1.671483e-07
1.6692248e-07
1.6669379e-07
1.6646224e-07
1.6622786e-07
1.6599067e-07
1.657507e-07
1.6550795e-07
1.6526247e-07
1.6501428e-07
1.647634e-07
1.6450987e-07
1.6425371e-07
1.6399496e-07
1.6373365e-07
1.6346981e-07
1.6320348e-07
1.6293469e-07
1.6266348e-07
1.6238989e-07
1.6211395e-07
1.6183569e-07
1.6155518e-07
1.6127243e-07
1.609875e-07
1.6070043e-07
1.6041127e-07
1.6012006e-07
1.5982685e-07
1.595317e-07
1.5923467e-07
1.5893583e-07
1.5863526e-07
1.5833308e-07
1.5802944e-07
1.577246e-07
1.5741894e-07
1.5711315e-07
1.5680842e-07
1.5650695e-07
1.5621282e-07
1.5593384e-07
1.5568505e-07
1.5549544e-07
1.5542134e-07
1.5557448e-07
1.5617729e-07
1.5767033e-07
1.6092843e-07
1.6771231e-07
1.8156334e-07
2.0945541e-07
2.6470506e-07
3.716691e-07
5.6960224e-07
9.106315e-07
1.438354e-06
2.158969e-06
3.037033e-06
4.0711937e-06
5.2927681e-06
6.7993038e-06
8.5917725e-06
1.0684887e-05
1.2979207e-05
1.5446443e-05
1.8057249e-05
2.059213e-05
2.2316193e-05
2.4129298e-05
2.6054908e-05
2.81191e-05
3.0303831e-05
3.2561851e-05
3.4899378e-05
3.741302e-05
4.0034543e-05
4.268851e-05
4.5390708e-05
4.8151284e-05
5.0938397e-05
5.37172e-05
5.6480496e-05
5.9226245e-05
6.1934799e-05
6.4601053e-05
6.7222859e-05
6.978296e-05
7.2284156e-05
7.473789e-05
7.7013119e-05
8.0061168e-05
1.6884944e-07
1.6864718e-07
1.6844192e-07
1.6823367e-07
1.6802246e-07
1.678083e-07
1.675912e-07
1.6737118e-07
1.6714825e-07
1.6692243e-07
1.6669374e-07
1.6646219e-07
1.6622781e-07
1.6599062e-07
1.6575064e-07
1.6550789e-07
1.6526241e-07
1.6501421e-07
1.6476333e-07
1.6450979e-07
1.6425364e-07
1.6399488e-07
1.6373357e-07
1.6346973e-07
1.632034e-07
1.6293461e-07
1.626634e-07
1.623898e-07
1.6211385e-07
1.618356e-07
1.6155508e-07
1.6127232e-07
1.6098739e-07
1.607003e-07
1.6041112e-07
1.6011988e-07
1.5982663e-07
1.5953141e-07
1.5923426e-07
1.5893524e-07
1.586344e-07
1.5833177e-07
1.5802742e-07
1.5772141e-07
1.5741378e-07
1.5710464e-07
1.5679409e-07
1.5648228e-07
1.561695e-07
1.5585621e-07
1.555433e-07
1.5523246e-07
1.5492699e-07
1.5463342e-07
1.5436503e-07
1.5414856e-07
1.5403823e-07
1.5414546e-07
1.5470188e-07
1.561878e-07
1.5959638e-07
1.6700556e-07
1.8275397e-07
2.1577152e-07
2.8365425e-07
4.1921724e-07
6.7429784e-07
1.1132513e-06
1.7774929e-06
2.639434e-06
3.685339e-06
4.9207582e-06
6.462735e-06
8.3072014e-06
1.0476565e-05
1.2944086e-05
1.5583617e-05
1.8372525e-05
2.128457e-05
2.3554427e-05
2.5459493e-05
2.7470304e-05
2.9615515e-05
3.1909152e-05
3.4301959e-05
3.6763976e-05
3.9430125e-05
4.2251078e-05
4.5117102e-05
4.8051228e-05
5.1066689e-05
5.411734e-05
5.7164707e-05
6.0208813e-05
6.3246242e-05
6.6244012e-05
6.919602e-05
7.2119363e-05
7.484153e-05
7.8510959e-05
1.6884944e-07
1.6864717e-07
1.6844191e-07
1.6823366e-07
1.6802244e-07
1.6780828e-07
1.6759118e-07
1.6737116e-07
1.6714823e-07
1.6692241e-07
1.6669372e-07
1.6646217e-07
1.6622779e-07
1.6599059e-07
1.6575061e-07
1.6550786e-07
1.6526237e-07
1.6501417e-07
1.6476329e-07
1.6450975e-07
1.6425359e-07
1.6399483e-07
1.6373352e-07
1.6346967e-07
1.6320334e-07
1.6293454e-07
1.6266332e-07
1.6238972e-07
1.6211378e-07
1.6183552e-07
1.6155499e-07
1.6127224e-07
1.609873e-07
1.6070022e-07
1.6041103e-07
1.6011979e-07
1.5982654e-07
1.5953131e-07
1.5923416e-07
1.5893513e-07
1.5863427e-07
1.5833163e-07
1.5802724e-07
1.5772116e-07
1.5741343e-07
1.5710411e-07
1.5679324e-07
1.5648087e-07
1.5616706e-07
1.5585188e-07
1.5553542e-07
1.5521781e-07
1.5489928e-07
1.5458024e-07
1.5426147e-07
1.5394454e-07
1.5363265e-07
1.5333245e-07
1.5305791e-07
1.5283861e-07
1.5273699e-07
1.528867e-07
1.5357689e-07
1.5543358e-07
1.5980754e-07
1.6965458e-07
1.9137065e-07
2.3856699e-07
3.3864242e-07
5.4059602e-07
9.158604e-07
1.5332958e-06
2.3969697e-06
3.475683e-06
4.7532775e-06
6.3654877e-06
8.3160083e-06
1.0616484e-05
1.3257681e-05
1.611868e-05
1.9119912e-05
2.2247686e-05
2.5121392e-05
2.7168562e-05
2.9282063e-05
3.1529705e-05
3.3946848e-05
3.6480965e-05
3.9090796e-05
4.1934018e-05
4.4963472e-05
4.8054678e-05
5.1234433e-05
5.4510359e-05
5.7830911e-05
6.1158676e-05
6.4495289e-05
6.7838169e-05
7.0987291e-05
7.5136403e-05
1.6884946e-07
1.6864718e-07
1.6844192e-07
1.6823367e-07
1.6802245e-07
1.6780829e-07
1.6759119e-07
1.6737117e-07
1.6714824e-07
1.6692242e-07
1.6669372e-07
1.6646217e-07
1.6622778e-07
1.6599059e-07
1.657506e-07
1.6550785e-07
1.6526236e-07
1.6501415e-07
1.6476326e-07
1.6450972e-07
1.6425356e-07
1.639948e-07
1.6373348e-07
1.6346963e-07
1.6320329e-07
1.6293449e-07
1.6266327e-07
1.6238967e-07
1.6211372e-07
1.6183546e-07
1.6155493e-07
1.6127218e-07
1.6098723e-07
1.6070015e-07
1.6041096e-07
1.6011972e-07
1.5982646e-07
1.5953124e-07
1.5923409e-07
1.5893506e-07
1.586342e-07
1.5833155e-07
1.5802716e-07
1.5772108e-07
1.5741335e-07
1.5710402e-07
1.5679313e-07
1.5648073e-07
1.5616687e-07
1.5585159e-07
1.5553494e-07
1.5521697e-07
1.5489774e-07
1.5457731e-07
1.5425577e-07
1.5393323e-07
1.5360992e-07
1.5328625e-07
1.5296306e-07
1.5264211e-07
1.5232714e-07
1.5202623e-07
1.5175715e-07
1.5155909e-07
1.5151848e-07
1.5182919e-07
1.5292906e-07
1.5580706e-07
1.6270427e-07
1.7869533e-07
2.1510865e-07
2.9635592e-07
4.7046322e-07
8.1435924e-07
1.4132973e-06
2.3001445e-06
3.4372207e-06
4.7981715e-06
6.5260974e-06
8.635652e-06
1.1125294e-05
1.39785e-05
1.7097883e-05
2.0346038e-05
2.3713968e-05
2.7055613e-05
2.926214e-05
3.1495888e-05
3.3871186e-05
3.6430257e-05
3.91157e-05
4.1908675e-05
4.4963584e-05
4.8213033e-05
5.1546941e-05
5.499537e-05
5.8552172e-05
6.2168671e-05
6.5666224e-05
7.0153001e-05
1.688495e-07
1.6864721e-07
1.6844194e-07
1.682337e-07
1.6802248e-07
1.6780832e-07
1.6759122e-07
1.673712e-07
1.6714827e-07
1.6692244e-07
1.6669374e-07
1.6646219e-07
1.662278e-07
1.659906e-07
1.6575061e-07
1.6550786e-07
1.6526236e-07
1.6501416e-07
1.6476326e-07
1.6450972e-07
1.6425355e-07
1.6399478e-07
1.6373346e-07
1.6346961e-07
1.6320326e-07
1.6293446e-07
1.6266324e-07
1.6238963e-07
1.6211368e-07
1.6183541e-07
1.6155488e-07
1.6127213e-07
1.6098718e-07
1.6070009e-07
1.6041091e-07
1.6011966e-07
1.598264e-07
1.5953118e-07
1.5923403e-07
1.58935e-07
1.5863413e-07
1.5833149e-07
1.580271e-07
1.5772102e-07
1.5741328e-07
1.5710395e-07
1.5679306e-07
1.5648066e-07
1.5616679e-07
1.5585151e-07
1.5553486e-07
1.5521687e-07
1.5489761e-07
1.5457711e-07
1.5425541e-07
1.5393258e-07
1.5360865e-07
1.532837e-07
1.5295781e-07
1.5263111e-07
1.5230385e-07
1.5197654e-07
1.5165025e-07
1.5132733e-07
1.5101304e-07
1.5071931e-07
1.5047355e-07
1.5033888e-07
1.5046168e-07
1.5118526e-07
1.5331739e-07
1.587609e-07
1.7203319e-07
2.0367273e-07
2.7740076e-07
4.4312788e-07
7.8603519e-07
1.4064983e-06
2.3486439e-06
3.578513e-06
5.0699824e-06
6.9758202e-06
9.3059323e-06
1.2049124e-05
1.5169033e-05
1.8577331e-05
2.2099412e-05
2.5730746e-05
2.9372148e-05
3.1741122e-05
3.4117121e-05
3.6650789e-05
3.937638e-05
4.2228983e-05
4.5250745e-05
4.8554778e-05
5.2041946e-05
5.5657935e-05
5.9325685e-05
6.388157e-05
1.6884954e-07
1.6864726e-07
1.6844199e-07
1.6823374e-07
1.6802253e-07
1.6780837e-07
1.6759127e-07
1.6737124e-07
1.6714831e-07
1.6692249e-07
1.6669379e-07
1.6646223e-07
1.6622784e-07
1.6599064e-07
1.6575064e-07
1.6550789e-07
1.6526239e-07
1.6501418e-07
1.6476328e-07
1.6450973e-07
1.6425355e-07
1.6399479e-07
1.6373346e-07
1.634696e-07
1.6320325e-07
1.6293445e-07
1.6266322e-07
1.6238961e-07
1.6211365e-07
1.6183538e-07
1.6155485e-07
1.6127209e-07
1.6098714e-07
1.6070005e-07
1.6041086e-07
1.6011962e-07
1.5982636e-07
1.5953113e-07
1.5923397e-07
1.5893494e-07
1.5863408e-07
1.5833143e-07
1.5802704e-07
1.5772096e-07
1.5741323e-07
1.5710389e-07
1.56793e-07
1.564806e-07
1.5616674e-07
1.5585145e-07
1.555348e-07
1.5521681e-07
1.5489755e-07
1.5457704e-07
1.5425534e-07
1.5393249e-07
1.5360854e-07
1.5328352e-07
1.5295748e-07
1.5263047e-07
1.5230255e-07
1.5197377e-07
1.5164423e-07
1.5131412e-07
1.5098375e-07
1.5065388e-07
1.5032615e-07
1.5000442e-07
1.4969773e-07
1.4942762e-07
1.4924586e-07
1.4927683e-07
1.4982446e-07
1.5163452e-07
1.565285e-07
1.6901936e-07
2.0008811e-07
2.7545838e-07
4.5124383e-07
8.2624577e-07
1.5160169e-06
2.5578359e-06
3.9239712e-06
5.6106737e-06
7.7591461e-06
1.0384777e-05
1.3450555e-05
1.689083e-05
2.0611331e-05
2.4429226e-05
2.8346809e-05
3.2094258e-05
3.4626833e-05
3.7170936e-05
3.9896536e-05
4.280902e-05
4.5848541e-05
4.9157512e-05
5.2737284e-05
5.6921767e-05
1.688496e-07
1.6864731e-07
1.6844204e-07
1.682338e-07
1.6802259e-07
1.6780843e-07
1.6759133e-07
1.6737131e-07
1.6714837e-07
1.6692255e-07
1.6669384e-07
1.6646229e-07
1.6622789e-07
1.6599069e-07
1.6575069e-07
1.6550793e-07
1.6526243e-07
1.6501421e-07
1.6476331e-07
1.6450976e-07
1.6425358e-07
1.639948e-07
1.6373347e-07
1.6346961e-07
1.6320326e-07
1.6293445e-07
1.6266321e-07
1.623896e-07
1.6211364e-07
1.6183537e-07
1.6155483e-07
1.6127206e-07
1.6098712e-07
1.6070002e-07
1.6041083e-07
1.6011958e-07
1.5982632e-07
1.5953109e-07
1.5923393e-07
1.589349e-07
1.5863404e-07
1.5833139e-07
1.58027e-07
1.5772091e-07
1.5741318e-07
1.5710384e-07
1.5679295e-07
1.5648055e-07
1.5616669e-07
1.558514e-07
1.5553474e-07
1.5521676e-07
1.5489749e-07
1.5457699e-07
1.5425529e-07
1.5393244e-07
1.5360848e-07
1.5328346e-07
1.5295741e-07
1.5263039e-07
1.5230243e-07
1.5197357e-07
1.5164387e-07
1.5131335e-07
1.5098209e-07
1.5065016e-07
1.5031769e-07
1.4998493e-07
1.4965245e-07
1.4932157e-07
1.4899546e-07
1.4868185e-07
1.4839988e-07
1.4819752e-07
1.4819456e-07
1.4869542e-07
1.5047796e-07
1.5551907e-07
1.6890502e-07
2.035049e-07
2.9049537e-07
4.987737e-07
9.4825547e-07
1.7667226e-06
2.9726751e-06
4.5237771e-06
6.4865262e-06
8.9604697e-06
1.1958247e-05
1.5410264e-05
1.9214567e-05
2.3261612e-05
2.7391524e-05
3.1616364e-05
3.5258956e-05
3.7946386e-05
4.069257e-05
4.3632186e-05
4.6821934e-05
5.0148536e-05
1.6884966e-07
1.6864738e-07
1.6844211e-07
1.6823387e-07
1.6802266e-07
1.678085e-07
1.6759141e-07
1.6737138e-07
1.6714845e-07
1.6692262e-07
1.6669392e-07
1.6646236e-07
1.6622796e-07
1.6599075e-07
1.6575075e-07
1.6550799e-07
1.6526248e-07
1.6501426e-07
1.6476336e-07
1.645098e-07
1.6425361e-07
1.6399484e-07
1.637335e-07
1.6346963e-07
1.6320327e-07
1.6293446e-07
1.6266322e-07
1.623896e-07
1.6211363e-07
1.6183536e-07
1.6155482e-07
1.6127205e-07
1.609871e-07
1.607e-07
1.6041081e-07
1.6011956e-07
1.5982629e-07
1.5953106e-07
1.592339e-07
1.5893487e-07
1.5863401e-07
1.5833135e-07
1.5802696e-07
1.5772088e-07
1.5741314e-07
1.571038e-07
1.5679291e-07
1.5648051e-07
1.5616664e-07
1.5585136e-07
1.555347e-07
1.5521671e-07
1.5489745e-07
1.5457694e-07
1.5425524e-07
1.5393239e-07
1.5360843e-07
1.5328341e-07
1.5295736e-07
1.5263034e-07
1.5230238e-07
1.5197352e-07
1.516438e-07
1.5131327e-07
1.5098196e-07
1.5064992e-07
1.5031718e-07
1.499838e-07
1.4964985e-07
1.4931543e-07
1.4898076e-07
1.4864633e-07
1.4831332e-07
1.4798469e-07
1.4766792e-07
1.4738233e-07
1.4717826e-07
1.471867e-07
1.4775365e-07
1.497991e-07
1.5575603e-07
1.7211522e-07
2.1587657e-07
3.2925793e-07
6.0417378e-07
1.1887086e-06
2.2038832e-06
3.6345039e-06
5.4462454e-06
7.7885806e-06
1.0681744e-05
1.4126336e-05
1.8007828e-05
2.2208385e-05
2.6592521e-05
3.1049914e-05
3.5608363e-05
3.889535e-05
4.1883953e-05
4.4487373e-05
1.6884973e-07
1.6864745e-07
1.6844219e-07
1.6823395e-07
1.6802275e-07
1.6780859e-07
1.6759149e-07
1.6737147e-07
1.6714853e-07
1.669227e-07
1.66694e-07
1.6646244e-07
1.6622804e-07
1.6599083e-07
1.6575082e-07
1.6550806e-07
1.6526255e-07
1.6501432e-07
1.6476341e-07
1.6450985e-07
1.6425366e-07
1.6399488e-07
1.6373354e-07
1.6346967e-07
1.632033e-07
1.6293448e-07
1.6266324e-07
1.6238962e-07
1.6211364e-07
1.6183537e-07
1.6155482e-07
1.6127205e-07
1.609871e-07
1.607e-07
1.604108e-07
1.6011954e-07
1.5982628e-07
1.5953104e-07
1.5923388e-07
1.5893485e-07
1.5863398e-07
1.5833133e-07
1.5802693e-07
1.5772085e-07
1.5741311e-07
1.5710377e-07
1.5679288e-07
1.5648047e-07
1.5616661e-07
1.5585132e-07
1.5553466e-07
1.5521668e-07
1.5489741e-07
1.545769e-07
1.542552e-07
1.5393235e-07
1.5360839e-07
1.5328336e-07
1.5295732e-07
1.5263029e-07
1.5230233e-07
1.5197347e-07
1.5164375e-07
1.5131322e-07
1.5098191e-07
1.5064986e-07
1.5031711e-07
1.499837e-07
1.4964967e-07
1.4931505e-07
1.489799e-07
1.4864427e-07
1.4830827e-07
1.4797209e-07
1.4763622e-07
1.4730185e-07
1.4697211e-07
1.4665524e-07
1.4637339e-07
1.4618665e-07
1.4625776e-07
1.4703408e-07
1.4975284e-07
1.5782248e-07
1.8063957e-07
2.4344782e-07
4.0923941e-07
8.0705738e-07
1.6115253e-06
2.8945372e-06
4.608315e-06
6.8179895e-06
9.6268205e-06
1.3039814e-05
1.6996258e-05
2.1337497e-05
2.5962143e-05
3.0677172e-05
3.5566388e-05
3.9581421e-05
1.6884981e-07
1.6864753e-07
1.6844227e-07
1.6823404e-07
1.6802284e-07
1.6780868e-07
1.6759159e-07
1.6737156e-07
1.6714863e-07
1.669228e-07
1.6669409e-07
1.6646253e-07
1.6622813e-07
1.6599091e-07
1.6575091e-07
1.6550813e-07
1.6526262e-07
1.6501439e-07
1.6476348e-07
1.6450991e-07
1.6425372e-07
1.6399493e-07
1.6373358e-07
1.6346971e-07
1.6320334e-07
1.6293452e-07
1.6266327e-07
1.6238964e-07
1.6211366e-07
1.6183538e-07
1.6155483e-07
1.6127206e-07
1.609871e-07
1.607e-07
1.604108e-07
1.6011954e-07
1.5982627e-07
1.5953103e-07
1.5923387e-07
1.5893483e-07
1.5863397e-07
1.5833131e-07
1.5802691e-07
1.5772082e-07
1.5741309e-07
1.5710375e-07
1.5679285e-07
1.5648045e-07
1.5616658e-07
1.5585129e-07
1.5553463e-07
1.5521664e-07
1.5489737e-07
1.5457686e-07
1.5425516e-07
1.5393231e-07
1.5360835e-07
1.5328332e-07
1.5295728e-07
1.5263025e-07
1.5230229e-07
1.5197343e-07
1.5164371e-07
1.5131318e-07
1.5098186e-07
1.5064981e-07
1.5031706e-07
1.4998365e-07
1.4964961e-07
1.4931499e-07
1.4897981e-07
1.4864412e-07
1.4830794e-07
1.4797134e-07
1.4763436e-07
1.472971e-07
1.4695979e-07
1.4662293e-07
1.4628791e-07
1.459585e-07
1.4564503e-07
1.4537643e-07
1.4523445e-07
1.4544992e-07
1.466826e-07
1.5082461e-07
1.6330109e-07
1.9948349e-07
3.0116976e-07
5.690639e-07
1.1818993e-06
2.3040732e-06
3.9321543e-06
6.0380537e-06
8.780222e-06
1.2169019e-05
1.6194576e-05
2.0678157e-05
2.5592613e-05
3.057581e-05
1.6884989e-07
1.6864762e-07
1.6844237e-07
1.6823413e-07
1.6802294e-07
1.6780878e-07
1.6759169e-07
1.6737167e-07
1.6714873e-07
1.669229e-07
1.6669419e-07
1.6646263e-07
1.6622823e-07