/*--------------------------------*- C++ -*----------------------------------*\
  =========                 |
  \\      /  F ield         | OpenFOAM: The Open Source CFD Toolbox
   \\    /   O peration     | Website:  https://openfoam.org
    \\  /    A nd           | Version:  12
     \\/     M anipulation  |
\*---------------------------------------------------------------------------*/
FoamFile
{
    format      ascii;
    class       volScalarField;
    location    "2000";
    object      omega;
}
// * * * * * * * * * * * * * * * * * * * * * * * * * * * * * * * * * * * * * //

dimensions      [0 0 -1 0 0 0 0];

internalField   nonuniform List<scalar> 
7480
(
99.668428
99.668428
99.668428
99.668428
467.269
658.57337
782.37813
862.97031
913.97662
944.62154
961.56048
969.17531
970.42105
967.32152
961.29026
953.31939
944.11812
934.25534
924.36239
914.50405
904.81141
895.32388
886.19508
877.57077
869.5568
862.22559
855.61485
849.72635
844.5333
839.98825
836.02908
832.58824
829.60651
827.03427
824.80984
822.85972
821.10552
819.48137
817.93919
816.44482
814.9675
813.4792
811.95817
810.38805
808.7606
807.07251
805.3204
803.49345
801.58105
799.58384
797.51117
795.37206
793.17391
790.92911
788.65703
786.3736
784.08415
781.78951
779.49433
777.20595
774.9278
772.66195
770.41434
768.19108
765.99274
763.81899
761.67034
759.54377
757.43393
755.34025
753.26612
751.21132
749.17608
747.16538
745.17735
743.20666
741.25373
739.31745
737.39605
735.49324
733.6104
731.74543
729.89864
728.06757
726.24996
724.44792
722.66253
720.89389
719.14041
717.40018
715.67379
713.96078
712.26195
710.57504
708.90185
707.2237
705.60052
703.86202
702.32812
699.9945
53.580974
53.535217
53.495941
53.440167
60.466321
74.605049
96.919871
126.8878
163.04776
203.17515
244.37296
284.24907
318.85058
346.79322
369.58268
388.71501
404.52706
415.61896
423.15033
426.11314
427.71404
430.6196
434.66177
439.16463
443.57148
447.34682
450.10828
451.63832
451.84219
450.72775
448.3896
444.99698
440.78234
436.04844
430.91599
425.3741
419.36407
413.12298
406.81342
400.55249
394.43897
388.54861
382.93314
377.6104
372.58102
367.84147
363.38628
359.25703
355.44147
351.91616
348.65832
345.64356
342.84329
340.22665
337.76964
335.44992
333.24157
331.12961
329.10351
327.15845
325.29231
323.49848
321.76874
320.09718
318.47986
316.91001
315.37751
313.88004
312.41755
310.98971
309.59802
308.24435
306.92491
305.63827
304.38331
303.1542
301.94873
300.76979
299.61653
298.48793
297.38586
296.3069
295.24788
294.20946
293.19039
292.19057
291.21085
290.24966
289.30585
288.37772
287.46518
286.56883
285.688
284.82133
283.9698
283.12467
282.30346
281.48135
280.74401
279.43432
52.974409
52.262339
51.558609
50.863155
50.289552
50.016812
50.328808
51.531381
53.894429
57.794958
63.498033
71.147445
80.696435
91.94284
104.62332
118.44154
133.06922
147.694
160.98761
172.8785
183.72168
194.30348
205.13908
216.60021
228.96711
240.39313
249.98756
257.91506
264.26319
269.05582
272.25655
273.77164
273.51918
271.63539
268.57759
265.10858
261.96192
258.98631
256.07117
253.12489
250.15881
247.21193
244.19404
240.96401
237.61212
234.21275
230.82939
227.53384
224.3942
221.41669
218.59458
215.91865
213.3816
210.98022
208.71088
206.57606
204.5766
202.69534
200.91735
199.23309
197.63557
196.1156
194.66282
193.26865
191.92784
190.63475
189.38088
188.16634
186.99196
185.85693
184.7603
183.70115
182.67574
181.68165
180.71508
179.77242
178.85334
177.95989
177.09173
176.24766
175.42793
174.62897
173.84782
173.08504
172.34062
171.61452
170.90699
170.21613
169.54037
168.87879
168.2315
167.59903
166.98073
166.3752
165.78226
165.19903
164.6296
164.07377
163.56194
162.7916
52.965649
52.234581
51.502635
50.770325
50.039696
49.315473
48.607224
47.930897
47.30928
46.780519
46.393114
46.204565
46.277468
46.675016
47.45996
48.697233
50.459454
52.804077
55.761202
59.359203
63.631209
68.638885
74.467022
81.221012
89.024929
97.347702
106.06171
115.07601
124.34396
133.86325
143.66849
153.79953
162.76218
170.00405
175.63686
179.92083
183.16428
185.40953
186.67336
186.93752
186.22703
184.69873
182.81769
181.00306
179.16065
177.22841
175.21785
173.17887
171.12256
168.90507
166.59855
164.26067
161.93959
159.68075
157.49754
155.38877
153.36376
151.42918
149.58853
147.84358
146.18844
144.61227
143.10428
141.65816
140.27206
138.94474
137.68154
136.47521
135.32086
134.21451
133.15272
132.13207
131.1482
130.1982
129.2786
128.38816
127.52704
126.69572
125.89301
125.11702
124.36682
123.63841
122.92961
122.24125
121.57349
120.92594
120.29823
119.68795
119.09337
118.51412
117.95043
117.40252
116.86956
116.34981
115.84287
115.34759
114.86524
114.39736
113.96867
113.37255
52.965698
52.234214
51.501517
50.76794
50.033813
49.299522
48.565563
47.832735
47.102165
46.375601
45.655657
44.94607
44.251962
43.57994
42.938225
42.337094
41.789199
41.310241
40.917905
40.632264
40.475743
40.47523
40.664233
41.085039
41.795209
42.849303
44.310067
46.253162
48.773086
51.988632
56.048024
61.137902
67.351803
74.20122
81.597211
89.49012
97.886748
106.82535
115.66935
123.16483
129.20264
133.76144
137.05117
139.3976
140.8864
141.55993
141.47922
140.74292
139.6154
138.43251
137.12788
135.69201
134.16414
132.62329
131.00756
129.27374
127.47434
125.66158
123.88287
122.15844
120.4808
118.84647
117.25753
115.72216
114.24611
112.82737
111.46847
110.16881
108.92731
107.74099
106.60499
105.51402
104.46437
103.45361
102.48742
101.56337
100.67727
99.826666
99.009003
98.221555
97.462425
96.728757
96.019788
95.335865
94.676204
94.039602
93.425007
92.829704
92.25237
91.692998
91.151541
90.627686
90.120244
89.627265
89.148511
88.683403
88.232326
87.795746
87.396898
86.873999
52.965948
52.234496
51.501799
50.768171
50.033913
49.29934
48.564766
47.830509
47.096908
46.364323
45.633149
44.903837
44.176922
43.453039
42.732961
42.017632
41.308224
40.606196
39.913364
39.231971
38.564715
37.914859
37.286312
36.68412
36.115022
35.587694
35.113578
34.7069
34.386547
34.177988
34.115822
34.248604
34.641177
35.362025
36.50047
38.17931
40.570879
43.914757
48.50174
54.36218
61.062171
68.466107
76.461048
84.81428
92.496032
98.958819
104.1088
107.90116
110.48161
112.23588
113.24628
113.59224
113.36508
112.69993
111.87647
110.94765
109.8903
108.72645
107.52044
106.26592
104.8993
103.46929
102.0177
100.58107
99.167916
97.770818
96.390055
95.040775
93.736219
92.477615
91.26174
90.086396
88.953009
87.861509
86.81546
85.814472
84.856117
83.938282
83.057896
82.211644
81.397054
80.617562
79.871865
79.156987
78.470403
77.810092
77.174291
76.56108
75.96996
75.400561
74.85198
74.3232
73.812692
73.318697
72.841211
72.379661
71.933786
71.502949
71.109091
70.617152
52.966241
52.234829
51.502144
50.768512
50.034242
49.299651
48.565052
47.830752
47.097063
46.364302
45.632785
44.902828
44.17476
43.44891
42.725607
42.005187
41.287997
40.574397
39.864771
39.159528
38.459114
37.764014
37.074766
36.391983
35.716398
35.048901
34.390589
33.74284
33.107443
32.486798
31.884181
31.303981
30.752715
30.239202
29.776228
29.382565
29.085903
28.928371
28.974953
29.313365
30.048082
31.326435
33.36334
36.456625
40.954489
46.675215
53.272227
60.544902
68.154966
75.119517
80.979241
85.667475
89.163826
91.507341
93.008368
93.886369
94.224037
94.102892
93.630191
93.000101
92.270452
91.433105
90.515064
89.563293
88.546578
87.432895
86.257899
85.061632
83.867474
82.671214
81.477928
80.299867
79.149069
78.028404
76.935452
75.873646
74.848627
73.862293
72.912764
71.99803
71.117256
70.273545
69.466875
68.694745
67.954687
67.244524
66.561809
65.908374
65.28372
64.685105
64.110359
63.557819
63.025974
62.514009
62.021678
61.547845
61.091532
60.651404
60.248277
59.764585
52.966564
52.2352
51.502541
50.768922
50.034656
49.30006
48.565448
47.83113
47.097419
46.364631
45.633082
44.903089
44.174967
43.449033
42.725595
42.004962
41.287437
40.573317
39.862896
39.156467
38.454316
37.756726
37.063974
36.376337
35.69409
35.017514
34.346896
33.682536
33.02475
32.373886
31.730344
31.094596
30.467247
29.849079
29.241145
28.644932
28.062628
27.497577
26.955132
26.443315
25.974281
25.567372
25.25462
25.087667
25.149587
25.549208
26.432142
28.014902
30.614562
34.616628
39.836344
45.933918
52.674711
59.362237
65.222186
70.030262
73.774666
76.491727
78.245792
79.282192
79.836042
79.983854
79.801305
79.389604
78.876606
78.271093
77.575658
76.823026
76.032602
75.132554
74.163394
73.163294
72.152154
71.129278
70.095246
69.062443
68.044733
67.04694
66.07075
65.11979
64.198209
63.305802
62.44389
61.61433
60.817453
60.051963
59.315814
58.610784
57.93733
57.293041
56.675562
56.083041
55.514865
54.972425
54.453264
53.955259
53.476707
53.016238
52.594108
52.103332
52.966907
52.235595
51.502966
50.769364
50.035104
49.300504
48.565882
47.83155
47.097825
46.365022
45.633459
44.903451
44.175314
43.449363
42.725906
42.00525
41.287697
40.57354
39.863071
39.156574
38.454327
37.756601
37.063657
36.37575
35.693125
35.016023
34.344676
33.679311
33.020144
32.367388
31.721248
31.081925
30.449623
29.824546
29.20691
28.596944
27.994913
27.401141
26.816058
26.240281
25.674706
25.12071
24.580538
24.057984
23.559713
23.096248
22.684624
22.354994
22.159818
22.187408
22.556657
23.433454
25.073061
27.84423
32.026362
37.174488
43.066925
49.142885
54.686527
59.251147
62.818928
65.452937
67.238
68.292999
68.858278
69.088653
69.040345
68.770868
68.386812
67.918869
67.364505
66.750159
66.093123
65.351764
64.540341
63.690641
62.818816
61.924467
61.016494
60.108699
59.211219
58.323959
57.450487
56.59796
55.770379
54.968521
54.193154
53.444926
52.725039
52.03367
51.370281
50.733715
50.123241
49.540228
48.983123
48.449778
47.937876
47.447376
46.998739
46.487254
52.967264
52.236004
51.503409
50.769825
50.035573
49.300973
48.566344
47.832003
47.098265
46.365449
45.633871
44.903847
44.175695
43.449727
42.726253
42.005579
41.288008
40.573833
39.863345
39.156829
38.454562
37.756814
37.063846
36.37591
35.693252
35.01611
34.344712
33.67928
33.020025
32.36715
31.720849
31.081307
30.448699
29.823197
29.204959
28.594139
27.99088
27.395321
26.807596
26.227844
25.656213
25.092867
24.538011
23.991932
23.455072
22.928141
22.412304
21.909592
21.423696
20.961523
20.534803
20.163046
19.883049
19.761747
19.908368
20.466596
21.660443
23.830439
27.38473
31.928158
37.236455
42.70652
47.698353
51.833041
55.008077
57.325213
58.895744
59.828968
60.300761
60.504574
60.482249
60.274105
59.964278
59.578021
59.116383
58.59697
58.032622
57.384198
56.676652
55.934393
55.169091
54.379135
53.57532
52.76964
51.967975
51.174674
50.395993
49.634819
48.892639
48.172352
47.476579
46.805768
46.159326
45.537642
44.941636
44.370536
43.822477
43.296716
42.815561
42.26663
52.967632
52.236425
51.503865
50.770301
50.036059
49.301461
48.566827
47.832477
47.098728
46.365898
45.634306
44.904268
44.1761
43.450117
42.726627
42.005938
41.288349
40.574158
39.863654
39.157121
38.454838
37.757073
37.064087
36.376135
35.693461
35.016302
34.344888
33.67944
33.020168
32.367276
31.720955
31.081391
30.448757
29.823222
29.204943
28.594066
27.990728
27.395058
26.807172
26.227181
25.655187
25.091282
24.535553
23.98808
23.448944
22.918233
22.396056
21.882562
21.377988
20.882749
20.397587
19.923818
19.463915
19.022715
18.609622
18.240409
17.944567
17.780021
17.851124
18.298308
19.344446
21.335217
24.628382
28.892458
33.871547
38.79026
43.141135
46.683676
49.321645
51.188681
52.418798
53.127175
53.469519
53.590073
53.538056
53.345327
53.071382
52.727542
52.318305
51.855315
51.344995
50.759136
50.128019
49.46562
48.774997
48.06479
47.34673
46.626573
45.907459
45.195963
44.497964
43.816043
43.152093
42.507599
41.884504
41.284031
40.706189
40.148535
39.636054
39.045301
52.96801
52.236854
51.50433
50.770788
50.036558
49.301962
48.567325
47.832968
47.099208
46.366367
45.634761
44.904709
44.176526
43.450527
42.727021
42.006315
41.288711
40.574503
39.863982
39.157432
38.455131
37.757349
37.064346
36.376378
35.693688
35.016514
34.345085
33.679623
33.020338
32.367433
31.721101
31.081526
30.448882
29.823337
29.205047
28.594159
27.990811
27.395128
26.807227
26.227217
25.655198
25.091257
24.535474
23.987917
23.448648
22.917719
22.395178
21.881063
21.37541
20.878257
20.389655
19.909681
19.438475
18.976306
18.523714
18.08173
17.652342
17.239636
16.852071
16.504855
16.22661
16.076466
16.161768
16.636832
17.754397
19.906114
23.24182
27.472798
32.097945
36.430593
40.082082
42.932251
44.965915
46.33643
47.193918
47.657213
47.849207
47.881743
47.780207
47.583557
47.32081
46.996128
46.616198
46.19048
45.701536
45.1601
44.582808
43.976695
43.346556
42.702493
42.052192
41.400389
40.753206
40.114786
39.488003
38.876506
38.282999
37.705117
37.170772
36.549276
52.968397
52.237291
51.504803
50.771284
50.037066
49.302475
48.567836
47.833472
47.099703
46.36685
45.635231
44.905165
44.176967
43.450953
42.727431
42.006709
41.289087
40.574862
39.864324
39.157758
38.455439
37.75764
37.064621
36.376636
35.69393
35.016741
34.345297
33.679821
33.020523
32.367606
31.721262
31.081676
30.449023
29.823468
29.20517
28.594274
27.990918
27.395228
26.807321
26.227304
25.655278
25.09133
24.535539
23.987974
23.448693
22.917749
22.395183
21.881031
21.375315
20.878053
20.389256
19.90893
19.437075
18.973692
18.518791
18.072407
17.634627
17.205655
16.785956
16.376489
15.979201
15.598288
15.24275
14.929433
14.692287
14.603505
14.785347
15.430117
16.8543
19.471749
23.04513
27.306963
31.462403
35.044871
37.891252
39.984634
41.390808
42.286182
42.800826
43.048931
43.110395
43.060986
42.915209
42.7062
42.440684
42.122266
41.755737
41.340091
40.868896
40.35877
39.819005
39.254302
38.67433
38.085715
37.492689
36.901665
36.318021
35.740914
35.201747
34.567412
52.968792
52.237733
51.505281
50.771786
50.037582
49.302997
48.568358
47.833988
47.100211
46.367346
45.635715
44.905635
44.177422
43.451392
42.727855
42.007116
41.289477
40.575236
39.86468
39.158096
38.455761
37.757944
37.064908
36.376906
35.694183
35.016978
34.34552
33.68003
33.020718
32.367788
31.721433
31.081836
30.449172
29.823609
29.205302
28.594398
27.991035
27.395338
26.807424
26.227402
25.655369
25.091416
24.53562
23.98805
23.448764
22.917815
22.395244
21.881085
21.375363
20.878091
20.389281
19.908933
19.437039
18.973587
18.518555
18.071921
17.633656
17.203734
16.782136
16.368872
15.964007
15.567735
15.180546
14.803516
14.438967
14.092208
13.77472
13.508305
13.342565
13.378461
13.771959
14.796384
16.895605
20.003715
23.891195
27.800673
31.232537
33.96753
35.988006
37.357716
38.218969
38.725422
38.978161
39.056792
39.025011
38.907282
38.733264
38.508004
38.233806
37.912098
37.547564
37.128201
36.670671
36.18464
35.673793
35.14669
34.610732
34.066904
33.549759
32.928438
52.969194
52.23818
51.505764
50.772293
50.038104
49.303526
48.568888
47.834514
47.100729
46.367854
45.63621
44.906116
44.17789
43.451844
42.72829
42.007535
41.28988
40.57562
39.865048
39.158446
38.456093
37.758259
37.065205
36.377186
35.694447
35.017226
34.345753
33.680248
33.020923
32.36798
31.721612
31.082004
30.44933
29.823757
29.205441
28.59453
27.991158
27.395454
26.807534
26.227505
25.655468
25.091509
24.535707
23.988132
23.448842
22.917888
22.395313
21.88115
21.375423
20.878148
20.389334
19.908981
19.437083
18.973623
18.518582
18.071931
17.633638
17.20366
16.781954
16.368472
15.963163
15.56598
15.176889
14.795887
14.423049
14.058623
13.703264
13.358437
13.027606
12.718969
12.449417
12.255826
12.223401
12.492209
13.30978
15.097445
17.916841
21.522755
25.173943
28.387864
30.928494
32.786047
34.041482
34.82045
35.274252
35.498626
35.573859
35.542219
35.439009
35.286719
35.087997
34.843149
34.553679
34.224796
33.844201
33.427308
32.984047
32.514624
32.05493
31.482913
52.969602
52.238633
51.506252
50.772806
50.038632
49.304062
48.569425
47.835048
47.101256
46.368371
45.636716
44.906609
44.178368
43.452307
42.728737
42.007965
41.290292
40.576016
39.865426
39.158806
38.456435
37.758583
37.065511
36.377475
35.694719
35.017482
34.345994
33.680474
33.021135
32.368178
31.721798
31.082179
30.449495
29.823912
29.205587
28.594667
27.991287
27.395576
26.807649
26.227614
25.65557
25.091606
24.535799
23.988219
23.448924
22.917965
22.395386
21.881219
21.375488
20.878209
20.389391
19.909035
19.437133
18.97367
18.518626
18.071971
17.633673
17.20369
16.781976
16.36848
15.963144
15.565908
15.176707
14.795473
14.422141
14.05665
13.69896
13.349084
13.007153
12.67359
12.349467
12.037344
11.743695
11.482904
11.286193
11.23007
11.450536
12.190469
13.875257
16.554286
19.952556
23.349199
26.286216
28.565356
30.196547
31.281409
31.942146
32.317401
32.497042
32.552362
32.512602
32.415178
32.274292
32.091877
31.865752
31.599239
31.294712
30.940233
30.57578
30.09791
52.970017
52.23909
51.506743
50.773322
50.039164
49.304603
48.569969
47.83559
47.101791
46.368898
45.637231
44.907111
44.178856
43.45278
42.729194
42.008405
41.290715
40.576421
39.865813
39.159175
38.456786
37.758916
37.065827
36.377773
35.695
35.017747
34.346242
33.680707
33.021353
32.368384
31.721991
31.08236
30.449665
29.824072
29.205738
28.594809
27.991421
27.395702
26.807769
26.227727
25.655677
25.091707
24.535895
23.988309
23.449009
22.918047
22.395463
21.881292
21.375557
20.878274
20.389452
19.909092
19.437187
18.973721
18.518673
18.072016
17.633715
17.203729
16.782011
16.368512
15.963173
15.565932
15.176722
14.795474
14.422112
14.056558
13.698732
13.348555
13.005949
12.670854
12.343247
12.023199
11.71102
11.407585
11.11506
10.839167
10.593427
10.407992
10.359856
10.589199
11.353525
13.104648
15.76545
18.984826
22.102152
24.717134
26.685063
28.050648
28.935859
29.462172
29.750045
29.880158
29.907734
29.855068
29.757973
29.621917
29.449093
29.232482
28.999099
28.662679
52.970438
52.239551
51.507237
50.773841
50.0397
49.305149
48.570518
47.836138
47.102334
46.369432
45.637754
44.907622
44.179353
43.453262
42.72966
42.008854
41.291147
40.576835
39.866209
39.159554
38.457146
37.759258
37.06615
36.378078
35.695288
35.018018
34.346497
33.680947
33.021579
32.368595
31.72219
31.082547
30.44984
29.824237
29.205893
28.594955
27.99156
27.395833
26.807892
26.227844
25.655788
25.091812
24.535994
23.988403
23.449098
22.91813
22.395542
21.881367
21.375627
20.878341
20.389515
19.909151
19.437242
18.973773
18.518722
18.072062
17.633758
17.203769
16.782049
16.368547
15.963205
15.565962
15.17675
14.795499
14.422134
14.056574
13.698739
13.348543
13.005897
12.670711
12.342895
12.022363
11.709039
11.402883
11.103937
10.812463
10.529271
10.256459
9.9998206
9.7734608
9.6104812
9.5976078
9.8898636
10.782266
12.671106
15.417185
18.464762
21.261279
23.505111
25.127926
26.213295
26.895276
27.288815
27.491435
27.573492
27.571005
27.504312
27.403596
27.28051
27.094453
52.970865
52.240016
51.507735
50.774363
50.04024
49.305699
48.571073
47.836691
47.102883
46.369974
45.638286
44.908141
44.179858
43.453752
42.730135
42.009313
41.291588
40.577258
39.866614
39.15994
38.457514
37.759607
37.066481
36.378391
35.695584
35.018296
34.346759
33.681193
33.02181
32.368813
31.722394
31.082738
30.450021
29.824407
29.206054
28.595106
27.991702
27.395967
26.808019
26.227964
25.655902
25.09192
24.536096
23.988499
23.449189
22.918217
22.395624
21.881444
21.3757
20.878409
20.38958
19.909212
19.4373
18.973827
18.518773
18.072109
17.633802
17.203811
16.782088
16.368583
15.963239
15.565993
15.176779
14.795526
14.422159
14.056598
13.69876
13.348561
13.005912
12.670719
12.34289
12.022329
11.708937
11.402616
11.103275
10.81083
10.525232
10.246517
9.9749516
9.7113947
9.4581787
9.2220223
9.0193095
8.8915843
8.9413815
9.3603764
10.516223
12.63165
15.441855
18.26599
20.672879
22.504408
23.770142
24.585901
25.080206
25.35325
25.479208
25.516849
25.494319
25.423766
52.971299
52.240486
51.508236
50.774888
50.040782
49.306252
48.571631
47.83725
47.103438
46.370522
45.638824
44.908668
44.180372
43.454251
42.730618
42.009779
41.292037
40.577689
39.867027
39.160335
38.45789
37.759964
37.06682
36.378712
35.695886
35.018582
34.347028
33.681446
33.022048
32.369036
31.722604
31.082935
30.450206
29.824582
29.206218
28.595261
27.991848
27.396105
26.808149
26.228088
25.656018
25.09203
24.5362
23.988598
23.449283
22.918305
22.395707
21.881523
21.375775
20.87848
20.389646
19.909275
19.437359
18.973883
18.518825
18.072158
17.633848
17.203853
16.782128
16.36862
15.963274
15.566026
15.176809
14.795554
14.422185
14.056622
13.698782
13.348582
13.005931
12.670736
12.342905
12.022341
11.708944
11.402613
11.103247
10.810744
10.524999
10.245917
9.9734126
9.7074372
9.4480407
9.1955513
8.9510136
8.7174195
8.5034086
8.3302896
8.2579385
8.4161328
9.0603585
10.609308
12.991911
15.699977
18.18998
20.167401
21.584539
22.517653
23.097591
23.431199
23.610908
23.689415
52.971737
52.24096
51.50874
50.775416
50.041327
49.306809
48.572194
47.837814
47.103999
46.371076
45.639369
44.909202
44.180893
43.454757
42.731108
42.010253
41.292494
40.578128
39.867447
39.160736
38.458273
37.760328
37.067165
36.379039
35.696195
35.018873
34.347302
33.681704
33.02229
32.369264
31.722818
31.083137
30.450396
29.82476
29.206386
28.59542
27.991998
27.396246
26.808283
26.228214
25.656138
25.092143
24.536307
23.988699
23.449378
22.918395
22.395793
21.881603
21.375851
20.878552
20.389714
19.909339
19.437419
18.973939
18.518878
18.072208
17.633894
17.203897
16.782169
16.368658
15.963309
15.566059
15.17684
14.795582
14.422211
14.056646
13.698805
13.348603
13.00595
12.670754
12.342922
12.022356
11.708957
11.402625
11.103257
10.810748
10.524995
10.245891
9.9733287
9.7072047
9.4474198
9.1938911
8.9465826
8.7055869
8.4713696
8.2453706
8.0320358
7.8438435
7.7133181
7.7312352
8.0771838
9.1151561
11.049348
13.570457
16.057173
18.1196
19.646484
20.673305
21.32973
21.730245
52.972182
52.241438
51.509246
50.775946
50.041875
49.307368
48.572759
47.838381
47.104564
46.371635
45.63992
44.909742
44.18142
43.455271
42.731606
42.010734
41.292958
40.578574
39.867875
39.161145
38.458663
37.7607
37.067517
36.379372
35.69651
35.019171
34.347583
33.681968
33.022539
32.369497
31.723037
31.083343
30.45059
29.824943
29.206558
28.595582
27.992151
27.396391
26.808419
26.228343
25.65626
25.092258
24.536416
23.988802
23.449476
22.918488
22.39588
21.881685
21.375928
20.878625
20.389783
19.909404
19.43748
18.973996
18.518932
18.072258
17.633942
17.203941
16.78221
16.368697
15.963345
15.566092
15.176871
14.795611
14.422238
14.056671
13.698828
13.348624
13.005969
12.670772
12.342938
12.022371
11.708971
11.402637
11.103268
10.810758
10.525003
10.245897
9.973331
9.7071976
9.4473889
9.1937966
8.9463157
8.7048493
8.4693231
8.2397283
8.016252
7.7996459
7.5922356
7.4014061
7.2467706
7.1870406
7.3554276
8.0267322
9.5728872
11.86245
14.268608
16.357461
17.956505
19.079944
52.972632
52.241919
51.509756
50.776479
50.042425
49.30793
48.573328
47.838952
47.105133
46.372199
45.640476
44.910288
44.181954
43.45579
42.73211
42.011222
41.293429
40.579027
39.86831
39.161561
38.45906
37.761077
37.067876
36.379712
35.696832
35.019474
34.347869
33.682238
33.022792
32.369736
31.723262
31.083554
30.450788
29.825129
29.206734
28.595748
27.992307
27.396538
26.808558
26.228474
25.656384
25.092375
24.536527
23.988907
23.449575
22.918581
22.395968
21.881769
21.376007
20.878699
20.389853
19.90947
19.437542
18.974054
18.518986
18.072309
17.633989
17.203986
16.782252
16.368736
15.963381
15.566126
15.176902
14.79564
14.422264
14.056696
13.698851
13.348645
13.005989
12.67079
12.342954
12.022386
11.708984
11.402649
11.103279
10.810769
10.525013
10.245905
9.9733381
9.7072034
9.4473926
9.1937959
8.9463042
8.7048089
8.4692016
8.2393793
8.0152509
7.7967618
7.5839644
7.377246
7.1779318
6.9904346
6.827805
6.7271816
6.7915565
7.2362239
8.4687413
10.472573
12.784359
14.908576
52.973088
52.242405
51.510268
50.777013
50.042977
49.308494
48.573899
47.839527
47.105706
46.372768
45.641038
44.910839
44.182493
43.456316
42.732621
42.011717
41.293906
40.579487
39.868751
39.161984
38.459464
37.761461
37.068241
36.380058
35.697159
35.019783
34.34816
33.682512
33.023051
32.369979
31.72349
31.083769
30.45099
29.82532
29.206913
28.595916
27.992466
27.396688
26.8087
26.228608
25.65651
25.092495
24.536639
23.989013
23.449675
22.918676
22.396058
21.881854
21.376087
20.878774
20.389924
19.909536
19.437604
18.974113
18.519041
18.072361
17.634037
17.204031
16.782294
16.368775
15.963418
15.566159
15.176934
14.795669
14.422291
14.05672
13.698874
13.348666
13.006008
12.670808
12.342971
12.0224
11.708998
11.402662
11.10329
10.810779
10.525022
10.245913
9.9733452
9.7072096
9.4473979
9.1938004
8.9463075
8.7048098
8.4691973
8.2393608
8.015192
7.7965848
7.5834409
7.3756832
7.1732983
6.9764777
6.7860349
6.6046903
6.4414801
6.3219471
6.3274732
6.6252896
7.6790653
9.4404645
52.973548
52.242895
51.510783
50.77755
50.04353
49.30906
48.574473
47.840103
47.106283
46.37334
45.641603
44.911395
44.183037
43.456847
42.733138
42.012217
41.29439
40.579953
39.869199
39.162412
38.459873
37.761852
37.068612
36.38041
35.697492
35.020098
34.348457
33.682792
33.023314
32.370226
31.723723
31.083988
30.451196
29.825514
29.207096
28.596088
27.992628
27.396841
26.808844
26.228744
25.656638
25.092616
24.536754
23.989121
23.449777
22.918773
22.396149
21.881939
21.376168
20.87885
20.389995
19.909603
19.437667
18.974172
18.519096
18.072412
17.634086
17.204076
16.782336
16.368814
15.963454
15.566193
15.176965
14.795698
14.422318
14.056745
13.698896
13.348687
13.006027
12.670825
12.342986
12.022415
11.709011
11.402674
11.103301
10.810788
10.52503
10.245921
9.9733519
9.7072155
9.447403
9.1938048
8.9463112
8.7048128
8.4691994
8.2393616
8.0151899
7.7965753
7.5834099
7.3755871
7.1730054
6.975577
6.7832553
6.596124
6.414702
6.2408019
6.0810921
5.9536681
5.946897
6.1466543
52.974014
52.243388
51.511301
50.778089
50.044085
49.309627
48.575048
47.840682
47.106862
46.373916
45.642172
44.911955
44.183587
43.457384
42.73366
42.012724
41.294879
40.580425
39.869652
39.162847
38.460288
37.762248
37.068989
36.380767
35.69783
35.020418
34.348759
33.683077
33.023582
32.370479
31.72396
31.084211
30.451406
29.825711
29.207281
28.596263
27.992792
27.396996
26.80899
26.228882
25.656769
25.092739
24.53687
23.989231
23.449881
22.91887
22.396241
21.882026
21.376249
20.878927
20.390068
19.909671
19.437731
18.974232
18.519152
18.072464
17.634134
17.204121
16.782378
16.368853
15.96349
15.566227
15.176996
14.795727
14.422344
14.056769
13.698919
13.348707
13.006046
12.670842
12.343002
12.022429
11.709023
11.402685
11.103311
10.810797
10.525038
10.245928
9.9733581
9.7072209
9.4474076
9.1938087
8.9463144
8.7048154
8.4692014
8.239363
8.0151907
7.7965753
7.5834082
7.3755812
7.1729872
6.9755208
6.7830792
6.5955697
6.4129277
6.235179
6.0626802
5.8966689
5.7452145
5.6149032
52.974485
52.243885
51.511822
50.778629
50.044642
49.310196
48.575625
47.841263
47.107443
46.374494
45.642745
44.91252
44.18414
43.457925
42.734186
42.013235
41.295374
40.580902
39.870111
39.163287
38.460709
37.762649
37.069371
36.38113
35.698174
35.020743
34.349066
33.683366
33.023854
32.370735
31.724201
31.084438
30.45162
29.825912
29.20747
28.596441
27.99296
27.397154
26.809139
26.229022
25.656901
25.092863
24.536987
23.989341
23.449985
22.918969
22.396334
21.882113
21.376331
20.879004
20.39014
19.909739
19.437794
18.974291
18.519208
18.072516
17.634183
17.204166
16.782419
16.368892
15.963526
15.56626
15.177026
14.795755
14.42237
14.056793
13.69894
13.348727
13.006064
12.670858
12.343017
12.022442
11.709035
11.402696
11.103321
10.810806
10.525046
10.245934
9.9733636
9.7072256
9.4474116
9.1938119
8.946317
8.7048173
8.4692029
8.2393639
8.0151912
7.7965752
7.5834077
7.3755801
7.1729851
6.9755161
6.783067
6.5955337
6.412814
6.2348132
6.0614581
5.8927406
5.7291591
5.5710415
52.97496
52.244385
51.512345
50.779171
50.0452
49.310766
48.576203
47.841846
47.108026
46.375075
45.64332
44.913087
44.184697
43.45847
42.734718
42.013751
41.295873
40.581384
39.870575
39.163732
38.461135
37.763056
37.069758
36.381497
35.698522
35.021072
34.349377
33.68366
33.024131
32.370995
31.724446
31.084668
30.451836
29.826116
29.207662
28.596621
27.99313
27.397313
26.809289
26.229164
25.657035
25.092989
24.537106
23.989453
23.450091
22.919068
22.396427
21.882201
21.376414
20.879082
20.390213
19.909808
19.437858
18.974351
18.519263
18.072568
17.634231
17.204211
16.782461
16.36893
15.963562
15.566293
15.177057
14.795783
14.422396
14.056816
13.698961
13.348746
13.006081
12.670874
12.343031
12.022455
11.709047
11.402706
11.103329
10.810813
10.525052
10.24594
9.9733685
9.7072296
9.4474148
9.1938144
8.9463189
8.7048186
8.4692036
8.2393641
8.0151909
7.7965745
7.5834066
7.3755787
7.1729833
6.9755138
6.7830641
6.5955291
6.4128045
6.234788
6.0613774
5.892481
5.7280221
5.5679921
52.97544
52.244889
51.51287
50.779715
50.04576
49.311337
48.576782
47.84243
47.108611
46.375658
45.643898
44.913657
44.185258
43.459018
42.735253
42.014271
41.296377
40.58187
39.871043
39.164182
38.461566
37.763467
37.07015
36.38187
35.698876
35.021407
34.349693
33.683958
33.024412
32.37126
31.724695
31.084902
30.452056
29.826322
29.207856
28.596804
27.993302
27.397475
26.809442
26.229308
25.65717
25.093117
24.537226
23.989566
23.450197
22.919168
22.396521
21.88229
21.376497
20.87916
20.390286
19.909876
19.437922
18.97441
18.519319
18.07262
17.634279
17.204255
16.782502
16.368968
15.963597
15.566325
15.177086
14.79581
14.42242
14.056839
13.698982
13.348765
13.006098
12.670889
12.343044
12.022467
11.709057
11.402715
11.103337
10.81082
10.525058
10.245945
9.9733725
9.7072328
9.4474172
9.1938161
8.9463199
8.7048191
8.4692035
8.2393635
8.0151899
7.7965731
7.5834047
7.3755765
7.1729808
6.9755111
6.7830611
6.5955258
6.4128008
6.2347829
6.0613697
5.8924628
5.7279449
5.5677852
52.975925
52.245396
51.513397
50.780261
50.04632
49.311909
48.577362
47.843014
47.109197
46.376242
45.644478
44.91423
44.185821
43.45957
42.735791
42.014795
41.296885
40.582361
39.871516
39.164636
38.462001
37.763883
37.070546
36.382247
35.699233
35.021745
34.350013
33.68426
33.024697
32.371528
31.724947
31.085139
30.452279
29.826532
29.208053
28.596989
27.993476
27.397639
26.809596
26.229453
25.657307
25.093246
24.537347
23.98968
23.450304
22.919269
22.396616
21.882378
21.376581
20.879238
20.390359
19.909944
19.437986
18.97447
18.519374
18.072671
17.634326
17.204299
16.782543
16.369006
15.963631
15.566356
15.177115
14.795836
14.422444
14.05686