/*--------------------------------*- C++ -*----------------------------------*\
  =========                 |
  \\      /  F ield         | OpenFOAM: The Open Source CFD Toolbox
   \\    /   O peration     | Website:  https://openfoam.org
    \\  /    A nd           | Version:  12
     \\/     M anipulation  |
\*---------------------------------------------------------------------------*/
FoamFile
{
    format      ascii;
    class       surfaceScalarField;
    location    "2000";
    object      phi;
}
// * * * * * * * * * * * * * * * * * * * * * * * * * * * * * * * * * * * * * //

dimensions      [0 3 -1 0 0 0 0];

internalField   nonuniform List<scalar> 
14782
(
0.00078251582
8.8481475e-06
-0.00079136397
0.00077195344
1.0562376e-05
0.00076080287
1.1150569e-05
0.00074961128
1.119159e-05
0.0007386274
1.0983883e-05
0.00072803295
1.0594452e-05
0.00071785783
1.0175114e-05
0.00070804297
9.8148647e-06
0.00069852161
9.5213588e-06
0.00068917638
9.3452257e-06
0.00067989611
9.280275e-06
0.00067062469
9.2714159e-06
0.00066135105
9.2736481e-06
0.00065208821
9.2628382e-06
0.00064286267
9.2255368e-06
0.00063372099
9.1416803e-06
0.00062474757
8.9734212e-06
0.00061596052
8.7870524e-06
0.00060738528
8.5752349e-06
0.00059911068
8.2746045e-06
0.00059118363
7.9270499e-06
0.00058365302
7.5306053e-06
0.00057656108
7.0919445e-06
0.00056994074
6.6203406e-06
0.00056382821
6.1125301e-06
0.00055824687
5.5813416e-06
0.00055318933
5.0575371e-06
0.00054864148
4.5478469e-06
0.00054458031
4.061171e-06
0.00054097189
3.6084245e-06
0.00053777581
3.196074e-06
0.00053495633
2.819484e-06
0.00053248435
2.4719819e-06
0.00053031652
2.1678282e-06
0.00052840353
1.9129874e-06
0.00052669809
1.7054419e-06
0.00052515231
1.5457814e-06
0.00052372585
1.4264607e-06
0.00052239837
1.3274715e-06
0.00052114412
1.2542516e-06
0.00051992939
1.2147299e-06
0.00051873124
1.1981513e-06
0.00051753177
1.199472e-06
0.00051631827
1.2135035e-06
0.00051508625
1.2320203e-06
0.0005138274
1.258848e-06
0.00051252711
1.3002858e-06
0.00051117179
1.3553233e-06
0.00050975424
1.4175477e-06
0.00050827934
1.4748985e-06
0.00050674953
1.5298147e-06
0.0005051655
1.5840257e-06
0.00050353376
1.6317392e-06
0.00050186982
1.6639429e-06
0.00050018896
1.6808642e-06
0.00049849628
1.6926751e-06
0.0004967941
1.7021813e-06
0.00049508674
1.7073548e-06
0.00049338179
1.7049588e-06
0.00049168152
1.7002635e-06
0.00048998404
1.6974774e-06
0.00048829521
1.6888393e-06
0.00048662248
1.672724e-06
0.00048496766
1.6548202e-06
0.00048332854
1.639126e-06
0.00048170991
1.6186259e-06
0.0004801135
1.5964118e-06
0.00047853273
1.5807637e-06
0.00047696541
1.56732e-06
0.00047541434
1.5510693e-06
0.00047387942
1.5349227e-06
0.00047235685
1.5225676e-06
0.00047085245
1.504406e-06
0.00046936865
1.4837943e-06
0.00046789869
1.4699645e-06
0.00046644455
1.4541366e-06
0.00046500748
1.4370683e-06
0.00046358106
1.4264238e-06
0.00046216808
1.4129816e-06
0.00046077205
1.3960268e-06
0.00045938862
1.3834295e-06
0.00045802027
1.368352e-06
0.0004566679
1.3523743e-06
0.00045532574
1.3421595e-06
0.00045399594
1.3297995e-06
0.00045267949
1.3164475e-06
0.00045137494
1.3045457e-06
0.00045008406
1.2908875e-06
0.00044880413
1.2799281e-06
0.00044753558
1.2685477e-06
0.00044627836
1.2572227e-06
0.00044503068
1.2476801e-06
0.00044379436
1.236315e-06
0.00044256668
1.2276788e-06
0.0004413464
1.2202853e-06
0.00044013176
1.2146434e-06
0.00043894694
1.1848189e-06
0.00043762377
1.3231635e-06
0.0004365957
1.0280734e-06
1.4089011e-06
0.00082551111
8.0479766e-06
-0.00082471094
0.00082600992
1.0063568e-05
0.00082624176
1.0918723e-05
0.00082612668
1.1306678e-05
0.00082532714
1.1783415e-05
0.00082381197
1.2109631e-05
0.00082165691
1.2330167e-05
0.00081891636
1.2555421e-05
0.00081567565
1.2762062e-05
0.00081203985
1.298103e-05
0.00080812482
1.3195303e-05
0.00080398542
1.341082e-05
0.00079964303
1.3616039e-05
0.00079510551
1.3800359e-05
0.00079037181
1.395923e-05
0.00078543626
1.4077228e-05
0.00078026931
1.4140373e-05
0.0007748892
1.4167163e-05
0.00076930071
1.4163732e-05
0.00076350112
1.4074189e-05
0.00075755507
1.3873097e-05
0.00075149983
1.3585848e-05
0.00074536506
1.3226718e-05
0.00073918115
1.2804244e-05
0.00073298698
1.2306703e-05
0.00072681804
1.1750281e-05
0.00072070088
1.1174701e-05
0.00071466938
1.0579344e-05
0.00070875901
9.9715435e-06
0.00070300304
9.3643921e-06
0.00069743246
8.766651e-06
0.00069208281
8.1691367e-06
0.00068695832
7.5964713e-06
0.00068203582
7.0903279e-06
0.00067731584
6.6329698e-06
0.00067280565
6.215631e-06
0.00066850924
5.8421876e-06
0.00066442236
5.5133394e-06
0.00066054004
5.2097987e-06
0.00065684821
4.9460825e-06
0.00065332532
4.7376195e-06
0.00064995481
4.5686607e-06
0.00064672101
4.4332676e-06
0.00064361184
4.3226796e-06
0.00064062007
4.2237885e-06
0.00063773585
4.1430629e-06
0.00063492335
4.1127858e-06
0.00063214534
4.1333341e-06
0.00062939864
4.1642458e-06
0.00062669474
4.1788062e-06
0.00062403876
4.185786e-06
0.00062142719
4.1956029e-06
0.00061885495
4.2039729e-06
0.00061632346
4.195438e-06
0.00061383509
4.1692377e-06
0.00061138109
4.146666e-06
0.00060895043
4.1328455e-06
0.00060653997
4.1178197e-06
0.00060415458
4.0903466e-06
0.00060179776
4.0570838e-06
0.00059946871
4.0265267e-06
0.00059717034
3.987205e-06
0.00059490711
3.9359585e-06
0.00059267973
3.8821961e-06
0.00059048531
3.8335507e-06
0.00058832404
3.7798883e-06
0.00058619419
3.7262691e-06
0.00058409015
3.6847987e-06
0.00058201025
3.6472234e-06
0.00057995755
3.6037664e-06
0.00057793353
3.5589434e-06
0.00057593558
3.5205156e-06
0.00057396714
3.4728446e-06
0.00057202989
3.4210525e-06
0.00057011745
3.3823971e-06
0.00056822887
3.3427239e-06
0.00056636503
3.3009099e-06
0.00056452219
3.269262e-06
0.0005627019
3.2332678e-06
0.00056090705
3.1908776e-06
0.00055913471
3.1557677e-06
0.00055738494
3.1181202e-06
0.00055565759
3.0797272e-06
0.00055394856
3.0511871e-06
0.00055225871
3.0196498e-06
0.00055058911
2.9860487e-06
0.00054893902
2.9546404e-06
0.00054730871
2.9211963e-06
0.00054569563
2.8930034e-06
0.00054409954
2.8646387e-06
0.00054252043
2.8363385e-06
0.00054095727
2.8108371e-06
0.00053941024
2.7833415e-06
0.00053787832
2.7596063e-06
0.00053635475
2.7438465e-06
0.00053485187
2.7175248e-06
0.00053335081
2.6858795e-06
0.00053183129
2.8426855e-06
0.00053016441
2.6949536e-06
2.9179876e-06
0.00085293924
7.6024543e-06
-0.00085249372
0.00085336769
9.6351238e-06
0.00085372881
1.0557603e-05
0.00085401768
1.101781e-05
0.00085430717
1.1493925e-05
0.00085453747
1.187933e-05
0.00085466501
1.2202626e-05
0.00085469068
1.2529744e-05
0.00085461744
1.2835307e-05
0.00085443438
1.3164083e-05
0.00085413349
1.34962e-05
0.00085370903
1.3835279e-05
0.00085314763
1.4177437e-05
0.00085243819
1.4509803e-05
0.00085156603
1.4831385e-05
0.00085051257
1.513069e-05
0.00084924803
1.5404912e-05
0.00084775649
1.5658708e-05
0.00084601262
1.5907597e-05
0.00084396216
1.6124655e-05
0.00084157108
1.6264173e-05
0.00083881859
1.6338341e-05
0.00083568554
1.6359765e-05
0.00083216281
1.6326972e-05
0.0008282117
1.6257811e-05
0.0008238151
1.614688e-05
0.00081902689
1.5962912e-05
0.00081389926
1.5706976e-05
0.00080847701
1.5393791e-05
0.00080280949
1.5031911e-05
0.00079695372
1.4622421e-05
0.00079097755
1.4145316e-05
0.0007849583
1.3615717e-05
0.00077895988
1.3088748e-05
0.00077303325
1.2559595e-05
0.00076722442
1.2024466e-05
0.00076157615
1.1490452e-05
0.00075608754
1.1001951e-05
0.00075074805
1.0549289e-05
0.00074557438
1.0119751e-05
0.00074057808
9.733922e-06
0.00073577235
9.3743941e-06
0.00073116373
9.0418824e-06
0.0007267464
8.740009e-06
0.00072250992
8.4602693e-06
0.0007184394
8.2135866e-06
0.00071452137
8.030811e-06
0.00071074658
7.9081247e-06
0.00070710537
7.8054635e-06
0.00070359208
7.6920967e-06
0.0007001953
7.5825633e-06
0.00069689816
7.4927381e-06
0.00069368585
7.4162854e-06
0.00069055367
7.3276225e-06
0.00068749582
7.2270868e-06
0.00068449206
7.1504247e-06
0.00068152978
7.0951266e-06
0.00067861111
7.0364887e-06
0.00067574157
6.9598826e-06
0.00067292349
6.8751639e-06
0.00067015443
6.7955934e-06
0.00066743442
6.7072077e-06
0.00066476488
6.6054986e-06
0.00066214447
6.502604e-06
0.00065956903
6.4089964e-06
0.00065703486
6.3140518e-06
0.00065453771
6.2234217e-06
0.00065207412
6.1483881e-06
0.00064964419
6.0771547e-06
0.00064725136
5.9965932e-06
0.0006448971
5.9132067e-06
0.00064257863
5.8389877e-06
0.00064029821
5.7532606e-06
0.00063805611
5.6631521e-06
0.00063584494
5.5935691e-06
0.00063366298
5.5246884e-06
0.0006315117
5.4521917e-06
0.00062938863
5.3923251e-06
0.00062729497
5.32693e-06
0.00062523316
5.2526834e-06
0.00062320022
5.1887135e-06
0.00062119471
5.1236328e-06
0.00061921595
5.0584793e-06
0.00061726075
5.0063896e-06
0.00061532981
4.9505951e-06
0.00061342423
4.8916291e-06
0.00061154323
4.835641e-06
0.00060968615
4.7782729e-06
0.00060785031
4.7288404e-06
0.00060603538
4.6795676e-06
0.0006042415
4.6302194e-06
0.00060246788
4.5844587e-06
0.00060071392
4.5373026e-06
0.0005989788
4.4947278e-06
0.00059725418
4.4684661e-06
0.00059555657
4.4151323e-06
0.00059385294
4.3895116e-06
0.00059217168
4.523948e-06
0.00059019799
4.668639e-06
4.5182105e-06
0.00088147331
7.2582062e-06
-0.00088112906
0.00088190433
9.2041038e-06
0.00088226527
1.0196655e-05
0.00088255739
1.0725691e-05
0.00088282675
1.1224572e-05
0.00088304247
1.1663605e-05
0.00088322524
1.2019856e-05
0.00088338621
1.2368779e-05
0.0008835229
1.2698609e-05
0.00088365687
1.3030114e-05
0.00088378645
1.3366624e-05
0.00088389768
1.372405e-05
0.00088398959
1.4085521e-05
0.0008840622
1.4437192e-05
0.00088411243
1.4781162e-05
0.00088413549
1.5107629e-05
0.00088412616
1.5414243e-05
0.00088407565
1.5709215e-05
0.00088397825
1.6004995e-05
0.00088382077
1.6282135e-05
0.00088357979
1.6505159e-05
0.00088323557
1.668256e-05
0.00088276526
1.6830068e-05
0.00088214102
1.6951218e-05
0.00088132498
1.7073848e-05
0.0008802651
1.7206762e-05
0.0008789114
1.7316614e-05
0.00087722276
1.7395608e-05
0.00087515929
1.7457264e-05
0.00087267989
1.7511309e-05
0.00086975122
1.7551094e-05
0.00086630757
1.7588962e-05
0.00086230408
1.7619215e-05
0.00085778846
1.7604369e-05
0.00085282901
1.7519038e-05
0.00084748873
1.7364743e-05
0.00084184295
1.7136238e-05
0.00083599188
1.6853021e-05
0.00083004495
1.649622e-05
0.00082407938
1.6085321e-05
0.00081815414
1.5659157e-05
0.00081232926
1.5199277e-05
0.00080662881
1.4742337e-05
0.0008010424
1.4326418e-05
0.0007955857
1.3916972e-05
0.00079028488
1.3514401e-05
0.00078517033
1.3145361e-05
0.00078027279
1.2805667e-05
0.00077559046
1.248779e-05
0.00077110326
1.2179296e-05
0.00076678588
1.1899947e-05
0.00076261598
1.166264e-05
0.00075858026
1.1451999e-05
0.00075467675
1.1231141e-05
0.00075090356
1.1000277e-05
0.00074724788
1.0806103e-05
0.00074369252
1.0650488e-05
0.00074022402
1.0504985e-05
0.00073683834
1.0345565e-05
0.00073353342
1.0180077e-05
0.00073030328
1.0025735e-05
0.00072714373
9.8667647e-06
0.00072405199
9.697233e-06
0.0007210242
9.5303925e-06
0.0007180543
9.3788969e-06
0.00071513265
9.2357057e-06
0.00071225467
9.1013999e-06
0.00070942304
8.9800146e-06
0.00070663909
8.8611074e-06
0.00070390543
8.7302504e-06
0.0007012224
8.5962363e-06
0.00069858608
8.4753104e-06
0.00069599756
8.3417854e-06
0.00069345455
8.2061592e-06
0.00069094776
8.1003601e-06
0.00068847647
7.9959728e-06
0.00068604365
7.8850117e-06
0.00068364751
7.7884663e-06
0.00068128877
7.6856747e-06
0.00067896935
7.5721068e-06
0.00067668522
7.472836e-06
0.00067443331
7.3755473e-06
0.00067221292
7.2788713e-06
0.00067002184
7.1974691e-06
0.00066786094
7.111494e-06
0.00066573127
7.021301e-06
0.00066363153
6.9353759e-06
0.00066155999
6.8498122e-06
0.0006595138
6.7750336e-06
0.00065749288
6.7004871e-06
0.00065549761
6.6254901e-06
0.00065352721
6.5548621e-06
0.00065158033
6.4841763e-06
0.00064965591
6.4191468e-06
0.00064774502
6.3793577e-06
0.00064586608
6.2940723e-06
0.000643979
6.2765895e-06
0.00064213703
6.365917e-06
0.00063992407
6.8815986e-06
6.2216529e-06
0.00091101744
6.9703733e-06
-0.00091072961
0.00091141874
8.8028063e-06
0.00091176237
9.8530287e-06
0.00091204161
1.044645e-05
0.00091229547
1.0970704e-05
0.00091251256
1.1446515e-05
0.00091269634
1.1836076e-05
0.00091286393
1.2201198e-05
0.00091301426
1.2548278e-05
0.00091315376
1.2890611e-05
0.00091328196
1.3238429e-05
0.00091340629
1.3599719e-05
0.00091352642
1.3965386e-05
0.00091364092
1.4322688e-05
0.00091375121
1.4670877e-05
0.0009138566
1.5002238e-05
0.00091395493
1.5315914e-05
0.00091405084
1.5613304e-05
0.00091415025
1.590558e-05
0.00091424521
1.6187182e-05
0.00091432465
1.6425714e-05
0.00091438605
1.6621158e-05
0.00091442754
1.6788579e-05
0.00091444541
1.6933347e-05
0.00091444031
1.7078951e-05
0.00091440691
1.7240165e-05
0.00091433096
1.7392559e-05
0.00091419823
1.7528338e-05
0.00091399114
1.7664354e-05
0.00091368642
1.7816028e-05
0.00091325356
1.7983957e-05
0.00091264828
1.819424e-05
0.00091180772
1.8459776e-05
0.00091066261
1.8749477e-05
0.00090914678
1.9034875e-05
0.00090719544
1.9316083e-05
0.00090474047
1.9591208e-05
0.00090175417
1.9839316e-05
0.00089816374
2.0086649e-05
0.00089394189
2.0307176e-05
0.0008891895
2.0411545e-05
0.00088398975
2.0399027e-05
0.00087844434
2.0287752e-05
0.0008726741
2.0096654e-05
0.00086678811
1.9802958e-05
0.00086086768
1.943483e-05
0.00085498237
1.9030681e-05
0.00084919889
1.8589139e-05
0.00084352295
1.8163738e-05
0.00083794758
1.7754658e-05
0.00083250873
1.7338796e-05
0.00082723332
1.6938055e-05
0.00082214082
1.6544497e-05
0.00081724001
1.6131948e-05
0.00081252392
1.5716373e-05
0.00080798141
1.5348609e-05
0.00080359734
1.5034562e-05
0.00079935571
1.4746616e-05
0.0007952524
1.444887e-05
0.00079128107
1.4151409e-05
0.00078742551
1.3881294e-05
0.00078367206
1.3620212e-05
0.00078001278
1.335652e-05
0.00077644349
1.3099681e-05
0.00077295985
1.2862537e-05
0.00076955968
1.2635875e-05
0.00076623868
1.2422398e-05
0.00076298884
1.2229856e-05
0.00075980601
1.2043937e-05
0.00075669046
1.1845794e-05
0.00075364061
1.1646091e-05
0.00075065047
1.1465447e-05
0.0007477197
1.1272563e-05
0.00074484163
1.1084223e-05
0.00074200542
1.0936573e-05
0.00073921455
1.0786843e-05
0.00073647359
1.062597e-05
0.00073378028
1.0481777e-05
0.00073113438
1.0331574e-05
0.000728537
1.0169486e-05
0.00072598195
1.0027885e-05
0.00072346423
9.8932714e-06
0.00072098425
9.7588516e-06
0.00071854115
9.6405708e-06
0.0007161358
9.5168359e-06
0.00071376894
9.3881628e-06
0.0007114382
9.2661211e-06
0.00070914041
9.1475959e-06
0.00070687284
9.0426015e-06
0.00070463606
8.9372708e-06
0.00070243066
8.8308918e-06
0.00070025561
8.7299145e-06
0.00069810857
8.6312094e-06
0.00069598803
8.5396872e-06
0.00069388497
8.4824213e-06
0.0006918191
8.3599433e-06
0.00068974533
8.3503603e-06
0.00068773474
8.3765044e-06
0.00068529148
9.3248636e-06
8.0471456e-06
0.00094155199
6.731592e-06
-0.00094131321
0.00094191304
8.4417515e-06
0.00094224143
9.5246423e-06
0.00094251524
1.0172644e-05
0.00094276554
1.0720405e-05
0.00094298815
1.1223899e-05
0.00094317783
1.1646393e-05
0.00094334935
1.2029681e-05
0.00094350331
1.2394315e-05
0.00094364399
1.274994e-05
0.00094377338
1.3109035e-05
0.00094389816
1.3474939e-05
0.00094401919
1.3844357e-05
0.00094413579
1.4206087e-05
0.0009442494
1.4557266e-05
0.00094435925
1.489239e-05
0.00094446471
1.5210457e-05
0.00094456538
1.5512631e-05
0.00094466384
1.5807122e-05
0.00094476119
1.6089828e-05
0.00094485248
1.6334428e-05
0.00094493555
1.653809e-05
0.0009450101
1.6714028e-05
0.00094507487
1.6868572e-05
0.00094513174
1.7022087e-05
0.00094518676
1.7185139e-05
0.00094523923
1.7340087e-05
0.00094528101
1.7486558e-05
0.00094530913
1.7636237e-05
0.00094532483
1.7800326e-05
0.00094532606
1.7982736e-05
0.00094531295
1.8207345e-05
0.00094528174
1.8490984e-05
0.00094521956
1.8811656e-05
0.00094510805
1.9146385e-05
0.00094492346
1.9500671e-05
0.00094463176
1.988291e-05
0.0009441863
2.0284776e-05
0.00094351939
2.0753555e-05
0.00094254104
2.1285528e-05
0.00094116137
2.1791216e-05
0.00093929624
2.2264162e-05
0.00093688534
2.269865e-05
0.00093388909
2.3092907e-05
0.00093023293
2.3459111e-05
0.00092592578
2.3741987e-05
0.00092108071
2.3875746e-05
0.00091580414
2.3865711e-05
0.0009102294
2.3738481e-05
0.00090448421
2.3499846e-05
0.00089865752
2.3165481e-05
0.00089282448
2.2771098e-05
0.00088705783
2.2311152e-05
0.00088137292
2.1816857e-05
0.00087575208
2.1337209e-05
0.00087022589
2.0874804e-05
0.00086483832
2.0422131e-05
0.00085962503
1.9959907e-05
0.00085460123
1.947267e-05
0.00084975097
1.9001661e-05
0.00084504869
1.8583575e-05
0.00084048089
1.8188017e-05
0.00083604671
1.7790701e-05
0.00083174845
1.739794e-05
0.00082758008
1.7030904e-05
0.00082354007
1.6675888e-05
0.00081962272
1.6339748e-05
0.00081581312
1.6039449e-05
0.00081210429
1.5752772e-05
0.00080849208
1.5458003e-05
0.000804969
1.516917e-05
0.00080152508
1.4909372e-05
0.00079815846
1.4639178e-05
0.0007948686
1.4374082e-05
0.00079164903
1.4156142e-05
0.00078849652
1.393936e-05
0.00078540966
1.3712827e-05
0.00078238377
1.3507671e-05
0.00077941731
1.3298026e-05
0.00077651024
1.3076559e-05
0.00077365267
1.2885455e-05
0.00077083823
1.2707716e-05
0.00076807062
1.2526454e-05
0.00076535014
1.2361059e-05
0.00076267687
1.21901e-05
0.00076005084
1.2014195e-05
0.00075746784
1.1849116e-05
0.0007549231
1.1692337e-05
0.00075241476
1.155095e-05
0.00074994435
1.1407673e-05
0.00074751244
1.1262802e-05
0.00074511734
1.1125014e-05
0.00074275535
1.0993204e-05
0.0007404245
1.0870536e-05
0.00073811621
1.0790708e-05
0.00073585113
1.0625022e-05
0.00073357996
1.0621529e-05
0.00073138791
1.0568562e-05
0.00072870946
1.2003309e-05
1.0009205e-05
0.00097310749
6.5326061e-06
-0.0009729085
0.00097343084
8.1184032e-06
0.00097374522
9.2102603e-06
0.00097401406
9.9037987e-06
0.00097425931
1.0475161e-05
0.00097448155
1.1001658e-05
0.00097467429
1.1453657e-05
0.00097484749
1.1856474e-05
0.00097500496
1.2236847e-05
0.00097514883
1.2606075e-05
0.00097528283
1.2975032e-05
0.00097541112
1.3346645e-05
0.00097553574
1.3719742e-05
0.00097565588
1.4085946e-05
0.00097577261
1.4440542e-05
0.0009758851
1.4779899e-05
0.00097599277
1.5102784e-05
0.00097609542
1.540998e-05
0.00097619514
1.5707398e-05
0.00097629316
1.5991807e-05
0.0009763857
1.624189e-05
0.00097647078
1.6453014e-05
0.00097654817
1.6636638e-05
0.00097661662
1.6800114e-05
0.00097667842
1.6960288e-05
0.00097673613
1.7127429e-05
0.00097678793
1.7288288e-05
0.00097683307
1.7441417e-05
0.00097687173
1.7597577e-05
0.00097690439
1.7767667e-05
0.00097693072
1.7956409e-05
0.00097695318
1.8184884e-05
0.00097697716
1.8467004e-05
0.00097700316
1.8785659e-05
0.00097702593
1.9123609e-05
0.00097704323
1.9483371e-05
0.00097705354
1.9872605e-05
0.00097705164
2.0286671e-05
0.00097703742
2.0767781e-05
0.00097700145
2.1321496e-05
0.00097691699
2.1875677e-05
0.00097675426
2.242689e-05
0.00097646991
2.2983003e-05
0.00097600204
2.3560777e-05
0.00097526188
2.4199264e-05
0.00097414228
2.4861587e-05
0.00097254116
2.5476873e-05
0.00097036913
2.6037736e-05
0.00096757418
2.6533434e-05
0.0009640919
2.6982125e-05
0.00095993214
2.7325243e-05
0.00095521641
2.7486828e-05
0.00095006056
2.7467002e-05
0.00094460276
2.7274653e-05
0.00093896157
2.6978403e-05
0.00093321807
2.6618307e-05
0.00092744456
2.6195641e-05
0.00092171869
2.5685776e-05
0.00091605182
2.5139534e-05
0.00091041971
2.4633771e-05
0.00090485663
2.4146653e-05
0.00089941166
2.3632989e-05
0.00089412293
2.3079429e-05
0.00088899737
2.2523508e-05
0.00088401549
2.2012782e-05
0.00087917028
2.1521102e-05
0.00087446724
2.1042783e-05
0.00086991199
2.0594704e-05
0.00086550294
2.0161818e-05
0.0008612282
1.9732742e-05
0.00085707281
1.932456e-05
0.00085302621
1.8955968e-05
0.00084908852
1.8576874e-05
0.00084526362
1.8198981e-05
0.00084154664
1.7873122e-05
0.00083792724
1.7558759e-05
0.00083439872
1.7241352e-05
0.00083095311
1.6953275e-05
0.00082758576
1.6665376e-05
0.00082429343
1.636889e-05
0.00082107015
1.610874e-05
0.00081791365
1.5864216e-05
0.00081482246
1.5617644e-05
0.00081179169
1.5391827e-05
0.00080881936
1.5162426e-05
0.00080590453
1.4929029e-05
0.00080304016
1.4713482e-05
0.0008002201
1.45124e-05
0.00079744487
1.432618e-05
0.00079471697
1.413557e-05
0.00079203621
1.3943568e-05
0.00078939971
1.3761508e-05
0.00078680197
1.3590949e-05
0.00078424095
1.3431558e-05
0.00078170912
1.3322535e-05
0.00077922759
1.3106556e-05
0.00077674307
1.3106047e-05
0.00077435258
1.2959051e-05
0.00077142611
1.4929777e-05
1.2122035e-05
0.0010057182
6.3641937e-06
-0.0010055497
0.0010060071
7.8294303e-06
0.0010063053
8.9120517e-06
0.0010065674
9.641709e-06
0.0010068068
1.0235769e-05
0.0010070276
1.0780919e-05
0.0010072233
1.1257867e-05
0.0010073997
1.1680074e-05
0.0010075612
1.2075441e-05
0.0010077095
1.2457757e-05
0.0010078483
1.2836215e-05
0.0010079804
1.3214569e-05
0.0010081082
1.3591891e-05
0.0010082316
1.3962521e-05
0.0010083512
1.4320943e-05
0.0010084664
1.4664699e-05
0.0010085768
1.4992377e-05
0.0010086823
1.5304504e-05
0.0010087845
1.5605221e-05
0.0010088844
1.5891862e-05
0.0010089791
1.6147258e-05
0.0010090662
1.6365853e-05
0.0010091456
1.6557301e-05
0.0010092161
1.6729559e-05
0.0010092796
1.6896771e-05
0.0010093385
1.706862e-05
0.0010093913
1.7235423e-05
0.0010094376
1.7395136e-05
0.0010094777
1.7557469e-05
0.0010095122
1.7733132e-05
0.0010095409
1.7927736e-05
0.0010095664
1.8159429e-05
0.001009592
1.8441367e-05
0.0010096179
1.8759783e-05
0.0010096428
1.909869e-05
0.0010096666
1.9459566e-05
0.0010096894
1.9849831e-05
0.0010097093
2.026679e-05
0.0010097309
2.0746127e-05
0.0010097589
2.1293527e-05
0.00100979
2.1844598e-05
0.0010098195
2.2397367e-05
0.0010098393
2.2963193e-05
0.0010098454
2.3554634e-05
0.0010098343
2.4210451e-05
0.001009787
2.4908869e-05
0.0010096685
2.559536e-05
0.0010094331
2.6273089e-05
0.0010090122
2.6954394e-05
0.0010083068
2.7687541e-05
0.0010071987
2.8433262e-05
0.0010055757
2.9109873e-05
0.0010033449
2.969775e-05
0.0010004084
3.02112e-05
0.00099673926
3.0647543e-05
0.00099243438
3.092318e-05
0.00098761731
3.1012711e-05
0.00098241461
3.0888482e-05
0.00097695481
3.0599327e-05
0.0009713342
3.0254387e-05
0.00096562084
2.9860014e-05
0.00095988612
2.9367703e-05
0.0009541866
2.8778947e-05
0.0009485051
2.820501e-05
0.00094282983
2.7688058e-05
0.00093722097
2.7129957e-05
0.00093173856
2.6525189e-05
0.00092640731
2.5925953e-05
0.00092121845
2.5350682e-05
0.00091616459
2.47866e-05
0.00091124608
2.4243073e-05
0.00090646877
2.3733279e-05
0.00090183753
2.3208118e-05
0.00089734599
2.2690515e-05
0.00089298372
2.2235398e-05
0.00088874885
2.1793628e-05
0.00088464077
2.1349424e-05
0.00088064827
2.0945775e-05
0.00087676134
2.0552307e-05
0.00087297369
2.0156541e-05
0.00086928425
1.9798182e-05
0.00086569477
1.9453693e-05
0.00086219723
1.9115191e-05
0.00085878038
1.8808669e-05
0.00085543957
1.8503241e-05
0.00085217137
1.8197225e-05
0.00084897102
1.7913835e-05
0.00084583549
1.7647932e-05
0.00084276128
1.7400384e-05
0.00083974639
1.7150466e-05
0.00083678868
1.6901272e-05
0.00083388365
1.666654e-05
0.00083102357
1.645103e-05
0.00082820727
1.6247853e-05
0.00082542894
1.6100865e-05
0.00082270928
1.582622e-05
0.00081999084
1.582449e-05
0.00081738088
1.5569004e-05
0.00081418792
1.8122737e-05
1.440057e-05
0.001039418
6.2192218e-06
-0.001039273
0.0010396759
7.5715773e-06
0.0010399563
8.6315919e-06
0.0010402109
9.3871415e-06
0.001040445
1.0001664e-05
0.0010406639
1.0562004e-05
0.001040862
1.1059777e-05
0.0010410412
1.1500815e-05
0.0010412058
1.1910864e-05
0.0010413579
1.2305692e-05
0.0010415003
1.2693757e-05
0.001041636
1.3078946e-05
0.0010417668
1.3461055e-05
0.0010418935
1.3835817e-05
0.0010420161
1.4198361e-05
0.0010421343
1.4546486e-05
0.0010422478
1.4878871e-05
0.0010423565
1.5195823e-05
0.0010424616
1.5500121e-05
0.001042564
1.5789461e-05
0.0010426612
1.6050066e-05
0.001042751
1.6276079e-05
0.0010428328
1.6475428e-05
0.0010429061
1.6656285e-05
0.0010429721
1.6830738e-05
0.001043033
1.7007741e-05
0.0010430879
1.7180532e-05
0.0010431361
1.7346929e-05
0.001043178
1.7515599e-05
0.0010432141
1.7696997e-05
0.0010432444
1.7897425e-05
0.0010432712
1.8132623e-05
0.0010432977
1.8414857e-05
0.0010433243
1.8733226e-05
0.0010433499
1.9073067e-05
0.0010433746
1.9434893e-05
0.0010433986
1.9825868e-05
0.0010434203
2.0245088e-05
0.0010434441
2.0722255e-05
0.0010434739
2.1263746e-05
0.0010435048
2.1813715e-05
0.001043536
2.2366143e-05
0.0010435665
2.2932743e-05
0.0010435956
2.3525475e-05
0.0010436278
2.4178327e-05
0.001043664
2.487258e-05
0.0010437034
2.5556058e-05
0.0010437382
2.6238274e-05
0.001043756
2.6936573e-05
0.0010437527
2.7690833e-05
0.0010437081
2.8477818e-05
0.0010435805
2.9237546e-05
0.0010433127
2.9965525e-05
0.0010428138
3.0710121e-05
0.0010419622
3.1499126e-05
0.0010406322
3.2253174e-05
0.0010387185
3.2926403e-05
0.0010360914
3.3515623e-05
0.0010326724
3.4018244e-05
0.0010285587
3.4368149e-05
0.0010239056
3.451307e-05
0.0010188441
3.4429266e-05
0.0010134929
3.4130096e-05
0.001007946
3.3751911e-05
0.0010022718
3.3362322e-05
0.00099653347
3.2868239e-05
0.00099080345
3.225521e-05
0.00098506935
3.1660048e-05
0.00097930592
3.1114115e-05
0.0009735792
3.0513314e-05
0.00096795729
2.986499e-05
0.00096246862
2.9221943e-05
0.00095710989
2.8566857e-05
0.00095187759
2.7922814e-05
0.00094677657
2.7336415e-05
0.00094182477
2.6745427e-05
0.00093702845
2.6145744e-05
0.00093237267
2.5601554e-05
0.00092784826
2.5076723e-05
0.00092345417
2.4550623e-05
0.00091918768
2.4064677e-05
0.00091504639
2.3594987e-05
0.00091102406
2.313752e-05
0.00090711114
2.2721588e-05
0.00090330147
2.2312911e-05
0.00089958736
2.1911337e-05
0.00089596591
2.1535283e-05
0.00089243818
2.1175658e-05
0.00088899587
2.0842691e-05
0.00088563075
2.0515591e-05
0.00088233763
2.0194395e-05
0.00087911181
1.9892357e-05
0.00087594913
1.9613707e-05
0.00087284731
1.9349681e-05
0.000869795
1.9153173e-05
0.00086681096
1.8810255e-05
0.00086383327
1.8802185e-05
0.00086097846
1.8423812e-05
0.00085749607
2.1605128e-05
1.686073e-05
0.0010742425
6.0924686e-06
-0.0010741158
0.0010744728
7.3413067e-06
0.001074735
8.369389e-06
0.0010749814
9.1407614e-06
0.0010752103
9.7727256e-06
0.0010754267
1.0345646e-05
0.0010756258
1.0860605e-05
0.0010758074
1.1319236e-05
0.0010759748
1.1743467e-05
0.0010761304
1.2150137e-05
0.0010762765
1.2547595e-05
0.0010764158
1.2939683e-05
0.0010765501
1.3326778e-05
0.0010766801
1.3705778e-05
0.0010768058
1.4072629e-05
0.0010769271
1.4425188e-05
0.0010770437
1.4762289e-05
0.0010771555
1.5084036e-05
0.0010772635
1.539218e-05
0.0010773683
1.5684657e-05
0.0010774679
1.5950439e-05
0.0010775602
1.6183787e-05
0.0010776445
1.6391065e-05
0.0010777205
1.658035e-05
0.0010777891
1.6762154e-05
0.0010778521
1.6944669e-05
0.0010779092
1.7123491e-05
0.0010779595
1.7296618e-05
0.0010780033
1.7471738e-05
0.0010780414
1.7658973e-05
0.0010780737
1.7865139e-05
0.0010781023
1.8103999e-05
0.0010781303
1.8386885e-05
0.0010781581
1.8705361e-05
0.001078185
1.9046174e-05
0.0010782108
1.9409057e-05
0.0010782359
1.9800833e-05
0.0010782589
2.022207e-05
0.0010782837
2.0697454e-05
0.0010783138
2.1233623e-05
0.0010783452
2.1782354e-05
0.0010783769
2.2334429e-05
0.0010784084
2.2901284e-05
0.0010784392
2.3494652e-05
0.0010784736
2.4143919e-05
0.0010785124
2.4833763e-05
0.0010785517
2.5516785e-05
0.0010785905
2.6199436e-05
0.0010786281
2.6899029e-05
0.0010786685
2.7650391e-05
0.0010787106
2.8435737e-05
0.0010787561
2.9192069e-05
0.0010787958
2.9925804e-05
0.0010788123
3.0693574e-05
0.0010787962
3.1515208e-05
0.0010787141
3.2335292e-05
0.0010785119
3.3128614e-05
0.0010781011
3.392644e-05
0.0010773527
3.4766636e-05
0.0010761274
3.5593455e-05
0.0010743093
3.6331212e-05
0.0010717621
3.6976375e-05
0.0010683703
3.7521915e-05
0.0010642337
3.7888494e-05
0.0010595637
3.8032331e-05
0.001054503
3.7928946e-05
0.001049157
3.7601259e-05
0.0010436075
3.7209508e-05
0.0010379192
3.6802411e-05
0.0010321502
3.6282297e-05
0.0010263691
3.5646126e-05
0.0010205627
3.5028298e-05
0.0010147106
3.4418961e-05
0.0010088817
3.3751791e-05
0.0010031418
3.3076279e-05
0.0009975237
3.2363532e-05
0.00099202708
3.1642364e-05
0.00098665259
3.0976045e-05
0.00098141691
3.0312404e-05
0.00097633466
2.9632873e-05
0.00097140027
2.8999068e-05
0.00096660677
2.8388485e-05
0.00096195533
2.7788962e-05
0.00095744398
2.7232938e-05
0.00095306577
2.6691121e-05
0.00094881007
2.6167037e-05
0.00094467229
2.5673065e-05
0.00094065316
2.5194786e-05
0.00093674497
2.4750881e-05
0.00093293863
2.4321927e-05
0.00092922695
2.3906073e-05
0.00092560427
2.3515039e-05
0.00092206993
2.314805e-05
0.00091862045
2.2799158e-05
0.00091523794
2.253569e-05
0.00091193713
2.2111055e-05
0.0009086548
2.2084519e-05
0.00090552035
2.1558264e-05
0.00090172205
2.5403422e-05
1.9519393e-05
0.0011102287
5.9800771e-06
-0.0011101163
0.001110435
7.1350854e-06
0.001110679
8.1253011e-06
0.0011109165
8.9033443e-06
0.0011111401
9.549124e-06
0.0011113533
1.0132384e-05
0.0011115527
1.0661246e-05
0.0011117362
1.1135704e-05
0.0011119062
1.1573436e-05
0.0011120651
1.1991308e-05
0.0011122148
1.239787e-05
0.0011123576
1.2796892e-05
0.0011124952
1.3189173e-05
0.0011126284
1.3572588e-05
0.0011127572
1.3943839e-05
0.0011128815
1.4300884e-05
0.0011130011
1.4642688e-05
0.0011131159
1.4969187e-05
0.0011132267
1.5281373e-05
0.001113334
1.5577353e-05
0.0011134362
1.584831e-05
0.0011135311
1.6088885e-05
0.001113618
1.6304092e-05
0.0011136967
1.6501674e-05
0.001113768
1.6690914e-05
0.0011138334
1.6879269e-05
0.0011138926
1.7064207e-05
0.0011139451
1.7244112e-05
0.0011139911
1.7425792e-05
0.0011140311
1.7618965e-05
0.0011140654
1.7830802e-05
0.001114096
1.8073454e-05
0.0011141255
1.835732e-05
0.0011141548
1.8676065e-05
0.0011141831
1.901788e-05
0.0011142103
1.9381899e-05
0.0011142366
1.9774531e-05
0.0011142611
2.0197516e-05
0.0011142872
2.0671355e-05
0.0011143183
2.1202604e-05
0.0011143508
2.1749859e-05
0.0011143835
2.2301643e-05
0.0011144161
2.2868703e-05
0.0011144482
2.3462593e-05
0.0011144834
2.410868e-05
0.0011145227
2.4794507e-05
0.0011145624
2.5477093e-05
0.0011146019
2.6159874e-05
0.0011146411
2.6859877e-05
0.0011146835
2.7608025e-05
0.0011147301
2.8389063e-05
0.0011147765
2.9145729e-05
0.0011148201
2.9882188e-05
0.0011148635
3.0650143e-05
0.0011149083
3.1470374e-05
0.0011149555
3.2288163e-05
0.0011150013
3.3082792e-05
0.0011150289
3.3898827e-05
0.0011150232
3.4772313e-05
0.0011149548
3.5661865e-05
0.0011147659
3.6520186e-05
0.0011143612
3.7380984e-05
0.0011135969
3.8286306e-05