/*--------------------------------*- C++ -*----------------------------------*\
  =========                 |
  \\      /  F ield         | OpenFOAM: The Open Source CFD Toolbox
   \\    /   O peration     | Website:  https://openfoam.org
    \\  /    A nd           | Version:  12
     \\/     M anipulation  |
\*---------------------------------------------------------------------------*/
FoamFile
{
    format      ascii;
    class       volVectorField;
    location    "2000";
    object      U;
}
// * * * * * * * * * * * * * * * * * * * * * * * * * * * * * * * * * * * * * //

dimensions      [0 1 -1 0 0 0 0];

internalField   nonuniform List<vector> 
7480
(
(0.98223039 0.00075752919 0)
(0.96970507 0.0014022102 0)
(0.95647201 0.0017614885 0)
(0.94236674 0.0020804486 0)
(0.92839536 0.0024834791 0)
(0.91491964 0.0027337323 0)
(0.90196281 0.0027630911 0)
(0.88951257 0.0026980788 0)
(0.87747606 0.0025891755 0)
(0.86575833 0.0024382326 0)
(0.85415848 0.0022628793 0)
(0.84258809 0.0020983454 0)
(0.83101478 0.0019450728 0)
(0.81944329 0.0018011124 0)
(0.80789706 0.0016651079 0)
(0.79641827 0.0015347922 0)
(0.78507997 0.0014031218 0)
(0.77403248 0.0012725897 0)
(0.76315639 0.0011558882 0)
(0.75262611 0.0010453749 0)
(0.7425066 0.0009392924 0)
(0.73285292 0.00083783484 0)
(0.72372117 0.00074155024 0)
(0.71515957 0.00065131796 0)
(0.70721091 0.0005664238 0)
(0.69991501 0.00048702465 0)
(0.69328372 0.00041478041 0)
(0.68730274 0.00034950974 0)
(0.68194536 0.00029115085 0)
(0.6771754 0.00024064686 0)
(0.67294604 0.00019786105 0)
(0.66920716 0.00016161824 0)
(0.66591938 0.00013082356 0)
(0.6630396 0.0001053975 0)
(0.66051106 8.4501438e-05 0)
(0.65827145 6.8150882e-05 0)
(0.65625853 5.6653525e-05 0)
(0.65441519 4.9145563e-05 0)
(0.65270525 4.3653538e-05 0)
(0.65110185 4.021922e-05 0)
(0.64956965 3.9281934e-05 0)
(0.64807216 4.0038165e-05 0)
(0.64658179 4.2000175e-05 0)
(0.64507905 4.4642978e-05 0)
(0.64355445 4.7391987e-05 0)
(0.6420012 5.0386049e-05 0)
(0.64040914 5.4146582e-05 0)
(0.63875643 5.8534316e-05 0)
(0.63702688 6.281381e-05 0)
(0.63521978 6.6454077e-05 0)
(0.63334209 6.9565992e-05 0)
(0.63139736 7.2258314e-05 0)
(0.62938851 7.4309817e-05 0)
(0.62732781 7.5320701e-05 0)
(0.62523599 7.5289289e-05 0)
(0.62312855 7.4690136e-05 0)
(0.6210102 7.3764776e-05 0)
(0.61888211 7.2557063e-05 0)
(0.6167511 7.1004822e-05 0)
(0.61462507 6.9316686e-05 0)
(0.61250469 6.7705997e-05 0)
(0.61039089 6.5928385e-05 0)
(0.60829168 6.3879746e-05 0)
(0.60621473 6.1749185e-05 0)
(0.60415965 5.9725787e-05 0)
(0.60212689 5.7599083e-05 0)
(0.60012104 5.5427255e-05 0)
(0.59813985 5.350552e-05 0)
(0.59617651 5.1753659e-05 0)
(0.59423039 4.9991501e-05 0)
(0.59230475 4.8267715e-05 0)
(0.59039726 4.6704784e-05 0)
(0.58850796 4.504984e-05 0)
(0.58664328 4.3341434e-05 0)
(0.58480134 4.1842066e-05 0)
(0.58297738 4.036724e-05 0)
(0.58117355 3.8893347e-05 0)
(0.57938741 3.7613486e-05 0)
(0.57761559 3.6336471e-05 0)
(0.57586246 3.50042e-05 0)
(0.57412854 3.3795024e-05 0)
(0.5724118 3.2584457e-05 0)
(0.57071456 3.1378479e-05 0)
(0.56903395 3.032482e-05 0)
(0.56736682 2.9280524e-05 0)
(0.56571543 2.8240936e-05 0)
(0.56408006 2.725767e-05 0)
(0.56246103 2.6275008e-05 0)
(0.56085741 2.5366155e-05 0)
(0.5592674 2.4484469e-05 0)
(0.55769159 2.3628775e-05 0)
(0.55612864 2.2829958e-05 0)
(0.55457925 2.2029085e-05 0)
(0.5530415 2.1290364e-05 0)
(0.55151789 2.0599195e-05 0)
(0.54998747 1.9969671e-05 0)
(0.54851843 1.9151123e-05 0)
(0.54691804 5.0010159e-05 0)
(0.54552196 9.4025026e-05 0)
(0.54341098 9.0469751e-05 0)
(0.996202 0.0027559316 0)
(0.99709686 0.0038447481 0)
(0.99771671 0.0042241739 0)
(0.99795819 0.0041368282 0)
(0.99738193 0.003921787 0)
(0.99593914 0.0035839077 0)
(0.99370107 0.0032691649 0)
(0.99071736 0.0030124033 0)
(0.98708116 0.0028104691 0)
(0.98288176 0.0026633096 0)
(0.97829653 0.002575682 0)
(0.97341933 0.0025246672 0)
(0.96829245 0.0024906324 0)
(0.96292842 0.002461147 0)
(0.95732987 0.0024295311 0)
(0.95149135 0.0023912081 0)
(0.94540591 0.0023430997 0)
(0.93900913 0.0022853049 0)
(0.93241225 0.0022112421 0)
(0.92550242 0.0021177074 0)
(0.91839779 0.0020086652 0)
(0.9111428 0.0018879978 0)
(0.90377298 0.0017584937 0)
(0.89632354 0.0016234652 0)
(0.88884031 0.001484942 0)
(0.88136453 0.001347135 0)
(0.87393615 0.001214271 0)
(0.86659234 0.0010873847 0)
(0.85937293 0.00096794485 0)
(0.85231997 0.00085729227 0)
(0.84547313 0.00075646221 0)
(0.83887056 0.00066432277 0)
(0.83255968 0.00058313524 0)
(0.82649452 0.00051560227 0)
(0.82067234 0.00045847386 0)
(0.8151 0.00040940829 0)
(0.80978352 0.00036812013 0)
(0.80472671 0.00033415466 0)
(0.79992036 0.00030454616 0)
(0.79535226 0.00027920769 0)
(0.7910026 0.00025948586 0)
(0.78684793 0.00024400109 0)
(0.78286648 0.00023188922 0)
(0.77904056 0.00022201863 0)
(0.77536059 0.00021312699 0)
(0.77181507 0.00020552805 0)
(0.76839456 0.00020127765 0)
(0.76502414 0.00019996221 0)
(0.76168669 0.0001988205 0)
(0.75839263 0.00019637071 0)
(0.75515526 0.00019337396 0)
(0.75197665 0.00019042819 0)
(0.74884916 0.0001872051 0)
(0.74576741 0.00018292396 0)
(0.74273641 0.00017769959 0)
(0.73975571 0.00017263337 0)
(0.73680945 0.0001678635 0)
(0.73388688 0.00016296948 0)
(0.73098949 0.00015763048 0)
(0.72812502 0.00015222815 0)
(0.72529601 0.00014712775 0)
(0.72250192 0.00014182046 0)
(0.71974671 0.0001361825 0)
(0.71703539 0.00013061661 0)
(0.71436646 0.00012542202 0)
(0.71173776 0.00012018377 0)
(0.70914764 0.00011507281 0)
(0.70659243 0.00011055264 0)
(0.70406675 0.00010635084 0)
(0.70157072 0.00010213029 0)
(0.69910908 9.8035191e-05 0)
(0.69668137 9.428741e-05 0)
(0.6942859 9.0402519e-05 0)
(0.69192798 8.652304e-05 0)
(0.68960546 8.3123397e-05 0)
(0.68731101 7.980662e-05 0)
(0.68504525 7.6552199e-05 0)
(0.68280788 7.3683895e-05 0)
(0.68059592 7.0819808e-05 0)
(0.6784127 6.7905777e-05 0)
(0.67625974 6.5263371e-05 0)
(0.67413361 6.2647492e-05 0)
(0.67203461 6.0097147e-05 0)
(0.66996057 5.7848056e-05 0)
(0.66790831 5.5620718e-05 0)
(0.6658797 5.3432519e-05 0)
(0.66387553 5.1367419e-05 0)
(0.66189544 4.9331804e-05 0)
(0.65993779 4.745707e-05 0)
(0.6580002 4.5644655e-05 0)
(0.65608326 4.3898216e-05 0)
(0.65418602 4.2262941e-05 0)
(0.65230898 4.0647627e-05 0)
(0.65044904 3.9149718e-05 0)
(0.64861069 3.7797491e-05 0)
(0.64676499 3.638583e-05 0)
(0.64499801 3.5679563e-05 0)
(0.64308136 6.9860265e-05 0)
(0.64148682 0.00011826488 0)
(0.63857044 9.8413589e-05 0)
(0.99631537 0.0026087535 0)
(0.99684738 0.0030868582 0)
(0.99746534 0.0030461871 0)
(0.99789911 0.0029373632 0)
(0.99816884 0.0029152158 0)
(0.99849247 0.0029455551 0)
(0.99870102 0.0030085122 0)
(0.99879041 0.0030934608 0)
(0.99876609 0.0031630727 0)
(0.9986179 0.0032361975 0)
(0.99833577 0.003278279 0)
(0.99791242 0.0032953171 0)
(0.99733796 0.0032902606 0)
(0.99659787 0.0032685921 0)
(0.99567671 0.0032308832 0)
(0.99455583 0.0031776369 0)
(0.99321273 0.003110695 0)
(0.99159623 0.0030375861 0)
(0.98972506 0.0029657386 0)
(0.98751318 0.0028870169 0)
(0.98492291 0.0027945332 0)
(0.98192139 0.0026925569 0)
(0.97848496 0.0025851073 0)
(0.97459069 0.0024720436 0)
(0.97024833 0.0023517246 0)
(0.96534834 0.0022206965 0)
(0.95996004 0.0020840982 0)
(0.95415219 0.0019466468 0)
(0.94797229 0.0018106588 0)
(0.94147454 0.0016771685 0)
(0.93472147 0.0015473506 0)
(0.92778723 0.0014204271 0)
(0.92075475 0.0012965277 0)
(0.91371588 0.0011818269 0)
(0.90673491 0.0010788576 0)
(0.89986739 0.00098577802 0)
(0.8931613 0.0009015816 0)
(0.88666922 0.00082928323 0)
(0.88033956 0.00076619197 0)
(0.87419123 0.00070990627 0)
(0.86824673 0.00066136855 0)
(0.86251857 0.00061822807 0)
(0.8570199 0.00057974252 0)
(0.85175148 0.00054547721 0)
(0.84670025 0.00051398895 0)
(0.84185162 0.00048603077 0)
(0.83718773 0.00046303819 0)
(0.83269811 0.00044506855 0)
(0.82836896 0.00043012728 0)
(0.82419169 0.00041509349 0)
(0.8201584 0.00040031877 0)
(0.81625299 0.00038669962 0)
(0.81245463 0.00037382373 0)
(0.80874881 0.00036033967 0)
(0.80513603 0.00034640824 0)
(0.8016012 0.00033390313 0)
(0.79811605 0.00032256394 0)
(0.79467971 0.00031121319 0)
(0.79129659 0.00029929163 0)
(0.78797309 0.00028739867 0)
(0.78470974 0.00027614229 0)
(0.7815034 0.00026482894 0)
(0.7783544 0.00025328897 0)
(0.77526432 0.00024209763 0)
(0.77222989 0.00023169183 0)
(0.76924724 0.00022157773 0)
(0.76630815 0.00021194857 0)
(0.7634102 0.00020325721 0)
(0.7605512 0.00019507278 0)
(0.7577326 0.00018689941 0)
(0.75495906 0.00017895355 0)
(0.75222988 0.00017159804 0)
(0.74954239 0.00016414339 0)
(0.74690103 0.00015681254 0)
(0.7443013 0.00015033156 0)
(0.7417348 0.00014410045 0)
(0.73920271 0.00013802542 0)
(0.73670596 0.00013254505 0)
(0.73424208 0.00012712285 0)
(0.73181381 0.00012167885 0)
(0.72942262 0.00011668606 0)
(0.72706374 0.00011182357 0)
(0.72473624 0.00010713473 0)
(0.72243844 0.00010292882 0)
(0.72016776 9.8798809e-05 0)
(0.71792601 9.4758754e-05 0)
(0.71571404 9.0930412e-05 0)
(0.71353073 8.72016e-05 0)
(0.71137376 8.3758605e-05 0)
(0.7092407 8.0445521e-05 0)
(0.70713237 7.7256459e-05 0)
(0.70504806 7.4251309e-05 0)
(0.70298803 7.1320703e-05 0)
(0.70094847 6.8576464e-05 0)
(0.69893405 6.6154954e-05 0)
(0.69691475 6.3487957e-05 0)
(0.6949787 6.1777203e-05 0)
(0.69289245 9.2362737e-05 0)
(0.69116172 0.00014015309 0)
(0.68793715 0.00010726681 0)
(0.99646676 0.0023663725 0)
(0.99691548 0.0028578571 0)
(0.99748453 0.0030698608 0)
(0.9979111 0.0031895639 0)
(0.99820354 0.0032942234 0)
(0.99845114 0.003374705 0)
(0.99867531 0.003390646 0)
(0.99887129 0.0033769062 0)
(0.99904178 0.0033395565 0)
(0.99918213 0.0032862578 0)
(0.99934126 0.0032326173 0)
(0.99947657 0.0031846708 0)
(0.99958928 0.0031435433 0)
(0.9996834 0.0031022703 0)
(0.9997536 0.0030681024 0)
(0.99979625 0.0030368325 0)
(0.99980603 0.0030030193 0)
(0.99977435 0.0029708145 0)
(0.99969309 0.0029415949 0)
(0.99955192 0.0029089515 0)
(0.99933179 0.0028652986 0)
(0.99900729 0.0028122922 0)
(0.99855315 0.0027527831 0)
(0.99794039 0.0026879948 0)
(0.99714111 0.0026216077 0)
(0.99609084 0.002558594 0)
(0.99473535 0.0024948388 0)
(0.99302489 0.0024253592 0)
(0.99091178 0.0023507205 0)
(0.98835125 0.0022733043 0)
(0.9852957 0.002192105 0)
(0.98172155 0.0021046772 0)
(0.97749923 0.0020116296 0)
(0.97265387 0.0019136584 0)
(0.96727756 0.0018105281 0)
(0.9614316 0.0017046563 0)
(0.95519413 0.001597609 0)
(0.94865732 0.0014907123 0)
(0.9419624 0.001386099 0)
(0.93520532 0.0012878457 0)
(0.92846618 0.0011988691 0)
(0.92180721 0.0011168695 0)
(0.915296 0.0010433103 0)
(0.90891735 0.00097923385 0)
(0.90266463 0.00092049598 0)
(0.89657707 0.00086616769 0)
(0.89067689 0.00081877805 0)
(0.88501433 0.00077768163 0)
(0.87960549 0.00073991591 0)
(0.87442948 0.0007034711 0)
(0.86945846 0.00066940357 0)
(0.86466603 0.00063905131 0)
(0.86003058 0.00061145022 0)
(0.85554299 0.00058423402 0)
(0.85120483 0.00055704073 0)
(0.84700946 0.00053230509 0)
(0.84293849 0.00051058917 0)
(0.83897115 0.00049036295 0)
(0.83509642 0.00047002224 0)
(0.83131443 0.00044994477 0)
(0.82762191 0.00043096156 0)
(0.82401137 0.00041227434 0)
(0.82047807 0.00039366535 0)
(0.81701934 0.00037581146 0)
(0.81363042 0.00035924552 0)
(0.81030467 0.00034356737 0)
(0.80702366 0.00032872558 0)
(0.80379525 0.00031493664 0)
(0.80062059 0.00030176734 0)
(0.79750059 0.00028866969 0)
(0.79443855 0.00027595439 0)
(0.79143243 0.00026414308 0)
(0.78847807 0.00025235182 0)
(0.78557907 0.00024092742 0)
(0.78272605 0.0002308321 0)
(0.77991115 0.00022115087 0)
(0.77713793 0.00021167767 0)
(0.77440839 0.00020299353 0)
(0.77172002 0.00019445901 0)
(0.76907485 0.00018596132 0)
(0.76647394 0.00017813533 0)
(0.76391018 0.00017061509 0)
(0.76138174 0.00016339639 0)
(0.75888807 0.00015683206 0)
(0.7564274 0.00015041199 0)
(0.75400146 0.00014414365 0)
(0.75161095 0.00013819522 0)
(0.74925351 0.00013245392 0)
(0.746926 0.00012714124 0)
(0.74462637 0.000122036 0)
(0.74235586 0.00011711791 0)
(0.74011388 0.00011246465 0)
(0.73790036 0.0001079662 0)
(0.73571062 0.00010373182 0)
(0.73354917 0.00010003896 0)
(0.73138651 9.5829755e-05 0)
(0.72930973 9.2996522e-05 0)
(0.72708629 0.00011870839 0)
(0.72523539 0.00016573262 0)
(0.72180229 0.00012567349 0)
(0.9966471 0.0022647153 0)
(0.99702824 0.0027802113 0)
(0.99753375 0.0030271245 0)
(0.99792962 0.003111102 0)
(0.99820445 0.0031509511 0)
(0.99843624 0.003154108 0)
(0.99865264 0.0031310507 0)
(0.99884819 0.0031069979 0)
(0.99902181 0.0030848619 0)
(0.99917861 0.0030719791 0)
(0.99932374 0.0030668606 0)
(0.99946072 0.003067848 0)
(0.99959351 0.003068591 0)
(0.99972204 0.0030676397 0)
(0.9998453 0.0030606755 0)
(0.9999631 0.0030451531 0)
(1.0000758 0.0030231899 0)
(1.0001782 0.0029955932 0)
(1.0002875 0.0029643745 0)
(1.0003951 0.0029278387 0)
(1.0004916 0.0028813718 0)
(1.0005699 0.0028270962 0)
(1.0006275 0.0027688565 0)
(1.0006599 0.0027081666 0)
(1.000668 0.0026506437 0)
(1.0006482 0.0025980142 0)
(1.0005914 0.0025435096 0)
(1.0004818 0.0024859287 0)
(1.000301 0.0024285701 0)
(1.0000273 0.0023734499 0)
(0.99963142 0.0023203722 0)
(0.9990793 0.0022728532 0)
(0.99830427 0.00223085 0)
(0.99723208 0.0021933451 0)
(0.99579183 0.0021538493 0)
(0.99390909 0.0021105485 0)
(0.99151391 0.0020619407 0)
(0.98852587 0.0020096134 0)
(0.98497365 0.0019512212 0)
(0.98065543 0.0018828731 0)
(0.97571929 0.0018032107 0)
(0.97024839 0.0017160453 0)
(0.96433385 0.0016238616 0)
(0.9581074 0.0015304461 0)
(0.95170431 0.0014388767 0)
(0.94522255 0.0013518694 0)
(0.93874481 0.0012718794 0)
(0.93234447 0.0011976537 0)
(0.92609088 0.0011313176 0)
(0.91992511 0.0010706449 0)
(0.91388891 0.0010134733 0)
(0.90802246 0.0009607234 0)
(0.90234687 0.00091162878 0)
(0.89688267 0.00086409277 0)
(0.8916246 0.000818569 0)
(0.88656185 0.00077772285 0)
(0.88168552 0.00074151919 0)
(0.87697063 0.00070790691 0)
(0.87240574 0.00067494116 0)
(0.8679916 0.00064303728 0)
(0.86371495 0.00061336922 0)
(0.85955641 0.0005850412 0)
(0.85550265 0.00055754445 0)
(0.85154856 0.00053133473 0)
(0.8476916 0.00050687329 0)
(0.84392698 0.00048357915 0)
(0.84025173 0.00046174295 0)
(0.83665881 0.00044172854 0)
(0.83314061 0.0004226771 0)
(0.82969485 0.00040383677 0)
(0.82632281 0.00038558948 0)
(0.8230202 0.00036863794 0)
(0.81978075 0.00035189479 0)
(0.8166071 0.00033591891 0)
(0.8134814 0.00032177612 0)
(0.81040146 0.00030809359 0)
(0.80737457 0.00029461767 0)
(0.80440238 0.00028214371 0)
(0.8014815 0.00026996122 0)
(0.79861284 0.00025791671 0)
(0.79579681 0.00024685028 0)
(0.79302216 0.00023635071 0)
(0.79028747 0.00022626401 0)
(0.78759438 0.00021697392 0)
(0.78494174 0.000207909 0)
(0.78233081 0.00019907767 0)
(0.77976196 0.00019070984 0)
(0.77723074 0.0001827028 0)
(0.77473334 0.00017527827 0)
(0.77226869 0.00016813822 0)
(0.76983853 0.00016125303 0)
(0.76744225 0.00015472561 0)
(0.76507916 0.00014845951 0)
(0.76274331 0.00014255055 0)
(0.76043932 0.0001374174 0)
(0.75813865 0.00013147112 0)
(0.75592693 0.00012752184 0)
(0.75357253 0.00014899583 0)
(0.75160698 0.00019588566 0)
(0.74797968 0.00015043754 0)
(0.99681705 0.002185641 0)
(0.99713787 0.0026676259 0)
(0.99757923 0.0029102373 0)
(0.99794607 0.0029994044 0)
(0.9982142 0.0030548624 0)
(0.99844339 0.0030977004 0)
(0.99865851 0.003123389 0)
(0.99885323 0.0031378381 0)
(0.99902547 0.0031465724 0)
(0.99917973 0.0031462913 0)
(0.99932121 0.0031427638 0)
(0.99945442 0.0031359216 0)
(0.99958351 0.0031243356 0)
(0.99970936 0.0031059894 0)
(0.9998314 0.0030815835 0)
(0.99994964 0.0030521165 0)
(1.0000638 0.003018572 0)
(1.0001732 0.0029813803 0)
(1.0002782 0.0029426553 0)
(1.0003811 0.0029020657 0)
(1.0004814 0.0028552298 0)
(1.0005751 0.0028024546 0)
(1.000659 0.0027463235 0)
(1.0007327 0.0026879753 0)
(1.0007973 0.0026309289 0)
(1.0008531 0.0025763939 0)
(1.0009115 0.0025209896 0)
(1.0009643 0.0024650921 0)
(1.0010007 0.0024112119 0)
(1.0010239 0.0023609831 0)
(1.0010331 0.002314606 0)
(1.0010278 0.0022749191 0)
(1.0010056 0.0022448188 0)
(1.0009591 0.0022184337 0)
(1.0008724 0.0021917589 0)
(1.0007229 0.0021654337 0)
(1.0004805 0.0021408376 0)
(1.000102 0.0021161462 0)
(0.99953775 0.0020949095 0)
(0.99868451 0.0020789895 0)
(0.99745499 0.0020589318 0)
(0.99575751 0.0020308402 0)
(0.99349754 0.0019962744 0)
(0.99064273 0.0019563699 0)
(0.98714436 0.0019066001 0)
(0.98288605 0.0018443317 0)
(0.97801038 0.0017705697 0)
(0.97261875 0.0016891297 0)
(0.96683048 0.0016023709 0)
(0.96081038 0.001515148 0)
(0.95465931 0.0014319074 0)
(0.94846745 0.0013539478 0)
(0.94230706 0.0012798961 0)
(0.93625883 0.0012103297 0)
(0.93026848 0.0011458473 0)
(0.92435332 0.0010860999 0)
(0.91856643 0.0010301906 0)
(0.91294709 0.00097711772 0)
(0.90752969 0.00092584393 0)
(0.90230935 0.00087765243 0)
(0.89725868 0.00083355284 0)
(0.89235414 0.00079231303 0)
(0.88758767 0.00075289723 0)
(0.88296456 0.00071540572 0)
(0.87848585 0.00068050934 0)
(0.87413985 0.0006476993 0)
(0.86993208 0.00061709455 0)
(0.86584408 0.00058882754 0)
(0.86186586 0.00056200436 0)
(0.8579917 0.0005358295 0)
(0.85421688 0.00051077817 0)
(0.8505308 0.00048762617 0)
(0.84692551 0.0004649713 0)
(0.84340214 0.00044326152 0)
(0.83995805 0.00042387372 0)
(0.83658558 0.00040535898 0)
(0.8332829 0.0003872673 0)
(0.83004799 0.00037045564 0)
(0.8268761 0.00035411329 0)
(0.82376682 0.00033804813 0)
(0.82071939 0.0003233815 0)
(0.81771615 0.00030956878 0)
(0.81475977 0.00029619891 0)
(0.81185479 0.0002837371 0)
(0.80899945 0.00027160923 0)
(0.80619402 0.00025982835 0)
(0.80343831 0.00024871785 0)
(0.80072459 0.00023818335 0)
(0.79804925 0.00022837667 0)
(0.79541305 0.00021891629 0)
(0.79281794 0.00020978737 0)
(0.79026297 0.00020113154 0)
(0.78774641 0.00019288095 0)
(0.7852607 0.0001851005 0)
(0.78281114 0.00017833301 0)
(0.7803704 0.00017044605 0)
(0.77802232 0.00016530389 0)
(0.77553589 0.00018307164 0)
(0.77345378 0.00023079878 0)
(0.76963661 0.00017949749 0)
(0.99697472 0.0021162525 0)
(0.9972457 0.002560047 0)
(0.99763101 0.0028097788 0)
(0.99797079 0.0029227998 0)
(0.99823126 0.0029965381 0)
(0.99845435 0.0030521865 0)
(0.99866307 0.0030802347 0)
(0.99885332 0.0030891228 0)
(0.99902286 0.0030863939 0)
(0.99917566 0.0030783214 0)
(0.99931659 0.0030673199 0)
(0.99944979 0.0030542633 0)
(0.99957853 0.0030425302 0)
(0.99970384 0.0030283473 0)
(0.99982532 0.0030114394 0)
(0.99994278 0.0029903741 0)
(1.0000557 0.0029654166 0)
(1.0001637 0.0029367221 0)
(1.000267 0.00290579 0)
(1.0003676 0.002872066 0)
(1.0004655 0.0028315175 0)
(1.0005575 0.0027839192 0)
(1.0006413 0.0027317918 0)
(1.0007161 0.0026766977 0)
(1.0007824 0.0026218506 0)
(1.0008428 0.0025688613 0)
(1.0008987 0.0025155632 0)
(1.0009488 0.0024621674 0)
(1.000992 0.0024103046 0)
(1.0010283 0.0023611766 0)
(1.0010583 0.0023150174 0)
(1.0010833 0.0022744614 0)
(1.0011047 0.0022408554 0)
(1.0011307 0.0022108534 0)
(1.0011571 0.0021824213 0)
(1.001178 0.002156442 0)
(1.0011929 0.0021338559 0)
(1.0011982 0.0021137404 0)
(1.0011916 0.0021012946 0)
(1.0011685 0.0020954083 0)
(1.0011128 0.0020873327 0)
(1.000996 0.002076783 0)
(1.0007789 0.0020639445 0)
(1.0004113 0.0020496257 0)
(0.99981863 0.0020369914 0)
(0.99888732 0.0020239844 0)
(0.99751467 0.0020039903 0)
(0.99559959 0.001975335 0)
(0.9930546 0.0019395471 0)
(0.98986362 0.001895457 0)
(0.98590465 0.0018386655 0)
(0.98132643 0.0017697238 0)
(0.97623345 0.001692064 0)
(0.97075688 0.0016072504 0)
(0.9650447 0.0015216691 0)
(0.95919092 0.0014417622 0)
(0.95327258 0.0013669687 0)
(0.94736011 0.0012947611 0)
(0.94154065 0.0012264741 0)
(0.93574545 0.001163676 0)
(0.92999715 0.0011047333 0)
(0.92434735 0.0010476808 0)
(0.91884121 0.00099216627 0)
(0.91351027 0.00093956814 0)
(0.90833815 0.00089115519 0)
(0.90330382 0.00084551933 0)
(0.89841071 0.00080273298 0)
(0.89366624 0.00076318097 0)
(0.88907776 0.00072590872 0)
(0.88463329 0.0006901704 0)
(0.8803186 0.00065654009 0)
(0.87611794 0.00062558099 0)
(0.87202833 0.00059544478 0)
(0.86804969 0.00056670467 0)
(0.86419002 0.00054091126 0)
(0.86043461 0.00051632797 0)
(0.85677414 0.00049247943 0)
(0.8532034 0.0004703474 0)
(0.84971455 0.00044900524 0)
(0.84630386 0.00042821094 0)
(0.84296739 0.00040912551 0)
(0.83969961 0.00039116499 0)
(0.83649968 0.00037390667 0)
(0.8333647 0.00035781735 0)
(0.83028979 0.00034222263 0)
(0.82727409 0.00032711179 0)
(0.82431662 0.000312953 0)
(0.82140483 0.00029960956 0)
(0.81853755 0.00028708762 0)
(0.81571811 0.00027495566 0)
(0.81294771 0.00026325399 0)
(0.81022456 0.00025217856 0)
(0.80754543 0.00024170806 0)
(0.80490085 0.0002318358 0)
(0.802298 0.00022319873 0)
(0.79971059 0.00021313175 0)
(0.79722013 0.00020675182 0)
(0.79459626 0.00022094322 0)
(0.79239137 0.00027040714 0)
(0.78838237 0.00021207719 0)
(0.99712131 0.0020583339 0)
(0.997352 0.0024661506 0)
(0.99768814 0.0027191401 0)
(0.99800017 0.0028476759 0)
(0.99825013 0.0029288744 0)
(0.9984659 0.0029883084 0)
(0.99866814 0.0030218907 0)
(0.99885475 0.0030371897 0)
(0.99902277 0.0030433087 0)
(0.99917503 0.0030446857 0)
(0.99931601 0.003043356 0)
(0.99944933 0.0030413437 0)
(0.99957754 0.0030358181 0)
(0.99970188 0.0030271626 0)
(0.9998224 0.0030130054 0)
(0.99993886 0.0029937253 0)
(1.0000509 0.0029692678 0)
(1.000158 0.0029401653 0)
(1.0002606 0.0029078365 0)
(1.0003603 0.0028720647 0)
(1.0004569 0.0028298785 0)
(1.000548 0.0027811099 0)
(1.000631 0.0027281759 0)
(1.0007054 0.0026728214 0)
(1.0007716 0.0026177795 0)
(1.0008315 0.0025645846 0)
(1.0008865 0.0025115277 0)
(1.000936 0.002458419 0)
(1.000979 0.0024066213 0)
(1.0010158 0.0023574766 0)
(1.001047 0.0023115294 0)
(1.0010735 0.0022710782 0)
(1.0010979 0.0022372841 0)
(1.0011228 0.0022078062 0)
(1.0011483 0.0021806284 0)
(1.0011729 0.0021557927 0)
(1.001196 0.0021337015 0)
(1.0012174 0.0021136401 0)
(1.0012377 0.0020993348 0)
(1.0012602 0.0020904923 0)
(1.0012891 0.0020802468 0)
(1.0013231 0.0020688071 0)
(1.0013487 0.0020576876 0)
(1.0013626 0.0020480758 0)
(1.0013624 0.0020436923 0)
(1.0013383 0.0020415702 0)
(1.0012652 0.0020365599 0)
(1.0011036 0.0020280761 0)
(1.0007972 0.0020167072 0)
(1.0002672 0.0020052392 0)
(0.99939134 0.0019913568 0)
(0.99806003 0.0019696753 0)
(0.99616528 0.0019381676 0)
(0.99362917 0.001897278 0)
(0.99033 0.0018483918 0)
(0.98633917 0.0017880536 0)
(0.98178381 0.0017189051 0)
(0.97678097 0.0016418629 0)
(0.97146238 0.0015594697 0)
(0.96594849 0.0014797595 0)
(0.96031214 0.0014059873 0)
(0.95461863 0.0013351168 0)
(0.9489403 0.0012657195 0)
(0.94331511 0.0012012659 0)
(0.93767129 0.0011415864 0)
(0.93206209 0.001082996 0)
(0.92654956 0.0010258912 0)
(0.9211902 0.00097239658 0)
(0.91597929 0.00092244648 0)
(0.91090264 0.00087489591 0)
(0.90595802 0.00083040547 0)
(0.90114926 0.00078926942 0)
(0.89648727 0.00074944818 0)
(0.89196677 0.0007115702 0)
(0.88758029 0.00067733304 0)
(0.8833185 0.00064489012 0)
(0.87918399 0.00061366117 0)
(0.875172 0.00058482828 0)
(0.87126843 0.00055733859 0)
(0.86746537 0.00053080102 0)
(0.86375723 0.00050640541 0)
(0.86015062 0.00048342894 0)
(0.8566403 0.00046140163 0)
(0.8532148 0.00044091878 0)
(0.84986572 0.00042119501 0)
(0.84659046 0.00040218034 0)
(0.84338495 0.00038435413 0)
(0.84024484 0.00036758128 0)
(0.83716727 0.00035187843 0)
(0.83414916 0.00033671942 0)
(0.83118902 0.00032213016 0)
(0.82828403 0.00030835816 0)
(0.82542885 0.00029543559 0)
(0.82261215 0.00028321315 0)
(0.81984486 0.00027242312 0)
(0.81710086 0.00025990188 0)
(0.81445878 0.00025214127 0)
(0.81168848 0.00026275471 0)
(0.80935136 0.00031458836 0)
(0.80514475 0.00024802471 0)
(0.99725774 0.0020084459 0)
(0.9974557 0.0023821151 0)
(0.99774873 0.0026325381 0)
(0.99803333 0.0027718705 0)
(0.99827157 0.0028607306 0)
(0.99848014 0.0029269067 0)
(0.99867615 0.0029696049 0)
(0.99885873 0.002993252 0)
(0.9990245 0.0030056788 0)
(0.99917538 0.003011147 0)
(0.99931539 0.0030120868 0)
(0.9994479 0.0030094459 0)
(0.99957516 0.0030035538 0)
(0.99969842 0.0029931008 0)
(0.99981799 0.0029781422 0)
(0.9999336 0.0029585422 0)
(1.0000449 0.0029343839 0)
(1.0001515 0.0029062166 0)
(1.0002539 0.0028750712 0)
(1.000353 0.0028407415 0)
(1.0004489 0.0028008463 0)
(1.0005393 0.0027549657 0)
(1.0006222 0.0027050553 0)
(1.0006967 0.0026527773 0)
(1.0007632 0.0026003977 0)
(1.0008235 0.0025493224 0)
(1.0008787 0.002498299 0)
(1.0009285 0.0024470883 0)
(1.0009718 0.0023970038 0)
(1.0010091 0.0023494446 0)
(1.0010408 0.0023050584 0)
(1.0010679 0.0022657412 0)
(1.0010927 0.0022325941 0)
(1.0011175 0.0022036846 0)
(1.0011427 0.0021769278 0)
(1.0011671 0.0021521686 0)
(1.0011905 0.0021299744 0)
(1.0012126 0.0021099904 0)
(1.001234 0.002095342 0)
(1.0012585 0.0020861465 0)
(1.0012876 0.0020763091 0)
(1.0013185 0.002065521 0)
(1.0013487 0.0020548588 0)
(1.0013773 0.0020452823 0)
(1.0014062 0.0020396439 0)
(1.0014375 0.0020358846 0)
(1.0014734 0.0020293966 0)
(1.0015144 0.0020213177 0)
(1.0015411 0.0020132682 0)
(1.00155 0.0020089198 0)
(1.0015328 0.0020060293 0)
(1.0014608 0.0019990595 0)
(1.0012876 0.0019871238 0)
(1.0009472 0.0019727829 0)
(1.0003259 0.0019583106 0)
(0.99930382 0.0019391729 0)
(0.99776545 0.0019119249 0)
(0.99562422 0.0018741732 0)
(0.9927133 0.001827037 0)
(0.98904932 0.0017710476 0)
(0.98480834 0.0017074974 0)
(0.98011475 0.0016360517 0)
(0.97509077 0.0015584722 0)
(0.96984035 0.0014811967 0)
(0.96444202 0.0014091086 0)
(0.95895155 0.0013402997 0)
(0.95342933 0.0012725008 0)
(0.94795394 0.0012097027 0)
(0.94242458 0.0011507272 0)
(0.93689432 0.0010923182 0)
(0.93143484 0.0010355295 0)
(0.926106 0.00098223959 0)
(0.92090503 0.0009311885 0)
(0.91582376 0.00088262598 0)
(0.91086386 0.0008383284 0)
(0.90603761 0.00079612895 0)
(0.90136348 0.00075564763 0)
(0.89683371 0.00071849542 0)
(0.89243124 0.00068341658 0)
(0.88815314 0.00064972762 0)
(0.88399929 0.00061855662 0)
(0.87996777 0.00058910786 0)
(0.87605371 0.00056110272 0)
(0.87224927 0.00053518182 0)
(0.86854648 0.00051039916 0)
(0.86493956 0.00048669069 0)
(0.86141962 0.0004645283 0)
(0.85799131 0.00044366829 0)
(0.85465057 0.00042411922 0)
(0.85138646 0.0004053598 0)
(0.84819359 0.00038740135 0)
(0.84506733 0.00037046844 0)
(0.84200416 0.00035458574 0)
(0.83899829 0.00033959479 0)
(0.83605284 0.00032635867 0)
(0.83313938 0.00031112063 0)
(0.83033355 0.00030181755 0)
(0.82740454 0.00030877889 0)
(0.82492304 0.00036322519 0)
(0.82051088 0.00028745274 0)
(0.99738506 0.0019651028 0)
(0.99755628 0.0023070636 0)
(0.99781189 0.0025512984 0)
(0.99807025 0.0026987136 0)
(0.99829595 0.0027952634 0)
(0.99849698 0.0028676409 0)
(0.9986864 0.0029173334 0)
(0.9988642 0.0029469656 0)
(0.99902711 0.0029637137 0)
(0.99917627 0.0029726427 0)
(0.99931518 0.0029764601 0)
(0.99944687 0.0029764718 0)
(0.99957335 0.002973026 0)
(0.99969578 0.0029656263 0)
(0.99981448 0.0029537778 0)
(0.99992923 0.0029371958 0)
(1.0000397 0.0029159642 0)
(1.0001458 0.0028904927 0)
(1.0002476 0.0028615122 0)
(1.0003461 0.0028288772 0)
(1.0004411 0.002790756 0)
(1.0005308 0.0027466872 0)
(1.0006133 0.0026983631 0)
(1.0006878 0.0026474968 0)
(1.0007546 0.0025961302 0)
(1.0008152 0.0025456412 0)
(1.0008707 0.0024952327 0)
(1.0009207 0.0024447049 0)
(1.0009646 0.0023952548 0)
(1.0010025 0.0023482294 0)
(1.001035 0.0023043295 0)
(1.0010629 0.0022651717 0)
(1.0010884 0.0022317951 0)
(1.0011138 0.0022026015 0)
(1.0011393 0.0021756605 0)
(1.0011641 0.002150794 0)
(1.0011878 0.002128602 0)
(1.0012102 0.0021088742 0)
(1.001232 0.0020941424 0)
(1.0012564 0.0020845642 0)
(1.0012849 0.002074728 0)
(1.001315 0.0020639063 0)
(1.0013449 0.0020531388 0)
(1.0013739 0.0020434197 0)
(1.0014035 0.0020372969 0)
(1.0014366 0.0020330461 0)
(1.0014733 0.0020265394 0)
(1.0015107 0.0020186143 0)
(1.0015465 0.0020107118 0)
(1.0015818 0.0020054981 0)
(1.0016203 0.0020010375 0)
(1.0016573 0.0019929907 0)
(1.0017061 0.0019820204 0)
(1.0017333 0.001972806 0)
(1.0017366 0.0019666752 0)
(1.0017 0.0019588688 0)
(1.0015827 0.0019467166 0)
(1.0013245 0.0019319309 0)
(1.0008171 0.0019162035 0)
(0.99992658 0.0018983219 0)
(0.99853258 0.0018724779 0)
(0.99654334 0.0018364827 0)
(0.99379221 0.0017895651 0)
(0.9902299 0.0017327319 0)
(0.98610014 0.0016714702 0)
(0.98155366 0.001603428 0)
(0.97669744 0.0015302292 0)
(0.97161986 0.0014573532 0)
(0.96638969 0.0013883905 0)
(0.96105604 0.0013222326 0)
(0.9556746 0.0012573326 0)
(0.95031888 0.0011967563 0)
(0.94489242 0.0011381492 0)
(0.93945064 0.0010801719 0)
(0.93406637 0.0010252286 0)
(0.92879433 0.00097227233 0)
(0.9236351 0.00092165908 0)
(0.91858658 0.0008749316 0)
(0.91365686 0.00083064912 0)
(0.90886596 0.00078810629 0)
(0.90421955 0.00074871208 0)
(0.89970504 0.0007116068 0)
(0.89531976 0.00067638539 0)
(0.8910679 0.0006437348 0)
(0.8869443 0.00061274068 0)
(0.88293893 0.00058335304 0)
(0.87904225 0.00055583196 0)
(0.87525669 0.00052979022 0)
(0.87157967 0.00050547399 0)
(0.86800044 0.00048236083 0)
(0.86451229 0.00046036639 0)
(0.86110847 0.00043969497 0)
(0.85778617 0.00042033563 0)
(0.85454569 0.00040206213 0)
(0.85138184 0.0003859002 0)
(0.848263 0.00036755993 0)
(0.84525935 0.00035635045 0)
(0.84214767 0.00035939462 0)
(0.83950737 0.0004161849 0)
(0.83488085 0.00033064179 0)
(0.99750419 0.0019269711 0)
(0.99765342 0.0022399101 0)
(0.99787678 0.0024755563 0)
(0.99811052 0.0026282173 0)
(0.99832307 0.0027312849 0)
(0.99851607 0.0028087417 0)
(0.99869867 0.0028641342 0)
(0.99887131 0.0028994634 0)
(0.99903102 0.0029210992 0)
(0.99917826 0.0029342951 0)
(0.99931588 0.0029417576 0)
(0.99944655 0.0029447268 0)
(0.99957206 0.002943602 0)
(0.99969345 0.0029380902 0)
(0.99981109 0.0029277079 0)
(0.99992484 0.002912342 0)
(1.0000345 0.0028921966 0)
(1.0001398 0.0028676891 0)
(1.0002411 0.0028394426 0)
(1.0003388 0.0028074229 0)
(1.0004329 0.0027702707 0)
(1.000522 0.0027275564 0)
(1.0006041 0.0026807265 0)
(1.0006787 0.0026314543 0)
(1.0007458 0.0025815529 0)
(1.0008067 0.002532294 0)
(1.0008624 0.0024831869 0)
(1.0009128 0.0024340434 0)
(1.0009572 0.0023859056 0)
(1.0009957 0.0023400538 0)
(1.0010289 0.0022972474 0)
(1.0010577 0.0022588912 0)
(1.0010841 0.0022259409 0)
(1.00111 0.0021970912 0)
(1.0011359 0.0021705872 0)
(1.001161 0.0021461748 0)
(1.0011851 0.0021243863 0)
(1.0012081 0.0021051173 0)
(1.0012305 0.0020904167 0)
(1.0012552 0.0020804816 0)
(1.0012836 0.0020706244 0)
(1.0013137 0.0020598695 0)
(1.0013436 0.0020492436 0)
(1.0013727 0.0020397491 0)
(1.0014023 0.0020335727 0)
(1.001435 0.0020292427 0)