/*--------------------------------*- C++ -*----------------------------------*\
  =========                 |
  \\      /  F ield         | OpenFOAM: The Open Source CFD Toolbox
   \\    /   O peration     | Website:  https://openfoam.org
    \\  /    A nd           | Version:  12
     \\/     M anipulation  |
\*---------------------------------------------------------------------------*/
FoamFile
{
    format      ascii;
    class       volVectorField;
    location    "2000";
    object      wallShearStress;
}
// * * * * * * * * * * * * * * * * * * * * * * * * * * * * * * * * * * * * * //

dimensions      [0 2 -2 0 0 0 0];

internalField   uniform (0 0 0);

boundaryField
{
    inlet
    {
        type            calculated;
        value           uniform (0 0 0);
    }
    top
    {
        type            calculated;
        value           uniform (0 0 0);
    }
    outlet
    {
        type            calculated;
        value           uniform (0 0 0);
    }
    slipsurface
    {
        type            calculated;
        value           uniform (0 0 0);
    }
    bottom
    {
        type            calculated;
        value           nonuniform List<vector> 
100
(
(-0.0033445904 -3.5340091e-06 0)
(-0.0032712236 -6.5067618e-06 0)
(-0.0031943108 -8.1526729e-06 0)
(-0.0031132932 -9.5778936e-06 0)
(-0.0030339135 -1.130654e-05 0)
(-0.0029581471 -1.2316645e-05 0)
(-0.0028861375 -1.2348767e-05 0)
(-0.0028176988 -1.1972328e-05 0)
(-0.002752222 -1.141502e-05 0)
(-0.0026891256 -1.0694506e-05 0)
(-0.0026272932 -9.8895796e-06 0)
(-0.0025662459 -9.1427656e-06 0)
(-0.0025058125 -8.4525334e-06 0)
(-0.0024460197 -7.8085401e-06 0)
(-0.002386988 -7.2035013e-06 0)
(-0.0023289266 -6.6264048e-06 0)
(-0.0022721899 -6.0465318e-06 0)
(-0.0022175027 -5.4788876e-06 0)
(-0.0021642339 -4.9712347e-06 0)
(-0.0021131976 -4.4879455e-06 0)
(-0.0020646537 -4.025765e-06 0)
(-0.0020188043 -3.5854272e-06 0)
(-0.001975848 -3.1688151e-06 0)
(-0.0019359405 -2.7790891e-06 0)
(-0.0018992085 -2.4134694e-06 0)
(-0.0018657637 -2.0728688e-06 0)
(-0.0018355907 -1.7639637e-06 0)
(-0.0018085611 -1.4863078e-06 0)
(-0.0017844987 -1.2394224e-06 0)
(-0.001763193 -1.0262441e-06 0)
(-0.0017443953 -8.4576428e-07 0)
(-0.0017278506 -6.930014e-07 0)
(-0.0017133589 -5.6339642e-07 0)
(-0.0017007092 -4.5636834e-07 0)
(-0.001689636 -3.6882205e-07 0)
(-0.0016798544 -3.0037114e-07 0)
(-0.001671084 -2.5148679e-07 0)
(-0.0016630699 -2.1842092e-07 0)
(-0.0016556507 -1.9373938e-07 0)
(-0.0016487069 -1.77359e-07 0)
(-0.0016420833 -1.7069539e-07 0)
(-0.001635621 -1.7075809e-07 0)
(-0.0016292004 -1.7556045e-07 0)
(-0.0016227376 -1.8303839e-07 0)
(-0.0016161922 -1.9107322e-07 0)
(-0.0016095358 -2.0010626e-07 0)
(-0.0016027254 -2.1199265e-07 0)
(-0.0015956689 -2.2625824e-07 0)
(-0.0015882988 -2.4021343e-07 0)
(-0.001580614 -2.5188576e-07 0)
(-0.0015726463 -2.6163064e-07 0)
(-0.0015644126 -2.6986337e-07 0)
(-0.0015559272 -2.7580452e-07 0)
(-0.0015472437 -2.780366e-07 0)
(-0.0015384507 -2.7658305e-07 0)
(-0.0015296141 -2.7315786e-07 0)
(-0.0015207542 -2.6866822e-07 0)
(-0.001511876 -2.6325293e-07 0)
(-0.0015030084 -2.5668003e-07 0)
(-0.0014941842 -2.4967952e-07 0)
(-0.0014854059 -2.4298891e-07 0)
(-0.0014766773 -2.3577743e-07 0)
(-0.0014680312 -2.2768201e-07 0)
(-0.0014594984 -2.1936616e-07 0)
(-0.0014510769 -2.114748e-07 0)
(-0.0014427677 -2.0330677e-07 0)
(-0.0014345888 -1.9506159e-07 0)
(-0.0014265304 -1.8772814e-07 0)
(-0.0014185641 -1.8103278e-07 0)
(-0.0014106868 -1.7435432e-07 0)
(-0.0014029112 -1.6785314e-07 0)
(-0.0013952273 -1.6192589e-07 0)
(-0.0013876348 -1.5573872e-07 0)
(-0.0013801589 -1.4942245e-07 0)
(-0.0013727915 -1.4383911e-07 0)
(-0.0013655128 -1.383901e-07 0)
(-0.0013583311 -1.3299106e-07 0)
(-0.001351236 -1.2825866e-07 0)
(-0.0013442138 -1.2357182e-07 0)
(-0.0013372814 -1.1873822e-07 0)
(-0.0013304402 -1.1432896e-07 0)
(-0.0013236819 -1.0995124e-07 0)
(-0.001317015 -1.0562451e-07 0)
(-0.0013104279 -1.0181535e-07 0)
(-0.0013039078 -9.8067355e-08 0)
(-0.0012974633 -9.435671e-08 0)
(-0.0012910949 -9.0845395e-08 0)
(-0.0012848036 -8.7364747e-08 0)
(-0.0012785853 -8.4140958e-08 0)
(-0.0012724328 -8.1026599e-08 0)
(-0.001266348 -7.8015723e-08 0)
(-0.0012603253 -7.5200268e-08 0)
(-0.0012543672 -7.2401852e-08 0)
(-0.0012484661 -6.9809643e-08 0)
(-0.0012426311 -6.7412296e-08 0)
(-0.001236782 -6.5133523e-08 0)
(-0.001231179 -6.2517792e-08 0)
(-0.0012250877 -1.5428754e-07 0)
(-0.001219784 -2.858812e-07 0)
(-0.001211784 -2.7227646e-07 0)
)
;
    }
    frontandback
    {
        type            empty;
    }
}


// ************************************************************************* //
