/*--------------------------------*- C++ -*----------------------------------*\
  =========                 |
  \\      /  F ield         | OpenFOAM: The Open Source CFD Toolbox
   \\    /   O peration     | Website:  https://openfoam.org
    \\  /    A nd           | Version:  12
     \\/     M anipulation  |
\*---------------------------------------------------------------------------*/
FoamFile
{
    format      ascii;
    class       volScalarField;
    location    "600";
    object      nut;
}
// * * * * * * * * * * * * * * * * * * * * * * * * * * * * * * * * * * * * * //

dimensions      [0 2 -1 0 0 0 0];

internalField   nonuniform List<scalar> 
7480
(
1.0963525e-06
7.3263385e-07
5.7370173e-07
5.3800937e-07
5.6380552e-07
6.3850602e-07
7.7043887e-07
9.76005e-07
1.277262e-06
1.6978371e-06
2.2572794e-06
2.9715398e-06
3.8459203e-06
4.8397762e-06
5.8328372e-06
6.6690114e-06
7.2497342e-06
7.5685044e-06
7.7048137e-06
7.6751376e-06
7.5836558e-06
7.4546167e-06
7.3081545e-06
7.1657226e-06
7.0576235e-06
6.9896078e-06
6.953253e-06
6.9376673e-06
6.9351445e-06
6.9413871e-06
6.9526054e-06
6.9651999e-06
6.9772573e-06
6.9556335e-06
6.918923e-06
6.8825064e-06
6.8508266e-06
6.8247136e-06
6.8031044e-06
6.7841749e-06
6.7663621e-06
6.7488557e-06
6.7314584e-06
6.7146342e-06
6.7011627e-06
6.6985007e-06
6.7348889e-06
6.8772368e-06
7.2286115e-06
7.8072295e-06
8.3398893e-06
8.682818e-06
8.9493573e-06
9.1465297e-06
9.2774357e-06
9.3600469e-06
9.4139817e-06
9.4530429e-06
9.4834989e-06
9.508972e-06
9.5310192e-06
9.550403e-06
9.567753e-06
9.5836921e-06
9.5985956e-06
9.6127956e-06
9.6266837e-06
9.6404815e-06
9.6542804e-06
9.668173e-06
9.6822836e-06
9.6967468e-06
9.7116909e-06
9.727235e-06
9.7434936e-06
9.7605778e-06
9.7785949e-06
9.7976493e-06
9.8178382e-06
9.8392476e-06
9.8619515e-06
9.8859946e-06
9.9112985e-06
9.9368894e-06
9.9510698e-06
9.7039902e-06
4.2981374e-06
4.0041107e-06
4.0299398e-06
4.0472793e-06
4.0577565e-06
4.0657754e-06
4.0712362e-06
4.0746635e-06
4.0765902e-06
4.0774128e-06
4.0773643e-06
4.0766813e-06
4.0754223e-06
4.0712815e-06
1.4068983e-06
1.3395783e-06
1.2659052e-06
1.1926027e-06
1.1219508e-06
1.0557682e-06
9.9351422e-07
9.4494037e-07
8.9747571e-07
9.1266341e-07
9.6143039e-07
1.0536819e-06
1.2041415e-06
1.4346298e-06
1.7651764e-06
2.201083e-06
2.7518363e-06
3.3860515e-06
4.0873275e-06
4.8534167e-06
5.679879e-06
6.469137e-06
7.1942008e-06
7.8596799e-06
8.4632025e-06
9.0052572e-06
9.4898434e-06
9.9236419e-06
1.0318545e-05
1.0686513e-05
1.1030838e-05
1.1351482e-05
1.1644801e-05
1.1905093e-05
1.2135399e-05
1.2345013e-05
1.2543857e-05
1.2746135e-05
1.2956891e-05
1.3175007e-05
1.3397335e-05
1.3621353e-05
1.3845036e-05
1.4066024e-05
1.4285394e-05
1.4486235e-05
1.4678911e-05
1.4892133e-05
1.517104e-05
1.5543268e-05
1.5950045e-05
1.6319741e-05
1.6638127e-05
1.6904412e-05
1.7128429e-05
1.7320945e-05
1.7490905e-05
1.7646243e-05
1.7792675e-05
1.7934199e-05
1.8071071e-05
1.8202935e-05
1.8330045e-05
1.8453229e-05
1.8572715e-05
1.8689062e-05
1.8803284e-05
1.8915805e-05
1.9026652e-05
1.9135912e-05
1.9243797e-05
1.9350573e-05
1.9456501e-05
1.9561825e-05
1.9666775e-05
1.9771574e-05
1.9876435e-05
1.9981561e-05
2.0087139e-05
2.0193335e-05
2.0300292e-05
2.0408096e-05
2.0516585e-05
2.0623882e-05
2.0707914e-05
2.0527907e-05
1.7373062e-05
1.5971927e-05
1.4918071e-05
1.4262037e-05
1.3827328e-05
1.353308e-05
1.3325686e-05
1.317566e-05
1.3064623e-05
1.2980823e-05
1.2916204e-05
1.2865661e-05
1.2825094e-05
1.2791661e-05
1.4395463e-06
1.4160205e-06
1.3898847e-06
1.3624529e-06
1.3341014e-06
1.3042824e-06
1.2727367e-06
1.2394036e-06
1.2042451e-06
1.1696465e-06
1.1367919e-06
1.1070665e-06
1.0823003e-06
1.0643215e-06
1.0473994e-06
1.0495651e-06
1.0659089e-06
1.1249706e-06
1.2378283e-06
1.4170745e-06
1.6795854e-06
2.0415185e-06
2.5054948e-06
3.0913972e-06
3.7684744e-06
4.5300666e-06
5.3896015e-06
6.297055e-06
7.2145911e-06
8.1142795e-06
8.9731695e-06
9.772574e-06
1.0487274e-05
1.1133132e-05
1.1739904e-05
1.2326498e-05
1.2895623e-05
1.3446342e-05
1.3973558e-05
1.4480525e-05
1.4971224e-05
1.544939e-05
1.5915607e-05
1.6368224e-05
1.6807673e-05
1.7231224e-05
1.7637393e-05
1.8029551e-05
1.8426947e-05
1.8841076e-05
1.926575e-05
1.9688922e-05
2.0093718e-05
2.0476218e-05
2.0838805e-05
2.118261e-05
2.1508275e-05
2.1820345e-05
2.2124434e-05
2.2423997e-05
2.2716017e-05
2.299935e-05
2.3274224e-05
2.3541669e-05
2.3801221e-05
2.4053913e-05
2.4301328e-05
2.4543635e-05
2.4780583e-05
2.5012181e-05
2.5238638e-05
2.546022e-05
2.5677185e-05
2.5889767e-05
2.6098192e-05
2.6302677e-05
2.6503434e-05
2.670067e-05
2.6894588e-05
2.7085377e-05
2.7273222e-05
2.7458273e-05
2.7640497e-05
2.7818787e-05
2.7979458e-05
2.7998843e-05
2.6868322e-05
2.6273713e-05
2.5821142e-05
2.5545193e-05
2.5377947e-05
2.5283222e-05
2.523213e-05
2.520747e-05
2.5198575e-05
2.5199433e-05
2.5204341e-05
2.5215356e-05
2.5215624e-05
2.5249673e-05
1.4491963e-06
1.437388e-06
1.4244959e-06
1.4109981e-06
1.3970008e-06
1.3825067e-06
1.3675149e-06
1.3518826e-06
1.3355678e-06
1.3183669e-06
1.3001965e-06
1.2809606e-06
1.2606546e-06
1.2395918e-06
1.2185928e-06
1.1981346e-06
1.1784549e-06
1.1603897e-06
1.1457679e-06
1.1354061e-06
1.129751e-06
1.1342347e-06
1.1503472e-06
1.1922203e-06
1.2826609e-06
1.4357359e-06
1.6717411e-06
2.0108174e-06
2.4674732e-06
3.068064e-06
3.8071991e-06
4.6642103e-06
5.6384986e-06
6.6763805e-06
7.7309087e-06
8.7681806e-06
9.7660933e-06
1.0714001e-05
1.1612108e-05
1.2466814e-05
1.3286903e-05
1.4081398e-05
1.4846054e-05
1.5580729e-05
1.630246e-05
1.7013246e-05
1.7701706e-05
1.8365433e-05
1.9010347e-05
1.9641206e-05
2.0260135e-05
2.0866409e-05
2.1459156e-05
2.2036582e-05
2.2596473e-05
2.3137336e-05
2.3658758e-05
2.4170113e-05
2.4675449e-05
2.5175647e-05
2.5661017e-05
2.6133133e-05
2.6593112e-05
2.7042267e-05
2.7478613e-05
2.7905204e-05
2.832377e-05
2.8733486e-05
2.913396e-05
2.9525325e-05
2.9907839e-05
3.0281753e-05
3.0647292e-05
3.1004652e-05
3.1354012e-05
3.169554e-05
3.2029387e-05
3.2355701e-05
3.2674623e-05
3.2986281e-05
3.3290807e-05
3.3588317e-05
3.3878827e-05
3.4162038e-05
3.4432439e-05
3.4648971e-05
3.4505276e-05
3.4473208e-05
3.4462245e-05
3.4502683e-05
3.4582992e-05
3.4693778e-05
3.4823087e-05
3.4962036e-05
3.510439e-05
3.5247313e-05
3.5385266e-05
3.552799e-05
3.5634038e-05
3.5847046e-05
1.453945e-06
1.4469249e-06
1.4393443e-06
1.4314274e-06
1.4232203e-06
1.4147257e-06
1.4059386e-06
1.3968486e-06
1.387446e-06
1.3777076e-06
1.3676033e-06
1.3570942e-06
1.3461373e-06
1.3346808e-06
1.3227417e-06
1.3102873e-06
1.2973365e-06
1.2837565e-06
1.2695073e-06
1.2548887e-06
1.2403692e-06
1.2262223e-06
1.2127061e-06
1.2004775e-06
1.1915428e-06
1.1831714e-06
1.1843612e-06
1.1916377e-06
1.2140228e-06
1.2573145e-06
1.3537028e-06
1.5246716e-06
1.7974513e-06
2.1990212e-06
2.7482882e-06
3.4859411e-06
4.3712703e-06
5.393346e-06
6.5284142e-06
7.7191905e-06
8.9203053e-06
1.0098225e-05
1.1233589e-05
1.2320847e-05
1.3366079e-05
1.4380688e-05
1.5370807e-05
1.63354e-05
1.7272988e-05
1.8184186e-05
1.9071765e-05
1.9933269e-05
2.0780249e-05
2.1606647e-05
2.2412637e-05
2.3198341e-05
2.3963343e-05
2.4710911e-05
2.5444187e-05
2.6165715e-05
2.6872616e-05
2.7564189e-05
2.8240512e-05
2.8902734e-05
2.9545305e-05
3.0178671e-05
3.0801538e-05
3.1410911e-05
3.2007321e-05
3.2591295e-05
3.3163185e-05
3.3723266e-05
3.4271777e-05
3.480893e-05
3.5334916e-05
3.5849909e-05
3.6354061e-05
3.6847518e-05
3.7330411e-05
3.7802861e-05
3.8264988e-05
3.8716905e-05
3.9158659e-05
3.9590323e-05
4.0010065e-05
4.0407655e-05
4.0701337e-05
4.1005385e-05
4.129349e-05
4.1580903e-05
4.1873066e-05
4.2172265e-05
4.2475733e-05
4.277962e-05
4.3080196e-05
4.3376394e-05
4.366188e-05
4.3953574e-05
4.4181992e-05
4.4608963e-05
1.4569144e-06
1.4523267e-06
1.447404e-06
1.44227e-06
1.4369491e-06
1.4314415e-06
1.4257418e-06
1.4198434e-06
1.4137404e-06
1.407426e-06
1.4008941e-06
1.3941383e-06
1.3871527e-06
1.3799295e-06
1.3724594e-06
1.3647294e-06
1.3567263e-06
1.3484295e-06
1.3398084e-06
1.3308321e-06
1.3214904e-06
1.3117483e-06
1.3016622e-06
1.2908889e-06
1.2797355e-06
1.2684213e-06
1.2573167e-06
1.2466491e-06
1.2366412e-06
1.2288059e-06
1.2205046e-06
1.2207372e-06
1.225519e-06
1.2419175e-06
1.2787237e-06
1.3537938e-06
1.5043868e-06
1.7615072e-06
2.1614765e-06
2.7305406e-06
3.5266287e-06
4.504344e-06
5.6494278e-06
6.9279454e-06
8.2737641e-06
9.6330014e-06
1.0968298e-05
1.226249e-05
1.3514745e-05
1.4731594e-05
1.5919158e-05
1.7078657e-05
1.8210481e-05
1.9316032e-05
2.0396628e-05
2.1453564e-05
2.2486815e-05
2.3496911e-05
2.4485887e-05
2.5456507e-05
2.6409222e-05
2.7343771e-05
2.8259999e-05
2.9158733e-05
3.0037447e-05
3.0900066e-05
3.1747678e-05
3.257959e-05
3.3395715e-05
3.4196351e-05
3.4981846e-05
3.5752515e-05
3.6508641e-05
3.7250478e-05
3.7978258e-05
3.8692189e-05
3.9392458e-05
4.0079237e-05
4.0752682e-05
4.1412936e-05
4.2060136e-05
4.2694413e-05
4.3315845e-05
4.3924637e-05
4.4520358e-05
4.5102039e-05
4.5653549e-05
4.6195759e-05
4.6715071e-05
4.7215551e-05
4.7704267e-05
4.8187087e-05
4.8665655e-05
4.9139124e-05
4.9605287e-05
5.0064207e-05
5.050834e-05
5.0961625e-05
5.1324243e-05
5.1990288e-05
1.4590443e-06
1.4558446e-06
1.4524302e-06
1.4488744e-06
1.4451912e-06
1.4413802e-06
1.4374375e-06
1.4333585e-06
1.4291382e-06
1.4247717e-06
1.4202542e-06
1.4155814e-06
1.4107496e-06
1.4057554e-06
1.400596e-06
1.3952678e-06
1.3897665e-06
1.3840862e-06
1.3782199e-06
1.3721583e-06
1.3658897e-06
1.3593995e-06
1.3526767e-06
1.3456963e-06
1.3384291e-06
1.3308696e-06
1.3229911e-06
1.3147937e-06
1.3062452e-06
1.297342e-06
1.2880656e-06
1.278907e-06
1.2700861e-06
1.2617754e-06
1.2553519e-06
1.2488395e-06
1.2494658e-06
1.2548761e-06
1.2725692e-06
1.3129146e-06
1.3937803e-06
1.5632368e-06
1.8622751e-06
2.3349392e-06
3.0266127e-06
3.9772228e-06
5.1410459e-06
6.4983435e-06
7.9744179e-06
9.4980034e-06
1.1013451e-05
1.2490922e-05
1.3925484e-05
1.5324734e-05
1.6695767e-05
1.8040479e-05
1.935785e-05
2.0647647e-05
2.1911491e-05
2.3151667e-05
2.4369397e-05
2.5565213e-05
2.673948e-05
2.7892954e-05
2.9024846e-05
3.0136071e-05
3.1228014e-05
3.2301171e-05
3.3355665e-05
3.4391732e-05
3.5409704e-05
3.640992e-05
3.7392705e-05
3.8358363e-05
3.9307172e-05
4.0239386e-05
4.1155236e-05
4.2054935e-05
4.2938674e-05
4.3806632e-05
4.4658975e-05
4.5495859e-05
4.6317396e-05
4.7123818e-05
4.7915186e-05
4.8692466e-05
4.9456401e-05
5.0208021e-05
5.093769e-05
5.1643472e-05
5.2329751e-05
5.3002333e-05
5.3664675e-05
5.4317779e-05
5.4960547e-05
5.559397e-05
5.6209202e-05
5.6837302e-05
5.7346214e-05
5.8274583e-05
1.4607039e-06
1.4583666e-06
1.4558837e-06
1.4533012e-06
1.4506278e-06
1.4478627e-06
1.4450033e-06
1.4420463e-06
1.4389882e-06
1.4358254e-06
1.4325544e-06
1.429172e-06
1.425675e-06
1.4220606e-06
1.4183261e-06
1.4144689e-06
1.4104858e-06
1.4063729e-06
1.4021258e-06
1.3977397e-06
1.393209e-06
1.388528e-06
1.3836905e-06
1.3786908e-06
1.3735216e-06
1.3681747e-06
1.3626398e-06
1.3569053e-06
1.3509592e-06
1.3447799e-06
1.3383589e-06
1.3316665e-06
1.3247001e-06
1.3174403e-06
1.3098647e-06
1.3019811e-06
1.2942318e-06
1.286795e-06
1.2800906e-06
1.2751198e-06
1.2714506e-06
1.2735762e-06
1.2827958e-06
1.3093148e-06
1.3660055e-06
1.4903389e-06
1.7361126e-06
2.1628056e-06
2.8205578e-06
3.7927847e-06
5.0236077e-06
6.4860838e-06
8.1043904e-06
9.7886532e-06
1.1470426e-05
1.3116045e-05
1.472176e-05
1.6295645e-05
1.7843089e-05
1.9364434e-05
2.0859163e-05
2.2328347e-05
2.3773355e-05
2.519488e-05
2.6592625e-05
2.79668e-05
2.931832e-05
3.0647889e-05
3.1955897e-05
3.3242697e-05
3.4508629e-05
3.5754025e-05
3.6979229e-05
3.8184578e-05
3.9370379e-05
4.0536922e-05
4.1684476e-05
4.2813287e-05
4.3923585e-05
4.5015582e-05
4.6089474e-05
4.7145441e-05
4.8183627e-05
4.9204255e-05
5.0207549e-05
5.1194359e-05
5.2168399e-05
5.3128847e-05
5.4069062e-05
5.4984739e-05
5.5877218e-05
5.6750809e-05
5.7609322e-05
5.8454847e-05
5.9287171e-05
6.0108169e-05
6.0907744e-05
6.1724282e-05
6.2391882e-05
6.3604758e-05
1.462083e-06
1.4603153e-06
1.4584445e-06
1.4565008e-06
1.4544895e-06
1.45241e-06
1.4502604e-06
1.4480383e-06
1.445741e-06
1.4433661e-06
1.440911e-06
1.4383731e-06
1.4357502e-06
1.4330399e-06
1.4302402e-06
1.4273488e-06
1.4243633e-06
1.4212805e-06
1.4180971e-06
1.4148095e-06
1.4114134e-06
1.4079049e-06
1.4042798e-06
1.4005336e-06
1.3966621e-06
1.3926609e-06
1.3885253e-06
1.3842505e-06
1.3798315e-06
1.3752621e-06
1.3705364e-06
1.3656457e-06
1.3605793e-06
1.3553267e-06
1.3498676e-06
1.3441942e-06
1.3382762e-06
1.3321393e-06
1.3256314e-06
1.3188899e-06
1.3120636e-06
1.3054579e-06
1.299204e-06
1.2943156e-06
1.2899569e-06
1.291108e-06
1.2977039e-06
1.3187391e-06
1.368698e-06
1.4774969e-06
1.7153404e-06
2.1531763e-06
2.855514e-06
3.9211437e-06
5.287839e-06
6.9193645e-06
8.7150834e-06
1.0571503e-05
1.2416388e-05
1.4222554e-05
1.5993299e-05
1.7737923e-05
1.9459039e-05
2.1155132e-05
2.2825574e-05
2.4471032e-05
2.6092012e-05
2.7688706e-05
2.9261513e-05
3.081089e-05
3.233711e-05
3.3840418e-05
3.532113e-05
3.677955e-05
3.8215959e-05
3.9630643e-05
4.1023875e-05
4.2395909e-05
4.3746987e-05
4.5077342e-05
4.6387183e-05
4.7676701e-05
4.8946063e-05
5.0195468e-05
5.1425183e-05
5.2635567e-05
5.382988e-05
5.5008588e-05
5.616775e-05
5.7302796e-05
5.8412842e-05
5.950034e-05
6.0568619e-05
6.1620265e-05
6.2655731e-05
6.3677755e-05
6.4675073e-05
6.5693615e-05
6.6532281e-05
6.805089e-05
1.4632904e-06
1.4619169e-06
1.4604678e-06
1.4589634e-06
1.4574074e-06
1.4557992e-06
1.4541372e-06
1.4524197e-06
1.4506447e-06
1.4488103e-06
1.4469145e-06
1.4449556e-06
1.4429315e-06
1.4408407e-06
1.4386813e-06
1.4364517e-06
1.4341497e-06
1.4317732e-06
1.4293195e-06
1.4267858e-06
1.4241691e-06
1.4214662e-06
1.4186739e-06
1.4157889e-06
1.4128077e-06
1.409727e-06
1.4065433e-06
1.403253e-06
1.3998525e-06
1.3963379e-06
1.3927052e-06
1.3889503e-06
1.3850686e-06
1.3810551e-06
1.3769042e-06
1.3726106e-06
1.3681656e-06
1.3635619e-06
1.3587837e-06
1.3538131e-06
1.3486426e-06
1.3432588e-06
1.3376562e-06
1.3317898e-06
1.3257063e-06
1.3197861e-06
1.3141495e-06
1.3096558e-06
1.3057421e-06
1.3068497e-06
1.3134713e-06
1.335072e-06
1.3886386e-06
1.5111116e-06
1.7873584e-06
2.3027293e-06
3.1508569e-06
4.4060977e-06
6.0023916e-06
7.8685923e-06
9.8731558e-06
1.1906019e-05
1.3909841e-05
1.5876373e-05
1.7815639e-05
1.9732533e-05
2.1625407e-05
2.3493037e-05
2.5336108e-05
2.7155007e-05
2.8949516e-05
3.0719666e-05
3.2465661e-05
3.418761e-05
3.5885648e-05
3.7559978e-05
3.9210787e-05
4.0838269e-05
4.244263e-05
4.4024069e-05
4.5582771e-05
4.7118903e-05
4.8632627e-05
5.0124102e-05
5.1593578e-05
5.3040966e-05
5.4468577e-05
5.5877982e-05
5.7267366e-05
5.8632927e-05
5.9972546e-05
6.1286991e-05
6.2578675e-05
6.3850195e-05
6.5102428e-05
6.6338897e-05
6.7547244e-05
6.8781128e-05
6.9803089e-05
7.164788e-05
1.4643869e-06
1.4632963e-06
1.4621486e-06
1.4609581e-06
1.4597271e-06
1.4584551e-06
1.4571409e-06
1.4557831e-06
1.4543803e-06
1.4529309e-06
1.4514335e-06
1.4498866e-06
1.4482887e-06
1.4466385e-06
1.4449345e-06
1.4431753e-06
1.4413594e-06
1.4394849e-06
1.4375498e-06
1.435552e-06
1.4334892e-06
1.4313588e-06
1.4291585e-06
1.4268857e-06
1.4245377e-06
1.4221119e-06
1.4196055e-06
1.4170157e-06
1.4143396e-06
1.4115743e-06
1.4087165e-06
1.405763e-06
1.4027103e-06
1.3995549e-06
1.396293e-06
1.3929211e-06
1.3894352e-06
1.3858311e-06
1.3821049e-06
1.3782513e-06
1.3742643e-06
1.3701353e-06
1.3658563e-06
1.3614103e-06
1.3567873e-06
1.3519688e-06
1.3469551e-06
1.3416887e-06
1.3362195e-06
1.3309029e-06
1.3258982e-06
1.3219387e-06
1.3192407e-06
1.3211631e-06
1.3302893e-06
1.358988e-06
1.4295423e-06
1.6037067e-06
1.986781e-06
2.6731515e-06
3.8291495e-06
5.3933302e-06
7.3117752e-06
9.4474457e-06
1.1656662e-05
1.3851285e-05
1.6009478e-05
1.8140552e-05
2.0251038e-05
2.2339218e-05
2.4403227e-05
2.6443285e-05
2.8459353e-05
3.0450924e-05
3.2417832e-05
3.4360056e-05
3.6277514e-05
3.8170212e-05
4.0038214e-05
4.1881585e-05
4.3700398e-05
4.549473e-05
4.7264679e-05
4.9010326e-05
5.0731843e-05
5.2428765e-05
5.4102664e-05
5.5755636e-05
5.7387281e-05
5.8994907e-05
6.0575981e-05
6.2129995e-05
6.3658303e-05
6.5163145e-05
6.6645552e-05
6.8109703e-05
6.9542179e-05
7.1004496e-05
7.2221825e-05
7.4412661e-05
1.4653962e-06
1.4645148e-06
1.4635894e-06
1.46263e-06
1.4616382e-06
1.4606137e-06
1.4595553e-06
1.4584621e-06
1.4573329e-06
1.4561665e-06
1.4549617e-06
1.4537173e-06
1.4524322e-06
1.4511053e-06
1.4497354e-06
1.4483214e-06
1.4468619e-06
1.4453555e-06
1.4438007e-06
1.4421957e-06
1.4405388e-06
1.4388279e-06
1.4370613e-06
1.4352368e-06
1.4333523e-06
1.4314059e-06
1.4293953e-06
1.4273182e-06
1.4251725e-06
1.4229556e-06
1.4206652e-06
1.4182986e-06
1.415853e-06
1.4133256e-06
1.4107135e-06
1.4080138e-06
1.4052232e-06
1.4023389e-06
1.3993574e-06
1.3962757e-06
1.3930901e-06
1.389797e-06
1.3863922e-06
1.382871e-06
1.3792288e-06
1.3754574e-06
1.3715496e-06
1.3674893e-06
1.3632661e-06
1.3588621e-06
1.3542808e-06
1.3494552e-06
1.344526e-06
1.3397003e-06
1.3356347e-06
1.3313673e-06
1.331656e-06
1.3359096e-06
1.352075e-06
1.3991936e-06
1.5150211e-06
1.8134068e-06
2.4128653e-06
3.469412e-06
5.0357733e-06
7.0308143e-06
9.31329e-06
1.1705521e-05
1.4092588e-05
1.6443275e-05
1.8767481e-05
2.1072538e-05
2.3356343e-05
2.5616877e-05
2.785409e-05
3.0067478e-05
3.2256314e-05
3.4420268e-05
3.6559072e-05
3.8672463e-05
4.0760258e-05
4.2822314e-05
4.4858569e-05
4.6868944e-05
4.8853444e-05
5.081123e-05
5.2743404e-05
5.4652205e-05
5.6537974e-05
5.8399066e-05
6.023306e-05
6.2038646e-05
6.3816176e-05
6.5567298e-05
6.7292939e-05
6.8997751e-05
7.0667238e-05
7.2370853e-05
7.3795498e-05
7.6351782e-05
1.4663195e-06
1.4655967e-06
1.4648394e-06
1.4640546e-06
1.4632436e-06
1.4624059e-06
1.4615408e-06
1.4606473e-06
1.4597245e-06
1.4587715e-06
1.4577874e-06
1.4567711e-06
1.4557218e-06
1.4546385e-06
1.4535202e-06
1.4523661e-06
1.451175e-06
1.4499457e-06
1.4486771e-06
1.4473678e-06
1.4460162e-06
1.4446209e-06
1.4431803e-06
1.4416929e-06
1.4401568e-06
1.4385706e-06
1.4369323e-06
1.4352403e-06
1.4334926e-06
1.4316875e-06
1.4298228e-06
1.4278964e-06
1.4259063e-06
1.4238501e-06
1.4217254e-06
1.4195299e-06
1.4172611e-06
1.4149165e-06
1.4124935e-06
1.4099894e-06
1.4074013e-06
1.4047263e-06
1.4019613e-06
1.3991031e-06
1.3961485e-06
1.3930938e-06
1.3899352e-06
1.3866683e-06
1.3832887e-06
1.3797887e-06
1.3761619e-06
1.3723922e-06
1.3684701e-06
1.3643818e-06
1.3601056e-06
1.3555457e-06
1.3510903e-06
1.3468829e-06
1.3434605e-06
1.341455e-06
1.343636e-06
1.3543291e-06
1.3890713e-06
1.4809338e-06
1.7329849e-06
2.2895606e-06
3.3216968e-06
4.9448103e-06
7.0635231e-06
9.5190878e-06
1.2102891e-05
1.4682559e-05
1.7226006e-05
1.9745314e-05
2.2246824e-05
2.4727647e-05
2.7186045e-05
2.9621687e-05
3.203359e-05
3.4420847e-05
3.6782842e-05
3.9119005e-05
4.1428949e-05
4.3712302e-05
4.5968751e-05
4.8196997e-05
5.0397845e-05
5.2573476e-05
5.4724429e-05
5.6849807e-05
5.8947544e-05
6.1015938e-05
6.3054518e-05
6.5064229e-05
6.7045676e-05
6.9003773e-05
7.0922887e-05
7.2880434e-05
7.4524184e-05
7.7464918e-05
1.467153e-06
1.4665531e-06
1.4659256e-06
1.4652757e-06
1.4646042e-06
1.4639107e-06
1.4631946e-06
1.4624552e-06
1.4616916e-06
1.4609032e-06
1.4600891e-06
1.4592486e-06
1.4583809e-06
1.4574851e-06
1.4565606e-06
1.4556066e-06
1.454622e-06
1.4536061e-06
1.4525577e-06
1.4514757e-06
1.450359e-06
1.4492063e-06
1.4480164e-06
1.4467879e-06
1.4455196e-06
1.44421e-06
1.4428577e-06
1.4414612e-06
1.4400191e-06
1.4385298e-06
1.4369917e-06
1.435403e-06
1.4337621e-06
1.432067e-06
1.4303158e-06
1.4285066e-06
1.4266375e-06
1.4247063e-06
1.4227109e-06
1.4206491e-06
1.4185187e-06
1.4163171e-06
1.4140419e-06
1.4116905e-06
1.4092601e-06
1.4067478e-06
1.4041507e-06
1.4014657e-06
1.3986897e-06
1.3958193e-06
1.3928511e-06
1.3897813e-06
1.3866052e-06
1.3833167e-06
1.3799042e-06
1.3763571e-06
1.3726533e-06
1.368802e-06
1.3647249e-06
1.3605728e-06
1.3565606e-06
1.3532025e-06
1.3505838e-06
1.3520219e-06
1.3604169e-06
1.3897066e-06
1.4723999e-06
1.7124779e-06
2.2773947e-06
3.3697766e-06
5.1253673e-06
7.4349237e-06
1.0101623e-05
1.2888616e-05
1.5661988e-05
1.8400228e-05
2.1118087e-05
2.381899e-05
2.6499489e-05
2.9158214e-05
3.1794186e-05
3.4406076e-05
3.6992993e-05
3.9554061e-05
4.2088416e-05
4.4594117e-05
4.7071705e-05
4.9523199e-05
5.1948907e-05
5.4348278e-05
5.6719588e-05
5.9061011e-05
6.1371476e-05
6.3651214e-05
6.5900344e-05
6.8123826e-05
7.0304791e-05
7.2528568e-05
7.4402969e-05
7.7747853e-05
1.4678982e-06
1.4673952e-06
1.4668697e-06
1.4663257e-06
1.4657638e-06
1.4651836e-06
1.4645845e-06
1.4639659e-06
1.4633273e-06
1.462668e-06
1.4619873e-06
1.4612846e-06
1.4605593e-06
1.4598106e-06
1.459038e-06
1.4582407e-06
1.457418e-06
1.4565692e-06
1.4556933e-06
1.4547894e-06
1.4538567e-06
1.452894e-06
1.4519003e-06
1.4508746e-06
1.4498157e-06
1.4487225e-06
1.4475939e-06
1.4464286e-06
1.4452254e-06
1.443983e-06
1.4427e-06
1.4413752e-06
1.4400069e-06
1.4385938e-06
1.4371342e-06
1.4356265e-06
1.4340692e-06
1.4324604e-06
1.4307985e-06
1.4290816e-06
1.4273079e-06
1.4254754e-06
1.4235819e-06
1.4216254e-06
1.4196036e-06
1.4175141e-06
1.4153545e-06
1.4131222e-06
1.4108146e-06
1.408429e-06
1.4059627e-06
1.403413e-06
1.400777e-06
1.3980518e-06
1.3952333e-06
1.3923185e-06
1.3893004e-06
1.3861732e-06
1.3829225e-06
1.3795353e-06
1.3760112e-06
1.3722798e-06
1.3684096e-06
1.3646461e-06
1.3614629e-06
1.3588092e-06
1.3600493e-06
1.3679457e-06
1.3967383e-06
1.4820049e-06
1.7448616e-06
2.3762373e-06
3.6346248e-06
5.6167968e-06
8.1938912e-06
1.1106007e-05
1.4102256e-05
1.7070612e-05
2.0008126e-05
2.2928548e-05
2.5831374e-05
2.8713927e-05
3.1575236e-05
3.4413626e-05
3.7227365e-05
4.0013644e-05
4.2772627e-05
4.5506074e-05
4.8213723e-05
5.0894912e-05
5.3548044e-05
5.6171266e-05
5.8763087e-05
6.1323074e-05
6.3850753e-05
6.635092e-05
6.8805343e-05
7.1307168e-05
7.3423394e-05
7.7191534e-05
1.4685605e-06
1.4681347e-06
1.4676907e-06
1.4672312e-06
1.4667566e-06
1.4662666e-06
1.4657607e-06
1.4652385e-06
1.4646994e-06
1.4641429e-06
1.4635685e-06
1.4629755e-06
1.4623635e-06
1.461732e-06
1.4610802e-06
1.4604077e-06
1.4597138e-06
1.4589979e-06
1.4582592e-06
1.457497e-06
1.4567105e-06
1.4558989e-06
1.4550612e-06
1.4541966e-06
1.4533042e-06
1.452383e-06
1.451432e-06
1.4504503e-06
1.4494367e-06
1.4483903e-06
1.44731e-06
1.4461945e-06
1.4450426e-06
1.4438531e-06
1.4426247e-06
1.4413561e-06
1.4400458e-06
1.4386926e-06
1.4372949e-06
1.4358512e-06
1.43436e-06
1.4328196e-06
1.4312283e-06
1.4295843e-06
1.4278857e-06
1.4261307e-06
1.4243171e-06
1.4224429e-06
1.4205058e-06
1.4185037e-06
1.4164343e-06
1.4142952e-06
1.4120842e-06
1.4097985e-06
1.4074355e-06
1.4049922e-06
1.4024659e-06
1.399853e-06
1.3971505e-06
1.3943534e-06
1.3914567e-06
1.3884476e-06
1.3853138e-06
1.3820506e-06
1.3785954e-06
1.374987e-06
1.3714817e-06
1.3685025e-06
1.3661732e-06
1.3676276e-06
1.3766428e-06
1.410479e-06
1.5120397e-06
1.8435762e-06
2.6160748e-06
4.1948478e-06
6.5136393e-06
9.4155532e-06
1.2583248e-05
1.5781236e-05
1.8943936e-05
2.2085161e-05
2.5211958e-05
2.8320738e-05
3.1409194e-05
3.4473724e-05
3.7513901e-05
4.0531144e-05
4.3524325e-05
4.6492203e-05
4.9432942e-05
5.2344571e-05
5.5225267e-05
5.807399e-05
6.0889598e-05
6.3676535e-05
6.641505e-05
6.9205958e-05
7.1574637e-05
7.5783265e-05
1.4691493e-06
1.4687862e-06
1.4684079e-06
1.4680166e-06
1.4676125e-06
1.4671954e-06
1.4667648e-06
1.4663203e-06
1.4658615e-06
1.465388e-06
1.4648992e-06
1.4643947e-06
1.4638741e-06
1.4633369e-06
1.4627825e-06
1.4622106e-06
1.4616205e-06
1.4610117e-06
1.4603836e-06
1.4597355e-06
1.4590669e-06
1.4583769e-06
1.4576648e-06
1.45693e-06
1.4561716e-06
1.4553888e-06
1.4545809e-06
1.4537468e-06
1.4528859e-06
1.4519972e-06
1.4510798e-06
1.4501326e-06
1.4491547e-06
1.448145e-06
1.4471024e-06
1.4460258e-06
1.4449142e-06
1.4437661e-06
1.4425806e-06
1.4413562e-06
1.4400917e-06
1.4387858e-06
1.4374369e-06
1.4360435e-06
1.4346042e-06
1.4331173e-06
1.431581e-06
1.4299937e-06
1.4283536e-06
1.4266587e-06
1.4249071e-06
1.423097e-06
1.4212263e-06
1.4192929e-06
1.4172943e-06
1.4152283e-06
1.4130923e-06
1.4108837e-06
1.4086e-06
1.4062384e-06
1.4037962e-06
1.4012702e-06
1.3986563e-06
1.3959501e-06
1.3931394e-06
1.390212e-06
1.3871634e-06
1.3839303e-06
1.3805618e-06
1.3773177e-06
1.3745498e-06
1.3729419e-06
1.3751181e-06
1.3874561e-06
1.4320835e-06
1.5755352e-06
2.0425995e-06
3.1049305e-06
5.0878954e-06
7.856154e-06
1.1126196e-05
1.4547517e-05
1.7948019e-05
2.1316449e-05
2.4669125e-05
2.8003427e-05
3.1318346e-05
3.4615548e-05
3.7892808e-05
4.1147896e-05
4.4378327e-05
4.7581778e-05
5.0756059e-05
5.3899515e-05
5.7010278e-05
6.0092254e-05
6.3123998e-05
6.6213805e-05
6.8844618e-05
7.3510272e-05
1.4696783e-06
1.4693665e-06
1.4690419e-06
1.4687062e-06
1.4683597e-06
1.4680019e-06
1.4676327e-06
1.4672516e-06
1.4668583e-06
1.4664523e-06
1.4660334e-06
1.4656011e-06
1.4651549e-06
1.4646946e-06
1.4642196e-06
1.4637296e-06
1.463224e-06
1.4627025e-06
1.4621645e-06
1.4616094e-06
1.4610367e-06
1.4604458e-06
1.4598361e-06
1.4592069e-06
1.4585576e-06
1.4578875e-06
1.4571959e-06
1.4564821e-06
1.4557454e-06
1.4549849e-06
1.4542e-06
1.4533897e-06
1.4525533e-06
1.4516897e-06
1.4507982e-06
1.4498777e-06
1.4489273e-06
1.4479461e-06
1.4469328e-06
1.4458866e-06
1.4448062e-06
1.4436905e-06
1.4425384e-06
1.4413484e-06
1.4401194e-06
1.43885e-06
1.4375387e-06
1.436184e-06
1.4347845e-06
1.4333385e-06
1.4318446e-06
1.4303009e-06
1.4287058e-06
1.4270576e-06
1.4253543e-06
1.4235938e-06
1.421774e-06
1.4198927e-06
1.4179478e-06
1.4159369e-06
1.4138577e-06
1.4117078e-06
1.4094845e-06
1.4071853e-06
1.4048073e-06
1.4023468e-06
1.3997994e-06
1.3971535e-06
1.3943962e-06
1.3915257e-06
1.3884736e-06
1.3852987e-06
1.382499e-06
1.3791955e-06
1.379378e-06
1.3832562e-06
1.4028859e-06
1.4691258e-06
1.7170866e-06
2.4163853e-06
3.982726e-06
6.5123103e-06
9.7895625e-06
1.3399896e-05
1.7041704e-05
2.0641043e-05
2.4219635e-05
2.7787602e-05
3.1341434e-05
3.4878469e-05
3.8395497e-05
4.1889658e-05
4.5358258e-05
4.8798938e-05
5.2209009e-05
5.5591653e-05
5.8923544e-05
6.2320221e-05
6.5221363e-05
7.0358879e-05
1.4701609e-06
1.4698913e-06
1.469611e-06
1.4693212e-06
1.469022e-06
1.4687132e-06
1.4683945e-06
1.4680656e-06
1.4677262e-06
1.467376e-06
1.4670145e-06
1.4666415e-06
1.4662566e-06
1.4658596e-06
1.4654499e-06
1.4650273e-06
1.4645913e-06
1.4641415e-06
1.4636776e-06
1.463199e-06
1.4627052e-06
1.4621958e-06
1.4616702e-06
1.4611279e-06
1.4605683e-06
1.4599908e-06
1.4593949e-06
1.4587799e-06
1.4581452e-06
1.4574901e-06
1.456814e-06
1.4561162e-06
1.4553959e-06
1.4546524e-06
1.4538849e-06
1.4530925e-06
1.4522746e-06
1.4514301e-06
1.4505583e-06
1.4496581e-06
1.4487287e-06
1.4477691e-06
1.4467783e-06
1.4457551e-06
1.4446985e-06
1.4436072e-06
1.4424802e-06
1.4413161e-06
1.4401137e-06
1.4388715e-06
1.4375884e-06
1.4362628e-06
1.4348933e-06
1.4334784e-06
1.4320164e-06
1.4305057e-06
1.4289445e-06
1.4273308e-06
1.4256629e-06
1.4239388e-06
1.4221565e-06
1.4203138e-06
1.4184087e-06
1.4164387e-06
1.4144017e-06
1.4122952e-06
1.4101167e-06
1.4078636e-06
1.4055322e-06
1.4031177e-06
1.4006114e-06
1.3979869e-06
1.3952908e-06
1.3923074e-06
1.3893724e-06
1.3867781e-06
1.3844349e-06
1.3854805e-06
1.3937104e-06
1.4283765e-06
1.5499108e-06
2.0047823e-06
3.1467118e-06
5.4034097e-06
8.6068045e-06
1.235796e-05
1.6236373e-05
2.0082453e-05
2.3902708e-05
2.7711251e-05
3.1505845e-05
3.52839e-05
3.9042341e-05
4.2778001e-05
4.6487311e-05
5.0172556e-05
5.3808322e-05
5.7517158e-05
6.0694602e-05
6.6316197e-05
1.4706084e-06
1.470374e-06
1.4701305e-06
1.4698788e-06
1.469619e-06
1.4693509e-06
1.4690742e-06
1.4687887e-06
1.468494e-06
1.46819e-06
1.4678763e-06
1.4675526e-06
1.4672186e-06
1.466874e-06
1.4665186e-06
1.4661519e-06
1.4657737e-06
1.4653835e-06
1.4649811e-06
1.4645659e-06
1.4641377e-06
1.4636959e-06
1.4632401e-06
1.4627698e-06
1.4622846e-06
1.461784e-06
1.4612674e-06
1.4607343e-06
1.4601842e-06
1.4596165e-06
1.4590307e-06
1.458426e-06
1.457802e-06
1.457158e-06
1.4564932e-06
1.455807e-06
1.4550987e-06
1.4543675e-06
1.4536127e-06
1.4528335e-06
1.4520291e-06
1.4511987e-06
1.4503413e-06
1.4494561e-06
1.448542e-06
1.4475982e-06
1.4466235e-06
1.445617e-06
1.4445774e-06
1.4435037e-06
1.4423947e-06
1.4412492e-06
1.440066e-06
1.4388438e-06
1.4375811e-06
1.4362766e-06
1.4349286e-06
1.4335357e-06
1.4320963e-06
1.4306086e-06
1.429071e-06
1.4274818e-06
1.4258389e-06
1.4241406e-06
1.4223847e-06
1.4205692e-06
1.418692e-06
1.4167508e-06
1.4147433e-06
1.4126671e-06
1.41052e-06
1.4082974e-06
1.4059956e-06
1.4036044e-06
1.4011e-06
1.3984913e-06
1.3956884e-06
1.3929928e-06
1.3906414e-06
1.3898277e-06
1.3929077e-06
1.4111436e-06
1.4791532e-06
1.7581863e-06
2.5841835e-06
4.566862e-06
7.6311344e-06
1.1472848e-05
1.5578102e-05
1.9674204e-05
2.3738265e-05
2.7789892e-05
3.1828637e-05
3.5851513e-05
3.9854691e-05
4.3839592e-05
4.7778615e-05
5.1801116e-05
5.5257695e-05
6.137173e-05
1.4710303e-06
1.4708255e-06
1.4706128e-06
1.4703931e-06
1.4701663e-06
1.4699322e-06
1.4696907e-06
1.4694415e-06
1.4691844e-06
1.468919e-06
1.4686453e-06
1.4683629e-06
1.4680715e-06
1.4677709e-06
1.4674608e-06
1.467141e-06
1.4668111e-06
1.4664708e-06
1.4661198e-06
1.4657577e-06
1.4653843e-06
1.4649991e-06
1.4646017e-06
1.4641917e-06
1.4637687e-06
1.4633323e-06
1.462882e-06
1.4624175e-06
1.4619381e-06
1.4614435e-06
1.460933e-06
1.4604063e-06
1.4598627e-06
1.4593018e-06
1.4587228e-06
1.4581253e-06
1.4575085e-06
1.456872e-06
1.4562149e-06
1.4555367e-06
1.4548366e-06
1.454114e-06
1.453368e-06
1.4525978e-06
1.4518027e-06
1.4509818e-06
1.4501342e-06
1.449259e-06
1.4483552e-06
1.4474218e-06
1.446458e-06
1.4454625e-06
1.4444344e-06
1.4433726e-06
1.4422759e-06
1.4411429e-06
1.4399725e-06
1.4387632e-06
1.4375138e-06
1.4362228e-06
1.4348887e-06
1.43351e-06
1.4320851e-06
1.4306124e-06
1.4290901e-06
1.4275165e-06
1.4258897e-06
1.4242077e-06
1.4224686e-06
1.4206703e-06
1.4188107e-06
1.4168876e-06
1.4148983e-06
1.4128415e-06
1.4107121e-06
1.4085047e-06
1.4062039e-06
1.4038124e-06
1.4012359e-06
1.3986279e-06
1.3962747e-06
1.3942053e-06
1.3954203e-06
1.4049504e-06
1.4467217e-06
1.6101474e-06
2.2402674e-06
3.86362e-06
6.7946413e-06
1.0726515e-05
1.5066801e-05
1.9426012e-05
2.3742613e-05
2.8042937e-05
3.2330197e-05
3.6606457e-05
4.0842811e-05
4.5175553e-05
4.8909896e-05
5.5519296e-05
1.4714352e-06
1.4712553e-06
1.4710687e-06
1.470876e-06
1.470677e-06
1.4704717e-06
1.4702599e-06
1.4700413e-06
1.4698158e-06
1.4695831e-06
1.4693431e-06