/*--------------------------------*- C++ -*----------------------------------*\
  =========                 |
  \\      /  F ield         | OpenFOAM: The Open Source CFD Toolbox
   \\    /   O peration     | Website:  https://openfoam.org
    \\  /    A nd           | Version:  12
     \\/     M anipulation  |
\*---------------------------------------------------------------------------*/
FoamFile
{
    format      ascii;
    class       volScalarField;
    location    "600";
    object      nuTilda;
}
// * * * * * * * * * * * * * * * * * * * * * * * * * * * * * * * * * * * * * //

dimensions      [0 2 -1 0 0 0 0];

internalField   nonuniform List<scalar> 
7480
(
1.7167634e-06
1.4380379e-06
1.3079067e-06
1.277274e-06
1.2994784e-06
1.3620396e-06
1.4678946e-06
1.6260298e-06
1.8525146e-06
2.1721668e-06
2.6176297e-06
3.225164e-06
4.0159413e-06
4.9537689e-06
5.9135929e-06
6.7316153e-06
7.3030533e-06
7.6175248e-06
7.752144e-06
7.7228702e-06
7.6325064e-06
7.5050924e-06
7.3606275e-06
7.2202346e-06
7.1137567e-06
7.0468007e-06
7.0110239e-06
6.9956886e-06
6.9932066e-06
6.9993487e-06
7.0103871e-06
7.0227806e-06
7.0346466e-06
7.0133671e-06
6.9772485e-06
6.9414279e-06
6.9102739e-06
6.8845996e-06
6.8633571e-06
6.844752e-06
6.8272475e-06
6.8100494e-06
6.7929733e-06
6.7765149e-06
6.7635579e-06
6.761961e-06
6.8011171e-06
6.9512502e-06
7.3244091e-06
7.9591887e-06
8.588095e-06
9.01831e-06
9.3329768e-06
9.547593e-06
9.6840731e-06
9.7685222e-06
9.8229979e-06
9.8620613e-06
9.8922083e-06
9.9171825e-06
9.9386564e-06
9.9574818e-06
9.9743278e-06
9.9898223e-06
1.0004356e-05
1.0018263e-05
1.003192e-05
1.0045548e-05
1.0059252e-05
1.0073132e-05
1.0087315e-05
1.0101937e-05
1.0117127e-05
1.0133005e-05
1.0149688e-05
1.0167287e-05
1.0185912e-05
1.0205668e-05
1.0226653e-05
1.0248952e-05
1.0272638e-05
1.0297755e-05
1.0324215e-05
1.0350987e-05
1.0365719e-05
1.0106374e-05
4.3238022e-06
4.0198219e-06
4.0424647e-06
4.0586102e-06
4.068428e-06
4.0760391e-06
4.0812334e-06
4.0844823e-06
4.0862875e-06
4.0870269e-06
4.0869215e-06
4.0862015e-06
4.0849168e-06
4.0807912e-06
1.9500946e-06
1.8993527e-06
1.8439871e-06
1.7889938e-06
1.7359887e-06
1.6862447e-06
1.6392813e-06
1.6024576e-06
1.5662652e-06
1.5778721e-06
1.6149803e-06
1.6846743e-06
1.7976485e-06
1.9710557e-06
2.2243905e-06
2.5716742e-06
3.0339722e-06
3.5947357e-06
4.2407886e-06
4.9668367e-06
5.7647662e-06
6.5354912e-06
7.2482938e-06
7.9052341e-06
8.5026248e-06
9.0401579e-06
9.5213233e-06
9.9524653e-06
1.0345229e-05
1.0711411e-05
1.1054221e-05
1.1373574e-05
1.1665802e-05
1.1925194e-05
1.2154749e-05
1.2363716e-05
1.2561975e-05
1.2763687e-05
1.297388e-05
1.3191441e-05
1.3413231e-05
1.3636733e-05
1.3859927e-05
1.4080455e-05
1.4299398e-05
1.4499889e-05
1.4692321e-05
1.4905466e-05
1.5184588e-05
1.5557414e-05
1.5964951e-05
1.6335245e-05
1.6654009e-05
1.6920495e-05
1.7144603e-05
1.733715e-05
1.7507107e-05
1.7662428e-05
1.7808835e-05
1.7950329e-05
1.8087176e-05
1.8219025e-05
1.8346132e-05
1.8469327e-05
1.8588839e-05
1.8705228e-05
1.8819507e-05
1.8932101e-05
1.9043039e-05
1.9152409e-05
1.9260424e-05
1.936735e-05
1.9473452e-05
1.9578972e-05
1.9684144e-05
1.9789192e-05
1.9894331e-05
1.9999765e-05
2.0105685e-05
2.0212258e-05
2.0319629e-05
2.0427886e-05
2.0536868e-05
2.0644685e-05
2.0729122e-05
2.0547793e-05
1.7381637e-05
1.5978267e-05
1.4923277e-05
1.426666e-05
1.383159e-05
1.3537104e-05
1.3329542e-05
1.3179393e-05
1.3068263e-05
1.2984391e-05
1.2919714e-05
1.2869122e-05
1.2828519e-05
1.2795049e-05
1.9747717e-06
1.9569851e-06
1.9372543e-06
1.9165753e-06
1.8952318e-06
1.8728106e-06
1.8491158e-06
1.8240989e-06
1.7977258e-06
1.7717763e-06
1.7471279e-06
1.7248127e-06
1.7062037e-06
1.6926821e-06
1.6799435e-06
1.6815763e-06
1.6938618e-06
1.7382281e-06
1.8229343e-06
1.957779e-06
2.1580391e-06
2.4426267e-06
2.8240308e-06
3.3309096e-06
3.9443135e-06
4.6583779e-06
5.4832102e-06
6.3669129e-06
7.2683886e-06
8.1570861e-06
9.0083159e-06
9.8022833e-06
1.0513116e-05
1.1156091e-05
1.1760569e-05
1.2345257e-05
1.2912772e-05
1.3462123e-05
1.3988176e-05
1.4494142e-05
1.4983966e-05
1.5461359e-05
1.5926886e-05
1.637889e-05
1.6817792e-05
1.7240857e-05
1.7646602e-05
1.8038399e-05
1.84355e-05
1.8849396e-05
1.9273878e-05
1.9696869e-05
2.0101486e-05
2.0483803e-05
2.0846209e-05
2.1189839e-05
2.1515338e-05
2.1827252e-05
2.2131192e-05
2.2430612e-05
2.2722497e-05
2.3005704e-05
2.328046e-05
2.3547795e-05
2.3807246e-05
2.4059843e-05
2.430717e-05
2.4549395e-05
2.4786267e-05
2.5017794e-05
2.5244187e-05
2.546571e-05
2.5682621e-05
2.5895155e-05
2.6103536e-05
2.6307982e-05
2.6508704e-05
2.6705911e-05
2.6899804e-05
2.7090574e-05
2.7278403e-05
2.7463442e-05
2.7645659e-05
2.7823945e-05
2.7984604e-05
2.8003862e-05
2.6872416e-05
2.6277384e-05
2.5824526e-05
2.5548396e-05
2.5381023e-05
2.5286205e-05
2.523504e-05
2.5210322e-05
2.520138e-05
2.5202198e-05
2.5207071e-05
2.5218053e-05
2.5218297e-05
2.5252314e-05
1.9820753e-06
1.9731389e-06
1.9633899e-06
1.9531913e-06
1.9426237e-06
1.9316897e-06
1.9203891e-06
1.9086146e-06
1.8963351e-06
1.8833977e-06
1.8697403e-06
1.8552909e-06
1.840046e-06
1.8242402e-06
1.8084879e-06
1.7931429e-06
1.7783812e-06
1.7648325e-06
1.7538637e-06
1.746088e-06
1.7418424e-06
1.7452075e-06
1.7573001e-06
1.7887082e-06
1.8565685e-06
1.9718897e-06
2.1520195e-06
2.4180482e-06
2.7920657e-06
3.3102482e-06
3.9800964e-06
4.7860295e-06
5.7245586e-06
6.7388472e-06
7.7779522e-06
8.804959e-06
9.7958415e-06
1.0738772e-05
1.1633227e-05
1.2485155e-05
1.3303062e-05
1.4095794e-05
1.4859011e-05
1.5592497e-05
1.6313213e-05
1.7023122e-05
1.7710832e-05
1.8373918e-05
1.901828e-05
1.964866e-05
2.026717e-05
2.0873071e-05
2.1465483e-05
2.2042605e-05
2.2602218e-05
2.3142829e-05
2.3664023e-05
2.4175172e-05
2.4680314e-05
2.5180331e-05
2.5665535e-05
2.6137497e-05
2.6597335e-05
2.7046358e-05
2.7482582e-05
2.790906e-05
2.832752e-05
2.8737138e-05
2.9137519e-05
2.9528797e-05
2.991123e-05
3.0285069e-05
3.0650536e-05
3.100783e-05
3.1357128e-05
3.1698597e-05
3.2032389e-05
3.2358652e-05
3.2677525e-05
3.2989138e-05
3.3293621e-05
3.3591091e-05
3.3881564e-05
3.416474e-05
3.4435107e-05
3.4651589e-05
3.4507734e-05
3.447556e-05
3.4464513e-05
3.450489e-05
3.4585149e-05
3.4695893e-05
3.4825165e-05
3.4964082e-05
3.5106407e-05
3.5249304e-05
3.5387234e-05
3.5529934e-05
3.5635965e-05
3.5848945e-05
1.9856711e-06
1.9803558e-06
1.9746189e-06
1.9686306e-06
1.9624258e-06
1.9560069e-06
1.9493705e-06
1.9425088e-06
1.9354148e-06
1.9280713e-06
1.9204558e-06
1.9125391e-06
1.9042893e-06
1.8956677e-06
1.8866873e-06
1.8773235e-06
1.8675916e-06
1.8573912e-06
1.84669e-06
1.835718e-06
1.824824e-06
1.8142107e-06
1.8040719e-06
1.7949002e-06
1.7881991e-06
1.7819206e-06
1.782813e-06
1.7882703e-06
1.8050594e-06
1.837539e-06
1.909985e-06
2.0393682e-06
2.2495495e-06
2.5699664e-06
3.0309103e-06
3.685351e-06
4.507901e-06
5.4868342e-06
6.593622e-06
7.7663731e-06
8.9558621e-06
1.0126072e-05
1.1256142e-05
1.2339623e-05
1.3382049e-05
1.4394493e-05
1.5382898e-05
1.634611e-05
1.7282572e-05
1.819284e-05
1.9079638e-05
1.994048e-05
2.0786892e-05
2.1612796e-05
2.2418356e-05
2.3203683e-05
2.3968352e-05
2.4715626e-05
2.5448638e-05
2.6169928e-05
2.6876612e-05
2.756799e-05
2.8244136e-05
2.8906195e-05
2.9548619e-05
3.018185e-05
3.0804592e-05
3.141385e-05
3.2010154e-05
3.2594029e-05
3.3165828e-05
3.3725823e-05
3.4274255e-05
3.4811334e-05
3.5337251e-05
3.5852179e-05
3.6356271e-05
3.6849671e-05
3.7332511e-05
3.7804911e-05
3.8266991e-05
3.8718864e-05
3.9160576e-05
3.9592201e-05
4.0011905e-05
4.0409457e-05
4.0703082e-05
4.1007082e-05
4.1295145e-05
4.1582521e-05
4.1874653e-05
4.2173822e-05
4.2477263e-05
4.2781125e-05
4.3081676e-05
4.3377852e-05
4.3663317e-05
4.3954991e-05
4.4183393e-05
4.4610336e-05
1.9879201e-06
1.9844456e-06
1.9807186e-06
1.9768328e-06
1.972807e-06
1.9686413e-06
1.9643318e-06
1.9598738e-06
1.9552627e-06
1.9504937e-06
1.9455622e-06
1.9404637e-06
1.9351937e-06
1.9297465e-06
1.9241153e-06
1.9182904e-06
1.9122621e-06
1.9060151e-06
1.8995258e-06
1.8927723e-06
1.8857467e-06
1.878422e-06
1.8708416e-06
1.8627477e-06
1.854371e-06
1.8458761e-06
1.8375409e-06
1.8295355e-06
1.8220264e-06
1.8161484e-06
1.8099212e-06
1.8100959e-06
1.8136826e-06
1.8259852e-06
1.8536109e-06
1.9100515e-06
2.0239381e-06
2.2215365e-06
2.5394096e-06
3.0156283e-06
3.7224022e-06
4.6339546e-06
5.7351767e-06
6.9861236e-06
8.3149724e-06
9.6635656e-06
1.0991945e-05
1.2281444e-05
1.3530369e-05
1.4744754e-05
1.5930435e-05
1.708846e-05
1.8219105e-05
1.9323699e-05
2.0403506e-05
2.1459782e-05
2.2492475e-05
2.3502096e-05
2.4490663e-05
2.5460927e-05
2.6413329e-05
2.7347604e-05
2.8263588e-05
2.9162105e-05
3.0040625e-05
3.090307e-05
3.1750524e-05
3.2582294e-05
3.3398289e-05
3.4198806e-05
3.4984193e-05
3.5754763e-05
3.6510797e-05
3.725255e-05
3.7980252e-05
3.869411e-05
3.9394312e-05
4.0081028e-05
4.0754416e-05
4.1414615e-05
4.2061765e-05
4.2695994e-05
4.3317381e-05
4.3926132e-05
4.4521813e-05
4.5103457e-05
4.5654928e-05
4.6197101e-05
4.6716379e-05
4.7216828e-05
4.7705516e-05
4.8188309e-05
4.8666853e-05
4.9140297e-05
4.9606437e-05
5.0065336e-05
5.0509449e-05
5.0962714e-05
5.1325317e-05
5.1991334e-05
1.9895336e-06
1.9871099e-06
1.9845241e-06
1.9818317e-06
1.9790437e-06
1.9761596e-06
1.9731765e-06
1.9700911e-06
1.9668997e-06
1.9635986e-06
1.9601843e-06
1.9566536e-06
1.9530037e-06
1.9492323e-06
1.9453373e-06
1.941316e-06
1.9371654e-06
1.932881e-06
1.9284575e-06
1.9238884e-06
1.9191648e-06
1.9142755e-06
1.9092126e-06
1.9039575e-06
1.8984882e-06
1.8928007e-06
1.886875e-06
1.8807115e-06
1.8742858e-06
1.8675957e-06
1.8606271e-06
1.8537489e-06
1.8471259e-06
1.8408874e-06
1.8360663e-06
1.8311789e-06
1.8316487e-06
1.8357095e-06
1.8489898e-06
1.879298e-06
1.9401882e-06
2.0687681e-06
2.3003337e-06
2.6816296e-06
3.2736319e-06
4.1379502e-06
5.2431741e-06
6.5641363e-06
8.0187125e-06
9.5294412e-06
1.1036917e-05
1.2509201e-05
1.3940207e-05
1.53369e-05
1.670602e-05
1.8049263e-05
1.936548e-05
2.0654355e-05
2.1917448e-05
2.3157003e-05
2.4374214e-05
2.556959e-05
2.6743482e-05
2.7896632e-05
2.9028243e-05
3.0139223e-05
3.1230949e-05
3.2303915e-05
3.3358238e-05
3.4394153e-05
3.5411988e-05
3.6412081e-05
3.7394753e-05
3.836031e-05
3.9309026e-05
4.0241155e-05
4.1156928e-05
4.2056555e-05
4.2940229e-05
4.3808126e-05
4.4660413e-05
4.5497244e-05
4.6318733e-05
4.7125109e-05
4.7916435e-05
4.8693676e-05
4.9457573e-05
5.0209158e-05
5.0938793e-05
5.1644545e-05
5.2330795e-05
5.300335e-05
5.3665667e-05
5.4318747e-05
5.4961493e-05
5.5594894e-05
5.6210105e-05
5.6838186e-05
5.7347082e-05
5.8275423e-05
1.9907911e-06
1.9890203e-06
1.9871396e-06
1.9851837e-06
1.9831593e-06
1.981066e-06
1.9789016e-06
1.9766637e-06
1.9743497e-06
1.9719571e-06
1.9694831e-06
1.9669253e-06
1.9642815e-06
1.9615495e-06
1.9587274e-06
1.9558131e-06
1.9528045e-06
1.9496986e-06
1.9464921e-06
1.9431815e-06
1.9397626e-06
1.9362311e-06
1.9325826e-06
1.9288127e-06
1.924916e-06
1.9208865e-06
1.9167164e-06
1.912397e-06
1.9079195e-06
1.9032678e-06
1.8984354e-06
1.8934002e-06
1.8881603e-06
1.8827012e-06
1.8770063e-06
1.8710814e-06
1.865259e-06
1.8596728e-06
1.8546377e-06
1.8509051e-06
1.8481499e-06
1.8497451e-06
1.856669e-06
1.8765927e-06
1.9192511e-06
2.0132637e-06
2.2018157e-06
2.5405284e-06
3.0934807e-06
3.9668916e-06
5.1302442e-06
6.5521748e-06
8.1473394e-06
9.8182894e-06
1.1492079e-05
1.3132632e-05
1.4734939e-05
1.6306407e-05
1.7852069e-05
1.937206e-05
2.0865736e-05
2.2334084e-05
2.3778416e-05
2.5199387e-05
2.6596671e-05
2.7970458e-05
2.9321649e-05
3.0650935e-05
3.1958699e-05
3.3245286e-05
3.4511032e-05
3.5756264e-05
3.6981322e-05
3.8186541e-05
3.9372226e-05
4.0538664e-05
4.1686123e-05
4.2814849e-05
4.3925069e-05
4.5016995e-05
4.6090822e-05
4.7146729e-05
4.818486e-05
4.9205438e-05
5.0208685e-05
5.1195452e-05
5.2169452e-05
5.3129862e-05
5.4070041e-05
5.4985687e-05
5.5878135e-05
5.6751698e-05
5.7610184e-05
5.8455685e-05
5.9287985e-05
6.0108961e-05
6.0908515e-05
6.1725033e-05
6.2392617e-05
6.3605466e-05
1.9918361e-06
1.9904968e-06
1.9890795e-06
1.9876071e-06
1.9860837e-06
1.984509e-06
1.9828813e-06
1.981199e-06
1.97946e-06
1.9776626e-06
1.9758047e-06
1.9738845e-06
1.9719002e-06
1.9698503e-06
1.9677331e-06
1.965547e-06
1.96329e-06
1.96096e-06
1.9585544e-06
1.9560705e-06
1.9535053e-06
1.9508555e-06
1.9481183e-06
1.9452903e-06
1.9423683e-06
1.9393491e-06
1.9362292e-06
1.933005e-06
1.9296728e-06
1.926228e-06
1.9226663e-06
1.918981e-06
1.9151643e-06
1.9112083e-06
1.9070978e-06
1.902827e-06
1.8983732e-06
1.8937559e-06
1.8888607e-06
1.8837912e-06
1.8786592e-06
1.8736941e-06
1.8689947e-06
1.865322e-06
1.8620477e-06
1.8629078e-06
1.8678704e-06
1.8836807e-06
1.9212967e-06
2.0035489e-06
2.1858672e-06
2.5329545e-06
3.1240626e-06
4.0859866e-06
5.3849335e-06
6.9777422e-06
8.7523322e-06
1.0596954e-05
1.2434885e-05
1.423667e-05
1.6004471e-05
1.7747009e-05
1.9466592e-05
2.1161524e-05
2.2831065e-05
2.447581e-05
2.6096215e-05
2.7692439e-05
2.9264855e-05
3.0813905e-05
3.2339847e-05
3.3842917e-05
3.5323424e-05
3.6781666e-05
3.8217919e-05
3.9632465e-05
4.1025576e-05
4.2397501e-05
4.3748483e-05
4.5078751e-05
4.6388513e-05
4.767796e-05
4.8947258e-05
5.0196604e-05
5.1426266e-05
5.2636601e-05
5.3830868e-05
5.5009534e-05
5.6168657e-05
5.7303669e-05
5.8413681e-05
5.9501149e-05
6.05694e-05
6.1621019e-05
6.2656461e-05
6.3678461e-05
6.4675757e-05
6.5694279e-05
6.6532928e-05
6.8051508e-05
1.9927512e-06
1.9917103e-06
1.9906124e-06
1.9894727e-06
1.9882939e-06
1.9870758e-06
1.9858171e-06
1.9845164e-06
1.9831723e-06
1.9817835e-06
1.9803484e-06
1.9788656e-06
1.9773338e-06
1.9757516e-06
1.9741178e-06
1.972431e-06
1.9706898e-06
1.9688925e-06
1.967037e-06
1.9651214e-06
1.9631433e-06
1.9611004e-06
1.9589903e-06
1.9568105e-06
1.9545585e-06
1.9522317e-06
1.9498275e-06
1.9473433e-06
1.9447763e-06
1.9421238e-06
1.9393827e-06
1.9365499e-06
1.9336221e-06
1.9305955e-06
1.927466e-06
1.9242296e-06
1.9208798e-06
1.9174111e-06
1.9138119e-06
1.9100686e-06
1.9061756e-06
1.902123e-06
1.8979068e-06
1.893493e-06
1.888917e-06
1.8844648e-06
1.8802271e-06
1.8768492e-06
1.8739084e-06
1.8747423e-06
1.8797716e-06
1.8959945e-06
1.9363802e-06
2.0291163e-06
2.2418863e-06
2.6553032e-06
3.3839653e-06
4.5409877e-06
6.0789698e-06
7.9140771e-06
9.9022855e-06
1.1926123e-05
1.3924597e-05
1.588771e-05
1.7824647e-05
1.9739878e-05
2.1631524e-05
2.3498221e-05
2.5340566e-05
2.7158888e-05
2.8952931e-05
3.0722699e-05
3.2468377e-05
3.4190059e-05
3.5887871e-05
3.7562007e-05
3.9212649e-05
4.0839986e-05
4.2444219e-05
4.4025546e-05
4.5584149e-05
4.7120192e-05
4.8633838e-05
5.0125242e-05
5.1594654e-05
5.3041983e-05
5.4469542e-05
5.5878899e-05
5.726824e-05
5.863376e-05
5.9973342e-05
6.1287753e-05
6.2579407e-05
6.3850898e-05
6.5103103e-05
6.6339547e-05
6.7547872e-05
6.8781733e-05
6.9803677e-05
7.1648438e-05
1.9935822e-06
1.9927557e-06
1.9918861e-06
1.990984e-06
1.9900513e-06
1.9890877e-06
1.9880922e-06
1.9870637e-06
1.9860013e-06
1.9849036e-06
1.9837697e-06
1.9825985e-06
1.9813887e-06
1.9801395e-06
1.9788498e-06
1.9775184e-06
1.9761442e-06
1.9747258e-06
1.9732618e-06
1.9717506e-06
1.9701903e-06
1.9685792e-06
1.9669154e-06
1.965197e-06
1.9634221e-06
1.9615885e-06
1.9596944e-06
1.9577375e-06
1.9557158e-06
1.9536269e-06
1.9514686e-06
1.9492384e-06
1.9469336e-06
1.9445518e-06
1.94209e-06
1.9395456e-06
1.9369158e-06
1.9341973e-06
1.9313872e-06
1.9284816e-06
1.9254761e-06
1.9223641e-06
1.9191398e-06
1.9157904e-06
1.9123083e-06
1.9086798e-06
1.9049051e-06
1.9009405e-06
1.8968238e-06
1.8928229e-06
1.88906e-06
1.8860826e-06
1.8840573e-06
1.8855082e-06
1.8924127e-06
1.9140055e-06
1.9672801e-06
2.0998462e-06
2.3990699e-06
2.9665868e-06
4.0005424e-06
5.4868873e-06
7.3642275e-06
9.4792188e-06
1.1677628e-05
1.3866165e-05
1.6020629e-05
1.8149242e-05
2.0258013e-05
2.2344951e-05
2.4408032e-05
2.6447378e-05
2.8462887e-05
3.045401e-05
3.2420556e-05
3.436248e-05
3.6279689e-05
3.8172177e-05
4.0039999e-05
4.1883217e-05
4.3701897e-05
4.5496113e-05
4.7265961e-05
4.9011518e-05
5.0732955e-05
5.2429806e-05
5.4103642e-05
5.5756557e-05
5.738815e-05
5.899573e-05
6.0576761e-05
6.2130737e-05
6.365901e-05
6.5163819e-05
6.6646197e-05
6.8110321e-05
6.9542771e-05
7.1005064e-05
7.2222374e-05
7.4413178e-05
1.9943474e-06
1.9936794e-06
1.992978e-06
1.992251e-06
1.9914995e-06
1.9907232e-06
1.9899214e-06
1.9890932e-06
1.9882377e-06
1.9873542e-06
1.9864417e-06
1.9854993e-06
1.9845261e-06
1.9835214e-06
1.9824841e-06
1.9814136e-06
1.9803088e-06
1.9791685e-06
1.9779918e-06
1.9767772e-06
1.9755234e-06
1.9742289e-06
1.9728924e-06
1.9715123e-06
1.970087e-06
1.9686149e-06
1.9670946e-06
1.9655242e-06
1.963902e-06
1.9622264e-06
1.9604953e-06
1.958707e-06
1.9568592e-06
1.9549499e-06
1.952977e-06
1.9509381e-06
1.948831e-06
1.9466534e-06
1.9444028e-06
1.942077e-06
1.9396733e-06
1.9371888e-06
1.9346205e-06
1.931965e-06
1.9292186e-06
1.9263754e-06
1.9234299e-06
1.9203698e-06
1.9171872e-06
1.9138686e-06
1.9104171e-06
1.9067817e-06
1.90307e-06
1.8994385e-06
1.8963818e-06
1.8931734e-06
1.8934027e-06
1.8965949e-06
1.9087905e-06
1.944325e-06
2.032099e-06
2.2621524e-06
2.7465459e-06
3.6704501e-06
5.1419067e-06
7.0873925e-06
9.3459701e-06
1.1726314e-05
1.4106965e-05
1.6453847e-05
1.8775601e-05
2.1078981e-05
2.3361589e-05
2.5621239e-05
2.7857779e-05
3.0070645e-05
3.2259065e-05
3.4422684e-05
3.6561214e-05
3.8674377e-05
4.0761981e-05
4.2823875e-05
4.4859992e-05
4.6870247e-05
4.8854643e-05
5.0812339e-05
5.2744433e-05
5.4653163e-05
5.653887e-05
5.8399905e-05
6.0233849e-05
6.203939e-05
6.3816879e-05
6.5567964e-05
6.7293572e-05
6.8998353e-05
7.0667811e-05
7.23714e-05
7.3796023e-05
7.6352273e-05
1.9950472e-06
1.9944995e-06
1.9939255e-06
1.9933307e-06
1.9927161e-06
1.9920813e-06
1.9914258e-06
1.9907488e-06
1.9900497e-06
1.9893277e-06
1.9885822e-06
1.9878123e-06
1.9870175e-06
1.9861971e-06
1.9853502e-06
1.9844762e-06
1.9835743e-06
1.9826435e-06
1.9816831e-06
1.9806919e-06
1.9796688e-06
1.9786127e-06
1.9775224e-06
1.9763968e-06
1.9752345e-06
1.9740343e-06
1.972795e-06
1.971515e-06
1.9701932e-06
1.968828e-06
1.9674179e-06
1.9659614e-06
1.9644569e-06
1.9629026e-06
1.9612967e-06
1.9596376e-06
1.9579232e-06
1.9561519e-06
1.9543215e-06
1.9524301e-06
1.9504756e-06
1.9484558e-06
1.9463684e-06
1.944211e-06
1.9419811e-06
1.9396761e-06
1.937293e-06
1.9348285e-06
1.9322792e-06
1.9296394e-06
1.9269042e-06
1.9240618e-06
1.9211051e-06
1.9180239e-06
1.9148024e-06
1.9113671e-06
1.908013e-06
1.9048461e-06
1.9022734e-06
1.9007666e-06
1.9024187e-06
1.9104683e-06
1.9366727e-06
2.0061837e-06
2.1994852e-06
2.6443127e-06
3.5368137e-06
5.054522e-06
7.119596e-06
9.5503908e-06
1.2122351e-05
1.4695809e-05
1.7235642e-05
1.9752651e-05
2.2252606e-05
2.4732328e-05
2.7189918e-05
2.9624949e-05
3.203638e-05
3.4423264e-05
3.6784958e-05
3.9120876e-05
4.1430617e-05
4.37138e-05
4.5970106e-05
4.8198229e-05
5.0398972e-05
5.2574512e-05
5.4725385e-05
5.6850693e-05
5.8948368e-05
6.1016707e-05
6.3055238e-05
6.5064906e-05
6.7046313e-05
6.9004375e-05
7.0923456e-05
7.2880973e-05
7.45247e-05
7.7465395e-05
1.9956792e-06
1.9952245e-06
1.9947489e-06
1.9942563e-06
1.9937474e-06
1.9932218e-06
1.9926791e-06
1.9921188e-06
1.9915402e-06
1.9909428e-06
1.990326e-06
1.9896892e-06
1.9890319e-06
1.9883534e-06
1.9876531e-06
1.9869304e-06
1.9861847e-06
1.9854153e-06
1.9846214e-06
1.9838021e-06
1.9829566e-06
1.9820839e-06
1.981183e-06
1.9802531e-06
1.979293e-06
1.9783018e-06
1.9772784e-06
1.9762217e-06
1.9751305e-06
1.9740037e-06
1.97284e-06
1.9716383e-06
1.9703971e-06
1.9691151e-06
1.9677909e-06
1.9664229e-06
1.9650098e-06
1.9635499e-06
1.9620417e-06
1.9604834e-06
1.9588735e-06
1.9572101e-06
1.9554913e-06
1.9537151e-06
1.9518795e-06
1.9499823e-06
1.9480213e-06
1.9459942e-06
1.9438985e-06
1.9417317e-06
1.9394914e-06
1.9371747e-06
1.9347784e-06
1.9322978e-06
1.9297242e-06
1.9270497e-06
1.9242578e-06
1.9213551e-06
1.9182829e-06
1.9151553e-06
1.9121345e-06
1.909607e-06
1.9076376e-06
1.9087287e-06
1.9150514e-06
1.9371462e-06
1.9997047e-06
2.183588e-06
2.6342955e-06
3.5801726e-06
5.2281286e-06
7.485702e-06
1.0129464e-05
1.2905791e-05
1.5673638e-05
1.8408675e-05
2.1124502e-05
2.3824034e-05
2.6503565e-05
2.9161581e-05
3.1797018e-05
3.4408494e-05
3.6995085e-05
3.9555891e-05
4.2090032e-05
4.4595556e-05
4.7072996e-05
4.9524366e-05
5.1949968e-05
5.4349247e-05
5.6720477e-05
5.9061832e-05
6.1372236e-05
6.3651921e-05
6.5901004e-05
6.8124443e-05
7.030537e-05
7.2529113e-05
7.4403486e-05
7.7748327e-05
1.9962443e-06
1.9958629e-06
1.9954646e-06
1.9950523e-06
1.9946264e-06
1.9941866e-06
1.9937326e-06
1.9932638e-06
1.9927798e-06
1.9922802e-06
1.9917644e-06
1.991232e-06
1.9906824e-06
1.9901152e-06
1.9895299e-06
1.9889259e-06
1.9883027e-06
1.9876597e-06
1.9869963e-06
1.9863117e-06
1.9856053e-06
1.9848762e-06
1.9841238e-06
1.9833471e-06
1.9825454e-06
1.9817177e-06
1.9808633e-06
1.9799812e-06
1.9790705e-06
1.9781302e-06
1.9771593e-06
1.9761567e-06
1.9751214e-06
1.9740522e-06
1.972948e-06
1.9718075e-06
1.9706295e-06
1.9694128e-06
1.968156e-06
1.9668578e-06
1.9655168e-06
1.9641314e-06
1.9627002e-06
1.9612214e-06
1.9596935e-06
1.9581146e-06
1.9564829e-06
1.9547964e-06
1.9530532e-06
1.9512511e-06
1.9493883e-06
1.9474628e-06
1.9454725e-06
1.9434152e-06
1.9412879e-06
1.9390884e-06
1.9368114e-06
1.9344525e-06
1.9320009e-06
1.9294469e-06
1.9267901e-06
1.9239774e-06
1.9210608e-06
1.918226e-06
1.9158289e-06
1.913832e-06
1.9147735e-06
1.9207243e-06
1.9424503e-06
2.006992e-06
2.2087033e-06
2.7160251e-06
3.8212619e-06
5.7035337e-06
8.2359112e-06
1.1129087e-05
1.4116615e-05
1.7080424e-05
2.0015272e-05
2.2933992e-05
2.5835663e-05
2.8717399e-05
3.1578108e-05
3.4416044e-05
3.7229431e-05
4.0015431e-05
4.2774192e-05
4.5507456e-05
4.8214954e-05
5.0896017e-05
5.3549043e-05
5.6172174e-05
5.8763916e-05
6.1323835e-05
6.3851455e-05
6.6351571e-05
6.8805947e-05
7.1307731e-05
7.3423925e-05
7.7192015e-05
1.9967465e-06
1.9964237e-06
1.9960871e-06
1.9957388e-06
1.9953791e-06
1.9950077e-06
1.9946242e-06
1.9942285e-06
1.9938199e-06
1.9933981e-06
1.9929628e-06
1.9925135e-06
1.9920497e-06
1.9915711e-06
1.9910773e-06
1.9905677e-06
1.990042e-06
1.9894996e-06
1.98894e-06
1.9883627e-06
1.9877669e-06
1.9871521e-06
1.9865177e-06
1.9858629e-06
1.985187e-06
1.9844894e-06
1.9837693e-06
1.983026e-06
1.9822586e-06
1.9814664e-06
1.9806486e-06
1.9798042e-06
1.9789323e-06
1.978032e-06
1.9771024e-06
1.9761424e-06
1.975151e-06
1.9741271e-06
1.9730697e-06
1.9719776e-06
1.9708497e-06
1.9696846e-06
1.9684812e-06
1.967238e-06
1.9659538e-06
1.9646269e-06
1.9632559e-06
1.9618392e-06
1.9603751e-06
1.9588619e-06
1.9572979e-06
1.9556815e-06
1.954011e-06
1.9522844e-06
1.9504997e-06
1.9486548e-06
1.9467474e-06
1.944775e-06
1.9427353e-06
1.9406246e-06
1.9384391e-06
1.9361691e-06
1.9338053e-06
1.9313445e-06
1.9287391e-06
1.9260189e-06
1.9233776e-06
1.9211333e-06
1.9193799e-06
1.9204834e-06
1.9272816e-06
1.9528271e-06
2.0298152e-06
2.285771e-06
2.9178142e-06
4.3417087e-06
6.5791721e-06
9.4475412e-06
1.2601261e-05
1.5792712e-05
1.8951907e-05
2.2091028e-05
2.5216461e-05
2.8324307e-05
3.1412095e-05
3.4476132e-05
3.7515934e-05
4.0532885e-05
4.3525835e-05
4.6493527e-05
4.9434113e-05
5.2345615e-05
5.5226206e-05
5.8074838e-05
6.089037e-05
6.3677241e-05
6.6415699e-05
6.9206556e-05
7.1575196e-05
7.5783764e-05
1.997193e-06
1.9969178e-06
1.996631e-06
1.9963344e-06
1.9960281e-06
1.9957118e-06
1.9953854e-06
1.9950485e-06
1.9947008e-06
1.9943419e-06
1.9939714e-06
1.9935891e-06
1.9931946e-06
1.9927874e-06
1.9923674e-06
1.9919339e-06
1.9914868e-06
1.9910255e-06
1.9905496e-06
1.9900586e-06
1.9895521e-06
1.9890294e-06
1.98849e-06
1.9879333e-06
1.9873589e-06
1.986766e-06
1.986154e-06
1.9855224e-06
1.9848705e-06
1.9841975e-06
1.9835028e-06
1.9827856e-06
1.9820452e-06
1.9812808e-06
1.9804916e-06
1.9796767e-06
1.9788353e-06
1.9779664e-06
1.9770692e-06
1.9761427e-06
1.9751859e-06
1.9741978e-06
1.9731773e-06
1.9721232e-06
1.9710345e-06
1.9699099e-06
1.968748e-06
1.9675477e-06
1.9663074e-06
1.9650257e-06
1.9637014e-06
1.9623329e-06
1.9609188e-06
1.9594575e-06
1.9579472e-06
1.9563862e-06
1.9547725e-06
1.9531043e-06
1.9513795e-06
1.9495963e-06
1.9477524e-06
1.9458455e-06
1.9438726e-06
1.9418303e-06
1.9397094e-06
1.9375007e-06
1.935201e-06
1.9327624e-06
1.9302224e-06
1.9277772e-06
1.9256915e-06
1.9244813e-06
1.9261305e-06
1.9354401e-06
1.9691758e-06
2.0782439e-06
2.4436368e-06
3.3430653e-06
5.1920621e-06
7.9017776e-06
1.1149195e-05
1.4561015e-05
1.7956898e-05
2.1322746e-05
2.4673828e-05
2.8007075e-05
3.1321262e-05
3.4617935e-05
3.78948e-05
4.1149586e-05
4.437978e-05
4.7583042e-05
5.075717e-05
5.39005e-05
5.7011159e-05
6.0093046e-05
6.3124717e-05
6.6214458e-05
6.8845222e-05
7.3510802e-05
1.9975943e-06
1.9973578e-06
1.9971118e-06
1.9968573e-06
1.9965946e-06
1.9963234e-06
1.9960435e-06
1.9957546e-06
1.9954565e-06
1.9951488e-06
1.9948312e-06
1.9945036e-06
1.9941654e-06
1.9938165e-06
1.9934566e-06
1.9930852e-06
1.9927021e-06
1.9923069e-06
1.9918992e-06
1.9914786e-06
1.9910447e-06
1.990597e-06
1.990135e-06
1.9896583e-06
1.9891664e-06
1.9886588e-06
1.9881349e-06
1.9875942e-06
1.9870362e-06
1.9864603e-06
1.9858658e-06
1.9852521e-06
1.9846187e-06
1.9839648e-06
1.9832898e-06
1.9825928e-06
1.9818733e-06
1.9811304e-06
1.9803634e-06
1.9795714e-06
1.9787537e-06
1.9779093e-06
1.9770374e-06
1.9761369e-06
1.975207e-06
1.9742465e-06
1.9732544e-06
1.9722296e-06
1.9711708e-06
1.970077e-06
1.9689469e-06
1.9677794e-06
1.9665731e-06
1.9653268e-06
1.964039e-06
1.9627082e-06
1.9613327e-06
1.959911e-06
1.9584413e-06
1.956922e-06
1.9553513e-06
1.9537273e-06
1.9520482e-06
1.9503119e-06
1.9485164e-06
1.9466588e-06
1.9447358e-06
1.9427388e-06
1.9406581e-06
1.9384922e-06
1.9361896e-06
1.9337949e-06
1.9316842e-06
1.9291942e-06
1.92934e-06
1.9322606e-06
1.9471114e-06
1.9972849e-06
2.1872359e-06
2.7495183e-06
4.1432013e-06
6.5778765e-06
9.8191884e-06
1.3415794e-05
1.7051547e-05
2.064775e-05
2.4224504e-05
2.7791303e-05
3.1344344e-05
3.4880819e-05
3.8397437e-05
4.1891289e-05
4.5359649e-05
4.880014e-05
5.2210059e-05
5.5592579e-05
5.8924369e-05
6.2320958e-05
6.5222036e-05
7.0359457e-05
1.9979603e-06
1.9977559e-06
1.9975434e-06
1.9973237e-06
1.9970969e-06
1.9968628e-06
1.9966212e-06
1.9963719e-06
1.9961146e-06
1.9958491e-06
1.9955751e-06
1.9952923e-06
1.9950006e-06
1.9946997e-06
1.9943892e-06
1.9940688e-06
1.9937384e-06
1.9933976e-06
1.993046e-06
1.9926833e-06
1.9923091e-06
1.9919231e-06
1.9915249e-06
1.9911139e-06
1.9906899e-06
1.9902524e-06
1.9898009e-06
1.989335e-06
1.9888542e-06
1.988358e-06
1.9878458e-06
1.9873173e-06
1.9867717e-06
1.9862086e-06
1.9856273e-06
1.9850273e-06
1.9844078e-06
1.9837684e-06
1.9831083e-06
1.9824267e-06
1.9817231e-06
1.9809967e-06
1.9802466e-06
1.9794721e-06
1.9786723e-06
1.9778464e-06
1.9769935e-06
1.9761125e-06
1.9752026e-06
1.9742627e-06
1.9732917e-06
1.9722888e-06
1.9712527e-06
1.9701824e-06
1.9690767e-06
1.9679342e-06
1.9667536e-06
1.9655336e-06
1.9642726e-06
1.9629694e-06
1.9616222e-06
1.9602297e-06
1.95879e-06
1.9573016e-06
1.9557627e-06
1.9541715e-06
1.9525261e-06
1.9508245e-06
1.949064e-06
1.947241e-06
1.945349e-06
1.943368e-06
1.9413333e-06
1.939082e-06
1.9368682e-06
1.9349116e-06
1.9331473e-06
1.9339531e-06
1.9401593e-06
1.9664331e-06
2.0586682e-06
2.4134119e-06
3.3802214e-06
5.4966517e-06
8.6449508e-06
1.2376589e-05
1.624718e-05
2.0089525e-05
2.3907705e-05
2.7714971e-05
3.1508726e-05
3.5286197e-05
3.9044218e-05
4.2779565e-05
4.6488636e-05
5.0173694e-05
5.3809311e-05
5.7518023e-05
6.0695379e-05
6.6316848e-05
1.9982997e-06
1.998122e-06
1.9979374e-06
1.9977466e-06
1.9975496e-06
1.9973464e-06
1.9971366e-06
1.9969201e-06
1.9966968e-06
1.9964663e-06
1.9962285e-06
1.9959831e-06
1.9957299e-06
1.9954688e-06
1.9951993e-06
1.9949214e-06
1.9946347e-06
1.994339e-06
1.994034e-06
1.9937194e-06
1.9933948e-06
1.99306e-06
1.9927146e-06
1.9923582e-06
1.9919906e-06
1.9916112e-06
1.9912198e-06
1.9908159e-06
1.9903991e-06
1.989969e-06
1.9895252e-06
1.9890671e-06
1.9885944e-06
1.9881065e-06
1.987603e-06
1.9870832e-06
1.9865467e-06
1.985993e-06
1.9854213e-06
1.9848313e-06
1.9842222e-06
1.9835933e-06
1.9829442e-06
1.9822739e-06
1.9815819e-06
1.9808674e-06
1.9801296e-06
1.9793676e-06
1.9785807e-06
1.977768e-06
1.9769286e-06
1.9760617e-06
1.9751663e-06
1.9742414e-06
1.9732861e-06
1.9722992e-06
1.9712795e-06
1.970226e-06
1.9691373e-06
1.9680123e-06
1.9668497e-06
1.9656481e-06
1.9644061e-06
1.9631223e-06
1.9617951e-06
1.9604231e-06
1.9590045e-06
1.9575377e-06
1.9560211e-06
1.9544527e-06
1.9528309e-06
1.9511523e-06
1.9494141e-06
1.9476087e-06
1.945718e-06
1.9437489e-06
1.9416336e-06
1.9396008e-06
1.9378279e-06
1.9372207e-06
1.939549e-06
1.9533476e-06
2.0050785e-06
2.2191382e-06
2.8904732e-06
4.6928617e-06
7.6791008e-06
1.1494367e-05
1.5589827e-05
1.9681572e-05
2.3743333e-05
2.7793593e-05
3.183146e-05
3.5853739e-05
3.9856493e-05
4.3841081e-05
4.7779869e-05
5.1802182e-05
5.5258633e-05
6.137249e-05
1.9986198e-06
1.9984645e-06
1.9983033e-06
1.9981367e-06
1.9979647e-06
1.9977873e-06
1.9976042e-06
1.9974152e-06
1.9972203e-06
1.9970192e-06
1.9968116e-06
1.9965975e-06
1.9963766e-06
1.9961488e-06
1.9959137e-06
1.9956713e-06
1.9954212e-06
1.9951633e-06
1.9948972e-06
1.9946228e-06
1.9943398e-06
1.9940478e-06
1.9937466e-06
1.9934359e-06
1.9931154e-06
1.9927847e-06
1.9924435e-06
1.9920914e-06
1.9917282e-06
1.9913534e-06
1.9909666e-06
1.9905675e-06
1.9901557e-06
1.9897307e-06
1.9892921e-06
1.9888394e-06
1.9883722e-06
1.98789e-06
1.9873924e-06
1.9868787e-06
1.9863485e-06
1.9858011e-06
1.9852362e-06
1.984653e-06
1.9840509e-06
1.9834293e-06
1.9827875e-06
1.9821248e-06
1.9814405e-06
1.9807339e-06
1.9800041e-06
1.9792506e-06
1.9784724e-06
1.9776687e-06
1.9768386e-06
1.9759812e-06
1.9750956e-06
1.9741806e-06
1.9732354e-06
1.9722587e-06
1.9712496e-06
1.9702068e-06
1.9691292e-06
1.9680155e-06
1.9668645e-06
1.9656747e-06
1.9644448e-06
1.9631734e-06
1.9618589e-06
1.9604997e-06
1.9590944e-06
1.9576413e-06
1.9561384e-06
1.9545846e-06
1.9529761e-06
1.9513089e-06
1.9495715e-06
1.9477659e-06
1.9458207e-06
1.9438525e-06
1.9420773e-06
1.9405181e-06
1.9414859e-06
1.9486133e-06
1.9803025e-06
2.1037373e-06
2.6019083e-06
4.0310002e-06
6.8546138e-06
1.0751112e-05
1.5079344e-05
1.9433576e-05
2.3747683e-05
2.8046574e-05
3.2332935e-05
3.6608593e-05
4.0844527e-05
4.5176956e-05
4.8911093e-05
5.5520225e-05
1.998927e-06
1.9987906e-06
1.9986491e-06
1.998503e-06
1.9983521e-06
1.9981965e-06
1.9980358e-06
1.9978701e-06
1.9976992e-06
1.9975228e-06
1.9973408e-06