/*--------------------------------*- C++ -*----------------------------------*\
  =========                 |
  \\      /  F ield         | OpenFOAM: The Open Source CFD Toolbox
   \\    /   O peration     | Website:  https://openfoam.org
    \\  /    A nd           | Version:  12
     \\/     M anipulation  |
\*---------------------------------------------------------------------------*/
FoamFile
{
    format      ascii;
    class       volScalarField;
    location    "600";
    object      nuTilda;
}
// * * * * * * * * * * * * * * * * * * * * * * * * * * * * * * * * * * * * * //

dimensions      [0 2 -1 0 0 0 0];

internalField   nonuniform List<scalar> 
13056
(
1.9999518e-06
2.0000136e-06
2.0001977e-06
2.0004777e-06
2.0008273e-06
2.0012341e-06
2.0016908e-06
2.0021914e-06
2.0027313e-06
2.0033076e-06
2.0039186e-06
2.0045637e-06
2.0052441e-06
2.0059622e-06
2.0067227e-06
2.0075321e-06
2.0084041e-06
2.0093477e-06
2.0104108e-06
2.0115746e-06
2.0130543e-06
2.0146294e-06
2.0172515e-06
2.0222743e-06
2.9992468e-08
2.1985298e-08
2.0844259e-08
2.0438947e-08
2.0176985e-08
1.9956324e-08
1.9760189e-08
1.9583678e-08
1.9423485e-08
1.9276672e-08
1.9140974e-08
1.9014754e-08
1.8896772e-08
1.8786033e-08
1.868171e-08
1.858311e-08
1.8489645e-08
1.8400808e-08
1.831615e-08
1.8235283e-08
1.8157867e-08
1.8083595e-08
1.801221e-08
1.7943474e-08
1.787717e-08
1.7813115e-08
1.775114e-08
1.7691082e-08
1.7632804e-08
1.7576184e-08
1.75211e-08
1.7467441e-08
1.7415117e-08
1.7364039e-08
1.7314119e-08
1.7265277e-08
1.7217448e-08
1.7170569e-08
1.7124573e-08
1.7079398e-08
1.7034997e-08
1.6991322e-08
1.6948322e-08
1.6905949e-08
1.6864162e-08
1.6822926e-08
1.6782203e-08
1.6741953e-08
1.6702139e-08
1.6662734e-08
1.6623709e-08
1.6585031e-08
1.6546669e-08
1.6508594e-08
1.6470784e-08
1.6433214e-08
1.6395856e-08
1.6358682e-08
1.6321669e-08
1.6284797e-08
1.6248043e-08
1.621138e-08
1.6174781e-08
1.6138228e-08
1.61017e-08
1.6065173e-08
1.6028619e-08
1.5992014e-08
1.5955339e-08
1.591857e-08
1.5881679e-08
1.5844636e-08
1.5807419e-08
1.5770003e-08
1.5732359e-08
1.5694451e-08
1.5656249e-08
1.5617724e-08
1.5578843e-08
1.5539565e-08
1.549985e-08
1.5459663e-08
1.5418961e-08
1.5377692e-08
1.5335806e-08
1.5293255e-08
1.5249978e-08
1.5205904e-08
1.5160981e-08
1.5116123e-08
1.5072756e-08
1.5031306e-08
1.4991633e-08
1.4953601e-08
1.4917088e-08
1.4881986e-08
1.4848202e-08
1.4815641e-08
1.4784218e-08
1.4753862e-08
1.4724508e-08
1.4696092e-08
1.4668551e-08
1.4641825e-08
1.4615865e-08
1.4590597e-08
1.4566013e-08
1.4541838e-08
1.4518469e-08
1.4494138e-08
1.447297e-08
1.4437591e-08
1.9999518e-06
2.0000136e-06
2.0001977e-06
2.0004777e-06
2.0008274e-06
2.0012343e-06
2.0016911e-06
2.0021918e-06
2.002732e-06
2.0033084e-06
2.0039195e-06
2.0045648e-06
2.0052453e-06
2.0059635e-06
2.0067242e-06
2.0075337e-06
2.0084058e-06
2.0093496e-06
2.0104128e-06
2.0115767e-06
2.0130564e-06
2.0146317e-06
2.0172528e-06
2.0222843e-06
8.7860106e-08
6.625233e-08
6.2833958e-08
6.1613234e-08
6.0824075e-08
6.0159704e-08
5.9569184e-08
5.9037656e-08
5.8555172e-08
5.8112925e-08
5.7704126e-08
5.7323851e-08
5.6968373e-08
5.66347e-08
5.6320345e-08
5.6023226e-08
5.5741569e-08
5.5473849e-08
5.521872e-08
5.4975008e-08
5.474169e-08
5.4517846e-08
5.4302697e-08
5.4095531e-08
5.3895691e-08
5.3702628e-08
5.3515829e-08
5.3334809e-08
5.3159152e-08
5.2988489e-08
5.2822456e-08
5.2660718e-08
5.2503e-08
5.2349039e-08
5.2198566e-08
5.2051342e-08
5.1907172e-08
5.1765865e-08
5.1627217e-08
5.1491044e-08
5.1357203e-08
5.1225551e-08
5.1095933e-08
5.0968202e-08
5.084224e-08
5.0717937e-08
5.0595181e-08
5.0473849e-08
5.0353832e-08
5.0235047e-08
5.0117407e-08
5.0000814e-08
4.9885171e-08
4.9770394e-08
4.9656417e-08
4.9543163e-08
4.9430547e-08
4.9318483e-08
4.9206907e-08
4.9095757e-08
4.8984961e-08
4.8874437e-08
4.8764108e-08
4.8653917e-08
4.8543803e-08
4.8433689e-08
4.8323495e-08
4.8213147e-08
4.8102585e-08
4.7991742e-08
4.7880531e-08
4.7768862e-08
4.7656668e-08
4.7543876e-08
4.7430391e-08
4.7316114e-08
4.7200949e-08
4.7084813e-08
4.6967601e-08
4.6849191e-08
4.6729466e-08
4.6608319e-08
4.6485616e-08
4.6361203e-08
4.6234932e-08
4.6106655e-08
4.597619e-08
4.5843322e-08
4.5707896e-08
4.5572664e-08
4.5441924e-08
4.5316966e-08
4.5197365e-08
4.5082712e-08
4.4972634e-08
4.4866814e-08
4.4764964e-08
4.4666803e-08
4.4572073e-08
4.4480559e-08
4.4392065e-08
4.4306397e-08
4.422337e-08
4.4142796e-08
4.4064535e-08
4.3988359e-08
4.3914248e-08
4.3841368e-08
4.3770918e-08
4.3697574e-08
4.3633759e-08
4.3527099e-08
1.9999517e-06
2.0000135e-06
2.0001976e-06
2.0004779e-06
2.0008278e-06
2.001235e-06
2.0016922e-06
2.0021933e-06
2.0027338e-06
2.0033107e-06
2.0039222e-06
2.004568e-06
2.0052489e-06
2.0059676e-06
2.0067286e-06
2.0075386e-06
2.0084111e-06
2.0093551e-06
2.0104186e-06
2.0115827e-06
2.0130624e-06
2.0146381e-06
2.0172555e-06
2.0222961e-06
1.4415093e-07
1.1141768e-07
1.0573282e-07
1.0368162e-07
1.0235596e-07
1.0124069e-07
1.0024932e-07
9.9356675e-08
9.8546092e-08
9.7802916e-08
9.7115826e-08
9.6476586e-08
9.5878959e-08
9.531793e-08
9.4789336e-08
9.4289687e-08
9.3816011e-08
9.3365747e-08
9.2936638e-08
9.2526714e-08
9.2134256e-08
9.1757723e-08
9.1395803e-08
9.1047302e-08
9.0711117e-08
9.0386324e-08
9.0072063e-08
8.9767519e-08
8.9471991e-08
8.918486e-08
8.8905514e-08
8.8633391e-08
8.8368027e-08
8.8108982e-08
8.7855802e-08
8.7608087e-08
8.7365507e-08
8.7127742e-08
8.6894449e-08
8.6665319e-08
8.6440111e-08
8.6218584e-08
8.6000477e-08
8.5785546e-08
8.5573589e-08
8.5364422e-08
8.5157856e-08
8.4953687e-08
8.4751729e-08
8.4551843e-08
8.4353883e-08
8.4157683e-08
8.396308e-08
8.3769936e-08
8.3578136e-08
8.3387552e-08
8.319804e-08
8.3009457e-08
8.2821695e-08
8.2634648e-08
8.2448195e-08
8.2262202e-08
8.2076535e-08
8.18911e-08
8.1705793e-08
8.1520486e-08
8.1335043e-08
8.1149342e-08
8.096328e-08
8.0776744e-08
8.0589588e-08
8.0401661e-08
8.0212849e-08
8.0023031e-08
7.9832047e-08
7.9639728e-08
7.9445916e-08
7.9250468e-08
7.9053209e-08
7.8853934e-08
7.8652445e-08
7.844856e-08
7.824206e-08
7.8032679e-08
7.7820171e-08
7.7604286e-08
7.7384718e-08
7.7161108e-08
7.693319e-08
7.6705598e-08
7.6485566e-08
7.6275264e-08
7.6073977e-08
7.5881017e-08
7.5695757e-08
7.5517662e-08
7.5346249e-08
7.5181044e-08
7.5021612e-08
7.4867594e-08
7.4718657e-08
7.4574478e-08
7.4434742e-08
7.4299136e-08
7.4167421e-08
7.4039215e-08
7.3914486e-08
7.3791833e-08
7.3673264e-08
7.354985e-08
7.344245e-08
7.3262932e-08
1.9999515e-06
2.0000133e-06
2.0001976e-06
2.0004781e-06
2.0008285e-06
2.0012362e-06
2.0016939e-06
2.0021957e-06
2.0027369e-06
2.0033145e-06
2.0039268e-06
2.0045733e-06
2.005255e-06
2.0059743e-06
2.0067361e-06
2.0075467e-06
2.0084198e-06
2.0093644e-06
2.0104283e-06
2.0115928e-06
2.0130722e-06
2.0146485e-06
2.0172596e-06
2.0223096e-06
1.9954636e-07
1.5808576e-07
1.5015956e-07
1.4725342e-07
1.453765e-07
1.4379861e-07
1.4239567e-07
1.4113174e-07
1.3998335e-07
1.3893005e-07
1.3795597e-07
1.3704952e-07
1.3620193e-07
1.3540611e-07
1.346562e-07
1.3394728e-07
1.3327514e-07
1.3263617e-07
1.3202718e-07
1.3144537e-07
1.3088833e-07
1.3035385e-07
1.298401e-07
1.2934537e-07
1.2886811e-07
1.2840701e-07
1.2796084e-07
1.2752846e-07
1.2710886e-07
1.2670118e-07
1.2630454e-07
1.2591815e-07
1.2554135e-07
1.2517351e-07
1.2481399e-07
1.2446224e-07
1.2411776e-07
1.2378012e-07
1.2344882e-07
1.2312344e-07
1.2280362e-07
1.2248902e-07
1.2217927e-07
1.2187404e-07
1.2157302e-07
1.2127596e-07
1.209826e-07
1.2069263e-07
1.2040581e-07
1.2012192e-07
1.1984077e-07
1.1956211e-07
1.1928572e-07
1.190114e-07
1.1873899e-07
1.184683e-07
1.1819914e-07
1.1793129e-07
1.1766461e-07
1.1739894e-07
1.1713411e-07
1.1686994e-07
1.1660623e-07
1.1634284e-07
1.1607964e-07
1.1581643e-07
1.1555303e-07
1.1528927e-07
1.1502499e-07
1.1476003e-07
1.1449419e-07
1.1422726e-07
1.1395907e-07
1.1368945e-07
1.1341817e-07
1.1314499e-07
1.128697e-07
1.1259207e-07
1.1231188e-07
1.1202882e-07
1.1174261e-07
1.11453e-07
1.1115967e-07
1.1086225e-07
1.1056039e-07
1.1025373e-07
1.0994183e-07
1.096242e-07
1.0930044e-07
1.0897714e-07
1.0866459e-07
1.0836585e-07
1.0807992e-07
1.0780581e-07
1.0754265e-07
1.0728966e-07
1.0704616e-07
1.0681148e-07
1.06585e-07
1.0636621e-07
1.0615464e-07
1.0594982e-07
1.0575132e-07
1.0555868e-07
1.0537158e-07
1.0518945e-07
1.0501227e-07
1.0483804e-07
1.0466961e-07
1.0449434e-07
1.0434177e-07
1.0408674e-07
1.9999513e-06
2.0000131e-06
2.0001975e-06
2.0004784e-06
2.0008294e-06
2.0012379e-06
2.0016965e-06
2.0021992e-06
2.0027414e-06
2.00332e-06
2.0039333e-06
2.0045809e-06
2.0052636e-06
2.005984e-06
2.0067468e-06
2.0075583e-06
2.0084323e-06
2.0093777e-06
2.0104422e-06
2.0116072e-06
2.0130862e-06
2.0146634e-06
2.0172651e-06
2.0223249e-06
2.5459034e-07
2.068509e-07
1.9674346e-07
1.9295241e-07
1.9050558e-07
1.884498e-07
1.8662099e-07
1.8497197e-07
1.8347251e-07
1.8209639e-07
1.8082325e-07
1.7963813e-07
1.7852965e-07
1.7748865e-07
1.7650751e-07
1.7557985e-07
1.747002e-07
1.7386386e-07
1.7306667e-07
1.7230499e-07
1.7157567e-07
1.7087586e-07
1.7020312e-07
1.6955526e-07
1.6893024e-07
1.6832635e-07
1.6774199e-07
1.6717566e-07
1.6662607e-07
1.6609205e-07
1.6557249e-07
1.6506633e-07
1.6457272e-07
1.6409084e-07
1.6361986e-07
1.6315902e-07
1.6270772e-07
1.6226536e-07
1.6183131e-07
1.6140499e-07
1.6098595e-07
1.6057375e-07
1.601679e-07
1.5976796e-07
1.5937354e-07
1.589843e-07
1.5859989e-07
1.5821994e-07
1.5784409e-07
1.574721e-07
1.5710367e-07
1.5673852e-07
1.5637634e-07
1.5601687e-07
1.5565989e-07
1.5530516e-07
1.5495243e-07
1.5460143e-07
1.5425195e-07
1.5390379e-07
1.5355673e-07
1.5321053e-07
1.5286493e-07
1.5251976e-07
1.5217482e-07
1.5182988e-07
1.5148468e-07
1.51139e-07
1.5079264e-07
1.5044539e-07
1.5009699e-07
1.4974715e-07
1.4939566e-07
1.4904229e-07
1.4868676e-07
1.4832873e-07
1.4796792e-07
1.4760405e-07
1.4723682e-07
1.4686583e-07
1.4649071e-07
1.4611113e-07
1.4572668e-07
1.4533686e-07
1.4494122e-07
1.4453928e-07
1.4413049e-07
1.4371416e-07
1.4328981e-07
1.4286607e-07
1.424564e-07
1.4206484e-07
1.4169006e-07
1.4133078e-07
1.4098584e-07
1.4065424e-07
1.4033507e-07
1.4002747e-07
1.3973061e-07
1.3944383e-07
1.3916651e-07
1.3889805e-07
1.3863786e-07
1.3838535e-07
1.381401e-07
1.3790138e-07
1.3766914e-07
1.3744078e-07
1.3722e-07
1.3699033e-07
1.3679035e-07
1.3645605e-07
1.999951e-06
2.0000127e-06
2.0001974e-06
2.0004788e-06
2.0008306e-06
2.0012401e-06
2.0016998e-06
2.0022037e-06
2.0027473e-06
2.0033272e-06
2.0039419e-06
2.0045909e-06
2.0052751e-06
2.0059968e-06
2.0067609e-06
2.0075737e-06
2.0084487e-06
2.0093952e-06
2.0104604e-06
2.0116261e-06
2.0131045e-06
2.0146829e-06
2.017272e-06
2.0223421e-06
3.0968945e-07
2.5827626e-07
2.4612191e-07
2.4141938e-07
2.3838304e-07
2.3583254e-07
2.3356134e-07
2.3151076e-07
2.2964401e-07
2.279294e-07
2.2634213e-07
2.2486389e-07
2.234807e-07
2.2218129e-07
2.2095626e-07
2.1979774e-07
2.1869897e-07
2.176541e-07
2.16658e-07
2.1570616e-07
2.1479463e-07
2.1391989e-07
2.1307892e-07
2.1226898e-07
2.1148754e-07
2.1073246e-07
2.1000175e-07
2.0929355e-07
2.0860624e-07
2.0793838e-07
2.0728856e-07
2.0665549e-07
2.0603808e-07
2.0543533e-07
2.0484618e-07
2.0426971e-07
2.0370515e-07
2.0315175e-07
2.0260874e-07
2.0207539e-07
2.0155114e-07
2.0103542e-07
2.0052765e-07
2.0002726e-07
1.9953376e-07
1.9904674e-07
1.9856575e-07
1.9809033e-07
1.9762005e-07
1.9715457e-07
1.9669356e-07
1.9623663e-07
1.9578342e-07
1.9533359e-07
1.9488687e-07
1.9444297e-07
1.9400157e-07
1.9356231e-07
1.9312496e-07
1.9268926e-07
1.9225493e-07
1.9182167e-07
1.9138916e-07
1.9095718e-07
1.9052549e-07
1.9009379e-07
1.8966177e-07
1.8922914e-07
1.8879566e-07
1.8836106e-07
1.8792502e-07
1.8748717e-07
1.8704726e-07
1.8660498e-07
1.8615999e-07
1.8571188e-07
1.8526029e-07
1.8480487e-07
1.8434523e-07
1.8388089e-07
1.8341137e-07
1.8293627e-07
1.8245507e-07
1.8196715e-07
1.8147193e-07
1.8096884e-07
1.8045716e-07
1.7993604e-07
1.7940489e-07
1.7887448e-07
1.7836168e-07
1.7787156e-07
1.7740243e-07
1.7695272e-07
1.7652094e-07
1.7610585e-07
1.7570633e-07
1.7532128e-07
1.7494969e-07
1.745907e-07
1.7424356e-07
1.739075e-07
1.735818e-07
1.7326572e-07
1.7295872e-07
1.7265989e-07
1.7236917e-07
1.7208333e-07
1.7180697e-07
1.7151957e-07
1.7126925e-07
1.7085073e-07
1.9999506e-06
2.0000123e-06
2.0001972e-06
2.0004793e-06
2.0008321e-06
2.0012428e-06
2.001704e-06
2.0022095e-06
2.0027547e-06
2.0033364e-06
2.0039529e-06
2.0046036e-06
2.0052895e-06
2.0060129e-06
2.0067787e-06
2.007593e-06
2.0084695e-06
2.0094172e-06
2.0104834e-06
2.0116498e-06
2.0131275e-06
2.0147073e-06
2.0172802e-06
2.0223612e-06
3.6511698e-07
3.1285772e-07
2.9893174e-07
2.9331147e-07
2.8967077e-07
2.8661075e-07
2.8388089e-07
2.8141135e-07
2.7915945e-07
2.7708854e-07
2.7516971e-07
2.7338144e-07
2.717072e-07
2.7013361e-07
2.6864952e-07
2.6724553e-07
2.6591357e-07
2.6464665e-07
2.634386e-07
2.62284e-07
2.6117812e-07
2.6011672e-07
2.5909616e-07
2.5811313e-07
2.571646e-07
2.5624796e-07
2.5536085e-07
2.5450099e-07
2.5366643e-07
2.5285542e-07
2.5206628e-07
2.5129744e-07
2.5054757e-07
2.4981546e-07
2.4909985e-07
2.4839961e-07
2.477138e-07
2.4704153e-07
2.4638185e-07
2.457339e-07
2.4509697e-07
2.4447039e-07
2.4385345e-07
2.4324545e-07
2.4264582e-07
2.4205405e-07
2.4146959e-07
2.4089189e-07
2.4032041e-07
2.3975476e-07
2.3919453e-07
2.3863926e-07
2.3808848e-07
2.3754181e-07
2.3699891e-07
2.3645944e-07
2.3592298e-07
2.3538913e-07
2.3485758e-07
2.3432804e-07
2.3380015e-07
2.3327356e-07
2.3274787e-07
2.3222283e-07
2.3169812e-07
2.311734e-07
2.3064828e-07
2.3012242e-07
2.2959552e-07
2.2906725e-07
2.2853723e-07
2.28005e-07
2.2747026e-07
2.2693265e-07
2.2639172e-07
2.2584701e-07
2.2529805e-07
2.2474444e-07
2.2418569e-07
2.2362122e-07
2.2305046e-07
2.224729e-07
2.2188792e-07
2.2129477e-07
2.2069275e-07
2.2008114e-07
2.1945909e-07
2.1882557e-07
2.1817983e-07
2.17535e-07
2.1691158e-07
2.1631571e-07
2.1574537e-07
2.1519862e-07
2.1467368e-07
2.1416903e-07
2.1368331e-07
2.1321517e-07
2.1276338e-07
2.1232693e-07
2.1190487e-07
2.1149629e-07
2.111003e-07
2.1071601e-07
2.1034275e-07
2.0997943e-07
2.0962597e-07
2.0927846e-07
2.0894246e-07
2.0859315e-07
2.0828883e-07
2.0777993e-07
1.9999501e-06
2.0000118e-06
2.0001969e-06
2.0004799e-06
2.0008339e-06
2.0012462e-06
2.0017091e-06
2.0022165e-06
2.0027638e-06
2.0033476e-06
2.0039662e-06
2.0046191e-06
2.0053072e-06
2.0060327e-06
2.0068005e-06
2.0076167e-06
2.008495e-06
2.0094442e-06
2.0105115e-06
2.0116789e-06
2.0131555e-06
2.014737e-06
2.0172897e-06
2.0223823e-06
4.2101734e-07
3.7096212e-07
3.5578996e-07
3.4929522e-07
3.4505068e-07
3.4147491e-07
3.3827488e-07
3.3537123e-07
3.3271691e-07
3.302715e-07
3.280026e-07
3.2588586e-07
3.2390243e-07
3.2203693e-07
3.2027652e-07
3.1861031e-07
3.1702893e-07
3.1552423e-07
3.14089e-07
3.127169e-07
3.1140239e-07
3.1014048e-07
3.0892689e-07
3.0775774e-07
3.0662945e-07
3.0553894e-07
3.0448342e-07
3.0346021e-07
3.02467e-07
3.0150174e-07
3.0056242e-07
2.9964718e-07
2.9875447e-07
2.9788282e-07
2.9703078e-07
2.9619698e-07
2.9538032e-07
2.9457974e-07
2.9379412e-07
2.9302242e-07
2.9226381e-07
2.9151751e-07
2.9078266e-07
2.9005844e-07
2.8934416e-07
2.886392e-07
2.8794294e-07
2.8725472e-07
2.8657389e-07
2.8589999e-07
2.8523252e-07
2.8457094e-07
2.8391471e-07
2.8326335e-07
2.8261648e-07
2.8197366e-07
2.8133443e-07
2.8069831e-07
2.8006491e-07
2.7943388e-07
2.7880482e-07
2.7817729e-07
2.7755084e-07
2.7692513e-07
2.7629982e-07
2.7567449e-07
2.7504868e-07
2.7442196e-07
2.73794e-07
2.7316442e-07
2.7253272e-07
2.718984e-07
2.7126106e-07
2.706203e-07
2.6997558e-07
2.6932634e-07
2.6867204e-07
2.6801218e-07
2.6734619e-07
2.6667337e-07
2.6599306e-07
2.6530463e-07
2.6460735e-07
2.6390032e-07
2.6318271e-07
2.6245367e-07
2.6171217e-07
2.60957e-07
2.6018725e-07
2.5941857e-07
2.5867541e-07
2.5796509e-07
2.572852e-07
2.5663343e-07
2.5600764e-07
2.5540604e-07
2.54827e-07
2.5426892e-07
2.5373033e-07
2.5321002e-07
2.5270686e-07
2.5221977e-07
2.5174769e-07
2.5128956e-07
2.5084457e-07
2.5041145e-07
2.4999007e-07
2.4957581e-07
2.4917525e-07
2.4875898e-07
2.4839621e-07
2.4778942e-07
1.9999495e-06
2.0000111e-06
2.0001966e-06
2.0004806e-06
2.0008361e-06
2.0012502e-06
2.0017152e-06
2.002225e-06
2.0027747e-06
2.0033611e-06
2.0039823e-06
2.0046378e-06
2.0053285e-06
2.0060565e-06
2.0068267e-06
2.0076452e-06
2.0085255e-06
2.0094765e-06
2.0105451e-06
2.0117135e-06
2.0131889e-06
2.0147724e-06
2.0173003e-06
2.0224053e-06
4.7741476e-07
4.3274027e-07
4.1725438e-07
4.1002835e-07
4.0521523e-07
4.0113791e-07
3.974691e-07
3.9412416e-07
3.9105497e-07
3.882195e-07
3.8558328e-07
3.8311995e-07
3.8080879e-07
3.7863278e-07
3.7657756e-07
3.7463091e-07
3.7278224e-07
3.7102229e-07
3.6934282e-07
3.6773658e-07
3.6619721e-07
3.6471899e-07
3.6329698e-07
3.619267e-07
3.6060402e-07
3.5932537e-07
3.5808752e-07
3.5688739e-07
3.5572226e-07
3.5458974e-07
3.5348754e-07
3.5241347e-07
3.5136572e-07
3.503426e-07
3.4934239e-07
3.4836353e-07
3.474047e-07
3.4646468e-07
3.4554216e-07
3.4463594e-07
3.4374504e-07
3.4286853e-07
3.4200543e-07
3.4115477e-07
3.4031575e-07
3.3948764e-07
3.3866972e-07
3.378612e-07
3.3706134e-07
3.3626959e-07
3.3548536e-07
3.3470804e-07
3.3393698e-07
3.3317162e-07
3.3241149e-07
3.3165613e-07
3.3090495e-07
3.3015741e-07
3.2941305e-07
3.2867146e-07
3.2793218e-07
3.2719467e-07
3.2645841e-07
3.2572302e-07
3.2498807e-07
3.2425309e-07
3.2351753e-07
3.227809e-07
3.2204279e-07
3.2130276e-07
3.2056023e-07
3.1981461e-07
3.1906544e-07
3.1831222e-07
3.1755436e-07
3.1679116e-07
3.1602199e-07
3.1524629e-07
3.1446337e-07
3.1367242e-07
3.1287264e-07
3.1206332e-07
3.1124357e-07
3.1041236e-07
3.095687e-07
3.0871159e-07
3.0783983e-07
3.0695198e-07
3.0604698e-07
3.0514323e-07
3.0426947e-07
3.0343432e-07
3.0263494e-07
3.0186861e-07
3.0113283e-07
3.0042548e-07
2.9974465e-07
2.9908846e-07
2.9845518e-07
2.9784339e-07
2.9725177e-07
2.9667904e-07
2.9612395e-07
2.9558527e-07
2.9506203e-07
2.9455276e-07
2.9405729e-07
2.9357023e-07
2.9309924e-07
2.9260999e-07
2.9218347e-07
2.9146987e-07
1.9999488e-06
2.0000104e-06
2.0001962e-06
2.0004813e-06
2.0008386e-06
2.0012549e-06
2.0017224e-06
2.0022349e-06
2.0027875e-06
2.003377e-06
2.0040013e-06
2.0046599e-06
2.0053536e-06
2.0060846e-06
2.0068576e-06
2.0076787e-06
2.0085615e-06
2.0095146e-06
2.0105847e-06
2.0117543e-06
2.0132279e-06
2.0148138e-06
2.0173118e-06
2.02243e-06
5.3423126e-07
4.9803448e-07
4.8375457e-07
4.7612205e-07
4.7084464e-07
4.6632121e-07
4.6221233e-07
4.5843738e-07
4.5495332e-07
4.5172068e-07
4.4870555e-07
4.4588118e-07
4.4322606e-07
4.4072218e-07
4.3835415e-07
4.3610875e-07
4.3397437e-07
4.3194079e-07
4.2999887e-07
4.2814051e-07
4.2635858e-07
4.2464664e-07
4.2299912e-07
4.2141095e-07
4.1987746e-07
4.1839458e-07
4.1695863e-07
4.155661e-07
4.1421389e-07
4.1289927e-07
4.116196e-07
4.103724e-07
4.0915556e-07
4.0796715e-07
4.0680521e-07
4.0566794e-07
4.0455381e-07
4.0346141e-07
4.0238926e-07
4.0133596e-07
4.0030037e-07
3.9928142e-07
3.9827799e-07
3.9728896e-07
3.9631339e-07
3.9535045e-07
3.943993e-07
3.9345903e-07
3.925288e-07
3.9160793e-07
3.9069578e-07
3.8979161e-07
3.888947e-07
3.8800439e-07
3.8712013e-07
3.8624136e-07
3.8536745e-07
3.8449774e-07
3.836317e-07
3.8276886e-07
3.8190867e-07
3.8105054e-07
3.8019383e-07
3.793381e-07
3.7848288e-07
3.7762759e-07
3.7677162e-07
3.7591438e-07
3.750554e-07
3.7419416e-07
3.7333001e-07
3.7246225e-07
3.7159032e-07
3.7071368e-07
3.6983161e-07
3.6894332e-07
3.6804808e-07
3.6714521e-07
3.6623393e-07
3.6531328e-07
3.6438235e-07
3.6344029e-07
3.6248609e-07
3.6151854e-07
3.6053648e-07
3.5953875e-07
3.5852395e-07
3.5749042e-07
3.5643691e-07
3.5538483e-07
3.5436767e-07
3.5339543e-07
3.5246483e-07
3.515727e-07
3.5071612e-07
3.4989264e-07
3.4910002e-07
3.4833608e-07
3.4759882e-07
3.4688657e-07
3.461978e-07
3.4553101e-07
3.4488476e-07
3.442576e-07
3.4364844e-07
3.4305553e-07
3.424787e-07
3.419117e-07
3.4136336e-07
3.4079404e-07
3.4029755e-07
3.3946657e-07
1.9999479e-06
2.0000094e-06
2.0001956e-06
2.0004821e-06
2.0008415e-06
2.0012603e-06
2.0017307e-06
2.0022465e-06
2.0028025e-06
2.0033955e-06
2.0040234e-06
2.0046856e-06
2.0053829e-06
2.0061174e-06
2.0068936e-06
2.0077178e-06
2.0086033e-06
2.0095588e-06
2.0106306e-06
2.0118015e-06
2.013273e-06
2.0148617e-06
2.0173239e-06
2.0224561e-06
5.9128082e-07
5.6638106e-07
5.5549159e-07
5.4807215e-07
5.4255954e-07
5.3772187e-07
5.33254e-07
5.2909723e-07
5.2522475e-07
5.2160695e-07
5.1821528e-07
5.150257e-07
5.1201788e-07
5.0917419e-07
5.0647921e-07
5.0391937e-07
5.0148256e-07
4.9915795e-07
4.9693574e-07
4.9480718e-07
4.9276451e-07
4.9080068e-07
4.8890954e-07
4.8708553e-07
4.8532344e-07
4.8361874e-07
4.8196732e-07
4.8036527e-07
4.7880909e-07
4.772957e-07
4.7582216e-07
4.7438566e-07
4.7298379e-07
4.7161439e-07
4.7027524e-07
4.6896428e-07
4.6767978e-07
4.6642015e-07
4.6518369e-07
4.6396881e-07
4.627742e-07
4.6159866e-07
4.6044089e-07
4.5929963e-07
4.581738e-07
4.5706243e-07
4.5596458e-07
4.5487922e-07
4.5380536e-07
4.5274223e-07
4.516891e-07
4.5064512e-07
4.4960946e-07
4.4858137e-07
4.4756021e-07
4.4654534e-07
4.4553604e-07
4.4453154e-07
4.4353125e-07
4.425346e-07
4.4154098e-07
4.4054969e-07
4.3956003e-07
4.3857146e-07
4.3758344e-07
4.3659532e-07
4.3560638e-07
4.3461596e-07
4.3362349e-07
4.3262839e-07
4.316299e-07
4.3062722e-07
4.296197e-07
4.2860672e-07
4.2758744e-07
4.2656095e-07
4.2552642e-07
4.2448304e-07
4.2342993e-07
4.2236598e-07
4.2129014e-07
4.2020141e-07
4.1909864e-07
4.1798041e-07
4.1684541e-07
4.1569228e-07
4.1451941e-07
4.1332488e-07
4.1210724e-07
4.1089125e-07
4.0971559e-07
4.0859186e-07
4.0751623e-07
4.0648506e-07
4.0549499e-07
4.0454315e-07
4.0362699e-07
4.0274397e-07
4.0189179e-07
4.010685e-07
4.0027235e-07
3.9950161e-07
3.9875461e-07
3.9802969e-07
3.9732556e-07
3.9664022e-07
3.9597347e-07
3.9531814e-07
3.9468434e-07
3.9402661e-07
3.9345284e-07
3.9249207e-07
1.9999469e-06
2.0000083e-06
2.000195e-06
2.000483e-06
2.0008447e-06
2.0012665e-06
2.0017403e-06
2.0022597e-06
2.0028198e-06
2.0034168e-06
2.0040489e-06
2.0047153e-06
2.0054166e-06
2.0061551e-06
2.0069351e-06
2.0077629e-06
2.0086515e-06
2.0096097e-06
2.0106833e-06
2.0118556e-06
2.0133244e-06
2.0149161e-06
2.017336e-06
2.022483e-06
6.4825067e-07
6.3709235e-07
6.3233192e-07
6.26153e-07
6.2083599e-07
6.1594484e-07
6.1129109e-07
6.0686849e-07
6.0268466e-07
5.9873203e-07
5.949955e-07
5.9145915e-07
5.8810749e-07
5.8492581e-07
5.8190043e-07
5.7901881e-07
5.7626932e-07
5.7364121e-07
5.711246e-07
5.6871049e-07
5.663908e-07
5.6415816e-07
5.6200601e-07
5.5992842e-07
5.579198e-07
5.5597523e-07
5.5409025e-07
5.522606e-07
5.5048241e-07
5.4875231e-07
5.4706706e-07
5.4542353e-07
5.4381906e-07
5.4225123e-07
5.4071759e-07
5.3921583e-07
5.3774399e-07
5.363003e-07
5.3488288e-07
5.3348991e-07
5.3211993e-07
5.3077157e-07
5.2944339e-07
5.2813396e-07
5.2684203e-07
5.2556654e-07
5.243064e-07
5.2306046e-07
5.2182759e-07
5.2060691e-07
5.1939758e-07
5.1819867e-07
5.1700922e-07
5.1582835e-07
5.1465536e-07
5.1348951e-07
5.1232998e-07
5.1117591e-07
5.1002658e-07
5.0888138e-07
5.077396e-07
5.0660045e-07
5.0546312e-07
5.0432698e-07
5.0319142e-07
5.0205571e-07
5.0091901e-07
4.9978057e-07
4.9863973e-07
4.9749582e-07
4.9634799e-07
4.9519532e-07
4.9403705e-07
4.9287245e-07
4.9170059e-07
4.9052043e-07
4.8933098e-07
4.8813134e-07
4.8692049e-07
4.8569715e-07
4.8446011e-07
4.8320824e-07
4.8194019e-07
4.8065437e-07
4.7934923e-07
4.7802324e-07
4.7667452e-07
4.7530088e-07
4.7390066e-07
4.7250231e-07
4.7115033e-07
4.6985806e-07
4.6862111e-07
4.6743527e-07
4.6629669e-07
4.6520208e-07
4.6414848e-07
4.63133e-07
4.6215298e-07
4.6120618e-07
4.6029059e-07
4.5940423e-07
4.5854517e-07
4.5771149e-07
4.5690174e-07
4.561136e-07
4.5534685e-07
4.545933e-07
4.5386446e-07
4.5310852e-07
4.5244888e-07
4.5134366e-07
1.9999457e-06
2.0000069e-06
2.0001941e-06
2.0004838e-06
2.0008482e-06
2.0012734e-06
2.0017511e-06
2.0022748e-06
2.0028394e-06
2.0034411e-06
2.004078e-06
2.0047491e-06
2.0054551e-06
2.0061981e-06
2.0069824e-06
2.0078141e-06
2.0087063e-06
2.0096674e-06
2.010743e-06
2.0119167e-06
2.0133821e-06
2.0149773e-06
2.0173476e-06
2.0225098e-06
7.0471003e-07
7.0931654e-07
7.1376334e-07
7.1030101e-07
7.0588646e-07
7.013918e-07
6.9686836e-07
6.9240708e-07
6.8807618e-07
6.8390791e-07
6.799131e-07
6.7609256e-07
6.7244163e-07
6.6895282e-07
6.6561738e-07
6.6242615e-07
6.5936973e-07
6.5643886e-07
6.5362459e-07
6.5091848e-07
6.4831282e-07
6.4580036e-07
6.4337459e-07
6.4102953e-07
6.3875945e-07
6.3655927e-07
6.3442435e-07
6.3235019e-07
6.3033271e-07
6.2836831e-07
6.2645352e-07
6.2458499e-07
6.2275982e-07
6.2097538e-07
6.1922903e-07
6.1751823e-07
6.1584084e-07
6.1419489e-07
6.1257833e-07
6.1098917e-07
6.0942575e-07
6.0788656e-07
6.0637003e-07
6.0487455e-07
6.0339873e-07
6.0194136e-07
6.0050125e-07
5.9907711e-07
5.9766767e-07
5.9627194e-07
5.9488897e-07
5.9351772e-07
5.9215711e-07
5.9080615e-07
5.8946404e-07
5.8812995e-07
5.8680295e-07
5.8548208e-07
5.8416651e-07
5.8285554e-07
5.8154838e-07
5.8024413e-07
5.7894187e-07
5.7764088e-07
5.7634047e-07
5.7503979e-07
5.7373793e-07
5.7243399e-07
5.7112723e-07
5.698169e-07
5.6850201e-07
5.6718152e-07
5.6585456e-07
5.645203e-07
5.6317767e-07
5.6182549e-07
5.6046261e-07
5.5908803e-07
5.5770054e-07
5.5629873e-07
5.5488118e-07
5.5344659e-07
5.5199345e-07
5.5051991e-07
5.490242e-07
5.4750457e-07
5.4595888e-07
5.4438461e-07
5.4277985e-07
5.4117721e-07
5.3962772e-07
5.3814665e-07
5.3672897e-07
5.3536987e-07
5.3406493e-07
5.3281038e-07
5.3160283e-07
5.3043897e-07
5.2931576e-07
5.2823062e-07
5.2718125e-07
5.2616538e-07
5.2518081e-07
5.2422534e-07
5.2329729e-07
5.2239403e-07
5.2151529e-07
5.2065178e-07
5.1981652e-07
5.1895074e-07
5.1819504e-07
5.1692794e-07
1.9999443e-06
2.0000053e-06
2.000193e-06
2.0004847e-06
2.0008521e-06
2.001281e-06
2.0017632e-06
2.0022917e-06
2.0028614e-06
2.0034685e-06
2.0041108e-06
2.0047873e-06
2.0054986e-06
2.0062466e-06
2.0070358e-06
2.0078719e-06
2.0087679e-06
2.0097323e-06
2.0108099e-06
2.011985e-06
2.0134462e-06
2.0150453e-06
2.0173577e-06
2.0225355e-06
7.601233e-07
7.8207449e-07
7.9896718e-07
8.0006993e-07
7.975666e-07
7.9414474e-07
7.90252e-07
7.8613237e-07
7.8194607e-07
7.7778726e-07
7.7370902e-07
7.6974079e-07
7.6589737e-07
7.6218482e-07
7.5860418e-07
7.5515337e-07
7.5182815e-07
7.4862294e-07
7.455315e-07
7.425474e-07
7.3966437e-07
7.3687628e-07
7.3417738e-07
7.3156225e-07
7.2902555e-07
7.2656242e-07
7.2416839e-07
7.2183905e-07
7.1957029e-07
7.173585e-07
7.1520018e-07
7.1309186e-07
7.1103052e-07
7.0901346e-07
7.0703791e-07
7.0510118e-07
7.0320097e-07
7.0133522e-07
6.9950175e-07
6.976984e-07
6.9592336e-07
6.9417502e-07
6.9245167e-07
6.9075158e-07
6.890732e-07
6.8741521e-07
6.8577632e-07
6.841551e-07
6.8255017e-07
6.8096039e-07
6.7938474e-07
6.7782208e-07
6.762712e-07
6.7473098e-07
6.7320053e-07
6.7167894e-07
6.7016518e-07
6.6865815e-07
6.6715693e-07
6.6566072e-07
6.6416865e-07
6.6267971e-07
6.6119284e-07
6.5970725e-07
6.5822214e-07
6.5673657e-07
6.5524949e-07
6.537599e-07
6.5226694e-07
6.5076977e-07
6.4926728e-07
6.4775826e-07
6.4624174e-07
6.4471677e-07
6.4318214e-07
6.4163649e-07
6.4007853e-07
6.3850709e-07
6.3692082e-07
6.3531811e-07
6.3369732e-07
6.3205698e-07
6.3039536e-07
6.2871036e-07
6.2699996e-07
6.2526214e-07
6.2349447e-07
6.2169408e-07
6.1985878e-07
6.1802586e-07
6.1625369e-07
6.1455977e-07
6.1293832e-07
6.1138385e-07
6.0989133e-07
6.0845643e-07
6.0707528e-07
6.057441e-07
6.0445941e-07
6.0321827e-07
6.0201804e-07
6.0085612e-07
5.9973001e-07
5.986372e-07
5.9757576e-07
5.965427e-07
5.9553768e-07
5.9455022e-07
5.9359499e-07
5.926055e-07
5.9174164e-07
5.9029184e-07
1.9999427e-06
2.0000034e-06
2.0001916e-06
2.0004854e-06
2.0008561e-06
2.0012894e-06
2.0017765e-06
2.0023105e-06
2.002886e-06
2.0034991e-06
2.0041474e-06
2.00483e-06
2.0055472e-06
2.0063008e-06
2.0070953e-06
2.0079363e-06
2.0088365e-06
2.0098044e-06
2.0108841e-06
2.0120605e-06
2.0135165e-06
2.0151197e-06
2.0173649e-06
2.0225584e-06
8.1386146e-07
8.5428569e-07
8.8693543e-07
8.9471815e-07
8.9540252e-07
8.9394462e-07
8.9137038e-07
8.8814018e-07
8.8453882e-07
8.8074544e-07
8.7687328e-07
8.7299422e-07
8.6915291e-07
8.6537698e-07
8.6168352e-07
8.5808254e-07
8.5457892e-07
8.5117395e-07
8.4786668e-07
8.4465477e-07
8.4153516e-07
8.3850423e-07
8.3555819e-07
8.3269319e-07
8.299051e-07
8.2718996e-07
8.2454406e-07
8.2196356e-07
8.1944479e-07
8.1698445e-07
8.145793e-07
8.1222606e-07
8.099218e-07
8.0766392e-07
8.0544971e-07
8.0327648e-07
8.011419e-07
7.9904391e-07
7.9698031e-07
7.9494884e-07
7.9294763e-07
7.9097502e-07
7.8902924e-07
7.8710844e-07
7.85211e-07
7.833355e-07
7.8148059e-07
7.7964475e-07
7.7782646e-07
7.7602451e-07
7.742378e-07
7.7246509e-07
7.7070508e-07
7.6895653e-07
7.6721846e-07
7.6548989e-07
7.6376968e-07
7.6205661e-07
7.6034968e-07
7.5864798e-07
7.5695056e-07
7.552563e-07
7.5356402e-07
7.5187281e-07
7.501818e-07
7.4848993e-07
7.4679604e-07
7.4509898e-07
7.4339779e-07
7.4169151e-07
7.3997891e-07
7.3825863e-07
7.3652953e-07
7.3479056e-07
7.3304036e-07
7.3127738e-07
7.2950016e-07
7.2770735e-07
7.2589743e-07
7.2406857e-07
7.2221891e-07
7.2034676e-07
7.1845016e-07
7.1652673e-07
7.1457414e-07
7.125901e-07
7.1057186e-07
7.0851613e-07
7.064204e-07
7.0432727e-07
7.0230343e-07
7.0036885e-07
6.9851697e-07
6.9674155e-07
6.9503682e-07
6.9339787e-07
6.9182026e-07
6.9029972e-07
6.8883225e-07
6.8741451e-07
6.8604348e-07
6.847162e-07
6.8342982e-07
6.8218148e-07
6.8096897e-07
6.797889e-07
6.7864087e-07
6.7751304e-07
6.7642194e-07
6.7529253e-07
6.7430629e-07
6.7264931e-07
1.9999408e-06
2.0000012e-06
2.0001898e-06
2.0004859e-06
2.0008604e-06
2.0012984e-06
2.001791e-06
2.0023311e-06
2.0029131e-06
2.0035328e-06
2.0041879e-06
2.0048772e-06
2.0056009e-06
2.0063608e-06
2.007161e-06
2.0080073e-06
2.0089121e-06
2.0098837e-06
2.0109653e-06
2.0121428e-06
2.0135924e-06
2.0152002e-06
2.0173678e-06
2.0225764e-06
8.6520857e-07
9.248e-07
9.7652936e-07
9.9335501e-07
9.9873266e-07
1.0003098e-06
9.9990166e-07
9.9825809e-07
9.9582175e-07
9.92879e-07
9.8962093e-07
9.8617588e-07
9.8262941e-07
9.7903937e-07
9.7544596e-07
9.7187706e-07
9.6835135e-07
9.6488089e-07
9.6147321e-07
9.5813274e-07
9.5486191e-07
9.5166152e-07
9.4853132e-07
9.4547039e-07
9.4247698e-07
9.3954902e-07
9.366844e-07
9.3388059e-07
9.3113494e-07
9.2844503e-07
9.2580837e-07
9.2322224e-07
9.2068417e-07
9.1819196e-07
9.1574325e-07
9.1333556e-07
9.1096677e-07
9.0863498e-07
9.0633813e-07
9.0407404e-07
9.0184086e-07
8.9963701e-07
8.9746076e-07
8.9531027e-07
8.9318385e-07
8.9108011e-07