/*--------------------------------*- C++ -*----------------------------------*\
  =========                 |
  \\      /  F ield         | OpenFOAM: The Open Source CFD Toolbox
   \\    /   O peration     | Website:  https://openfoam.org
    \\  /    A nd           | Version:  12
     \\/     M anipulation  |
\*---------------------------------------------------------------------------*/
FoamFile
{
    format      ascii;
    class       volScalarField;
    location    "600";
    object      p;
}
// * * * * * * * * * * * * * * * * * * * * * * * * * * * * * * * * * * * * * //

dimensions      [0 2 -2 0 0 0 0];

internalField   nonuniform List<scalar> 
7480
(
0.0087171191
0.00812825
0.0070201116
0.0064119497
0.0061121554
0.0058666648
0.0056061847
0.0053526109
0.0051125326
0.0048746722
0.004631917
0.0043833579
0.0041399714
0.0039215198
0.0037513373
0.0036402429
0.0035868687
0.0035519402
0.0035274579
0.0035143678
0.0035036243
0.0034930141
0.0034813169
0.0034549154
0.0034160614
0.003373177
0.0033304246
0.0032901722
0.0032497833
0.0032099252
0.0031715171
0.0031345446
0.0030995787
0.0030646337
0.003026345
0.0029852386
0.0029430763
0.0029014189
0.0028616138
0.0028235205
0.0027864641
0.0027504395
0.002715502
0.0026815925
0.0026483094
0.0026150639
0.0025814009
0.0025476559
0.002513925
0.0024788822
0.002441136
0.0024032323
0.0023676142
0.0023346152
0.0023020357
0.0022684755
0.0022331472
0.0021953532
0.0021561785
0.0021169965
0.0020777826
0.0020380762
0.0019979538
0.0019574678
0.0019163907
0.001874749
0.0018326792
0.0017901038
0.0017469895
0.0017033954
0.0016591991
0.0016143589
0.0015689329
0.0015228015
0.0014759727
0.0014284569
0.001380116
0.0013309878
0.0012810425
0.0012300997
0.0011783742
0.001125527
0.0010712352
0.0010158409
0.00095826655
0.00089060708
0.00081686328
0.00076201175
0.00070786945
0.00065015886
0.00059209415
0.00053549543
0.00048021522
0.00042550677
0.00037321114
0.00032031999
0.00028390674
0.00022600499
0.0003848917
-0.00027974936
0.008280768
0.0076994659
0.0068348681
0.0063081392
0.0060393452
0.0058145026
0.0055723118
0.0053354438
0.0051150252
0.0049027706
0.0046926138
0.0044831003
0.0042824264
0.0041019925
0.0039520713
0.0038383943
0.0037549856
0.0037003173
0.0036593756
0.0036252137
0.0035934192
0.0035601657
0.0035206663
0.0034755753
0.0034286215
0.0033815626
0.0033375332
0.0032968447
0.0032569181
0.0032177979
0.0031799773
0.0031433443
0.0031080984
0.0030724267
0.0030337405
0.0029926783
0.0029508111
0.0029095018
0.002869905
0.0028317783
0.0027944812
0.0027581049
0.0027227698
0.0026884572
0.0026546909
0.0026208817
0.0025866718
0.0025522148
0.0025176243
0.0024817844
0.0024443441
0.0024072439
0.0023724314
0.0023394062
0.0023063066
0.0022722156
0.0022365397
0.0021985767
0.0021593089
0.0021200366
0.0020807307
0.0020409362
0.0020007314
0.0019601657
0.0019190078
0.0018772851
0.001835133
0.0017924724
0.0017492711
0.0017055901
0.0016613081
0.0016163841
0.0015708764
0.0015246651
0.0014777589
0.0014301679
0.0013817557
0.001332562
0.001282555
0.0012315534
0.0011797718
0.0011268702
0.0010725235
0.0010170653
0.00095924853
0.0008901233
0.00081948445
0.00076662834
0.00071216158
0.00065347756
0.00059474236
0.00053765621
0.00048199049
0.00042698987
0.00037449107
0.00032145077
0.00028492469
0.00022701548
0.00038594803
-0.00027898227
0.0079897351
0.0075790491
0.0069019938
0.0063869335
0.0060969089
0.0058590645
0.0056106247
0.0053669065
0.0051393137
0.0049197206
0.0047018064
0.0044827897
0.0042707817
0.0040766541
0.0039122981
0.0037865507
0.0036997605
0.0036494029
0.0036201309
0.0035974051
0.0035744982
0.0035485731
0.0035177362
0.0034842973
0.0034478054
0.0034080946
0.0033670114
0.003325328
0.0032834558
0.0032417601
0.0032007709
0.0031605292
0.0031216782
0.0030833556
0.0030432963
0.0030016206
0.002959488
0.0029180803
0.0028784496
0.0028402641
0.0028028321
0.0027662625
0.0027306867
0.0026961072
0.0026619514
0.0026276345
0.0025929258
0.0025580334
0.0025229816
0.0024868277
0.002449409
0.0024121566
0.0023769687
0.0023434837
0.002310048
0.0022757756
0.002240009
0.0022020187
0.0021627299
0.0021234047
0.0020840167
0.0020441228
0.0020038141
0.0019631435
0.0019218817
0.0018800613
0.0018378161
0.0017950624
0.0017517686
0.0017079971
0.0016636269
0.0016186175
0.0015730273
0.001526736
0.0014797526
0.0014320872
0.0013836022
0.0013343371
0.0012842608
0.0012331924
0.0011813473
0.0011283847
0.0010739812
0.0010184806
0.0009605251
0.00089094393
0.00082372161
0.00077107862
0.0007161442
0.00065693255
0.00059775122
0.00054024312
0.00048419946
0.00042889385
0.00037615729
0.00032291178
0.00028622892
0.00022831765
0.00038716497
-0.00027802175
0.0077640453
0.0074468286
0.0068507515
0.0063462698
0.0060458231
0.0058103902
0.0055700426
0.0053330216
0.0051112331
0.0048984151
0.0046883919
0.0044787631
0.0042774028
0.0040943653
0.0039405409
0.0038233124
0.0037422397
0.0036920742
0.0036583855
0.0036281948
0.0035971407
0.0035641047
0.0035283067
0.0034909491
0.0034510105
0.0034092862
0.0033668078
0.0033242725
0.003283428
0.0032440927
0.0032060366
0.0031689331
0.003132097
0.0030943976
0.003054638
0.0030128157
0.0029699693
0.0029274454
0.0028866784
0.002847648
0.0028096793
0.0027727405
0.0027368777
0.0027021229
0.0026678401
0.0026333479
0.002598402
0.0025633258
0.0025279978
0.0024915445
0.0024538417
0.0024162401
0.0023806913
0.00234692
0.002313307
0.0022789147
0.0022430659
0.0022050587
0.0021657728
0.0021264151
0.0020869599
0.0020469856
0.0020065996
0.0019658507
0.0019245084
0.0018826138
0.0018402962
0.001797466
0.0017540936
0.0017102437
0.001665795
0.0016207082
0.0015750417
0.0015286748
0.0014816172
0.001433879
0.001385321
0.0013359826
0.0012858341
0.0012346952
0.0011827824
0.0011297537
0.0010752896
0.0010197354
0.00096176933
0.00089337215
0.00082724504
0.00077408199
0.00071881887
0.00065937281
0.00059994942
0.000542199
0.00048594436
0.00043045082
0.00037754168
0.00032414536
0.00028734878
0.00022932761
0.00038821147
-0.00027721335
0.007557653
0.0072962641
0.0067813065
0.0063227292
0.0060321067
0.0058053547
0.0055737041
0.0053416896
0.0051224854
0.0049120975
0.0047050385
0.0044992757
0.0043016734
0.0041212966
0.0039675594
0.0038472156
0.0037602467
0.0037020393
0.0036610241
0.0036261187
0.0035929932
0.0035597495
0.0035247807
0.0034881802
0.0034491146
0.0034082282
0.0033662753
0.0033241197
0.0032834282
0.0032440023
0.0032057972
0.0031688816
0.0031320843
0.0030943487
0.0030554272
0.0030151968
0.0029743686
0.0029338073
0.0028941084
0.0028553566
0.002817357
0.0027799825
0.0027433694
0.0027078911
0.0026731147
0.0026383107
0.0026031296
0.002567893
0.0025324249
0.0024958196
0.0024579671
0.0024202275
0.0023844951
0.0023504986
0.0023166768
0.0022821058
0.0022461261
0.0022080706
0.0021687675
0.0021293627
0.002089839
0.0020497934
0.0020093422
0.0019685236
0.001927109
0.0018851526
0.001842772
0.0017998708
0.0017564252
0.0017125021
0.0016679795
0.0016228188
0.001577079
0.0015306385
0.0014835082
0.001435698
0.0013870683
0.0013376593
0.0012874413
0.0012362337
0.0011842547
0.0011311606
0.0010766337
0.0010210167
0.00096305081
0.00089569263
0.00083021845
0.00077689888
0.00072144525
0.00066179663
0.00060214001
0.00054415862
0.00048769958
0.0004320153
0.00037893149
0.00032539343
0.00028848235
0.00023031549
0.00038923034
-0.00027631948
0.0073686841
0.007150749
0.0067135012
0.0063004081
0.0060145523
0.0057877421
0.0055593638
0.0053301422
0.0051127346
0.0049053177
0.0047012473
0.0045006856
0.0043083533
0.0041324763
0.003981711
0.003862307
0.0037746185
0.0037144812
0.0036718481
0.0036362802
0.0036027671
0.0035689558
0.0035332562
0.003495699
0.0034558728
0.0034143574
0.0033718841
0.0033293416
0.0032881
0.003248077
0.0032092285
0.0031714928
0.0031337414
0.003095178
0.0030557032
0.0030151749
0.0029743332
0.0029339641
0.0028943041
0.0028558075
0.002818707
0.0027826702
0.0027474188
0.0027127145
0.0026781784
0.0026433744
0.0026079155
0.0025722369
0.0025363952
0.0024995569
0.0024615834
0.0024237926
0.0023879662
0.002353805
0.0023198141
0.0022851085
0.0022490374
0.0022109468
0.0021716269
0.0021321854
0.0020926136
0.0020525146
0.0020120129
0.0019711376
0.0019296637
0.0018876577
0.0018452248
0.001802263
0.0017587547
0.0017147685
0.0016701811
0.0016249549
0.0015791496
0.0015326426
0.0014854459
0.0014375696
0.0013888734
0.0013393992
0.0012891163
0.001237844
0.0011858028
0.0011326468
0.0010780591
0.0010223783
0.00096439232
0.00089773245
0.00083297684
0.00077978738
0.00072427456
0.00066446606
0.00060457921
0.00054634652
0.00048964658
0.00043374438
0.00038047099
0.00032677386
0.00028972238
0.00023139757
0.00039026759
-0.00027523007
0.0071961424
0.0070121943
0.0066408001
0.0062686235
0.0059899309
0.0057654403
0.0055438176
0.00532126
0.0051085881
0.0049061107
0.0047060182
0.0045109999
0.0043239146
0.0041523133
0.0040041946
0.0038852137
0.0037959066
0.003732459
0.0036860479
0.0036471344
0.0036106808
0.0035744222
0.003536977
0.0034982204
0.0034577746
0.0034159715
0.0033734328
0.0033309391
0.0032896391
0.0032495768
0.0032106672
0.0031727876
0.0031349839
0.0030965207
0.0030571947
0.0030168256
0.0029760362
0.0029355024
0.0028955168
0.0028566859
0.0028193031
0.0027831087
0.0027478042
0.0027129721
0.0026785601
0.0026444165
0.0026100524
0.0025752349
0.0025397506
0.0025031243
0.0024651668
0.0024272003
0.0023910977
0.0023566653
0.0023224704
0.0022876455
0.0022515318
0.0022134522
0.0021741513
0.0021347103
0.0020951265
0.0020550031
0.0020144773
0.0019735716
0.001932061
0.0018900212
0.0018475523
0.001804548
0.0017609938
0.0017169601
0.0016723219
0.0016270434
0.0015811848
0.0015346222
0.0014873694
0.0014394363
0.001390682
0.00134115
0.0012908089
0.001239478
0.0011873803
0.0011341672
0.0010795229
0.0010237812
0.00096576561
0.00089967408
0.0008356382
0.00078262422
0.00072711711
0.00066720459
0.00060711833
0.00054864428
0.00049170118
0.00043557625
0.00038210666
0.00032824209
0.00029103332
0.00023254246
0.00039127751
-0.00027393038
0.0070379974
0.0068802285
0.0065637636
0.0062303352
0.0059630328
0.0057428228
0.0055280728
0.0053118535
0.0051033332
0.0049040159
0.0047081853
0.0045176005
0.0043350429
0.0041672858
0.004021573
0.0039029954
0.0038122361
0.0037458955
0.003696282
0.0036548127
0.0036165131
0.0035790345
0.0035409451
0.0035018348
0.0034612759
0.0034194551
0.0033769407
0.00333446
0.0032930271
0.003252784
0.0032136282
0.0031754194
0.0031373399
0.0030986693
0.0030591714
0.0030187226
0.0029778805
0.0029373043
0.0028973406
0.0028585273
0.0028210798
0.0027847157
0.002749101
0.0027138793
0.0026791177
0.0026447255
0.002610307
0.0025753839
0.0025398308
0.0025036247
0.0024665389
0.0024294015
0.0023936692
0.0023593176
0.0023250105
0.002289961
0.0022536799
0.0022155491
0.0021762447
0.0021368122
0.0020972473
0.002057135
0.0020166209
0.0019757208
0.0019342037
0.0018921553
0.0018496741
0.0018066496
0.0017630701
0.0017190081
0.0016743369
0.0016290224
0.0015831258
0.0015365216
0.0014892256
0.0014412476
0.001392446
0.0013428661
0.0012924757
0.001241094
0.0011889473
0.0011356836
0.0010809884
0.0010251901
0.00096714601
0.00090159228
0.00083821963
0.00078535039
0.0007298744
0.00066989981
0.00060964768
0.00055095479
0.00049378309
0.000437444
0.00038378113
0.00032975077
0.00029237637
0.00023371204
0.00039221166
-0.00027240632
0.0068923166
0.0067549301
0.0064843105
0.0061870622
0.0059334744
0.0057183123
0.0055099753
0.0053002039
0.0050963566
0.0049009169
0.0047099328
0.0045241041
0.0043463944
0.0041827905
0.0040397746
0.0039219535
0.0038301293
0.003761317
0.0037088021
0.0036648703
0.0036246341
0.0035856418
0.0035464333
0.0035064435
0.0034652635
0.0034230156
0.0033802167
0.0033375346
0.0032958514
0.0032553551
0.0032159309
0.0031774159
0.0031390893
0.0031002574
0.0030606745
0.0030202531
0.0029794762
0.0029389635
0.0028990634
0.0028602417
0.0028227068
0.0027862273
0.0027505003
0.0027152176
0.0026804019
0.0026459087
0.0026113048
0.0025761092
0.0025402957
0.0025039321
0.0024668657
0.0024297425
0.0023939318
0.0023597396
0.0023259623
0.0022914182
0.0022553961
0.0022174452
0.0021781674
0.0021386537
0.0020990249
0.0020588879
0.0020183798
0.0019775062
0.0019360117
0.0018939847
0.0018515211
0.0018085036
0.0017649239
0.001720857
0.0016761737
0.0016308426
0.0015849261
0.0015382968
0.0014909731
0.0014429646
0.0013941287
0.001344513
0.0012940844
0.0012426618
0.0011904757
0.0011371698
0.0010824312
0.0010265827
0.00096851528
0.00090348363
0.00084072072
0.00078796701
0.00073253294
0.00067252429
0.00061213389
0.00055324468
0.00049586116
0.00043931959
0.00038546998
0.00033127906
0.00029373326
0.00023488837
0.0003930338
-0.00027062692
0.006757315
0.0066361317
0.0064036699
0.0061393941
0.0059008242
0.0056917716
0.0054899966
0.0052871205
0.0050886088
0.004897506
0.004711285
0.0045301427
0.0043570665
0.0041973776
0.0040568788
0.0039397645
0.0038469235
0.0037757686
0.0037204398
0.0036740311
0.0036318167
0.0035912897
0.0035509843
0.0035102242
0.0034685826
0.0034260974
0.0033831978
0.0033404742
0.0032986843
0.0032580401
0.0032184289
0.0031796716
0.0031411325
0.0031021595
0.0030625011
0.0030220909
0.0029813481
0.0029408524
0.0029009561
0.0028620828
0.0028244458
0.0027878523
0.0027520139
0.002716637
0.002681703
0.0026470683
0.0026123372
0.0025770766
0.0025412509
0.0025048823
0.0024677972
0.0024305644
0.0023945176
0.0023600658
0.0023261474
0.0022914646
0.0022553789
0.0022177465
0.0021790382
0.0021399604
0.0021005333
0.0020604711
0.0020199249
0.0019790075
0.0019374971
0.0018954787
0.0018530429
0.0018100537
0.0017664994
0.0017224539
0.0016777831
0.0016324581
0.0015865427
0.0015399075
0.0014925738
0.0014445512
0.0013956961
0.0013460589
0.0012956051
0.0012441537
0.0011919395
0.0011386017
0.0010838289
0.0010279386
0.0009698551
0.00090532904
0.00084313491
0.00079047522
0.00073508868
0.00067506724
0.00061456244
0.0005554983
0.00049791988
0.0004411885
0.00038716017
0.00033281523
0.00029509285
0.00023606023
0.0003937122
-0.000268552
0.0066315549
0.0065235316
0.006322776
0.0060880807
0.0058652335
0.0056634237
0.0054684206
0.0052726164
0.0050798039
0.0048932776
0.0047117619
0.0045353466
0.0043668557
0.0042110538
0.0040731362
0.0039569154
0.0038633291
0.0037901589
0.0037322981
0.0036835858
0.00363951
0.0035975346
0.0035561779
0.0035146672
0.0034725383
0.0034297549
0.0033866678
0.0033438032
0.0033018197
0.0032609447
0.0032210766
0.0031820257
0.0031432289
0.0031040781
0.0030643155
0.003023888
0.0029831622
0.0029426777
0.0029027886
0.0028638815
0.0028261634
0.0027894681
0.0027535192
0.0027180391
0.002682986
0.0026482261
0.0026133927
0.0025780763
0.0025422099
0.0025058051
0.0024687333
0.0024315408
0.0023954714
0.0023609043
0.0023268
0.0022918811
0.0022555904
0.0022178751
0.0021791715
0.0021400619
0.0021007015
0.0020610176
0.0020208768
0.0019801897
0.0019387976
0.0018967844
0.0018543252
0.001811325
0.001767782
0.0017237642
0.001679123
0.0016338261
0.0015879345
0.0015413145
0.001493991
0.0014459728
0.0013971154
0.0013474726
0.0012970084
0.0012455417
0.0011933126
0.0011399546
0.0010851585
0.001029237
0.00097114584
0.00090710859
0.00084544754
0.00079286324
0.00073752828
0.00067751309
0.00061691653
0.00055769897
0.0004999436
0.00044303652
0.00038883884
0.00033434763
0.00029644406
0.00023721597
0.00039421382
-0.00026613535
0.0065138738
0.0064167346
0.0062423384
0.0060338858
0.0058269195
0.0056333055
0.0054452751
0.0052566132
0.0050698124
0.00488817
0.0047114477
0.0045398329
0.0043759026
0.0042239462
0.0040886237
0.0039733988
0.0038792382
0.0038042688
0.0037440551
0.0036931218
0.0036472078
0.0036037767
0.0035613311
0.0035190272
0.0034763646
0.0034332468
0.003389952
0.0033469426
0.0033047858
0.003263708
0.0032236165
0.0031843122
0.0031452915
0.0031059899
0.0030661457
0.0030257148
0.0029850192
0.0029445581
0.0029046825
0.0028657463
0.0028279472
0.0027911452
0.0027550803
0.0027194932
0.002684324
0.002649442
0.0026145022
0.0025791145
0.002543193
0.0025067515
0.002469702
0.0024325516
0.0023964401
0.0023617332
0.0023274733
0.0022924551
0.0022561311
0.0022184154
0.0021796622
0.0021404203
0.002100928
0.0020612039
0.0020210174
0.0019803157
0.0019391626
0.0018975083
0.0018553037
0.0018124218
0.0017688971
0.0017248668
0.0016802206
0.001634939
0.0015890764
0.0015424859
0.0014951913
0.0014471973
0.0013983557
0.0013487249
0.0012982664
0.001246799
0.0011945694
0.0011412044
0.0010863971
0.0010304564
0.00097236728
0.00090880147
0.00084763786
0.00079511163
0.00073983254
0.00067984234
0.00061917669
0.00055982803
0.0005019151
0.00044484811
0.000390492
0.00033586368
0.00029777502
0.00023834342
0.00039447977
-0.00026332715
0.0064033029
0.0063153061
0.0061628763
0.0059775117
0.0057861389
0.0056014526
0.0054206288
0.0052391595
0.0050586312
0.0048821631
0.004710326
0.0045435286
0.004384111
0.004235947
0.0041032281
0.0039891042
0.0038945566
0.0038180281
0.0037556805
0.0037026627
0.0036549887
0.003610149
0.0035666353
0.0035235512
0.0034803599
0.0034369092
0.0033934061
0.0033502469
0.0033079167
0.0032666315
0.0032263087
0.0031867457
0.0031474907
0.0031080232
0.0030680822
0.0030276292
0.0029869476
0.002946497
0.0029066217
0.0028676474
0.0028297623
0.0027928502
0.0027566686
0.0027209732
0.0026856878
0.0026506821
0.0026156326
0.0025801705
0.0025441971
0.0025077256
0.0024706971
0.0024335792
0.0023974174
0.0023625729
0.0023281697
0.0022930574
0.0022566833
0.0022189532
0.0021802013
0.0021409621
0.0021014708
0.0020617031
0.0020214081
0.0019805788
0.00193936
0.0018976725
0.001855448
0.0018127248
0.0017694999
0.0017257003
0.0016811605
0.0016358991
0.0015900325
0.001543444
0.0014961687
0.0014482051
0.0013993922
0.0013497893
0.0012993534
0.0012479009
0.0011956863
0.0011423282
0.0010875227
0.0010315762
0.00097349961
0.00091038634
0.0008496828
0.00079719801
0.00074197979
0.00068203379
0.00062132224
0.00056186585
0.00050381628
0.0004466069
0.00039210487
0.00033735009
0.00029907313
0.00023942873
0.00039447481
-0.00026007752
0.0062990271
0.0062188144
0.0060847555
0.0059195833
0.0057431928
0.0055679361
0.0053945583
0.0052203098
0.0050462374
0.0048751876
0.0047083307
0.0045463621
0.0043914296
0.0042470305
0.0041169424
0.0040040338
0.0039092888
0.0038314348
0.0037671651
0.003712197
0.0036628338
0.0036166208
0.0035720457
0.0035281745
0.0034844369
0.0034406302
0.0033968943
0.0033535622
0.0033110459
0.0032695457
0.0032289886
0.0031891721
0.0031496879
0.0031100576
0.0030700233
0.0030295483
0.0029888821
0.0029484452
0.0029085725
0.0028695648
0.0028315999
0.0027945827
0.0027582877
0.0027224843
0.002687083
0.0026519542
0.0026167952
0.0025812583
0.0025452336
0.0025087313
0.0024717177
0.0024346257
0.0023984152
0.0023634391
0.0023288941
0.0022936807
0.0022572479
0.002219503
0.00218076
0.0021415231
0.0021020176
0.0020622182
0.0020219057
0.0019810753
0.0019398326
0.0018980676
0.0018557285
0.0018129324
0.0017696753
0.0017258553
0.0016814499
0.0016364434
0.0015907685
0.001544267
0.0014970045
0.0014490423
0.0014002402
0.0013506595
0.0013002529
0.0012488272
0.001196642
0.0011433051
0.0010885153
0.0010325772
0.00097452428
0.00091184295
0.00085155985
0.00079909974
0.00074394768
0.00068406551
0.00062333189
0.00056379219
0.00050562834
0.00044829569
0.00039366186
0.0003387928
0.00030032511
0.00024045714
0.00039415186
-0.00025632562
0.0062003563
0.0061268492
0.0060082204
0.0058606408
0.0056984061
0.0055328542
0.0053671321
0.0052001158
0.0050326183
0.0048671907
0.0047054179
0.0045482945
0.0043978271
0.0042571726
0.0041297424
0.0040181555
0.003923392
0.003844434
0.0037784493
0.0037216714
0.0036707
0.0036231588
0.0035775411
0.0035328871
0.0034885976
0.0034444243
0.0034004446
0.0033569305
0.0033142276
0.0032725156
0.0032317287
0.0031916672
0.0031519594
0.0031121671
0.003072038
0.003031535
0.002990878
0.0029504501
0.0029105745
0.0028715301
0.0028334843
0.00279636
0.0027599491
0.0027240339
0.0026885145
0.0026532617
0.002617992
0.0025823777
0.0025462997
0.002509765
0.0024727618
0.002435692
0.0023994336
0.0023643279
0.0023296397
0.0022943225
0.0022578314
0.0022200732
0.0021813381
0.0021420975
0.0021025733
0.0020627477
0.0020224225
0.0019815811
0.0019403139
0.0018985291
0.0018561863
0.0018133742
0.0017700528
0.001726129
0.0016816565
0.0016366176
0.0015909303
0.0015445766
0.0014975309
0.0014497069
0.0014009715
0.0013513983
0.0013009961
0.0012495849
0.0011974287
0.0011441204
0.0010893575
0.0010334423
0.0009754245
0.00091315323
0.00085324903
0.000800796
0.00074571484
0.00068591606
0.00062518443
0.00056558654
0.00050733192
0.0004498966
0.00039514661
0.00034017692
0.00030151688
0.00024141374
0.00039345509
-0.00025200264
0.0061067027
0.0060390305
0.0059334229
0.00580114
0.0056521086
0.0054963296
0.0053384192
0.0051786342
0.0050177794
0.0048581351
0.004701547
0.0045492849
0.0044032637
0.0042663386
0.0041415966
0.0040314366
0.0039368302
0.0038569859
0.0037894938
0.0037310557
0.0036785666
0.0036297499
0.0035831142
0.003537685
0.0034928392
0.0034482881
0.0034040515
0.0033603429
0.0033174474
0.0032755211
0.0032345037
0.0031942004
0.0031542713
0.0031143158
0.0030740894
0.0030335532
0.0029929004
0.0029524791
0.0029125982
0.002873517
0.0028353922
0.0027981628
0.0027616371
0.00272561
0.0026899733
0.0026545977
0.0026192177
0.0025835247
0.0025473929
0.0025108257
0.0024738299
0.0024367784
0.0024004721
0.0023652383
0.002330407
0.0022949855
0.0022584358
0.0022206623
0.0021819319
0.0021426865
0.0021031453
0.0020632957
0.0020229544
0.0019820966
0.0019408066
0.0018990076
0.0018566562
0.0018138253
0.0017704827
0.0017265508
0.0016820614
0.0016369626
0.0015911826
0.0015447789
0.0014977
0.001449881
0.0014013092
0.0013519201
0.0013016129
0.0012502372
0.0011980922
0.0011447929
0.0010900496
0.0010341625
0.00097618764
0.00091430226
0.00085473376
0.00080226927
0.00074726253
0.00068756588
0.00062685986
0.00056722897
0.00050890774
0.00045139142
0.00039654215
0.00034148683
0.00030263353
0.00024228227
0.00039234905
-0.00024704348
0.0060175621
0.0059550114
0.0058604475
0.0057414577
0.0056046201
0.0054585061
0.0053084933
0.0051559244
0.0050017375
0.0048479932
0.0046966789
0.0045492946
0.004407703
0.0042744983
0.0041524792
0.0040438501
0.0039495718
0.0038690521
0.0038002569
0.0037403119
0.0036864022
0.0036363677
0.003588744
0.0035425512
0.0034971483
0.0034522111
0.0034077068
0.0033637936
0.0033207013
0.003278561
0.0032373154
0.0031967762
0.0031566312
0.0031165142
0.0030761902
0.0030356173
0.0029949649
0.0029545479
0.0029146591
0.0028755403
0.0028373378
0.0028000039
0.0027633635
0.002727223
0.0026914681
0.0026559696
0.0026204786
0.0025847047
0.0025485176
0.0025119168
0.0024749244
0.0024378865
0.0024015314
0.0023661716
0.0023311977
0.002295671
0.0022590613
0.0022212699
0.0021825422
0.0021432919
0.0021037338
0.0020638596
0.0020235003
0.0019826265
0.0019413159
0.0018995013
0.0018571366
0.0018142865
0.0017709274
0.0017269847
0.0016824773
0.0016373597
0.0015915718
0.0015451468
0.0014980057
0.001450106
0.0014014952
0.001352081
0.0013018221
0.001250609
0.0011986094
0.0011453728
0.0010906433
0.0010347654
0.00097682184
0.00091528637
0.00085600427
0.0008035069
0.00074857592
0.00068899856
0.00062834067
0.0005687013
0.00051033757
0.00045276236
0.0003978315
0.00034270658
0.00030365966
0.00024304559
0.00039076811
-0.00024138076
0.0059324998
0.0058744783
0.0057893295
0.0056818989
0.0055562402
0.0054195423
0.0052774356
0.0051320476
0.0049845189
0.0048367485
0.0046907804
0.0045482898
0.0044111132
0.0042816239
0.004162365
0.0040553685
0.003961583
0.003880592
0.0038106948
0.0037494002
0.0036941744
0.0036429869
0.0035944117
0.0035474723
0.0035015155
0.0034561869
0.0034114065
0.0033672801
0.0033239874
0.0032816335
0.0032401621
0.0031993922
0.0031590358
0.0031187583
0.0030783353
0.0030377216
0.0029970648
0.0029566488
0.0029167495
0.0028775919
0.0028393126
0.0028018753
0.0027651206
0.002728866
0.0026929928
0.0026573718
0.0026217698
0.0025859138
0.0025496704
0.0025130354
0.002476043
0.0024390143
0.0024026103
0.0023671267
0.0023320112
0.0022963783
0.0022597073
0.002221896
0.0021831695
0.0021439138
0.0021043384
0.0020644391
0.0020240613
0.0019831717
0.0019418402
0.0019000085
0.0018576301
0.0018147625
0.0017713864
0.0017274289
0.0016829032
0.0016377702
0.0015919717
0.0015455288
0.0014983723
0.0014504646
0.0014018246
0.0013523442
0.0013020215
0.0012507727
0.0011987751
0.0011456471
0.0010910632
0.0010352705
0.00097737309
0.00091614037
0.00085707641
0.00080451097
0.00074964853
0.00069020292
0.00062961296
0.00056998809
0.00051160515
0.00045399301
0.00039899848
0.00034382052
0.00030457983
0.00024368578
0.00038865364
-0.00023494527
0.0058511392
0.0057971496
0.0057200699
0.0056227065
0.0055072418
0.0053796051
0.0052453347
0.0051070674
0.0049661573
0.0048243954
0.0046838254
0.0045462408
0.0044134657
0.0042876895
0.0041712297
0.0040659649
0.0039728315
0.0038915667
0.003820765
0.0037582811
0.0037018502
0.0036495808
0.0036000965
0.0035524322
0.0035059286
0.0034602063
0.0034151431
0.0033707968
0.0033273005
0.003284734
0.0032430399
0.0032020447
0.003161482
0.0031210459
0.0030805233
0.0030398655
0.0029992004
0.0029587828
0.0029188706
0.0028796736
0.0028413189
0.0028037796
0.0027669112
0.002730542
0.0026945504
0.0026588076
0.0026230946
0.0025871549
0.002550854
0.0025141837
0.0024771877
0.0024401638
0.0024037101
0.0023681048
0.0023328486
0.0022971085
0.002260375
0.0022225418
0.0021838146
0.0021445527
0.0021049595
0.0020650351
0.0020246382
0.0019837321
0.0019423795
0.0019005301
0.0018581377
0.0018152526
0.0017718584
0.0017278856
0.0016833426
0.0016381938
0.0015923812
0.0015459209
0.0014987516
0.0014508329
0.0014021755
0.0013526833
0.0013023495
0.0012510563
0.0011989967
0.0011458326
0.0010912236
0.0010354779
0.00097772569
0.0009168603
0.0008579952
0.00080532302
0.00075050117
0.00069118361
0.00063067156
0.00057107889
0.00051269743
0.00045506916
0.00040002849
0.00034481405
0.00030537922
0.00024418528
0.00038595225
-0.00022767044
0.0057731526
0.0057227729
0.0056526456
0.0055640705
0.0054578675
0.0053388635
0.005212287
0.0050810499
0.0049466924
0.0048109382
0.004675795
0.004543123
0.0044147361
0.0042926718
0.0041790504
0.004075614
0.0039832859
0.0039019378
0.0038304251
0.0037669138
0.0037093943
0.0036561205
0.0036057754
0.003557413
0.0035103739
0.0034642589
0.0034189089
0.0033743376
0.003330636
0.0032878586
0.0032459455
0.0032047309
0.0031639675
0.0031233752
0.0030827526
0.0030420477
0.0030013703
0.0029609482
0.0029210209
0.0028817838
0.0028433548
0.0028057148
0.0027687335
0.0027322493
0.0026961393
0.0026602753
0.0026244512
0.0025884267
0.002552067
0.0025153604
0.0024783574
0.0024413339
0.0024048299
0.0023691052
0.0023337095
0.0022978616
0.0022610642
0.0022232072
0.0021844775
0.0021452084
0.0021055972
0.0020656477
0.002025231
0.0019843079
0.0019429341
0.0019010665
0.0018586597
0.0018157567
0.0017723438
0.0017283555
0.0016837951
0.0016386296
0.0015928025
0.0015463258
0.0014991425
0.0014512101
0.0014025367
0.001353034
0.0013026869
0.0012513862
0.0011993094
0.00114612
0.0010914726
0.0010356827
0.00097791281
0.00091728017
0.00085863395
0.00080592181
0.00075116608
0.00069197837
0.00063153748
0.00057197939
0.00051360991
0.00045598112
0.00040090958
0.00034567432
0.00030604395
0.0002445279
0.00038261697
-0.00021949795
0.0056982538
0.0056511228
0.0055870178
0.0055061365
0.0054083289
0.0052974828
0.0051783943
0.0050540645
0.0049261692
0.0047963901
0.0046666785
0.0045389169
0.0044149037
0.0042965507
0.0041858066
0.0040842916
0.003992916
0.0039116681
0.0038396333
0.0037752573
0.0037167707
0.0036625757
0.0036114238
0.0035623955
0.0035148365
0.0034683333
0.0034226951
0.003377896
0.0033339883
0.0032910025
0.003248875
0.003207447
0.0031664887
0.0031257431
0.0030850205
0.003044266
0.0030035727
0.0029631435
0.0029231992
0.0028839213
0.0028454192
0.0028076802
0.0027705869
0.0027339878
0.0026977596
0.002661775
0.0026258403
0.0025897299
0.0025533103
0.0025165662
0.0024795527
0.0024425254
0.0024059703
0.0023701284
0.0023345944
0.0022986381
0.0022617757
0.0022238928
0.0021851586
0.0021458817
0.0021062519
0.0020662771
0.00202584
0.0019848995
0.0019435043
0.001901618
0.0018591962
0.001816275
0.0017728432
0.0017288389
0.0016842608
0.001639078
0.0015932362
0.0015467428
0.0014995447
0.0014515986
0.0014029098
0.0013533946
0.0013030336
0.0012517265
0.0011996286
0.0011464246
0.0010917849
0.0010359839
0.00097822424
0.00091769882
0.00085913277
0.00080622245
0.00075151777
0.00069254814
0.00063223067
0.0005727228
0.00051436328
0.00045673472
0.00040163806
0.00034639264
0.00030656242
0.00024469578
0.00037861657
-0.00021038592
0.0056261916
0.0055819975
0.0055231373
0.0054490143
0.005358807
0.0052556206
0.0051437621
0.0050261835
0.004904637
0.0047807721
0.004656473
0.0045336088
0.0044139523
0.0042993091
0.0041914798
0.0040919755
0.0040016929
0.0039207212
0.0038483482
0.0037832701
0.0037239419
0.0036689146
0.0036170156
0.0035673586
0.0035192998
0.0034724167
0.0034264919
0.0033814642
0.0033373511
0.0032941603
0.0032518237
0.0032101891
0.0031690421
0.0031281467
0.0030873245
0.0030465183
0.0030058059
0.002965367
0.0029254039
0.0028860848
0.0028475109
0.0028096746
0.0027724705
0.0027357567
0.0026994106
0.0026633064
0.0026272613
0.0025910642
0.0025545835
0.0025178006
0.0024807734
0.002443738
0.0024071309
0.0023711741
0.0023355034
0.0022994382
0.0022625095
0.0022245988
0.0021858581
0.0021465724
0.0021069238
0.0020669236
0.0020264654
0.0019855069
0.0019440903
0.0019021849
0.0018597474
0.0018168078
0.0017733569
0.001729336
0.0016847398
0.0016395395
0.0015936826
0.0015471722
0.0014999587
0.0014519988
0.0014032942
0.0013537659
0.0013033915
0.0012520768
0.001199957
0.0011467403
0.0010921085
0.0010362905
0.00097860197
0.00091817985
0.00085965409
0.00080655255
0.000751765
0.00069286857
0.00063264442
0.0005732604
0.00051496912
0.00045735852
0.00040223386
0.00034697538
0.00030693429
0.00024466103
0.00037394839
-0.00020031725
0.0055567449
0.0055152166
0.0054609483
0.0053927836
0.0053094546
0.0052134232
0.0051084971
0.0049974821
0.0048821485
0.0047641122
0.0046451835
0.0045271913
0.0044118704
0.0043009337
0.0041960539
0.0040986453
0.0040095893
0.0039290626
0.0038565297
0.003790911
0.0037308699
0.0036751043
0.0036225232
0.0035722799
0.0035237459
0.0034764949
0.0034302881
0.0033850334
0.0033407172
0.0032973261
0.0032547865
0.0032129524
0.0031716235
0.0031305823
0.0030896616
0.0030488022
0.0030080678
0.0029676168
0.0029276334
0.0028882727
0.0028496284
0.0028116966
0.0027743831
0.0027375551
0.0027010918
0.0026648689