/*--------------------------------*- C++ -*----------------------------------*\
  =========                 |
  \\      /  F ield         | OpenFOAM: The Open Source CFD Toolbox
   \\    /   O peration     | Website:  https://openfoam.org
    \\  /    A nd           | Version:  12
     \\/     M anipulation  |
\*---------------------------------------------------------------------------*/
FoamFile
{
    format      ascii;
    class       volVectorField;
    location    "600";
    object      U;
}
// * * * * * * * * * * * * * * * * * * * * * * * * * * * * * * * * * * * * * //

dimensions      [0 1 -1 0 0 0 0];

internalField   nonuniform List<vector> 
7480
(
(0.98683288 0.00053298883 1.0344294e-16)
(0.97532619 0.0012563124 0)
(0.96256733 0.0017337027 0)
(0.9488304 0.0020077701 0)
(0.934348 0.002184741 0)
(0.91932377 0.0023137561 0)
(0.9038351 0.002416292 0)
(0.88790722 0.0025129086 0)
(0.87158353 0.002618318 0)
(0.85499038 0.00274001 0)
(0.83832135 0.0028783796 0)
(0.82185684 0.0030270522 0)
(0.80597792 0.0031616052 0)
(0.79114416 0.0032327485 0)
(0.77778476 0.0031632168 0)
(0.76612972 0.0029776027 0)
(0.7562359 0.0025155421 0)
(0.74790358 0.0017274169 0)
(0.74084548 0.0024563541 -8.8560947e-17)
(0.73479569 0.0015388657 -5.5858635e-17)
(0.72958187 0.0007358601 8.5797682e-18)
(0.72493297 0.00084451617 0)
(0.72065786 0.00033188446 0)
(0.71663028 9.5170829e-05 0)
(0.71275376 -8.8756018e-06 0)
(0.70899195 -5.3048998e-05 0)
(0.70533105 -3.856133e-05 0)
(0.70176774 -6.683616e-06 0)
(0.69830693 2.9353498e-05 0)
(0.69495785 6.1394148e-05 0)
(0.69172429 8.5955815e-05 0)
(0.68859737 0.00010338308 0)
(0.68555958 0.00011219068 0)
(0.68254775 0.00011398844 0)
(0.67951978 0.00011595553 0)
(0.67647066 0.00012031845 0)
(0.67341854 0.00012511985 0)
(0.67039914 0.00012762429 0)
(0.66744895 0.00012631803 0)
(0.66459361 0.00012145903 0)
(0.66184415 0.00011436305 0)
(0.65920098 0.00010634359 0)
(0.6566586 9.8339351e-05 0)
(0.65420567 9.0367984e-05 0)
(0.65183092 8.1907368e-05 0)
(0.64948527 7.0197763e-05 0)
(0.64709026 4.6896885e-05 0)
(0.64451356 -3.8850278e-06 0)
(0.64154215 -7.9792722e-05 0)
(0.63797841 -0.00014984337 0)
(0.63403079 -0.00016833814 0)
(0.63017941 -0.00015166477 0)
(0.626698 -0.0001179971 0)
(0.62364209 -9.1972465e-05 0)
(0.62091644 -7.3327033e-05 0)
(0.61841251 -5.8088856e-05 0)
(0.61604457 -4.3638533e-05 0)
(0.61373979 -3.032951e-05 0)
(0.61150992 -1.91269e-05 0)
(0.60934091 -1.0073158e-05 0)
(0.60722378 -2.623418e-06 0)
(0.60514722 3.7364016e-06 0)
(0.60310092 9.0062164e-06 0)
(0.60107782 1.319653e-05 0)
(0.59907229 1.6404506e-05 0)
(0.59707987 1.8729384e-05 0)
(0.59509869 2.0275492e-05 0)
(0.59312778 2.1177308e-05 0)
(0.59116552 2.1572025e-05 0)
(0.58920989 2.1563857e-05 0)
(0.58725901 2.1233864e-05 0)
(0.58531115 2.0639639e-05 0)
(0.5833648 1.9820869e-05 0)
(0.58141861 1.8820297e-05 0)
(0.57947111 1.7670831e-05 0)
(0.57752098 1.6398838e-05 0)
(0.57556688 1.5125669e-05 0)
(0.57360738 1.3955664e-05 0)
(0.57164133 1.2831006e-05 0)
(0.56966748 1.1710943e-05 0)
(0.5676848 1.0566055e-05 0)
(0.56569301 9.3901629e-06 0)
(0.56369313 8.1734727e-06 0)
(0.56170045 7.2562953e-06 0)
(0.55986717 1.7926236e-05 0)
(0.55934259 0.00027241424 0)
(0.57008885 0.00038258635 0)
(0.57556394 0.00035067574 0)
(0.57885821 0.00029534002 0)
(0.58009789 0.00023251925 0)
(0.58027327 0.00018250278 0)
(0.57985569 0.00014385393 0)
(0.57910516 0.00011360883 0)
(0.57815092 9.0208973e-05 0)
(0.57707205 7.2860019e-05 0)
(0.57589827 6.0354058e-05 0)
(0.57469752 5.1775337e-05 0)
(0.57335779 8.235301e-05 6.8626331e-20)
(0.5722102 3.7947135e-05 -1.4905868e-19)
(0.56992398 5.9847253e-05 -1.0537822e-17)
(0.99589767 0.0022870912 0)
(0.99632256 0.0034463343 0)
(0.99686914 0.0040223218 0)
(0.99714148 0.0040892862 0)
(0.99714654 0.0041213291 0)
(0.99700015 0.0041174463 0)
(0.99673526 0.0040959189 0)
(0.99631175 0.0040498632 0)
(0.99567649 0.0039742871 0)
(0.9947353 0.0038558415 0)
(0.99336123 0.0036775808 0)
(0.99137889 0.0034252387 0)
(0.9885597 0.0030913937 0)
(0.98464589 0.0026890389 0)
(0.97942086 0.0022610074 0)
(0.97281179 0.0018609846 0)
(0.96488595 0.0016395395 0)
(0.95584978 0.001398377 0)
(0.94595189 0.001233685 0)
(0.93544097 0.0012756569 0)
(0.92457401 0.0012089264 0)
(0.91371277 0.0010872021 0)
(0.90310173 0.0010752687 0)
(0.89293493 0.0010544508 0)
(0.88333266 0.0010065133 0)
(0.8743466 0.00093776988 0)
(0.86599785 0.00085114758 0)
(0.85826827 0.00076799066 0)
(0.8511025 0.00069347401 0)
(0.84442086 0.00062916396 0)
(0.83813807 0.00057676231 0)
(0.83217837 0.00053689167 0)
(0.82646914 0.00051005658 0)
(0.82099014 0.00049369221 0)
(0.81573357 0.0004807132 0)
(0.81068714 0.00046579886 0)
(0.80583272 0.00044737793 0)
(0.80114749 0.00042595155 0)
(0.79660758 0.00040253986 0)
(0.79219693 0.0003785311 0)
(0.78790736 0.00035527569 0)
(0.78373624 0.00033350455 0)
(0.77968203 0.00031357844 0)
(0.77574202 0.00029560597 0)
(0.77191369 0.0002804628 0)
(0.76820589 0.00027065546 0)
(0.76463965 0.00027021946 0)
(0.76126171 0.00028404256 0)
(0.75816206 0.00031084257 0)
(0.75540944 0.0003336214 0)
(0.75283874 0.00033139074 0)
(0.75018111 0.00030549636 0)
(0.74733397 0.00026866881 0)
(0.74432688 0.00023575238 0)
(0.74125219 0.00021151471 0)
(0.73818133 0.00019508118 0)
(0.73514702 0.0001839382 0)
(0.73215586 0.00017479009 0)
(0.729215 0.00016576365 0)
(0.72632848 0.00015737134 0)
(0.72349746 0.00014967384 0)
(0.7207202 0.00014270567 0)
(0.7179938 0.00013636104 0)
(0.71531578 0.00013056077 0)
(0.71268311 0.00012527425 0)
(0.71009282 0.0001203936 0)
(0.70754369 0.00011580072 0)
(0.70503467 0.00011147562 0)
(0.70256429 0.0001074246 0)
(0.70013095 0.00010362921 0)
(0.69773319 0.00010007588 0)
(0.69536958 9.6743398e-05 0)
(0.69303882 9.3603563e-05 0)
(0.69073978 9.065151e-05 0)
(0.6884713 8.7872783e-05 0)
(0.68623233 8.5251513e-05 0)
(0.68402187 8.277784e-05 0)
(0.68183886 8.0413118e-05 0)
(0.67968245 7.814558e-05 0)
(0.67755159 7.6001532e-05 0)
(0.67544532 7.3947884e-05 0)
(0.67336307 7.1964218e-05 0)
(0.67130395 6.9923376e-05 0)
(0.66926851 6.6450812e-05 0)
(0.66725515 4.3743963e-05 0)
(0.66499986 -0.00013181786 0)
(0.66050492 -0.00016574164 0)
(0.65866665 -8.6236237e-05 0)
(0.65725441 -4.411249e-05 0)
(0.6559467 -9.8357194e-06 0)
(0.65452023 8.771234e-06 0)
(0.65297373 1.8642469e-05 0)
(0.65135125 2.3676725e-05 0)
(0.64968642 2.6488669e-05 0)
(0.64800455 2.8150302e-05 0)
(0.64630135 2.8706466e-05 0)
(0.64462635 2.9137826e-05 0)
(0.64283841 3.1353668e-05 0)
(0.64130829 3.1353795e-05 0)
(0.63850187 3.3653329e-05 0)
(0.99617322 0.0021847928 0)
(0.99654092 0.0028425386 0)
(0.99711241 0.0030009901 0)
(0.99757807 0.0029794761 0)
(0.99788964 0.0029839907 0)
(0.99814087 0.0030080511 0)
(0.9983798 0.0030361932 0)
(0.99860532 0.0030651201 0)
(0.99881343 0.0030963426 0)
(0.99900697 0.0031282771 0)
(0.99918862 0.0031570016 0)
(0.9993532 0.0031797704 0)
(0.99948495 0.0031941882 0)
(0.99955928 0.0032011615 0)
(0.99954115 0.0032067037 0)
(0.99938954 0.0032095958 0)
(0.99904816 0.0031958315 0)
(0.99844746 0.0031799633 0)
(0.99752391 0.0031067285 0)
(0.996185 0.0030046206 0)
(0.99427226 0.0029139569 0)
(0.99161386 0.0028060814 0)
(0.98811378 0.0026820003 0)
(0.98371034 0.0025523368 0)
(0.97839759 0.0024115701 0)
(0.97221695 0.0022721256 0)
(0.96523416 0.0021260084 0)
(0.95765635 0.0019651884 0)
(0.94968712 0.0018055602 0)
(0.94152719 0.0016516343 0)
(0.93336624 0.0015052601 0)
(0.92536073 0.0013678827 0)
(0.91762854 0.0012458624 0)
(0.91023797 0.0011445465 0)
(0.90320661 0.0010606523 0)
(0.89651306 0.00098977984 0)
(0.89011638 0.00092879899 0)
(0.88396858 0.00087517921 0)
(0.87802953 0.00082649999 0)
(0.87227271 0.00078073307 0)
(0.86668276 0.00073673604 0)
(0.86125126 0.00069442041 0)
(0.8559689 0.00065427922 0)
(0.85082693 0.00061638299 0)
(0.84582175 0.00058150151 0)
(0.84096539 0.00055125407 0)
(0.8362732 0.00052725219 0)
(0.83176846 0.00051257232 0)
(0.82748642 0.00050549271 0)
(0.82345196 0.00049979487 0)
(0.81961978 0.00048433024 0)
(0.815894 0.00045905071 0)
(0.81220151 0.00042980669 0)
(0.80850656 0.00040162856 0)
(0.80481274 0.00037634734 0)
(0.80114038 0.00035420352 0)
(0.79750852 0.00033562056 0)
(0.79392993 0.00031893348 0)
(0.79041324 0.0003028334 0)
(0.7869617 0.00028783352 0)
(0.78357535 0.00027387831 0)
(0.78025392 0.00026100395 0)
(0.77699682 0.00024912807 0)
(0.77380326 0.00023812163 0)
(0.77067088 0.00022791268 0)
(0.76759748 0.00021831522 0)
(0.76458223 0.00020918045 0)
(0.7616234 0.00020050262 0)
(0.75871903 0.0001922852 0)
(0.75586741 0.00018449489 0)
(0.75306704 0.00017711241 0)
(0.75031639 0.00017010944 0)
(0.74761405 0.00016344605 0)
(0.7449587 0.00015711371 0)
(0.742349 0.00015108938 0)
(0.73978377 0.00014534857 0)
(0.73726186 0.00013986261 0)
(0.73478207 0.00013459684 0)
(0.7323434 0.00012956396 0)
(0.72994468 0.00012477461 0)
(0.72758475 0.00012017531 0)
(0.72526282 0.00011575305 0)
(0.72297739 0.00011150594 0)
(0.72072477 0.00010623783 0)
(0.71847375 9.0608204e-05 0)
(0.7158589 7.6278985e-06 0)
(0.71115426 -5.1215694e-05 0)
(0.70800881 -2.1943497e-05 0)
(0.70546223 1.036078e-05 0)
(0.70329911 3.5977376e-05 0)
(0.70124398 5.0141767e-05 0)
(0.69921088 5.7001146e-05 0)
(0.69718096 5.9750932e-05 0)
(0.6951565 6.0269283e-05 0)
(0.69314694 5.9578901e-05 0)
(0.69113878 5.8011821e-05 0)
(0.68917659 5.7282274e-05 0)
(0.68710868 5.5369184e-05 0)
(0.68533672 6.0301434e-05 0)
(0.68216208 5.4885387e-05 4.0181858e-20)
(0.99636938 0.0020428908 0)
(0.99666471 0.002645057 0)
(0.9971767 0.0029790213 0)
(0.99763007 0.0031498192 0)
(0.99794946 0.0032869896 0)
(0.99820801 0.0034021797 0)
(0.99845409 0.0034846207 0)
(0.99869052 0.003539824 0)
(0.99891398 0.0035744977 0)
(0.99912846 0.0035929804 0)
(0.9993388 0.003582944 0)
(0.9995455 0.0035474355 0)
(0.99974219 0.0034781731 0)
(0.999919 0.0033744213 0)
(1.0000649 0.0032367617 0)
(1.0001759 0.0030789995 0)
(1.000249 0.0029083347 0)
(1.0002855 0.0027511143 0)
(1.0003022 0.0026330751 0)
(1.0003009 0.002533439 0)
(1.0002718 0.0024703863 0)
(1.0002098 0.0024392264 0)
(1.0000899 0.0024161887 0)
(0.99987298 0.0024013594 0)
(0.9995102 0.0023919973 0)
(0.99892809 0.0023808578 0)
(0.99804583 0.0023652409 0)
(0.99668836 0.0023435037 0)
(0.99471716 0.0023114806 0)
(0.9920216 0.0022671667 0)
(0.98852414 0.0022114732 0)
(0.98419874 0.0021494867 0)
(0.97906874 0.0020731716 0)
(0.97328253 0.0019764306 0)
(0.96700615 0.0018686495 0)
(0.96041684 0.0017545854 0)
(0.95368193 0.0016379072 0)
(0.94694104 0.0015231095 0)
(0.94029594 0.0014167016 0)
(0.93380133 0.0013217395 0)
(0.92747232 0.0012371165 0)
(0.92129978 0.0011617464 0)
(0.91526787 0.0010946155 0)
(0.90936638 0.0010340063 0)
(0.90359171 0.00097816034 0)
(0.8979492 0.00092620965 0)
(0.89245019 0.00087882981 0)
(0.88710934 0.00083715863 0)
(0.88194033 0.00080284208 0)
(0.87695064 0.00077325994 0)
(0.8721306 0.00074263336 0)
(0.86745203 0.00070808583 0)
(0.86288696 0.00067125733 0)
(0.85841098 0.00063468962 0)
(0.85400927 0.00059999928 0)
(0.84967748 0.00056789499 0)
(0.84541876 0.00053909684 0)
(0.84123728 0.00051240719 0)
(0.83713412 0.00048666456 0)
(0.83310881 0.00046234274 0)
(0.82916153 0.00043961239 0)
(0.82529232 0.00041854131 0)
(0.82150034 0.00039887543 0)
(0.81778462 0.00038045627 0)
(0.81414278 0.00036322914 0)
(0.81057295 0.0003469644 0)
(0.8070741 0.00033150024 0)
(0.80364364 0.0003168424 0)
(0.80027931 0.00030297145 0)
(0.79697923 0.00028982405 0)
(0.79374174 0.00027736505 0)
(0.79056509 0.00026555151 0)
(0.78744759 0.00025432498 0)
(0.78438767 0.00024366642 0)
(0.78138373 0.00023353823 0)
(0.77843429 0.00022390128 0)
(0.77553796 0.00021475194 0)
(0.7726933 0.00020605391 0)
(0.76989905 0.00019777123 0)
(0.76715383 0.00018990576 0)
(0.76445627 0.0001823811 0)
(0.76180539 0.00017517672 0)
(0.7591996 0.00016829858 0)
(0.75663556 0.00016097732 0)
(0.75408995 0.00014634706 0)
(0.75134326 7.6635885e-05 0)
(0.74758606 1.8610062e-05 0)
(0.74440505 3.3622739e-05 0)
(0.74158744 5.5252374e-05 0)
(0.73907435 7.5180108e-05 0)
(0.7366985 8.712838e-05 0)
(0.73438039 9.3081098e-05 0)
(0.73208924 9.5117035e-05 0)
(0.72981773 9.4623069e-05 0)
(0.72757064 9.2930304e-05 0)
(0.72533253 9.0447283e-05 0)
(0.723147 8.9441842e-05 0)
(0.72085845 8.6147064e-05 0)
(0.71889332 9.6075252e-05 0)
(0.71540571 8.1700077e-05 -3.3224172e-20)
(0.99655568 0.0019822371 0)
(0.9968034 0.0025641755 0)
(0.99724925 0.0029217751 0)
(0.99766152 0.0030774844 0)
(0.99796301 0.0031644225 0)
(0.99820931 0.0032259871 0)
(0.99844594 0.0032634621 0)
(0.99867668 0.0032823524 0)
(0.99889718 0.0032905851 0)
(0.99910996 0.0032875973 0)
(0.99931939 0.003273011 0)
(0.99952563 0.0032394915 0)
(0.99972295 0.0031828308 0)
(0.99990296 0.0031032721 0)
(1.0000567 0.0030067591 0)
(1.0001788 0.002906485 0)
(1.0002672 0.0028101549 0)
(1.0003254 0.0027338805 0)
(1.0003702 0.0026867075 0)
(1.0004073 0.0026484605 0)
(1.0004372 0.0026226142 0)
(1.0004687 0.0026034802 0)
(1.0005008 0.0025808733 0)
(1.0005313 0.0025595488 0)
(1.0005607 0.0025376371 0)
(1.0005854 0.0025149559 0)
(1.0005999 0.0024918456 0)
(1.0005941 0.0024677868 0)
(1.0005514 0.0024429933 0)
(1.000446 0.0024177977 0)
(1.0002372 0.0023920675 0)
(0.99986297 0.0023642736 0)
(0.9992497 0.0023343484 0)
(0.99824536 0.0023023691 0)
(0.99671484 0.0022652287 0)
(0.99454092 0.0022203343 0)
(0.99164299 0.0021675296 0)
(0.98798607 0.0021050508 0)
(0.98361275 0.0020257199 0)
(0.97864783 0.0019312961 0)
(0.97324029 0.001829951 0)
(0.96754332 0.0017253205 0)
(0.96169543 0.001621628 0)
(0.95580408 0.0015242789 0)
(0.94993175 0.0014355301 0)
(0.94410587 0.0013551408 0)
(0.93833926 0.0012831258 0)
(0.93264479 0.0012195123 0)
(0.92703991 0.0011638033 0)
(0.92154205 0.0011133791 0)
(0.91616045 0.0010639031 0)
(0.91089377 0.0010127629 0)
(0.90573519 0.0009609751 0)
(0.9006767 0.00091071591 0)
(0.89571204 0.00086333981 0)
(0.89083714 0.00081920944 0)
(0.88605213 0.00077867663 0)
(0.88135678 0.00074051674 0)
(0.87674743 0.00070370789 0)
(0.87222186 0.00066877885 0)
(0.86778093 0.00063586395 0)
(0.86342523 0.00060502764 0)
(0.85915412 0.00057605163 0)
(0.85496652 0.00054879312 0)
(0.85086123 0.00052320263 0)
(0.84683657 0.00049902481 0)
(0.84289043 0.00047606423 0)
(0.83902088 0.00045431439 0)
(0.83522598 0.0004337365 0)
(0.83150392 0.00041423471 0)
(0.82785297 0.00039575445 0)
(0.82427137 0.00037823556 0)
(0.82075738 0.00036159884 0)
(0.81730933 0.00034581208 0)
(0.81392554 0.00033082082 0)
(0.81060441 0.00031656899 0)
(0.80734442 0.00030303897 0)
(0.804144 0.00029017778 0)
(0.80100175 0.00027794194 0)
(0.79791615 0.0002663289 0)
(0.79488573 0.00025524158 0)
(0.79190938 0.00024465516 0)
(0.78898551 0.00023462126 0)
(0.78611171 0.00022461813 0)
(0.78327376 0.00020882538 0)
(0.78035376 0.00014574834 0)
(0.77700209 9.1656985e-05 0)
(0.77385444 9.5520403e-05 0)
(0.77091221 0.00010934378 0)
(0.76817834 0.00012377246 0)
(0.7655669 0.00013265708 0)
(0.76302006 0.00013656607 0)
(0.7605089 0.00013685003 0)
(0.75802301 0.00013489655 0)
(0.75556533 0.00013200743 0)
(0.7531201 0.00012801558 0)
(0.75073098 0.00012624117 0)
(0.74824009 0.00012084389 4.9922671e-20)
(0.74609708 0.00013670773 0)
(0.74231349 0.00011087851 0)
(0.99672899 0.0019374381 0)
(0.99693662 0.0024695936 0)
(0.99732026 0.0028117456 0)
(0.9976943 0.0029724868 0)
(0.99798451 0.003071571 0)
(0.99822686 0.003156857 0)
(0.99845963 0.0032253364 0)
(0.99868708 0.0032755305 0)
(0.99890433 0.0033101216 0)
(0.9991134 0.0033369501 0)
(0.99931816 0.0033348002 0)
(0.99951835 0.0033176595 0)
(0.9997094 0.0032741756 0)
(0.9998837 0.0032056933 0)
(1.0000331 0.003116985 0)
(1.0001533 0.0030181697 0)
(1.0002423 0.0029157886 0)
(1.0003035 0.00282301 0)
(1.0003508 0.0027473886 0)
(1.0003903 0.0026762976 0)
(1.0004239 0.0026176156 0)
(1.0004593 0.0025704182 0)
(1.0004966 0.0025279232 0)
(1.0005347 0.0024934502 0)
(1.0005746 0.0024641367 0)
(1.0006158 0.0024379884 0)
(1.0006576 0.0024139045 0)
(1.0006986 0.0023905519 0)
(1.0007376 0.0023685449 0)
(1.0007741 0.0023481871 0)
(1.0008069 0.0023296244 0)
(1.0008343 0.0023137622 0)
(1.0008528 0.00230112 0)
(1.0008547 0.0022907521 0)
(1.000825 0.0022809253 0)
(1.0007365 0.0022695712 0)
(1.0005438 0.002254851 0)
(1.0001827 0.0022351322 0)
(0.99954628 0.0022105568 0)
(0.99848863 0.0021807051 0)
(0.99687916 0.0021437772 0)
(0.9946174 0.0020999659 0)
(0.99164531 0.002047509 0)
(0.98798495 0.0019806803 0)
(0.98373771 0.0019011967 0)
(0.9790341 0.0018151876 0)
(0.97401273 0.001725796 0)
(0.96879916 0.0016388122 0)
(0.96348924 0.0015595761 0)
(0.95814353 0.0014871656 0)
(0.95279282 0.0014183038 0)
(0.94745368 0.0013505761 0)
(0.94213914 0.0012841526 0)
(0.93686337 0.0012202131 0)
(0.93163944 0.0011595996 0)
(0.92647556 0.0011024756 0)
(0.92137798 0.00104909 0)
(0.91635133 0.00099843654 0)
(0.91139724 0.00094967028 0)
(0.90651653 0.00090322561 0)
(0.90171117 0.00085916811 0)
(0.89698337 0.0008176027 0)
(0.89233473 0.0007783476 0)
(0.88776602 0.00074126515 0)
(0.8832784 0.00070630955 0)
(0.87887151 0.00067322557 0)
(0.87454352 0.00064181012 0)
(0.87029389 0.00061203255 0)
(0.86612175 0.00058382375 0)
(0.86202596 0.00055706591 0)
(0.85800539 0.00053169135 0)
(0.8540587 0.00050762385 0)
(0.85018455 0.00048476376 0)
(0.84638159 0.00046306599 0)
(0.84264835 0.00044245932 0)
(0.83898347 0.00042287041 0)
(0.83538554 0.00040426908 0)
(0.8318531 0.0003865856 0)
(0.82838483 0.00036976569 0)
(0.82497925 0.00035380082 0)
(0.82163494 0.00033857207 0)
(0.81835079 0.0003240484 0)
(0.81512532 0.00031031217 0)
(0.81195694 0.00029698431 0)
(0.80883734 0.00027880617 0)
(0.80570317 0.00021892746 0)
(0.80240484 0.00016525747 0)
(0.79919137 0.00016179304 0)
(0.79610261 0.00016937885 0)
(0.79315909 0.000178873 0)
(0.79032129 0.00018437108 0)
(0.78755073 0.00018584423 0)
(0.78482321 0.00018418576 0)
(0.78212695 0.0001804253 0)
(0.77946319 0.00017584858 0)
(0.77681556 0.00017005874 0)
(0.77422761 0.00016734188 0)
(0.77153914 0.00015927542 0)
(0.76922258 0.00018211817 3.5545691e-20)
(0.76514861 0.00014270776 0)
(0.99688911 0.0018995613 0)
(0.99706443 0.0023817328 0)
(0.99739508 0.0027142939 0)
(0.99773447 0.0028929898 0)
(0.99801257 0.0030080929 0)
(0.998249 0.0031032326 0)
(0.99847511 0.0031758914 0)
(0.99869654 0.0032238646 0)
(0.99890871 0.0032529428 0)
(0.99911332 0.0032654139 0)
(0.99931364 0.003261222 0)
(0.99950868 0.0032361095 0)
(0.99969475 0.0031878498 0)
(0.99986494 0.0031172329 0)
(1.0000119 0.0030285888 0)
(1.0001313 0.0029309752 0)
(1.0002216 0.0028316031 0)
(1.000286 0.0027429577 0)
(1.0003363 0.0026725866 0)
(1.0003782 0.0026120008 0)
(1.0004144 0.0025666729 0)
(1.0004516 0.0025340642 0)
(1.00049 0.0025067328 0)
(1.0005289 0.0024851563 0)
(1.0005696 0.0024662406 0)
(1.0006116 0.0024481738 0)
(1.0006543 0.0024299712 0)
(1.0006971 0.0024108476 0)
(1.000739 0.002391505 0)
(1.0007796 0.0023722348 0)
(1.0008189 0.0023533312 0)
(1.0008568 0.0023356723 0)
(1.0008944 0.002319239 0)
(1.000932 0.0023033221 0)
(1.0009694 0.002287536 0)
(1.0010063 0.0022712807 0)
(1.0010408 0.0022544421 0)
(1.0010698 0.0022376704 0)
(1.0010868 0.0022213102 0)
(1.0010794 0.0022050498 0)
(1.0010244 0.0021884051 0)
(1.0008815 0.0021704014 0)
(1.0005898 0.0021499737 0)
(1.0000429 0.0021269681 0)
(0.99909708 0.0021004483 0)
(0.99762046 0.0020685374 0)
(0.99551369 0.0020318248 0)
(0.99272198 0.001985145 0)
(0.98930313 0.0019258653 0)
(0.98536014 0.0018587147 0)
(0.98102004 0.0017833654 0)
(0.97640652 0.0017022838 0)
(0.97161765 0.0016212857 0)
(0.96671809 0.0015435838 0)
(0.96174601 0.0014705435 0)
(0.95672654 0.0014021829 0)
(0.95168321 0.0013379958 0)
(0.94663888 0.0012764471 0)
(0.94161099 0.0012167087 0)
(0.93661113 0.0011592922 0)
(0.93164816 0.001104342 0)
(0.92673015 0.0010520683 0)
(0.92186439 0.0010023662 0)
(0.9170565 0.00095512359 0)
(0.91231147 0.00091033932 0)
(0.90763274 0.00086782205 0)
(0.90302192 0.00082737372 0)
(0.89848067 0.00078893636 0)
(0.89401019 0.00075243657 0)
(0.88961128 0.00071774747 0)
(0.88528442 0.00068479681 0)
(0.88102962 0.00065349896 0)
(0.87684668 0.00062373893 0)
(0.8727352 0.00059546314 0)
(0.86869457 0.00056858692 0)
(0.86472409 0.00054302224 0)
(0.86082295 0.00051872998 0)
(0.85699017 0.00049562572 0)
(0.85322485 0.00047364318 0)
(0.84952586 0.00045276792 0)
(0.84589206 0.00043285899 0)
(0.84232261 0.00041387831 0)
(0.83881627 0.00039592653 0)
(0.83537219 0.00037870283 0)
(0.83198546 0.00035715027 0)
(0.82861962 0.00029704082 0)
(0.82521016 0.00024190046 0)
(0.82185565 0.00023335971 0)
(0.81858897 0.00023583369 0)
(0.81543091 0.00024075 0)
(0.81236603 0.0002426225 0)
(0.80937049 0.00024124415 0)
(0.80642539 0.00023722476 0)
(0.80351865 0.00023130901 0)
(0.80064986 0.00022476691 0)
(0.79780175 0.00021692545 0)
(0.79501736 0.00021307841 0)
(0.79213385 0.00020189284 0)
(0.7896461 0.00023269316 3.4331789e-20)
(0.78528582 0.000177639 0)
(0.99703743 0.0018683982 0)
(0.99718727 0.002305485 0)
(0.99747283 0.0026268276 0)
(0.99777921 0.0028162864 0)
(0.99804296 0.0029391424 0)
(0.99827196 0.003037033 0)
(0.9984911 0.0031123997 0)
(0.99870659 0.0031641593 0)
(0.99891451 0.0031972552 0)
(0.99911534 0.0032163097 0)
(0.99931144 0.0032177802 0)
(0.99950199 0.0031999149 0)
(0.99968359 0.0031605398 0)
(0.99985003 0.0030999572 0)
(0.99999466 0.0030220872 0)
(1.0001136 0.002934862 0)
(1.0002051 0.0028453526 0)
(1.0002724 0.0027644633 0)
(1.0003253 0.0026984454 0)
(1.0003693 0.0026409873 0)
(1.0004077 0.0025955781 0)
(1.000446 0.0025597008 0)
(1.0004849 0.002527562 0)
(1.0005242 0.0024998114 0)
(1.000565 0.0024745356 0)
(1.0006069 0.0024505592 0)
(1.0006495 0.0024272408 0)
(1.0006919 0.002404025 0)
(1.0007335 0.002381412 0)
(1.000774 0.002359686 0)
(1.0008135 0.0023391251 0)
(1.0008522 0.0023203687 0)
(1.0008909 0.0023033533 0)
(1.0009301 0.0022875858 0)
(1.0009704 0.0022727168 0)
(1.0010114 0.0022579057 0)
(1.0010525 0.002242663 0)
(1.0010929 0.0022269221 0)
(1.0011321 0.0022103637 0)
(1.0011696 0.0021931221 0)
(1.0012044 0.0021758627 0)
(1.0012359 0.0021592258 0)
(1.0012621 0.0021439254 0)
(1.0012768 0.0021301084 0)
(1.0012671 0.0021172255 0)
(1.0012073 0.0021044907 0)
(1.0010495 0.0020905902 0)
(1.0007258 0.0020757669 0)
(1.0000971 0.0020600751 0)
(0.99902388 0.0020401868 0)
(0.9973862 0.0020127814 0)
(0.99510259 0.001972072 0)
(0.99219087 0.0019155351 0)
(0.98873577 0.0018484057 0)
(0.98485433 0.001774871 0)
(0.98066533 0.0016995103 0)
(0.97626424 0.0016266763 0)
(0.9717142 0.0015563628 0)
(0.96705366 0.0014883016 0)
(0.9623113 0.0014228811 0)
(0.95751439 0.0013597775 0)
(0.95268782 0.0012989185 0)
(0.9478513 0.0012403051 0)
(0.9430198 0.0011839589 0)
(0.93820607 0.001130028 0)
(0.93342107 0.0010784624 0)
(0.92867328 0.0010291358 0)
(0.92396936 0.00098203272 0)
(0.91931477 0.00093711038 0)
(0.91471408 0.00089425721 0)
(0.910171 0.00085341998 0)
(0.90568829 0.00081452282 0)
(0.90126811 0.00077745022 0)
(0.89691212 0.00074215235 0)
(0.8926214 0.00070854066 0)
(0.88839675 0.00067652025 0)
(0.88423864 0.00064604993 0)
(0.88014717 0.00061703564 0)
(0.87612239 0.0005894029 0)
(0.87216397 0.00056313479 0)
(0.86827148 0.00053807053 0)
(0.86444466 0.00051416672 0)
(0.86068283 0.00049153695 0)
(0.85698587 0.00046992372 0)
(0.85335102 0.00044427487 0)
(0.84975466 0.00038184378 0)
(0.84616889 0.00032421334 0)
(0.84263594 0.00031136554 0)
(0.83917578 0.00030929564 0)
(0.83580374 0.00030982265 0)
(0.83251568 0.00030787181 0)
(0.82929812 0.00030325275 0)
(0.82613741 0.00029644188 0)
(0.82302216 0.00028799113 0)
(0.81995084 0.00027916784 0)
(0.81690519 0.00026898041 0)
(0.8139276 0.0002637816 0)
(0.81085232 0.00024904015 -2.0648365e-20)
(0.80819622 0.00028873246 0)
(0.80355457 0.00021596943 1.0817276e-20)
(0.99717525 0.0018415966 0)
(0.99730486 0.0022381406 0)
(0.99755202 0.0025452581 0)
(0.99782746 0.0027403447 0)
(0.99807594 0.0028700026 0)
(0.99829707 0.0029723308 0)
(0.99850931 0.0030528945 0)
(0.99871866 0.0031102038 0)
(0.99892183 0.0031478393 0)
(0.99911828 0.0031697412 0)
(0.99930968 0.0031733743 0)
(0.99949543 0.0031576906 0)
(0.99967233 0.0031210091 0)
(0.9998348 0.0030638013 0)
(0.99997694 0.0029899144 0)
(1.000095 0.0029064886 0)
(1.0001876 0.0028204568 0)
(1.0002574 0.0027415409 0)
(1.0003129 0.0026753106 0)
(1.0003592 0.0026176983 0)
(1.0003997 0.0025714416 0)
(1.0004396 0.0025345957 0)
(1.0004796 0.0025026938 0)
(1.0005198 0.0024759583 0)
(1.0005612 0.002452552 0)
(1.0006035 0.0024310516 0)
(1.0006463 0.0024105346 0)
(1.000689 0.002390262 0)
(1.0007307 0.0023704329 0)
(1.0007714 0.0023512628 0)
(1.000811 0.0023329608 0)
(1.0008498 0.0023160288 0)
(1.0008885 0.0023004679 0)
(1.0009275 0.002285852 0)
(1.0009674 0.0022717535 0)
(1.0010079 0.0022573647 0)
(1.0010488 0.0022422128 0)
(1.0010895 0.0022262545 0)
(1.0011296 0.0022094062 0)
(1.0011689 0.0021920633 0)
(1.0012071 0.0021748808 0)
(1.001244 0.002158231 0)
(1.0012797 0.0021423236 0)
(1.0013143 0.0021269433 0)
(1.0013476 0.0021121283 0)
(1.0013788 0.0020982755 0)
(1.001407 0.0020861115 0)
(1.0014296 0.0020765537 0)
(1.0014386 0.0020696625 0)
(1.0014155 0.002063504 0)
(1.0013203 0.0020540699 0)
(1.0010878 0.0020389555 0)
(1.0005893 0.0020186296 0)
(0.99967828 0.0019932159 0)
(0.99822838 0.0019631853 0)
(0.99615422 0.0019240337 0)
(0.99347834 0.0018729518 0)
(0.99028124 0.0018127736 0)
(0.98667381 0.0017457264 0)
(0.98276378 0.0016765355 0)
(0.97863296 0.0016084111 0)
(0.97433403 0.0015422195 0)
(0.9699031 0.0014782083 0)
(0.96537209 0.0014161007 0)
(0.96077119 0.0013557627 0)
(0.95612583 0.0012972362 0)
(0.95145575 0.0012405696 0)
(0.946777 0.0011859158 0)
(0.94210329 0.0011333565 0)
(0.93744615 0.001082865 0)
(0.93281501 0.0010344624 0)
(0.92821763 0.00098812452 0)
(0.92366049 0.00094376874 0)
(0.9191489 0.00090137685 0)
(0.9146871 0.00086087738 0)
(0.9102786 0.00082218584 0)
(0.90592619 0.00078527322 0)
(0.90163201 0.0007500469 0)
(0.89739781 0.00071643382 0)
(0.89322479 0.00068442274 0)
(0.88911379 0.00065383892 0)
(0.88506569 0.00062463905 0)
(0.88108079 0.00059695022 0)
(0.87716001 0.00057054051 0)
(0.87330217 0.00054028058 0)
(0.86949004 0.00047441432 0)
(0.86571195 0.00041350557 0)
(0.86199049 0.00039636105 0)
(0.85833637 0.00038990603 0)
(0.85475878 0.00038610376 0)
(0.85125789 0.00038016541 0)
(0.84782708 0.00037198369 0)
(0.84445748 0.00036200487 0)
(0.84113932 0.00035065971 0)
(0.83787064 0.00033923588 0)
(0.83463248 0.00032640601 0)
(0.83146662 0.00031963501 0)
(0.82820429 0.00030089711 0)
(0.82538385 0.00035043852 3.409611e-20)
(0.82046726 0.00025787339 0)
(0.99730381 0.0018181959 0)
(0.9974172 0.00217853 0)
(0.99763181 0.0024698559 0)
(0.99787887 0.002667372 0)
(0.99811168 0.002803034 0)
(0.99832433 0.0029094584 0)
(0.99852934 0.0029939081 0)
(0.99873208 0.00305509 0)
(0.99892992 0.0030957182 0)
(0.99912167 0.0031195385 0)
(0.99930833 0.003125617 0)
(0.99948936 0.0031129915 0)
(0.99966173 0.0030804785 0)
(0.99982044 0.0030287163 0)
(0.99996018 0.0029612885 0)
(1.0000775 0.0028845158 0)
(1.0001709 0.0028049819 0)
(1.0002431 0.002731298 0)
(1.000301 0.0026684441 0)
(1.0003495 0.0026139691 0)
(1.0003922 0.0025698916 0)
(1.0004335 0.0025344401 0)
(1.0004746 0.0025038725 0)
(1.0005156 0.0024779123 0)
(1.0005575 0.0024548175 0)
(1.0006001 0.0024332238 0)
(1.000643 0.0024122967 0)
(1.0006857 0.0023914474 0)
(1.0007276 0.0023708825 0)
(1.0007684 0.0023509064 0)
(1.0008082 0.0023317787 0)
(1.0008473 0.0023139697 0)
(1.0008862 0.0022975441 0)
(1.0009254 0.0022821226 0)
(1.0009652 0.0022672789 0)
(1.0010057 0.0022523146 0)
(1.0010465 0.0022367994 0)
(1.001087 0.0022206992 0)
(1.001127 0.0022039798 0)
(1.0011659 0.0021869424 0)
(1.0012037 0.0021700746 0)
(1.0012406 0.0021536585 0)
(1.0012767 0.0021378655 0)
(1.0013122 0.0021226141 0)
(1.0013473 0.0021080921 0)
(1.001382 0.0020946502 0)
(1.0014162 0.0020826705 0)
(1.0014501 0.0020724275 0)
(1.001485 0.0020640045 0)
(1.0015213 0.002056551 0)
(1.001558 0.0020479213 0)
(1.0015911 0.0020370165 0)
(1.0016106 0.0020245953 0)
(1.0015972 0.0020115083 0)
(1.0015113 0.0019973503 0)
(1.0012886 0.0019817065 0)
(1.0007938 0.0019640635 0)
(0.99988099 0.0019419174 0)
(0.99842451 0.0019129839 0)
(0.99636113 0.0018733423 0)
(0.99373151 0.0018222351 0)
(0.99062495 0.001763129 0)
(0.9871483 0.0016997968 0)
(0.98339347 0.0016359591 0)
(0.9794237 0.0015728776 0)
(0.97528167 0.0015111264 0)
(0.97100329 0.001450661 0)
(0.9666223 0.0013914583 0)
(0.96216762 0.0013336361 0)
(0.95766227 0.0012773336 0)
(0.95312535 0.0012227527 0)
(0.9485733 0.0011700089 0)
(0.94401995 0.001119124 0)
(0.93947679 0.0010701696 0)
(0.93495338 0.0010231342 0)
(0.93045785 0.00097797892 0)
(0.92599691 0.00093471632 0)
(0.92157607 0.00089327665 0)
(0.91720005 0.00085360679 0)
(0.91287256 0.00081571691 0)
(0.90859662 0.00077942995 0)
(0.90437501 0.00074471346 0)
(0.90020968 0.0007117145 0)
(0.89610307 0.00068022028 0)
(0.89205573 0.00064500299 0)
(0.88805405 0.0005750866 0)
(0.88409406 0.00051030218 0)
(0.8801928 0.00048862885 0)
(0.8763563 0.00047773836 0)
(0.87258889 0.0004695713 0)
(0.86889166 0.00045949597 0)
(0.86526213 0.00044748607 0)
(0.86169551 0.00043401373 0)
(0.85818422 0.00041944288 0)
(0.85472668 0.00040511063 0)
(0.85130369 0.00038934879 0)
(0.84795668 0.00038079079 0)
(0.84451389 0.00035760867 0)
(0.84153468 0.0004178106 0)
(0.8363516 0.0003035012 0)
(0.9974242 0.0017973384 0)
(0.99752443 0.002125455 0)
(0.99771153 0.0024003507 0)
(0.99793287 0.0025975366 0)
(0.99814994 0.0027376357 0)
(0.99835348 0.0028472627 0)
(0.99855099 0.0029346499 0)
(0.99874685 0.0029992252 0)
(0.99893904 0.0030430401 0)
(0.9991259 0.0030695222 0)
(0.9993078 0.0030786493 0)
(0.99948409 0.0030694688 0)
(0.99965196 0.0030411674 0)
(0.99980691 0.0029945049 0)
(0.99994418 0.0029327824 0)
(1.0000605 0.0028616471 0)
(1.0001547 0.0027873238 0)
(1.0002288 0.0027174974 0)
(1.000289 0.0026567176 0)
(1.0003396 0.0026037808 0)
(1.0003843 0.0025602398 0)
(1.000427 0.0025245705 0)
(1.0004691 0.002493749 0)
(1.0005109 0.0024673175 0)
(1.0005533 0.0024437773 0)
(1.0005962 0.0024219167 0)
(1.0006394 0.0024009697 0)
(1.0006823 0.0023803975 0)
(1.0007243 0.0023603061 0)
(1.0007654 0.002340944 0)
(1.0008055 0.0023225156 0)
(1.0008448 0.0023053826 0)
(1.0008839 0.0022895876 0)
(1.0009233 0.0022747606 0)
(1.0009633 0.0022604685 0)
(1.0010038 0.0022460737 0)
(1.0010445 0.0022311429 0)
(1.0010851 0.0022156054 0)
(1.001125 0.0021994236 0)