/*--------------------------------*- C++ -*----------------------------------*\
  =========                 |
  \\      /  F ield         | OpenFOAM: The Open Source CFD Toolbox
   \\    /   O peration     | Website:  https://openfoam.org
    \\  /    A nd           | Version:  12
     \\/     M anipulation  |
\*---------------------------------------------------------------------------*/
FoamFile
{
    format      ascii;
    class       volVectorField;
    location    "600";
    object      wallShearStress;
}
// * * * * * * * * * * * * * * * * * * * * * * * * * * * * * * * * * * * * * //

dimensions      [0 2 -2 0 0 0 0];

internalField   uniform (0 0 0);

boundaryField
{
    bottom
    {
        type            calculated;
        value           nonuniform List<vector> 
112
(
(-0.0057155194 -3.519961e-05 0)
(-0.002883921 -3.8491114e-07 -1.8611875e-17)
(-0.0025792968 -8.3988601e-08 -5.1769117e-19)
(-0.002479381 -1.8617273e-08 -9.9453651e-19)
(-0.002415991 -1.3164379e-08 0)
(-0.0023629664 -1.1177337e-08 0)
(-0.0023162922 -9.8019884e-09 0)
(-0.0022747345 -8.6796651e-09 0)
(-0.0022374051 -7.7608222e-09 0)
(-0.0022035002 -7.0097053e-09 -7.472639e-19)
(-0.0021724136 -6.3821053e-09 0)
(-0.0021437121 -5.8452498e-09 -6.2308311e-19)
(-0.0021170694 -5.3788272e-09 5.733629e-19)
(-0.0020922249 -4.9697536e-09 -5.2975767e-19)
(-0.0020689626 -4.608261e-09 0)
(-0.0020471028 -4.2865859e-09 4.5692875e-19)
(-0.0020264941 -3.9986803e-09 0)
(-0.0020070069 -3.7398429e-09 -1.9932302e-19)
(-0.0019885285 -3.5062913e-09 0)
(-0.0019709605 -3.2945908e-09 -3.5118347e-19)
(-0.001954218 -3.1020861e-09 3.3066207e-19)
(-0.0019382251 -2.9262366e-09 0)
(-0.001922918 -2.764954e-09 0)
(-0.0019082382 -2.616936e-09 0)
(-0.0018941324 -2.4804537e-09 -2.6439911e-19)
(-0.0018805566 -2.3541272e-09 0)
(-0.0018674693 -2.2372711e-09 0)
(-0.0018548314 -2.1288331e-09 0)
(-0.0018426101 -2.02773e-09 0)
(-0.0018307763 -1.9334468e-09 -2.0609286e-19)
(-0.0018193009 -1.8455415e-09 1.9672111e-19)
(-0.0018081576 -1.7631624e-09 0)
(-0.0017973252 -1.6857115e-09 0)
(-0.0017867832 -1.613049e-09 0)
(-0.0017765103 -1.5448234e-09 1.646666e-19)
(-0.0017664883 -1.480412e-09 0)
(-0.0017567025 -1.4194538e-09 0)
(-0.001747138 -1.3619181e-09 -1.4517122e-19)
(-0.0017377791 -1.3076104e-09 0)
(-0.001728612 -1.2560534e-09 0)
(-0.0017196262 -1.2069739e-09 0)
(-0.0017108107 -1.1603889e-09 1.2368941e-19)
(-0.0017021536 -1.1161854e-09 -5.9488515e-20)
(-0.0016936443 -1.0740834e-09 1.1448915e-19)
(-0.001685274 -1.0338404e-09 0)
(-0.0016770348 -9.9538659e-10 0)
(-0.0016689181 -9.5871308e-10 -1.532879e-19)
(-0.0016609151 -9.2372287e-10 0)
(-0.0016530179 -8.9016894e-10 9.4885237e-20)
(-0.0016452207 -8.5791947e-10 0)
(-0.0016375171 -8.2701597e-10 0)
(-0.0016299 -7.9742268e-10 -4.2499609e-20)
(-0.0016223625 -7.6901411e-10 -4.0985423e-20)
(-0.0016148991 -7.416402e-10 0)
(-0.0016075049 -7.1524823e-10 -7.6240285e-20)
(-0.0016001747 -6.8986722e-10 0)
(-0.0015929023 -6.6547678e-10 0)
(-0.0015856822 -6.4195045e-10 0)
(-0.0015785101 -6.1918842e-10 0)
(-0.0015713816 -5.9719692e-10 0)
(-0.0015642921 -5.7598942e-10 0)
(-0.001557236 -5.5554127e-10 0)
(-0.0015502083 -5.3574113e-10 0)
(-0.0015432055 -5.1652583e-10 0)
(-0.0015362236 -4.9793092e-10 -5.307554e-20)
(-0.0015292576 -4.7996e-10 0)
(-0.0015223024 -4.6256809e-10 -2.4652921e-20)
(-0.0015153535 -4.4567881e-10 0)
(-0.0015084073 -4.2926207e-10 -2.2877937e-20)
(-0.0015014595 -4.1335073e-10 4.4059764e-20)
(-0.0014945048 -3.9795287e-10 4.2418252e-20)
(-0.0014875378 -3.8299455e-10 -2.0411898e-20)
(-0.0014805546 -3.6842364e-10 0)
(-0.0014735508 -3.5426943e-10 0)
(-0.0014665209 -3.4054669e-10 3.6299036e-20)
(-0.0014594589 -3.2721945e-10 -3.4878361e-20)
(-0.0014523594 -3.1423603e-10 0)
(-0.0014452177 -3.0159033e-10 0)
(-0.0014380278 -2.8930679e-10 -3.0836984e-20)
(-0.0014307826 -2.7736832e-10 0)
(-0.0014234757 -2.6572629e-10 0)
(-0.0014161011 -2.5437477e-10 0)
(-0.0014086515 -2.4333889e-10 0)
(-0.0014011181 -2.3259791e-10 0)
(-0.0013934931 -2.2211302e-10 0)
(-0.0013857683 -2.1188966e-10 0)
(-0.0013779338 -2.0194903e-10 0)
(-0.0013699779 -1.9223578e-10 2.0488855e-20)
(-0.0013618927 -1.8281062e-10 -1.9484145e-20)
(-0.0013538432 -1.7390318e-10 0)
(-0.0013460838 -1.6562815e-10 0)
(-0.0013386884 -1.5797679e-10 0)
(-0.0013316292 -1.5091977e-10 0)
(-0.0013248797 -1.4441684e-10 0)
(-0.0013184157 -1.3840118e-10 0)
(-0.0013122167 -1.328123e-10 0)
(-0.0013062641 -1.2762376e-10 0)
(-0.0013005399 -1.2281215e-10 -1.3087375e-20)
(-0.0012950278 -1.1832869e-10 0)
(-0.0012897139 -1.1413118e-10 0)
(-0.0012845859 -1.1020541e-10 0)
(-0.0012796314 -1.0654188e-10 0)
(-0.0012748386 -1.0313376e-10 0)
(-0.0012701961 -9.9948946e-11 0)
(-0.0012656948 -9.7013703e-11 0)
(-0.0012613209 -9.4248906e-11 0)
(-0.0012570728 -9.2042535e-11 0)
(-0.0012529007 -8.9615009e-11 0)
(-0.0012488757 -8.9818428e-11 0)
(-0.0012446828 -1.5408223e-10 0)
(-0.0012410486 -1.0540343e-10 -1.1314242e-20)
(-0.0012349887 -1.2025267e-10 0)
)
;
    }
    back
    {
        type            empty;
    }
    front
    {
        type            empty;
    }
    inlet
    {
        type            calculated;
        value           uniform (0 0 0);
    }
    outlet
    {
        type            calculated;
        value           uniform (0 0 0);
    }
    top
    {
        type            calculated;
        value           uniform (0 0 0);
    }
    slipsurface
    {
        type            calculated;
        value           uniform (0 0 0);
    }
}


// ************************************************************************* //
