# Selection         : all 
# Volume            : 8.000000000000e-02
# Time              	min(p)	location	cell	min(k)	location	cell	min(omega)	location	cell	min(nut)	location	cell	min(epsilon)	min(nuTilda)
0                   	0.000000000000e+00	(4.000000000000e-02 4.204846563605e-03 5.000000000000e-02)	0	1.500000000000e-04	(4.000000000000e-02 4.204846563605e-03 5.000000000000e-02)	0	7.500000000000e+00	(4.000000000000e-02 4.204846563605e-03 5.000000000000e-02)	0	2.000000000000e-05	(4.000000000000e-02 4.204846563605e-03 5.000000000000e-02)	0
1                   	1.252272021173e-03	(7.960000000000e+00 1.229358735696e-02 5.000000000000e-02)	199	6.893594292369e-05	(7.960000000000e+00 9.017565966428e-02 5.000000000000e-02)	2199	5.630729886214e+00	(7.960000000000e+00 1.976492149912e-02 5.000000000000e-02)	299	1.734807877223e-07	(7.960000000000e+00 9.561803526425e-02 5.000000000000e-02)	2599
2                   	1.195156750858e-03	(7.960000000000e+00 1.229358735696e-02 5.000000000000e-02)	199	4.194277779842e-05	(7.960000000000e+00 9.017565966428e-02 5.000000000000e-02)	2199	6.058028570841e-05	(4.000000000000e-02 9.311245548279e-02 5.000000000000e-02)	2300	8.798386503953e-08	(7.960000000000e+00 9.957951534364e-02 5.000000000000e-02)	2999
3                   	8.675379095481e-04	(7.960000000000e+00 1.229358735696e-02 5.000000000000e-02)	199	4.947863132521e-05	(7.800000000000e+00 8.673343453802e-02 5.000000000000e-02)	1997	8.548951443705e-01	(4.000000000000e-02 8.673343453802e-02 5.000000000000e-02)	1900	9.672940404967e-09	(7.960000000000e+00 9.957951534364e-02 5.000000000000e-02)	2999
4                   	7.176028015997e-04	(7.960000000000e+00 1.976492149912e-02 5.000000000000e-02)	299	1.005054031823e-05	(7.960000000000e+00 9.957951534364e-02 5.000000000000e-02)	2999	1.395813998376e-01	(4.000000000000e-02 9.311245548279e-02 5.000000000000e-02)	2300	1.110630851181e-09	(7.960000000000e+00 9.957951534364e-02 5.000000000000e-02)	2999
5                   	6.679316452739e-04	(7.960000000000e+00 1.229358735696e-02 5.000000000000e-02)	199	1.412367258429e-06	(7.960000000000e+00 9.957951534364e-02 5.000000000000e-02)	2999	2.921547422850e+00	(7.960000000000e+00 3.304027721530e-02 5.000000000000e-02)	499	1.560730667946e-10	(7.960000000000e+00 9.957951534364e-02 5.000000000000e-02)	2999
6                   	6.375300163687e-04	(7.960000000000e+00 4.204846563605e-03 5.000000000000e-02)	99	3.732306415653e-07	(7.960000000000e+00 9.957951534364e-02 5.000000000000e-02)	2999	2.630460323630e+00	(7.960000000000e+00 3.304027721530e-02 5.000000000000e-02)	499	4.124369954288e-11	(7.960000000000e+00 9.957951534364e-02 5.000000000000e-02)	2999
7                   	6.103636722981e-04	(7.960000000000e+00 4.204846563605e-03 5.000000000000e-02)	99	2.091001642878e-07	(7.960000000000e+00 9.957951534364e-02 5.000000000000e-02)	2999	2.405376902084e+00	(7.960000000000e+00 3.304027721530e-02 5.000000000000e-02)	499	2.310652821560e-11	(7.960000000000e+00 9.957951534364e-02 5.000000000000e-02)	2999
8                   	5.875010083314e-04	(7.960000000000e+00 7.242689935851e-02 5.000000000000e-02)	1399	1.765673555406e-07	(7.960000000000e+00 9.957951534364e-02 5.000000000000e-02)	2999	2.229931888461e+00	(7.960000000000e+00 3.304027721530e-02 5.000000000000e-02)	499	1.951150347800e-11	(7.960000000000e+00 9.957951534364e-02 5.000000000000e-02)	2999
9                   	5.692855872605e-04	(7.960000000000e+00 9.957951534364e-02 5.000000000000e-02)	2999	1.671519648623e-07	(7.960000000000e+00 9.957951534364e-02 5.000000000000e-02)	2999	2.093309376675e+00	(7.960000000000e+00 3.304027721530e-02 5.000000000000e-02)	499	1.847105957826e-11	(7.960000000000e+00 9.957951534364e-02 5.000000000000e-02)	2999
10                  	5.547786225687e-04	(7.960000000000e+00 9.957951534364e-02 5.000000000000e-02)	2999	1.722301076598e-07	(7.960000000000e+00 9.957951534364e-02 5.000000000000e-02)	2999	1.988158943584e+00	(7.960000000000e+00 3.304027721530e-02 5.000000000000e-02)	499	1.903221767314e-11	(7.960000000000e+00 9.957951534364e-02 5.000000000000e-02)	2999
11                  	5.435302611089e-04	(7.960000000000e+00 9.957951534364e-02 5.000000000000e-02)	2999	1.837320461121e-07	(7.960000000000e+00 9.957951534364e-02 5.000000000000e-02)	2999	1.909135129411e+00	(7.960000000000e+00 3.304027721530e-02 5.000000000000e-02)	499	2.030323468209e-11	(7.960000000000e+00 9.957951534364e-02 5.000000000000e-02)	2999
12                  	5.352028142590e-04	(7.960000000000e+00 9.957951534364e-02 5.000000000000e-02)	2999	2.041555156925e-07	(7.960000000000e+00 9.957951534364e-02 5.000000000000e-02)	2999	1.852195054615e+00	(7.960000000000e+00 3.304027721530e-02 5.000000000000e-02)	499	2.256012184297e-11	(7.960000000000e+00 9.957951534364e-02 5.000000000000e-02)	2999
13                  	5.300390113556e-04	(7.960000000000e+00 9.957951534364e-02 5.000000000000e-02)	2999	2.320597269112e-07	(7.960000000000e+00 9.957951534364e-02 5.000000000000e-02)	2999	1.814147229899e+00	(7.960000000000e+00 3.304027721530e-02 5.000000000000e-02)	499	2.564366530194e-11	(7.960000000000e+00 9.957951534364e-02 5.000000000000e-02)	2999
14                  	5.284008425584e-04	(7.960000000000e+00 9.957951534364e-02 5.000000000000e-02)	2999	2.203103547126e-07	(1.200000000000e-01 9.957951534364e-02 5.000000000000e-02)	2901	1.793103981521e+00	(7.960000000000e+00 3.304027721530e-02 5.000000000000e-02)	499	2.434530572797e-11	(1.200000000000e-01 9.957951534364e-02 5.000000000000e-02)	2901
15                  	5.310324388696e-04	(7.960000000000e+00 9.957951534364e-02 5.000000000000e-02)	2999	1.577115091660e-07	(1.200000000000e-01 9.957951534364e-02 5.000000000000e-02)	2901	1.765231879353e+00	(7.960000000000e+00 2.666597511054e-02 5.000000000000e-02)	399	1.742784587894e-11	(1.200000000000e-01 9.957951534364e-02 5.000000000000e-02)	2901
16                  	5.387352769682e-04	(7.960000000000e+00 9.957951534364e-02 5.000000000000e-02)	2999	1.026189889376e-07	(1.200000000000e-01 9.957951534364e-02 5.000000000000e-02)	2901	1.745105800458e+00	(7.960000000000e+00 2.666597511054e-02 5.000000000000e-02)	399	1.133986944208e-11	(1.200000000000e-01 9.957951534364e-02 5.000000000000e-02)	2901
17                  	5.523769153903e-04	(7.960000000000e+00 9.957951534364e-02 5.000000000000e-02)	2999	5.567540861786e-08	(1.200000000000e-01 9.957951534364e-02 5.000000000000e-02)	2901	1.734669786977e+00	(7.960000000000e+00 2.666597511054e-02 5.000000000000e-02)	399	6.152388280158e-12	(1.200000000000e-01 9.957951534364e-02 5.000000000000e-02)	2901
18                  	5.726738554236e-04	(7.960000000000e+00 9.957951534364e-02 5.000000000000e-02)	2999	1.688925060320e-08	(1.200000000000e-01 9.957951534364e-02 5.000000000000e-02)	2901	1.735403287900e+00	(7.960000000000e+00 2.666597511054e-02 5.000000000000e-02)	399	1.866339736902e-12	(1.200000000000e-01 9.957951534364e-02 5.000000000000e-02)	2901
19                  	6.002235387042e-04	(7.960000000000e+00 9.957951534364e-02 5.000000000000e-02)	2999	6.994491160483e-07	(7.960000000000e+00 9.957951534364e-02 5.000000000000e-02)	2999	1.751375294499e+00	(7.960000000000e+00 2.666597511054e-02 5.000000000000e-02)	399	7.729233877166e-11	(7.960000000000e+00 9.957951534364e-02 5.000000000000e-02)	2999
20                  	6.354512816367e-04	(7.960000000000e+00 9.957951534364e-02 5.000000000000e-02)	2999	1.228828423088e-07	(1.200000000000e-01 9.957951534364e-02 5.000000000000e-02)	2901	1.772816725440e+00	(7.960000000000e+00 1.976492149912e-02 5.000000000000e-02)	299	1.357911827900e-11	(1.200000000000e-01 9.957951534364e-02 5.000000000000e-02)	2901
21                  	6.786394312339e-04	(7.960000000000e+00 9.957951534364e-02 5.000000000000e-02)	2999	8.205909090268e-07	(2.000000000000e-01 9.957951534364e-02 5.000000000000e-02)	2902	1.773728377701e+00	(7.960000000000e+00 1.976492149912e-02 5.000000000000e-02)	299	9.067906310581e-11	(2.000000000000e-01 9.957951534364e-02 5.000000000000e-02)	2902
22                  	7.299270979235e-04	(7.960000000000e+00 9.957951534364e-02 5.000000000000e-02)	2999	6.536270951793e-08	(1.200000000000e-01 9.957951534364e-02 5.000000000000e-02)	2901	1.794069530462e+00	(7.960000000000e+00 1.976492149912e-02 5.000000000000e-02)	299	7.222879507857e-12	(1.200000000000e-01 9.957951534364e-02 5.000000000000e-02)	2901
23                  	7.893764381379e-04	(7.960000000000e+00 9.957951534364e-02 5.000000000000e-02)	2999	6.879802744210e-07	(2.000000000000e-01 9.957951534364e-02 5.000000000000e-02)	2902	1.815859519375e+00	(7.960000000000e+00 4.204846563605e-03 5.000000000000e-02)	99	7.602497911385e-11	(2.000000000000e-01 9.957951534364e-02 5.000000000000e-02)	2902
24                  	8.570496505693e-04	(7.960000000000e+00 9.957951534364e-02 5.000000000000e-02)	2999	4.110839530075e-08	(1.200000000000e-01 9.957951534364e-02 5.000000000000e-02)	2901	1.819019944253e+00	(7.960000000000e+00 4.204846563605e-03 5.000000000000e-02)	99	4.542666425681e-12	(1.200000000000e-01 9.957951534364e-02 5.000000000000e-02)	2901
25                  	9.330644877165e-04	(7.960000000000e+00 9.957951534364e-02 5.000000000000e-02)	2999	5.793864704958e-07	(2.000000000000e-01 9.957951534364e-02 5.000000000000e-02)	2902	1.824670325845e+00	(7.960000000000e+00 4.204846563605e-03 5.000000000000e-02)	99	6.402486518288e-11	(2.000000000000e-01 9.957951534364e-02 5.000000000000e-02)	2902
26                  	1.017589507296e-03	(7.960000000000e+00 9.957951534364e-02 5.000000000000e-02)	2999	3.966200778585e-08	(1.200000000000e-01 9.957951534364e-02 5.000000000000e-02)	2901	1.833224639808e+00	(7.960000000000e+00 4.204846563605e-03 5.000000000000e-02)	99	4.382833964346e-12	(1.200000000000e-01 9.957951534364e-02 5.000000000000e-02)	2901
27                  	1.110769948427e-03	(7.960000000000e+00 9.957951534364e-02 5.000000000000e-02)	2999	4.977770709611e-07	(2.000000000000e-01 9.957951534364e-02 5.000000000000e-02)	2902	1.853655926647e+00	(7.960000000000e+00 4.204846563605e-03 5.000000000000e-02)	99	5.500665183318e-11	(2.000000000000e-01 9.957951534364e-02 5.000000000000e-02)	2902
28                  	1.212567933849e-03	(7.960000000000e+00 9.957951534364e-02 5.000000000000e-02)	2999	5.195044823161e-08	(1.200000000000e-01 9.957951534364e-02 5.000000000000e-02)	2901	1.919651745340e+00	(7.960000000000e+00 4.204846563605e-03 5.000000000000e-02)	99	5.740763054706e-12	(1.200000000000e-01 9.957951534364e-02 5.000000000000e-02)	2901
29                  	1.322056350043e-03	(7.960000000000e+00 9.957951534364e-02 5.000000000000e-02)	2999	4.420903909200e-07	(2.000000000000e-01 9.957951534364e-02 5.000000000000e-02)	2902	2.068099965761e+00	(6.680000000000e+00 4.204846563605e-03 5.000000000000e-02)	83	4.885301800900e-11	(2.000000000000e-01 9.957951534364e-02 5.000000000000e-02)	2902
30                  	1.434619288036e-03	(7.960000000000e+00 9.957951534364e-02 5.000000000000e-02)	2999	7.087802448757e-08	(1.200000000000e-01 9.957951534364e-02 5.000000000000e-02)	2901	2.189127672936e+00	(5.720000000000e+00 4.204846563605e-03 5.000000000000e-02)	71	7.832347135000e-12	(1.200000000000e-01 9.957951534364e-02 5.000000000000e-02)	2901
31                  	1.536686640784e-03	(7.960000000000e+00 9.957951534364e-02 5.000000000000e-02)	2999	4.090874842920e-07	(2.000000000000e-01 9.957951534364e-02 5.000000000000e-02)	2902	2.282121714292e+00	(5.160000000000e+00 4.204846563605e-03 5.000000000000e-02)	64	4.520604529717e-11	(2.000000000000e-01 9.957951534364e-02 5.000000000000e-02)	2902
32                  	1.609826439744e-03	(7.960000000000e+00 9.957951534364e-02 5.000000000000e-02)	2999	9.130823138235e-08	(1.200000000000e-01 9.957951534364e-02 5.000000000000e-02)	2901	2.354102271690e+00	(4.840000000000e+00 4.204846563605e-03 5.000000000000e-02)	60	1.008997880006e-11	(1.200000000000e-01 9.957951534364e-02 5.000000000000e-02)	2901
33                  	1.646080440388e-03	(7.960000000000e+00 9.957951534364e-02 5.000000000000e-02)	2999	3.945017687204e-07	(2.000000000000e-01 9.957951534364e-02 5.000000000000e-02)	2902	2.409639944234e+00	(4.680000000000e+00 4.204846563605e-03 5.000000000000e-02)	58	4.359425675770e-11	(2.000000000000e-01 9.957951534364e-02 5.000000000000e-02)	2902
34                  	1.650983468959e-03	(7.960000000000e+00 9.957951534364e-02 5.000000000000e-02)	2999	1.098576182918e-07	(1.200000000000e-01 9.957951534364e-02 5.000000000000e-02)	2901	2.451749389480e+00	(4.520000000000e+00 4.204846563605e-03 5.000000000000e-02)	56	1.213977122115e-11	(1.200000000000e-01 9.957951534364e-02 5.000000000000e-02)	2901
35                  	1.634705173388e-03	(7.960000000000e+00 9.957951534364e-02 5.000000000000e-02)	2999	3.937433630517e-07	(2.000000000000e-01 9.957951534364e-02 5.000000000000e-02)	2902	2.483005797980e+00	(4.360000000000e+00 4.204846563605e-03 5.000000000000e-02)	54	4.351044944917e-11	(2.000000000000e-01 9.957951534364e-02 5.000000000000e-02)	2902
36                  	1.606082965483e-03	(7.960000000000e+00 9.957951534364e-02 5.000000000000e-02)	2999	1.246155005292e-07	(1.200000000000e-01 9.957951534364e-02 5.000000000000e-02)	2901	2.505629819968e+00	(4.280000000000e+00 4.204846563605e-03 5.000000000000e-02)	53	1.377058496767e-11	(1.200000000000e-01 9.957951534364e-02 5.000000000000e-02)	2901
37                  	1.571683783144e-03	(7.960000000000e+00 9.957951534364e-02 5.000000000000e-02)	2999	4.023534971588e-07	(2.000000000000e-01 9.957951534364e-02 5.000000000000e-02)	2902	2.521570261165e+00	(4.280000000000e+00 4.204846563605e-03 5.000000000000e-02)	53	4.446190880054e-11	(2.000000000000e-01 9.957951534364e-02 5.000000000000e-02)	2902
38                  	1.536252778539e-03	(7.960000000000e+00 9.957951534364e-02 5.000000000000e-02)	2999	1.348322144327e-07	(1.200000000000e-01 9.957951534364e-02 5.000000000000e-02)	2901	2.530620406549e+00	(4.200000000000e+00 4.204846563605e-03 5.000000000000e-02)	52	1.489957876299e-11	(1.200000000000e-01 9.957951534364e-02 5.000000000000e-02)	2901
39                  	1.502943871518e-03	(7.960000000000e+00 9.957951534364e-02 5.000000000000e-02)	2999	4.163215903908e-07	(2.000000000000e-01 9.957951534364e-02 5.000000000000e-02)	2902	2.535944239801e+00	(4.200000000000e+00 4.204846563605e-03 5.000000000000e-02)	52	4.600544723574e-11	(2.000000000000e-01 9.957951534364e-02 5.000000000000e-02)	2902
40                  	1.473506535709e-03	(7.960000000000e+00 9.957951534364e-02 5.000000000000e-02)	2999	1.406035176474e-07	(1.200000000000e-01 9.957951534364e-02 5.000000000000e-02)	2901	2.538141802310e+00	(4.200000000000e+00 4.204846563605e-03 5.000000000000e-02)	52	1.553733426656e-11	(1.200000000000e-01 9.957951534364e-02 5.000000000000e-02)	2901
41                  	1.448631681848e-03	(7.960000000000e+00 9.957951534364e-02 5.000000000000e-02)	2999	4.323062536821e-07	(2.000000000000e-01 9.957951534364e-02 5.000000000000e-02)	2902	2.537496843689e+00	(4.200000000000e+00 4.204846563605e-03 5.000000000000e-02)	52	4.777182592136e-11	(2.000000000000e-01 9.957951534364e-02 5.000000000000e-02)	2902
42                  	1.428347226886e-03	(7.960000000000e+00 9.957951534364e-02 5.000000000000e-02)	2999	1.425556177897e-07	(1.200000000000e-01 9.957951534364e-02 5.000000000000e-02)	2901	2.534615659711e+00	(4.200000000000e+00 4.204846563605e-03 5.000000000000e-02)	52	1.575305029515e-11	(1.200000000000e-01 9.957951534364e-02 5.000000000000e-02)	2901
43                  	1.412328720743e-03	(7.960000000000e+00 9.957951534364e-02 5.000000000000e-02)	2999	4.477658169895e-07	(2.000000000000e-01 9.957951534364e-02 5.000000000000e-02)	2902	2.530234366315e+00	(4.200000000000e+00 4.204846563605e-03 5.000000000000e-02)	52	4.948017864781e-11	(2.000000000000e-01 9.957951534364e-02 5.000000000000e-02)	2902
44                  	1.400079475006e-03	(7.960000000000e+00 9.957951534364e-02 5.000000000000e-02)	2999	1.416276946123e-07	(1.200000000000e-01 9.957951534364e-02 5.000000000000e-02)	2901	2.525064984468e+00	(4.200000000000e+00 4.204846563605e-03 5.000000000000e-02)	52	1.565051052358e-11	(1.200000000000e-01 9.957951534364e-02 5.000000000000e-02)	2901
45                  	1.391029462839e-03	(7.960000000000e+00 9.957951534364e-02 5.000000000000e-02)	2999	4.609958608188e-07	(2.000000000000e-01 9.957951534364e-02 5.000000000000e-02)	2902	2.519694642208e+00	(4.200000000000e+00 4.204846563605e-03 5.000000000000e-02)	52	5.094215923533e-11	(2.000000000000e-01 9.957951534364e-02 5.000000000000e-02)	2902
46                  	1.384589875833e-03	(7.960000000000e+00 9.957951534364e-02 5.000000000000e-02)	2999	1.388103470242e-07	(1.200000000000e-01 9.957951534364e-02 5.000000000000e-02)	2901	2.514541332254e+00	(4.200000000000e+00 4.204846563605e-03 5.000000000000e-02)	52	1.533918067954e-11	(1.200000000000e-01 9.957951534364e-02 5.000000000000e-02)	2901
47                  	1.380192826283e-03	(7.960000000000e+00 9.870379855227e-02 5.000000000000e-02)	2899	4.710785694648e-07	(2.000000000000e-01 9.957951534364e-02 5.000000000000e-02)	2902	2.509865679472e+00	(4.200000000000e+00 4.204846563605e-03 5.000000000000e-02)	52	5.205634483443e-11	(2.000000000000e-01 9.957951534364e-02 5.000000000000e-02)	2902
48                  	1.377312221755e-03	(7.960000000000e+00 9.870379855227e-02 5.000000000000e-02)	2899	1.350297216047e-07	(1.200000000000e-01 9.957951534364e-02 5.000000000000e-02)	2901	2.505178311772e+00	(4.280000000000e+00 4.204846563605e-03 5.000000000000e-02)	53	1.492140421234e-11	(1.200000000000e-01 9.957951534364e-02 5.000000000000e-02)	2901
49                  	1.375489172125e-03	(7.960000000000e+00 9.775571538547e-02 5.000000000000e-02)	2799	4.777606642020e-07	(2.000000000000e-01 9.957951534364e-02 5.000000000000e-02)	2902	2.499983025657e+00	(4.280000000000e+00 4.204846563605e-03 5.000000000000e-02)	53	5.279474698303e-11	(2.000000000000e-01 9.957951534364e-02 5.000000000000e-02)	2902
50                  	1.374352312943e-03	(7.960000000000e+00 9.672928572232e-02 5.000000000000e-02)	2699	1.310410428059e-07	(1.200000000000e-01 9.957951534364e-02 5.000000000000e-02)	2901	2.495652343969e+00	(4.280000000000e+00 4.204846563605e-03 5.000000000000e-02)	53	1.448063689145e-11	(1.200000000000e-01 9.957951534364e-02 5.000000000000e-02)	2901
51                  	1.373475593655e-03	(7.960000000000e+00 9.561803526425e-02 5.000000000000e-02)	2599	4.812860418105e-07	(2.000000000000e-01 9.957951534364e-02 5.000000000000e-02)	2902	2.492120680630e+00	(4.280000000000e+00 4.204846563605e-03 5.000000000000e-02)	53	5.318431739518e-11	(2.000000000000e-01 9.957951534364e-02 5.000000000000e-02)	2902
52                  	1.372624451246e-03	(7.960000000000e+00 9.441495469782e-02 5.000000000000e-02)	2499	1.273817342780e-07	(1.200000000000e-01 9.957951534364e-02 5.000000000000e-02)	2901	2.489293893733e+00	(4.280000000000e+00 4.204846563605e-03 5.000000000000e-02)	53	1.407626649779e-11	(1.200000000000e-01 9.957951534364e-02 5.000000000000e-02)	2901
53                  	1.371593742662e-03	(7.960000000000e+00 9.311245548279e-02 5.000000000000e-02)	2399	4.822141201162e-07	(2.000000000000e-01 9.957951534364e-02 5.000000000000e-02)	2902	2.487068792276e+00	(4.280000000000e+00 4.204846563605e-03 5.000000000000e-02)	53	5.328687430913e-11	(2.000000000000e-01 9.957951534364e-02 5.000000000000e-02)	2902
54                  	1.370090616810e-03	(7.960000000000e+00 9.017565966428e-02 5.000000000000e-02)	2199	1.243881872118e-07	(1.200000000000e-01 9.957951534364e-02 5.000000000000e-02)	2901	2.485344459661e+00	(4.280000000000e+00 4.204846563605e-03 5.000000000000e-02)	53	1.374546580242e-11	(1.200000000000e-01 9.957951534364e-02 5.000000000000e-02)	2901
55                  	1.368043149909e-03	(7.960000000000e+00 8.673343453802e-02 5.000000000000e-02)	1999	4.812516095907e-07	(2.000000000000e-01 9.957951534364e-02 5.000000000000e-02)	2902	2.484027993257e+00	(4.280000000000e+00 4.204846563605e-03 5.000000000000e-02)	53	5.318051247679e-11	(2.000000000000e-01 9.957951534364e-02 5.000000000000e-02)	2902
56                  	1.365383858494e-03	(7.960000000000e+00 7.796978376965e-02 5.000000000000e-02)	1599	1.222142179951e-07	(1.200000000000e-01 9.957951534364e-02 5.000000000000e-02)	2901	2.483037942722e+00	(4.280000000000e+00 4.204846563605e-03 5.000000000000e-02)	53	1.350523222241e-11	(1.200000000000e-01 9.957951534364e-02 5.000000000000e-02)	2901
57                  	1.361524953189e-03	(7.960000000000e+00 4.938962901300e-02 5.000000000000e-02)	799	4.791165127980e-07	(2.000000000000e-01 9.957951534364e-02 5.000000000000e-02)	2902	2.482305791255e+00	(4.280000000000e+00 4.204846563605e-03 5.000000000000e-02)	53	5.294457447813e-11	(2.000000000000e-01 9.957951534364e-02 5.000000000000e-02)	2902
58                  	1.356299307397e-03	(7.960000000000e+00 3.304027721530e-02 5.000000000000e-02)	499	1.208569509314e-07	(1.200000000000e-01 9.957951534364e-02 5.000000000000e-02)	2901	2.481775436946e+00	(4.280000000000e+00 4.204846563605e-03 5.000000000000e-02)	53	1.335524798012e-11	(1.200000000000e-01 9.957951534364e-02 5.000000000000e-02)	2901
59                  	1.350157285762e-03	(7.960000000000e+00 2.666597511054e-02 5.000000000000e-02)	399	4.764433625841e-07	(2.000000000000e-01 9.957951534364e-02 5.000000000000e-02)	2902	2.481382927430e+00	(4.360000000000e+00 4.204846563605e-03 5.000000000000e-02)	54	5.264917910601e-11	(2.000000000000e-01 9.957951534364e-02 5.000000000000e-02)	2902
60                  	1.343115002243e-03	(7.960000000000e+00 4.204846563605e-03 5.000000000000e-02)	99	1.202275736409e-07	(1.200000000000e-01 9.957951534364e-02 5.000000000000e-02)	2901	2.480965467690e+00	(4.360000000000e+00 4.204846563605e-03 5.000000000000e-02)	54	1.328569889980e-11	(1.200000000000e-01 9.957951534364e-02 5.000000000000e-02)	2901
61                  	1.336051035304e-03	(7.960000000000e+00 4.204846563605e-03 5.000000000000e-02)	99	4.737298977531e-07	(2.000000000000e-01 9.957951534364e-02 5.000000000000e-02)	2902	2.480693525483e+00	(4.360000000000e+00 4.204846563605e-03 5.000000000000e-02)	54	5.234932878358e-11	(2.000000000000e-01 9.957951534364e-02 5.000000000000e-02)	2902
62                  	1.329168542381e-03	(7.960000000000e+00 4.204846563605e-03 5.000000000000e-02)	99	1.202421875535e-07	(1.200000000000e-01 9.957951534364e-02 5.000000000000e-02)	2901	2.480533352896e+00	(4.360000000000e+00 4.204846563605e-03 5.000000000000e-02)	54	1.328731380424e-11	(1.200000000000e-01 9.957951534364e-02 5.000000000000e-02)	2901
63                  	1.322624301420e-03	(7.960000000000e+00 4.204846563605e-03 5.000000000000e-02)	99	4.713190944097e-07	(2.000000000000e-01 9.957951534364e-02 5.000000000000e-02)	2902	2.480458815687e+00	(4.360000000000e+00 4.204846563605e-03 5.000000000000e-02)	54	5.208292394518e-11	(2.000000000000e-01 9.957951534364e-02 5.000000000000e-02)	2902
64                  	1.316547536176e-03	(7.960000000000e+00 4.204846563605e-03 5.000000000000e-02)	99	1.205451577840e-07	(1.200000000000e-01 9.957951534364e-02 5.000000000000e-02)	2901	2.480449564614e+00	(4.360000000000e+00 4.204846563605e-03 5.000000000000e-02)	54	1.332079340576e-11	(1.200000000000e-01 9.957951534364e-02 5.000000000000e-02)	2901
65                  	1.311037461993e-03	(7.960000000000e+00 4.204846563605e-03 5.000000000000e-02)	99	4.694061056015e-07	(2.000000000000e-01 9.957951534364e-02 5.000000000000e-02)	2902	2.480489963007e+00	(4.360000000000e+00 4.204846563605e-03 5.000000000000e-02)	54	5.187152989859e-11	(2.000000000000e-01 9.957951534364e-02 5.000000000000e-02)	2902
66                  	1.306161720123e-03	(7.960000000000e+00 4.204846563605e-03 5.000000000000e-02)	99	1.210833611779e-07	(1.200000000000e-01 9.957951534364e-02 5.000000000000e-02)	2901	2.480569283584e+00	(4.360000000000e+00 4.204846563605e-03 5.000000000000e-02)	54	1.338026735190e-11	(1.200000000000e-01 9.957951534364e-02 5.000000000000e-02)	2901
67                  	1.301950845699e-03	(7.960000000000e+00 4.204846563605e-03 5.000000000000e-02)	99	4.680631752978e-07	(2.000000000000e-01 9.957951534364e-02 5.000000000000e-02)	2902	2.480677796692e+00	(4.360000000000e+00 4.204846563605e-03 5.000000000000e-02)	54	5.172312993410e-11	(2.000000000000e-01 9.957951534364e-02 5.000000000000e-02)	2902
68                  	1.298407230611e-03	(7.960000000000e+00 4.204846563605e-03 5.000000000000e-02)	99	1.217167931035e-07	(1.200000000000e-01 9.957951534364e-02 5.000000000000e-02)	2901	2.480807034400e+00	(4.360000000000e+00 4.204846563605e-03 5.000000000000e-02)	54	1.345026448801e-11	(1.200000000000e-01 9.957951534364e-02 5.000000000000e-02)	2901
69                  	1.295514175823e-03	(7.960000000000e+00 4.204846563605e-03 5.000000000000e-02)	99	4.672701487060e-07	(2.000000000000e-01 9.957951534364e-02 5.000000000000e-02)	2902	2.480950568131e+00	(4.360000000000e+00 4.204846563605e-03 5.000000000000e-02)	54	5.163549685461e-11	(2.000000000000e-01 9.957951534364e-02 5.000000000000e-02)	2902
70                  	1.293235607014e-03	(7.960000000000e+00 4.204846563605e-03 5.000000000000e-02)	99	1.223364397906e-07	(1.200000000000e-01 9.957951534364e-02 5.000000000000e-02)	2901	2.481103355877e+00	(4.360000000000e+00 4.204846563605e-03 5.000000000000e-02)	54	1.351873829198e-11	(1.200000000000e-01 9.957951534364e-02 5.000000000000e-02)	2901
71                  	1.291521034051e-03	(7.960000000000e+00 4.204846563605e-03 5.000000000000e-02)	99	4.669467796295e-07	(2.000000000000e-01 9.957951534364e-02 5.000000000000e-02)	2902	2.481261322509e+00	(4.360000000000e+00 4.204846563605e-03 5.000000000000e-02)	54	5.159976308694e-11	(2.000000000000e-01 9.957951534364e-02 5.000000000000e-02)	2902
72                  	1.290310592616e-03	(7.960000000000e+00 4.204846563605e-03 5.000000000000e-02)	99	1.228702448786e-07	(1.200000000000e-01 9.957951534364e-02 5.000000000000e-02)	2901	2.481420845649e+00	(4.360000000000e+00 4.204846563605e-03 5.000000000000e-02)	54	1.357772620512e-11	(1.200000000000e-01 9.957951534364e-02 5.000000000000e-02)	2901
73                  	1.289538760222e-03	(7.960000000000e+00 4.204846563605e-03 5.000000000000e-02)	99	4.669817908140e-07	(2.000000000000e-01 9.957951534364e-02 5.000000000000e-02)	2902	2.481578588771e+00	(4.360000000000e+00 4.204846563605e-03 5.000000000000e-02)	54	5.160363198358e-11	(2.000000000000e-01 9.957951534364e-02 5.000000000000e-02)	2902
74                  	1.289139239313e-03	(7.960000000000e+00 4.204846563605e-03 5.000000000000e-02)	99	1.232801179267e-07	(1.200000000000e-01 9.957951534364e-02 5.000000000000e-02)	2901	2.481731500289e+00	(4.360000000000e+00 4.204846563605e-03 5.000000000000e-02)	54	1.362301905882e-11	(1.200000000000e-01 9.957951534364e-02 5.000000000000e-02)	2901
75                  	1.289047440831e-03	(7.960000000000e+00 4.204846563605e-03 5.000000000000e-02)	99	4.672562553389e-07	(2.000000000000e-01 9.957951534364e-02 5.000000000000e-02)	2902	2.481876857223e+00	(4.360000000000e+00 4.204846563605e-03 5.000000000000e-02)	54	5.163396157375e-11	(2.000000000000e-01 9.957951534364e-02 5.000000000000e-02)	2902
76                  	1.289202412751e-03	(7.960000000000e+00 4.204846563605e-03 5.000000000000e-02)	99	1.235373987250e-07	(1.200000000000e-01 9.957951534364e-02 5.000000000000e-02)	2901	2.481986731147e+00	(4.280000000000e+00 4.204846563605e-03 5.000000000000e-02)	53	1.365144976831e-11	(1.200000000000e-01 9.957951534364e-02 5.000000000000e-02)	2901
77                  	1.289549737054e-03	(7.960000000000e+00 4.204846563605e-03 5.000000000000e-02)	99	4.676603806710e-07	(2.000000000000e-01 9.957951534364e-02 5.000000000000e-02)	2902	2.482070566483e+00	(4.280000000000e+00 4.204846563605e-03 5.000000000000e-02)	53	5.167861927845e-11	(2.000000000000e-01 9.957951534364e-02 5.000000000000e-02)	2902
78                  	1.290041311469e-03	(7.960000000000e+00 4.204846563605e-03 5.000000000000e-02)	99	1.236678572521e-07	(1.200000000000e-01 9.957951534364e-02 5.000000000000e-02)	2901	2.482144798084e+00	(4.280000000000e+00 4.204846563605e-03 5.000000000000e-02)	53	1.366586603454e-11	(1.200000000000e-01 9.957951534364e-02 5.000000000000e-02)	2901
79                  	1.290635430573e-03	(7.960000000000e+00 4.204846563605e-03 5.000000000000e-02)	99	4.681037069152e-07	(2.000000000000e-01 9.957951534364e-02 5.000000000000e-02)	2902	2.482208851048e+00	(4.280000000000e+00 4.204846563605e-03 5.000000000000e-02)	53	5.172760886392e-11	(2.000000000000e-01 9.957951534364e-02 5.000000000000e-02)	2902
80                  	1.291296323928e-03	(7.960000000000e+00 4.204846563605e-03 5.000000000000e-02)	99	1.237229397319e-07	(1.200000000000e-01 9.957951534364e-02 5.000000000000e-02)	2901	2.482262462665e+00	(4.280000000000e+00 4.204846563605e-03 5.000000000000e-02)	53	1.367195290147e-11	(1.200000000000e-01 9.957951534364e-02 5.000000000000e-02)	2901
81                  	1.291993833918e-03	(7.960000000000e+00 4.204846563605e-03 5.000000000000e-02)	99	4.685200356377e-07	(2.000000000000e-01 9.957951534364e-02 5.000000000000e-02)	2902	2.482305687502e+00	(4.280000000000e+00 4.204846563605e-03 5.000000000000e-02)	53	5.177361509928e-11	(2.000000000000e-01 9.957951534364e-02 5.000000000000e-02)	2902
82                  	1.292702659679e-03	(7.960000000000e+00 4.204846563605e-03 5.000000000000e-02)	99	1.238479662600e-07	(1.200000000000e-01 9.957951534364e-02 5.000000000000e-02)	2901	2.482338864210e+00	(4.280000000000e+00 4.204846563605e-03 5.000000000000e-02)	53	1.368576890687e-11	(1.200000000000e-01 9.957951534364e-02 5.000000000000e-02)	2901
83                  	1.293404799783e-03	(7.960000000000e+00 4.204846563605e-03 5.000000000000e-02)	99	4.688671398883e-07	(2.000000000000e-01 9.957951534364e-02 5.000000000000e-02)	2902	2.482362570073e+00	(4.280000000000e+00 4.204846563605e-03 5.000000000000e-02)	53	5.181197171268e-11	(2.000000000000e-01 9.957951534364e-02 5.000000000000e-02)	2902
84                  	1.294079044528e-03	(7.960000000000e+00 4.204846563605e-03 5.000000000000e-02)	99	1.236782367860e-07	(1.200000000000e-01 9.957951534364e-02 5.000000000000e-02)	2901	2.482377600718e+00	(4.280000000000e+00 4.204846563605e-03 5.000000000000e-02)	53	1.366701302069e-11	(1.200000000000e-01 9.957951534364e-02 5.000000000000e-02)	2901