#      distance             U_x             U_y             U_z wallShearStr... wallShearStr... wallShearStr...               p           omega               k             nut
  5.5511169e-17      0.99945915   3.4811682e-22               0               0               0               0    0.0045411492       82.608716    1.447826e-05   1.7503882e-07
   0.0021021021      0.99944315   3.4811682e-22               0               0               0               0    0.0045567201       81.764539   1.4318683e-05   1.7489777e-07
   0.0042042042      0.99942715   3.4811682e-22               0               0               0               0    0.0045722909       80.920361   1.4159107e-05   1.7475671e-07
   0.0063063063      0.99941115   3.4811682e-22               0               0               0               0    0.0045878618       80.076183    1.399953e-05   1.7461566e-07
   0.0084084084      0.99939515   3.4811682e-22               0               0               0               0    0.0046034327       79.232005   1.3839954e-05   1.7447461e-07
    0.010510511      0.99937915   3.4811682e-22               0               0               0               0    0.0046190036       78.387828   1.3680378e-05   1.7433355e-07
    0.012612613      0.99936315   3.4811682e-22               0               0               0               0    0.0046345745        77.54365   1.3520801e-05    1.741925e-07
    0.014714715      0.99934715   3.4811682e-22               0               0               0               0    0.0046501454       76.699472   1.3361225e-05   1.7405145e-07
    0.016816817      0.99933115   3.4811682e-22               0               0               0               0    0.0046657163       75.855294   1.3201648e-05   1.7391039e-07
    0.018918919      0.99931515   3.4811682e-22               0               0               0               0    0.0046812872       75.011117   1.3042072e-05   1.7376934e-07
    0.021021021      0.99929915   3.4811682e-22               0               0               0               0     0.004696858       74.166939   1.2882495e-05   1.7362828e-07
    0.023123123      0.99927254   5.6845493e-22               0               0               0               0    0.0047231066       73.498687    1.275739e-05   1.7349596e-07
    0.025225225      0.99924558   5.6845493e-22               0               0               0               0    0.0047497043       72.836187   1.2633412e-05   1.7336392e-07
    0.027327327      0.99921861   5.6845493e-22               0               0               0               0    0.0047763021       72.173687   1.2509434e-05   1.7323188e-07
    0.029429429      0.99919165   5.6845493e-22               0               0               0               0    0.0048028998       71.511187   1.2385455e-05   1.7309984e-07
    0.031531532      0.99916469   5.6845493e-22               0               0               0               0    0.0048294975       70.848687   1.2261477e-05   1.7296781e-07
    0.033633634      0.99913773   5.6845493e-22               0               0               0               0    0.0048560952       70.186187   1.2137499e-05   1.7283577e-07
    0.035735736      0.99911077   5.6845493e-22               0               0               0               0    0.0048826929       69.523687   1.2013521e-05   1.7270373e-07
    0.037837838      0.99908381   5.6845493e-22               0               0               0               0    0.0049092907       68.861188   1.1889542e-05   1.7257169e-07
     0.03993994      0.99905684   5.6845493e-22               0               0               0               0    0.0049358884       68.198688   1.1765564e-05   1.7243965e-07
    0.042042042      0.99902988   5.6845493e-22               0               0               0               0    0.0049624861       67.536188   1.1641586e-05   1.7230761e-07
    0.044144144      0.99900292   5.6845493e-22               0               0               0               0    0.0049890838       66.873688   1.1517608e-05   1.7217558e-07
    0.046246246      0.99897596   5.6845493e-22               0               0               0               0    0.0050156815       66.211188   1.1393629e-05   1.7204354e-07
    0.048348348      0.99893512   1.0217747e-21               0               0               0               0    0.0050547296       65.615131   1.1282567e-05   1.7191563e-07
     0.05045045      0.99888746   1.0217747e-21               0               0               0               0    0.0050998906       65.051695   1.1177847e-05   1.7178976e-07
    0.052552553       0.9988398   1.0217747e-21               0               0               0               0    0.0051450516        64.48826   1.1073126e-05   1.7166388e-07
    0.054654655      0.99879215   1.0217747e-21               0               0               0               0    0.0051902126       63.924824   1.0968406e-05   1.7153801e-07
    0.056756757      0.99874449   1.0217747e-21               0               0               0               0    0.0052353736       63.361388   1.0863686e-05   1.7141214e-07
    0.058858859      0.99869683   1.0217747e-21               0               0               0               0    0.0052805346       62.797953   1.0758965e-05   1.7128626e-07
    0.060960961      0.99864917   1.0217747e-21               0               0               0               0    0.0053256955       62.234517   1.0654245e-05   1.7116039e-07
    0.063063063      0.99860152   1.0217747e-21               0               0               0               0    0.0053708565       61.671082   1.0549524e-05   1.7103451e-07
    0.065165165      0.99855386   1.0217747e-21               0               0               0               0    0.0054160175       61.107646   1.0444804e-05   1.7090864e-07
    0.067267267      0.99848055    1.526951e-21               0               0               0               0    0.0054903654       60.594619   1.0349831e-05   1.7078641e-07
    0.069369369      0.99840288    1.526951e-21               0               0               0               0    0.0055696679        60.09015   1.0256514e-05    1.706648e-07
    0.071471471      0.99832521    1.526951e-21               0               0               0               0    0.0056489704        59.58568   1.0163196e-05   1.7054318e-07
    0.073573574      0.99824755    1.526951e-21               0               0               0               0    0.0057282729        59.08121   1.0069879e-05   1.7042157e-07
    0.075675676      0.99816988    1.526951e-21               0               0               0               0    0.0058075754       58.576741   9.9765616e-06   1.7029996e-07
    0.077777778      0.99809221    1.526951e-21               0               0               0               0    0.0058868779       58.072271   9.8832441e-06   1.7017835e-07
     0.07987988      0.99795941   3.7813594e-21               0               0               0               0     0.006002869       57.587662   9.7937548e-06   1.7005834e-07
    0.081981982       0.9977787   3.7813594e-21               0               0               0               0    0.0061507391       57.120308   9.7075916e-06   1.6993971e-07
    0.084084084        0.997598   3.7813594e-21               0               0               0               0    0.0062986091       56.652955   9.6214284e-06   1.6982108e-07
    0.086186186       0.9974173   3.7813594e-21               0               0               0               0    0.0064464791       56.185602   9.5352652e-06   1.6970246e-07
    0.088288288      0.99723618   7.7135193e-21               0               0               0               0     0.006595178       55.718363   9.4491239e-06   1.6958384e-07
     0.09039039      0.99696599   7.7135193e-21               0               0               0               0    0.0069238413       55.276065   9.3677228e-06    1.694666e-07
    0.092492492       0.9966958   7.7135193e-21               0               0               0               0    0.0072525047       54.833766   9.2863218e-06   1.6934935e-07
    0.094594595      0.99642561   7.7135193e-21               0               0               0               0     0.007581168       54.391468   9.2049207e-06   1.6923211e-07
    0.096696697      0.83437255   9.0322358e-20               0  -0.00054359256  -5.7527545e-07               0    0.0079474519       61.565378    9.159031e-06   3.3090261e-07
    0.098798799      0.62033246   9.0322358e-20               0   -0.0012618622  -1.3354089e-06               0    0.0083258246       71.186666   9.1245525e-06    5.445617e-07
      0.1009009       0.3547991   8.4237943e-20               0   -0.0021426783  -2.7060535e-06               0    0.0084492872       83.294391   9.1681227e-06    8.079256e-07
       0.103003     0.020608064   8.4237943e-20               0   -0.0032402231   -4.890713e-06               0    0.0082328693       98.717362   9.3157577e-06   1.1375626e-06
     0.10510511   1.0765874e-16   1.5578918e-19               0   -0.0032619988  -6.4355684e-06               0    0.0075566001       99.668428   9.6928096e-06     1.14988e-06
     0.10720721   1.0618956e-16   1.9565304e-19               0   -0.0032126928  -7.7237981e-06               0     0.006925172       99.668428   1.0333422e-05   1.1412322e-06
     0.10930931   1.0618956e-16   1.9565304e-19               0   -0.0031628161  -8.6932449e-06               0     0.006405257       99.668428   1.1343186e-05   1.1324183e-06
     0.11141141   1.0462356e-16   2.3105494e-19               0   -0.0031135381  -9.6600671e-06               0    0.0060958913        191.9267   0.00045255504   1.1236095e-06
     0.11351351   1.0307243e-16   2.7580356e-19               0   -0.0030649589  -1.0597806e-05               0    0.0058491926       314.58016    0.0010849046   1.1148822e-06
     0.11561562   1.0307243e-16   2.7580356e-19               0   -0.0030188393  -1.1411825e-05               0    0.0056726686       480.72504    0.0021249044   1.1065036e-06
     0.11771772   1.0157633e-16   3.0357523e-19               0   -0.0029744882  -1.1966286e-05               0    0.0055175204       608.84107    0.0031039721   1.0983912e-06
     0.11981982   1.0157633e-16   3.0357523e-19               0   -0.0029318689  -1.2266598e-05               0    0.0053833023       699.72107     0.004023378   1.0905393e-06
     0.12192192   1.0013784e-16   3.0682387e-19               0   -0.0028918118  -1.2260683e-05               0    0.0052672554       764.60767     0.004776955   1.0830794e-06
     0.12402402   1.0013784e-16   3.0682387e-19               0   -0.0028525132  -1.2164124e-05               0    0.0051565871        821.8003    0.0054814472   1.0757355e-06
     0.12612613     9.87556e-17   2.9959821e-19               0   -0.0028161143  -1.1912887e-05               0    0.0050614049       857.85433    0.0059753408   1.0688419e-06
     0.12822823   9.7419293e-17   2.8750115e-19               0   -0.0027801164  -1.1647382e-05               0    0.0049689214       891.54806    0.0064408266   1.0620106e-06
     0.13033033   9.7419293e-17   2.8750115e-19               0   -0.0027462534  -1.1310707e-05               0    0.0048911836       913.05338    0.0067555274    1.055511e-06
     0.13243243    9.611838e-17    2.707379e-19               0   -0.0027128647  -1.0961024e-05               0    0.0048168795       932.27394    0.0070384289   1.0490829e-06
     0.13453453    9.611838e-17    2.707379e-19               0   -0.0026809423  -1.0571136e-05               0    0.0047531876       944.43306    0.0072230492   1.0428757e-06
     0.13663664   9.4830556e-17   2.5126584e-19               0   -0.0026494398  -1.0182722e-05               0     0.004691182       954.84513    0.0073816853   1.0367279e-06
     0.13873874   9.4830556e-17   2.5126584e-19               0   -0.0026189769  -9.7979576e-06               0    0.0046333505       960.93238    0.0074759978   1.0307273e-06
     0.14084084   9.3546002e-17   2.3299589e-19               0   -0.0025888512  -9.4237754e-06               0    0.0045754719       965.94801    0.0075537922   1.0247725e-06
     0.14294294   9.3546002e-17   2.3299589e-19               0   -0.0025596328  -9.0780779e-06               0    0.0045174665       968.07926    0.0075871263   1.0189411e-06
     0.14504505   9.2261125e-17   2.1597654e-19               0   -0.0025306379  -8.7389703e-06               0    0.0044594544       969.71807    0.0076127553     1.01314e-06
     0.14714715   9.2261125e-17   2.1597654e-19               0   -0.0025025831  -8.4275813e-06               0    0.0044014146       969.28556    0.0076059749   1.0074662e-06
     0.14924925    9.097645e-17   1.9999188e-19               0   -0.0024745853  -8.1176039e-06               0    0.0043434434        968.7723    0.0075979324   1.0018003e-06
     0.15135135    9.097645e-17   1.9999188e-19               0    -0.002447684  -7.8347854e-06               0    0.0042867913        966.7052    0.0075656061   9.9628633e-07
     0.15345345    9.097645e-17   1.9999188e-19               0   -0.0024207828  -7.5519668e-06               0    0.0042301392       964.63809    0.0075332798   9.9077232e-07
     0.15555556   8.9694578e-17   1.8488974e-19               0   -0.0023948756  -7.2885917e-06               0    0.0041752612       961.72304    0.0074879247   9.8540158e-07
     0.15765766   8.9694578e-17   1.8488974e-19               0   -0.0023691565  -7.0288953e-06               0    0.0041207187       958.64756    0.0074401047   9.8005794e-07
     0.15975976   8.8420194e-17   1.7041967e-19               0   -0.0023441463  -6.7766029e-06               0    0.0040677225       955.24246    0.0073874142   9.7482218e-07
     0.16186186   8.8420194e-17   1.7041967e-19               0   -0.0023196828  -6.5300213e-06               0     0.004015919       951.58313    0.0073309671   9.6966963e-07
     0.16396396   8.7161408e-17   1.5580012e-19               0   -0.0022955308    -6.28547e-06               0    0.0039651456       947.86222    0.0072736944    9.645681e-07
     0.16606607   8.7161408e-17   1.5580012e-19               0   -0.0022724941  -6.0481906e-06               0    0.0039180618        943.9208    0.0072134651   9.5964931e-07
     0.16816817   8.7161408e-17   1.5580012e-19               0   -0.0022494575  -5.8109112e-06               0     0.003870978       939.97939    0.0071532358   9.5473052e-07
     0.17027027   8.5934908e-17    1.413057e-19               0   -0.0022275265  -5.5908704e-06               0    0.0038281886       936.02097    0.0070932366   9.4999692e-07
     0.17237237   8.5934908e-17    1.413057e-19               0   -0.0022058722  -5.3751421e-06               0    0.0037864734       932.05829    0.0070332949   9.4530965e-07
     0.17447447   8.4727441e-17   1.2834682e-19               0   -0.0021846344  -5.1664338e-06               0    0.0037453107       928.13217    0.0069740947   9.4069434e-07
     0.17657658   8.4727441e-17   1.2834682e-19               0   -0.0021643359  -4.9735552e-06               0    0.0037053937       924.28847    0.0069165664    9.362413e-07
     0.17867868   8.4727441e-17   1.2834682e-19               0   -0.0021440375  -4.7806767e-06               0    0.0036654767       920.44477    0.0068590382   9.3178827e-07
     0.18078078   8.3558364e-17   1.1607528e-19               0   -0.0021248439  -4.5983791e-06               0    0.0036254508       916.71353     0.006803625   9.2753713e-07
     0.18288288   8.3558364e-17   1.1607528e-19               0   -0.0021060426  -4.4198385e-06               0    0.0035853862       913.02222    0.0067489629   9.2335769e-07
     0.18498498   8.2434889e-17   1.0429572e-19               0   -0.0020873769  -4.2424823e-06               0    0.0035455445       909.34689    0.0066945868   9.1920392e-07
     0.18708709   8.2434889e-17   1.0429572e-19               0   -0.0020700861  -4.0771328e-06               0    0.0035079614       905.83352      0.00664311   9.1531043e-07
     0.18918919   8.2434889e-17   1.0429572e-19               0   -0.0020527952  -3.9117833e-06               0    0.0034703784       902.32016    0.0065916332   9.1141695e-07
     0.19129129    8.136313e-17   9.3029735e-20               0   -0.0020360478  -3.7511275e-06               0    0.0034345138       898.88062    0.0065414196   9.0762979e-07
     0.19339339    8.136313e-17   9.3029735e-20               0   -0.0020202654  -3.5988069e-06               0    0.0034017011       895.57217    0.0064934493   9.0403145e-07
      0.1954955    8.136313e-17   9.3029735e-20               0   -0.0020044829  -3.4464863e-06               0    0.0033688883       892.26373    0.0064454789   9.0043312e-07
      0.1975976   8.0349313e-17   8.2338183e-20               0   -0.0019895179  -3.3014213e-06               0    0.0033387491       889.09059     0.006399716    8.969998e-07
      0.1996997   8.0349313e-17   8.2338183e-20               0   -0.0019752304  -3.1623688e-06               0    0.0033108253       886.02958    0.0063557821   8.9370324e-07
      0.2018018   8.0349313e-17   8.2338183e-20               0   -0.0019609428  -3.0233162e-06               0    0.0032829016       882.96857    0.0063118483   8.9040667e-07
      0.2039039   7.9398792e-17   7.2318581e-20               0   -0.0019476044  -2.8924651e-06               0    0.0032581329       880.08725    0.0062707434   8.8730735e-07
     0.20600601   7.9398792e-17   7.2318581e-20               0   -0.0019347839  -2.7660882e-06               0    0.0032350856       877.30396    0.0062311818   8.8431564e-07
     0.20810811   7.9398792e-17   7.2318581e-20               0   -0.0019219634  -2.6397114e-06               0    0.0032120383       874.52066    0.0061916202   8.8132392e-07
     0.21021021   7.8516318e-17   6.2891718e-20               0   -0.0019100846  -2.5210609e-06               0    0.0031917467       871.93007    0.0061550093   8.7853329e-07
     0.21231231   7.8516318e-17   6.2891718e-20               0   -0.0018986951  -2.4064246e-06               0    0.0031728868       869.43959    0.0061199314   8.7584713e-07
     0.21441441   7.8516318e-17   6.2891718e-20               0   -0.0018873056  -2.2917883e-06               0    0.0031540269       866.94911    0.0060848535   8.7316097e-07
     0.21651652   7.7706314e-17   5.4074948e-20               0   -0.0018767083  -2.1842811e-06               0    0.0031363141       864.62905    0.0060523259   8.7064814e-07
     0.21861862   7.7706314e-17   5.4074948e-20               0    -0.001866691   -2.081993e-06               0    0.0031194411       862.43374    0.0060216654    8.682622e-07
     0.22072072   7.7706314e-17   5.4074948e-20               0   -0.0018566737  -1.9797049e-06               0    0.0031025681       860.23844    0.0059910049   8.6587626e-07
     0.22282282   7.6970095e-17   4.6052653e-20               0   -0.0018471704  -1.8825084e-06               0    0.0030862543       858.15802    0.0059620311    8.636051e-07
     0.22492492   7.6970095e-17   4.6052653e-20               0   -0.0018384317  -1.7928877e-06               0    0.0030707727       856.24854    0.0059355669   8.6150473e-07
     0.22702703   7.6970095e-17   4.6052653e-20               0   -0.0018296931  -1.7032671e-06               0     0.003055291       854.33907    0.0059091027   8.5940435e-07
     0.22912913   7.6306073e-17   3.8804979e-20               0   -0.0018211048  -1.6151768e-06               0    0.0030401324       852.46404    0.0058831361   8.5733819e-07
     0.23123123   7.6306073e-17   3.8804979e-20               0   -0.0018135323   -1.537421e-06               0     0.003027155       850.82159    0.0058605298   8.5550299e-07
     0.23333333   7.6306073e-17   3.8804979e-20               0   -0.0018059598  -1.4596651e-06               0    0.0030141775       849.17915    0.0058379235   8.5366779e-07
     0.23543544   7.6306073e-17   3.8804979e-20               0   -0.0017983872  -1.3819093e-06               0    0.0030012001       847.53671    0.0058153171   8.5183258e-07
     0.23753754   7.5711286e-17    3.232457e-20               0    -0.001791607  -1.3129093e-06               0    0.0029902002        846.0772    0.0057953181   8.5018045e-07
     0.23963964   7.5711286e-17    3.232457e-20               0   -0.0017850833  -1.2467432e-06               0    0.0029798403        844.6769    0.0057761628   8.4858757e-07
     0.24174174   7.5711286e-17    3.232457e-20               0   -0.0017785596  -1.1805771e-06               0    0.0029694805        843.2766    0.0057570076   8.4699469e-07
     0.24384384   7.5181718e-17   2.6716439e-20               0   -0.0017722944   -1.117539e-06               0    0.0029596829       841.93583    0.0057386911   8.4546238e-07
     0.24594595   7.5181718e-17   2.6716439e-20               0   -0.0017666997  -1.0626113e-06               0     0.002951343       840.74941    0.0057225496   8.4408713e-07
     0.24804805   7.5181718e-17   2.6716439e-20               0   -0.0017611049  -1.0076835e-06               0    0.0029430032         839.563    0.0057064081   8.4271188e-07
     0.25015015   7.5181718e-17   2.6716439e-20               0   -0.0017555102  -9.5275574e-07               0    0.0029346633       838.37658    0.0056902665   8.4133664e-07
     0.25225225   7.4712171e-17   2.1965409e-20               0   -0.0017504786   -9.046441e-07               0    0.0029275869       837.31849     0.005675916   8.4009495e-07
     0.25435435   7.4712171e-17   2.1965409e-20               0   -0.0017456951   -8.595328e-07               0    0.0029210667        836.3169    0.0056623539   8.3891204e-07
     0.25645646   7.4712171e-17   2.1965409e-20               0   -0.0017409115   -8.144215e-07               0    0.0029145464       835.31531    0.0056487918   8.3772914e-07
     0.25855856   7.4297081e-17    1.794104e-20               0   -0.0017361281  -7.6931238e-07               0    0.0029080266       834.31376    0.0056352303   8.3654629e-07
     0.26066066   7.4297081e-17    1.794104e-20               0   -0.0017320526  -7.3222828e-07               0    0.0029031663       833.47039     0.005623858    8.355331e-07
     0.26276276   7.4297081e-17    1.794104e-20               0   -0.0017279771  -6.9514417e-07               0     0.002898306       832.62702    0.0056124856   8.3451992e-07
     0.26486486   7.4297081e-17    1.794104e-20               0   -0.0017239016  -6.5806007e-07               0    0.0028934457       831.78364    0.0056011133   8.3350674e-07
     0.26696697   7.3932077e-17   1.4521733e-20               0   -0.0017199451  -6.2231209e-07               0    0.0028886622       830.96644    0.0055901005   8.3252237e-07
     0.26906907   7.3932077e-17   1.4521733e-20               0   -0.0017164873  -5.9216178e-07               0    0.0028842005       830.25887     0.005580594    8.316587e-07
     0.27117117   7.3932077e-17   1.4521733e-20               0   -0.0017130296  -5.6201147e-07               0    0.0028797389       829.55131    0.0055710874   8.3079504e-07
     0.27327327   7.3932077e-17   1.4521733e-20               0   -0.0017095718  -5.3186115e-07               0    0.0028752772       828.84374    0.0055615809   8.2993137e-07
     0.27537538   7.3612372e-17   1.1698675e-20               0    -0.001706255   -5.033462e-07               0    0.0028706233       828.16693    0.0055524942   8.2910209e-07
     0.27747748   7.3612372e-17   1.1698675e-20               0   -0.0017033229  -4.7929472e-07               0    0.0028654446       827.57407    0.0055445538   8.2836667e-07
     0.27957958   7.3612372e-17   1.1698675e-20               0   -0.0017003907  -4.5524324e-07               0    0.0028602659        826.9812    0.0055366134   8.2763125e-07
     0.28168168   7.3612372e-17   1.1698675e-20               0   -0.0016974586  -4.3119176e-07               0    0.0028550871       826.38834    0.0055286729   8.2689583e-07
     0.28378378   7.3331666e-17   9.3787034e-21               0   -0.0016946227  -4.0833211e-07               0    0.0028498509       825.81605    0.0055210123   8.2618402e-07
     0.28588589   7.3331666e-17   9.3787034e-21               0   -0.0016921219  -3.8962471e-07               0    0.0028444143       825.31547    0.0055143262   8.2555449e-07
     0.28798799   7.3331666e-17   9.3787034e-21               0   -0.0016896212   -3.709173e-07               0    0.0028389777       824.81489    0.0055076401   8.2492495e-07
     0.29009009   7.3331666e-17   9.3787034e-21               0   -0.0016871204   -3.522099e-07               0    0.0028335411        824.3143     0.005500954   8.2429542e-07
     0.29219219   7.3083037e-17   7.5634696e-21               0    -0.001684638   -3.337736e-07               0    0.0028281265       823.81746    0.0054943185   8.2367041e-07
     0.29429429   7.3083037e-17   7.5634696e-21               0   -0.0016824797  -3.2012259e-07               0    0.0028231004       823.38651    0.0054885765   8.2312531e-07
      0.2963964   7.3083037e-17   7.5634696e-21               0   -0.0016803214  -3.0647159e-07               0    0.0028180743       822.95556    0.0054828344   8.2258021e-07
      0.2984985   7.3083037e-17   7.5634696e-21               0   -0.0016781631  -2.9282058e-07               0    0.0028130482       822.52462    0.0054770923   8.2203511e-07
      0.3006006   7.3083037e-17   7.5634696e-21               0   -0.0016760048  -2.7916957e-07               0    0.0028080222       822.09367    0.0054713503   8.2149001e-07
      0.3027027   7.2859579e-17   6.2871378e-21               0    -0.001674046   -2.688467e-07               0    0.0028033962       821.70026    0.0054661167   8.2099424e-07
      0.3048048   7.2859579e-17   6.2871378e-21               0   -0.0016721516   -2.595973e-07               0    0.0027988992       821.31896    0.0054610472   8.2051437e-07
     0.30690691   7.2859579e-17   6.2871378e-21               0   -0.0016702572  -2.5034789e-07               0    0.0027944023       820.93765    0.0054559776   8.2003451e-07
     0.30900901   7.2859579e-17   6.2871378e-21               0   -0.0016683627  -2.4109848e-07               0    0.0027899053       820.55635    0.0054509081   8.1955464e-07
     0.31111111   7.2654951e-17    5.453759e-21               0   -0.0016665351  -2.3280485e-07               0    0.0027856335       820.18634    0.0054459917   8.1909131e-07
     0.31321321   7.2654951e-17    5.453759e-21               0   -0.0016648451  -2.2648194e-07               0     0.002781826       819.83962    0.0054413913   8.1866208e-07
     0.31531532   7.2654951e-17    5.453759e-21               0   -0.0016631551  -2.2015902e-07               0    0.0027780185        819.4929    0.0054367908   8.1823285e-07
     0.31741742   7.2654951e-17    5.453759e-21               0   -0.0016614651   -2.138361e-07               0    0.0027742109       819.14618    0.0054321904   8.1780362e-07
     0.31951952   7.2654951e-17    5.453759e-21               0   -0.0016597751  -2.0751319e-07               0    0.0027704034       818.79946    0.0054275899   8.1737439e-07
     0.32162162   7.2465131e-17   4.8441952e-21               0     -0.00165821   -2.026827e-07               0    0.0027666093        818.4711    0.0054232393   8.1697614e-07
     0.32372372   7.2465131e-17   4.8441952e-21               0   -0.0016566841  -1.9832097e-07               0    0.0027628194        818.1485    0.0054189671   8.1658761e-07
     0.32582583   7.2465131e-17   4.8441952e-21               0   -0.0016551582  -1.9395924e-07               0    0.0027590296       817.82591    0.0054146949   8.1619909e-07
     0.32792793   7.2465131e-17   4.8441952e-21               0   -0.0016536324  -1.8959751e-07               0    0.0027552398       817.50331    0.0054104226   8.1581056e-07
     0.33003003    7.228714e-17   4.4630524e-21               0   -0.0016521135   -1.853453e-07               0     0.002751381       817.18161    0.0054061627   8.1542378e-07
     0.33213213    7.228714e-17   4.4630524e-21               0   -0.0016507151  -1.8297085e-07               0    0.0027463416       816.87532    0.0054021139   8.1506688e-07
     0.33423423    7.228714e-17   4.4630524e-21               0   -0.0016493167  -1.8059639e-07               0    0.0027413021       816.56902     0.005398065   8.1470998e-07
     0.33633634    7.228714e-17   4.4630524e-21               0   -0.0016479183  -1.7822194e-07               0    0.0027362626       816.26272    0.0053940162   8.1435308e-07
     0.33843844    7.228714e-17   4.4630524e-21               0   -0.0016465199  -1.7584748e-07               0    0.0027312231       815.95643    0.0053899673   8.1399618e-07
     0.34054054   7.2117053e-17   4.3591477e-21               0   -0.0016451399  -1.7382407e-07               0    0.0027259853       815.65212    0.0053859463   8.1364382e-07
     0.34264264   7.2117053e-17   4.3591477e-21               0   -0.0016438313  -1.7316488e-07               0     0.002719977       815.35556    0.0053820333   8.1330909e-07
     0.34474474   7.2117053e-17   4.3591477e-21               0   -0.0016425228  -1.7250569e-07               0    0.0027139688         815.059    0.0053781203   8.1297436e-07
     0.34684685   7.2117053e-17   4.3591477e-21               0   -0.0016412142   -1.718465e-07               0    0.0027079605       814.76244    0.0053742073   8.1263963e-07
     0.34894895   7.2117053e-17   4.3591477e-21               0   -0.0016399057   -1.711873e-07               0    0.0027019522       814.46588    0.0053702944    8.123049e-07
     0.35105105   7.1950821e-17   4.4432433e-21               0   -0.0016386092  -1.7076039e-07               0    0.0026959787       814.17026    0.0053663953   8.1197311e-07
     0.35315315   7.1950821e-17   4.4432433e-21               0   -0.0016373593  -1.7123323e-07               0    0.0026901401        813.8783      0.00536255   8.1165268e-07