#      distance             U_x             U_y             U_z wallShearStr... wallShearStr... wallShearStr...               p           omega               k             nut
    0.001215373      0.62966148   9.8890649e-05               0               0               0               0   0.00015941414       356.91806    0.0041861408    1.516023e-05
   0.0020572852      0.68699727   0.00011961443               0               0               0               0   0.00016351349       180.47874    0.0041284445   2.5066828e-05
   0.0029273097      0.72303687   0.00014421619               0               0               0               0   0.00016874792       119.73053    0.0039713888   3.4680969e-05
   0.0038263852      0.75019319   0.00017327683               0               0               0               0   0.00017468322       89.971149     0.003843092   4.3783391e-05
   0.0047554818       0.7724342   0.00020662557               0               0               0               0   0.00018102175       72.469103      0.00372491   5.2171806e-05
   0.0057156019       0.7915954   0.00024413621               0               0               0               0   0.00018754809       61.054274    0.0036077096   5.9648336e-05
   0.0067077814      0.80869419   0.00028577629               0               0               0               0   0.00019408608       53.114282    0.0034871786   6.6051169e-05
   0.0077330908      0.82435885   0.00033159013               0               0               0               0   0.00020047375       47.357407    0.0033608557   7.1240036e-05
   0.0087926364      0.83901803   0.00038178967               0               0               0               0   0.00020655498       43.071677     0.003226876   7.5007301e-05
   0.0098875613       0.8530159   0.00043682769               0               0               0               0   0.00021216766       39.820573    0.0030828109   7.6910154e-05
    0.011019047      0.86665986   0.00049741377               0               0               0               0   0.00021711643       37.303048    0.0029250877   7.6703031e-05
    0.012188314      0.88019945   0.00056462986               0               0               0               0   0.00022119264       35.292353    0.0027491289   7.4569806e-05
    0.013396624      0.89381713   0.00063994433               0               0               0               0   0.00022424506       33.604006    0.0025496142   7.0738488e-05
    0.014645281      0.90763941    0.0007248969               0               0               0               0   0.00022621774       32.077527      0.00232121   6.5469061e-05
    0.015935632      0.92171108   0.00082047308               0               0               0               0   0.00022713446        30.57373    0.0020602329   5.9221637e-05
    0.017269069        0.935914   0.00092619789               0               0               0               0   0.00022705934        28.98637    0.0017678526   5.2724331e-05
    0.018647031      0.94987142    0.0010390281               0               0               0               0   0.00022606953        27.28242    0.0014549971   4.6778831e-05
    0.020071004      0.96302337    0.0011539399               0               0               0               0   0.00022430321       25.487105    0.0011401458   4.1376246e-05
    0.021542526      0.97503863    0.0012670412               0               0               0               0   0.00022199237       23.532491   0.00083494329   3.4512359e-05
    0.023063183       0.9858752    0.0013758097               0               0               0               0   0.00021934091       21.086928   0.00054507261   2.5313146e-05
    0.024634616      0.99494019    0.0014704044               0               0               0               0   0.00021642612       17.524899    0.0002926766   1.5827497e-05
    0.026258521       1.0008357    0.0015309193               0               0               0               0   0.00021334144       12.690605   0.00011663541    8.127725e-06
     0.02793665       1.0032373    0.0015527792               0               0               0               0   0.00021032627       8.3023431   3.1259106e-05   3.1491567e-06
    0.029670814       1.0037227    0.0015546843               0               0               0               0   0.00020751464       6.2087226   5.6804638e-06   8.3613375e-07
    0.031462883       1.0037572    0.0015516442               0               0               0               0   0.00020480181       5.7843371   1.2888145e-06    2.214171e-07
    0.033314791        1.003755    0.0015479779               0               0               0               0   0.00020204765       5.7421174   8.3849178e-07   1.4601429e-07
    0.035228536       1.0037533    0.0015426546               0               0               0               0   0.00019914549       5.7389296   8.0335791e-07   1.3997947e-07
    0.037206184        1.003752    0.0015394084               0               0               0               0   0.00019609851       5.7387069   8.0084833e-07   1.3954732e-07
    0.039249867       1.0037503    0.0015416796               0               0               0               0   0.00019304845       5.7386885   8.0067762e-07     1.39518e-07
     0.04136179       1.0037478    0.0015431907               0               0               0               0    0.0001900584       5.7386827   8.0066573e-07   1.3951606e-07
    0.043544233       1.0037449    0.0015420595               0               0               0               0   0.00018707378       5.7386769   8.0066401e-07    1.395159e-07
     0.04579955       1.0037419    0.0015402024               0               0               0               0   0.00018404168       5.7386703   8.0066279e-07   1.3951585e-07
    0.048130175       1.0037393    0.0015380033               0               0               0               0   0.00018092824       5.7386628   8.0066148e-07   1.3951581e-07
    0.050538621        1.003741     0.001536774               0               0               0               0   0.00017773935       5.7386551   8.0066026e-07   1.3951578e-07
    0.053027488       1.0037515    0.0015416888               0               0               0               0   0.00017457657       5.7386466   8.0065902e-07   1.3951577e-07
    0.055599461       1.0037642    0.0015536577               0               0               0               0   0.00017162863       5.7386351   8.0065712e-07   1.3951572e-07
    0.058257315       1.0037727    0.0015640884               0               0               0               0    0.0001689797       5.7386216   8.0065475e-07   1.3951563e-07
    0.061003917       1.0037781    0.0015704532               0               0               0               0   0.00016656346       5.7386072   8.0065236e-07   1.3951557e-07
    0.063842231       1.0037825    0.0015750215               0               0               0               0   0.00016432705       5.7385916   8.0064983e-07   1.3951551e-07
     0.06677532       1.0037859    0.0015774571               0               0               0               0   0.00016224821       5.7385745   8.0064708e-07   1.3951545e-07
    0.069806347       1.0037891    0.0015776855               0               0               0               0   0.00016032269       5.7385557   8.0064411e-07   1.3951538e-07
    0.072938584       1.0037919    0.0015751795               0               0               0               0   0.00015855331        5.738535   8.0064085e-07   1.3951532e-07
    0.076175409       1.0037924    0.0015702517               0               0               0               0   0.00015689535       5.7385123    8.006373e-07   1.3951525e-07
    0.079520315       1.0037897    0.0015631032               0               0               0               0   0.00015528061       5.7384876   8.0063345e-07   1.3951518e-07
    0.082976911        1.003785    0.0015553178               0               0               0               0   0.00015367814       5.7384607   8.0062926e-07   1.3951511e-07
    0.086548926       1.0037794    0.0015478787               0               0               0               0   0.00015209408       5.7384315   8.0062471e-07   1.3951502e-07
    0.090240215       1.0037733    0.0015408094               0               0               0               0   0.00015053143       5.7384003   8.0061981e-07   1.3951493e-07
     0.09405476       1.0037678    0.0015339425               0               0               0               0    0.0001489834       5.7383735   8.0061551e-07   1.3951483e-07
