#      distance             U_x             U_y             U_z wallShearStr... wallShearStr... wallShearStr...               p           omega               k             nut
    0.034013023      0.99914624   5.1116912e-06               0               0               0               0    0.0048447178       69.038364    1.191998e-05   1.7265717e-07
    0.056204344      0.99878788   9.1880574e-06               0               0               0               0    0.0052041923       62.950822   1.0786217e-05   1.7134348e-07
    0.072112662      0.99830597   1.3730732e-05               0               0               0               0    0.0056410175       59.102574   1.0073302e-05   1.7043758e-07
    0.083516877      0.99780597   3.4002945e-05               0               0               0               0    0.0062066061       56.573827   9.6065899e-06   1.6980624e-07
     0.09169223      0.99666884   6.9361926e-05               0               0               0               0    0.0069810576       54.867539   9.2925122e-06   1.6936265e-07
    0.097552904      0.99563827   0.00081220161               0  -1.3873716e-06  -1.4682336e-09               0    0.0083409723       53.720053    9.077891e-06   1.6945756e-07
     0.10156632      0.98101424     0.000757489               0  -4.1316677e-06  -5.6374211e-09               0    0.0087421032        99.64936   9.1320589e-06   8.2139285e-08
     0.10474707      0.96809471    0.0014008959               0  -5.4262506e-06  -1.0253419e-08               0    0.0076963116       99.668428   9.5179818e-06   4.4801023e-08
     0.10802554      0.95488353    0.0017593619               0   -5.298398e-06  -1.3441793e-08               0    0.0065725876       99.668428   1.0337204e-05   3.2892603e-08
     0.11140473      0.94080164    0.0020777048               0  -5.1663527e-06  -1.6023234e-08               0    0.0060501513       99.820912   1.3442102e-05   3.0182374e-08
     0.11488774      0.92685349    0.0024800957               0  -5.0354629e-06  -1.8467233e-08               0    0.0057144524       467.19688    0.0017676054   3.1760638e-06
     0.11847776      0.91340019    0.0027298256               0   -4.909809e-06  -2.0035052e-08               0    0.0054562733       658.54689    0.0035111196   5.3245501e-06
     0.12217807      0.90046495    0.0027590382               0  -4.7902519e-06   -2.032384e-08               0    0.0052490512       782.36208    0.0049553308   6.3251451e-06
     0.12599207      0.88803546    0.0026940633               0  -4.6764444e-06  -1.9793128e-08               0    0.0050607521       862.96019    0.0060288482   6.9764876e-06
     0.12992323      0.87601904    0.0025852834               0  -4.5675629e-06  -1.8875313e-08               0    0.0048993251       913.97055    0.0067626323   7.3887114e-06
     0.13397518       0.8643209     0.002434544               0  -4.4624094e-06  -1.7712147e-08               0    0.0047655929       944.61841    0.0072237659   7.6363707e-06
     0.13815161      0.85274046    0.0022594463               0  -4.3596177e-06  -1.6435435e-08               0    0.0046500573       961.55933    0.0074851901   7.4787884e-06
     0.14245635      0.84118943    0.0020951583               0  -4.2582564e-06  -1.5195447e-08               0    0.0045323087       969.17555    0.0076042346   7.2090937e-06
     0.14689334      0.82963549    0.0019421159               0  -4.1579957e-06  -1.4045727e-08               0    0.0044088931        970.4223    0.0076238112   6.8883066e-06
     0.15146665      0.81808336    0.0017983778               0  -4.0588367e-06  -1.2974018e-08               0    0.0042835906       967.32353    0.0075752004   6.5483389e-06
     0.15618046      0.80655645    0.0016625755               0  -3.9609773e-06  -1.1965397e-08               0    0.0041586622       961.29288    0.0074810419   6.2096045e-06
     0.16103908      0.79509686     0.001532457               0  -3.8647881e-06  -1.0994984e-08               0    0.0040352764        953.3225    0.0073575014   5.8850009e-06
     0.16604698      0.78377754    0.0014009943               0  -3.7709505e-06  -1.0038948e-08               0    0.0039155744       944.12169    0.0072161681   5.5829123e-06
     0.17120873      0.77274854    0.0012706568               0  -3.6799511e-06  -9.1167711e-09               0    0.0038075462        934.2594    0.0070661958   5.3128184e-06
     0.17652907      0.76189068    0.0011541272               0  -3.5919047e-06  -8.2595334e-09               0    0.0037076034       924.36669    0.0069173431   5.0694503e-06
     0.18201286      0.75137804    0.0010437784               0  -3.5073325e-06  -7.4561635e-09               0    0.0036024284       914.50864    0.0067705882   4.8580301e-06
     0.18766512      0.74127548   0.00093785365               0  -3.4268718e-06  -6.6894833e-09               0    0.0034954128       904.81624    0.0066278334   4.6741271e-06
     0.19349103      0.73163794   0.00083654702               0  -3.3508801e-06  -5.9595299e-09               0     0.003397265       895.32898    0.0064895731   4.5150813e-06
     0.19949593      0.72252144   0.00074040587               0  -3.2796708e-06  -5.2694803e-09               0     0.003310783        886.2004    0.0063579156   4.3802187e-06
     0.20568532      0.71397412   0.00065030706               0  -3.2135079e-06  -4.6215819e-09               0     0.003235317       877.57624    0.0062347729   4.2690285e-06
     0.21206485      0.70603869   0.00056553832               0  -3.1526074e-06   -4.015217e-09               0    0.0031730085       869.56237    0.0061214233   4.1806862e-06
     0.21864039      0.69875492   0.00048625568               0  -3.0971083e-06  -3.4527598e-09               0    0.0031191066        862.2312    0.0060186407   4.1145666e-06
     0.22541793      0.69213466   0.00041411716               0   -3.046991e-06  -2.9399481e-09               0    0.0030658499       855.62045    0.0059267046   4.0695874e-06
     0.23240371       0.6861636   0.00034894424               0  -3.0020695e-06  -2.4789839e-09               0    0.0030177686       849.73193    0.0058454082   4.0442618e-06
      0.2396041      0.68081513   0.00029067075               0  -2.9620571e-06  -2.0704972e-09               0    0.0029782916       844.53884    0.0057741788   4.0368862e-06
      0.2470257      0.67605311   0.00024024101               0   -2.926603e-06  -1.7163091e-09               0    0.0029457217       839.99377    0.0057121961   4.0455836e-06
     0.25467531      0.67183083   0.00019751855               0  -2.8953078e-06   -1.414739e-09               0    0.0029185117        836.0346    0.0056584762   4.0683099e-06
     0.26255994      0.66809824   0.00016133039               0  -2.8677738e-06  -1.1593449e-09               0    0.0028975488       832.59379    0.0056119961   4.1029668e-06
      0.2706868      0.66481603   0.00013058311               0  -2.8436419e-06  -9.4403662e-10               0    0.0028814958       829.61214    0.0055718736   4.1475047e-06
     0.27906334      0.66194116   0.00010519746               0  -2.8225438e-06  -7.6515626e-10               0    0.0028625253       827.03998    0.0055373775   4.2021206e-06
     0.28769723      0.65941698   8.4335685e-05               0  -2.8040538e-06  -6.1973261e-10               0       0.0028396       824.81565    0.0055076327   4.2654668e-06
     0.29659637      0.65718125   6.8012641e-05               0  -2.7877087e-06  -5.0635386e-10               0    0.0028171928       822.86566    0.0054816227   4.3355059e-06
     0.30576892      0.65517186   5.6535541e-05               0   -2.773052e-06  -4.2369436e-10               0    0.0027964014       821.11161    0.0054582789   4.4099047e-06
     0.31522326      0.65333179   4.9041587e-05               0  -2.7596892e-06  -3.6575513e-10               0    0.0027773548       819.48762    0.0054367107   4.4863533e-06
     0.32496807      0.65162487   4.3560234e-05               0  -2.7473308e-06   -3.247772e-10               0    0.0027616314       817.94561    0.0054162708   4.5634634e-06
     0.33501226      0.65002433   4.0132901e-05               0  -2.7357464e-06   -2.981938e-10               0    0.0027416806        816.4514    0.0053965013   4.6402247e-06
     0.34536503      0.64849488   3.9198564e-05               0  -2.7246918e-06  -2.8590486e-10               0    0.0027127447       814.97424     0.005376993   4.7155239e-06
     0.35603587      0.64700007   3.9954773e-05               0  -2.7139211e-06  -2.8519219e-10               0    0.0026816086       813.48609    0.0053573753    4.788252e-06
     0.36703454      0.64551236   4.1914346e-05               0  -2.7032344e-06  -2.9231047e-10               0    0.0026525728        811.9652    0.0053373629   4.8575344e-06
     0.37837111      0.64401229   4.4553635e-05               0  -2.6924955e-06  -3.0384513e-10               0    0.0026255371       810.39522    0.0053167438   4.9226588e-06
     0.39005597      0.64249039    4.729901e-05               0  -2.6816245e-06  -3.1736584e-10               0    0.0025988765       808.76788    0.0052954135   4.9830616e-06
     0.40209982      0.64093986   5.0289001e-05               0  -2.6705632e-06  -3.3312926e-10               0    0.0025674712       807.07987    0.0052733333   5.0384187e-06
     0.41451368      0.63935058   5.4044192e-05               0  -2.6592259e-06  -3.5266036e-10               0    0.0025306892       805.32784    0.0052504641   5.0882166e-06
     0.42730893      0.63770075   5.8425273e-05               0  -2.6474903e-06  -3.7521921e-10               0    0.0024934997       803.50093    0.0052266706   5.1340434e-06
     0.44049728      0.63597419   6.2698223e-05               0  -2.6352618e-06   -3.975603e-10               0    0.0024583206       801.58856    0.0052018218   5.1755227e-06
      0.4540908      0.63417019   6.6333293e-05               0  -2.6225249e-06   -4.170802e-10               0    0.0024245349       799.59136    0.0051759339   5.2119197e-06
     0.46810195      0.63229572    6.944108e-05               0  -2.6093122e-06  -4.3342806e-10               0    0.0023863429       797.51867    0.0051491356   5.2427962e-06
     0.48254356      0.63035428   7.2130061e-05               0  -2.5956569e-06   -4.467717e-10               0    0.0023428239       795.37951    0.0051215506   5.2680599e-06
     0.49742885       0.6283488   7.4179181e-05               0     -2.5816e-06   -4.560479e-10               0     0.002299689       793.18126     0.005093281    5.288031e-06
     0.51277145      0.62629154   7.5189268e-05               0  -2.5672288e-06  -4.5976715e-10               0    0.0022612685       790.93634    0.0050644917   5.3034638e-06
     0.52858541      0.62420317   7.5158902e-05               0  -2.5526663e-06  -4.5807236e-10               0    0.0022241572        788.6641    0.0050354349   5.3151768e-06
     0.54488522      0.62209919   7.4561756e-05               0  -2.5380124e-06  -4.5277136e-10               0    0.0021827528       786.38048    0.0050063168    5.324003e-06
     0.56168579      0.61998429   7.3638842e-05               0  -2.5233132e-06  -4.4538513e-10               0    0.0021392496       784.09079     0.004977206   5.3308825e-06
     0.57900252      0.61785964   7.2434075e-05               0  -2.5085936e-06  -4.3630932e-10               0    0.0020980921        781.7959    0.0049481141   5.3363304e-06
     0.59685126      0.61573207   7.0885533e-05               0  -2.4938929e-06  -4.2571268e-10               0    0.0020594946       779.50043    0.0049191002    5.340626e-06
     0.61524836      0.61360944   6.9201613e-05               0  -2.4792516e-06  -4.1441082e-10               0    0.0020187388       777.21174    0.0048902566   5.3438508e-06
     0.63421066       0.6114924   6.7595083e-05               0  -2.4646867e-06  -4.0297302e-10               0    0.0019746948       774.93325    0.0048616255   5.3459395e-06
     0.65375553      0.60938192   6.5821847e-05               0  -2.4502161e-06  -3.9086479e-10               0    0.0019326119       772.66703    0.0048332321   5.3469659e-06
     0.67390086      0.60728598   6.3778074e-05               0  -2.4358815e-06  -3.7771569e-10               0    0.0018928153       770.41902    0.0048051489   5.3471856e-06
     0.69466511      0.60521224   6.1652523e-05               0  -2.4217211e-06   -3.641928e-10               0    0.0018514022       768.19534    0.0047774499   5.3467949e-06
     0.71606728      0.60316032   5.9633732e-05               0  -2.4077465e-06  -3.5081479e-10               0    0.0018078968       765.99657    0.0047501397   5.3458428e-06
     0.73812698      0.60113065    5.751149e-05               0  -2.3939651e-06  -3.3734998e-10               0    0.0017668462       763.82237    0.0047232116   5.3444389e-06
     0.76086441      0.59912784   5.5344085e-05               0  -2.3803883e-06  -3.2408363e-10               0    0.0017264864       761.67327    0.0046966694   5.3428873e-06
     0.78430038      0.59714963   5.3426246e-05               0  -2.3670036e-06  -3.1180559e-10               0    0.0016829237       759.54625    0.0046704735   5.3412101e-06
     0.80845637      0.59518924   5.1677839e-05               0  -2.3537822e-06   -3.004414e-10               0    0.0016391742       757.43596    0.0046445559   5.3392577e-06
     0.83335448      0.59324603   4.9919063e-05               0  -2.3407149e-06  -2.8942922e-10               0    0.0015971774       755.34183    0.0046189079   5.3369792e-06
     0.85901753      0.59132324   4.8198748e-05               0   -2.327807e-06  -2.7880893e-10               0    0.0015539135       753.26726    0.0045935695   5.3343415e-06
       0.885469      0.58941859   4.6638647e-05               0  -2.3150552e-06  -2.6862922e-10               0    0.0015081773       751.21204    0.0045685359   5.3312426e-06
     0.91273313       0.5875321   4.4986393e-05               0  -2.3024658e-06   -2.584172e-10               0    0.0014648758       749.17641    0.0045438085   5.3277638e-06
     0.94083488       0.5856702   4.3280847e-05               0   -2.290056e-06  -2.4829369e-10               0    0.0014215852       747.16534    0.0045194452   5.3240267e-06
     0.96979998      0.58383101   4.1783666e-05               0  -2.2778215e-06  -2.3877931e-10               0    0.0013745757       745.17698    0.0044954214   5.3200127e-06
     0.99965496      0.58200978   4.0310734e-05               0   -2.265746e-06   -2.296999e-10               0    0.0013293034       743.20601    0.0044716708   5.3157728e-06
      1.0304272       0.5802087   3.8838664e-05               0  -2.2538239e-06   -2.209936e-10               0    0.0012847139       741.25283    0.0044481969    5.311386e-06
      1.0621447      0.57842528   3.7560229e-05               0  -2.2420443e-06  -2.1287953e-10               0    0.0012363773       739.31636    0.0044249847   5.3067248e-06
      1.0948368       0.5766562   3.6284484e-05               0  -2.2303985e-06  -2.0501829e-10               0    0.0011890767       737.39481    0.0044020116   5.3017392e-06
      1.1285332      0.57490583   3.4953488e-05               0  -2.2188956e-06  -1.9722968e-10               0    0.0011426141        735.4919    0.0043793204    5.296532e-06
      1.1632648      0.57317466   3.3745254e-05               0  -2.2075402e-06  -1.8974471e-10               0    0.0010929511       733.60902    0.0043569258   5.2910679e-06
      1.1990635      0.57146069   3.2535469e-05               0  -2.1963295e-06  -1.8248245e-10               0    0.0010443851       731.74405    0.0043348011   5.2853858e-06
       1.235962      0.56976623   3.1330229e-05               0  -2.1852627e-06  -1.7548995e-10               0   0.00099610244       729.89732    0.0043129484   5.2795927e-06
      1.2739941      0.56808843   3.0276996e-05               0   -2.174328e-06  -1.6897331e-10               0      0.00094448       728.06634    0.0042913369   5.2736136e-06
      1.3131947      0.56642412   2.9233135e-05               0  -2.1635135e-06  -1.6273792e-10               0   0.00089378869       726.24886    0.0042699386    5.267415e-06
      1.3535996      0.56477555   2.8194145e-05               0  -2.1528213e-06  -1.5664213e-10               0   0.00084301004       724.44697    0.0042487769   5.2610456e-06
      1.3952458      0.56314301   2.7211411e-05               0  -2.1422558e-06  -1.5074044e-10               0   0.00079036117       722.66175     0.004227863    5.254493e-06
      1.4381715      0.56152682   2.6229406e-05               0  -2.1318163e-06  -1.4505419e-10               0   0.00073808691       720.89331    0.0042071965   5.2477912e-06
       1.482416      0.55992601   2.5321328e-05               0  -2.1214968e-06   -1.396403e-10               0   0.00068450778       719.14001    0.0041867573    5.240953e-06
      1.5280198      0.55833881   2.4440609e-05               0  -2.1112902e-06  -1.3446807e-10               0   0.00063106767       717.39994    0.0041665215   5.2339806e-06
      1.5750246      0.55676578   2.3586162e-05               0  -2.1011928e-06  -1.2950951e-10               0    0.0005771388       715.67371     0.004146495   5.2268797e-06
      1.6234735      0.55520557   2.2788634e-05               0  -2.0912017e-06  -1.2476414e-10               0   0.00052177365       713.96082    0.0041266711   5.2196213e-06
      1.6734109      0.55365888   2.1989277e-05               0  -2.0813135e-06  -1.2020034e-10               0   0.00046770842       712.26209     0.004107058    5.212228e-06
      1.7248825       0.5521238   2.1252058e-05               0  -2.0715266e-06  -1.1589729e-10               0   0.00041287554       710.57526    0.0040876282   5.2047271e-06
      1.7779355       0.5506028    2.056333e-05               0  -2.0618123e-06  -1.1187919e-10               0   0.00036077971       708.90211    0.0040684016    5.197037e-06
      1.8326183        0.549075   1.9924759e-05               0  -2.0522154e-06  -1.0794806e-10               0   0.00030627357       707.22398    0.0040491632   5.1893125e-06
      1.8889812      0.54760828   1.9157499e-05               0  -2.0426142e-06  -1.4307873e-10               0   0.00027360795       705.60061    0.0040305957   5.1814628e-06
      1.9470756      0.54601075   5.0021481e-05               0  -2.0330373e-06  -2.7275779e-10               0   0.00016260086       703.86263     0.004010764   5.1729108e-06
      2.0069548      0.54461711   9.3839026e-05               0  -2.0227925e-06  -4.1412465e-10               0   0.00035930483       702.32818    0.0039932965   5.1610554e-06
