/*--------------------------------*- C++ -*----------------------------------*\
  =========                 |
  \\      /  F ield         | OpenFOAM: The Open Source CFD Toolbox
   \\    /   O peration     | Website:  https://openfoam.org
    \\  /    A nd           | Version:  12
     \\/     M anipulation  |
\*---------------------------------------------------------------------------*/
FoamFile
{
    format      ascii;
    class       volScalarField;
    location    "800";
    object      k;
}
// * * * * * * * * * * * * * * * * * * * * * * * * * * * * * * * * * * * * * //

dimensions      [0 2 -2 0 0 0 0];

internalField   nonuniform List<scalar> 
13056
(
7.9802123e-05
2.7267129e-05
1.8774009e-05
1.6007731e-05
1.4985178e-05
1.4513463e-05
1.4240684e-05
1.4058005e-05
1.3926293e-05
1.3827694e-05
1.3752168e-05
1.3693353e-05
1.3646968e-05
1.3610023e-05
1.3580373e-05
1.3556453e-05
1.3537037e-05
1.3521433e-05
1.3508123e-05
1.3500103e-05
1.3482154e-05
1.3514565e-05
1.3352653e-05
1.6248544e-05
2.0258553e-09
1.6642026e-08
3.1003811e-08
3.4786831e-08
3.3839399e-08
3.1876437e-08
3.0094704e-08
2.8590444e-08
2.728965e-08
2.6152154e-08
2.5151041e-08
2.4261362e-08
2.3441083e-08
2.2689757e-08
2.2000926e-08
2.1369285e-08
2.0788706e-08
2.0251545e-08
1.9752438e-08
1.9287414e-08
1.8851607e-08
1.8442333e-08
1.8056869e-08
1.7693008e-08
1.73489e-08
1.7022311e-08
1.6712231e-08
1.6416844e-08
1.6134548e-08
1.5864812e-08
1.5606445e-08
1.5358265e-08
1.5119884e-08
1.489048e-08
1.466906e-08
1.4455309e-08
1.424879e-08
1.4048773e-08
1.3854779e-08
1.3666662e-08
1.3482907e-08
1.3303352e-08
1.3128467e-08
1.2958148e-08
1.2792064e-08
1.2629861e-08
1.2471378e-08
1.2316463e-08
1.2164816e-08
1.2016173e-08
1.1870436e-08
1.1727511e-08
1.1587142e-08
1.1449125e-08
1.1313375e-08
1.117987e-08
1.1048428e-08
1.0918818e-08
1.0790942e-08
1.0664844e-08
1.0540411e-08
1.0417393e-08
1.0295694e-08
1.0175345e-08
1.0056313e-08
9.9384206e-09
9.8215141e-09
9.7055759e-09
9.5906557e-09
9.4766059e-09
9.3632146e-09
9.2504362e-09
9.1383676e-09
9.0268946e-09
8.9156912e-09
8.8047837e-09
8.694293e-09
8.5841125e-09
8.4740166e-09
8.3639355e-09
8.2539627e-09
8.1439471e-09
8.0336458e-09
7.9230613e-09
7.8122104e-09
7.700884e-09
7.5889276e-09
7.4763978e-09
7.3631282e-09
7.2512994e-09
7.1445644e-09
7.04367e-09
6.9473831e-09
6.856036e-09
6.7693375e-09
6.6868522e-09
6.6081569e-09
6.5329837e-09
6.4611583e-09
6.3924251e-09
6.3264804e-09
6.2631029e-09
6.2021757e-09
6.1435742e-09
6.0871209e-09
6.0325685e-09
5.9798222e-09
5.9284411e-09
5.8790387e-09
5.8287867e-09
5.7841476e-09
5.7119199e-09
7.9802112e-05
2.7267045e-05
1.8771564e-05
1.6004413e-05
1.4981477e-05
1.4509562e-05
1.4236661e-05
1.4053897e-05
1.3922121e-05
1.3823473e-05
1.3747907e-05
1.368906e-05
1.3642648e-05
1.3605681e-05
1.3576011e-05
1.3552075e-05
1.3532644e-05
1.3517027e-05
1.3503705e-05
1.3495673e-05
1.3477717e-05
1.3510206e-05
1.3347776e-05
1.6230363e-05
1.8946224e-08
4.9949805e-07
9.3055851e-07
1.0441041e-06
1.0156681e-06
9.567515e-07
9.0327425e-07
8.581251e-07
8.1908278e-07
7.8494167e-07
7.5489402e-07
7.2819095e-07
7.0357087e-07
6.8102035e-07
6.6034555e-07
6.4138726e-07
6.2396158e-07
6.0783907e-07
5.9285871e-07
5.7890129e-07
5.6582085e-07
5.5353675e-07
5.4196731e-07
5.3104623e-07
5.2071806e-07
5.1091568e-07
5.0160884e-07
4.9274298e-07
4.8427003e-07
4.7617407e-07
4.6841935e-07
4.6097039e-07
4.5381551e-07
4.469301e-07
4.402843e-07
4.338687e-07
4.2767014e-07
4.2166675e-07
4.1584413e-07
4.1019793e-07
4.0468261e-07
3.9929338e-07
3.9404431e-07
3.8893229e-07
3.8394738e-07
3.7907894e-07
3.7432218e-07
3.6967249e-07
3.651209e-07
3.6065944e-07
3.5628523e-07
3.5199544e-07
3.4778232e-07
3.4363982e-07
3.3956537e-07
3.3555829e-07
3.3161313e-07
3.2772297e-07
3.2388483e-07
3.2010007e-07
3.1636528e-07
3.1267298e-07
3.0902024e-07
3.0540802e-07
3.0183535e-07
2.9829688e-07
2.9478799e-07
2.9130817e-07
2.878589e-07
2.8443576e-07
2.8103238e-07
2.776474e-07
2.7428372e-07
2.7093792e-07
2.676002e-07
2.6427138e-07
2.6095506e-07
2.5764805e-07
2.5434358e-07
2.5103955e-07
2.4773877e-07
2.4443671e-07
2.4112608e-07
2.3780694e-07
2.3447981e-07
2.3113841e-07
2.2777809e-07
2.2440057e-07
2.2100084e-07
2.1764436e-07
2.1444076e-07
2.1141247e-07
2.0852247e-07
2.0578073e-07
2.0317852e-07
2.0070277e-07
1.9834077e-07
1.9608448e-07
1.9392868e-07
1.9186568e-07
1.8988639e-07
1.8798415e-07
1.8615544e-07
1.8439655e-07
1.8270213e-07
1.8106477e-07
1.7948162e-07
1.7793944e-07
1.7645665e-07
1.7494836e-07
1.7360854e-07
1.7144066e-07
7.9802089e-05
2.7266256e-05
1.8762957e-05
1.5992958e-05
1.4968802e-05
1.449626e-05
1.4222975e-05
1.4039945e-05
1.3907969e-05
1.3809165e-05
1.3733475e-05
1.3674527e-05
1.3628031e-05
1.3590994e-05
1.3561263e-05
1.3537273e-05
1.3517796e-05
1.3502136e-05
1.3488776e-05
1.3480707e-05
1.3462724e-05
1.3495328e-05
1.3331961e-05
1.6188318e-05
8.8528551e-08
3.5643794e-06
6.6398182e-06
7.4499217e-06
7.2470549e-06
6.826714e-06
6.4451746e-06
6.1230485e-06
5.8444897e-06
5.6008982e-06
5.3865115e-06
5.1959869e-06
5.0203232e-06
4.8594251e-06
4.7119096e-06
4.5766411e-06
4.4523072e-06
4.3372714e-06
4.2303845e-06
4.1307962e-06
4.037465e-06
3.9498156e-06
3.8672653e-06
3.789341e-06
3.7156471e-06
3.6457047e-06
3.579298e-06
3.5160376e-06
3.4555807e-06
3.3978136e-06
3.3424813e-06
3.2893306e-06
3.2382782e-06
3.1891485e-06
3.1417284e-06
3.0959508e-06
3.0517219e-06
3.0088854e-06
2.9673388e-06
2.927051e-06
2.887697e-06
2.8492426e-06
2.8117883e-06
2.775312e-06
2.7397424e-06
2.7050041e-06
2.6710624e-06
2.6378848e-06
2.6054072e-06
2.5735726e-06
2.5423606e-06
2.5117509e-06
2.4816883e-06
2.4521295e-06
2.4230563e-06
2.3944638e-06
2.3663131e-06
2.3385549e-06
2.3111678e-06
2.2841615e-06
2.2575119e-06
2.2311654e-06
2.2051011e-06
2.179326e-06
2.153833e-06
2.1285841e-06
2.1035462e-06
2.0787157e-06
2.0541033e-06
2.0296772e-06
2.0053921e-06
1.9812383e-06
1.9572365e-06
1.9333622e-06
1.9095457e-06
1.8857925e-06
1.8621285e-06
1.838531e-06
1.8149516e-06
1.7913753e-06
1.7678222e-06
1.7442599e-06
1.7206364e-06
1.6969523e-06
1.6732111e-06
1.649368e-06
1.6253899e-06
1.6012891e-06
1.5770298e-06
1.553079e-06
1.5302192e-06
1.5086103e-06
1.4879881e-06
1.4684239e-06
1.4498554e-06
1.4321891e-06
1.4153346e-06
1.3992344e-06
1.3838512e-06
1.3691303e-06
1.3550066e-06
1.3414328e-06
1.3283837e-06
1.3158327e-06
1.3037418e-06
1.292058e-06
1.2807611e-06
1.2697565e-06
1.2591757e-06
1.248413e-06
1.2388524e-06
1.2233829e-06
7.9802052e-05
2.7264771e-05
1.8747974e-05
1.5973066e-05
1.4946813e-05
1.4473196e-05
1.4199255e-05
1.4015768e-05
1.3883451e-05
1.378438e-05
1.3708477e-05
1.3649355e-05
1.3602715e-05
1.3565556e-05
1.3535721e-05
1.351164e-05
1.3492082e-05
1.3476349e-05
1.3462923e-05
1.3454788e-05
1.3436762e-05
1.3469492e-05
1.3304813e-05
1.6122717e-05
2.7274069e-07
1.3277782e-05
2.4726412e-05
2.7741863e-05
2.6987139e-05
2.5422845e-05
2.4002836e-05
2.2803857e-05
2.1766971e-05
2.0860199e-05
2.006211e-05
1.9352825e-05
1.869884e-05
1.8099809e-05
1.7550588e-05
1.7046952e-05
1.6584019e-05
1.6155696e-05
1.5757707e-05
1.5386888e-05
1.5039362e-05
1.4712987e-05
1.4405595e-05
1.4115425e-05
1.3841005e-05
1.3580551e-05
1.3333261e-05
1.3097684e-05
1.2872545e-05
1.2657421e-05
1.2451362e-05
1.2253425e-05
1.2063301e-05
1.1880336e-05
1.1703736e-05
1.1533251e-05
1.1368533e-05
1.1209e-05
1.1054269e-05
1.0904225e-05
1.0757658e-05
1.061444e-05
1.0474946e-05
1.0339094e-05
1.0206618e-05
1.0077237e-05
9.950822e-06
9.8272524e-06
9.706289e-06
9.5877202e-06
9.4714693e-06
9.3574614e-06
9.2454903e-06
9.1353955e-06
9.0271086e-06
8.9206115e-06
8.8157595e-06
8.7123689e-06
8.61036e-06
8.5097692e-06
8.4105061e-06
8.3123718e-06
8.2152883e-06
8.1192813e-06
8.0243249e-06
7.930277e-06
7.8370151e-06
7.744525e-06
7.6528466e-06
7.5618621e-06
7.4714025e-06
7.3814314e-06
7.292026e-06
7.2030954e-06
7.1143794e-06
7.025899e-06
6.9377507e-06
6.8498494e-06
6.7620153e-06
6.6741924e-06
6.5864555e-06
6.498684e-06
6.4106842e-06
6.3224579e-06
6.2340187e-06
6.1451996e-06
6.0558774e-06
5.9660974e-06
5.8757265e-06
5.7865047e-06
5.7013466e-06
5.620848e-06
5.544025e-06
5.4711429e-06
5.4019695e-06
5.3361574e-06
5.273369e-06
5.2133904e-06
5.1560829e-06
5.1012422e-06
5.0486264e-06
4.9980587e-06
4.9494458e-06
4.9026885e-06
4.8576451e-06
4.8141182e-06
4.7720323e-06
4.7310357e-06
4.6916177e-06
4.6515218e-06
4.6159043e-06
4.5582735e-06
7.9802e-05
2.7262608e-05
1.8726281e-05
1.5944272e-05
1.4914986e-05
1.4439814e-05
1.4164923e-05
1.3980775e-05
1.3847962e-05
1.3748505e-05
1.3672294e-05
1.3612921e-05
1.3566073e-05
1.3528737e-05
1.349875e-05
1.3474537e-05
1.3454861e-05
1.3439023e-05
1.3425502e-05
1.3417272e-05
1.3399183e-05
1.3432021e-05
1.3265696e-05
1.603281e-05
6.6015792e-07
3.5754287e-05
6.6534175e-05
7.4637791e-05
7.2614034e-05
6.8414514e-05
6.4601297e-05
6.1380782e-05
5.8595018e-05
5.6158387e-05
5.4013483e-05
5.2107e-05
5.0348923e-05
4.8738412e-05
4.7261678e-05
4.5907398e-05
4.4662469e-05
4.3510531e-05
4.2440103e-05
4.1442688e-05
4.050787e-05
3.9629901e-05
3.8802954e-05
3.80223e-05
3.7283984e-05
3.6583213e-05
3.5917833e-05
3.5283946e-05
3.4678122e-05
3.4099225e-05
3.3544704e-05
3.3012023e-05
3.2500351e-05
3.200793e-05
3.1532626e-05
3.1073769e-05
3.063042e-05
3.0201013e-05
2.9784524e-05
2.9380639e-05
2.8986103e-05
2.8600574e-05
2.8225059e-05
2.7859339e-05
2.7502701e-05
2.7154386e-05
2.6814052e-05
2.6481369e-05
2.6155696e-05
2.5836464e-05
2.5523467e-05
2.5216502e-05
2.4915017e-05
2.4618577e-05
2.4327e-05
2.4040238e-05
2.37579e-05
2.3479492e-05
2.32048e-05
2.2933922e-05
2.2666615e-05
2.2402343e-05
2.2140897e-05
2.1882345e-05
2.1626619e-05
2.1373336e-05
2.1122164e-05
2.0873068e-05
2.0626154e-05
2.0381105e-05
2.0137466e-05
1.9895138e-05
1.9654331e-05
1.9414799e-05
1.9175841e-05
1.8937514e-05
1.8700077e-05
1.8463303e-05
1.8226706e-05
1.7990135e-05
1.7753793e-05
1.7517353e-05
1.7280295e-05
1.7042624e-05
1.6804374e-05
1.6565098e-05
1.6324463e-05
1.608259e-05
1.5839121e-05
1.5598745e-05
1.5369313e-05
1.5152431e-05
1.4945449e-05
1.4749082e-05
1.4562705e-05
1.4385383e-05
1.4216205e-05
1.4054597e-05
1.3900183e-05
1.3752416e-05
1.3610641e-05
1.3474384e-05
1.3343393e-05
1.3217401e-05
1.3096027e-05
1.2978737e-05
1.286533e-05
1.2754857e-05
1.2648638e-05
1.2540591e-05
1.2444611e-05
1.2289309e-05
7.9801929e-05
2.7259795e-05
1.8697443e-05
1.5905961e-05
1.4872623e-05
1.4395371e-05
1.4119209e-05
1.3934176e-05
1.38007e-05
1.3700727e-05
1.3624104e-05
1.3564394e-05
1.3517266e-05
1.3479695e-05
1.3449505e-05
1.3425115e-05
1.3405282e-05
1.3389302e-05
1.3375654e-05
1.3367297e-05
1.3349124e-05
1.3382025e-05
1.3213745e-05
1.5917076e-05
1.3718046e-06
7.9788865e-05
0.00014824644
0.00016624553
0.00016177851
0.00015247918
0.00014402907
0.00013688756
0.00013070637
0.00012529722
0.00012053378
0.00011629834
0.00011239121
0.00010881103
0.00010552741
0.00010251537
9.9745955e-05
9.7182894e-05
9.4800758e-05
9.2580731e-05
9.0499698e-05
8.854493e-05
8.6703505e-05
8.4964933e-05
8.3320448e-05
8.1759404e-05
8.0277031e-05
7.886467e-05
7.7514697e-05
7.6224601e-05
7.4988711e-05
7.3801393e-05
7.2660803e-05
7.1563033e-05
7.050334e-05
6.9480236e-05
6.8491634e-05
6.7534052e-05
6.6605211e-05
6.5704422e-05
6.4824416e-05
6.3964439e-05
6.3126751e-05
6.2310861e-05
6.1515182e-05
6.0738028e-05
5.9978635e-05
5.9236275e-05
5.8509516e-05
5.779709e-05
5.7098541e-05
5.6413421e-05
5.5740495e-05
5.5078797e-05
5.4427921e-05
5.3787761e-05
5.3157448e-05
5.2535878e-05
5.1922576e-05
5.1317761e-05
5.0720892e-05
5.0130773e-05
4.9546936e-05
4.8969538e-05
4.8398425e-05
4.7832742e-05
4.7271751e-05
4.6715371e-05
4.6163842e-05
4.5616454e-05
4.5072193e-05
4.4530839e-05
4.3992859e-05
4.3457704e-05
4.2923811e-05
4.2391304e-05
4.1860766e-05
4.1331684e-05
4.0802976e-05
4.0274305e-05
3.9746121e-05
3.92177e-05
3.8687872e-05
3.8156651e-05
3.7624116e-05
3.7089263e-05
3.6551348e-05
3.6010644e-05
3.5466349e-05
3.4928943e-05
3.4415983e-05
3.3931062e-05
3.3468256e-05
3.302917e-05
3.2612407e-05
3.2215877e-05
3.1837549e-05
3.1476137e-05
3.1130805e-05
3.0800327e-05
3.0483243e-05
3.0178492e-05
2.9885512e-05
2.9603706e-05
2.9332221e-05
2.9069869e-05
2.8816194e-05
2.8569079e-05
2.8331471e-05
2.8089774e-05
2.7875066e-05
2.7527642e-05
7.9801834e-05
2.7256384e-05
1.8660935e-05
1.5857388e-05
1.4818877e-05
1.4338964e-05
1.4061174e-05
1.3875009e-05
1.3740685e-05
1.364005e-05
1.3562898e-05
1.3502758e-05
1.3455273e-05
1.3417399e-05
1.338695e-05
1.3362333e-05
1.33423e-05
1.3326138e-05
1.3312327e-05
1.3303808e-05
1.3285528e-05
1.3318443e-05
1.3147869e-05
1.5773374e-05
2.5581881e-06
0.00015745984
0.00029163712
0.00032680124
0.00031819897
0.00030016068
0.00028374266
0.00026984654
0.00025780283
0.0002472519
0.00023795201
0.00022967642
0.00022203626
0.00021503093
0.00020860212
0.00020270196
0.00019727443
0.00019224904
0.00018757644
0.00018322013
0.00017913507
0.00017529657
0.00017167948
0.00016826338
0.00016503123
0.00016196225
0.00015904718
0.0001562691
0.00015361312
0.00015107437
0.00014864176
0.00014630427
0.00014405833
0.00014189629
0.00013980886
0.00013779314
0.00013584506
0.00013395778
0.00013212685
0.00013035094
0.00012861571
0.00012691971
0.00012526741
0.00012365789
0.00012208801
0.00012055447
0.00011905578
0.00011759051
0.00011615585
0.0001147493
0.00011336998
0.00011201701
0.00011068797
0.00010938094
0.00010809514
0.00010683037
0.00010558491
0.00010435659
0.00010314447
0.000101949
0.00010076911
9.9602434e-05
9.8448058e-05
9.7306293e-05
9.6176842e-05
9.5058014e-05
9.3948354e-05
9.2847701e-05
9.1756535e-05
9.0673458e-05
8.9596458e-05
8.8525103e-05
8.746032e-05
8.6401028e-05
8.5344127e-05
8.4289867e-05
8.3239402e-05
8.219172e-05
8.1144674e-05
8.00976e-05
7.9051388e-05
7.8004602e-05
7.6954927e-05
7.5902386e-05
7.4847138e-05
7.378719e-05
7.2721066e-05
7.1649305e-05
7.0570316e-05
6.9504873e-05
6.8487796e-05
6.7526221e-05
6.6608407e-05
6.5737557e-05
6.4910913e-05
6.4124342e-05
6.3373819e-05
6.2656803e-05
6.1971642e-05
6.1315909e-05
6.0686715e-05
6.0081956e-05
5.9500521e-05
5.8941231e-05
5.8402396e-05
5.788166e-05
5.7378123e-05
5.6887583e-05
5.6415893e-05
5.5936072e-05
5.5509805e-05
5.4820005e-05
7.9801709e-05
2.7252454e-05
1.8616167e-05
1.5797704e-05
1.4752774e-05
1.4269552e-05
1.3989736e-05
1.3802162e-05
1.3666781e-05
1.3565323e-05
1.3487512e-05
1.3426836e-05
1.3378905e-05
1.3340655e-05
1.3309882e-05
1.3284984e-05
1.32647e-05
1.3248313e-05
1.32343e-05
1.3225579e-05
1.3207167e-05
1.3240044e-05
1.3066808e-05
1.5599017e-05
4.3780624e-06
0.0002837285
0.00052236144
0.00058448998
0.00056971969
0.00053830369
0.00050961941
0.00048527285
0.00046411748
0.00044554509
0.00042914599
0.00041453053
0.00040101638
0.0003886095
0.00037721067
0.00036673833
0.00035709565
0.00034815939
0.00033984356
0.00033208468
0.00032480359
0.00031795732
0.00031150181
0.00030540131
0.00029962601
0.00029413927
0.00028892497
0.00028395326
0.00027919778
0.00027465014
0.00027029073
0.00026610004
0.00026207185
0.00025819261
0.00025444583
0.00025082648
0.00024732731
0.0002439362
0.00024064526
0.00023745219
0.00023433118
0.00023127972
0.00022830604
0.00022540848
0.00022258146
0.00021981909
0.00021711877
0.00021447797
0.00021189163
0.00020935531
0.00020686746
0.00020442655
0.00020202819
0.00019966899
0.00019734754
0.00019506353
0.00019281388
0.00019059467
0.00018840423
0.0001862434
0.00018411025
0.00018200055
0.00017991261
0.00017784704
0.00017580332
0.00017377839
0.00017176962
0.00016977674
0.00016780063
0.00016583877
0.0001638875
0.00016194607
0.00016001615
0.00015809579
0.00015617938
0.00015426736
0.00015236184
0.00015046099
0.0001485609
0.00014666036
0.00014476101
0.00014286023
0.00014095381
0.00013904178
0.00013712444
0.00013519816
0.00013326025
0.00013131167
0.00012934954
0.00012741162
0.00012556129
0.00012381157
0.00012214114
0.0001205559
0.00011905087
0.00011761856
0.00011625168
0.00011494563
0.00011369743
0.00011250267
0.00011135612
0.00011025396
0.00010919417
0.00010817463
0.00010719226
0.00010624279
0.00010532458
0.00010442998
0.00010356967
0.00010269448
0.00010191688
0.00010065835
7.9801545e-05
2.7248128e-05
1.8562508e-05
1.5725981e-05
1.4673247e-05
1.4185988e-05
1.3903696e-05
1.37144e-05
1.3577728e-05
1.3475264e-05
1.339665e-05
1.3335318e-05
1.3286842e-05
1.3248132e-05
1.3216965e-05
1.3191722e-05
1.3171134e-05
1.3154471e-05
1.3140211e-05
1.3131244e-05
1.3112672e-05
1.3145453e-05
1.2969173e-05
1.5390786e-05
6.9471758e-06
0.00047344341
0.00086270903
0.00096291285
0.00094024781
0.00089083745
0.00084549253
0.00080682957
0.00077309268
0.00074337154
0.0007170513
0.00069353323
0.00067173065
0.00065167175
0.00063320691
0.000616213
0.0006005398
0.00058599246
0.00057243578
0.00055977024
0.00054786963
0.00053666653
0.00052609109
0.00051608661
0.00050660596
0.00049759038
0.00048901466
0.00048083073
0.00047299622
0.00046549809
0.00045830474
0.00045138466
0.00044472816
0.00043831332
0.00043211335
0.00042612041
0.00042032277
0.00041470069
0.00040924147
0.00040394159
0.00039875808
0.00039368711
0.00038874273
0.00038392238
0.0003792169
0.00037461666
0.00037011754
0.00036571547
0.00036140208
0.00035717009
0.00035301706
0.00034894055
0.00034493332
0.00034098971
0.00033710753
0.00033328633
0.00032952102
0.00032580506
0.00032213574
0.00031851453
0.00031493829
0.0003113999
0.0003078966
0.00030442945
0.00030099764
0.00029759605
0.00029422028
0.0002908699
0.00028754645
0.00028424569
0.00028096151
0.00027769261
0.00027444186
0.00027120601
0.00026797556
0.0002647513
0.00026153676
0.00025832889
0.00025512109
0.0002519113
0.00024870228
0.00024548962
0.00024226618
0.000239032
0.00023578757
0.00023252673
0.00022924488
0.00022594367
0.00022261813
0.0002193323
0.00021619374
0.00021322472
0.00021038911
0.00020769719
0.00020514065
0.00020270688
0.0002003836
0.00019816308
0.00019604033
0.00019400794
0.00019205707
0.00019018126
0.00018837716
0.00018664119
0.00018496815
0.0001833508
0.00018178639
0.00018026192
0.00017879558
0.00017730369
0.00017597786
0.00017383148
7.9801335e-05
2.7243582e-05
1.8499314e-05
1.5641249e-05
1.4579163e-05
1.4087047e-05
1.3801774e-05
1.3610402e-05
1.3472175e-05
1.3368498e-05
1.3288915e-05
1.3226793e-05
1.3177661e-05
1.3138397e-05
1.3106754e-05
1.3081096e-05
1.3060141e-05
1.3043147e-05
1.3028591e-05
1.3019328e-05
1.3000565e-05
1.3033181e-05
1.2853491e-05
1.5144898e-05
1.0257452e-05
0.00073457933
0.0013183354
0.0014661717
0.0014352014
0.0013650752
0.0013002737
0.0012446797
0.0011958862
0.0011526921
0.0011142841
0.0010798409
0.0010477915
0.0010182159
0.00099091536
0.00096572612
0.00094243967
0.00092077768
0.0009005488
0.0008816129
0.00086378753
0.00084697779
0.00083108361
0.00081602377
0.00080173115
0.00078812016
0.00077515548
0.00076276677
0.00075089201
0.00073951325
0.00072858415
0.00071805835
0.00070792241
0.00069814394
0.00068868329
0.0006795295
0.00067066532
0.00066206129
0.00065369891
0.00064557336
0.00063761854
0.00062982924
0.00062222804
0.00061481137
0.00060756541
0.00060047579
0.00059353665
0.00058674198
0.00058007907
0.00057353694
0.00056711218
0.00056080129
0.00055459317
0.00054847922
0.00054245627
0.00053652393
0.00053067435
0.00052489748
0.00051918926
0.00051355217
0.00050798146
0.00050246607
0.00049700177
0.00049159037
0.00048623072
0.00048091489
0.00047563601
0.00047039351
0.00046518988
0.00046001855
0.00045486993
0.00044974202
0.00044463941
0.00043955703
0.00043447994
0.00042940934
0.00042435089
0.00041929975
0.00041424551
0.00040918491
0.0004041223
0.00039905071
0.0003939588
0.0003888466
0.00038371483
0.0003785537
0.00037335585
0.00036812378
0.00036284957
0.00035763476
0.00035265033
0.0003479321
0.00034342289
0.00033913965
0.00033506955
0.00033119288
0.00032749032
0.00032394978
0.00032056357
0.00031732006
0.00031420529
0.00031120914
0.00030832636
0.00030555137
0.000302876
0.00030028875
0.00029778531
0.000295345
0.00029299691
0.00029060741
0.00028848304
0.00028504237
7.9801064e-05
2.7239059e-05
1.8425959e-05
1.5542532e-05
1.4469367e-05
1.3971472e-05
1.3682643e-05
1.3488796e-05
1.3348715e-05
1.3243592e-05
1.3162852e-05
1.3099787e-05
1.3049873e-05
1.3009948e-05
1.2977738e-05
1.2951585e-05
1.2930192e-05
1.2912805e-05
1.2897896e-05
1.2888282e-05
1.2869293e-05
1.2901661e-05
1.2718264e-05
1.4856855e-05
1.4088755e-05
0.0010597387
0.0018672179
0.0020677467
0.0020299682
0.0019397786
0.0018557901
0.0017832279
0.0017191082
0.0016620264
0.0016110287
0.0015651023
0.0015221784
0.0014824259
0.0014456111
0.0014115415
0.0013799568
0.0013504961
0.001322915
0.0012970358
0.0012726188
0.0012495438
0.0012276811
0.0012069254
0.0011871904
0.0011683629
0.0011503986
0.0011332037
0.0011166957
0.0011008528
0.0010856131
0.0010709145
0.0010567404
0.0010430473
0.0010297816
0.0010169298
0.0010044686
0.00099235795
0.00098057342
0.00096910932
0.00095787165
0.00094685435
0.00093609116
0.00092557773
0.0009152949
0.00090522307
0.00089535479
0.00088568205
0.00087618706
0.00086685461
0.00085768055
0.00084866036
0.00083977839
0.00083102253
0.00082238875
0.00081387696
0.00080547608
0.00079717177
0.00078895848
0.00078084019
0.00077281024
0.00076485279
0.00075696179
0.00074914016
0.0007413865
0.00073368934
0.0007260388
0.00071843417
0.00071087927
0.00070336464
0.00069587633
0.00068841141
0.00068097675
0.000673565
0.0006661543
0.00065874638
0.00065134954
0.00064395675
0.00063655266
0.00062913241
0.00062170237
0.00061425225
0.00060676525
0.00059924123
0.00059168122
0.0005840706
0.00057639829
0.0005686678
0.0005608672
0.00055314662
0.0005457598
0.00053876074
0.00053206507
0.00052569938
0.00051964544
0.00051387463
0.00050835879
0.00050308046
0.00049802864
0.00049318647
0.00048853346
0.00048405482
0.00047974304
0.00047559004
0.00047158389
0.00046770758
0.00046395481
0.00046029488
0.00045677137
0.00045318457
0.00044999383
0.00044482245
7.9800721e-05
2.7234883e-05
1.8341872e-05
1.5428887e-05
1.4342724e-05
1.3838009e-05
1.3544976e-05
1.3348202e-05
1.3205927e-05
1.3099093e-05
1.3016986e-05
1.2952806e-05
1.2901965e-05
1.2861258e-05
1.2828377e-05
1.280164e-05
1.277973e-05
1.2761877e-05
1.2746552e-05
1.2736525e-05
1.2717273e-05
1.2749286e-05
1.2562046e-05
1.4526687e-05
1.8112766e-05
0.0014226191
0.0024634981
0.0027169995
0.0026753396
0.0025687289
0.0024687099
0.0023816958
0.0023042709
0.0022349548
0.0021727368
0.0021164726
0.0020636508
0.0020145585
0.0019689469
0.0019266116
0.0018872537
0.001850443
0.0018158932
0.0017833977
0.0017526668
0.0017235618
0.0016959282
0.0016696408
0.0016445981
0.0016206624
0.0015977831
0.0015758454
0.0015547487
0.0015344689
0.0015149301
0.0014960561
0.0014778284
0.0014601932
0.0014430838
0.0014264855
0.0014103693
0.0013946852
0.0013794036
0.0013645188
0.0013499072
0.0013355626
0.0013215318
0.0013078099
0.0012943725
0.0012811948
0.0012682687
0.0012555841
0.0012431181
0.0012308513
0.0012187793
0.0012068968
0.0011951834
0.0011836232
0.0011722119
0.0011609498
0.0011498226
0.0011388113
0.0011279089
0.0011171213
0.00110644
0.0010958439
0.0010853249
0.0010748875
0.00106453
0.0010542372
0.0010439959
0.0010338052
0.0010236707
0.0010135795
0.001003513
0.00099346711
0.00098345132
0.00097345582
0.00096345086
0.00095343868
0.00094343061
0.00093341708
0.00092337706
0.00091330375
0.00090320578
0.000893069
0.00088287021
0.00087260891
0.00086228632
0.00085188215
0.00084138075
0.00083078657
0.0008200828
0.00080947527
0.00079931358
0.00078967354
0.00078043958
0.00077165089
0.00076328372
0.00075529976
0.00074766106
0.00074034434
0.00073333527
0.0007266112
0.00072014436
0.00071391475
0.00070791246
0.00070212682
0.00069654164
0.00069113361
0.00068589426
0.00068078123
0.00067585526
0.00067083881
0.00066637269
0.00065912743
7.9800287e-05
2.7231473e-05
1.8246576e-05
1.5299459e-05
1.4198168e-05
1.3685466e-05
1.3387496e-05
1.3187284e-05
1.3042432e-05
1.2933588e-05
1.2849873e-05
1.2784381e-05
1.2732452e-05
1.2690826e-05
1.2657156e-05
1.2629732e-05
1.2607216e-05
1.2588818e-05
1.2573006e-05
1.2562494e-05
1.254294e-05
1.2574457e-05
1.238354e-05
1.416387e-05
2.1994738e-05
0.0017929945
0.003055849
0.0033601747
0.003317952
0.0031997589
0.0030881604
0.0029904477
0.0029029238
0.002824159
0.0027531657
0.0026887308
0.0026279969
0.0025713775
0.0025186254
0.0024695392
0.0024237954
0.0023809108
0.0023405712
0.0023025516
0.0022665232
0.0022323366
0.0021998188
0.0021688303
0.0021392595
0.0021109492
0.0020838456
0.0020578172
0.0020327489
0.0020086165
0.0019853326
0.0019628098
0.0019410293
0.0019199283
0.00189943
0.0018795194
0.0018601627
0.0018413012
0.0018229023
0.0018049604
0.0017873246
0.0017699892
0.001753014
0.0017363939
0.0017200995
0.001704102
0.0016883929
0.0016729611
0.0016577783
0.0016428218
0.0016280873
0.0016135692
0.0015992425
0.0015850881
0.0015711012
0.0015572834
0.0015436171
0.0015300788
0.0015166604
0.0015033699
0.001490197
0.0014771156
0.0014641158
0.0014512034
0.0014383772
0.0014256178
0.0014129088
0.0014002494
0.0013876467
0.001375085
0.0013625405
0.0013500082
0.0013375002
0.0013250043
0.0013124828
0.0012999384
0.0012873852
0.0012748113
0.0012621898
0.0012495117
0.0012367879
0.0012240002
0.0012111189
0.0011981427
0.0011850731
0.0011718836
0.0011585537
0.0011450885
0.0011314659
0.0011179476
0.0011049801
0.0010926623
0.0010808471
0.0010695881
0.0010588569
0.0010486059
0.0010387878
0.0010293738
0.0010203468
0.0010116786
0.0010033343
0.00099528879
0.00098753016
0.00098004529
0.00097281387
0.00096580631
0.00095901203
0.00095237683
0.00094597927
0.0009394616
0.00093365364
0.00092422112
7.9799743e-05
2.722936e-05
1.8139734e-05
1.5153535e-05
1.4034767e-05
1.351277e-05
1.3209036e-05
1.3004806e-05
1.2856945e-05
1.2745753e-05
1.2660158e-05
1.2593133e-05
1.2539931e-05
1.2497231e-05
1.246264e-05
1.2434414e-05
1.2411191e-05
1.2392156e-05
1.2375777e-05
1.2364702e-05
1.2344802e-05
1.2375636e-05
1.2181727e-05
1.3776082e-05
2.5386921e-05
0.0021466932
0.0036103787
0.0039581561
0.0039182892
0.0037929933
0.0036740235
0.0035692124
0.0034747162
0.0033892683
0.0033119695
0.0032415899
0.0031750892
0.0031129364
0.0030548991
0.0030007886
0.0029502667
0.0029028125
0.0028580961
0.0028158828
0.0027758151
0.0027377394
0.0027014705
0.0026668587
0.0026337871
0.0026020839
0.0025716946
0.0025424748
0.0025142995
0.0024871453
0.0024609161
0.0024355167
0.0024109286
0.0023870818
0.0023638923
0.0023413459
0.0023194045
0.0022980027
0.0022771065
0.0022567111
0.0022366429
0.0022168969
0.0021975438
0.0021785787
0.0021599674
0.0021416783
0.0021237036
0.0021060309
0.0020886276
0.0020714682
0.002054549
0.0020378646
0.0020213858
0.0020050904
0.0019889741
0.0019730398
0.0019572666
0.0019416274
0.0019261132
0.001910734
0.0018954784
0.0018803155
0.0018652336
0.0018502405
0.0018353348
0.001820494
0.0018056985
0.0017909476
0.0017762501
0.0017615875
0.0017469317
0.0017322765
0.0017176366
0.0017029975
0.0016883145
0.0016735906
0.0016588425
0.0016440558
0.0016291985
0.0016142595
0.0015992515
0.0015841529
0.0015689276
0.0015535737
0.0015380925
0.001522452
0.001506627
0.0014906228
0.0014744123
0.0014583062
0.0014428382
0.0014281278
0.001414
0.0014005226
0.0013876635
0.0013753676
0.0013635794
0.0013522658
0.0013414073
0.0013309714
0.0013209168
0.0013112142
0.0013018499
0.001292809
0.0012840676
0.0012755906
0.0012673656
0.001259328
0.0012515723
0.0012436688
0.0012366195
0.0012251579
7.9799067e-05
2.722919e-05
1.80212e-05
1.4990608e-05
1.3851785e-05
1.3319033e-05
1.3008604e-05
1.2799707e-05
1.2648348e-05
1.2534425e-05
1.2446645e-05
1.2377836e-05
1.2323153e-05
1.2279203e-05
1.2243541e-05
1.2214383e-05
1.2190338e-05
1.2170566e-05
1.215353e-05
1.2141802e-05
1.2121513e-05
1.2151407e-05
1.1956041e-05
1.3365326e-05
2.7967163e-05
0.0024576202
0.0041035451
0.0044947487
0.0044587207
0.0043290427
0.0042054177
0.0040958391
0.0039964267
0.0039061499
0.0038242269
0.0037494361
0.00367897
0.003612969
0.0035512246
0.0034935683
0.0034396541
0.0033889348
0.0033410748
0.0032958364
0.0032528414
0.0032119378
0.0031729318
0.0031356678
0.0031000263
0.0030658255
0.0030330115
0.0030014303
0.0029709507
0.0029415508
0.0029131277
0.0028855811
0.0028588938
0.0028329897
0.0028077799
0.0027832519
0.0027593636
0.0027360449
0.0027132614
0.0026910094
0.0026691075
0.002647547
0.0026264018
0.0026056669
0.0025853041
0.0025652798
0.0025455877
0.0025262142
0.002507123
0.0024882864
0.0024697019
0.0024513642
0.0024332409
0.002415307
0.0023975587
0.0023800005
0.002362609
0.0023453536
0.0023282249
0.0023112349
0.0022943711
0.0022775988
0.0022609048
0.0022442983
0.0022277786
0.0022113201
0.0021949005
0.0021785196
0.0021621873
0.0021458831
0.0021295751
0.0021132562
0.0020969433
0.0020806203
0.0020642365
0.0020477949
0.0020313144
0.0020147789
0.0019981518
0.0019814202
0.0019645984
0.0019476618
0.0019305692
0.0019133179
0.0018959089
0.0018783059
0.0018604793
0.0018424346
0.0018241404
0.0018059468
0.0017884575
0.0017718098
0.0017558065
0.0017405268
0.001725936
0.0017119731
0.0016985764
0.0016857093
0.0016733509
0.001661465
0.0016500056
0.0016389399
0.0016282531
0.0016179289
0.0016079407
0.0015982489
0.0015888395
0.0015796399
0.0015707572
0.0015617046
0.0015536241
0.001540471
7.9798233e-05
2.723174e-05
1.789107e-05
1.4810447e-05
1.3648767e-05
1.3103638e-05
1.2785471e-05
1.2571173e-05
1.2415766e-05
1.2298683e-05
1.2208373e-05
1.2137498e-05
1.2081099e-05
1.2035701e-05
1.1998799e-05
1.1968563e-05
1.1943568e-05
1.1922943e-05
1.1905149e-05
1.1892667e-05
1.1871944e-05
1.1900554e-05
1.1706596e-05
1.2933765e-05
2.9483385e-05
0.0027016005
0.004514897
0.0049575033
0.0049284639
0.0047977682
0.0046725847
0.0045608654
0.0044587982
0.0043656837
0.0042809116
0.0042033101
0.0041300533
0.0040613095
0.0039968991
0.003936677
0.0038802924
0.0038271785
0.003777001
0.0037295229
0.0036843504
0.0036413367
0.0036002818
0.0035610266
0.0035234508
0.0034873651
0.0034527177
0.0034193465
0.0033871164
0.0033560079
0.0033259123
0.0032967261
0.0032684335
0.0032409535
0.0032141937
0.0031881439
0.0031627583
0.0031379629
0.0031137241
0.0030900392
0.0030667692
0.003043882
0.0030214252
0.0029993937
0.0029777458
0.0029564464
0.0029354912
0.0029148661
0.002894531
0.0028744566
0.0028546421
0.0028350828
0.0028157429
0.002796595
0.0027776367
0.0027588738
0.0027402807
0.0027218238
0.0027034935
0.002685304
0.0026672418
0.0026492689
0.002631371
0.0026135587
0.0025958319
0.0025781624
0.002560526
0.0025429223
0.0025253631
0.0025078258
0.0024902755
0.0024727044
0.0024551312
0.0024375386
0.0024198714
0.0024021323
0.0023843421
0.0023664834
0.0023485156
0.0023304247
0.0023122263
0.0022938934
0.0022753806
0.0022566844