/*--------------------------------*- C++ -*----------------------------------*\
  =========                 |
  \\      /  F ield         | OpenFOAM: The Open Source CFD Toolbox
   \\    /   O peration     | Website:  https://openfoam.org
    \\  /    A nd           | Version:  12
     \\/     M anipulation  |
\*---------------------------------------------------------------------------*/
FoamFile
{
    format      ascii;
    class       volScalarField;
    location    "800";
    object      k;
}
// * * * * * * * * * * * * * * * * * * * * * * * * * * * * * * * * * * * * * //

dimensions      [0 2 -2 0 0 0 0];

internalField   nonuniform List<scalar> 
7480
(
1.6670289e-07
1.6267181e-07
1.5875902e-07
1.5542981e-07
1.5308211e-07
1.5202643e-07
1.5264742e-07
1.5434813e-07
1.5762796e-07
1.6102219e-07
1.7180078e-07
1.6645048e-07
5.4434275e-05
0.0014635681
0.003759088
0.0058278423
0.0072544752
0.0080447891
0.0084668079
0.0084517095
0.0083614324
0.0081940523
0.0079883819
0.007771243
0.007551639
0.0073340279
0.0071224812
0.0069225089
0.0067395121
0.0065708672
0.0064163282
0.0062764214
0.0061513481
0.0060406819
0.0059434174
0.0058582196
0.0057835002
0.0057177769
0.0056600478
0.0056095594
0.0055653176
0.0055261533
0.0054910402
0.0054589607
0.0054294748
0.0054012875
0.0053741355
0.0053475785
0.0053211863
0.0052946767
0.0052677429
0.0052400204
0.0052112735
0.0051814952
0.005150857
0.0051195925
0.0050879265
0.0050560868
0.0050242759
0.0049926258
0.0049611999
0.00493003
0.0048991577
0.004868655
0.0048385917
0.0048090047
0.0047799297
0.0047513924
0.0047233613
0.00469576
0.0046685313
0.0046416672
0.0046151804
0.0045890776
0.0045633787
0.0045381062
0.0045132351
0.0044887108
0.0044644988
0.004440598
0.004417019
0.0043937804
0.004370896
0.0043483411
0.0043260711
0.0043040711
0.0042823403
0.0042608931
0.0042397446
0.00421887
0.0041982341
0.0041778261
0.004157652
0.0041377006
0.0041179945
0.0040983439
0.0040791351
0.0040588341
0.0040416571
0.0040102735
1.6769112e-07
1.666726e-07
1.6561923e-07
1.6452685e-07
1.6339266e-07
1.6221732e-07
1.6100976e-07
1.5977086e-07
1.5852308e-07
1.5719077e-07
1.5611914e-07
1.5396899e-07
5.6555854e-07
1.3820055e-05
8.4940693e-05
0.00028328315
0.00060095265
0.00096836296
0.0013223464
0.0016040115
0.0018119917
0.0019677443
0.0020990847
0.0022248076
0.00238154
0.0025548942
0.0027520501
0.003000206
0.0032669507
0.0035413704
0.003814064
0.0040763387
0.0043204725
0.0045405915
0.004733041
0.0048968764
0.0050317408
0.0051411433
0.0052319522
0.005307973
0.0053685872
0.0054143682
0.0054472628
0.0054677914
0.0054799684
0.0054781397
0.005470791
0.005457123
0.0054380715
0.0054145724
0.0053872568
0.0053566081
0.0053237679
0.0052901362
0.0052568419
0.0052244895
0.005193367
0.005163622
0.0051348439
0.0051067528
0.0050792887
0.0050524871
0.0050263561
0.0050008883
0.0049760788
0.0049518962
0.004928322
0.0049051055
0.004881883
0.0048585131
0.0048350884
0.0048117665
0.0047886687
0.0047658627
0.0047434154
0.0047212632
0.0046992045
0.0046771312
0.0046550973
0.0046332229
0.0046115914
0.0045902735
0.0045692137
0.0045482676
0.0045273752
0.0045065911
0.0044859937
0.0044656653
0.0044455689
0.0044255998
0.0044057209
0.004385971
0.0043664224
0.0043470848
0.0043278891
0.0043087767
0.004289794
0.0042705621
0.0042534604
0.0042233044
1.6797327e-07
1.6696872e-07
1.6594904e-07
1.6490841e-07
1.6384535e-07
1.6275978e-07
1.6165015e-07
1.6052239e-07
1.5935049e-07
1.5823894e-07
1.5672571e-07
1.5682246e-07
1.4947531e-07
1.6733154e-07
5.3505423e-07
2.8319874e-06
1.1486559e-05
3.0059243e-05
6.0461656e-05
0.00010189959
0.00015156779
0.00020600628
0.00026250123
0.00031901391
0.00037803311
0.00044144592
0.0005113018
0.00059414458
0.00069352812
0.00081640016
0.00097687085
0.0011593445
0.0013578337
0.0015706011
0.0017963781
0.0020331205
0.0022791428
0.0025332353
0.0027859291
0.0030295931
0.0032580737
0.0034643099
0.003644377
0.003800173
0.0039354588
0.0040541102
0.0041555478
0.0042395587
0.0043075225
0.004361617
0.0043997331
0.0044265292
0.0044458048
0.0044597098
0.0044692707
0.0044751165
0.0044781485
0.0044792785
0.0044790313
0.0044775406
0.0044749903
0.0044715735
0.0044674224
0.0044627033
0.0044575494
0.0044520016
0.0044460764
0.0044394386
0.0044318314
0.0044233637
0.0044142488
0.0044046399
0.0043946434
0.0043843427
0.0043738418
0.0043630186
0.0043516506
0.0043397397
0.0043274409
0.0043149073
0.0043022252
0.0042894904
0.0042765987
0.0042633978
0.0042498855
0.0042361748
0.0042223704
0.0042085784
0.0041947241
0.0041806919
0.004166482
0.0041521737
0.0041378689
0.0041235726
0.0041091877
0.0040947166
0.0040801211
0.0040654501
0.0040520233
0.0040284639
1.7100114e-07
1.6997208e-07
1.6892688e-07
1.6786043e-07
1.6677161e-07
1.6566019e-07
1.645261e-07
1.6336959e-07
1.6219002e-07
1.6099001e-07
1.597601e-07
1.5852922e-07
1.5721541e-07
1.5594917e-07
1.5446209e-07
1.5602562e-07
1.7107671e-07
2.5016213e-07
5.7276874e-07
1.40766e-06
2.9902965e-06
5.4695691e-06
8.9368768e-06
1.345903e-05
1.9143586e-05
2.625752e-05
3.5137063e-05
4.6331439e-05
6.0583096e-05
7.8858076e-05
0.00010287386
0.00013461528
0.0001771358
0.00023279909
0.00030432109
0.00039521102
0.00051102074
0.00065825035
0.00082615588
0.0010117906
0.0012180571
0.0014460299
0.0016915672
0.0019404679
0.0021844837
0.0024178783
0.0026349529
0.0028300052
0.0030037889
0.003156904
0.0032905973
0.0034085442
0.0035087334
0.0035930167
0.003663673
0.0037230011
0.0037737651
0.0038175797
0.003853899
0.0038845277
0.0039107867
0.0039336674
0.0039539087
0.0039719912
0.0039880889
0.0040023022
0.0040147493
0.0040254971
0.0040345393
0.0040420046
0.0040480528
0.0040528177
0.0040564406
0.0040590497
0.0040607701
0.0040614625
0.0040609964
0.0040595111
0.0040572026
0.0040542097
0.0040506151
0.0040465369
0.0040418296
0.004036383
0.0040302807
0.004023676
0.0040166759
0.0040093962
0.0040017204
0.0039935549
0.0039849542
0.0039760289
0.0039668948
0.0039575377
0.0039478513
0.0039378884
0.0039275905
0.003917229
0.0039074147
0.0038900021
1.7343571e-07
1.723938e-07
1.7133608e-07
1.7025704e-07
1.6915541e-07
1.6803091e-07
1.6688352e-07
1.6571326e-07
1.6452028e-07
1.6330435e-07
1.6206667e-07
1.6080307e-07
1.5952671e-07
1.5820461e-07
1.5685219e-07
1.5549679e-07
1.5413381e-07
1.5292926e-07
1.5145186e-07
1.5149845e-07
1.5368918e-07
1.6106916e-07
1.7890119e-07
2.1588907e-07
2.8513847e-07
4.0490031e-07
5.9913543e-07
8.9999492e-07
1.3526217e-06
2.0205219e-06
3.0021229e-06
4.4489764e-06
6.5995574e-06
9.8462924e-06
1.4799677e-05
2.2351637e-05
3.391288e-05
5.1296025e-05
7.8190298e-05
0.00011807399
0.00017447916
0.00025230432
0.00035848002
0.00050105957
0.00066904335
0.00085602857
0.0010626399
0.0012895457
0.0015224926
0.0017536991
0.0019761777
0.0021845244
0.0023730176
0.0025424057
0.0026935657
0.0028282105
0.0029500357
0.0030568398
0.0031490677
0.0032287455
0.0032983898
0.0033602535
0.0034156841
0.0034652636
0.0035094814
0.0035490881
0.0035848918
0.0036167156
0.0036448824
0.0036700682
0.0036926489
0.0037129302
0.00373116
0.0037475048
0.0037620864
0.0037749639
0.0037861785
0.0037958663
0.003804184
0.0038112564
0.0038171899
0.0038221238
0.0038259192
0.0038285635
0.0038302106
0.0038310173
0.0038310808
0.0038305213
0.0038291927
0.0038270613
0.0038242392
0.0038208523
0.0038170173
0.0038126946
0.0038077898
0.0038024077
0.0037964909
0.0037904516
0.0037842972
0.0037729761
1.737667e-07
1.7272662e-07
1.7167132e-07
1.7059504e-07
1.6949641e-07
1.6837512e-07
1.6723116e-07
1.6606458e-07
1.6487548e-07
1.6366399e-07
1.6243035e-07
1.6117474e-07
1.5989791e-07
1.5859991e-07
1.5728274e-07
1.5594055e-07
1.5456217e-07
1.531537e-07
1.5174166e-07
1.5032272e-07
1.4890594e-07
1.474868e-07
1.4607173e-07
1.4468161e-07
1.4335779e-07
1.4216672e-07
1.4124009e-07
1.4077945e-07
1.4111488e-07
1.4279949e-07
1.4680732e-07
1.5491349e-07
1.7052915e-07
2.0029187e-07
2.5749516e-07
3.6729592e-07
5.8041848e-07
9.8309122e-07
1.7517823e-06
3.194144e-06
5.8213376e-06
1.0508374e-05
1.8892291e-05
3.3316475e-05
5.8927203e-05
0.00010048124
0.0001624644
0.00025134562
0.00037495834
0.00052833771
0.00070461441
0.00089816177
0.0011106629
0.0013296352
0.0015446976
0.0017494817
0.0019403818
0.0021140328
0.0022728717
0.0024176099
0.0025494087
0.0026688712
0.0027748838
0.0028690156
0.0029531433
0.0030292044
0.0030983162
0.0031604699
0.003215898
0.0032655766
0.0033104962
0.0033513051
0.0033883551
0.0034219489
0.0034524633
0.0034798705
0.003504429
0.0035266113
0.0035466583
0.003564756
0.0035810723
0.0035957564
0.0036088467
0.0036203959
0.0036305436
0.0036394226
0.0036471315
0.0036537987
0.0036593038
0.0036636963
0.0036671199
0.0036696957
0.0036715342
0.0036725818
0.0036727836
0.0036722933
0.0036710552
0.0036695786
0.0036673087
0.0036623567
1.7346504e-07
1.7242737e-07
1.7137452e-07
1.7030076e-07
1.6920472e-07
1.6808611e-07
1.6694489e-07
1.6578113e-07
1.6459493e-07
1.6338645e-07
1.6215589e-07
1.6090354e-07
1.596299e-07
1.5833575e-07
1.5702175e-07
1.556881e-07
1.5433492e-07
1.5296106e-07
1.5156836e-07
1.5015422e-07
1.4870683e-07
1.4723554e-07
1.4574627e-07
1.4424232e-07
1.4272645e-07
1.4120747e-07
1.3967882e-07
1.3814136e-07
1.3660079e-07
1.3506025e-07
1.3351647e-07
1.3197404e-07
1.3044371e-07
1.2894599e-07
1.2752234e-07
1.2625346e-07
1.2533517e-07
1.2514816e-07
1.2656772e-07
1.3165883e-07
1.4581892e-07
1.8190838e-07
2.7666919e-07
5.0944405e-07
1.0915364e-06
2.461945e-06
5.3488065e-06
1.1199837e-05
2.2351592e-05
4.3805615e-05
8.1680884e-05
0.00014077514
0.00022811814
0.00035137742
0.00050117015
0.00067298459
0.00086044975
0.0010640125
0.0012697761
0.0014677511
0.001653717
0.0018257414
0.0019832308
0.0021306664
0.0022675301
0.0023944956
0.0025091056
0.0026122087
0.0027050964
0.0027893803
0.002866018
0.0029354439
0.0029981676
0.0030549912
0.0031068108
0.0031538628
0.0031963559
0.0032348377
0.0032698418
0.0033017581
0.0033308625
0.0033574111
0.0033812935
0.0034028741
0.0034224681
0.0034402389
0.0034563242
0.0034708655
0.0034839078
0.0034955133
0.0035058077
0.0035149027
0.0035229065
0.0035297914
0.0035355632
0.0035404031
0.0035442469
0.0035476848
0.0035496107
0.0035514827
1.7340832e-07
1.7237038e-07
1.7131715e-07
1.7024294e-07
1.6914639e-07
1.6802722e-07
1.668854e-07
1.6572099e-07
1.645341e-07
1.6332486e-07
1.6209344e-07
1.6084007e-07
1.595651e-07
1.5826892e-07
1.5695193e-07
1.5561445e-07
1.5425687e-07
1.5287965e-07
1.5148316e-07
1.500678e-07
1.4863363e-07
1.471808e-07
1.4570963e-07
1.4422048e-07
1.427136e-07
1.411893e-07
1.3964725e-07
1.3808655e-07
1.3650385e-07
1.3489963e-07
1.3328193e-07
1.3165366e-07
1.3001673e-07
1.283735e-07
1.267276e-07
1.2508539e-07
1.2344151e-07
1.217973e-07
1.2016797e-07
1.1854628e-07
1.1694303e-07
1.1538927e-07
1.1397175e-07
1.1293359e-07
1.1295118e-07
1.1623904e-07
1.2898338e-07
1.7277615e-07
3.0859721e-07
7.1825664e-07
1.8816066e-06
4.6024586e-06
1.0613293e-05
2.2557543e-05
4.7118256e-05
9.0448274e-05
0.00015741691
0.00025875518
0.00039117034
0.00054733656
0.00072170012
0.00090936323
0.0011062626
0.0012962395
0.0014749601
0.001641811
0.0017962524
0.0019426702
0.0020805231
0.0022094734
0.0023267117
0.0024330731
0.0025299555
0.002618651
0.0026999121
0.0027737853
0.0028405985
0.0029011863
0.0029563393
0.0030065647
0.0030523085
0.0030940977
0.0031320501
0.0031665269
0.003197944
0.0032266366
0.003252868
0.0032768551
0.0032984958
0.003318142
0.0033360227
0.0033522701
0.0033670034
0.0033803083
0.0033922305
0.0034029293
0.0034123278
0.0034211048
0.0034276087
0.0034368903
1.7349244e-07
1.7245382e-07
1.7139989e-07
1.7032494e-07
1.6922763e-07
1.6810766e-07
1.6696502e-07
1.6579976e-07
1.6461199e-07
1.6340184e-07
1.6216946e-07
1.6091508e-07
1.5963897e-07
1.5834148e-07
1.5702296e-07
1.5568372e-07
1.5432413e-07
1.5294457e-07
1.5154549e-07
1.5012731e-07
1.486905e-07
1.4723554e-07
1.4576291e-07
1.4427309e-07
1.427666e-07
1.4124388e-07
1.3970545e-07
1.381518e-07
1.3658334e-07
1.3500045e-07
1.3340367e-07
1.3179366e-07
1.301711e-07
1.2853667e-07
1.2689096e-07
1.2523455e-07
1.2356684e-07
1.2188739e-07
1.2018576e-07
1.1847619e-07
1.1676378e-07
1.1505162e-07
1.133501e-07
1.1166168e-07
1.0998222e-07
1.0833176e-07
1.0670681e-07
1.0514727e-07
1.0380031e-07
1.0309809e-07
1.05138e-07
1.1523713e-07
1.6001023e-07
3.0750771e-07
8.3565211e-07
2.3754887e-06
6.1517567e-06
1.4448805e-05
3.2875472e-05
6.846737e-05
0.0001271904
0.00021735681
0.00034205152
0.00049084667
0.00065797129
0.00083676941
0.0010244306
0.0012062609
0.0013771714
0.001537417
0.0016870154
0.0018300377
0.001965654
0.0020927091
0.0022091862
0.0023159073
0.0024138994
0.0025038475
0.0025860265
0.0026607913
0.00272889
0.0027911753
0.0028479132
0.0028994327
0.0029463079
0.002989101
0.0030282245
0.0030640411
0.0030965832
0.003126241
0.0031533575
0.0031781748
0.0032008997
0.0032215516
0.0032403087
0.0032574535
0.0032729242
0.0032875245
0.0032990617
0.0033164522
1.7358479e-07
1.7254566e-07
1.7149121e-07
1.7041573e-07
1.6931787e-07
1.6819735e-07
1.6705415e-07
1.6588832e-07
1.6469998e-07
1.6348924e-07
1.6225628e-07
1.6100132e-07
1.5972463e-07
1.5842655e-07
1.5710744e-07
1.5576762e-07
1.5440746e-07
1.5302733e-07
1.5162765e-07
1.5020884e-07
1.4877131e-07
1.4731552e-07
1.4584196e-07
1.4435112e-07
1.4284354e-07
1.4131978e-07
1.3978041e-07
1.3822605e-07
1.3665733e-07
1.3507492e-07
1.334795e-07
1.3187171e-07
1.3025225e-07
1.2862179e-07
1.2698102e-07
1.2533065e-07
1.2367133e-07
1.2200381e-07
1.2032843e-07
1.1864581e-07
1.169567e-07
1.1526181e-07
1.1356186e-07
1.118566e-07
1.1014456e-07
1.0841178e-07
1.0667749e-07
1.0494762e-07
1.0324485e-07
1.0155621e-07
9.9901755e-08
9.8276955e-08
9.6739829e-08
9.5396808e-08
9.5067331e-08
9.8279084e-08
1.1766552e-07
1.9259797e-07
5.0521146e-07
1.5920896e-06
4.6459871e-06
1.1683401e-05
2.8538203e-05
6.2812041e-05
0.00012099069
0.00021227256
0.00033656091
0.00048486975
0.00065018934
0.0008250203
0.0010053321
0.0011778733
0.0013397009
0.0014921097
0.0016359281
0.0017745995
0.0019065738
0.0020295323
0.0021427535
0.0022470463
0.0023433055
0.0024319282
0.0025129422
0.0025867897
0.0026542175
0.0027157561
0.0027718621
0.0028231329
0.0028698513
0.0029124054
0.002951244
0.0029867842
0.0030193828
0.0030491294
0.0030762497
0.0031011255
0.0031237777
0.003145192
0.0031623524
0.0031886502
1.7368491e-07
1.7264518e-07
1.7159012e-07
1.7051401e-07
1.6941552e-07
1.6829434e-07
1.6715047e-07
1.6598396e-07
1.6479492e-07
1.6358347e-07
1.623498e-07
1.610941e-07
1.5981665e-07
1.5851778e-07
1.5719784e-07
1.5585718e-07
1.5449614e-07
1.5311513e-07
1.5171456e-07
1.5029484e-07
1.488564e-07
1.473997e-07
1.4592521e-07
1.4443343e-07
1.429249e-07
1.4140016e-07
1.3985979e-07
1.383044e-07
1.367346e-07
1.3515104e-07
1.335544e-07
1.3194538e-07
1.3032469e-07
1.2869305e-07
1.2705124e-07
1.254e-07
1.2374014e-07
1.2207246e-07
1.2039782e-07
1.1871705e-07
1.1703097e-07
1.1534036e-07
1.13646e-07
1.119486e-07
1.1024893e-07
1.0854718e-07
1.0684388e-07
1.0513968e-07
1.0343479e-07
1.0173075e-07
1.0000976e-07
9.828434e-08
9.6564965e-08
9.4883421e-08
9.3220498e-08
9.1602924e-08
9.003831e-08
8.857506e-08
8.7669105e-08
8.8934548e-08
1.0155062e-07
1.5898852e-07
4.2235501e-07
1.44969e-06
4.5974403e-06
1.2102612e-05
3.1263173e-05
6.9801773e-05
0.00013558909
0.00023564037
0.00036764661
0.00052109213
0.00068798704
0.00086040312
0.0010326701
0.0011943459
0.0013467868
0.0014912793
0.0016300674
0.0017633341
0.0018895284
0.0020065819
0.0021150056
0.0022155219
0.0023083457
0.0023934141
0.0024711894
0.0025424831
0.0026076603
0.0026670411
0.0027211809
0.0027706407
0.0028159053
0.0028572224
0.0028948989
0.0029294051
0.0029608762
0.0029905509
0.0030146379
0.0030514788
1.7380696e-07
1.7276648e-07
1.7171065e-07
1.7063376e-07
1.6953445e-07
1.6841245e-07
1.6726773e-07
1.6610035e-07
1.6491042e-07
1.6369808e-07
1.6246348e-07
1.6120684e-07
1.5992841e-07
1.5862851e-07
1.5730749e-07
1.5596569e-07
1.5460348e-07
1.5322126e-07
1.5181942e-07
1.5039841e-07
1.4895866e-07
1.4750062e-07
1.4602477e-07
1.4453162e-07
1.4302171e-07
1.4149558e-07
1.3995381e-07
1.38397e-07
1.3682579e-07
1.352408e-07
1.3364273e-07
1.3203225e-07
1.3041008e-07
1.2877696e-07
1.2713362e-07
1.2548085e-07
1.2381943e-07
1.2215016e-07
1.2047387e-07
1.1879138e-07
1.1710355e-07
1.1541123e-07
1.1371529e-07
1.1201658e-07
1.1031597e-07
1.0861442e-07
1.0691278e-07
1.052119e-07
1.0351243e-07
1.0181521e-07
1.0012038e-07
9.842828e-08
9.6739157e-08
9.5053597e-08
9.3372192e-08
9.1669985e-08
8.9972074e-08
8.8299978e-08
8.6661972e-08
8.5059961e-08
8.3515787e-08
8.2059823e-08
8.1059833e-08
8.2085807e-08
9.5759155e-08
1.6387363e-07
4.9312741e-07
1.8374074e-06
5.8840444e-06
1.6440858e-05
4.2614636e-05
9.2362129e-05
0.00017643373
0.00029242402
0.00043699037
0.00059758854
0.00076463149
0.00093195596
0.0010921733
0.0012432239
0.0013869749
0.0015243313
0.0016573599
0.0017846459
0.0019033755
0.0020138127
0.0021165321
0.0022117683
0.0022993752
0.0023796522
0.0024532457
0.0025205616
0.0025820722
0.0026382534
0.0026895105
0.0027363492
0.0027790159
0.0028190486
0.0028518158
0.0029016134
1.7394068e-07
1.728994e-07
1.7184276e-07
1.7076504e-07
1.6966488e-07
1.6854201e-07
1.6739639e-07
1.6622811e-07
1.6503726e-07
1.6382398e-07
1.6258843e-07
1.6133081e-07
1.600514e-07
1.5875048e-07
1.574284e-07
1.5608551e-07
1.5472218e-07
1.5333881e-07
1.5193579e-07
1.5051357e-07
1.4907257e-07
1.4761327e-07
1.4613613e-07
1.4464167e-07
1.4313042e-07
1.4160293e-07
1.4005979e-07
1.3850159e-07
1.3692897e-07
1.3534257e-07
1.3374307e-07
1.3213115e-07
1.3050753e-07
1.2887294e-07
1.2722814e-07
1.2557389e-07
1.2391097e-07
1.222402e-07
1.2056239e-07
1.1887837e-07
1.1718897e-07
1.1549505e-07
1.1379746e-07
1.1209706e-07
1.1039474e-07
1.0869135e-07
1.0698777e-07
1.0528489e-07
1.0358358e-07
1.0188469e-07
1.0018914e-07
9.8497824e-08
9.6811566e-08
9.513091e-08
9.3456687e-08
9.1788607e-08
9.0126778e-08
8.8471682e-08
8.6824392e-08
8.5171319e-08
8.3511982e-08
8.1874261e-08
8.0277268e-08
7.8720049e-08
7.7217212e-08
7.5862689e-08
7.4915443e-08
7.7622943e-08
1.0042877e-07
2.2577872e-07
8.2119919e-07
3.2143942e-06
9.8630795e-06
2.873531e-05
6.9154702e-05
0.00014190441
0.00024897997
0.00038586048
0.0005424299
0.00070618184
0.00086884577
0.0010262341
0.0011745934
0.0013162929
0.0014514909
0.001583208
0.0017098158
0.0018286369
0.0019396158
0.0020431691
0.0021393356
0.0022278709
0.0023091949
0.0023838818
0.0024522249
0.0025147032
0.0025716294
0.0026247987
0.0026685514
0.0027346758
1.7407064e-07
1.7302861e-07
1.719712e-07
1.708927e-07
1.6979175e-07
1.6866806e-07
1.6752162e-07
1.6635249e-07
1.6516079e-07
1.6394664e-07
1.6271021e-07
1.6145171e-07
1.601714e-07
1.5886957e-07
1.5754656e-07
1.5620273e-07
1.5483844e-07
1.5345408e-07
1.5205007e-07
1.5062683e-07
1.491848e-07
1.4772443e-07
1.4624622e-07
1.4475066e-07
1.432383e-07
1.4170968e-07
1.4016539e-07
1.3860603e-07
1.3703223e-07
1.3544464e-07
1.3384393e-07
1.3223079e-07
1.3060594e-07
1.2897011e-07
1.2732405e-07
1.2566854e-07
1.2400435e-07
1.223323e-07
1.206532e-07
1.1896787e-07
1.1727717e-07
1.1558193e-07
1.1388302e-07
1.121813e-07
1.1047763e-07
1.0877288e-07
1.0706791e-07
1.0536361e-07
1.0366082e-07
1.0196041e-07
1.0026323e-07
9.8570147e-08
9.6882e-08
9.519963e-08
9.3523829e-08
9.1855521e-08
9.0195513e-08
8.8544416e-08
8.6902833e-08
8.5270908e-08
8.3648328e-08
8.2035166e-08
8.0432799e-08
7.8828704e-08
7.7219219e-08
7.5634752e-08
7.4095788e-08
7.2585627e-08
7.127441e-08
6.9647293e-08
6.9778518e-08
7.8817801e-08
1.3743877e-07
4.839191e-07
2.0243352e-06
6.9580557e-06
2.23384e-05
5.8011533e-05
0.00012571113
0.00022912106
0.00036226168
0.00051721092
0.00067838514
0.00083666093
0.00099002414
0.0011348432
0.0012735725
0.0014063955
0.0015360269
0.0016610046
0.0017786578
0.0018888456
0.0019919016
0.002087657
0.0021759368
0.0022572125
0.0023316568
0.0024011408
0.0024585988
0.0025452679
1.7419226e-07
1.7314953e-07
1.7209141e-07
1.7101218e-07
1.6991049e-07
1.6878605e-07
1.6763884e-07
1.6646893e-07
1.6527644e-07
1.6406148e-07
1.6282425e-07
1.6156493e-07
1.6028379e-07
1.5898112e-07
1.5765726e-07
1.5631255e-07
1.5494738e-07
1.5356213e-07
1.521572e-07
1.5073303e-07
1.4929004e-07
1.4782872e-07
1.4634952e-07
1.4485297e-07
1.433396e-07
1.4180996e-07
1.4026464e-07
1.3870424e-07
1.3712938e-07
1.3554072e-07
1.3393893e-07
1.3232471e-07
1.3069876e-07
1.2906183e-07
1.2741466e-07
1.2575803e-07
1.2409272e-07
1.2241953e-07
1.207393e-07
1.1905283e-07
1.1736098e-07
1.156646e-07
1.1396454e-07
1.1226166e-07
1.1055683e-07
1.0885092e-07
1.071448e-07
1.0543933e-07
1.0373538e-07
1.0203381e-07
1.0033546e-07
9.8641182e-08
9.6951809e-08
9.5268162e-08
9.3591051e-08
9.1921278e-08
9.0259637e-08
8.8606908e-08
8.6963833e-08
8.5331197e-08
8.3709801e-08
8.2100229e-08
8.0502992e-08
7.8918094e-08
7.7345345e-08
7.5783417e-08
7.4237603e-08
7.2678379e-08
7.1115773e-08
6.9609839e-08
6.814075e-08
6.6729362e-08
6.5470556e-08
6.4558992e-08
6.8932227e-08
1.045809e-07
3.5580161e-07
1.5558053e-06
5.8131006e-06
2.0292345e-05
5.5174968e-05
0.0001237044
0.00022841352
0.00036208362
0.00051713093
0.00067590983
0.00082966717
0.00097789632
0.0011187043
0.0012540558
0.0013840729
0.0015113126
0.0016339676
0.0017494946
0.0018579686
0.0019595962
0.0020537058
0.0021421104
0.0022158281
0.0023275133
1.7430587e-07
1.7326249e-07
1.7220371e-07
1.711238e-07
1.7002142e-07
1.6889627e-07
1.6774835e-07
1.6657771e-07
1.6538447e-07
1.6416877e-07
1.6293078e-07
1.616707e-07
1.6038879e-07
1.5908533e-07
1.5776066e-07
1.5641514e-07
1.5504914e-07
1.5366303e-07
1.5225724e-07
1.5083217e-07
1.4938829e-07
1.4792604e-07
1.4644591e-07
1.4494841e-07
1.4343408e-07
1.4190347e-07
1.4035716e-07
1.3879576e-07
1.372199e-07
1.3563023e-07
1.3402741e-07
1.3241216e-07
1.3078518e-07
1.291472e-07
1.2749898e-07
1.2584129e-07
1.2417492e-07
1.2250067e-07
1.2081937e-07
1.1913183e-07
1.1743891e-07
1.1574145e-07
1.1404031e-07
1.1233636e-07
1.1063045e-07
1.0892346e-07
1.0721626e-07
1.0550972e-07
1.038047e-07
1.0210205e-07
1.0040264e-07
9.87073e-08
9.7016869e-08
9.5332169e-08
9.3654007e-08
9.1983176e-08
9.0320456e-08
8.8666606e-08
8.7022371e-08
8.5388478e-08
8.3765647e-08
8.2154581e-08
8.0555944e-08
7.8970423e-08
7.7398762e-08
7.5841397e-08
7.4298764e-08
7.2770957e-08
7.1254722e-08
6.9755941e-08
6.8268178e-08
6.6767251e-08
6.5292358e-08
6.3862023e-08
6.248924e-08
6.1254449e-08
6.0132111e-08
6.30346e-08
9.1572086e-08
3.2408044e-07
1.4842727e-06
5.846902e-06
2.1701465e-05
5.9830875e-05
0.00013496402
0.00024526662
0.00038289801
0.000537989
0.0006934586
0.00084217789
0.00098545105
0.0011220665
0.0012537063
0.0013810145
0.0015055002
0.0016251356
0.001737696
0.0018454722
0.0019365574
0.0020765326
1.744121e-07
1.733681e-07
1.723087e-07
1.7122817e-07
1.7012514e-07
1.6899934e-07
1.6785074e-07
1.6667943e-07
1.654855e-07
1.642691e-07
1.630304e-07
1.6176961e-07
1.6048698e-07
1.5918279e-07
1.5785737e-07
1.5651109e-07
1.551443e-07
1.5375739e-07
1.5235078e-07
1.5092488e-07
1.4948013e-07
1.4801701e-07
1.46536e-07
1.450376e-07
1.4352236e-07
1.4199082e-07
1.4044358e-07
1.3888124e-07
1.3730442e-07
1.3571378e-07
1.3411e-07
1.3249376e-07
1.3086579e-07
1.2922682e-07
1.2757761e-07
1.2591891e-07
1.2425154e-07
1.2257628e-07
1.2089396e-07
1.1920541e-07
1.1751147e-07
1.1581299e-07
1.1411083e-07
1.1240585e-07
1.1069892e-07
1.0899091e-07
1.0728269e-07
1.0557512e-07
1.0386908e-07
1.0216542e-07
1.0046499e-07
9.8768638e-08
9.70772e-08
9.5391496e-08
9.3712336e-08
9.2040515e-08
9.037681e-08
8.8721983e-08
8.7076777e-08
8.5441914e-08
8.3818099e-08
8.2206012e-08
8.0606316e-08
7.9019652e-08
7.7446646e-08
7.5887926e-08
7.4344015e-08
7.2815622e-08
7.1303328e-08
6.9807409e-08
6.8328117e-08
6.6864756e-08
6.5415088e-08
6.3986128e-08
6.2540382e-08
6.1110618e-08
5.9730168e-08
5.8410652e-08
5.7207996e-08
5.6120573e-08
5.9025979e-08
8.9926164e-08
3.6956584e-07
1.7690904e-06
7.2052498e-06
2.6976341e-05
7.3468012e-05
0.00015903422
0.00027857675
0.00042185926
0.00057675822
0.0007274901
0.00087065764
0.001008732
0.0011412442
0.0012692108
0.0013936409
0.0015172262
0.0016231717
0.0017911456
1.7451144e-07
1.7346687e-07
1.724069e-07
1.7132577e-07
1.7022214e-07
1.6909573e-07
1.6794651e-07
1.6677456e-07
1.6557999e-07
1.6436294e-07
1.6312359e-07
1.6186213e-07
1.6057883e-07
1.5927395e-07
1.5794784e-07
1.5660084e-07
1.5523332e-07
1.5384566e-07
1.5243827e-07
1.5101159e-07
1.4956604e-07
1.481021e-07
1.4662025e-07
1.4512101e-07
1.436049e-07
1.4207249e-07
1.4052437e-07
1.3896113e-07
1.3738341e-07
1.3579187e-07
1.3418716e-07
1.3257e-07
1.309411e-07
1.2930119e-07
1.2765103e-07
1.259914e-07
1.2432307e-07
1.2264686e-07
1.2096358e-07
1.1927407e-07
1.1757917e-07
1.1587973e-07
1.141766e-07
1.1247066e-07
1.1076276e-07
1.0905379e-07
1.073446e-07
1.0563607e-07
1.0392907e-07
1.0222444e-07
1.0052305e-07
9.8825746e-08
9.7133354e-08
9.54467e-08
9.3766594e-08
9.209383e-08
9.0429189e-08
8.8773431e-08
8.7127301e-08
8.5491521e-08
8.3866797e-08
8.225381e-08
8.0653221e-08
7.9065667e-08
7.7491759e-08
7.5932089e-08
7.4387221e-08
7.2857695e-08
7.1344066e-08
6.9846826e-08
6.836642e-08
6.6903519e-08
6.545832e-08
6.40313e-08
6.2621715e-08
6.1226269e-08
5.98544e-08
5.846619e-08
5.7092866e-08
5.5767451e-08
5.4514507e-08
5.3336408e-08
5.2477026e-08
5.6917398e-08
1.0352282e-07
5.2943133e-07
2.5910442e-06
1.1280177e-05
3.8643304e-05
9.929983e-05
0.00019880517
0.00032892785
0.00047690669
0.00062911015
0.00077405632
0.00091221919
0.00104502
0.0011756644
0.0012884097
0.0014777184
1.7460435e-07
1.7355925e-07
1.7249874e-07
1.7141706e-07
1.7031288e-07
1.6918589e-07
1.6803609e-07
1.6686355e-07
1.6566838e-07
1.6445073e-07
1.6321076e-07
1.6194869e-07
1.6066476e-07
1.5935925e-07
1.5803248e-07
1.5668481e-07
1.553166e-07
1.5392824e-07
1.5252014e-07
1.5109271e-07
1.4964641e-07
1.4818169e-07
1.4669906e-07
1.4519901e-07
1.436821e-07
1.4214887e-07
1.4059991e-07
1.3903583e-07
1.3745726e-07
1.3586485e-07
1.3425928e-07
1.3264125e-07
1.3101147e-07
1.2937068e-07
1.2771963e-07
1.260591e-07
1.2438988e-07
1.2271277e-07
1.2102859e-07
1.1933817e-07
1.1764237e-07
1.1594202e-07
1.1423798e-07
1.1253113e-07
1.1082233e-07
1.0911245e-07
1.0740235e-07
1.0569292e-07
1.03985e-07
1.0227948e-07
1.0057719e-07
9.8878978e-08
9.7185688e-08
9.549814e-08
9.3817144e-08
9.2143495e-08
9.0477972e-08
8.8821337e-08
8.7174334e-08
8.5537689e-08
8.3912104e-08
8.2298265e-08
8.069683e-08
7.9108438e-08
7.7533703e-08
7.5973214e-08
7.4427534e-08
7.2897202e-08
7.1382731e-08
6.9884607e-08
6.8403292e-08
6.6939228e-08
6.5492875e-08
6.4064543e-08
6.2654861e-08
6.1263998e-08
5.9892423e-08
5.8539255e-08
5.720096e-08
5.5887826e-08
5.4555184e-08
5.325333e-08
5.1957883e-08
5.0909511e-08
4.9264992e-08
4.9387222e-08
5.8422275e-08
1.6579616e-07
9.6247372e-07
4.492366e-06
1.9530335e-05
6.0309257e-05
0.0001402043
0.00025591364
0.00039601321
0.00054594587
0.00069205908
0.00083296654
0.00095389277
0.0011533141
1.7469127e-07
1.7364567e-07
1.7258466e-07
1.7150247e-07
1.7039776e-07
1.6927024e-07
1.681199e-07
1.6694681e-07
1.6575109e-07
1.6453287e-07
1.6329233e-07
1.6202968e-07
1.6074516e-07
1.5943906e-07
1.5811169e-07
1.567634e-07
1.5539455e-07
1.5400553e-07
1.5259674e-07
1.5116862e-07
1.497216e-07
1.4825616e-07
1.4677279e-07
1.4527199e-07
1.437543e-07
1.422203e-07
1.4067055e-07
1.3910568e-07
1.375263e-07
1.3593308e-07
1.343267e-07
1.3270784e-07
1.3107723e-07
1.294356e-07
1.2778372e-07
1.2612234e-07
1.2445228e-07
1.2277432e-07
1.2108929e-07
1.1939803e-07
1.1770137e-07
1.1600017e-07
1.1429528e-07
1.1258757e-07
1.1087791e-07
1.0916718e-07
1.0745623e-07
1.0574594e-07
1.0403717e-07
1.023308e-07
1.0062766e-07
9.8928604e-08
9.7234471e-08
9.5546083e-08
9.386425e-08
9.2189768e-08
9.0523416e-08
8.8865957e-08
8.7218135e-08
8.5580676e-08
8.3954283e-08
8.2339641e-08
8.0737411e-08
7.914823e-08
7.7572713e-08
7.6011449e-08
7.4465003e-08
7.2933915e-08
7.1418697e-08
6.9919836e-08
6.8437791e-08
6.6972995e-08
6.5525856e-08
6.4096751e-08
6.2686036e-08
6.1294099e-08
5.992116e-08
5.8567786e-08
5.7234031e-08
5.5920481e-08
5.4625561e-08
5.3346919e-08
5.2093674e-08
5.0809131e-08
4.957161e-08
4.8363931e-08
4.7300508e-08
4.609621e-08
4.7601815e-08
7.1495069e-08
3.5762247e-07
2.0801393e-06
9.6893755e-06
3.6344364e-05
9.8634793e-05
0.00019966508
0.00033032441
0.00047881339
0.00061292765
0.00082795573
1.7477261e-07
1.7372655e-07
1.7266506e-07
1.715824e-07
1.7047721e-07
1.6934919e-07
1.6819835e-07
1.6702474e-07
1.658285e-07
1.6460975e-07
1.6336868e-07
1.621055e-07
1.6082044e-07
1.5951378e-07
1.5818584e-07
1.5683696e-07
1.5546751e-07
1.5407787e-07
1.5266845e-07
1.5123967e-07
1.4979199e-07
1.4832587e-07
1.4684179e-07
1.4534028e-07
1.4382187e-07
1.4228713e-07
1.4073664e-07
1.3917102e-07
1.3759088e-07
1.359969e-07
1.3438974e-07
1.327701e-07
1.3113871e-07
1.294963e-07
1.2784362e-07
1.2618145e-07
1.2451059e-07
1.2283183e-07
1.2114601e-07
1.1945394e-07
1.1775648e-07
1.1605447e-07
1.1434878e-07
1.1264026e-07
1.109298e-07
1.0921826e-07
1.075065e-07
1.0579541e-07
1.0408585e-07
1.0237867e-07
1.0067473e-07
9.8974881e-08
9.7279955e-08
9.5590777e-08
9.3908157e-08
9.2232891e-08
9.0565759e-08
8.8907525e-08
8.7258933e-08
8.5620708e-08
8.3993556e-08
8.237816e-08
8.0775181e-08
7.9185259e-08
7.7609006e-08
7.6047014e-08
7.4499848e-08
7.2968046e-08
7.1452122e-08
6.9952564e-08
6.8469831e-08
6.7004358e-08
6.555655e-08
6.4126787e-08
6.271542e-08
6.1322774e-08
5.9949147e-08
5.8594813e-08
5.7260088e-08
5.5945087e-08
5.4650409e-08
5.3375638e-08
5.2122621e-08
5.0885236e-08
4.9671205e-08
4.8473799e-08
4.7256245e-08
4.6087238e-08
4.4988216e-08
4.3898649e-08
4.3334991e-08
5.028996e-08
1.437756e-07
9.5333954e-07
4.9082371e-06
2.218622e-05
6.8757618e-05
0.00016001412
0.00026698153
0.00049154865
1.7484869e-07
1.738022e-07
1.7274028e-07
1.7165717e-07
1.7055152e-07
1.6942305e-07
1.6827173e-07
1.6709766e-07
1.6590093e-07
1.6468169e-07
1.6344013e-07
1.6217644e-07
1.6089087e-07
1.595837e-07
1.5825523e-07
1.5690581e-07
1.555358e-07
1.5414558e-07
1.5273556e-07
1.5130618e-07
1.4985786e-07
1.483911e-07
1.4690636e-07
1.4540419e-07
1.438851e-07
1.4234967e-07
1.4079848e-07
1.3923214e-07
1.376513e-07
1.3605659e-07
1.344487e-07
1.3282833e-07
1.311962e-07
1.2955304e-07
1.2789962e-07
1.2623671e-07
1.2456509e-07
1.2288558e-07
1.21199e-07
1.1950618e-07
1.1780796e-07
1.1610519e-07
1.1439874e-07
1.1268947e-07
1.1097825e-07
1.0926595e-07
1.0755344e-07
1.058416e-07
1.0413128e-07
1.0242335e-07
1.0071866e-07
9.9018059e-08
9.7322387e-08
9.5632465e-08
9.3949104e-08
9.2273102e-08
9.0605237e-08
8.8946274e-08
8.7296957e-08
8.5658013e-08
8.4030146e-08