/*--------------------------------*- C++ -*----------------------------------*\
  =========                 |
  \\      /  F ield         | OpenFOAM: The Open Source CFD Toolbox
   \\    /   O peration     | Website:  https://openfoam.org
    \\  /    A nd           | Version:  12
     \\/     M anipulation  |
\*---------------------------------------------------------------------------*/
FoamFile
{
    format      ascii;
    class       volScalarField;
    location    "800";
    object      nut;
}
// * * * * * * * * * * * * * * * * * * * * * * * * * * * * * * * * * * * * * //

dimensions      [0 2 -1 0 0 0 0];

internalField   nonuniform List<scalar> 
13056
(
1.9263021e-07
1.7219398e-07
1.6321985e-07
1.4933534e-07
1.4303593e-07
1.3953571e-07
1.372131e-07
1.3554344e-07
1.3430548e-07
1.3336688e-07
1.3263894e-07
1.3206253e-07
1.3159814e-07
1.3121861e-07
1.3090462e-07
1.3064195e-07
1.3041996e-07
1.3023033e-07
1.300674e-07
1.2992295e-07
1.2980055e-07
1.2968038e-07
1.2951663e-07
9.5150039e-08
1.2720593e-16
1.0449732e-15
1.9467672e-15
2.1843077e-15
2.1248172e-15
2.0015604e-15
1.8896832e-15
1.795229e-15
1.7135505e-15
1.6421257e-15
1.5792646e-15
1.5234006e-15
1.4718943e-15
1.4247176e-15
1.3814651e-15
1.3418035e-15
1.3053482e-15
1.2716193e-15
1.2402798e-15
1.2110803e-15
1.1837155e-15
1.1580166e-15
1.1338129e-15
1.1109656e-15
1.0893587e-15
1.0688517e-15
1.0493814e-15
1.0308337e-15
1.013108e-15
9.9617093e-16
9.7994776e-16
9.6436426e-16
9.4939599e-16
9.3499145e-16
9.210882e-16
9.0766653e-16
8.9469893e-16
8.8213961e-16
8.6995849e-16
8.5814642e-16
8.4660819e-16
8.3533373e-16
8.2435247e-16
8.1365796e-16
8.0322934e-16
7.9304441e-16
7.8309309e-16
7.7336578e-16
7.6384369e-16
7.5451017e-16
7.4535917e-16
7.3638478e-16
7.2757078e-16
7.1890454e-16
7.1038065e-16
7.019977e-16
6.9374429e-16
6.8560595e-16
6.7757644e-16
6.6965858e-16
6.6184528e-16
6.5412087e-16
6.4647921e-16
6.3892232e-16
6.3144818e-16
6.2404558e-16
6.1670488e-16
6.0942498e-16
6.02209e-16
5.9504767e-16
5.8792769e-16
5.808462e-16
5.7380927e-16
5.6680975e-16
5.5982715e-16
5.5286314e-16
5.4592529e-16
5.3900692e-16
5.3209387e-16
5.2518174e-16
5.1827641e-16
5.1136839e-16
5.0444244e-16
4.9749871e-16
4.9053824e-16
4.8354792e-16
4.7651804e-16
4.6945216e-16
4.6233982e-16
4.5531795e-16
4.4861594e-16
4.4228065e-16
4.3623468e-16
4.3049888e-16
4.2505498e-16
4.1987563e-16
4.1493425e-16
4.1021403e-16
4.0570403e-16
4.0138819e-16
3.9724744e-16
3.9326789e-16
3.8944219e-16
3.8576254e-16
3.8221777e-16
3.7879235e-16
3.7548034e-16
3.7225407e-16
3.6915203e-16
3.6599665e-16
3.631937e-16
3.5865843e-16
1.9262998e-07
1.721902e-07
1.6322369e-07
1.4933766e-07
1.4303618e-07
1.3953439e-07
1.3721062e-07
1.3554006e-07
1.3430138e-07
1.3336219e-07
1.3263377e-07
1.3205698e-07
1.3159226e-07
1.3121247e-07
1.3089824e-07
1.3063538e-07
1.3041322e-07
1.3022343e-07
1.3006037e-07
1.299158e-07
1.2979347e-07
1.2967288e-07
1.2950927e-07
9.6849229e-08
6.9451739e-15
1.833874e-13
3.4166197e-13
3.8335121e-13
3.7291177e-13
3.512815e-13
3.3164811e-13
3.1507215e-13
3.0073812e-13
2.8820344e-13
2.771716e-13
2.6736766e-13
2.5832843e-13
2.5004902e-13
2.4245825e-13
2.3549769e-13
2.290998e-13
2.2318036e-13
2.1768026e-13
2.1255572e-13
2.0775316e-13
2.0324298e-13
1.9899517e-13
1.9498542e-13
1.9119335e-13
1.8759432e-13
1.8417723e-13
1.8092204e-13
1.7781111e-13
1.748386e-13
1.7199137e-13
1.692564e-13
1.666294e-13
1.6410134e-13
1.6166126e-13
1.5930569e-13
1.5702981e-13
1.5482558e-13
1.5268773e-13
1.5061465e-13
1.4858962e-13
1.4661089e-13
1.4468361e-13
1.4280666e-13
1.4097637e-13
1.3918885e-13
1.3744233e-13
1.3573512e-13
1.3406393e-13
1.3242583e-13
1.3081977e-13
1.292447e-13
1.2769778e-13
1.2617679e-13
1.2468078e-13
1.2320951e-13
1.2176097e-13
1.2033263e-13
1.1892339e-13
1.1753374e-13
1.1616244e-13
1.1480675e-13
1.1346557e-13
1.1213928e-13
1.108275e-13
1.0952828e-13
1.0823992e-13
1.0696224e-13
1.0569577e-13
1.0443889e-13
1.0318927e-13
1.019464e-13
1.0071136e-13
9.9482875e-14
9.8257362e-14
9.7035111e-14
9.5817452e-14
9.460321e-14
9.3389901e-14
9.2176754e-14
9.09648e-14
8.9752373e-14
8.8536798e-14
8.7318101e-14
8.6096467e-14
8.4869592e-14
8.3635774e-14
8.2395636e-14
8.1147343e-14
7.9914929e-14
7.8738651e-14
7.7626739e-14
7.6565603e-14
7.5558906e-14
7.4603439e-14
7.3694404e-14
7.2827136e-14
7.1998683e-14
7.1207124e-14
7.0449643e-14
6.9722893e-14
6.9024436e-14
6.8352981e-14
6.7707157e-14
6.7085007e-14
6.6483806e-14
6.5902509e-14
6.5336258e-14
6.4791812e-14
6.4238004e-14
6.3746053e-14
6.2950058e-14
1.9262903e-07
1.7217883e-07
1.6323925e-07
1.4934667e-07
1.4303831e-07
1.3953144e-07
1.3720395e-07
1.3553047e-07
1.3428944e-07
1.3334836e-07
1.3261841e-07
1.3204036e-07
1.3157462e-07
1.3119395e-07
1.3087899e-07
1.306155e-07
1.3039279e-07
1.3020252e-07
1.3003903e-07
1.2989407e-07
1.2977157e-07
1.2965034e-07
1.294868e-07
9.8752023e-08
9.7067901e-14
3.9150608e-12
7.2942264e-12
8.1841907e-12
7.9615697e-12
7.5000777e-12
7.0811576e-12
6.7274485e-12
6.421558e-12
6.1540511e-12
5.9186061e-12
5.7093591e-12
5.5164258e-12
5.3397044e-12
5.1776775e-12
5.0290987e-12
4.8925277e-12
4.7661671e-12
4.6487555e-12
4.5393593e-12
4.4368346e-12
4.34055e-12
4.2498655e-12
4.1642617e-12
4.0833043e-12
4.006467e-12
3.9335132e-12
3.8640152e-12
3.7975964e-12
3.734132e-12
3.6733419e-12
3.6149481e-12
3.558859e-12
3.5048819e-12
3.4527826e-12
3.4024876e-12
3.3538936e-12
3.3068291e-12
3.2611816e-12
3.2169167e-12
3.1736775e-12
3.1314265e-12
3.0902739e-12
3.0501956e-12
3.0111135e-12
2.9729443e-12
2.9356504e-12
2.8991957e-12
2.8635099e-12
2.8285306e-12
2.794235e-12
2.7606012e-12
2.7275682e-12
2.6950888e-12
2.6631427e-12
2.6317246e-12
2.6007919e-12
2.5702903e-12
2.5401963e-12
2.5105207e-12
2.4812367e-12
2.4522858e-12
2.4236448e-12
2.3953215e-12
2.367308e-12
2.3395627e-12
2.3120491e-12
2.2847633e-12
2.2577169e-12
2.2308752e-12
2.2041884e-12
2.1776457e-12
2.1512699e-12
2.1250341e-12
2.0988617e-12
2.0727588e-12
2.0467538e-12
2.0208217e-12
1.9949094e-12
1.9690004e-12
1.9431168e-12
1.9172229e-12
1.8912618e-12
1.8652338e-12
1.8391429e-12
1.81294e-12
1.7865887e-12
1.7601023e-12
1.7334416e-12
1.7071199e-12
1.681997e-12
1.6582488e-12
1.6355849e-12
1.6140836e-12
1.5936764e-12
1.5742609e-12
1.5557374e-12
1.5380428e-12
1.5211362e-12
1.5049574e-12
1.489435e-12
1.4745167e-12
1.4601752e-12
1.4463811e-12
1.4330926e-12
1.4202516e-12
1.4078356e-12
1.395741e-12
1.384112e-12
1.3722831e-12
1.3617754e-12
1.3447735e-12
1.9262733e-07
1.7215949e-07
1.6326692e-07
1.4936274e-07
1.4304248e-07
1.3952686e-07
1.3719298e-07
1.3551446e-07
1.3426938e-07
1.3332504e-07
1.3259245e-07
1.3201225e-07
1.3154472e-07
1.3116257e-07
1.3084634e-07
1.3058177e-07
1.3035811e-07
1.30167e-07
1.3000278e-07
1.2985714e-07
1.2973423e-07
1.2961208e-07
1.2944867e-07
1.0068069e-07
6.4256387e-13
3.1473183e-11
5.8643039e-11
6.5796181e-11
6.4015128e-11
6.0315043e-11
5.6955149e-11
5.4117407e-11
5.1662586e-11
4.9515294e-11
4.7625004e-11
4.594477e-11
4.439527e-11
4.2975784e-11
4.1674177e-11
4.0480478e-11
3.9383144e-11
3.8367757e-11
3.7424202e-11
3.6544994e-11
3.5720951e-11
3.494701e-11
3.4218037e-11
3.3529864e-11
3.2879006e-11
3.2261239e-11
3.1674665e-11
3.1115849e-11
3.0581767e-11
3.0071419e-11
2.9582556e-11
2.9112944e-11
2.8661849e-11
2.8227723e-11
2.7808684e-11
2.7404143e-11
2.701327e-11
2.6634687e-11
2.626749e-11
2.5911405e-11
2.5563558e-11
2.522365e-11
2.4892569e-11
2.4570122e-11
2.425568e-11
2.3948576e-11
2.3648505e-11
2.335518e-11
2.3068034e-11
2.2786564e-11
2.2510591e-11
2.2239935e-11
2.1974109e-11
2.1712731e-11
2.1455639e-11
2.1202791e-11
2.0953843e-11
2.0708359e-11
2.046615e-11
2.0227304e-11
1.9991604e-11
1.9758581e-11
1.9528047e-11
1.9300064e-11
1.9074572e-11
1.8851233e-11
1.8629756e-11
1.8410107e-11
1.8192381e-11
1.7976299e-11
1.7761459e-11
1.7547775e-11
1.733543e-11
1.7124209e-11
1.6913493e-11
1.6703333e-11
1.6493957e-11
1.6285164e-11
1.6076526e-11
1.5867911e-11
1.5659496e-11
1.5450995e-11
1.5241946e-11
1.5032356e-11
1.4822256e-11
1.4611248e-11
1.4399041e-11
1.4185742e-11
1.3971035e-11
1.3759053e-11
1.3556722e-11
1.3365458e-11
1.3182923e-11
1.3009749e-11
1.2845384e-11
1.2689004e-11
1.2539806e-11
1.2397282e-11
1.2261104e-11
1.2130786e-11
1.2005753e-11
1.1885586e-11
1.1770063e-11
1.1658947e-11
1.1551904e-11
1.1448464e-11
1.1348447e-11
1.1251017e-11
1.1157339e-11
1.1062049e-11
1.09774e-11
1.0840434e-11
1.9262488e-07
1.7213152e-07
1.6330731e-07
1.4938646e-07
1.43049e-07
1.3952073e-07
1.3717755e-07
1.3549174e-07
1.342408e-07
1.3329172e-07
1.325553e-07
1.3197197e-07
1.3150186e-07
1.3111754e-07
1.3079948e-07
1.3053333e-07
1.3030831e-07
1.3011598e-07
1.2995068e-07
1.2980406e-07
1.2968047e-07
1.2955708e-07
1.2939401e-07
1.0259944e-07
2.7706478e-12
1.5256564e-10
2.8435814e-10
3.1903086e-10
3.1051604e-10
2.927132e-10
2.7653135e-10
2.6285264e-10
2.5101001e-10
2.4064407e-10
2.3151388e-10
2.2339448e-10
2.1590322e-10
2.0903796e-10
2.0274073e-10
1.9696384e-10
1.9165185e-10
1.8673529e-10
1.8216546e-10
1.7790634e-10
1.7391363e-10
1.7016295e-10
1.6662956e-10
1.6329335e-10
1.6013753e-10
1.5714171e-10
1.5429673e-10
1.5158601e-10
1.4899492e-10
1.4651867e-10
1.4414637e-10
1.4186722e-10
1.3967769e-10
1.3757029e-10
1.3553592e-10
1.3357174e-10
1.3167373e-10
1.2983522e-10
1.2805184e-10
1.2632228e-10
1.2463256e-10
1.2298124e-10
1.2137268e-10
1.1980594e-10
1.1827798e-10
1.1678554e-10
1.1532718e-10
1.139015e-10
1.1250574e-10
1.1113748e-10
1.0979584e-10
1.0847997e-10
1.0718748e-10
1.0591653e-10
1.0466634e-10
1.0343671e-10
1.0222597e-10
1.01032e-10
9.9853879e-11
9.8692042e-11
9.7545446e-11
9.6411794e-11
9.5290187e-11
9.4180927e-11
9.308372e-11
9.1996924e-11
9.0919122e-11
8.9850156e-11
8.8790488e-11
8.773876e-11
8.6693017e-11
8.5652839e-11
8.4619123e-11
8.3590818e-11
8.2564915e-11
8.1541656e-11
8.052216e-11
7.9505444e-11
7.8489425e-11
7.7473457e-11
7.6458405e-11
7.5442876e-11
7.4424624e-11
7.3403672e-11
7.2380174e-11
7.13522e-11
7.0318319e-11
6.9279055e-11
6.8232866e-11
6.7199895e-11
6.6213893e-11
6.5281768e-11
6.439213e-11
6.3548072e-11
6.2746912e-11
6.1984634e-11
6.1257335e-11
6.0562544e-11
5.9898656e-11
5.9263315e-11
5.8653717e-11
5.8067821e-11
5.7504547e-11
5.6962749e-11
5.6440789e-11
5.5936381e-11
5.5448651e-11
5.4973529e-11
5.4516681e-11
5.405197e-11
5.363914e-11
5.2971131e-11
1.9262164e-07
1.7209406e-07
1.6336128e-07
1.494187e-07
1.4305837e-07
1.395132e-07
1.3715756e-07
1.3546199e-07
1.3420319e-07
1.3324776e-07
1.3250621e-07
1.3191869e-07
1.3144511e-07
1.3105789e-07
1.3073737e-07
1.3046909e-07
1.3024223e-07
1.3004828e-07
1.2988154e-07
1.297336e-07
1.2960906e-07
1.2948394e-07
1.293218e-07
1.0449914e-07
9.0807468e-12
5.4612621e-10
1.0187119e-09
1.142935e-09
1.1134113e-09
1.0507343e-09
9.9363703e-10
9.4528162e-10
9.0334095e-10
8.6657573e-10
8.3415447e-10
8.0529265e-10
7.7863496e-10
7.541844e-10
7.317403e-10
7.1113715e-10
6.9218046e-10
6.746248e-10
6.5829853e-10
6.4307485e-10
6.2879675e-10
6.1537841e-10
6.027323e-10
5.907873e-10
5.7948409e-10
5.6875022e-10
5.5855349e-10
5.4883487e-10
5.395424e-10
5.3065919e-10
5.2214655e-10
5.1396602e-10
5.0610518e-10
4.985373e-10
4.9122995e-10
4.841731e-10
4.7735247e-10
4.707442e-10
4.6433278e-10
4.5811357e-10
4.5203625e-10
4.4609577e-10
4.4030802e-10
4.3466972e-10
4.2916991e-10
4.2379703e-10
4.1854594e-10
4.1341164e-10
4.0838427e-10
4.034551e-10
3.9862107e-10
3.9387913e-10
3.8922076e-10
3.8463928e-10
3.8013195e-10
3.7569809e-10
3.713317e-10
3.6702515e-10
3.6277516e-10
3.5858332e-10
3.544459e-10
3.5035461e-10
3.4630621e-10
3.4230183e-10
3.3834043e-10
3.3441609e-10
3.3052369e-10
3.2666269e-10
3.2283476e-10
3.1903502e-10
3.1525641e-10
3.1149739e-10
3.0776124e-10
3.0404418e-10
3.003353e-10
2.966355e-10
2.9294881e-10
2.8927171e-10
2.8559664e-10
2.8192128e-10
2.7824874e-10
2.7457399e-10
2.708889e-10
2.6719354e-10
2.6348848e-10
2.597667e-10
2.5602302e-10
2.5225934e-10
2.4847005e-10
2.4472811e-10
2.4115583e-10
2.377783e-10
2.3455426e-10
2.3149503e-10
2.2859096e-10
2.2582754e-10
2.2319066e-10
2.2067138e-10
2.1826394e-10
2.1595981e-10
2.1374885e-10
2.1162367e-10
2.0958039e-10
2.0761486e-10
2.0572116e-10
2.03891e-10
2.0212124e-10
2.0039712e-10
1.9873919e-10
1.9705268e-10
1.9555431e-10
1.9312957e-10
1.9261758e-07
1.7204602e-07
1.6342983e-07
1.4946061e-07
1.4307129e-07
1.3950453e-07
1.3713294e-07
1.3542488e-07
1.3415602e-07
1.3319245e-07
1.3244431e-07
1.3185141e-07
1.3137339e-07
1.3098244e-07
1.3065875e-07
1.3038776e-07
1.3015853e-07
1.299625e-07
1.2979389e-07
1.2964427e-07
1.2951845e-07
1.2939105e-07
1.2923071e-07
1.0637435e-07
2.4443643e-11
1.5896815e-09
2.9700758e-09
3.3329694e-09
3.2523517e-09
3.0756367e-09
2.9139558e-09
2.7765497e-09
2.656966e-09
2.5518463e-09
2.4589368e-09
2.3760655e-09
2.299366e-09
2.2289049e-09
2.1641356e-09
2.1046043e-09
2.0497668e-09
1.9989266e-09
1.951599e-09
1.9074263e-09
1.8659606e-09
1.8269597e-09
1.7901749e-09
1.7554038e-09
1.7224781e-09
1.6911903e-09
1.6614494e-09
1.6330859e-09
1.6059505e-09
1.5799959e-09
1.5551108e-09
1.5311845e-09
1.5081819e-09
1.486026e-09
1.464623e-09
1.4439447e-09
1.4239499e-09
1.4045694e-09
1.3857587e-09
1.3675049e-09
1.3496596e-09
1.3322088e-09
1.3152005e-09
1.2986255e-09
1.2824517e-09
1.2666458e-09
1.2511929e-09
1.2360789e-09
1.2212747e-09
1.206755e-09
1.1925111e-09
1.1785344e-09
1.1647998e-09
1.1512877e-09
1.1379903e-09
1.124906e-09
1.1120172e-09
1.0993012e-09
1.0867487e-09
1.0743645e-09
1.0621378e-09
1.0500441e-09
1.0380739e-09
1.0262306e-09
1.0145114e-09
1.0028987e-09
9.9137752e-10
9.799462e-10
9.6860991e-10
9.5735418e-10
9.4615809e-10
9.3501717e-10
9.2394119e-10
9.1291897e-10
9.0191819e-10
8.9094145e-10
8.8000084e-10
8.6908587e-10
8.5817412e-10
8.4725861e-10
8.3634869e-10
8.2542938e-10
8.1447644e-10
8.0349006e-10
7.9247189e-10
7.8140109e-10
7.7026211e-10
7.5906053e-10
7.4777965e-10
7.3663665e-10
7.2599599e-10
7.1593277e-10
7.0632414e-10
6.9720456e-10
6.8854556e-10
6.803042e-10
6.724386e-10
6.6492235e-10
6.5773842e-10
6.5086154e-10
6.442616e-10
6.3791668e-10
6.3181529e-10
6.2594518e-10
6.2028874e-10
6.1482136e-10
6.0953365e-10
6.0438165e-10
5.9942672e-10
5.9438613e-10
5.8990695e-10
5.8265736e-10
1.9261269e-07
1.7198604e-07
1.6351413e-07
1.4951368e-07
1.4308874e-07
1.3949519e-07
1.3710373e-07
1.3538013e-07
1.3409873e-07
1.3312503e-07
1.3236867e-07
1.3176906e-07
1.3128549e-07
1.3088988e-07
1.3056224e-07
1.3028785e-07
1.3005568e-07
1.2985703e-07
1.296861e-07
1.2953436e-07
1.2940694e-07
1.2927659e-07
1.2911928e-07
1.0821593e-07
5.6360109e-11
3.9454509e-09
7.3919827e-09
8.3015159e-09
8.1235675e-09
7.7082291e-09
7.3253951e-09
6.9981785e-09
6.7118055e-09
6.4589071e-09
6.2345456e-09
6.033777e-09
5.8473201e-09
5.6755759e-09
5.5173397e-09
5.3715986e-09
5.2370903e-09
5.1121599e-09
4.9956652e-09
4.8867673e-09
4.7843908e-09
4.6879678e-09
4.5969054e-09
4.5107214e-09
4.4290169e-09
4.3512903e-09
4.2773284e-09
4.2067201e-09
4.1391036e-09
4.0743691e-09
4.0122461e-09
3.9524653e-09
3.8949451e-09
3.8394966e-09
3.7858909e-09
3.734062e-09
3.6839089e-09
3.6352615e-09
3.5880124e-09
3.5421319e-09
3.4972435e-09
3.4533158e-09
3.4104753e-09
3.3687007e-09
3.3279123e-09
3.2880273e-09
3.2490114e-09
3.2108295e-09
3.1734091e-09
3.1366871e-09
3.1006434e-09
3.0652574e-09
3.0304661e-09
2.9962203e-09
2.9625014e-09
2.9293066e-09
2.8965914e-09
2.8642988e-09
2.8324055e-09
2.8009249e-09
2.76983e-09
2.7390587e-09
2.7085868e-09
2.678424e-09
2.6485636e-09
2.6189611e-09
2.589578e-09
2.5604107e-09
2.5314729e-09
2.5027278e-09
2.474122e-09
2.445644e-09
2.4173194e-09
2.3891197e-09
2.3609621e-09
2.3328532e-09
2.3048242e-09
2.2768483e-09
2.248868e-09
2.2208651e-09
2.1928638e-09
2.1648256e-09
2.136688e-09
2.1084512e-09
2.0801195e-09
2.051639e-09
2.0229694e-09
1.9941248e-09
1.9650618e-09
1.9363399e-09
1.9088996e-09
1.8829364e-09
1.8581333e-09
1.8345827e-09
1.8122127e-09
1.7909137e-09
1.7705783e-09
1.7511394e-09
1.7325538e-09
1.7147569e-09
1.6976715e-09
1.6812414e-09
1.6654373e-09
1.6502282e-09
1.6355689e-09
1.6213959e-09
1.6076852e-09
1.5943234e-09
1.5814694e-09
1.5683919e-09
1.556767e-09
1.5379464e-09
1.9260693e-07
1.7191257e-07
1.6361541e-07
1.4957976e-07
1.4311203e-07
1.3948588e-07
1.3707018e-07
1.3532761e-07
1.340309e-07
1.330448e-07
1.3227838e-07
1.3167055e-07
1.3118017e-07
1.3077886e-07
1.3044637e-07
1.3016781e-07
1.2993201e-07
1.2973017e-07
1.2955639e-07
1.2940205e-07
1.2927262e-07
1.2913855e-07
1.2898608e-07
1.1000711e-07
1.1414293e-10
8.5440993e-09
1.6078899e-08
1.8092114e-08
1.777825e-08
1.6951196e-08
1.6180004e-08
1.5515385e-08
1.4928929e-08
1.4407502e-08
1.394237e-08
1.352418e-08
1.3133787e-08
1.2772803e-08
1.2439087e-08
1.2130794e-08
1.1845463e-08
1.1579742e-08
1.1331351e-08
1.1098626e-08
1.0879359e-08
1.0672423e-08
1.0476617e-08
1.029096e-08
1.0114649e-08
9.9466449e-09
9.7865259e-09
9.6334343e-09
9.4866168e-09
9.3458612e-09
9.2106014e-09
9.0802731e-09
8.9547172e-09
8.8335349e-09
8.7162418e-09
8.6027104e-09
8.4927263e-09
8.3859268e-09
8.2820902e-09
8.1811611e-09
8.0822961e-09
7.9854387e-09
7.8908889e-09
7.7986059e-09
7.708416e-09
7.6201425e-09
7.5337175e-09
7.4490677e-09
7.3660335e-09
7.2844785e-09
7.2043642e-09
7.125649e-09
7.0481939e-09
6.9718904e-09
6.8967015e-09
6.8226252e-09
6.7495631e-09
6.6773886e-09
6.6060517e-09
6.5355862e-09
6.465933e-09
6.3969534e-09
6.3285934e-09
6.2608778e-09
6.1937937e-09
6.1272409e-09
6.0611331e-09
5.9954634e-09
5.9302646e-09
5.8654544e-09
5.8009119e-09
5.7366115e-09
5.6726122e-09
5.6088508e-09
5.5451387e-09
5.4814909e-09
5.417979e-09
5.3545427e-09
5.2910503e-09
5.2274605e-09
5.1638282e-09
5.100066e-09
5.0360305e-09
4.9717213e-09
4.9071479e-09
4.8421866e-09
4.7767437e-09
4.7108505e-09
4.6444066e-09
4.5786909e-09
4.5158595e-09
4.4563651e-09
4.3994819e-09
4.3454346e-09
4.2940639e-09
4.2451229e-09
4.198369e-09
4.1536509e-09
4.1108729e-09
4.0698892e-09
4.0305244e-09
3.9926513e-09
3.9562044e-09
3.9211139e-09
3.8872775e-09
3.8545501e-09
3.8228774e-09
3.7919996e-09
3.7622824e-09
3.732044e-09
3.7051491e-09
3.6615863e-09
1.9260032e-07
1.7182381e-07
1.6373493e-07
1.4966113e-07
1.4314292e-07
1.3947769e-07
1.3703281e-07
1.352674e-07
1.3395225e-07
1.3295119e-07
1.3217262e-07
1.3155484e-07
1.3105623e-07
1.3064801e-07
1.3030966e-07
1.3002606e-07
1.2978586e-07
1.2958015e-07
1.2940292e-07
1.2924543e-07
1.2911356e-07
1.2897481e-07
1.2882979e-07
1.1172024e-07
2.0653525e-10
1.6343167e-08
3.097193e-08
3.4990485e-08
3.4574272e-08
3.3167071e-08
3.1832526e-08
3.0669998e-08
2.9632982e-08
2.8702663e-08
2.7866827e-08
2.7110732e-08
2.6399923e-08
2.5739338e-08
2.5126009e-08
2.4557217e-08
2.4028898e-08
2.3535197e-08
2.3072221e-08
2.2637164e-08
2.22261e-08
2.1837134e-08
2.1468168e-08
2.1117492e-08
2.078372e-08
2.0464986e-08
2.0160585e-08
1.9868961e-08
1.9588754e-08
1.9319624e-08
1.906054e-08
1.8810476e-08
1.8569172e-08
1.8335893e-08
1.8109747e-08
1.7890529e-08
1.7677843e-08
1.747101e-08
1.7269638e-08
1.7073644e-08
1.6881338e-08
1.6692644e-08
1.6508209e-08
1.6327971e-08
1.6151595e-08
1.597875e-08
1.5809326e-08
1.5643189e-08
1.5480029e-08
1.5319586e-08
1.51618e-08
1.5006602e-08
1.4853718e-08
1.4702937e-08
1.4554196e-08
1.4407505e-08
1.4262669e-08
1.4119439e-08
1.397772e-08
1.383759e-08
1.3698936e-08
1.356148e-08
1.3425117e-08
1.3289902e-08
1.3155817e-08
1.302266e-08
1.2890258e-08
1.27586e-08
1.2627758e-08
1.2497568e-08
1.2367784e-08
1.2238356e-08
1.2109406e-08
1.1980809e-08
1.1852181e-08
1.1723552e-08
1.1595068e-08
1.1466609e-08
1.1337904e-08
1.1208867e-08
1.1079612e-08
1.0949959e-08
1.0819613e-08
1.0688569e-08
1.0556847e-08
1.0424191e-08
1.0290404e-08
1.0155547e-08
1.001941e-08
9.8846115e-09
9.7555866e-09
9.6332799e-09
9.5161955e-09
9.404839e-09
9.2988991e-09
9.1978805e-09
9.1012941e-09
9.0088373e-09
8.9203223e-09
8.8354566e-09
8.7538837e-09
8.6753464e-09
8.5997152e-09
8.5268515e-09
8.4565475e-09
8.3885067e-09
8.322619e-09
8.2583508e-09
8.1964589e-09
8.1334686e-09
8.0773956e-09
7.9865091e-09
1.9259288e-07
1.7171775e-07
1.6387386e-07
1.497606e-07
1.4318373e-07
1.3947217e-07
1.3699258e-07
1.3519996e-07
1.3386281e-07
1.3284389e-07
1.3205079e-07
1.3142111e-07
1.3091263e-07
1.3049613e-07
1.3015074e-07
1.2986109e-07
1.2961563e-07
1.2940526e-07
1.2922389e-07
1.2906262e-07
1.2892781e-07
1.2878326e-07
1.2864946e-07
1.1331289e-07
3.2601e-10
2.7883149e-08
5.3442237e-08
6.0822026e-08
6.0506139e-08
5.8438997e-08
5.6429636e-08
5.4656308e-08
5.3053157e-08
5.1599196e-08
5.0281748e-08
4.9081436e-08
4.7942992e-08
4.6878775e-08
4.5885842e-08
4.4961037e-08
4.4098586e-08
4.3289516e-08
4.2528067e-08
4.1810156e-08
4.112965e-08
4.0483815e-08
3.9869459e-08
3.9283973e-08
3.8725291e-08
3.8190467e-08
3.7678497e-08
3.7186893e-08
3.67135e-08
3.6257869e-08
3.5818344e-08
3.5393284e-08
3.4982342e-08
3.4584312e-08
3.4197749e-08
3.3822389e-08
3.3457578e-08
3.3102192e-08
3.2755634e-08
3.2417812e-08
3.2085652e-08
3.1759101e-08
3.1439438e-08
3.1126591e-08
3.0819981e-08
3.0519063e-08
3.022369e-08
2.9933651e-08
2.9648403e-08
2.936751e-08
2.9090898e-08
2.881847e-08
2.8549749e-08
2.8284361e-08
2.8022221e-08
2.7763372e-08
2.7507473e-08
2.7254079e-08
2.7003035e-08
2.6754499e-08
2.6508281e-08
2.6263885e-08
2.6021119e-08
2.57801e-08
2.5540807e-08
2.5302879e-08
2.5066003e-08
2.4830165e-08
2.4595504e-08
2.4361727e-08
2.412839e-08
2.3895398e-08
2.3662982e-08
2.3430918e-08
2.3198504e-08
2.2965791e-08
2.2733049e-08
2.2500059e-08
2.2266322e-08
2.2031676e-08
2.1796328e-08
2.1559948e-08
2.1321986e-08
2.1082426e-08
2.0841301e-08
2.0598131e-08
2.0352543e-08
2.010464e-08
1.9854023e-08
1.9605508e-08
1.9367296e-08
1.9141165e-08
1.8924322e-08
1.8717825e-08
1.8521135e-08
1.8333367e-08
1.8153637e-08
1.7981407e-08
1.7816352e-08
1.7657945e-08
1.750554e-08
1.735867e-08
1.7217108e-08
1.708061e-08
1.6948797e-08
1.6821127e-08
1.6697398e-08
1.6576626e-08
1.6460221e-08
1.6341724e-08
1.6236117e-08
1.6064785e-08
1.9258465e-07
1.7159218e-07
1.6403317e-07
1.4988155e-07
1.4323744e-07
1.3947152e-07
1.36951e-07
1.3512623e-07
1.3376307e-07
1.3272298e-07
1.3191264e-07
1.3126882e-07
1.3074861e-07
1.3032226e-07
1.2996849e-07
1.2967163e-07
1.2941989e-07
1.2920398e-07
1.2901768e-07
1.2885189e-07
1.2871358e-07
1.2856186e-07
1.2844469e-07
1.1476572e-07
4.6692943e-10
4.1539066e-08
8.3732193e-08
9.6445456e-08
9.6707294e-08
9.4055286e-08
9.1376204e-08
8.8973632e-08
8.6766079e-08
8.4737878e-08
8.2882167e-08
8.1177991e-08
7.9543971e-08
7.8006771e-08
7.6565266e-08
7.5216834e-08
7.3954263e-08
7.2765183e-08
7.1642035e-08
7.0579592e-08
6.9569236e-08
6.8607523e-08
6.7690114e-08
6.6813457e-08
6.5974819e-08
6.5170031e-08
6.4397846e-08
6.3654678e-08
6.2937473e-08
6.2245746e-08
6.1577092e-08
6.0929168e-08
6.0301591e-08
5.9692571e-08
5.9100005e-08
5.8523638e-08
5.7962484e-08
5.741486e-08
5.6879975e-08
5.6357779e-08
5.5843091e-08
5.5335992e-08
5.4838824e-08
5.4351536e-08
5.3873216e-08
5.340305e-08
5.2940898e-08
5.248646e-08
5.2038874e-08
5.159747e-08
5.1162196e-08
5.0732939e-08
5.0308942e-08
4.9889603e-08
4.947483e-08
4.9064741e-08
4.8658794e-08
4.8256263e-08
4.7856925e-08
4.7461069e-08
4.7068405e-08
4.6678129e-08
4.6289926e-08
4.5904013e-08
4.5520383e-08
4.5138443e-08
4.4757679e-08
4.437808e-08
4.399989e-08
4.3622637e-08
4.3245586e-08
4.2868578e-08
4.2492007e-08
4.2115513e-08
4.1737932e-08
4.1359339e-08
4.0980183e-08
4.0600105e-08
4.0218272e-08
3.9834402e-08
3.9448837e-08
3.9061029e-08
3.8670048e-08
3.8275852e-08
3.7878485e-08
3.747714e-08
3.7071166e-08
3.6660716e-08
3.6245105e-08
3.5832302e-08
3.5435979e-08
3.5059133e-08
3.4697011e-08
3.4351661e-08
3.4022265e-08
3.37074e-08
3.3405631e-08
3.3116098e-08
3.28383e-08
3.2571393e-08
3.2314317e-08
3.2066312e-08
3.1827023e-08
3.1596066e-08
3.1372824e-08
3.1156398e-08
3.0946459e-08
3.0741377e-08
3.0543509e-08
3.0342056e-08
3.0162257e-08
2.9870243e-08
1.9257573e-07
1.7144475e-07
1.6421342e-07
1.5002804e-07
1.4330789e-07
1.3947878e-07
1.3691032e-07
1.3504785e-07
1.3365413e-07
1.3258913e-07
1.3175847e-07
1.3109794e-07
1.3056386e-07
1.3012585e-07
1.2976217e-07
1.2945677e-07
1.2919759e-07
1.2897513e-07
1.2878297e-07
1.2861183e-07
1.2846936e-07
1.2830884e-07
1.2821603e-07
1.161254e-07
6.4021519e-10
5.5976659e-08
1.1818939e-07
1.4160429e-07
1.4347086e-07
1.4050155e-07
1.372914e-07
1.3434864e-07
1.3158738e-07
1.2900909e-07
1.2662261e-07
1.244111e-07
1.2226069e-07
1.2022373e-07
1.1830372e-07
1.1650008e-07
1.148048e-07
1.1320213e-07
1.1168309e-07
1.1024169e-07
1.0886676e-07
1.0755445e-07
1.0629936e-07
1.0509706e-07
1.0394427e-07
1.0283556e-07
1.0176956e-07
1.0074148e-07
9.9747355e-08
9.8786779e-08
9.7856515e-08
9.6953497e-08
9.6077396e-08
9.5225733e-08
9.4395701e-08
9.3587165e-08
9.2798738e-08
9.2028078e-08
9.1274266e-08
9.053737e-08
8.9809099e-08
8.9089883e-08
8.8383768e-08
8.769079e-08
8.7009601e-08
8.6339085e-08
8.5679174e-08
8.502949e-08
8.4388752e-08
8.3756012e-08
8.313129e-08
8.2514493e-08
8.1904502e-08
8.1300417e-08
8.0702169e-08
8.0110011e-08
7.9523143e-08
7.8940479e-08
7.8361713e-08
7.7787333e-08
7.7216937e-08
7.6649324e-08
7.6084009e-08
7.552136e-08
7.4961407e-08
7.4403258e-08
7.3846131e-08
7.3290025e-08
7.2735337e-08
7.2181365e-08
7.1626995e-08
7.1071979e-08
7.0516935e-08
6.9961332e-08
6.9403405e-08
6.8843247e-08
6.8281545e-08
6.7717763e-08
6.7150624e-08
6.657968e-08
6.6005452e-08
6.5427103e-08
6.4843203e-08
6.4253655e-08
6.3658522e-08
6.3056556e-08
6.2446727e-08
6.182924e-08
6.1203017e-08
6.0580032e-08
5.9980988e-08
5.9410431e-08
5.8860844e-08
5.8335956e-08
5.7834647e-08
5.7354835e-08
5.6894406e-08
5.6452106e-08
5.6027242e-08
5.5618581e-08
5.522454e-08
5.4844e-08
5.4476452e-08
5.4121354e-08
5.3777793e-08
5.3444414e-08
5.3120726e-08
5.2804287e-08
5.2498652e-08
5.218751e-08
5.1909346e-08
5.1457089e-08
1.9256624e-07
1.7127303e-07
1.6441457e-07
1.5020489e-07
1.4339994e-07
1.3949799e-07
1.3687381e-07
1.3496739e-07
1.3353799e-07
1.3244383e-07
1.3158932e-07
1.3090917e-07
1.3035877e-07
1.2990703e-07
1.2953165e-07
1.2921618e-07
1.2894824e-07
1.2871803e-07
1.2851897e-07
1.2834151e-07
1.2819413e-07
1.2802286e-07
1.2796543e-07
1.174212e-07
8.4743112e-10
7.2272312e-08
1.5612429e-07
1.9154555e-07
1.9738798e-07
1.9529211e-07
1.9240952e-07
1.8963358e-07
1.8688777e-07
1.8422052e-07
1.8168803e-07
1.7929856e-07
1.766524e-07
1.7412472e-07
1.7172868e-07
1.6946801e-07
1.6733494e-07
1.6531068e-07
1.633855e-07
1.6155327e-07
1.5980036e-07
1.5812299e-07
1.5651492e-07
1.5497102e-07
1.5348766e-07
1.5205818e-07
1.506813e-07
1.4935093e-07
1.4806226e-07
1.4681512e-07
1.4560539e-07
1.4442929e-07
1.4328669e-07
1.4217432e-07
1.4108863e-07
1.400298e-07
1.3899594e-07
1.3798398e-07
1.3699295e-07
1.3602318e-07
1.3506168e-07
1.3410965e-07
1.3317386e-07
1.3225453e-07
1.3134977e-07
1.3045813e-07
1.2957972e-07
1.287141e-07
1.2785945e-07
1.2701452e-07
1.2617947e-07
1.2535427e-07
1.2453736e-07
1.2372747e-07
1.2292459e-07
1.2212918e-07
1.2134015e-07
1.2055594e-07
1.1977618e-07
1.1900162e-07
1.1823175e-07
1.1746488e-07
1.1670031e-07
1.159386e-07
1.1517988e-07
1.1442288e-07
1.1366648e-07
1.1291071e-07
1.1215616e-07
1.1140187e-07
1.1064626e-07
1.0988896e-07
1.0913089e-07
1.0837132e-07
1.0760775e-07
1.0684029e-07
1.0606992e-07
1.052959e-07
1.0451642e-07
1.0373082e-07
1.0293983e-07
1.0214229e-07
1.0133615e-07
1.0052124e-07
9.9697643e-08
9.8863586e-08
9.8017565e-08
9.7159839e-08
9.6288849e-08
9.5421198e-08
9.4585798e-08
9.37889e-08
9.3019187e-08
9.228315e-08
9.1579379e-08
9.0905056e-08
9.0257277e-08
8.9634352e-08
8.9035392e-08
8.8458727e-08
8.7902173e-08
8.7364189e-08
8.6844108e-08
8.6341223e-08
8.585428e-08
8.5381395e-08
8.4921882e-08
8.4472392e-08
8.4037808e-08
8.3595611e-08
8.3199572e-08
8.2555065e-08
1.9255637e-07
1.7107459e-07
1.6463563e-07
1.5041774e-07
1.4351965e-07
1.3953451e-07
1.3684596e-07
1.3488861e-07
1.3341776e-07
1.3228965e-07
1.3140729e-07
1.3070417e-07
1.3013465e-07
1.296668e-07
1.292777e-07
1.289504e-07
1.2867214e-07
1.2843284e-07
1.2822566e-07
1.2804075e-07
1.278876e-07
1.2770333e-07
1.276968e-07
1.1863016e-07
1.0901275e-09
9.0317622e-08
1.9867446e-07
2.4973235e-07
2.6079074e-07
2.5969936e-07
2.5698489e-07
2.5416299e-07
2.5121131e-07
2.4823314e-07
2.4533633e-07
2.4255675e-07
2.3972551e-07
2.3697664e-07
2.3434556e-07
2.3184626e-07
2.2947463e-07
2.2721087e-07
2.2504702e-07
2.2297924e-07
2.2099299e-07
2.1908615e-07
2.1725267e-07
2.1548754e-07
2.1378772e-07
2.1214597e-07
2.1056173e-07
2.0902787e-07
2.075393e-07
2.0609663e-07
2.0469492e-07
2.0333016e-07
2.020028e-07
2.0070868e-07
1.9944384e-07
1.9820928e-07
1.9700251e-07
1.958196e-07
1.9466013e-07
1.9352508e-07
1.9234638e-07
1.9114693e-07
1.8996675e-07
1.8880641e-07
1.8766334e-07
1.865357e-07
1.8542392e-07
1.8432754e-07
1.8324411e-07
1.8217198e-07
1.8111155e-07
1.8006294e-07
1.7902409e-07
1.7799321e-07
1.7697043e-07
1.7595654e-07
1.7495007e-07
1.7394892e-07
1.7295261e-07
1.7196229e-07
1.7097734e-07
1.6999548e-07
1.6901573e-07
1.6803894e-07
1.6706537e-07
1.6609331e-07
1.6512125e-07
1.6414923e-07
1.6317813e-07
1.622067e-07
1.6123279e-07
1.602559e-07
1.592773e-07
1.5829609e-07
1.5730889e-07
1.5631582e-07
1.5531823e-07
1.5431517e-07
1.5330418e-07
1.5228436e-07
1.5125673e-07
1.5021974e-07
1.4917064e-07
1.4810916e-07
1.4703544e-07
1.4594711e-07
1.448421e-07
1.4372076e-07
1.4258097e-07
1.4144439e-07
1.4034898e-07
1.3930261e-07
1.3828859e-07
1.3731798e-07
1.3638913e-07
1.3549842e-07
1.3464206e-07
1.3381791e-07
1.3302487e-07
1.322608e-07
1.3152285e-07
1.3080902e-07
1.3011847e-07
1.2945033e-07
1.2880298e-07
1.2817395e-07
1.2756231e-07
1.269638e-07
1.2638462e-07
1.2579587e-07
1.2526758e-07
1.2440727e-07
1.9254636e-07
1.708472e-07
1.6487426e-07
1.5067302e-07
1.4367458e-07
1.3959527e-07
1.3683287e-07
1.3481681e-07
1.3329806e-07
1.3213059e-07
1.3121585e-07
1.3048597e-07
1.2989411e-07
1.2940742e-07
1.2900226e-07
1.2866111e-07
1.2837076e-07
1.2812079e-07
1.2790409e-07
1.2771045e-07
1.2755048e-07
1.2735073e-07
1.2741691e-07
1.1972431e-07
1.3705197e-09
1.1080147e-07
2.4467945e-07
3.1616408e-07
3.3522443e-07
3.3620213e-07
3.3411688e-07
3.3152212e-07
3.285387e-07
3.2535519e-07
3.2215317e-07
3.1901139e-07
3.1582121e-07
3.1267674e-07
3.096365e-07
3.0672724e-07
3.039501e-07
3.0128414e-07
2.9872321e-07
2.9626589e-07
2.9389641e-07
2.9161411e-07
2.8941299e-07
2.8728815e-07
2.8523708e-07
2.8325158e-07
2.8133198e-07
2.7946969e-07
2.7765897e-07
2.7590138e-07
2.7419092e-07
2.7252297e-07
2.7089872e-07
2.6931296e-07
2.6776088e-07
2.662444e-07
2.6476042e-07
2.6330389e-07
2.6187471e-07
2.604746e-07
2.590777e-07
2.5768652e-07
2.5631622e-07
2.5496835e-07
2.5363932e-07
2.5232685e-07
2.5103222e-07