/*--------------------------------*- C++ -*----------------------------------*\
  =========                 |
  \\      /  F ield         | OpenFOAM: The Open Source CFD Toolbox
   \\    /   O peration     | Website:  https://openfoam.org
    \\  /    A nd           | Version:  12
     \\/     M anipulation  |
\*---------------------------------------------------------------------------*/
FoamFile
{
    format      ascii;
    class       volScalarField;
    location    "800";
    object      omega;
}
// * * * * * * * * * * * * * * * * * * * * * * * * * * * * * * * * * * * * * //

dimensions      [0 0 -1 0 0 0 0];

internalField   nonuniform List<scalar> 
7480
(
99.668428
99.668428
99.668428
99.668428
99.668428
99.668428
99.668428
99.668428
99.668428
99.668428
99.668428
99.668428
99.668428
425.18786
681.42114
848.45388
946.62362
996.85426
1022.6669
1021.7546
1016.283
1006.0596
993.35331
979.75972
965.81722
951.79981
937.97225
924.71115
912.40691
900.91886
890.26156
880.50208
871.68483
863.80819
856.82564
850.66225
845.2199
840.40367
836.15036
832.41273
829.12367
826.20116
823.57214
821.16289
818.94219
816.81364
814.75801
812.74241
810.73434
808.71231
806.65275
804.52737
802.3175
800.02191
797.65314
795.22868
792.76551
790.2811
787.79111
785.30587
782.83043
780.36739
777.92019
775.4947
773.0967
770.72942
768.39599
766.0988
763.83564
761.60061
759.3893
757.20127
755.03777
752.89954
750.78846
748.7066
746.65214
744.62077
742.60982
740.61936
738.65045
736.70481
734.78379
732.88551
731.00637
729.14525
727.30223
725.47867
723.67601
721.89229
720.12462
718.37219
716.63564
714.9141
713.20965
711.50594
709.83658
708.06802
706.56816
703.81955
24.73004
24.770858
24.832442
24.901765
24.975501
25.052932
25.133412
25.217117
25.303193
25.39859
25.473196
25.686659
25.305281
27.77908
39.063821
67.478489
115.6514
179.14931
251.77173
316.42072
363.36742
394.71496
415.45891
429.70199
438.5254
441.27592
439.30057
434.21654
429.5449
428.31447
429.8215
432.57493
435.25833
436.99072
437.31579
436.10736
433.47656
429.70704
425.27274
420.4173
414.94297
408.9002
402.61043
396.27902
390.01635
383.91719
378.06073
372.50328
367.26872
362.3498
357.79821
353.60453
349.74684
346.20304
342.94957
339.95522
337.18628
334.6082
332.17312
329.85821
327.65542
325.55897
323.55828
321.64239
319.80379
318.03614
316.33374
314.68555
313.08091
311.51641
309.99329
308.51335
307.07722
305.68355
304.33061
303.01465
301.73054
300.47505
299.24835
298.05146
296.88456
295.74716
294.63654
293.54973
292.48475
291.44165
290.42119
289.4232
288.44602
287.48773
286.5468
285.62321
284.71765
283.82881
282.95628
282.09549
281.25628
280.40833
279.66682
278.40879
24.644357
24.49466
24.343599
24.190496
24.035164
23.877579
23.717752
23.555708
23.391472
23.225104
23.056567
22.886188
22.713632
22.539042
22.396153
22.574371
23.519867
25.956832
30.636269
38.743304
50.914025
66.768729
85.615638
106.45949
129.03071
149.51696
167.06063
181.95201
195.09412
208.05239
222.70681
237.02569
248.91715
258.22127
265.1187
269.74829
272.11996
272.05688
269.64996
265.67814
261.69594
258.24217
254.99923
251.73286
248.38393
245.09809
241.70427
238.13864
234.4759
230.77596
227.1121
223.58592
220.25402
217.13241
214.20878
211.46089
208.87411
206.44029
204.17698
202.07401
200.11333
198.27547
196.54209
194.90077
193.34341
191.86218
190.44842
189.0885
187.77477
186.50802
185.28936
184.11723
182.98898
181.90202
180.85445
179.84102
178.85608
177.89826
176.9687
176.06806
175.19569
174.35093
173.5303
172.73036
171.95002
171.18982
170.4503
169.73155
169.03136
168.34741
167.6788
167.02576
166.38892
165.76726
165.15956
164.56339
163.98381
163.40273
162.91104
162.04446
24.638771
24.480113
24.318883
24.154942
23.988307
23.818993
23.647015
23.472393
23.295146
23.115301
22.932884
22.747942
22.5605
22.37079
22.178634
21.985626
21.792184
21.605788
21.446979
21.362871
21.415461
21.669917
22.186375
23.054153
24.292062
26.378168
29.485066
33.731531
39.244405
46.181088
54.879097
65.591276
78.815971
93.097173
107.97958
123.29345
138.99486
155.07644
168.33322
177.81282
184.16798
188.16573
190.24408
190.66826
189.68342
187.5386
185.15168
182.80641
180.43171
177.90545
175.23764
172.59199
169.8656
167.11253
164.37107
161.66807
159.04467
156.52925
154.1492
151.91136
149.8042
147.81613
145.94198
144.17835
142.5155
140.94051
139.43897
138.01206
136.66107
135.38083
134.16368
133.00223
131.89147
130.82807
129.80863
128.8271
127.87992
126.96756
126.09018
125.24639
124.43407
123.65177
122.89513
122.16124
121.44999
120.76186
120.09661
119.4538
118.8304
118.22418
117.63478
117.06248
116.50761
115.96875
115.4443
114.9326
114.43773
113.94402
113.53586
112.80644
24.638353
24.479131
24.317351
24.152868
23.985652
23.815701
23.643023
23.467628
23.289532
23.108751
22.925301
22.739205
22.550488
22.359121
22.165287
21.967957
21.767427
21.564503
21.36126
21.156723
20.951372
20.746581
20.54192
20.339016
20.140304
19.951235
19.779447
19.638163
19.544241
19.51988
19.595315
19.822079
20.242505
21.170355
22.810813
25.39191
29.220486
34.759887
42.462483
53.105492
66.361764
80.960379
96.40848
112.74232
126.27943
135.81577
141.91375
145.35241
146.81814
146.85192
145.84511
144.27588
142.56485
140.7263
138.70902
136.54074
134.37339
132.15393
129.90878
127.6666
125.46239
123.33471
121.3121
119.39353
117.56276
115.80979
114.13238
112.53938
111.03594
109.61596
108.26855
106.98711
105.76803
104.60712
103.49718
102.43828
101.43156
100.47327
99.558836
98.68401
97.845679
97.041352
96.267258
95.522129
94.805866
94.117642
93.455915
92.819326
92.204403
91.609647
91.035017
90.480359
89.94534
89.427945
88.926588
88.439997
87.972173
87.506791
87.128037
86.448629
24.638319
24.479035
24.317188
24.152639
23.985357
23.815343
23.642605
23.467154
23.289007
23.108182
22.924698
22.738581
22.549861
22.358575
22.164771
21.968487
21.76976
21.56861
21.365048
21.158912
20.949768
20.736905
20.521789
20.304921
20.08669
19.867468
19.648395
19.428672
19.208246
18.987474
18.767565
18.547909
18.328881
18.112522
17.903141
17.708339
17.543228
17.433327
17.428654
17.579822
18.108142
19.357137
21.667519
25.5861
31.746555
41.271392
54.06911
68.466124
84.022035
97.774256
107.83761
114.17872
117.65312
119.06964
119.14118
118.35162
117.15164
115.77631
114.24951
112.56551
110.79284
109.00431
107.19285
105.36167
103.52538
101.72022
99.978866
98.306153
96.694278
95.141304
93.652032
92.232223
90.880571
89.591073
88.356872
87.179771
86.063562
85.00491
83.997456
83.036498
82.11916
81.241234
80.404749
79.608412
78.848892
78.122843
77.427497
76.760511
76.11948
75.503797
74.91282
74.345348
73.800108
73.274724
72.76804
72.27896
71.811299
71.347193
70.972394
70.302928
24.638326
24.479033
24.317177
24.152616
23.985323
23.815297
23.642546
23.467083
23.288922
23.108082
22.924583
22.738451
22.549718
22.358427
22.164631
21.968383
21.769743
21.568769
21.365509
21.160008
20.952305
20.742409
20.530355
20.316192
20.099974
19.881745
19.661549
19.439373
19.215101
18.988628
18.759263
18.528329
18.296417
18.063871
17.831044
17.59875
17.367418
17.136381
16.906072
16.678309
16.4527
16.232451
16.026972
15.854424
15.768222
15.834685
16.311538
17.618576
20.280524
24.965535
32.887732
44.479745
57.839951
72.333427
84.035522
92.10129
96.824578
99.048514
99.678483
99.373977
98.542594
97.499059
96.281973
94.942658
93.514144
92.081553
90.620807
89.124346
87.594616
86.064028
84.568314
83.118976
81.711598
80.345081
79.026453
77.759925
76.545811
75.383234
74.271499
73.210256
72.197863
71.22966
70.306957
69.430635
68.597575
67.803407
67.045091
66.319293
65.628528
64.970587
64.342497
63.741725
63.166034
62.613606
62.083995
61.575628
61.091693
60.612542
60.22659
59.543656
24.63834
24.479048
24.317191
24.15263
23.985335
23.815307
23.642554
23.467089
23.288926
23.108085
22.924587
22.738456
22.549726
22.358438
22.164642
21.968391
21.769742
21.568751
21.365476
21.159972
20.952297
20.742515
20.530689
20.316879
20.10115
19.883566
19.664188
19.44308
19.220305
18.995931
18.769995
18.542563
18.313722
18.083564
17.852173
17.619623
17.38595
17.15105
16.914728
16.675929
16.436591
16.197502
15.959383
15.724043
15.490145
15.258614
15.031395
14.811814
14.611643
14.471566
14.463772
14.827053
16.019989
18.663815
23.431909
32.237565
43.547982
56.513697
68.164576
76.607757
81.759222
84.267149
85.025869
84.875798
84.25514
83.437752
82.46313
81.376695
80.212017
79.034166
77.820137
76.562958
75.271179
73.974033
72.70081
71.452199
70.223044
69.019847
67.853802
66.730039
65.648438
64.608156
63.609073
62.653583
61.74129
60.87029
60.039239
59.244951
58.488792
57.77002
57.085797
56.433077
55.808863
55.214012
54.648019
54.107358
53.594271
53.087484
52.679459
51.966384
24.638358
24.479067
24.317212
24.152652
23.985358
23.81533
23.642578
23.467113
23.288951
23.108111
22.924614
22.738486
22.54976
22.358476
22.164685
21.96844
21.769796
21.568808
21.365533
21.160026
20.952344
20.742544
20.530689
20.316846
20.101081
19.883468
19.664081
19.442996
19.220293
18.996056
18.770374
18.543333
18.315019
18.085518
17.854917
17.623304
17.390762
17.157375
16.92323
16.688366
16.452858
16.216805
15.980275
15.743334
15.505815
15.267047
15.026685
14.786803
14.549432
14.315534
14.084111
13.858394
13.641126
13.443832
13.323416
13.356444
13.957549
15.666201
19.113571
25.887286
35.81896
47.571479
58.43606
66.264295
70.954173
73.119568
73.708318
73.539485
73.012607
72.33074
71.504123
70.58043
69.601235
68.606106
67.578675
66.507359
65.403461
64.292865
63.190247
62.097397
61.018842
59.965028
58.939891
57.944636
56.981596
56.054472
55.165209
54.312457
53.494399
52.712836
51.967436
51.256337
50.577158
49.930339
49.315647
48.729885
48.174993
47.628678
47.189358
46.432043
24.638377
24.479088
24.317235
24.152677
23.985384
23.815358
23.642606
23.467143
23.288982
23.108144
22.924651
22.738527
22.549806
22.358528
22.164743
21.968504
21.769864
21.56888
21.365606
21.160099
20.952415
20.742612
20.530753
20.316903
20.101129
19.883503
19.664098
19.442992
19.220264
18.995997
18.770275
18.543188
18.314825
18.08528
17.854646
17.62302
17.390502
17.157192
16.923192
16.688612
16.453556
16.218123
15.982411
15.746506
15.510497
15.274452
15.038404
14.802408
14.56656
14.330764
14.094823
13.856616
13.619086
13.38521
13.155376
12.928961
12.710069
12.503306
12.34204
12.295948
12.685258
14.049227
17.005231
23.262376
32.499567
43.561039
53.053395
59.520454
63.043409
64.482389
64.721105
64.445662
63.938498
63.316528
62.576446
61.773242
60.942623
60.084952
59.184279
58.243134
57.282501
56.321762
55.361403
54.401864
53.452758
52.523185
51.616917
50.736458
49.88288
49.059086
48.266732
47.506813
46.779473
46.083353
45.418519
44.784032
44.182861
43.592535
43.114357
42.298857
24.638397
24.479111
24.31726
24.152704
23.985413
23.815388
23.642638
23.467176
23.289018
23.108182
22.924692
22.738573
22.549858
22.358587
22.164809
21.968576
21.769942
21.568961
21.36569
21.160184
20.9525
20.742697
20.530837
20.316985
20.101209
19.88358
19.664172
19.443062
19.22033
18.996057
18.770328
18.54323
18.314855
18.085292
17.854638
17.622988
17.390441
17.157098
16.92306
16.688433
16.453321
16.217831
15.982071
15.746149
15.510173
15.274255
15.038508
14.803037
14.567937
14.333282
14.099162
13.865567
13.632515
13.400117
13.168228
12.936284
12.702791
12.471208
12.245397
12.022728
11.808144
11.603545
11.43736
11.377733
11.768235
13.185956
16.286027
23.183259
32.412524
42.352127
50.00285
54.658693
56.75669
57.387907
57.29516
56.919335
56.420255
55.829264
55.164938
54.461003
53.736726
52.974776
52.171177
51.33945
50.49794
49.649161
48.795031
47.945717
47.107978
46.284645
45.479402
44.697392
43.941947
43.212552
42.510145
41.835702
41.194052
40.563459
40.047643
39.169823
24.638419
24.479135
24.317287
24.152732
23.985443
23.81542
23.642672
23.467212
23.289055
23.108223
22.924736
22.738622
22.549914
22.35865
22.164879
21.968653
21.770024
21.569048
21.36578
21.160275
20.95259
20.742786
20.530925
20.31707
20.101292
19.88366
19.66425
19.443137
19.220401
18.996125
18.770393
18.543292
18.314914
18.085348
17.854691
17.623038
17.390487
17.157139
16.923096
16.688461
16.453339
16.217835
15.982056
15.74611
15.510105
15.274148
15.038349
14.802816
14.567659
14.332986
14.098901
13.865524
13.632956
13.401283
13.170569
12.940882
12.712176
12.484497
12.257784
12.032095
11.804179
11.577965
11.358301
11.141955
10.934592
10.737451
10.589117
10.569871
11.186008
12.953255
17.210241
24.786548
34.439876
42.548777
47.870398
50.322924
51.215478
51.273941
50.994841
50.580631
50.090344
49.526021
48.925039
48.306072
47.651681
46.954966
46.226647
45.48516
44.733151
43.971382
43.208504
42.45222
41.706968
40.975614
40.261885
39.56825
38.90174
38.242163
37.699002
36.767972
24.638442
24.479161
24.317315
24.152762
23.985475
23.815454
23.642708
23.46725
23.289096
23.108266
22.924784
22.738675
22.549973
22.358717
22.164954
21.968734
21.770111
21.569139
21.365874
21.16037
20.952686
20.742882
20.531018
20.317162
20.101381
19.883747
19.664333
19.443217
19.220478
18.996198
18.770463
18.543359
18.314977
18.085409
17.854748
17.623092
17.390539
17.157189
16.923144
16.688507
16.453384
16.217878
15.982098
15.74615
15.510142
15.274182
15.038377
14.802835
14.567663
14.332968
14.098856
13.865433
13.632804
13.401072
13.17034
12.940709
12.712288
12.485169
12.2594
12.03507
11.812089
11.590468
11.370168
11.151373
10.930328
10.711736
10.499801
10.292045
10.093599
9.9142156
9.798837
10.008075
11.127737
13.943091
20.304087
28.988827
37.025058
42.503271
45.081979
46.065156
46.184787
45.947974
45.584484
45.160027
44.67023
44.149746
43.60993
43.038663
42.428091
41.786672
41.129489
40.457778
39.77472
39.088589
38.405145
37.72735
37.064916
36.399336
35.846959
34.884108
24.638467
24.479188
24.317345
24.152794
23.985509
23.81549
23.642746
23.46729
23.289139
23.108313
22.924834
22.738731
22.550036
22.358788
22.165032
21.968819
21.770202
21.569235
21.365972
21.16047
20.952786
20.742981
20.531117
20.317259
20.101475
19.883838
19.664421
19.443302
19.220559
18.996276
18.770537
18.54343
18.315044
18.085472
17.854808
17.623149
17.390593
17.15724
16.923193
16.688554
16.453428
16.217921
15.982139
15.74619
15.51018
15.274219
15.038413
14.802871
14.567698
14.333002
14.098889
13.865462
13.632826
13.401082
13.17033
12.94067
12.7122
12.485017
12.259215
12.034882
11.812124
11.59103
11.371629
11.154011
10.938045
10.723741
10.511043
10.299746
10.086823
9.8780914
9.6749767
9.4793621
9.2952556
9.1501951
9.1822275
9.9627168
12.099569
17.679455
25.684075
33.322249
38.516289
40.873064
41.738904
41.827702
41.599838
41.267085
40.885803
40.454673
39.998187
39.523671
39.019131
38.476107
37.904436
37.315379
36.710244
36.092699
35.475328
34.839218
34.305788
33.347819
24.638493
24.479217
24.317376
24.152828
23.985545
23.815528
23.642786
23.467333
23.289184
23.108362
22.924888
22.738791
22.550102
22.358861
22.165113
21.968908
21.770297
21.569334
21.366074
21.160574
20.952891
20.743085
20.531219
20.317359
20.101573
19.883934
19.664514
19.443391
19.220645
18.996358
18.770615
18.543504
18.315115
18.08554
17.854873
17.62321
17.390651
17.157295
16.923245
16.688604
16.453475
16.217966
15.982182
15.746231
15.51022
15.274257
15.038449
14.802905
14.567732
14.333035
14.09892
13.865493
13.632856
13.401111
13.170359
12.940698
12.712224
12.485032
12.259214
12.03486
11.812059
11.590898
11.371462
11.153828
10.938093
10.724331
10.512562
10.302837
10.095031
9.8890468
9.6852088
9.4806383
9.2771637
9.0807819
8.8890851
8.7101929
8.5496548
8.5217167
9.1561292
11.075013
16.315803
23.98396
31.015598
35.509877
37.41783
38.044665
38.051564
37.818522
37.5072
37.160085
36.774945
36.370015
35.947915
35.492664
35.002103
34.486326
33.956655
33.390173
32.910812
32.007986
24.638521
24.479248
24.317409
24.152863
23.985583
23.815568
23.642828
23.467377
23.289233
23.108414
22.924945
22.738853
22.550171
22.358938
22.165198
21.968999
21.770395
21.569436
21.36618
21.160681
20.952999
20.743192
20.531326
20.317464
20.101676
19.884033
19.66461
19.443484
19.220734
18.996443
18.770697
18.543582
18.315189
18.085611
17.85494
17.623274
17.390712
17.157353
16.9233
16.688656
16.453525
16.218014
15.982228
15.746274
15.510261
15.274297
15.038488
14.802942
14.567767
14.333068
14.098953
13.865524
13.632886
13.40114
13.170387
12.940725
12.71225
12.485058
12.259239
12.034884
11.812081
11.590912
11.371461
11.153807
10.938028
10.7242
10.512396
10.302681
10.095146
9.8898247
9.6867679
9.4858866
9.2870512
9.0903506
8.8950347
8.6982066
8.5096548
8.3215931
8.1615556
7.9551407
7.9581737
8.5939033
10.62875
15.919003
23.50788
29.711641
33.090685
34.450758
34.815769
34.740615
34.50561
34.214942
33.89611
33.547233
33.181042
32.796332
32.38317
31.918955
31.526762
30.731922
24.638551
24.47928
24.317443
24.1529
23.985622
23.81561
23.642873
23.467425
23.289283
23.108468
22.925004
22.738918
22.550243
22.359018
22.165286
21.969094
21.770495
21.569542
21.366289
21.160792
20.95311
20.743304
20.531436
20.317572
20.101782
19.884136
19.66471
19.44358
19.220827
18.996533
18.770783
18.543664
18.315268
18.085685
17.855011
17.623342
17.390776
17.157414
16.923359
16.688712
16.453578
16.218064
15.982276
15.746321
15.510306
15.274339
15.038528
14.802981
14.567804
14.333104
14.098987
13.865557
13.632917
13.40117
13.170416
12.940752
12.712277
12.485083
12.259264
12.034908
11.812103
11.590934
11.371483
11.153828
10.938046
10.72421
10.51239
10.302654
10.095067
9.889694
9.6865906
9.4858267
9.2874637
9.0915003
8.8979686
8.7066041
8.517519
8.3307256
8.140624
7.9583158
7.7807031
7.6153458
7.4688477
7.4978137
8.2368721
10.792227
16.528846
23.524555
28.641302
30.987238
31.866404
31.989473
31.834385
31.587851
31.309672
31.011183
30.697291
30.350044
30.063554
29.41818
24.638583
24.479314
24.31748
24.152939
23.985664
23.815654
23.64292
23.467475
23.289337
23.108526
22.925067
22.738987
22.550319
22.359101
22.165376
21.969192
21.770599
21.569651
21.366401
21.160906
20.953225
20.743418
20.53155
20.317684
20.101892
19.884243
19.664814
19.443681
19.220924
18.996626
18.770872
18.543749
18.315349
18.085763
17.855085
17.623412
17.390843
17.157478
16.923419
16.68877
16.453634
16.218117
15.982327
15.746369
15.510352
15.274383
15.038571
14.803022
14.567843
14.333142
14.099023
13.865591
13.63295
13.401202
13.170446
12.940781
12.712304
12.48511
12.259289
12.034932
11.812126
11.590956
11.371504
11.153848
10.938066
10.72423
10.512409
10.302672
10.095082
9.8896988
9.6865804
9.4857819
9.2873576
9.0913574
8.8978248
8.7068394
8.5183516
8.3325353
8.1487447
7.9677772
7.7888392
7.6079204
7.4344897
7.2653041
7.1118317
6.9721895
7.159088
8.127091
11.869609
18.182095
24.16296
27.672473
29.059473
29.459415
29.424136
29.235976
28.998703
28.724087
28.501551
28.012151
24.638616
24.47935
24.317518
24.15298
23.985707
23.8157
23.642969
23.467527
23.289393
23.108586
22.925132
22.739058
22.550397
22.359187
22.165469
21.969292
21.770706
21.569762
21.366516
21.161023
20.953343
20.743537
20.531667
20.3178
20.102005
19.884354
19.664921
19.443785
19.221024
18.996722
18.770964
18.543838
18.315433
18.085843
17.855162
17.623486
17.390913
17.157545
16.923483
16.68883
16.453692
16.218173
15.98238
15.74642
15.510401
15.27443
15.038615
14.803064
14.567884
14.333181
14.099061
13.865627
13.632985
13.401235
13.170478
12.940812
12.712334
12.485137
12.259315
12.034957
11.81215
11.590979
11.371526
11.153869
10.938086
10.724248
10.512427
10.302689
10.095099
9.8897154
9.6865969
9.485797
9.2873664
9.0913527
8.8977998
8.7067526
8.5182502
8.3323262
8.1490454
7.9683982
7.7904366
7.6147978
7.4417486
7.2702549
7.0978718
6.9322311
6.7737968
6.6311075
6.5332619
6.957416
8.687326
13.536296
19.837504
24.453282
26.476055
27.184926
27.268284
27.116122
26.953686
26.559433
24.638652
24.479388
24.317559
24.153024
23.985753
23.815749
23.643021
23.467583
23.289452
23.10865
22.925201
22.739133
22.550478
22.359275
22.165566
21.969396
21.770815
21.569876
21.366633
21.161143
20.953464
20.743658
20.531787
20.317918
20.102121
19.884468
19.665032
19.443892
19.221128
18.996822
18.77106
18.54393
18.315521
18.085927
17.855242
17.623562
17.390986
17.157615
16.923549
16.688894
16.453752
16.21823
15.982435
15.746472
15.510451
15.274478
15.038662
14.803109
14.567927
14.333222
14.0991
13.865665
13.633021
13.40127
13.170511
12.940844
12.712364
12.485166
12.259343
12.034983
11.812175
11.591003
11.371548
11.153891
10.938106
10.724268
10.512446
10.302707
10.095115
9.889731
9.6866118
9.4858116
9.2873808
9.0913669
8.8978139
8.706762
8.5182496
8.332309
8.1489775
7.968283
7.7902486
7.6149328
7.4423038
7.2724056
7.1047409
6.9401648
6.774946
6.6124818
6.4543108
6.3121137
6.1680255
6.2718876
7.03542
10.487166
16.335154
21.449469
24.081493
25.04358
25.328325
25.124569
24.63869
24.479428
24.317602
24.153069
23.985802
23.8158
23.643075
23.46764
23.289514
23.108716
22.925272
22.73921
22.550563
22.359367
22.165664
21.969501
21.770927
21.569993
21.366754
21.161266
20.953588
20.743782
20.53191
20.31804
20.102241
19.884585
19.665146
19.444002
19.221234
18.996925
18.771159
18.544024
18.315612
18.086014
17.855325
17.623641
17.391062
17.157687
16.923618
16.688959
16.453815
16.21829
15.982492
15.746527
15.510504
15.274529
15.03871
14.803155
14.567971
14.333265
14.099141
13.865704
13.633059
13.401306
13.170545
12.940876
12.712395
12.485196
12.259371
12.035011
11.812201
11.591027
11.371572
11.153913
10.938127
10.724288
10.512465
10.302725
10.095132
9.8897472
9.6866271
9.485826
9.2873945
9.0913799
8.8978264
8.7067745
8.5182616
8.3323218
8.1489859
7.9682818
7.7902331
7.6148663
7.442199
7.2722565
7.1050602
6.9406323
6.7788375
6.6193072
6.4629528
6.3038321
6.1515772
6.0061539
5.8708665
5.7887645
6.2030764
8.1585614
13.040272
18.386927
21.853795
23.26173
24.63873
24.479471
24.317647
24.153117
23.985852
23.815854
23.643132
23.467701
23.289578
23.108785
22.925347
22.739291
22.55065
22.359461
22.165766
21.96961
21.771041
21.570112
21.366877
21.161392
20.953715
20.743909
20.532037
20.318165
20.102364
19.884705
19.665263
19.444116
19.221344
18.997031
18.771261
18.544122
18.315706
18.086104
17.85541
17.623723
17.39114
17.157761
16.923689
16.689027
16.45388
16.218353
15.982552
15.746584
15.510558
15.274581
15.03876
14.803203
14.568017
14.333309
14.099183
13.865745
13.633098
13.401343
13.170581
12.940911
12.712428
12.485227
12.259401
12.035039
11.812228
11.591053
11.371596
11.153936
10.938149
10.724309
10.512484
10.302744
10.09515
9.8897639
9.6866429
9.4858409
9.2874085
9.0913932
8.8978388
8.7067862
8.5182727
8.3323325
8.1489965
7.9682922
7.7902443
7.6148738
7.4421995
7.2722358
7.1050026
6.9405009
6.7787745
6.6197796
6.4636491
6.3097874
6.158954
6.0084761
5.859942
5.7156085
5.5862244
5.4598764
5.6365693
7.036698
10.282394
17.277601
24.638772
24.479516
24.317695
24.153167
23.985906
23.815911
23.643192
23.467765
23.289646
23.108858
22.925424
22.739374
22.55074
22.359559
22.16587
21.969721
21.771158
21.570234
21.367003
21.16152
20.953845
20.744039
20.532166
20.318293
20.10249
19.884828
19.665383
19.444233
19.221458
18.99714
18.771366
18.544223
18.315803
18.086196
17.855499
17.623808
17.391221
17.157839
16.923763
16.689098
16.453947
16.218417
15.982613
15.746643
15.510615
15.274635
15.038812
14.803253
14.568065
14.333355
14.099227
13.865787
13.633138
13.401382
13.170618
12.940946
12.712462
12.48526
12.259432
12.035068
11.812256
11.59108
11.371621
11.15396
10.938172
10.72433
10.512505
10.302763
10.095168
9.8897811
9.6866592
9.4858562
9.287423
9.0914068
8.8978517
8.7067983
8.5182841
8.3323432
8.1490065
7.9683017
7.7902534
7.6148828
7.4422085
7.2722456
7.1050067
6.9405008
6.7787362
6.6197222
6.4634569
6.3099681
6.1592558
6.0112049
5.8654962
5.7228264
5.577652
5.4397692
5.3050552
5.2048563
5.1625543
8.3161928
24.638817
24.479563
24.317745
24.15322
23.985962
23.81597
23.643255
23.467831
23.289717
23.108933
22.925505
22.739461
22.550833
22.359659
22.165977
21.969834
21.771278
21.570359
21.367131
21.161651
20.953977
20.744172
20.532298
20.318424
20.102619
19.884955
19.665507
19.444353
19.221574
18.997252
18.771474
18.544327
18.315902
18.086292
17.855591
17.623895
17.391304
17.157918
16.923839
16.689171
16.454017
16.218484
15.982677
15.746705
15.510673
15.274691
15.038866
14.803305
14.568115
14.333402
14.099273
13.865831
13.63318
13.401422
13.170656
12.940982
12.712497
12.485293
12.259464
12.035098
11.812285
11.591107
11.371647
11.153985
10.938195
10.724352
10.512526
10.302783
10.095187
9.8897989
9.6866759
9.485872
9.2874379
9.0914208
8.8978649
8.7068107
8.5182957
8.3323541
8.1490167
7.9683113
7.7902623
7.6148912
7.4422164
7.2722532
7.1050141
6.9405088
6.7787436
6.6197236
6.4634478
6.3099226
6.159138
6.0111192
5.8658061
5.7233884
5.5829267
5.4467255
5.3048398
5.1877798
4.9849811
5.0151447
24.638864
24.479613
24.317797
24.153276
23.98602
23.816032
23.64332
23.467901
23.289791
23.109012
22.925589
22.739551
22.55093
22.359762
22.166087
21.969951
21.7714
21.570485
21.367261
21.161784
20.954112
20.744307
20.532433
20.318558
20.102751
19.885084
19.665633
19.444476
19.221693
18.997368
18.771585
18.544434
18.316005
18.08639
17.855685
17.623985
17.39139
17.158001
16.923918
16.689246
16.454089
16.218552
15.982743
15.746768
15.510734
15.274749
15.038921
14.803358
14.568166
14.333451
14.099319
13.865876
13.633223
13.401463
13.170696
12.94102
12.712532
12.485327
12.259496
12.03513
11.812314
11.591135
11.371674
11.15401
10.938219
10.724375
10.512547
10.302803
10.095206
9.8898171
9.6866931
9.4858883
9.2874532
9.0914352
8.8978784
8.7068234
8.5183076
8.3323653
8.1490272
7.9683211
7.7902715
7.6148998
7.4422243
7.2722606
7.105021
6.9405152
6.7787501
6.6197296
6.4634554
6.3099264
6.1591384
6.0110875
5.8657674
5.7231734
5.5832998
5.4461653
5.3118001
5.1777151
5.0594182
4.8591272
24.638914
24.479666
24.317853
24.153334
23.986082
23.816097
23.643389
23.467973
23.289867
23.109093
22.925676
22.739644
22.551029
22.359867
22.166199
21.970069
21.771524
21.570614
21.367394
21.161919
20.954249
20.744445
20.532571
20.318695
20.102886
19.885217
19.665763
19.444602
19.221815
18.997486
18.771699
18.544544
18.316111
18.086492
17.855782
17.624078
17.391479
17.158086
16.923999
16.689324
16.454163
16.218623
15.982811
15.746833
15.510796
15.274809
15.038979
14.803413
14.568218
14.333501
14.099368
13.865922
13.633267
13.401505
13.170736
12.941059
12.712569
12.485362
12.25953
12.035162
11.812345
11.591164
11.371702
11.154036
10.938244
10.724398
10.512569
10.302824
10.095226
9.8898358
9.6867107
9.4859048
9.2874688
9.0914499
8.8978922
8.7068363
8.5183198
8.3323767
8.1490378
7.968331
7.7902807
7.6149084
7.4422324
7.2722681
7.105028
6.9405217
6.778756
6.6197352
6.4634607
6.3099315
6.1591443
6.0110923
5.8657714
5.7231542
5.5833022
5.4458954
5.3122805
5.1765313
5.0644432
4.8640908
24.638967
24.479721
24.317911
24.153395
23.986146
23.816164
23.64346
23.468049
23.289947
23.109178
22.925766
22.73974
22.551131
22.359976
22.166314
21.97019
21.771651
21.570746
21.367529
21.162057
20.954389
20.744585
20.532711
20.318834
20.103023
19.885352
19.665895
19.444731
19.22194
18.997607
18.771816
18.544657
18.316219
18.086596
17.855881
17.624174
17.391571
17.158173
16.924083
16.689404
16.45424
16.218697
15.982881
15.7469
15.51086
15.27487
15.039037
14.803469
14.568272
14.333553
14.099417
13.865969
13.633313
13.401549
13.170778
12.941099
12.712607
12.485399
12.259564
12.035194
11.812376
11.591194
11.37173
11.154063
10.938269
10.724422
10.512592
10.302845
10.095246
9.8898548
9.6867287
9.4859218
9.2874847
9.0914648
8.8979062
8.7068495
8.5183321
8.3323882
8.1490486
7.9683411
7.7902901
7.6149172
7.4422406
7.2722757
7.105035
6.9405282
6.778762
6.6197407
6.4634658
6.3099362
6.1591486
6.0110967
5.8657755
5.7231602
5.5833021
5.4459047
5.3122013
5.1766356
5.0638574
4.8637917
24.639022
24.479779
24.317972
24.153459
23.986214
23.816235
23.643535
23.468127
23.290031
23.109266
22.92586
22.739839
22.551236
22.360087
22.166432
21.970314
21.77178
21.57088
21.367667
21.162198
20.954531
20.744728
20.532854
20.318976
20.103163
19.885489
19.66603
19.444863
19.222068
18.997731
18.771936
18.544772
18.31633
18.086702
17.855984
17.624272
17.391664
17.158263
16.924169
16.689486
16.454318
16.218772
15.982953
15.746969
15.510926
15.274934
15.039098
14.803527
14.568328
14.333606
14.099468
13.866018
13.633359
13.401593
13.170821
12.94114
12.712646
12.485436
12.2596
12.035228
11.812408
11.591224
11.371759
11.15409
10.938295
10.724447
10.512615
10.302867
10.095267
9.8898743
9.686747
9.485939
9.2875009
9.0914801
8.8979205
8.7068629
8.5183446
8.3323999
8.1490596
7.9683513
7.7902996
7.614926
7.4422487
7.2722833
7.105042
6.9405347
6.778768
6.6197462
6.4634708
6.3099408
6.1591529
6.0111006
5.8657789
5.7231639
5.5833041
5.4459128
5.3121925
5.176659
5.0638055
4.8636287
24.639081
24.47984
24.318036
24.153526
23.986284
23.816309
23.643613
23.468209
23.290117
23.109358
22.925956
22.739941
22.551344
22.360201
22.166552
21.97044
21.771911
21.571016
21.367807
21.16234
20.954675
20.744873
20.532999
20.31912
20.103306
19.88563
19.666168
19.444997
19.222199
18.997858
18.772059
18.544891
18.316444
18.086812
17.856089
17.624372
17.391761
17.158355
16.924257
16.68957
16.454399
16.218849
15.983027
15.74704
15.510994
15.274999
15.03916
14.803587
14.568385
14.333661
14.099521
13.866069
13.633408
13.401639
13.170865
12.941181
12.712686
12.485474
12.259636
12.035263
11.812441
11.591255
11.371788
11.154118
10.938322
10.724472
10.512639
10.30289
10.095288
9.8898941
9.6867657
9.4859565
9.2875174
9.0914955
8.897935
8.7068764
8.5183573
8.3324117
8.1490706
7.9683616
7.7903092
7.6149348
7.442257
7.2722909
7.1050491
6.9405411
6.778774
6.6197517
6.4634758
6.3099454
6.159157
6.0111043
5.8657823
5.7231671
5.5833068
5.4459155
5.3121959
5.1766623
5.0638119
4.8636299
24.639142
24.479904
24.318103
24.153597
23.986357
23.816386
23.643694
23.468294
23.290207
23.109452
22.926056
22.740046
22.551455
22.360318
22.166675
21.970568
21.772045
21.571154
21.367949
21.162485
20.954822
20.745021
20.533147
20.319267
20.103451
19.885773
19.666308
19.445134
19.222333
18.997988
18.772184
18.545012
18.316561
18.086924
17.856197
17.624476
17.39186
17.15845
16.924348
16.689657
16.454482
16.218929
15.983103
15.747113
15.511064
15.275066
15.039224
14.803648
14.568444
14.333717
14.099575
13.86612
13.633457
13.401687
13.17091
12.941224
12.712727
12.485513
12.259673
12.035298
11.812474
11.591287
11.371818
11.154147
10.938349