/*--------------------------------*- C++ -*----------------------------------*\
  =========                 |
  \\      /  F ield         | OpenFOAM: The Open Source CFD Toolbox
   \\    /   O peration     | Website:  https://openfoam.org
    \\  /    A nd           | Version:  12
     \\/     M anipulation  |
\*---------------------------------------------------------------------------*/
FoamFile
{
    format      ascii;
    class       volScalarField;
    location    "800";
    object      p;
}
// * * * * * * * * * * * * * * * * * * * * * * * * * * * * * * * * * * * * * //

dimensions      [0 2 -2 0 0 0 0];

internalField   nonuniform List<scalar> 
13056
(
0.0040416781
0.0040613617
0.0041048608
0.0041599914
0.0042247967
0.0042993345
0.0043830377
0.0044751817
0.0045754098
0.0046837705
0.0048006218
0.0049266218
0.00506281
0.0052107541
0.0053727613
0.0055522743
0.005754389
0.0059874066
0.006263765
0.006609942
0.0070599161
0.0077606435
0.0087363766
0.012113179
0.0090579307
0.0041512987
0.0041788836
0.0046273237
0.0046708288
0.004474898
0.0042976385
0.0042040493
0.0041327687
0.0040584874
0.003986632
0.0039211384
0.0038597659
0.0038021133
0.0037474071
0.0036964927
0.0036485993
0.0036031967
0.0035601088
0.0035185618
0.0034791341
0.0034405853
0.0034040525
0.0033688928
0.0033336952
0.0033008162
0.0032688186
0.0032363524
0.0032059723
0.0031763151
0.0031460358
0.0031170835
0.0030891876
0.0030609471
0.003032619
0.0030059722
0.0029796816
0.0029524111
0.0029254825
0.0029000573
0.0028746955
0.00284823
0.0028221449
0.0027973088
0.0027726227
0.002746836
0.0027211288
0.0026962228
0.0026716831
0.0026463328
0.0026204999
0.0025948973
0.0025701675
0.0025451231
0.0025187717
0.0024925288
0.002466771
0.0024410755
0.0024144178
0.0023871444
0.0023598068
0.0023330786
0.0023058796
0.0022771618
0.0022482751
0.002219536
0.0021906059
0.0021605192
0.0021294994
0.0020981828
0.0020670018
0.002034815
0.002000951
0.0019664952
0.0019320175
0.0018964887
0.0018589904
0.0018204723
0.001781601
0.0017413225
0.0016987298
0.0016546301
0.0016098444
0.0015629503
0.0015129886
0.0014614828
0.0014079748
0.0013511467
0.00129136
0.0012304175
0.0011688019
0.0011073397
0.0010476545
0.00098892091
0.00093018583
0.00087216906
0.00081560446
0.00075973422
0.00070386072
0.00064868676
0.00059466839
0.00054199173
0.00048994905
0.00043840759
0.00038850367
0.00034045306
0.00029618947
0.00025314799
0.00022353185
0.00018195986
0.0003035975
-0.00023097766
0.0040416781
0.0040613617
0.0041048608
0.0041599914
0.0042247967
0.0042993345
0.0043830377
0.0044751817
0.0045754098
0.0046837705
0.0048006218
0.0049266218
0.00506281
0.0052107541
0.0053727613
0.0055522743
0.005754389
0.0059874066
0.0062637649
0.006609942
0.007059916
0.0077606432
0.0087363767
0.012111738
0.0090586951
0.0041519023
0.0041788984
0.0046273346
0.0046708547
0.0044749258
0.0042976633
0.0042040704
0.004132787
0.0040585035
0.0039866462
0.0039211513
0.0038597777
0.0038021241
0.003747417
0.0036965018
0.0036486078
0.0036032046
0.0035601161
0.0035185686
0.0034791405
0.0034405913
0.0034040582
0.0033688982
0.0033337002
0.0033008209
0.0032688231
0.0032363567
0.0032059763
0.003176319
0.0031460395
0.003117087
0.003089191
0.0030609503
0.003032622
0.0030059751
0.0029796844
0.0029524138
0.002925485
0.0029000598
0.0028746979
0.0028482323
0.0028221471
0.0027973109
0.0027726247
0.0027468379
0.0027211307
0.0026962246
0.0026716848
0.0026463345
0.0026205015
0.0025948989
0.002570169
0.0025451245
0.0025187731
0.0024925302
0.0024667723
0.0024410768
0.002414419
0.0023871456
0.002359808
0.0023330797
0.0023058807
0.0022771628
0.0022482761
0.0022195369
0.0021906068
0.0021605201
0.0021295002
0.0020981836
0.0020670026
0.0020348158
0.0020009517
0.0019664959
0.0019320182
0.0018964893
0.0018589911
0.0018204729
0.0017816016
0.001741323
0.0016987303
0.0016546306
0.0016098449
0.0015629508
0.001512989
0.0014614832
0.0014079752
0.0013511471
0.0012913603
0.0012304178
0.0011688023
0.00110734
0.0010476548
0.00098892119
0.0009301861
0.00087216932
0.0008156047
0.00075973446
0.00070386095
0.00064868698
0.00059466861
0.00054199193
0.00048994925
0.00043840778
0.00038850386
0.00034045324
0.00029618965
0.00025314816
0.00022353202
0.00018196003
0.00030359771
-0.00023097752
0.0040416781
0.0040613617
0.0041048608
0.0041599914
0.0042247967
0.0042993345
0.0043830377
0.0044751817
0.0045754098
0.0046837705
0.0048006218
0.0049266218
0.00506281
0.0052107541
0.0053727613
0.0055522743
0.005754389
0.0059874066
0.0062637649
0.006609942
0.0070599159
0.0077606428
0.0087363767
0.012110256
0.0090595277
0.0041525874
0.0041789161
0.0046273476
0.0046708856
0.004474959
0.0042976928
0.0042040958
0.0041328088
0.0040585227
0.0039866633
0.0039211666
0.0038597917
0.003802137
0.003747429
0.0036965128
0.0036486179
0.003603214
0.0035601249
0.0035185768
0.0034791482
0.0034405985
0.0034040649
0.0033689045
0.0033337062
0.0033008266
0.0032688285
0.0032363618
0.0032059812
0.0031763236
0.0031460438
0.0031170912
0.0030891949
0.0030609541
0.0030326257
0.0030059786
0.0029796877
0.002952417
0.0029254881
0.0029000627
0.0028747007
0.002848235
0.0028221497
0.0027973134
0.0027726271
0.0027468402
0.0027211329
0.0026962267
0.0026716869
0.0026463365
0.0026205034
0.0025949008
0.0025701707
0.0025451262
0.0025187748
0.0024925318
0.0024667738
0.0024410782
0.0024144204
0.002387147
0.0023598093
0.002333081
0.0023058819
0.002277164
0.0022482772
0.002219538
0.0021906078
0.0021605211
0.0021295012
0.0020981846
0.0020670035
0.0020348167
0.0020009526
0.0019664967
0.001932019
0.0018964901
0.0018589918
0.0018204736
0.0017816022
0.0017413236
0.0016987309
0.0016546311
0.0016098454
0.0015629513
0.0015129895
0.0014614837
0.0014079757
0.0013511475
0.0012913608
0.0012304182
0.0011688026
0.0011073404
0.0010476551
0.00098892153
0.00093018642
0.00087216962
0.000815605
0.00075973474
0.00070386122
0.00064868725
0.00059466886
0.00054199218
0.00048994949
0.00043840801
0.00038850409
0.00034045346
0.00029618986
0.00025314837
0.00022353223
0.00018196024
0.00030359795
-0.00023097736
0.0040416781
0.0040613617
0.0041048608
0.0041599914
0.0042247967
0.0042993345
0.0043830377
0.0044751817
0.0045754098
0.0046837705
0.0048006218
0.0049266218
0.00506281
0.0052107541
0.0053727612
0.0055522742
0.005754389
0.0059874066
0.0062637649
0.0066099419
0.0070599157
0.007760642
0.0087363768
0.012108722
0.0090603927
0.004153186
0.0041789335
0.0046273605
0.0046709159
0.0044749916
0.0042977218
0.0042041206
0.0041328303
0.0040585415
0.00398668
0.0039211817
0.0038598055
0.0038021497
0.0037474406
0.0036965236
0.0036486278
0.0036032232
0.0035601334
0.0035185848
0.0034791557
0.0034406055
0.0034040715
0.0033689108
0.0033337121
0.0033008322
0.0032688337
0.0032363668
0.0032059859
0.0031763281
0.0031460481
0.0031170953
0.0030891989
0.0030609578
0.0030326293
0.003005982
0.002979691
0.0029524201
0.0029254911
0.0029000656
0.0028747035
0.0028482377
0.0028221523
0.0027973159
0.0027726295
0.0027468425
0.0027211351
0.0026962288
0.0026716889
0.0026463385
0.0026205053
0.0025949026
0.0025701725
0.0025451279
0.0025187764
0.0024925334
0.0024667754
0.0024410797
0.0024144218
0.0023871484
0.0023598106
0.0023330822
0.0023058831
0.0022771651
0.0022482783
0.0022195391
0.0021906089
0.0021605221
0.0021295022
0.0020981855
0.0020670044
0.0020348175
0.0020009534
0.0019664975
0.0019320198
0.0018964908
0.0018589925
0.0018204742
0.0017816029
0.0017413243
0.0016987315
0.0016546317
0.001609846
0.0015629518
0.00151299
0.0014614842
0.0014079762
0.0013511479
0.0012913612
0.0012304186
0.001168803
0.0011073407
0.0010476555
0.00098892186
0.00093018674
0.00087216993
0.00081560529
0.00075973502
0.00070386149
0.00064868751
0.00059466911
0.00054199242
0.00048994972
0.00043840824
0.00038850431
0.00034045367
0.00029619007
0.00025314857
0.00022353243
0.00018196044
0.00030359819
-0.00023097721
0.0040416781
0.0040613617
0.0041048608
0.0041599914
0.0042247967
0.0042993345
0.0043830377
0.0044751817
0.0045754098
0.0046837705
0.0048006218
0.0049266218
0.00506281
0.0052107541
0.0053727612
0.0055522742
0.0057543889
0.0059874066
0.0062637648
0.0066099417
0.0070599155
0.0077606408
0.008736377
0.012106975
0.0090612842
0.0041537454
0.0041789516
0.0046273741
0.0046709472
0.0044750251
0.0042977516
0.004204146
0.0041328523
0.0040585608
0.0039866971
0.0039211972
0.0038598197
0.0038021627
0.0037474526
0.0036965346
0.003648638
0.0036032327
0.0035601422
0.003518593
0.0034791634
0.0034406127
0.0034040783
0.0033689172
0.0033337182
0.0033008379
0.0032688391
0.0032363719
0.0032059908
0.0031763327
0.0031460526
0.0031170995
0.0030892029
0.0030609616
0.0030326329
0.0030059856
0.0029796943
0.0029524233
0.0029254942
0.0029000686
0.0028747063
0.0028482404
0.0028221549
0.0027973184
0.0027726319
0.0027468449
0.0027211374
0.002696231
0.002671691
0.0026463405
0.0026205072
0.0025949045
0.0025701743
0.0025451297
0.0025187781
0.002492535
0.0024667769
0.0024410812
0.0024144233
0.0023871497
0.002359812
0.0023330835
0.0023058844
0.0022771663
0.0022482795
0.0022195402
0.00219061
0.0021605232
0.0021295032
0.0020981865
0.0020670053
0.0020348184
0.0020009543
0.0019664984
0.0019320206
0.0018964916
0.0018589932
0.0018204749
0.0017816036
0.0017413249
0.0016987321
0.0016546323
0.0016098465
0.0015629524
0.0015129905
0.0014614847
0.0014079766
0.0013511484
0.0012913616
0.001230419
0.0011688034
0.0011073411
0.0010476558
0.00098892219
0.00093018706
0.00087217024
0.00081560559
0.00075973531
0.00070386177
0.00064868777
0.00059466937
0.00054199267
0.00048994996
0.00043840847
0.00038850453
0.00034045389
0.00029619029
0.00025314878
0.00022353264
0.00018196064
0.00030359844
-0.00023097706
0.0040416781
0.0040613617
0.0041048608
0.0041599914
0.0042247967
0.0042993345
0.0043830377
0.0044751817
0.0045754098
0.0046837705
0.0048006218
0.0049266218
0.00506281
0.0052107541
0.0053727612
0.0055522742
0.0057543889
0.0059874065
0.0062637647
0.0066099415
0.0070599152
0.0077606392
0.0087363773
0.012104955
0.0090620121
0.0041542783
0.0041789727
0.0046273895
0.004670981
0.0044750614
0.0042977837
0.0042041735
0.0041328761
0.0040585816
0.0039867156
0.0039212138
0.003859835
0.0038021767
0.0037474655
0.0036965465
0.003648649
0.0036032428
0.0035601517
0.0035186018
0.0034791717
0.0034406205
0.0034040856
0.003368924
0.0033337246
0.003300844
0.0032688449
0.0032363774
0.003205996
0.0031763377
0.0031460573
0.003117104
0.0030892072
0.0030609657
0.0030326368
0.0030059893
0.0029796979
0.0029524268
0.0029254975
0.0029000717
0.0028747094
0.0028482433
0.0028221577
0.0027973211
0.0027726345
0.0027468474
0.0027211398
0.0026962333
0.0026716933
0.0026463426
0.0026205093
0.0025949065
0.0025701762
0.0025451315
0.0025187799
0.0024925367
0.0024667786
0.0024410828
0.0024144248
0.0023871512
0.0023598134
0.0023330849
0.0023058857
0.0022771676
0.0022482808
0.0022195414
0.0021906111
0.0021605243
0.0021295043
0.0020981875
0.0020670063
0.0020348194
0.0020009552
0.0019664992
0.0019320214
0.0018964924
0.001858994
0.0018204757
0.0017816043
0.0017413256
0.0016987328
0.0016546329
0.0016098471
0.001562953
0.0015129911
0.0014614852
0.0014079771
0.0013511489
0.0012913621
0.0012304195
0.0011688038
0.0011073415
0.0010476562
0.00098892255
0.0009301874
0.00087217057
0.0008156059
0.00075973561
0.00070386206
0.00064868806
0.00059466964
0.00054199294
0.00048995022
0.00043840872
0.00038850477
0.00034045413
0.00029619051
0.00025314901
0.00022353286
0.00018196085
0.0003035987
-0.0002309769
0.0040416781
0.0040613617
0.0041048608
0.0041599914
0.0042247967
0.0042993345
0.0043830377
0.0044751817
0.0045754098
0.0046837705
0.0048006218
0.0049266218
0.00506281
0.0052107541
0.0053727612
0.0055522742
0.0057543889
0.0059874064
0.0062637646
0.0066099413
0.0070599149
0.0077606371
0.0087363778
0.012102628
0.0090625386
0.0041548133
0.0041790017
0.0046274088
0.0046710193
0.0044751022
0.0042978197
0.0042042043
0.0041329027
0.0040586049
0.0039867361
0.0039212324
0.0038598519
0.0038021923
0.0037474798
0.0036965596
0.0036486611
0.0036032541
0.0035601621
0.0035186116
0.0034791808
0.0034406291
0.0034040937
0.0033689316
0.0033337318
0.0033008508
0.0032688513
0.0032363835
0.0032060018
0.0031763432
0.0031460625
0.0031171089
0.0030892119
0.0030609702
0.0030326411
0.0030059934
0.0029797018
0.0029524306
0.0029255011
0.0029000752
0.0028747127
0.0028482466
0.0028221608
0.0027973241
0.0027726374
0.0027468501
0.0027211424
0.0026962359
0.0026716957
0.002646345
0.0026205116
0.0025949086
0.0025701783
0.0025451336
0.0025187819
0.0024925386
0.0024667804
0.0024410846
0.0024144265
0.0023871529
0.002359815
0.0023330865
0.0023058872
0.002277169
0.0022482821
0.0022195427
0.0021906124
0.0021605255
0.0021295054
0.0020981887
0.0020670074
0.0020348204
0.0020009562
0.0019665002
0.0019320223
0.0018964933
0.0018589949
0.0018204765
0.0017816051
0.0017413263
0.0016987335
0.0016546336
0.0016098478
0.0015629536
0.0015129917
0.0014614858
0.0014079777
0.0013511494
0.0012913626
0.0012304199
0.0011688042
0.0011073419
0.0010476566
0.00098892294
0.00093018778
0.00087217092
0.00081560625
0.00075973595
0.00070386238
0.00064868836
0.00059466994
0.00054199322
0.0004899505
0.00043840899
0.00038850503
0.00034045438
0.00029619076
0.00025314925
0.0002235331
0.00018196108
0.00030359898
-0.00023097672
0.0040416781
0.0040613617
0.0041048608
0.0041599914
0.0042247967
0.0042993345
0.0043830377
0.0044751817
0.0045754098
0.0046837705
0.0048006218
0.0049266218
0.00506281
0.005210754
0.0053727612
0.0055522741
0.0057543888
0.0059874063
0.0062637644
0.006609941
0.0070599144
0.0077606344
0.0087363785
0.012099955
0.0090628762
0.0041554702
0.0041790513
0.0046274362
0.0046710655
0.0044751509
0.0042978625
0.0042042407
0.0041329339
0.0040586322
0.0039867602
0.003921254
0.0038598716
0.0038022103
0.0037474963
0.0036965748
0.0036486751
0.003603267
0.0035601742
0.0035186228
0.0034791913
0.0034406389
0.0034041029
0.0033689403
0.00333374
0.0033008585
0.0032688586
0.0032363904
0.0032060083
0.0031763494
0.0031460684
0.0031171146
0.0030892172
0.0030609754
0.003032646
0.0030059981
0.0029797063
0.0029524348
0.0029255052
0.0029000791
0.0028747165
0.0028482502
0.0028221643
0.0027973274
0.0027726406
0.0027468532
0.0027211454
0.0026962387
0.0026716985
0.0026463476
0.0026205141
0.0025949111
0.0025701807
0.0025451358
0.0025187841
0.0024925407
0.0024667824
0.0024410865
0.0024144284
0.0023871547
0.0023598167
0.0023330882
0.0023058888
0.0022771706
0.0022482836
0.0022195442
0.0021906138
0.0021605268
0.0021295067
0.0020981899
0.0020670086
0.0020348216
0.0020009573
0.0019665013
0.0019320234
0.0018964943
0.0018589958
0.0018204774
0.0017816059
0.0017413272
0.0016987343
0.0016546344
0.0016098485
0.0015629543
0.0015129924
0.0014614864
0.0014079783
0.00135115
0.0012913631
0.0012304204
0.0011688047
0.0011073424
0.001047657
0.00098892338
0.00093018819
0.00087217132
0.00081560663
0.00075973631
0.00070386273
0.0006486887
0.00059467027
0.00054199354
0.0004899508
0.00043840929
0.00038850532
0.00034045466
0.00029619104
0.00025314951
0.00022353337
0.00018196134
0.0003035993
-0.00023097653
0.0040416781
0.0040613617
0.0041048608
0.0041599914
0.0042247967
0.0042993345
0.0043830377
0.0044751817
0.0045754098
0.0046837705
0.0048006218
0.0049266218
0.00506281
0.005210754
0.0053727611
0.0055522741
0.0057543887
0.0059874062
0.0062637642
0.0066099405
0.0070599138
0.0077606308
0.0087363795
0.012096881
0.0090629779
0.0041563947
0.0041791487
0.0046274803
0.0046711254
0.0044752126
0.0042979165
0.0042042864
0.004132973
0.0040586661
0.0039867901
0.0039212807
0.0038598959
0.0038022325
0.0037475167
0.0036965934
0.0036486922
0.0036032828
0.0035601888
0.0035186364
0.003479204
0.0034406508
0.0034041141
0.0033689508
0.0033337498
0.0033008678
0.0032688674
0.0032363987
0.0032060162
0.0031763569
0.0031460755
0.0031171213
0.0030892237
0.0030609815
0.0030326519
0.0030060037
0.0029797116
0.0029524399
0.0029255101
0.0029000838
0.002874721
0.0028482545
0.0028221684
0.0027973314
0.0027726444
0.0027468569
0.0027211489
0.0026962421
0.0026717017
0.0026463508
0.0026205172
0.002594914
0.0025701835
0.0025451385
0.0025187867
0.0024925432
0.0024667848
0.0024410889
0.0024144306
0.0023871568
0.0023598188
0.0023330901
0.0023058907
0.0022771725
0.0022482854
0.0022195459
0.0021906154
0.0021605284
0.0021295083
0.0020981914
0.00206701
0.0020348229
0.0020009586
0.0019665025
0.0019320246
0.0018964954
0.0018589969
0.0018204785
0.001781607
0.0017413281
0.0016987352
0.0016546353
0.0016098494
0.0015629551
0.0015129931
0.0014614871
0.001407979
0.0013511506
0.0012913637
0.001230421
0.0011688053
0.0011073429
0.0010476576
0.00098892387
0.00093018867
0.00087217178
0.00081560707
0.00075973673
0.00070386314
0.00064868909
0.00059467065
0.00054199391
0.00048995116
0.00043840963
0.00038850565
0.00034045498
0.00029619135
0.00025314982
0.00022353367
0.00018196163
0.00030359966
-0.00023097631
0.0040416781
0.0040613617
0.0041048608
0.0041599914
0.0042247967
0.0042993345
0.0043830377
0.0044751817
0.0045754098
0.0046837705
0.0048006218
0.0049266218
0.0050628099
0.005210754
0.0053727611
0.005552274
0.0057543886
0.005987406
0.0062637639
0.00660994
0.0070599131
0.0077606262
0.0087363808
0.012093327
0.0090625102
0.0041577147
0.0041793435
0.0046275561
0.0046712077
0.0044752951
0.0042979883
0.0042043469
0.0041330246
0.0040587107
0.0039868292
0.0039213156
0.0038599275
0.0038022613
0.0037475429
0.0036966175
0.0036487143
0.0036033032
0.0035602077
0.0035186539
0.0034792203
0.003440666
0.0034041283
0.0033689641
0.0033337624
0.0033008796
0.0032688785
0.0032364092
0.0032060262
0.0031763663
0.0031460845
0.0031171298
0.0030892318
0.0030609892
0.0030326592
0.0030060107
0.0029797183
0.0029524463
0.0029255162
0.0029000897
0.0028747266
0.0028482599
0.0028221736
0.0027973364
0.0027726492
0.0027468614
0.0027211533
0.0026962463
0.0026717058
0.0026463547
0.0026205209
0.0025949176
0.002570187
0.0025451419
0.0025187899
0.0024925463
0.0024667878
0.0024410917
0.0024144334
0.0023871595
0.0023598214
0.0023330926
0.0023058931
0.0022771747
0.0022482876
0.002219548
0.0021906175
0.0021605304
0.0021295101
0.0020981932
0.0020670117
0.0020348246
0.0020009602
0.001966504
0.001932026
0.0018964968
0.0018589983
0.0018204798
0.0017816082
0.0017413293
0.0016987364
0.0016546364
0.0016098504
0.0015629561
0.0015129941
0.001461488
0.0014079798
0.0013511514
0.0012913645
0.0012304218
0.001168806
0.0011073436
0.0010476582
0.00098892447
0.00093018923
0.00087217232
0.00081560759
0.00075973724
0.00070386362
0.00064868956
0.0005946711
0.00054199434
0.00048995158
0.00043841004
0.00038850605
0.00034045537
0.00029619172
0.00025315018
0.00022353403
0.00018196197
0.00030360008
-0.00023097604
0.0040416781
0.0040613617
0.0041048608
0.0041599914
0.0042247967
0.0042993345
0.0043830377
0.0044751817
0.0045754098
0.0046837705
0.0048006218
0.0049266218
0.0050628099
0.005210754
0.005372761
0.0055522739
0.0057543885
0.0059874058
0.0062637635
0.0066099393
0.0070599121
0.0077606203
0.0087363827
0.012089209
0.0090612125
0.0041595439
0.004179713
0.0046276872
0.0046713239
0.004475408
0.0042980861
0.0042044292
0.0041330943
0.0040587708
0.0039868817
0.0039213623
0.0038599697
0.0038022997
0.003747578
0.0036966495
0.0036487436
0.0036033302
0.0035602326
0.0035186771
0.0034792419
0.0034406862
0.0034041472
0.0033689818
0.003333779
0.0033008952
0.0032688932
0.0032364231
0.0032060393
0.0031763787
0.0031460962
0.003117141
0.0030892424
0.0030609993
0.0030326689
0.0030060199
0.0029797271
0.0029524547
0.0029255242
0.0029000973
0.002874734
0.0028482669
0.0028221804
0.0027973428
0.0027726554
0.0027468674
0.002721159
0.0026962518
0.002671711
0.0026463597
0.0026205257
0.0025949223
0.0025701914
0.0025451462
0.002518794
0.0024925503
0.0024667916
0.0024410954
0.0024144369
0.0023871629
0.0023598246
0.0023330957
0.0023058961
0.0022771776
0.0022482904
0.0022195507
0.00219062
0.0021605328
0.0021295125
0.0020981955
0.0020670139
0.0020348267
0.0020009622
0.001966506
0.0019320279
0.0018964986
0.001859
0.0018204814
0.0017816097
0.0017413308
0.0016987378
0.0016546377
0.0016098517
0.0015629573
0.0015129952
0.0014614891
0.0014079809
0.0013511524
0.0012913654
0.0012304227
0.0011688069
0.0011073444
0.001047659
0.00098892522
0.00093018995
0.00087217301
0.00081560825
0.00075973787
0.00070386423
0.00064869014
0.00059467166
0.00054199488
0.0004899521
0.00043841054
0.00038850654
0.00034045584
0.00029619219
0.00025315063
0.00022353448
0.0001819624
0.00030360061
-0.00023097571
0.0040416781
0.0040613617
0.0041048608
0.0041599914
0.0042247967
0.0042993345
0.0043830377
0.0044751816
0.0045754098
0.0046837705
0.0048006217
0.0049266218
0.0050628099
0.0052107539
0.005372761
0.0055522738
0.0057543883
0.0059874055
0.0062637631
0.0066099384
0.0070599109
0.0077606128
0.008736385
0.012084436
0.0090594498
0.0041619673
0.0041803619
0.00462791
0.0046714876
0.0044755616
0.004298219
0.0042045408
0.0041331888
0.0040588522
0.0039869528
0.0039214255
0.0038600267
0.0038023514
0.0037476251
0.0036966925
0.0036487831
0.0036033665
0.0035602662
0.0035187082
0.0034792708
0.0034407132
0.0034041724
0.0033690054
0.0033338012
0.0033009161
0.0032689129
0.0032364417
0.0032060568
0.0031763953
0.003146112
0.003117156
0.0030892566
0.0030610128
0.0030326817
0.0030060321
0.0029797388
0.0029524659
0.0029255349
0.0029001075
0.0028747437
0.0028482763
0.0028221893
0.0027973514
0.0027726636
0.0027468753
0.0027211666
0.0026962591
0.002671718
0.0026463664
0.0026205322
0.0025949284
0.0025701974
0.0025451519
0.0025187995
0.0024925556
0.0024667967
0.0024411003
0.0024144416
0.0023871674
0.002359829
0.0023330999
0.0023059001
0.0022771815
0.0022482941
0.0022195543
0.0021906235
0.0021605361
0.0021295156
0.0020981985
0.0020670168
0.0020348295
0.0020009649
0.0019665085
0.0019320303
0.001896501
0.0018590022
0.0018204835
0.0017816118
0.0017413328
0.0016987397
0.0016546395
0.0016098534
0.0015629589
0.0015129968
0.0014614906
0.0014079823
0.0013511537
0.0012913667
0.0012304239
0.001168808
0.0011073455
0.00104766
0.00098892619
0.00093019088
0.0008721739
0.00081560911
0.00075973869
0.00070386502
0.0006486909
0.00059467239
0.00054199559
0.00048995278
0.0004384112
0.00038850718
0.00034045646
0.00029619279
0.00025315122
0.00022353507
0.00018196296
0.0003036013
-0.00023097529
0.0040416781
0.0040613617
0.0041048608
0.0041599914
0.0042247967
0.0042993345
0.0043830377
0.0044751816
0.0045754098
0.0046837704
0.0048006217
0.0049266217
0.0050628098
0.0052107538
0.0053727609
0.0055522737
0.0057543881
0.0059874052
0.0062637625
0.0066099373
0.0070599093
0.0077606033
0.0087363881
0.012078912
0.0090576331
0.004165076
0.0041814135
0.0046282818
0.0046717145
0.0044757656
0.0042983951
0.0042046891
0.0041333145
0.0040589605
0.0039870475
0.0039215094
0.0038601021
0.0038024199
0.0037476876
0.0036967496
0.0036488354
0.0036034146
0.0035603106
0.0035187494
0.0034793092
0.003440749
0.0034042059
0.0033690368
0.0033338307
0.0033009438
0.003268939
0.0032364663
0.0032060802
0.0031764174
0.0031461329
0.0031171758
0.0030892755
0.0030610307
0.0030326988
0.0030060484
0.0029797543
0.0029524807
0.0029255491
0.0029001211
0.0028747567
0.0028482887
0.0028222013
0.0027973628
0.0027726745
0.0027468858
0.0027211767
0.0026962687
0.0026717273
0.0026463753
0.0026205407
0.0025949367
0.0025702053
0.0025451595
0.0025188068
0.0024925626
0.0024668035
0.0024411068
0.0024144479
0.0023871734
0.0023598347
0.0023331055
0.0023059055
0.0022771866
0.002248299
0.002219559
0.002190628
0.0021605405
0.0021295198
0.0020982025
0.0020670207
0.0020348332
0.0020009684
0.0019665119
0.0019320336
0.0018965041
0.0018590052
0.0018204864
0.0017816145
0.0017413354
0.0016987422
0.0016546419
0.0016098557
0.0015629611
0.0015129988
0.0014614926
0.0014079841
0.0013511555
0.0012913684
0.0012304254
0.0011688095
0.0011073469
0.0010476614
0.00098892749
0.00093019212
0.00087217508
0.00081561024
0.00075973978
0.00070386606
0.00064869191
0.00059467336
0.00054199653
0.00048995369
0.00043841207
0.00038850802
0.00034045728
0.00029619359
0.00025315199
0.00022353584
0.0001819637
0.0003036022
-0.00023097472
0.0040416781
0.0040613617
0.0041048608
0.0041599914
0.0042247967
0.0042993345
0.0043830377
0.0044751816
0.0045754098
0.0046837704
0.0048006217
0.0049266217
0.0050628098
0.0052107538
0.0053727607
0.0055522735
0.0057543878
0.0059874047
0.0062637617
0.0066099358
0.0070599073
0.007760591
0.0087363919
0.012072522
0.0090558179
0.0041690726
0.0041829809
0.0046288712
0.0046720296
0.0044760331
0.0042986249
0.0042048828
0.0041334786
0.0040591019
0.0039871711
0.0039216181
0.0038601987
0.0038025077
0.0037477677
0.0036968229
0.0036489027
0.0036034766
0.003560368
0.0035188027
0.0034793588
0.0034407954
0.0034042493
0.0033690775
0.0033338689
0.0033009799
0.003268973
0.0032364984
0.0032061106
0.0031764462
0.0031461602
0.0031172018
0.0030893001
0.0030610542
0.0030327212
0.0030060698
0.0029797747
0.0029525002
0.0029255677
0.002900139
0.0028747738
0.0028483051
0.0028222169
0.0027973778
0.0027726889
0.0027468995
0.0027211899
0.0026962814
0.0026717394
0.002646387
0.002620552
0.0025949475
0.0025702157
0.0025451695
0.0025188164
0.0024925718
0.0024668123
0.0024411153
0.0024144561
0.0023871813
0.0023598423
0.0023331128
0.0023059125
0.0022771934
0.0022483055
0.0022195652
0.002190634
0.0021605462
0.0021295254
0.0020982078
0.0020670258
0.0020348381
0.0020009731
0.0019665164
0.0019320379
0.0018965082
0.0018590091
0.0018204902
0.0017816181
0.0017413388
0.0016987454
0.001654645
0.0016098587
0.0015629639
0.0015130015
0.0014614951
0.0014079866
0.0013511578
0.0012913706
0.0012304275
0.0011688115
0.0011073488
0.0010476632
0.0009889292
0.00093019376
0.00087217665
0.00081561175
0.00075974122
0.00070386745
0.00064869324
0.00059467465
0.00054199777
0.00048995488
0.00043841323
0.00038850914
0.00034045837
0.00029619465
0.00025315302
0.00022353686
0.00018196468
0.00030360341
-0.00023097397
0.0040416781
0.0040613617
0.0041048608
0.0041599914
0.0042247967
0.0042993345
0.0043830377
0.0044751816
0.0045754098
0.0046837704
0.0048006217
0.0049266216
0.0050628097
0.0052107536
0.0053727606
0.0055522732
0.0057543874
0.0059874041
0.0062637608
0.006609934
0.0070599047
0.0077605755
0.0087363969
0.012065126
0.0090540068
0.0041743892
0.0041851693
0.0046297528
0.0046724679
0.0044763824
0.0042989209
0.0042051313
0.0041336883
0.0040592817
0.0039873278
0.0039217553
0.0038603206
0.0038026184
0.0037478688
0.0036969155
0.0036489877
0.003603555
0.0035604406
0.0035188701
0.0034794217
0.0034408541
0.0034043044
0.0033691292
0.0033339175
0.0033010257
0.0032690162
0.0032365393
0.0032061492
0.0031764828
0.003146195
0.0031172349
0.0030893316
0.0030610842
0.0030327499
0.0030060971
0.0029798008
0.0029525252
0.0029255916
0.0029001617
0.0028747954
0.0028483257
0.0028222366
0.0027973968
0.002772707
0.002746917
0.0027212066
0.0026962975
0.0026717549
0.0026464019
0.0026205663
0.0025949612
0.0025702289
0.0025451822
0.0025188286
0.0024925836
0.0024668237
0.0024411262
0.0024144666
0.0023871914
0.002359852
0.0023331221
0.0023059215
0.002277202
0.0022483138
0.0022195732
0.0021906417
0.0021605536
0.0021295325
0.0020982146
0.0020670324
0.0020348444
0.0020009791
0.0019665222
0.0019320435
0.0018965135
0.0018590142
0.0018204951
0.0017816228
0.0017413433
0.0016987497
0.0016546491
0.0016098626
0.0015629677
0.0015130051
0.0014614985
0.0014079898
0.0013511609
0.0012913734
0.0012304303
0.0011688141
0.0011073512
0.0010476655
0.00098893144
0.00093019589
0.0008721787
0.00081561371
0.0007597431
0.00070386926
0.00064869498
0.00059467632
0.00054199939
0.00048995645
0.00043841474
0.00038851061
0.00034045979
0.00029619603
0.00025315437
0.00022353821
0.00018196596
0.00030360498
-0.000230973
0.0040416781
0.0040613617
0.0041048608
0.0041599914
0.0042247967
0.0042993345
0.0043830377
0.0044751816
0.0045754097
0.0046837704
0.0048006216
0.0049266216
0.0050628096
0.0052107535
0.0053727604
0.0055522729
0.005754387
0.0059874034
0.0062637595
0.0066099316
0.0070599014
0.0077605556
0.0087364032
0.012056556
0.0090522399
0.0041812214
0.0041880644
0.0046310224
0.0046730725
0.0044768363
0.004299299
0.0042054473
0.0041339538
0.0040595084
0.0039875246
0.0039219282
0.003860475
0.0038027584
0.0037479965
0.0036970323
0.0036490948
0.0036036537
0.0035605318
0.0035189548
0.0034795006
0.0034409278
0.0034043734
0.0033691939
0.0033339784
0.0033010829
0.0032690702
0.0032365903
0.0032061976
0.0031765286
0.0031462385
0.0031172762
0.0030893709
0.0030611216
0.0030327856
0.0030061312
0.0029798333
0.0029525562
0.0029256214
0.00290019
0.0028748222
0.0028483513
0.0028222612
0.0027974203
0.0027727297
0.0027469387
0.0027212275
0.0026963176
0.0026717742
0.0026464204
0.0026205841
0.0025949784
0.0025702454
0.002545198
0.0025188439
0.0024925983
0.0024668378
0.0024411398
0.0024144797
0.002387204
0.0023598642
0.0023331338
0.0023059328
0.0022772129
0.0022483243
0.0022195833
0.0021906514
0.0021605629
0.0021295414
0.0020982232
0.0020670406
0.0020348523
0.0020009867
0.0019665295
0.0019320505
0.0018965203
0.0018590207
0.0018205012
0.0017816287
0.001741349
0.0016987551
0.0016546543
0.0016098675
0.0015629724
0.0015130096
0.0014615028
0.0014079938
0.0013511647
0.0012913771
0.0012304337
0.0011688174
0.0011073543
0.0010476684
0.00098893425
0.00093019858
0.00087218128
0.00081561618
0.00075974548
0.00070387154
0.00064869718
0.00059467844
0.00054200143
0.00048995842
0.00043841666
0.00038851246
0.00034046159
0.00029619779
0.00025315607
0.00022353991
0.00018196759
0.00030360698
-0.00023097175
0.0040416781
0.0040613617
0.0041048607
0.0041599914
0.0042247967
0.0042993345
0.0043830377
0.0044751816
0.0045754097
0.0046837703
0.0048006216
0.0049266215
0.0050628095
0.0052107533
0.0053727601
0.0055522725
0.0057543864
0.0059874024
0.006263758
0.0066099286
0.0070598972
0.0077605303
0.008736411
0.012046631
0.0090505797
0.0041893051
0.004191668
0.0046327885
0.0046739035
0.0044774263
0.0042997816
0.0042058491
0.0041342906
0.0040597954
0.0039877733
0.0039221469
0.0038606702
0.003802935
0.0037481573
0.0036971792
0.0036492293
0.0036037775
0.0035606461
0.0035190608
0.0034795992
0.0034410199
0.0034044595
0.0033692746
0.0033340542
0.0033011543
0.0032691374
0.0032366539
0.0032062577
0.0031765855
0.0031462925
0.0031173275
0.0030894196
0.003061168
0.0030328298
0.0030061734
0.0029798735
0.0029525947
0.0029256582
0.0029002251
0.0028748557
0.0028483833
0.002822292
0.0027974498
0.0027727579
0.0027469658
0.0027212535
0.0026963426
0.0026717982
0.0026464435