/*--------------------------------*- C++ -*----------------------------------*\
  =========                 |
  \\      /  F ield         | OpenFOAM: The Open Source CFD Toolbox
   \\    /   O peration     | Website:  https://openfoam.org
    \\  /    A nd           | Version:  12
     \\/     M anipulation  |
\*---------------------------------------------------------------------------*/
FoamFile
{
    format      ascii;
    class       volVectorField;
    location    "800";
    object      wallShearStress;
}
// * * * * * * * * * * * * * * * * * * * * * * * * * * * * * * * * * * * * * //

dimensions      [0 2 -2 0 0 0 0];

internalField   uniform (0 0 0);

boundaryField
{
    bottom
    {
        type            calculated;
        value           nonuniform List<vector> 
112
(
(-0.0052280689 -3.4949392e-05 0)
(-0.0025613514 -5.6753078e-07 7.1405251e-19)
(-0.0024950488 -7.4226777e-09 7.8756692e-19)
(-0.0024973279 -5.4211811e-09 -2.922745e-19)
(-0.0024469603 -1.2945643e-08 0)
(-0.0023826799 -1.3939396e-08 0)
(-0.0023226714 -1.2427541e-08 0)
(-0.0022709032 -1.0633535e-08 0)
(-0.0022260712 -9.1885367e-09 0)
(-0.0021865857 -8.0603122e-09 -8.5907136e-19)
(-0.0021513578 -7.1513621e-09 0)
(-0.0021196085 -6.4554347e-09 -6.8798555e-19)
(-0.0020902468 -5.9141696e-09 6.3030518e-19)
(-0.002063007 -5.4339676e-09 -5.791318e-19)
(-0.0020376554 -5.001578e-09 0)
(-0.002014043 -4.607109e-09 4.91005e-19)
(-0.0019920197 -4.2561056e-09 0)
(-0.001971373 -3.9487553e-09 -2.1042334e-19)
(-0.0019519399 -3.6748754e-09 0)
(-0.0019335989 -3.4318158e-09 -3.6575434e-19)
(-0.0019162057 -3.2153366e-09 3.4269004e-19)
(-0.0018996726 -3.0191742e-09 0)
(-0.0018839163 -2.839664e-09 0)
(-0.0018688798 -2.6747252e-09 0)
(-0.0018544981 -2.5255346e-09 -2.6916259e-19)
(-0.0018406993 -2.387063e-09 0)
(-0.0018274655 -2.2587065e-09 0)
(-0.0018147299 -2.1437964e-09 0)
(-0.0018024351 -2.0361751e-09 0)
(-0.0017905776 -1.9347168e-09 -2.0621178e-19)
(-0.0017791125 -1.8429758e-09 1.964227e-19)
(-0.001767993 -1.7570117e-09 0)
(-0.0017572162 -1.6748557e-09 0)
(-0.0017467581 -1.5999078e-09 0)
(-0.0017365725 -1.5308294e-09 1.6315227e-19)
(-0.0017266498 -1.4638442e-09 0)
(-0.0017169885 -1.4006107e-09 0)
(-0.0017075576 -1.3431012e-09 -1.4315085e-19)
(-0.0016983283 -1.2887006e-09 0)
(-0.0016893018 -1.2373283e-09 0)
(-0.0016804473 -1.1902649e-09 0)
(-0.0016717476 -1.145362e-09 1.2207544e-19)
(-0.0016632025 -1.1011626e-09 -5.8680425e-20)
(-0.0016548143 -1.0578587e-09 1.1275014e-19)
(-0.0016465794 -1.0168274e-09 0)
(-0.001638479 -9.7869181e-10 0)
(-0.0016304991 -9.4224e-10 -1.5063719e-19)
(-0.0016226379 -9.0687354e-10 0)
(-0.0016148904 -8.7313787e-10 9.3064956e-20)
(-0.0016072446 -8.4128756e-10 0)
(-0.0015996911 -8.1085599e-10 0)
(-0.0015922245 -7.815621e-10 -4.1649897e-20)
(-0.0015848394 -7.5324416e-10 -4.0142365e-20)
(-0.0015775323 -7.2610412e-10 0)
(-0.0015702936 -7.0022849e-10 -7.4633176e-20)
(-0.0015631182 -6.7521397e-10 0)
(-0.0015560025 -6.5108143e-10 0)
(-0.0015489403 -6.2792481e-10 0)
(-0.0015419253 -6.0553307e-10 0)
(-0.001534956 -5.8383668e-10 0)
(-0.0015280265 -5.6309084e-10 0)
(-0.0015211282 -5.4304835e-10 0)
(-0.0015142602 -5.2348116e-10 0)
(-0.0015074194 -5.0453904e-10 0)
(-0.0015006011 -4.8626058e-10 -5.1827368e-20)
(-0.0014937994 -4.6863949e-10 0)
(-0.0014870091 -4.5152919e-10 -2.4063552e-20)
(-0.0014802278 -4.3476521e-10 0)
(-0.001473455 -4.1851341e-10 -2.2303583e-20)
(-0.0014666826 -4.0300063e-10 4.2953391e-20)
(-0.0014599016 -3.8797933e-10 4.1353285e-20)
(-0.0014531105 -3.7314838e-10 -1.9886494e-20)
(-0.0014463106 -3.5869956e-10 0)
(-0.0014394935 -3.450502e-10 0)
(-0.0014326429 -3.3188047e-10 3.537383e-20)
(-0.0014257608 -3.1869345e-10 -3.3968761e-20)
(-0.001418851 -3.0575872e-10 0)
(-0.0014119046 -2.9339494e-10 0)
(-0.0014049095 -2.8145475e-10 -2.9999286e-20)
(-0.0013978618 -2.6964215e-10 0)
(-0.0013907633 -2.5810405e-10 0)
(-0.001383602 -2.471095e-10 0)
(-0.001376363 -2.3641417e-10 0)
(-0.0013690457 -2.2582167e-10 0)
(-0.0013616464 -2.1555863e-10 0)
(-0.001354149 -2.0568452e-10 0)
(-0.0013465429 -1.9595354e-10 0)
(-0.0013388276 -1.8640483e-10 1.9868381e-20)
(-0.0013309883 -1.7733135e-10 -1.8901179e-20)
(-0.0013231762 -1.6871343e-10 0)
(-0.0013156508 -1.6064612e-10 0)
(-0.0013084767 -1.5360406e-10 0)
(-0.0013015958 -1.4711431e-10 0)
(-0.0012950155 -1.4071527e-10 0)
(-0.00128872 -1.3477421e-10 0)
(-0.0012826834 -1.2938054e-10 0)
(-0.0012768815 -1.2440206e-10 0)
(-0.0012713004 -1.1967966e-10 -1.2756399e-20)
(-0.0012659305 -1.152311e-10 0)
(-0.0012607565 -1.1115377e-10 0)
(-0.0012557598 -1.0741756e-10 0)
(-0.0012509276 -1.0388327e-10 0)
(-0.0012462542 -1.0050094e-10 0)
(-0.0012417316 -9.7329632e-11 0)
(-0.0012373485 -9.4469389e-11 0)
(-0.0012330875 -9.1837162e-11 0)
(-0.0012289454 -8.9679758e-11 0)
(-0.0012248817 -8.7251781e-11 0)
(-0.0012209627 -8.7147682e-11 0)
(-0.0012169069 -1.5034473e-10 0)
(-0.0012133249 -1.0225103e-10 -1.0981919e-20)
(-0.0012074997 -1.1557221e-10 0)
)
;
    }
    back
    {
        type            empty;
    }
    front
    {
        type            empty;
    }
    inlet
    {
        type            calculated;
        value           uniform (0 0 0);
    }
    outlet
    {
        type            calculated;
        value           uniform (0 0 0);
    }
    top
    {
        type            calculated;
        value           uniform (0 0 0);
    }
    slipsurface
    {
        type            calculated;
        value           uniform (0 0 0);
    }
}


// ************************************************************************* //
