/*--------------------------------*- C++ -*----------------------------------*\
  =========                 |
  \\      /  F ield         | OpenFOAM: The Open Source CFD Toolbox
   \\    /   O peration     | Website:  https://openfoam.org
    \\  /    A nd           | Version:  12
     \\/     M anipulation  |
\*---------------------------------------------------------------------------*/
FoamFile
{
    format      ascii;
    class       volScalarField;
    location    "1900";
    object      nut;
}
// * * * * * * * * * * * * * * * * * * * * * * * * * * * * * * * * * * * * * //

dimensions      [0 2 -1 0 0 0 0];

internalField   nonuniform List<scalar> 
7480
(
8.0717034e-08
4.29604e-08
3.1056332e-08
2.836537e-08
3.1793951e-06
5.3315372e-06
6.333808e-06
6.9862477e-06
7.3991726e-06
7.6472601e-06
7.4893232e-06
7.2192038e-06
6.8979062e-06
6.5573959e-06
6.2181205e-06
5.8929993e-06
5.5904299e-06
5.3199087e-06
5.0761556e-06
4.8644081e-06
4.680226e-06
4.5209438e-06
4.3858858e-06
4.2745395e-06
4.1860785e-06
4.1198757e-06
4.0748463e-06
4.0495009e-06
4.0421327e-06
4.0508615e-06
4.07364e-06
4.1083668e-06
4.1529887e-06
4.2077035e-06
4.2711618e-06
4.3413231e-06
4.4158508e-06
4.4924313e-06
4.5696742e-06
4.6465674e-06
4.7219959e-06
4.7948486e-06
4.86425e-06
4.9294867e-06
4.9899941e-06
5.0454476e-06
5.0953327e-06
5.1412425e-06
5.1827967e-06
5.2192595e-06
5.2501929e-06
5.2755043e-06
5.2955143e-06
5.3109787e-06
5.3227174e-06
5.3315658e-06
5.3384643e-06
5.3439283e-06
5.3482377e-06
5.3514745e-06
5.3535731e-06
5.3546074e-06
5.3548339e-06
5.3544487e-06
5.353501e-06
5.3521007e-06
5.3505524e-06
5.3488778e-06
5.346927e-06
5.3446493e-06
5.3420116e-06
5.3389116e-06
5.3354306e-06
5.3316909e-06
5.3276736e-06
5.32343e-06
5.3190388e-06
5.3143725e-06
5.3093812e-06
5.3041673e-06
5.298696e-06
5.293006e-06
5.2872045e-06
5.2812162e-06
5.2750077e-06
5.268628e-06
5.2620641e-06
5.2553505e-06
5.2484998e-06
5.2415143e-06
5.2343999e-06
5.2271279e-06
5.2197206e-06
5.212206e-06
5.2045016e-06
5.1967658e-06
5.1888899e-06
5.1803425e-06
5.168474e-06
5.1776462e-06
1.6699851e-07
1.647932e-07
1.6275603e-07
1.6152437e-07
7.8951318e-07
2.0013948e-06
3.2199094e-06
4.1000495e-06
4.6102084e-06
4.8536785e-06
4.9291474e-06
4.9200004e-06
4.9202093e-06
4.9672101e-06
5.0574578e-06
5.1936156e-06
5.3999724e-06
5.7433188e-06
5.8735703e-06
6.1611369e-06
6.4630551e-06
6.7817787e-06
7.1154309e-06
7.4620222e-06
7.8193129e-06
8.1874705e-06
8.5617474e-06
8.9378257e-06
9.3126703e-06
9.6838805e-06
1.0049745e-05
1.0409603e-05
1.0764442e-05
1.1116892e-05
1.1464012e-05
1.1800519e-05
1.2120605e-05
1.2422172e-05
1.2708296e-05
1.2978513e-05
1.3231773e-05
1.3467506e-05
1.3684949e-05
1.3883367e-05
1.4063273e-05
1.4225474e-05
1.4370861e-05
1.4499032e-05
1.4609948e-05
1.4704846e-05
1.4785538e-05
1.4853968e-05
1.4912187e-05
1.4962457e-05
1.5006581e-05
1.5046553e-05
1.5083906e-05
1.511818e-05
1.5149368e-05
1.5177691e-05
1.520337e-05
1.5226836e-05
1.524857e-05
1.5268768e-05
1.5287404e-05
1.5304573e-05
1.5320494e-05
1.5334708e-05
1.5346906e-05
1.5357231e-05
1.5365878e-05
1.5372919e-05
1.5378661e-05
1.5383281e-05
1.538658e-05
1.5388479e-05
1.5388991e-05
1.538801e-05
1.5385743e-05
1.5382506e-05
1.5378306e-05
1.5373172e-05
1.5367065e-05
1.5359796e-05
1.5351487e-05
1.534235e-05
1.533248e-05
1.532192e-05
1.5310556e-05
1.5298374e-05
1.5285454e-05
1.5271883e-05
1.5257776e-05
1.5243095e-05
1.5227636e-05
1.5211855e-05
1.519517e-05
1.5177406e-05
1.5157272e-05
1.5154042e-05
1.6882481e-07
1.6856636e-07
1.6827201e-07
1.6795688e-07
1.7998487e-07
2.3387091e-07
3.7065968e-07
6.1993564e-07
9.7978469e-07
1.4139571e-06
1.8590062e-06
2.2551141e-06
2.5711185e-06
2.8048987e-06
2.9699911e-06
3.0862327e-06
3.1760327e-06
3.2763793e-06
3.4091577e-06
3.5801058e-06
3.7897267e-06
4.0379059e-06
4.3259355e-06
4.65732e-06
5.0374765e-06
5.4517031e-06
5.9086827e-06
6.4112477e-06
6.9626532e-06
7.5669942e-06
8.2301527e-06
8.9619431e-06
9.7491915e-06
1.0441613e-05
1.1159251e-05
1.1897462e-05
1.2644653e-05
1.3391061e-05
1.4133997e-05
1.4867095e-05
1.5587636e-05
1.6292948e-05
1.6970449e-05
1.7614642e-05
1.8230859e-05
1.8817432e-05
1.9374686e-05
1.9795181e-05
2.0168075e-05
2.0510569e-05
2.0826835e-05
2.1119895e-05
2.1392571e-05
2.1648038e-05
2.1888903e-05
2.2115092e-05
2.2325401e-05
2.2521022e-05
2.2703956e-05
2.287618e-05
2.3039051e-05
2.3193582e-05
2.3340404e-05
2.3479873e-05
2.3612361e-05
2.3738101e-05
2.3856017e-05
2.396597e-05
2.4068663e-05
2.4165052e-05
2.4255783e-05
2.434115e-05
2.4421642e-05
2.4497558e-05
2.456804e-05
2.4632951e-05
2.4692731e-05
2.474778e-05
2.479878e-05
2.4846201e-05
2.4890136e-05
2.4930307e-05
2.4966449e-05
2.499863e-05
2.5027456e-05
2.5053372e-05
2.5076639e-05
2.5097134e-05
2.5114512e-05
2.5128961e-05
2.514085e-05
2.5150488e-05
2.5158072e-05
2.5163283e-05
2.516601e-05
2.5166774e-05
2.5165888e-05
2.51594e-05
2.5161524e-05
2.5117329e-05
1.6885074e-07
1.6864748e-07
1.6843941e-07
1.6822675e-07
1.6818685e-07
1.689654e-07
1.7200452e-07
1.797743e-07
1.9582234e-07
2.2501324e-07
2.7252322e-07
3.4287997e-07
4.389833e-07
5.6140562e-07
7.0817786e-07
8.7496536e-07
1.0557625e-06
1.2452622e-06
1.4385455e-06
1.6317091e-06
1.8218934e-06
2.0080451e-06
2.1905258e-06
2.3709816e-06
2.5526696e-06
2.7515901e-06
2.9713578e-06
3.2171374e-06
3.495953e-06
3.8170881e-06
4.1928641e-06
4.6395406e-06
5.1788618e-06
5.7987471e-06
6.5089803e-06
7.3171451e-06
8.2238057e-06
9.2227781e-06
1.0050056e-05
1.0924482e-05
1.184002e-05
1.2791041e-05
1.3770376e-05
1.4770453e-05
1.5777428e-05
1.6778679e-05
1.7768341e-05
1.8737615e-05
1.9674018e-05
2.0577832e-05
2.1449841e-05
2.2286421e-05
2.3084932e-05
2.3843509e-05
2.4564563e-05
2.5198376e-05
2.572873e-05
2.6228944e-05
2.6704123e-05
2.7157781e-05
2.7591585e-05
2.8006715e-05
2.8404305e-05
2.8785598e-05
2.9151664e-05
2.9502334e-05
2.9834743e-05
3.014968e-05
3.04489e-05
3.0734079e-05
3.1006285e-05
3.126608e-05
3.1514314e-05
3.1751662e-05
3.1976757e-05
3.218957e-05
3.2391056e-05
3.2582007e-05
3.2763373e-05
3.2935892e-05
3.3099868e-05
3.3254743e-05
3.340039e-05
3.3537251e-05
3.366624e-05
3.378806e-05
3.3903159e-05
3.4011255e-05
3.4112009e-05
3.4205921e-05
3.4293665e-05
3.4375753e-05
3.4452421e-05
3.4523232e-05
3.4588103e-05
3.4648241e-05
3.4703353e-05
3.4750277e-05
3.479923e-05
3.4801166e-05
1.6885074e-07
1.6864864e-07
1.6844329e-07
1.6823486e-07
1.6802583e-07
1.6782776e-07
1.6767376e-07
1.676363e-07
1.6784747e-07
1.6852897e-07
1.7001452e-07
1.7277054e-07
1.7740619e-07
1.8467805e-07
1.9549659e-07
2.1092246e-07
2.3216231e-07
2.6057576e-07
2.9768474e-07
3.4509141e-07
4.0435671e-07
4.77046e-07
5.6471578e-07
6.6882603e-07
7.907597e-07
9.3173547e-07
1.0920672e-06
1.2712186e-06
1.4680438e-06
1.6811156e-06
1.9092225e-06
2.1522539e-06
2.4111997e-06
2.704966e-06
3.0419555e-06
3.4341727e-06
3.8968777e-06
4.4487908e-06
5.1205572e-06
5.8939822e-06
6.7770467e-06
7.7761495e-06
8.8969706e-06
9.8758534e-06
1.0795299e-05
1.178927e-05
1.2840782e-05
1.3945096e-05
1.5095321e-05
1.628143e-05
1.7478929e-05
1.8671677e-05
1.9852611e-05
2.1016825e-05
2.2173374e-05
2.3312132e-05
2.4420197e-05
2.5488695e-05
2.6510982e-05
2.7490694e-05
2.8432939e-05
2.9342952e-05
3.0222886e-05
3.1071417e-05
3.1885969e-05
3.2646591e-05
3.3284282e-05
3.3893879e-05
3.4478919e-05
3.5041303e-05
3.5582084e-05
3.6102111e-05
3.6602711e-05
3.7084781e-05
3.7545006e-05
3.7983563e-05
3.8402411e-05
3.8803004e-05
3.9186613e-05
3.9554263e-05
3.9906568e-05
4.0242439e-05
4.0561917e-05
4.0865932e-05
4.1155722e-05
4.1432276e-05
4.1696271e-05
4.1947207e-05
4.2184872e-05
4.2410171e-05
4.2624078e-05
4.2827319e-05
4.3020154e-05
4.3202041e-05
4.3373113e-05
4.3535209e-05
4.3687531e-05
4.3827979e-05
4.3961955e-05
4.4045706e-05
1.6885037e-07
1.6864835e-07
1.6844319e-07
1.6823496e-07
1.6802374e-07
1.6780975e-07
1.6759368e-07
1.6737726e-07
1.6716428e-07
1.66962e-07
1.6678327e-07
1.6664907e-07
1.6659153e-07
1.6665724e-07
1.6691115e-07
1.6744074e-07
1.6836119e-07
1.6982204e-07
1.7201734e-07
1.7519465e-07
1.7965914e-07
1.8579209e-07
1.9407956e-07
2.0514242e-07
2.1980332e-07
2.3914295e-07
2.6452755e-07
2.9768258e-07
3.4080194e-07
3.9665599e-07
4.6867747e-07
5.6114675e-07
6.789784e-07
8.2763132e-07
1.0124259e-06
1.238156e-06
1.508328e-06
1.8240313e-06
2.1825039e-06
2.5774265e-06
3.0272536e-06
3.5421597e-06
4.1405039e-06
4.835084e-06
5.6785644e-06
6.6480806e-06
7.7518419e-06
8.9905096e-06
1.0304223e-05
1.1260033e-05
1.230919e-05
1.3434598e-05
1.4627614e-05
1.5879979e-05
1.719016e-05
1.8535215e-05
1.9894756e-05
2.1253941e-05
2.2601417e-05
2.3964276e-05
2.5324558e-05
2.6671536e-05
2.7992486e-05
2.9278911e-05
3.0535211e-05
3.1763168e-05
3.2954128e-05
3.4104637e-05
3.5208664e-05
3.6268714e-05
3.7291152e-05
3.8282288e-05
3.9240271e-05
4.0165636e-05
4.0961412e-05
4.1697634e-05
4.2405917e-05
4.3088063e-05
4.3745293e-05
4.43788e-05
4.4989512e-05
4.5574418e-05
4.6133757e-05
4.6669448e-05
4.7183242e-05
4.7676444e-05
4.8149967e-05
4.8602811e-05
4.903486e-05
4.9447494e-05
4.9842023e-05
5.0219438e-05
5.0579991e-05
5.0922987e-05
5.1248929e-05
5.1560181e-05
5.1855589e-05
5.2134156e-05
5.2396744e-05
5.2603523e-05
1.6885004e-07
1.6864798e-07
1.6844281e-07
1.6823457e-07
1.6802334e-07
1.6780917e-07
1.6759207e-07
1.6737212e-07
1.671494e-07
1.6692413e-07
1.6669672e-07
1.6646791e-07
1.6623901e-07
1.6601213e-07
1.6579053e-07
1.6557901e-07
1.6538456e-07
1.6521695e-07
1.6508976e-07
1.6502144e-07
1.6503623e-07
1.6516579e-07
1.6545171e-07
1.6594859e-07
1.6672976e-07
1.6789458e-07
1.6957561e-07
1.7195181e-07
1.7526902e-07
1.7986994e-07
1.8623749e-07
1.9507512e-07
2.0741597e-07
2.2476139e-07
2.4928442e-07
2.8416869e-07
3.3408323e-07
4.0575404e-07
5.0861833e-07
6.5405616e-07
8.5476024e-07
1.1226079e-06
1.465531e-06
1.8802062e-06
2.3509513e-06
2.8754976e-06
3.469186e-06
4.1467303e-06
4.9423379e-06
5.8959945e-06
6.9898499e-06
8.2364262e-06
9.63672e-06
1.1178638e-05
1.2324467e-05
1.3446844e-05
1.4658092e-05
1.5950708e-05
1.7316233e-05
1.8758948e-05
2.0248162e-05
2.1757461e-05
2.3270981e-05
2.4794148e-05
2.6356576e-05
2.7930499e-05
2.9504307e-05
3.1053223e-05
3.2579364e-05
3.4082037e-05
3.5560827e-05
3.7010619e-05
3.8419992e-05
3.9789443e-05
4.1112971e-05
4.2390717e-05
4.362008e-05
4.4801362e-05
4.5939992e-05
4.7041253e-05
4.810911e-05
4.9041602e-05
4.9902383e-05
5.0731703e-05
5.1531515e-05
5.2303118e-05
5.3047556e-05
5.3762154e-05
5.4446827e-05
5.5103914e-05
5.5735221e-05
5.6342024e-05
5.6924401e-05
5.7481184e-05
5.8013437e-05
5.8523977e-05
5.9011536e-05
5.9476019e-05
5.9914725e-05
6.0289584e-05
1.688498e-07
1.6864769e-07
1.684425e-07
1.6823428e-07
1.6802307e-07
1.6780892e-07
1.6759183e-07
1.6737182e-07
1.671489e-07
1.669231e-07
1.6669444e-07
1.6646295e-07
1.6622872e-07
1.6599183e-07
1.6575243e-07
1.6551078e-07
1.6526721e-07
1.6502226e-07
1.6477672e-07
1.6453171e-07
1.6428877e-07
1.6405004e-07
1.6381841e-07
1.6359779e-07
1.6339351e-07
1.6321284e-07
1.6306563e-07
1.6296524e-07
1.6293004e-07
1.6298573e-07
1.6316848e-07
1.6353086e-07
1.6415067e-07
1.6514308e-07
1.6668024e-07
1.6902538e-07
1.7259012e-07
1.7802854e-07
1.8641673e-07
1.9951135e-07
2.2011816e-07
2.5273595e-07
3.0451431e-07
3.8632222e-07
5.1351765e-07
7.0505163e-07
9.8101433e-07
1.3564935e-06
1.8328718e-06
2.3844226e-06
3.0010128e-06
3.6957674e-06
4.4869761e-06
5.4550757e-06
6.5844353e-06
7.8709614e-06
9.3277645e-06
1.0952066e-05
1.2718805e-05
1.3969577e-05
1.5211642e-05
1.6548211e-05
1.7971108e-05
1.9480441e-05
2.1073994e-05
2.2713132e-05
2.4378293e-05
2.6052217e-05
2.780522e-05
2.959097e-05
3.1386724e-05
3.3164297e-05
3.4929293e-05
3.6684181e-05
3.8433092e-05
4.0160919e-05
4.1847371e-05
4.349045e-05
4.5095651e-05
4.666158e-05
4.8183163e-05
4.9646404e-05
5.1051958e-05
5.2405284e-05
5.3708254e-05
5.496416e-05
5.6181344e-05
5.7262812e-05
5.8255011e-05
5.9211894e-05
6.0135493e-05
6.1027103e-05
6.1886026e-05
6.2709664e-05
6.3500456e-05
6.4261686e-05
6.4992284e-05
6.5692405e-05
6.6357167e-05
6.6947902e-05
1.6884963e-07
1.6864747e-07
1.6844227e-07
1.6823405e-07
1.6802285e-07
1.678087e-07
1.6759161e-07
1.6737161e-07
1.6714869e-07
1.6692288e-07
1.6669421e-07
1.6646267e-07
1.6622831e-07
1.6599114e-07
1.6575119e-07
1.6550849e-07
1.6526308e-07
1.6501501e-07
1.6476434e-07
1.6451115e-07
1.6425555e-07
1.639977e-07
1.6373779e-07
1.634761e-07
1.6321298e-07
1.6294895e-07
1.6268468e-07
1.6242113e-07
1.6215957e-07
1.6190181e-07
1.6165036e-07
1.6140886e-07
1.6118263e-07
1.6097947e-07
1.6081096e-07
1.6069464e-07
1.6065763e-07
1.607427e-07
1.6101999e-07
1.6160617e-07
1.6269351e-07
1.6460572e-07
1.6789776e-07
1.7353181e-07
1.8319675e-07
1.9982448e-07
2.2843374e-07
2.7749713e-07
3.6083099e-07
4.9871044e-07
7.1672994e-07
1.0415629e-06
1.4903417e-06
2.0606372e-06
2.7108286e-06
3.4479706e-06
4.2808596e-06
5.2756974e-06
6.4967834e-06
7.8844177e-06
9.4503508e-06
1.119889e-05
1.3109553e-05
1.4941912e-05
1.6247214e-05
1.7652511e-05
1.9153979e-05
2.0750337e-05
2.2456566e-05
2.4230462e-05
2.6044021e-05
2.7873751e-05
2.9801149e-05
3.178602e-05
3.3793682e-05
3.5797728e-05
3.7808165e-05
3.9822624e-05
4.1828645e-05
4.3806237e-05
4.5744342e-05
4.7655796e-05
4.9537097e-05
5.1370543e-05
5.3148373e-05
5.4875495e-05
5.6556902e-05
5.8174513e-05
5.9722457e-05
6.1210889e-05
6.264633e-05
6.4032653e-05
6.5328739e-05
6.6469302e-05
6.7569395e-05
6.8632225e-05
6.9657163e-05
7.0643028e-05
7.1584321e-05
7.2440847e-05
1.6884951e-07
1.6864732e-07
1.684421e-07
1.6823388e-07
1.6802268e-07
1.6780853e-07
1.6759144e-07
1.6737144e-07
1.6714853e-07
1.6692273e-07
1.6669405e-07
1.6646252e-07
1.6622816e-07
1.6599098e-07
1.6575101e-07
1.6550828e-07
1.6526281e-07
1.6501462e-07
1.6476375e-07
1.6451024e-07
1.642541e-07
1.6399539e-07
1.6373414e-07
1.6347039e-07
1.632042e-07
1.6293563e-07
1.6266476e-07
1.6239168e-07
1.6211649e-07
1.6183936e-07
1.6156048e-07
1.6128012e-07
1.6099867e-07
1.6071666e-07
1.6043489e-07
1.6015451e-07
1.598773e-07
1.5960597e-07
1.593449e-07
1.5910129e-07
1.5888692e-07
1.5872157e-07
1.5863912e-07
1.5869882e-07
1.5900674e-07
1.5975352e-07
1.6128172e-07
1.6421571e-07
1.697071e-07
1.7988241e-07
1.9860725e-07
2.327961e-07
2.9449613e-07
4.0396983e-07
5.897308e-07
8.8596732e-07
1.3216775e-06
1.9045551e-06
2.6008021e-06
3.4046159e-06
4.3139671e-06
5.403611e-06
6.7365698e-06
8.2943733e-06
1.003631e-05
1.1969639e-05
1.4070191e-05
1.6297046e-05
1.7758081e-05
1.9267668e-05
2.0879018e-05
2.2594475e-05
2.4431323e-05
2.6347047e-05
2.831053e-05
3.0315638e-05
3.2449784e-05
3.4652349e-05
3.6875251e-05
3.9106135e-05
4.1357055e-05
4.3622154e-05
4.5882709e-05
4.8115558e-05
5.0316502e-05
5.2487245e-05
5.4613798e-05
5.6695159e-05
5.873075e-05
6.071257e-05
6.2633203e-05
6.4494223e-05
6.6295393e-05
6.8018121e-05
6.9670989e-05
7.1259284e-05
7.2806027e-05
7.4206457e-05
7.547246e-05
7.6647558e-05
1.6884943e-07
1.6864721e-07
1.6844198e-07
1.6823375e-07
1.6802255e-07
1.6780841e-07
1.6759132e-07
1.6737132e-07
1.6714841e-07
1.6692261e-07
1.6669393e-07
1.664624e-07
1.6622804e-07
1.6599086e-07
1.6575089e-07
1.6550816e-07
1.6526269e-07
1.650145e-07
1.6476363e-07
1.645101e-07
1.6425395e-07
1.6399521e-07
1.637339e-07
1.6347006e-07
1.6320374e-07
1.6293495e-07
1.6266375e-07
1.6239017e-07
1.6211425e-07
1.6183605e-07
1.615556e-07
1.6127296e-07
1.609882e-07
1.6070139e-07
1.6041261e-07
1.6012199e-07
1.5982966e-07
1.5953584e-07
1.5924083e-07
1.5894511e-07
1.5864942e-07
1.5835497e-07
1.5806379e-07
1.5777939e-07
1.5750801e-07
1.572609e-07
1.5705846e-07
1.5693823e-07
1.5697052e-07
1.5728897e-07
1.5814767e-07
1.6002782e-07
1.6384835e-07
1.71398e-07
1.8609214e-07
2.1434927e-07
2.679427e-07
3.6765895e-07
5.4612571e-07
8.4522011e-07
1.3027685e-06
1.9312985e-06
2.6961009e-06
3.594621e-06
4.6178244e-06
5.8781447e-06
7.3962258e-06
9.1863578e-06
1.1171762e-05
1.3348589e-05
1.5686177e-05
1.8144787e-05
1.9768615e-05
2.1414732e-05
2.31674e-05
2.5035519e-05
2.7031807e-05
2.9111212e-05
3.1237456e-05
3.3469783e-05
3.5838723e-05
3.826115e-05
4.0704507e-05
4.3185876e-05
4.5702735e-05
4.8227043e-05
5.0727502e-05
5.3206987e-05
5.5672129e-05
5.8100947e-05
6.0475043e-05
6.2796145e-05
6.5067804e-05
6.7288258e-05
6.9444072e-05
7.1528597e-05
7.3561038e-05
7.5517282e-05
7.7320132e-05
7.9468441e-05
1.6884939e-07
1.6864715e-07
1.6844191e-07
1.6823368e-07
1.6802248e-07
1.6780833e-07
1.6759124e-07
1.6737124e-07
1.6714833e-07
1.6692252e-07
1.6669385e-07
1.6646232e-07
1.6622795e-07
1.6599077e-07
1.657508e-07
1.6550807e-07
1.652626e-07
1.6501441e-07
1.6476353e-07
1.6451e-07
1.6425385e-07
1.639951e-07
1.6373379e-07
1.6346995e-07
1.6320361e-07
1.6293482e-07
1.626636e-07
1.6239e-07
1.6211405e-07
1.6183579e-07
1.6155526e-07
1.6127251e-07
1.6098757e-07
1.6070049e-07
1.6041132e-07
1.601201e-07
1.5982688e-07
1.5953172e-07
1.5923468e-07
1.5893583e-07
1.5863526e-07
1.5833307e-07
1.5802943e-07
1.5772458e-07
1.5741891e-07
1.5711311e-07
1.5680838e-07
1.565069e-07
1.5621276e-07
1.5593375e-07
1.5568491e-07
1.5549522e-07
1.5542096e-07
1.5557379e-07
1.5617601e-07
1.5766796e-07
1.6092402e-07
1.6770407e-07
1.8154812e-07
2.0942772e-07
2.6465623e-07
3.7158634e-07
5.6947027e-07
9.104413e-07
1.4381111e-06
2.1586923e-06
3.0367501e-06
4.0709162e-06
5.2925104e-06
6.7990826e-06
8.5915844e-06
1.0684721e-05
1.297915e-05
1.5446458e-05
1.8057305e-05
2.0593705e-05
2.2318005e-05
2.4131189e-05
2.605676e-05
2.8120796e-05
3.0305352e-05
3.2563148e-05
3.4900231e-05
3.7413443e-05
4.0034598e-05
4.2688146e-05
4.5389938e-05
4.8150171e-05
5.093697e-05
5.37155e-05
5.6478626e-05
5.9224273e-05
6.1932716e-05
6.459896e-05
6.7220838e-05
6.9780991e-05
7.2282316e-05
7.4736018e-05
7.7011173e-05
8.005968e-05
1.6884937e-07
1.6864712e-07
1.6844187e-07
1.6823363e-07
1.6802243e-07
1.6780828e-07
1.675912e-07
1.6737119e-07
1.6714828e-07
1.6692248e-07
1.666938e-07
1.6646226e-07
1.662279e-07
1.6599072e-07
1.6575075e-07
1.6550801e-07
1.6526253e-07
1.6501434e-07
1.6476347e-07
1.6450993e-07
1.6425378e-07
1.6399502e-07
1.6373371e-07
1.6346987e-07
1.6320353e-07
1.6293473e-07
1.6266351e-07
1.6238991e-07
1.6211396e-07
1.6183569e-07
1.6155516e-07
1.612724e-07
1.6098745e-07
1.6070036e-07
1.6041117e-07
1.6011992e-07
1.5982666e-07
1.5953142e-07
1.5923427e-07
1.5893524e-07
1.5863439e-07
1.5833176e-07
1.5802741e-07
1.5772138e-07
1.5741376e-07
1.5710461e-07
1.5679405e-07
1.5648225e-07
1.5616946e-07
1.5585617e-07
1.5554326e-07
1.5523241e-07
1.5492693e-07
1.5463335e-07
1.5436491e-07
1.5414836e-07
1.5403787e-07
1.5414479e-07
1.5470061e-07
1.5618537e-07
1.5959176e-07
1.6699677e-07
1.8273756e-07
2.1574165e-07
2.8360211e-07
4.191305e-07
6.7416433e-07
1.113066e-06
1.7772673e-06
2.6392016e-06
3.6851197e-06
4.9205609e-06
6.4625891e-06
8.3071068e-06
1.0476506e-05
1.2944148e-05
1.5583747e-05
1.8372665e-05
2.1284681e-05
2.3556313e-05
2.5461426e-05
2.747211e-05
2.9617044e-05
3.1910382e-05
3.4302829e-05
3.6764282e-05
3.9429944e-05
4.2250489e-05
4.5116068e-05
4.8049808e-05
5.1064993e-05
5.4115403e-05
5.7162564e-05
6.0206577e-05
6.3243961e-05
6.6241691e-05
6.9193751e-05
7.2116898e-05
7.4838808e-05
7.8508737e-05
1.6884937e-07
1.6864711e-07
1.6844185e-07
1.6823362e-07
1.6802242e-07
1.6780827e-07
1.6759118e-07
1.6737118e-07
1.6714826e-07
1.6692246e-07
1.6669378e-07
1.6646224e-07
1.6622787e-07
1.6599069e-07
1.6575072e-07
1.6550798e-07
1.652625e-07
1.650143e-07
1.6476342e-07
1.6450989e-07
1.6425373e-07
1.6399497e-07
1.6373365e-07
1.6346981e-07
1.6320347e-07
1.6293467e-07
1.6266344e-07
1.6238984e-07
1.6211388e-07
1.6183561e-07
1.6155508e-07
1.6127232e-07
1.6098737e-07
1.6070028e-07
1.6041108e-07
1.6011983e-07
1.5982656e-07
1.5953133e-07
1.5923417e-07
1.5893514e-07
1.5863427e-07
1.5833162e-07
1.5802722e-07
1.5772114e-07
1.5741341e-07
1.5710408e-07
1.567932e-07
1.5648083e-07
1.5616702e-07
1.5585184e-07
1.5553538e-07
1.5521778e-07
1.5489925e-07
1.545802e-07
1.5426143e-07
1.539445e-07
1.536326e-07
1.5333238e-07
1.5305781e-07
1.5283842e-07
1.5273663e-07
1.5288599e-07
1.535755e-07
1.5543089e-07
1.5980236e-07
1.6964472e-07
1.9135237e-07
2.3853418e-07
3.3858663e-07
5.4050879e-07
9.1573772e-07
1.5331424e-06
2.396801e-06
3.4755314e-06
4.7531508e-06
6.3654151e-06
8.3159988e-06
1.0616503e-05
1.3257684e-05
1.6118749e-05
1.9119967e-05
2.224767e-05
2.5123349e-05
2.7170469e-05
2.9283666e-05
3.1530865e-05
3.3947573e-05
3.6481199e-05
3.9090404e-05
4.1933137e-05
4.496218e-05
4.8052982e-05
5.1232442e-05
5.4508169e-05
5.7828524e-05
6.1156148e-05
6.4492748e-05
6.783523e-05
7.0984011e-05
7.5133606e-05
1.6884939e-07
1.6864712e-07
1.6844186e-07
1.6823363e-07
1.6802243e-07
1.6780828e-07
1.6759119e-07
1.6737118e-07
1.6714827e-07
1.6692246e-07
1.6669378e-07
1.6646224e-07
1.6622787e-07
1.6599068e-07
1.6575071e-07
1.6550797e-07
1.6526248e-07
1.6501428e-07
1.647634e-07
1.6450986e-07
1.642537e-07
1.6399494e-07
1.6373362e-07
1.6346977e-07
1.6320342e-07
1.6293462e-07
1.6266339e-07
1.6238978e-07
1.6211382e-07
1.6183555e-07
1.6155502e-07
1.6127225e-07
1.609873e-07
1.6070021e-07
1.6041101e-07
1.6011976e-07
1.5982649e-07
1.5953126e-07
1.592341e-07
1.5893506e-07
1.586342e-07
1.5833154e-07
1.5802715e-07
1.5772106e-07
1.5741332e-07
1.5710399e-07
1.5679309e-07
1.5648069e-07
1.5616683e-07
1.5585155e-07
1.555349e-07
1.5521694e-07
1.5489771e-07
1.5457728e-07
1.5425574e-07
1.539332e-07
1.5360989e-07
1.5328623e-07
1.5296304e-07
1.5264209e-07
1.523271e-07
1.5202617e-07
1.5175705e-07
1.5155889e-07
1.5151807e-07
1.5182838e-07
1.5292745e-07
1.5580392e-07
1.6269826e-07
1.7868416e-07
2.1508882e-07
2.9632304e-07
4.7041309e-07
8.1429173e-07
1.413216e-06
2.3000514e-06
3.4371446e-06
4.7981124e-06
6.5260453e-06
8.6356297e-06
1.1125266e-05
1.3978416e-05
1.7097824e-05
2.0345913e-05
2.3713715e-05
2.7057486e-05
2.9263775e-05
3.1497031e-05
3.387175e-05
3.6430283e-05
3.9115127e-05
4.1907493e-05
4.4961991e-05
4.8211056e-05
5.1544614e-05
5.499284e-05
5.8549531e-05
6.2165418e-05
6.5662585e-05
7.014972e-05
1.6884942e-07
1.6864715e-07
1.6844189e-07
1.6823366e-07
1.6802246e-07
1.6780831e-07
1.6759122e-07
1.6737121e-07
1.671483e-07
1.6692249e-07
1.666938e-07
1.6646226e-07
1.6622789e-07
1.659907e-07
1.6575072e-07
1.6550798e-07
1.6526249e-07
1.6501429e-07
1.647634e-07
1.6450986e-07
1.6425369e-07
1.6399492e-07
1.637336e-07
1.6346974e-07
1.632034e-07
1.6293459e-07
1.6266336e-07
1.6238974e-07
1.6211378e-07
1.6183551e-07
1.6155497e-07
1.612722e-07
1.6098725e-07
1.6070015e-07
1.6041095e-07
1.601197e-07
1.5982643e-07
1.595312e-07
1.5923404e-07
1.58935e-07
1.5863413e-07
1.5833148e-07
1.5802708e-07
1.5772099e-07
1.5741326e-07
1.5710392e-07
1.5679303e-07
1.5648063e-07
1.5616676e-07
1.5585148e-07
1.5553482e-07
1.5521684e-07
1.5489757e-07
1.5457707e-07
1.5425538e-07
1.5393255e-07
1.5360863e-07
1.5328368e-07
1.5295779e-07
1.5263109e-07
1.5230384e-07
1.5197653e-07
1.5165024e-07
1.5132732e-07
1.5101302e-07
1.5071926e-07
1.5047344e-07
1.5033865e-07
1.504612e-07
1.5118429e-07
1.5331552e-07
1.5875737e-07
1.7202678e-07
2.0366204e-07
2.7738464e-07
4.4310685e-07
7.8601373e-07
1.4064783e-06
2.3486054e-06
3.5784712e-06
5.0699419e-06
6.9757568e-06
9.305849e-06
1.2048982e-05
1.5168783e-05
1.857705e-05
2.2099011e-05
2.5730186e-05
2.9373724e-05
3.1742246e-05
3.4117578e-05
3.6650583e-05
3.9375573e-05
4.2227499e-05
4.5248741e-05
4.8552458e-05
5.2039289e-05
5.5654543e-05
5.9321846e-05
6.3877961e-05
1.6884947e-07
1.6864719e-07
1.6844194e-07
1.682337e-07
1.680225e-07
1.6780835e-07
1.6759127e-07
1.6737126e-07
1.6714834e-07
1.6692253e-07
1.6669385e-07
1.664623e-07
1.6622793e-07
1.6599074e-07
1.6575075e-07
1.65508e-07
1.6526251e-07
1.6501431e-07
1.6476342e-07
1.6450987e-07
1.6425369e-07
1.6399493e-07
1.637336e-07
1.6346974e-07
1.6320338e-07
1.6293457e-07
1.6266334e-07
1.6238972e-07
1.6211375e-07
1.6183548e-07
1.6155494e-07
1.6127217e-07
1.6098721e-07
1.6070011e-07
1.6041091e-07
1.6011965e-07
1.5982638e-07
1.5953115e-07
1.5923399e-07
1.5893495e-07
1.5863408e-07
1.5833142e-07
1.5802703e-07
1.5772094e-07
1.574132e-07
1.5710386e-07
1.5679297e-07
1.5648057e-07
1.561667e-07
1.5585142e-07
1.5553476e-07
1.5521678e-07
1.5489751e-07
1.5457701e-07
1.5425531e-07
1.5393246e-07
1.5360851e-07
1.532835e-07
1.5295746e-07
1.5263046e-07
1.5230254e-07
1.5197376e-07
1.5164423e-07
1.5131412e-07
1.5098376e-07
1.5065388e-07
1.5032615e-07
1.5000442e-07
1.4969771e-07
1.4942757e-07
1.4924573e-07
1.4927656e-07
1.4982391e-07
1.5163348e-07
1.5652667e-07
1.690164e-07
2.0008416e-07
2.7545498e-07
4.5124396e-07
8.2625384e-07
1.5160287e-06
2.557834e-06
3.9239395e-06
5.6105999e-06
7.7590037e-06
1.0384562e-05
1.3450228e-05
1.6890363e-05
2.061079e-05
2.4428549e-05
2.8345996e-05
3.2095365e-05
3.4627256e-05
3.7170553e-05
3.9895455e-05
4.2807278e-05
4.5846086e-05
4.9154259e-05
5.2733412e-05
5.6918004e-05
1.6884952e-07
1.6864725e-07
1.6844199e-07
1.6823376e-07
1.6802256e-07
1.6780842e-07
1.6759133e-07
1.6737132e-07
1.671484e-07
1.6692259e-07
1.666939e-07
1.6646236e-07
1.6622798e-07
1.6599079e-07
1.657508e-07
1.6550805e-07
1.6526255e-07
1.6501434e-07
1.6476345e-07
1.645099e-07
1.6425372e-07
1.6399494e-07
1.6373361e-07
1.6346975e-07
1.6320339e-07
1.6293457e-07
1.6266333e-07
1.6238971e-07
1.6211374e-07
1.6183546e-07
1.6155492e-07
1.6127214e-07
1.6098718e-07
1.6070008e-07
1.6041088e-07
1.6011962e-07
1.5982635e-07
1.5953111e-07
1.5923395e-07
1.5893491e-07
1.5863404e-07
1.5833138e-07
1.5802698e-07
1.5772089e-07
1.5741315e-07
1.5710382e-07
1.5679292e-07
1.5648052e-07
1.5616665e-07
1.5585137e-07
1.5553471e-07
1.5521673e-07
1.5489746e-07
1.5457696e-07
1.5425526e-07
1.5393241e-07
1.5360845e-07
1.5328344e-07
1.529574e-07
1.5263038e-07
1.5230242e-07
1.5197357e-07
1.5164387e-07
1.5131336e-07
1.509821e-07
1.5065017e-07
1.503177e-07
1.4998495e-07
1.4965247e-07
1.4932159e-07
1.4899548e-07
1.4868186e-07
1.4839987e-07
1.4819747e-07
1.4819443e-07
1.4869516e-07
1.5047752e-07
1.5551849e-07
1.6890454e-07
2.0350565e-07
2.9050029e-07
4.98787e-07
9.4827757e-07
1.7667346e-06
2.9726482e-06
4.5236857e-06
6.4863455e-06
8.9601924e-06
1.1957866e-05
1.5409758e-05
1.9213942e-05
2.3260909e-05
2.7390724e-05
3.161551e-05
3.525949e-05
3.7945979e-05
4.0691299e-05
4.3629722e-05
4.6818335e-05
5.0144816e-05
1.6884959e-07
1.6864732e-07
1.6844206e-07
1.6823383e-07
1.6802263e-07
1.6780849e-07
1.675914e-07
1.673714e-07
1.6714848e-07
1.6692266e-07
1.6669398e-07
1.6646243e-07
1.6622805e-07
1.6599085e-07
1.6575086e-07
1.655081e-07
1.6526261e-07
1.6501439e-07
1.6476349e-07
1.6450994e-07
1.6425375e-07
1.6399498e-07
1.6373364e-07
1.6346977e-07
1.6320341e-07
1.6293458e-07
1.6266334e-07
1.6238971e-07
1.6211374e-07
1.6183546e-07
1.6155491e-07
1.6127213e-07
1.6098717e-07
1.6070006e-07
1.6041086e-07
1.601196e-07
1.5982632e-07
1.5953108e-07
1.5923392e-07
1.5893488e-07
1.58634e-07
1.5833134e-07
1.5802695e-07
1.5772086e-07
1.5741312e-07
1.5710378e-07
1.5679288e-07
1.5648048e-07
1.5616661e-07
1.5585132e-07
1.5553466e-07
1.5521668e-07
1.5489741e-07
1.5457691e-07
1.5425521e-07
1.5393236e-07
1.5360841e-07
1.5328339e-07
1.5295735e-07
1.5263033e-07
1.5230237e-07
1.5197351e-07
1.516438e-07
1.5131327e-07
1.5098197e-07
1.5064993e-07
1.503172e-07
1.4998382e-07
1.4964987e-07
1.4931545e-07
1.4898079e-07
1.4864636e-07
1.4831335e-07
1.4798471e-07
1.4766794e-07
1.4738234e-07
1.4717825e-07
1.4718666e-07
1.477536e-07
1.4979909e-07
1.557563e-07
1.7211639e-07
2.1588016e-07
3.292663e-07
6.0418748e-07
1.1887166e-06
2.2038466e-06
3.6343998e-06
5.4460605e-06
7.7883074e-06
1.0681381e-05
1.4125888e-05
1.8007304e-05
2.2207828e-05
2.6591909e-05
3.1049259e-05
3.5607739e-05
3.8894654e-05
4.1881835e-05
4.4484216e-05
1.6884966e-07
1.6864739e-07
1.6844214e-07
1.6823391e-07
1.6802272e-07
1.6780857e-07
1.6759149e-07
1.6737148e-07
1.6714856e-07
1.6692275e-07
1.6669406e-07
1.6646251e-07
1.6622813e-07
1.6599093e-07
1.6575093e-07
1.6550817e-07
1.6526267e-07
1.6501445e-07
1.6476355e-07
1.6450999e-07
1.642538e-07
1.6399502e-07
1.6373367e-07
1.634698e-07
1.6320343e-07
1.6293461e-07
1.6266336e-07
1.6238973e-07
1.6211375e-07
1.6183546e-07
1.6155491e-07
1.6127213e-07
1.6098716e-07
1.6070006e-07
1.6041085e-07
1.6011958e-07
1.5982631e-07
1.5953106e-07
1.592339e-07
1.5893485e-07
1.5863398e-07
1.5833132e-07
1.5802692e-07
1.5772083e-07
1.5741309e-07
1.5710374e-07
1.5679285e-07
1.5648044e-07
1.5616657e-07
1.5585129e-07
1.5553463e-07
1.5521664e-07
1.5489737e-07
1.5457687e-07
1.5425517e-07
1.5393232e-07
1.5360836e-07
1.5328334e-07
1.529573e-07
1.5263028e-07
1.5230232e-07
1.5197347e-07
1.5164375e-07
1.5131322e-07
1.5098192e-07
1.5064987e-07
1.5031712e-07
1.4998372e-07
1.4964969e-07
1.4931507e-07
1.4897992e-07
1.486443e-07
1.483083e-07
1.4797212e-07
1.4763625e-07
1.4730188e-07
1.4697213e-07
1.4665527e-07
1.4637341e-07
1.4618667e-07
1.4625779e-07
1.4703416e-07
1.4975309e-07
1.5782315e-07
1.8064113e-07
2.4345089e-07
4.092428e-07
8.0705375e-07
1.6114929e-06
2.894451e-06
4.6081594e-06
6.8177649e-06
9.6265688e-06
1.3039558e-05
1.6995994e-05
2.133723e-05
2.5961942e-05
3.0677046e-05
3.5566394e-05
3.9580055e-05
1.6884973e-07
1.6864747e-07
1.6844222e-07
1.68234e-07
1.6802281e-07
1.6780867e-07
1.6759158e-07
1.6737158e-07
1.6714866e-07
1.6692284e-07
1.6669415e-07
1.664626e-07
1.6622821e-07
1.6599101e-07
1.6575102e-07
1.6550825e-07
1.6526275e-07
1.6501452e-07
1.6476362e-07
1.6451005e-07
1.6425386e-07
1.6399507e-07
1.6373372e-07
1.6346985e-07
1.6320347e-07
1.6293464e-07
1.6266339e-07
1.6238975e-07
1.6211377e-07
1.6183548e-07
1.6155492e-07
1.6127214e-07
1.6098717e-07
1.6070006e-07
1.6041085e-07
1.6011958e-07
1.598263e-07
1.5953105e-07
1.5923389e-07
1.5893484e-07
1.5863396e-07
1.583313e-07
1.580269e-07
1.5772081e-07
1.5741306e-07
1.5710372e-07
1.5679282e-07
1.5648041e-07
1.5616654e-07
1.5585126e-07
1.555346e-07
1.5521661e-07
1.5489734e-07
1.5457683e-07
1.5425513e-07
1.5393228e-07
1.5360832e-07
1.532833e-07
1.5295726e-07
1.5263024e-07
1.5230228e-07
1.5197342e-07
1.5164371e-07
1.5131318e-07
1.5098187e-07
1.5064983e-07
1.5031708e-07
1.4998367e-07
1.4964964e-07
1.4931501e-07
1.4897984e-07
1.4864414e-07
1.4830797e-07
1.4797137e-07
1.4763439e-07
1.4729713e-07
1.4695981e-07
1.4662296e-07
1.4628794e-07
1.4595852e-07
1.4564505e-07
1.4537645e-07
1.4523448e-07
1.4544997e-07
1.4668271e-07
1.5082483e-07
1.6330136e-07
1.9948337e-07
3.0116809e-07
5.6905713e-07
1.1818789e-06
2.3040133e-06
3.932064e-06
6.0379648e-06
8.7801777e-06
1.2169028e-05
1.6194696e-05
2.0678513e-05
2.5593217e-05
3.0576374e-05
1.6884982e-07
1.6864756e-07
1.6844231e-07
1.6823409e-07
1.6802291e-07
1.6780877e-07
1.6759169e-07
1.6737168e-07
1.6714876e-07
1.6692295e-07
1.6669425e-07
1.664627e-07