/*--------------------------------*- C++ -*----------------------------------*\
  =========                 |
  \\      /  F ield         | OpenFOAM: The Open Source CFD Toolbox
   \\    /   O peration     | Website:  https://openfoam.org
    \\  /    A nd           | Version:  12
     \\/     M anipulation  |
\*---------------------------------------------------------------------------*/
FoamFile
{
    format      ascii;
    class       volScalarField;
    location    "1900";
    object      omega;
}
// * * * * * * * * * * * * * * * * * * * * * * * * * * * * * * * * * * * * * //

dimensions      [0 0 -1 0 0 0 0];

internalField   nonuniform List<scalar> 
7480
(
99.668428
99.668428
99.668428
99.668428
467.26386
658.56584
782.36895
862.95997
913.96551
944.6099
961.54857
969.16319
970.40875
967.30908
961.27769
953.3067
944.10532
934.24242
924.34943
914.4911
904.79853
895.31112
886.18246
877.55833
869.54454
862.21348
855.60288
849.71449
844.52153
839.97655
836.01744
832.57668
829.59504
827.02291
824.79862
822.84867
821.09466
819.47074
817.92879
816.43468
814.95764
813.46965
811.94895
810.37918
808.75211
807.06443
805.31276
803.48628
801.57439
799.57772
797.50563
795.36713
793.16958
790.92541
788.65394
786.37114
784.08229
781.78826
779.49368
777.2059
774.92831
772.663
770.41589
768.1931
765.99519
763.82182
761.6735
759.54722
757.43761
755.34408
753.27005
751.21527
749.17998
747.16917
745.18097
743.21006
741.25687
739.32029
737.39857
735.49541
733.61221
731.7469
729.8998
728.06845
726.25062
724.4484
722.66289
720.8942
719.14073
717.40055
715.67426
713.96137
712.26269
710.57592
708.90289
707.22475
705.60158
703.86393
702.32935
699.99468
53.580769
53.534975
53.495704
53.439927
60.46597
74.604408
96.91871
126.88588
163.04478
203.17099
244.36732
284.24197
318.84279
346.78482
369.57378
388.70573
404.51835
415.61066
423.14346
426.10699
427.70829
430.61409
434.6563
439.15902
443.5656
447.34056
450.10157
451.63114
451.83456
450.71974
448.38127
444.98842
440.77362
436.03963
430.90714
425.36521
419.35518
413.11415
406.8047
400.54393
394.43059
388.54045
382.92521
377.6027
372.57358
367.8343
363.37939
359.25048
355.43525
351.91025
348.65274
345.6383
342.83838
340.22208
337.76542
335.44602
333.23801
331.12641
329.10067
327.15597
325.29019
323.49673
321.76733
320.09612
318.47912
316.90958
315.37737
313.88017
312.41795
310.99033
309.59884
308.24532
306.92601
305.63945
304.38453
303.15544
301.94994
300.77095
299.61761
298.4889
297.3867
296.30761
295.24847
294.20994
293.19076
292.19086
291.21109
290.24989
289.30611
288.37804
287.46559
286.56935
285.68864
284.8221
283.97072
283.12563
282.30487
281.48253
280.74472
279.4345
52.974191
52.262107
51.558371
50.862913
50.289306
50.016561
50.328546
51.5311
53.894093
57.794554
63.497478
71.14669
80.69544
91.941561
104.62174
118.43963
133.06702
147.69148
160.98491
172.8757
183.71884
194.30066
205.13632
216.59753
228.96449
240.39052
249.98486
257.91219
264.26009
269.05246
272.25291
273.76772
273.51495
271.63091
268.57298
265.104
261.95744
258.9819
256.06678
253.12052
250.15445
247.20758
244.18969
240.95969
237.60786
234.20857
230.82529
227.52986
224.39034
221.41297
218.591
215.91522
213.37833
210.9771
208.70793
206.57331
204.57404
202.69299
200.91521
199.23116
197.63385
196.11409
194.66152
193.26755
191.92695
190.63406
189.38038
188.16602
186.99182
185.85696
184.76047
183.70144
182.67613
181.68213
180.71562
179.77301
178.85395
177.96049
177.09232
176.24821
175.42843
174.62942
173.84821
173.08538
172.34091
171.61477
170.90721
170.21635
169.54061
168.87906
168.23182
167.5994
166.98117
166.37571
165.78285
165.19964
164.63063
164.0743
163.56208
162.79158
52.965433
52.234356
51.502404
50.770089
50.039456
49.315231
48.606981
47.930657
47.309044
46.780291
46.392891
46.204348
46.27726
46.674814
47.459767
48.697046
50.459275
52.803901
55.76103
59.359042
63.631073
68.638791
74.466997
81.221083
89.02504
97.347856
106.06189
115.07618
124.34408
133.86327
143.66836
153.79922
162.76154
170.00311
175.63566
179.91944
183.16277
185.40791
186.67161
186.93565
186.22502
184.6966
182.81548
181.00072
179.15819
177.22583
175.21518
173.17609
171.11974
168.90224
166.59572
164.25785
161.93681
159.67801
157.49485
155.38619
153.3613
151.42687
149.58636
147.84156
146.18657
144.61057
143.10275
141.65681
140.2709
138.94378
137.68076
136.47461
135.32042
134.21423
133.15257
132.13206
131.1483
130.19841
129.27889
128.38852
127.52746
126.69616
125.89347
125.11747
124.36726
123.63882
122.92999
122.24159
121.57379
120.92619
120.29845
119.68815
119.09356
118.5143
117.95062
117.40271
116.86977
116.35003
115.84311
115.34783
114.86568
114.39748
113.96852
113.37238
52.965481
52.233989
51.501285
50.767702
50.033571
49.299277
48.565318
47.832492
47.101924
46.375365
45.655425
44.945845
44.251746
43.579735
42.938031
42.336913
41.789034
41.310093
40.917775
40.632156
40.475659
40.475174
40.664211
41.085055
41.795271
42.849415
44.310231
46.25338
48.77335
51.988933
56.04834
61.138207
67.352062
74.201396
81.597272
89.490043
97.886515
106.82494
115.66893
123.16437
129.2021
133.76082
137.05047
139.39676
140.88539
141.55876
141.47787
140.74137
139.61356
138.43042
137.12557
135.68952
134.16151
132.62053
131.00477
129.27094
127.47158
125.65889
123.88025
122.15593
120.47842
118.84425
117.25548
115.72029
114.24444
112.82592
111.46723
110.16778
108.92648
107.74034
106.60453
105.51374
104.46425
103.45365
102.48761
101.56368
100.67767
99.827144
99.00954
98.222132
97.463022
96.729359
96.020374
95.336419
94.676716
94.040066
93.42542
92.830074
92.252695
91.693277
91.151775
90.62788
90.120406
89.627397
89.148609
88.683477
88.232475
87.795652
87.396628
86.873765
52.965731
52.23427
51.501566
50.767934
50.033672
49.299096
48.564521
47.830265
47.096667
46.364086
45.632916
44.903611
44.176702
43.452827
42.732758
42.017438
41.308039
40.606021
39.913199
39.231817
38.564572
37.914727
37.286192
36.684012
36.114927
35.587613
35.113511
34.706848
34.38651
34.177963
34.115808
34.248594
34.64116
35.361985
36.500382
38.179141
40.570583
43.914276
48.501022
54.361341
61.061212
68.465032
76.45985
84.813202
92.495098
98.957962
104.10796
107.90028
110.48054
112.23459
113.24477
113.59051
113.36315
112.69777
111.874
110.94494
109.88742
108.72345
107.51735
106.26285
104.89631
103.46641
102.01495
100.57849
99.165536
97.768667
96.388149
95.039115
93.734804
92.476449
91.260826
90.085734
88.95259
87.861325
86.815496
85.814703
84.856518
83.938831
83.05857
82.212415
81.397897
80.618433
79.87274
79.157844
78.471226
77.810866
77.175005
76.561725
75.970525
75.401041
74.852376
74.323514
73.812932
73.318864
72.841307
72.379705
71.933886
71.5028
71.108814
70.616921
52.966023
52.234603
51.501911
50.768274
50.034
49.299407
48.564808
47.830508
47.096822
46.364065
45.632553
44.902601
44.17454
43.448697
42.725403
42.004991
41.28781
40.574219
39.864601
39.159368
38.458963
37.763871
37.074631
36.391857
35.71628
35.04879
34.390485
33.742743
33.107352
32.486713
31.884102
31.303905
30.752643
30.239129
29.776152
29.38248
29.085798
28.928234
28.974761
29.313089
30.047684
31.32586
33.362513
36.455469
40.952935
46.673504
53.27039
60.54296
68.153195
75.117921
80.977728
85.66597
89.162273
91.505701
93.006488
93.884242
94.221686
94.100344
93.627449
92.997103
92.267296
91.429868
90.511798
89.560057
88.543491
87.42999
86.255211
85.059184
83.8653
82.669343
81.476378
80.298642
79.148165
78.027822
76.935184
75.873672
74.848919
73.862824
72.913503
71.998941
71.118302
70.274677
69.468052
68.695936
67.955865
67.245663
66.562886
65.909348
65.284583
64.685851
64.110985
63.558328
63.026368
62.514291
62.021856
61.547942
61.091623
60.651283
60.248054
59.764397
52.966347
52.234975
51.502308
50.768684
50.034414
49.299816
48.565203
47.830886
47.097177
46.364393
45.632849
44.902862
44.174747
43.44882
42.72539
42.004766
41.287249
40.573138
39.862726
39.156306
38.454163
37.756582
37.063838
36.376208
35.693969
35.0174
34.346789
33.682435
33.024654
32.373796
31.730258
31.094515
30.467169
29.849005
29.241074
28.644863
28.062559
27.497508
26.955058
26.443234
25.974185
25.567252
25.25446
25.08744
25.149255
25.548725
26.431443
28.013901
30.613171
34.614773
39.834279
45.931687
52.672341
59.359907
65.220025
70.028164
73.772547
76.489536
78.243517
79.27969
79.833334
79.980983
79.798313
79.386457
78.873342
78.267812
77.572437
76.819922
76.029725
75.129958
74.161117
73.161358
72.150583
71.128098
70.094465
69.062052
68.044713
67.047264
66.071379
65.120679
64.199316
63.307083
62.445289
61.615798
60.818948
60.053443
59.317243
58.612112
57.938533
57.294104
56.676479
56.083808
55.51547
54.972882
54.453587
53.955473
53.476819
53.016198
52.593982
52.103214
52.966689
52.235369
51.502733
50.769125
50.034862
49.30026
48.565637
47.831306
47.097583
46.364784
45.633225
44.903223
44.175094
43.449149
42.725701
42.005054
41.287509
40.573361
39.862901
39.156412
38.454174
37.756457
37.063521
36.375621
35.693004
35.015908
34.344568
33.679209
33.020048
32.367297
31.721161
31.081843
30.449545
29.824472
29.206839
28.596876
27.994848
27.401078
26.815998
26.240222
25.674648
25.120652
24.580478
24.05792
23.559639
23.096157
22.684506
22.354828
22.159573
22.187036
22.556102
23.432638
25.071889
27.842595
32.024399
37.172264
43.064495
49.14042
54.6841
59.248764
62.816513
65.450446
67.235435
68.290307
68.855407
69.085669
69.037318
68.767852
68.383779
67.915933
67.36175
66.747643
66.090907
65.349943
64.53893
63.689663
62.818276
61.924359
61.016783
60.109345
59.212182
58.325196
57.451939
56.599565
55.772076
54.970251
54.194865
53.446573
52.726572
52.03506
51.371509
50.73477
50.12411
49.54092
48.983653
48.450169
47.93812
47.447475
46.998748
46.487235
52.967046
52.235778
51.503176
50.769587
50.035331
49.300728
48.566099
47.831758
47.098023
46.36521
45.633637
44.90362
44.175474
43.449513
42.726047
42.005382
41.287819
40.573654
39.863175
39.156667
38.454409
37.756669
37.063709
36.375781
35.693131
35.015995
34.344604
33.679178
33.019928
32.367059
31.720763
31.081224
30.448621
29.823122
29.204888
28.594071
27.990815
27.395259
26.807537
26.227787
25.656158
25.092814
24.537961
23.991883
23.455025
22.928094
22.412256
21.909542
21.42364
20.961456
20.534715
20.162923
19.882865
19.761458
19.907921
20.465921
21.659449
23.829038
27.38297
31.926107
37.23417
42.704131
47.69594
51.830649
55.005628
57.322683
58.893157
59.826376
60.298095
60.501898
60.479638
60.271625
59.96192
59.575869
59.114517
58.595461
58.031506
57.383534
56.676424
55.934592
55.169696
54.380109
53.576611
52.771188
51.969707
51.176517
50.39788
49.636695
48.894442
48.174033
47.478103
46.807114
46.160484
45.538607
44.942416
44.371151
43.822921
43.297011
42.815753
42.266745
52.967415
52.236199
51.503632
50.770063
50.035817
49.301216
48.566582
47.832232
47.098486
46.36566
45.634072
44.90404
44.175879
43.449903
42.726421
42.00574
41.288161
40.573979
39.863484
39.15696
38.454684
37.756928
37.063951
36.376006
35.693339
35.016187
34.34478
33.679337
33.020071
32.367184
31.720868
31.081308
30.448679
29.823148
29.204871
28.593997
27.990663
27.394995
26.807112
26.227123
25.655132
25.09123
24.535503
23.988033
23.448898
22.918189
22.396015
21.882522
21.37795
20.882712
20.397551
19.923781
19.463874
19.022666
18.609555
18.240313
17.944419
17.779784
17.850748
18.297729
19.343589
21.334021
24.626875
28.890707
33.869592
38.788152
43.138959
46.681437
49.319395
51.186419
52.416558
53.12502
53.467439
53.588076
53.536228
53.343693
53.06999
52.726466
52.317599
51.85502
51.345135
50.759687
50.12896
49.466906
48.776565
48.066568
47.348643
46.628551
45.909432
45.197868
44.499748
43.817668
43.153541
42.508854
41.885563
41.284905
40.706878
40.149072
39.636473
39.045598
52.967793
52.236628
51.504097
50.77055
50.036315
49.301718
48.56708
47.832723
47.098966
46.366128
45.634527
44.904481
44.176305
43.450313
42.726815
42.006118
41.288522
40.574323
39.863811
39.15727
38.454977
37.757203
37.064209
36.376248
35.693566
35.016398
34.344976
33.67952
33.020241
32.367341
31.721014
31.081443
30.448803
29.823262
29.204975
28.594091
27.990746
27.395065
26.807168
26.22716
25.655143
25.091204
24.535423
23.987869
23.448602
22.917676
22.395137
21.881024
21.375373
20.878222
20.389622
19.909651
19.438447
18.976279
18.523689
18.081704
17.652314
17.2396
16.852021
16.504778
16.226488
16.076265
16.161443
16.636336
17.753681
19.905165
23.240643
27.471409
32.096384
36.42892
40.080319
42.930442
44.964154
46.334727
47.192325
47.655731
47.847894
47.88063
47.779374
47.583009
47.320583
46.996266
46.616723
46.191372
45.702777
45.161636
44.584572
43.978616
43.348562
42.704513
42.054158
41.402247
40.754922
40.116329
39.489357
38.87767
38.283972
37.705934
37.171459
36.549801
52.96818
52.237064
51.50457
50.771045
50.036823
49.30223
48.567591
47.833228
47.099461
46.366611
45.634997
44.904937
44.176746
43.450739
42.727225
42.006511
41.288898
40.574682
39.864153
39.157595
38.455286
37.757495
37.064484
36.376506
35.693808
35.016625
34.345188
33.679718
33.020426
32.367514
31.721175
31.081593
30.448944
29.823393
29.205098
28.594206
27.990853
27.395165
26.807261
26.227247
25.655223
25.091277
24.535489
23.987926
23.448647
22.917705
22.395142
21.880991
21.375278
20.878018
20.389224
19.9089
19.437048
18.973667
18.518768
18.072387
17.634609
17.205639
16.785941
16.376474
15.979184
15.598264
15.242713
14.929371
14.692185
14.603335
14.785076
15.429716
16.853766
19.471069
23.044312
27.305962
31.461271
35.043647
37.889982
39.983421
41.389689
42.285198
42.800044
43.048357
43.110052
43.060935
42.915449
42.70675
42.441555
42.123458
41.757207
41.341797
40.870778
40.360757
39.821026
39.256296
38.676245
38.087505
37.494325
36.903127
36.3193
35.742044
35.202743
34.568208
52.968574
52.237507
51.505048
50.771547
50.037339
49.302752
48.568112
47.833743
47.099968
46.367107
45.635481
44.905406
44.177201
43.451178
42.727648
42.006918
41.289288
40.575055
39.864509
39.157934
38.455607
37.757798
37.06477
36.376776
35.694061
35.016863
34.345411
33.679927
33.020621
32.367696
31.721345
31.081753
30.449093
29.823533
29.20523
28.59433
27.990969
27.395275
26.807364
26.227344
25.655314
25.091363
24.535569
23.988001
23.448718
22.917771
22.395202
21.881046
21.375325
20.878057
20.389248
19.908903
19.437012
18.973562
18.518533
18.071901
17.633639
17.203719
16.782124
16.368862
15.963999
15.567729
15.180542
14.803511
14.43896
14.092195
13.774695
13.508257
13.342482
13.378326
13.771762
14.796134
16.895384
20.00342
23.890788
27.800094
31.231872
33.966825
35.987333
37.357188
38.218615
38.725287
38.978248
39.057136
39.025623
38.908155
38.734403
38.509395
38.235427
37.913895
37.549489
37.130192
36.672664
36.186584
35.675646
35.148414
34.612301
34.068352
33.551085
32.929543
52.968976
52.237954
51.505531
50.772055
50.037862
49.303282
48.568642
47.834269
47.100486
46.367615
45.635976
44.905888
44.177668
43.45163
42.728084
42.007337
41.28969
40.57544
39.864876
39.158283
38.455939
37.758113
37.065067
36.377056
35.694324
35.01711
34.345643
33.680145
33.020825
32.367887
31.721524
31.081921
30.449251
29.823682
29.205369
28.594461
27.991092
27.395391
26.807473
26.227447
25.655412
25.091456
24.535657
23.988083
23.448795
22.917844
22.395271
21.881111
21.375386
20.878113
20.389301
19.908951
19.437055
18.973598
18.518559
18.071911
17.63362
17.203645
16.781941
16.368462
15.963155
15.565975
15.176886
14.795887
14.42305
14.058626
13.703268
13.358441
13.027608
12.718966
12.449402
12.2558
12.22336
12.492158
13.309753
15.097525
17.916917
21.522767
25.173773
28.387622
30.928245
32.785864
34.041465
34.820625
35.274644
35.499232
35.574704
35.543298
35.440304
35.288219
35.089679
34.844974
34.555591
34.226753
33.84615
33.429196
32.98584
32.51635
32.056567
31.484337
52.969384
52.238406
51.506019
50.772567
50.038389
49.303817
48.569179
47.834803
47.101013
46.368132
45.636481
44.90638
44.178146
43.452092
42.728531
42.007767
41.290103
40.575835
39.865254
39.158643
38.456281
37.758437
37.065374
36.377345
35.694596
35.017366
34.345884
33.68037
33.021037
32.368086
31.72171
31.082095
30.449415
29.823836
29.205515
28.594597
27.991221
27.395513
26.807588
26.227556
25.655515
25.091553
24.535748
23.98817
23.448877
22.917921
22.395344
21.881179
21.375451
20.878174
20.389358
19.909004
19.437105
18.973645
18.518603
18.071951
17.633655
17.203675
16.781963
16.368469
15.963137
15.565903
15.176704
14.795473
14.422143
14.056654
13.698967
13.349094
13.007164
12.673603
12.34948
12.037357
11.743706
11.482912
11.2862
11.230085
11.450577
12.190579
13.875512
16.554561
19.95274
23.349281
26.286262
28.565431
30.196718
31.281758
31.942687
32.318146
32.497987
32.553516
32.513949
32.416696
32.275961
32.09367
31.867624
31.601137
31.296604
30.942131
30.577655
30.099615
52.969799
52.238863
51.50651
50.773083
50.038921
49.304358
48.569723
47.835345
47.101549
46.368659
45.636997
44.906882
44.178634
43.452565
42.728987
42.008207
41.290526
40.57624
39.865641
39.159012
38.456632
37.75877
37.065689
36.377642
35.694877
35.01763
34.346132
33.680603
33.021255
32.368291
31.721903
31.082276
30.449585
29.823996
29.205665
28.594739
27.991355
27.395639
26.807708
26.227669
25.655621
25.091654
24.535844
23.98826
23.448963
22.918002
22.395421
21.881251
21.375519
20.878238
20.389419
19.909061
19.437158
18.973695
18.51865
18.071995
17.633696
17.203713
16.781998
16.368501
15.963165
15.565927
15.17672
14.795474
14.422114
14.056563
13.698739
13.348564
13.005961
12.670867
12.343262
12.023216
11.711039
11.407605
11.115081
10.839189
10.59345
10.408022
10.359908
10.589295
11.353707
13.104906
15.765745
18.985054
22.102328
24.71732
26.685319
28.051029
28.936424
29.462924
29.750983
29.88128
29.909038
29.856529
29.759574
29.623631
29.450891
29.234375
29.001064
28.664557
52.97022
52.239325
51.507004
50.773602
50.039458
49.304904
48.570273
47.835893
47.102091
46.369193
45.63752
44.907393
44.179131
43.453047
42.729453
42.008656
41.290958
40.576654
39.866037
39.15939
38.456992
37.759111
37.066012
36.377948
35.695165
35.017902
34.346387
33.680843
33.02148
32.368502
31.722101
31.082463
30.44976
29.824161
29.205821
28.594886
27.991493
27.395769
26.807831
26.227786
25.655732
25.091758
24.535942
23.988354
23.449051
22.918086
22.3955
21.881326
21.375589
20.878305
20.389482
19.90912
19.437214
18.973747
18.518699
18.072041
17.633739
17.203753
16.782036
16.368536
15.963197
15.565956
15.176747
14.795498
14.422136
14.056579
13.698746
13.348552
13.005909
12.670725
12.342911
12.022381
11.709059
11.402904
11.10396
10.812487
10.529296
10.256486
9.9998496
9.7734942
9.6105259
9.5976765
9.8899794
10.782467
12.671365
15.417455
18.464963
21.26147
23.505353
25.128272
26.213785
26.895943
27.289661
27.492448
27.574682
27.572356
27.50579
27.405255
27.282341
27.096327
52.970648
52.23979
51.507502
50.774125
50.039997
49.305454
48.570827
47.836447
47.102641
46.369734
45.638051
44.907913
44.179636
43.453538
42.729928
42.009114
41.291398
40.577077
39.866442
39.159777
38.457359
37.759461
37.066343
36.378261
35.69546
35.01818
34.346649
33.681089
33.021712
32.368719
31.722305
31.082654
30.449941
29.824331
29.205981
28.595037
27.991635
27.395903
26.807958
26.227906
25.655845
25.091866
24.536044
23.98845
23.449142
22.918172
22.395581
21.881403
21.375662
20.878374
20.389546
19.909181
19.437271
18.973801
18.518749
18.072088
17.633784
17.203795
16.782075
16.368572
15.963231
15.565988
15.176776
14.795525
14.422161
14.056602
13.698767
13.34857
13.005923
12.670733
12.342906
12.022346
11.708956
11.402638
11.103298
10.810854
10.525257
10.246544
9.9749798
9.7114241
9.4582097
9.222056
9.0193483
8.8916353
8.9414564
9.360494
10.516411
12.631866
15.442038
18.266159
20.673072
22.504674
23.770531
24.58644
25.080913
25.354126
25.480233
25.518099
25.495783
25.425408
52.971081
52.24026
51.508003
50.77465
50.04054
49.306007
48.571386
47.837006
47.103196
46.370283
45.63859
44.908439
44.18015
43.454036
42.730411
42.00958
41.291847
40.577508
39.866855
39.160171
38.457735
37.759817
37.066681
36.378581
35.695762
35.018465
34.346917
33.681342
33.021949
32.368942
31.722515
31.082851
30.450126
29.824505
29.206145
28.595191
27.991781
27.396041
26.808088
26.228029
25.655962
25.091976
24.536148
23.988548
23.449235
22.91826
22.395665
21.881482
21.375736
20.878444
20.389613
19.909244
19.43733
18.973856
18.518801
18.072137
17.633829
17.203837
16.782114
16.36861
15.963266
15.56602
15.176806
14.795553
14.422186
14.056626
13.698789
13.348591
13.005942
12.67075
12.342921
12.022358
11.708963
11.402634
11.10327
10.810768
10.525025
10.245944
9.9734408
9.7074664
9.4480709
9.1955824
8.9510457
8.717453
8.5034446
8.3303305
8.2579924
8.4162067
9.0604719
10.609464
12.992096
15.700118
18.190136
20.167611
21.58484
22.518083
23.098163
23.431985
23.611912
23.690658
52.97152
52.240734
51.508507
50.775178
50.041085
49.306564
48.571948
47.837569
47.103756
46.370837
45.639135
44.908973
44.18067
43.454542
42.730901
42.010054
41.292304
40.577947
39.867275
39.160573
38.458118
37.760182
37.067026
36.378907
35.696071
35.018756
34.347192
33.6816
33.022192
32.36917
31.722729
31.083053
30.450315
29.824684
29.206313
28.59535
27.991931
27.396182
26.808221
26.228155
25.656081
25.092088
24.536255
23.988649
23.449331
22.91835
22.39575
21.881562
21.375812
20.878516
20.38968
19.909307
19.43739
18.973912
18.518854
18.072186
17.633875
17.203881
16.782155
16.368647
15.963301
15.566053
15.176837
14.795582
14.422213
14.05665
13.698812
13.348611
13.005961
12.670767
12.342937
12.022373
11.708976
11.402645
11.103279
10.810773
10.52502
10.245917
9.9733567
9.7072338
9.4474499
9.1939221
8.9466143
8.7056193
8.4714025
8.2454042
8.0320704
7.8438797
7.7133582
7.7312854
8.0772625
9.1153137
11.04957
13.570678
16.057392
18.119831
19.646763
20.673741
21.330358
21.731066
52.971965
52.241212
51.509013
50.775708
50.041633
49.307123
48.572514
47.838137
47.104321
46.371396
45.639686
44.909513
44.181198
43.455056
42.731399
42.010535
41.292768
40.578393
39.867703
39.160982
38.458508
37.760553
37.067379
36.379241
35.696386
35.019053
34.347472
33.681864
33.02244
32.369403
31.722948
31.083259
30.450509
29.824866
29.206485
28.595512
27.992083
27.396326
26.808357
26.228283
25.656203
25.092203
24.536364
23.988752
23.449428
22.918442
22.395837
21.881644
21.37589
20.878589
20.389749
19.909372
19.437451
18.97397
18.518907
18.072237
17.633923
17.203925
16.782196
16.368686
15.963336
15.566086
15.176868
14.79561
14.422239
14.056675
13.698834
13.348632
13.00598
12.670785
12.342953
12.022388
11.70899
11.402658
11.10329
10.810782
10.525029
10.245924
9.973359
9.7072266
9.4474189
9.1938275
8.9463473
8.7048815
8.4693558
8.2397614
8.0162854
7.7996795
7.5922694
7.4014403
7.2468065
7.1870883
7.3555045
8.0269011
9.5731815
11.862787
14.268931
16.357851
17.956989
19.080528
52.972415
52.241694
51.509523
50.77624
50.042182
49.307685
48.573083
47.838708
47.104891
46.37196
45.640242
44.910059
44.181731
43.455575
42.731903
42.011024
41.293239
40.578846
39.868137
39.161397
38.458905
37.76093
37.067737
36.379581
35.696708
35.019357
34.347758
33.682133
33.022693
32.369642
31.723172
31.083469
30.450707
29.825052
29.20666
28.595677
27.992239
27.396473
26.808496
26.228415
25.656327
25.09232
24.536474
23.988856
23.449527
22.918535
22.395925
21.881728
21.375968
20.878663
20.389819
19.909438
19.437512
18.974028
18.518962
18.072287
17.63397
17.203969
16.782238
16.368724
15.963372
15.56612
15.176899
14.795639
14.422266
14.056699
13.698857
13.348653
13.005999
12.670803
12.342969
12.022403
11.709003
11.40267
11.103301
10.810793
10.525038
10.245932
9.973366
9.7072324
9.4474225
9.1938268
8.9463358
8.704841
8.4692343
8.2394123
8.0152842
7.7967953
7.5839979
7.3772795
7.1779652
6.9904683
6.8278403
6.7272267
6.7916375
7.2364022
8.4691028
10.473199
12.785054
14.909288
52.97287
52.242179
51.510036
50.776775
50.042734
49.308249
48.573654
47.839282
47.105464
46.372529
45.640803
44.91061
44.182271
43.456101
42.732414
42.011518
41.293716
40.579306
39.868578
39.16182
38.459308
37.761314
37.068102
36.379926
35.697035
35.019666
34.348049
33.682407
33.022951
32.369885
31.723401
31.083684
30.450909
29.825243
29.206839
28.595846
27.992398
27.396623
26.808637
26.228548
25.656453
25.09244
24.536587
23.988963
23.449627
22.91863
22.396014
21.881812
21.376048
20.878738
20.38989
19.909504
19.437575
18.974086
18.519017
18.072339
17.634018
17.204014
16.782279
16.368763
15.963409
15.566153
15.17693
14.795668
14.422292
14.056724
13.69888
13.348674
13.006019
12.67082
12.342985
12.022417
11.709017
11.402682
11.103312
10.810802
10.525047
10.24594
9.973373
9.7072385
9.4474278
9.1938312
8.946339
8.7048419
8.4692299
8.2393938
8.0152252
7.7966182
7.5834744
7.3757167
7.1733317
6.9765109
6.7860679
6.6047235
6.4415158
6.321993
6.3275587
6.6255295
7.6796365
9.4413852
52.973331
52.242669
51.510551
50.777312
50.043288
49.308815
48.574228
47.839859
47.10604
46.373101
45.641369
44.911166
44.182815
43.456632
42.732931
42.012019
41.2942
40.579771
39.869026
39.162248
38.459717
37.761704
37.068473
36.380278
35.697368
35.01998
34.348346
33.682687
33.023214
32.370132
31.723633
31.083903
30.451115
29.825436
29.207022
28.596017
27.99256
27.396776
26.808781
26.228684
25.656581
25.092561
24.536701
23.989071
23.449729
22.918727
22.396105
21.881898
21.376129
20.878814
20.389961
19.909571
19.437638
18.974145
18.519072
18.07239
17.634066
17.204059
16.782321
16.368802
15.963445
15.566187
15.176961
14.795697
14.422319
14.056748
13.698902
13.348695
13.006037
12.670838
12.343001
12.022432
11.70903
11.402694
11.103323
10.810812
10.525055
10.245947
9.9733796
9.7072443
9.4474329
9.1938355
8.9463426
8.7048448
8.469232
8.2393945
8.0152232
7.7966087
7.5834434
7.3756206
7.1730388
6.9756103
6.7832883
6.5961567
6.4147344
6.2408345
6.0811275
5.9537209
5.9470296
6.1469692
52.973797
52.243163
51.511069
50.777851
50.043844
49.309383
48.574803
47.840438
47.10662
46.373677
45.641938
44.911727
44.183365
43.457169
42.733453
42.012525
41.294689
40.580243
39.869479
39.162683
38.460133
37.7621
37.068849
36.380635
35.697706
35.0203
34.348648
33.682971
33.023482
32.370384
31.72387
31.084126
30.451325
29.825634
29.207207
28.596192
27.992725
27.396931
26.808928
26.228822
25.656711
25.092684
24.536817
23.98918
23.449832
22.918824
22.396197
21.881984
21.37621
20.87889
20.390033
19.909639
19.437701
18.974204
18.519127
18.072442
17.634115
17.204104
16.782363
16.368841
15.963481
15.56622
15.176992
14.795725
14.422345
14.056772
13.698924
13.348715
13.006056
12.670855
12.343017
12.022445
11.709042
11.402705
11.103333
10.810821
10.525063
10.245954
9.9733857
9.7072496
9.4474374
9.1938393
8.9463458
8.7048474
8.469234
8.2393959
8.015224
7.7966087
7.5834417
7.3756147
7.1730206
6.975554
6.7831122
6.5956023
6.41296
6.2352109
6.0627118
5.8967013
5.7452553
5.6149657
52.974268
52.24366
51.51159
50.778392
50.044401
49.309952
48.57538
47.841019
47.107201
46.374256
45.642511
44.912291
44.183918
43.45771
42.733979
42.013036
41.295183
40.58072
39.869938
39.163123
38.460553
37.762502
37.069231
36.380998
35.698049
35.020625
34.348955
33.68326
33.023755
32.37064
31.724111
31.084352
30.451538
29.825834
29.207396
28.59637
27.992892
27.397088
26.809076
26.228962
25.656843
25.092808
24.536934
23.989291
23.449936
22.918922
22.39629
21.882071
21.376292
20.878967
20.390105
19.909707
19.437765
18.974264
18.519183
18.072494
17.634163
17.204149
16.782405
16.36888
15.963517
15.566253
15.177022
14.795753
14.422371
14.056796
13.698946
13.348735
13.006074
12.670871
12.343031
12.022459
11.709054
11.402716
11.103342
10.810829
10.525071
10.245961
9.9733912
9.7072543
9.4474413
9.1938425
8.9463483
8.7048493
8.4692353
8.2393968
8.0152243
7.7966086
7.5834411
7.3756136
7.1730185
6.9755493
6.7831
6.5955663
6.4128463
6.2348451
6.0614896
5.8927716
5.7291904
5.5710742
52.974744
52.24416
51.512113
50.778934
50.044959
49.310522
48.575959
47.841602
47.107785
46.374837
45.643086
44.912859
44.184476
43.458255
42.734511
42.013552
41.295683
40.581202
39.870402
39.163568
38.460979
37.762908
37.069618
36.381365
35.698398
35.020954
34.349266
33.683554
33.024031
32.370901
31.724356
31.084583
30.451755
29.826038
29.207587
28.59655
27.993061
27.397248
26.809226
26.229104
25.656977
25.092934
24.537053
23.989402
23.450042
22.919021
22.396383
21.882159
21.376374
20.879045
20.390178
19.909775
19.437828
18.974323
18.519238
18.072546
17.634211
17.204193
16.782446
16.368918
15.963552
15.566286
15.177052
14.795781
14.422396
14.056819
13.698967
13.348754
13.006091
12.670886
12.343045
12.022471
11.709065
11.402726
11.103351
10.810837
10.525077
10.245966
9.973396
9.7072583
9.4474445
9.193845
8.9463501
8.7048505
8.469236
8.239397
8.015224
7.7966079
7.58344
7.3756121
7.1730167
6.9755471
6.7830971
6.5955618
6.4128369
6.2348199
6.0614088
5.8925122
5.7280527
5.5680224
52.975224
52.244665
51.512638
50.779478
50.045519
49.311094
48.576538
47.842186
47.10837
46.37542
45.643664
44.913429
44.185036
43.458804
42.735046
42.014072
41.296187
40.581689
39.87087
39.164018
38.46141
37.763319
37.07001
36.381738
35.698751
35.021289
34.349582
33.683852
33.024312
32.371165
31.724605
31.084816
30.451975
29.826244
29.207782
28.596733
27.993233
27.39741
26.809379
26.229247
25.657112
25.093061
24.537173
23.989515
23.450148
22.919121
22.396477
21.882248
21.376457
20.879123
20.390251
19.909843
19.437892
18.974383
18.519294
18.072597
17.634259
17.204238
16.782487
16.368956
15.963587
15.566318
15.177082
14.795808
14.422421
14.056842
13.698987
13.348773
13.006108
12.670901
12.343059
12.022483
11.709076
11.402735
11.103359
10.810844
10.525083
10.245971
9.9733999
9.7072614
9.4474468
9.1938466
8.9463512
8.704851
8.4692359
8.2393964
8.015223
7.7966064
7.5834382
7.3756099
7.1730142
6.9755443
6.783094
6.5955585
6.4128331
6.2348148
6.0614012
5.8924939
5.7279756
5.5678153
52.975709
52.245172
51.513166
50.780024
50.046079
49.311666
48.577118
47.842771
47.108956
46.376004
45.644244
44.914002
44.185599
43.459355
42.735584
42.014596
41.296695
40.58218
39.871343
39.164472
38.461845
37.763735
37.070406
36.382115
35.699108
35.021627
34.349902
33.684154
33.024596
32.371433
31.724857
31.085054
30.452197
29.826454
29.207979
28.596918
27.993407
27.397574
26.809533
26.229392
25.657249
25.09319
24.537294
23.989629
23.450255
22.919222
22.396571
21.882336
21.376541
20.8792
20.390324
19.909911
19.437956
18.974442
18.519349
18.072648
17.634306
17.204281
16.782528
16.368993
15.963621
15.566349
15.177111