/*--------------------------------*- C++ -*----------------------------------*\
  =========                 |
  \\      /  F ield         | OpenFOAM: The Open Source CFD Toolbox
   \\    /   O peration     | Website:  https://openfoam.org
    \\  /    A nd           | Version:  12
     \\/     M anipulation  |
\*---------------------------------------------------------------------------*/
FoamFile
{
    format      ascii;
    class       volScalarField;
    location    "1900";
    object      p;
}
// * * * * * * * * * * * * * * * * * * * * * * * * * * * * * * * * * * * * * //

dimensions      [0 2 -2 0 0 0 0];

internalField   nonuniform List<scalar> 
7480
(
0.0087583252
0.0077110773
0.0065857643
0.0060620846
0.005724902
0.0054652416
0.0052566228
0.0050670682
0.004904605
0.0047700699
0.004653988
0.0045359143
0.0044123821
0.0042871379
0.0041624123
0.004039323
0.0039199659
0.0038123102
0.0037127347
0.0036078854
0.003501141
0.0034032064
0.003316871
0.003241485
0.0031791998
0.0031252748
0.0030719534
0.0030237857
0.0029842196
0.0029515651
0.0029242843
0.0029032745
0.0028872074
0.0028682528
0.0028453764
0.0028230547
0.0028023801
0.002783474
0.0027679149
0.0027481424
0.002719386
0.0026884324
0.0026595805
0.0026327223
0.0026062293
0.0025749754
0.0025383237
0.002501247
0.0024661663
0.0024324627
0.0023943312
0.0023508459
0.002307724
0.0022693026
0.0022321708
0.0021907213
0.0021471485
0.0021059009
0.0020671946
0.0020263055
0.0019821
0.0019398343
0.0018998359
0.001858197
0.0018144403
0.0017731207
0.0017324758
0.0016886073
0.0016445363
0.0016022084
0.0015586028
0.0015125116
0.0014688531
0.0014252048
0.0013778326
0.0013322027
0.0012872621
0.0012385768
0.0011909378
0.0011441494
0.0010941703
0.0010453064
0.00099674562
0.00094486274
0.00089393736
0.00084295143
0.00079012249
0.00073770133
0.00068400669
0.00063048662
0.00057651246
0.00052113386
0.00046708913
0.00041230376
0.00036028772
0.00030586837
0.00027339717
0.00016247773
0.00035993321
-0.00031316919
0.0082446562
0.0073183755
0.0064355072
0.0060175318
0.0057980244
0.0055970428
0.005397125
0.0052017576
0.0050281208
0.0048726843
0.0047319392
0.0045960862
0.0044606177
0.0043274588
0.0041976129
0.0040720527
0.0039532694
0.0038435819
0.0037413176
0.0036365703
0.0035297692
0.0034315738
0.0033448608
0.0032689695
0.0032062817
0.0031517419
0.0030974354
0.0030481597
0.003007296
0.0029732192
0.0029444818
0.0029220729
0.0029046897
0.0028845024
0.0028605287
0.0028370647
0.0028151975
0.0027952336
0.0027788256
0.0027581841
0.0027285789
0.0026969195
0.0026674534
0.002640069
0.0026131145
0.0025813977
0.0025443347
0.0025069734
0.0024716877
0.0024377751
0.0023993991
0.0023556806
0.0023123684
0.0022737849
0.0022364841
0.0021948642
0.0021511426
0.0021097564
0.0020709085
0.0020298635
0.0019855046
0.0019431024
0.0019029658
0.0018611818
0.0018172861
0.0017758431
0.0017350744
0.0016910833
0.0016469039
0.0016044733
0.0015607631
0.0015145725
0.001470824
0.0014270823
0.0013796202
0.0013339123
0.0012888942
0.0012401334
0.0011924275
0.0011455717
0.0010955262
0.0010466025
0.00099798271
0.00094604356
0.00089506754
0.00084403143
0.00079115404
0.00073868724
0.00068494881
0.00063138805
0.00057737459
0.00052195852
0.00046787869
0.00041305873
0.00036101378
0.00030655919
0.00027402158
0.0001637586
0.00036296047
-0.00031064301
0.0079392016
0.0072816167
0.0065521695
0.0061137636
0.0058635459
0.0056198498
0.0053850084
0.0051716572
0.0049893067
0.0048319599
0.0046918058
0.0045615005
0.0044334129
0.004307764
0.0041847417
0.0040654974
0.0039528611
0.0038462476
0.0037451008
0.0036435347
0.0035406507
0.003445692
0.0033617343
0.0032879708
0.003226815
0.0031725407
0.0031178256
0.0030681494
0.0030267705
0.0029920957
0.0029627768
0.0029399911
0.0029215624
0.0028996911
0.0028745745
0.0028501983
0.0028273911
0.0028066297
0.0027897719
0.0027686087
0.0027383497
0.0027061367
0.002676109
0.0026482488
0.0026208991
0.0025887237
0.0025509585
0.0025129004
0.0024772507
0.0024431158
0.0024044908
0.0023605416
0.0023170674
0.0022783718
0.0022409353
0.002199143
0.0021552756
0.0021137671
0.0020747951
0.0020336002
0.0019890914
0.0019465702
0.0019063121
0.0018643913
0.0018203627
0.0017788132
0.0017379306
0.0016938152
0.0016495291
0.0016069997
0.0015631835
0.0015168899
0.001473055
0.0014292189
0.0013816611
0.0013358754
0.0012907769
0.0012419339
0.0011941594
0.0011472332
0.0010971147
0.001048128
0.00099944467
0.0009474426
0.00089641237
0.00084532134
0.00079239005
0.00073987299
0.00068608503
0.00063247897
0.00057842125
0.00052296247
0.00046884307
0.00041398298
0.00036190486
0.00030740895
0.00027480392
0.00016592287
0.00036837074
-0.00030652122
0.0077200349
0.0072004872
0.0065276511
0.0060739827
0.0058147824
0.0055830461
0.0053602727
0.0051634174
0.0049936134
0.0048454656
0.0047080919
0.0045788171
0.0044506223
0.0043235394
0.0041994245
0.0040791473
0.0039643977
0.0038551529
0.0037518033
0.0036499105
0.0035477502
0.0034529779
0.0033690089
0.0032950944
0.0032324762
0.0031761169
0.0031210302
0.0030718786
0.0030311386
0.002997451
0.0029694097
0.002948173
0.0029304682
0.0029085222
0.0028836776
0.0028597284
0.0028372213
0.0028159227
0.0027982645
0.0027765452
0.0027457157
0.0027131984
0.0026828928
0.0026548507
0.0026274382
0.0025950199
0.0025566503
0.0025180052
0.0024821355
0.0024479557
0.002409193
0.0023650611
0.002321463
0.0022827109
0.0022451216
0.0022029995
0.0021588808
0.0021172766
0.0020782442
0.0020369498
0.0019923292
0.0019497378
0.0019094063
0.0018673849
0.0018232497
0.0017816165
0.0017406324
0.0016964029
0.0016520232
0.001609411
0.0015654997
0.0015191107
0.0014752038
0.001431285
0.0013836376
0.0013377839
0.0012926114
0.001243688
0.001195851
0.0011488594
0.0010986701
0.001049626
0.0010008827
0.00094881882
0.00089773765
0.00084659405
0.00079361044
0.00074104519
0.00068720866
0.00063355905
0.0005794583
0.00052395747
0.00046979946
0.00041489957
0.00036278757
0.00030825482
0.00027558541
0.00016869063
0.00037533796
-0.00030163158
0.0075136661
0.0070821625
0.0064883427
0.0060643761
0.0058137023
0.0055970988
0.0053786714
0.0051822368
0.0050096654
0.0048565278
0.0047141248
0.0045806734
0.0044503221
0.0043221432
0.0041987288
0.00407991
0.003966003
0.0038575614
0.0037549922
0.0036547114
0.0035546385
0.0034609494
0.0033773064
0.0033032831
0.0032393698
0.0031819163
0.0031271882
0.0030782631
0.0030370759
0.0030027847
0.0029740797
0.0029516144
0.0029319478
0.0029091165
0.002884407
0.0028610454
0.0028394305
0.002818771
0.0028017833
0.002780984
0.0027507186
0.0027188628
0.0026886493
0.0026600441
0.0026322923
0.0025996227
0.0025609711
0.002522279
0.0024865075
0.002452461
0.0024136561
0.0023693133
0.0023255492
0.0022867621
0.002249075
0.0022066526
0.0021623011
0.0021206175
0.0020815508
0.0020401815
0.0019954686
0.0019528453
0.001912481
0.0018703822
0.00182614
0.0017843674
0.001743234
0.0016989058
0.0016544604
0.0016117941
0.0015678091
0.0015213412
0.001477384
0.0014333923
0.001385652
0.0013397357
0.0012944936
0.0012454896
0.0011975937
0.0011505392
0.0011002795
0.0010511816
0.0010023796
0.00095025154
0.00089911908
0.00084792191
0.00079488475
0.00074227109
0.00068838461
0.0006346905
0.0005805452
0.00052500042
0.00047080232
0.00041586091
0.00036371208
0.00030914573
0.00027639609
0.00017186217
0.00038316675
-0.00029624687
0.0073226652
0.0069637822
0.0064520974
0.006058176
0.0058062442
0.0055905512
0.0053732275
0.0051765111
0.0050043765
0.0048515771
0.0047108053
0.0045788889
0.0044506026
0.0043248144
0.0042034075
0.0040860863
0.0039731446
0.0038653677
0.0037629527
0.0036630406
0.0035639026
0.0034706303
0.0033869305
0.003312663
0.0032479955
0.003189994
0.0031353412
0.0030861875
0.0030443016
0.0030091494
0.0029795313
0.0029557165
0.0029344684
0.0029112261
0.0028865141
0.0028629284
0.0028409066
0.0028198905
0.0028018656
0.0027804134
0.0027504143
0.0027191681
0.0026894507
0.0026613082
0.0026344406
0.0026026508
0.0025645823
0.0025264581
0.0024905173
0.0024559764
0.0024169919
0.0023725148
0.0023287719
0.0022901675
0.0022525886
0.002210123
0.0021656719
0.0021238871
0.002084784
0.0020433717
0.0019985734
0.0019559086
0.0019154922
0.0018733004
0.0018289496
0.0017870517
0.0017457954
0.0017013834
0.0016568856
0.0016141853
0.0015701495
0.0015236226
0.0014796378
0.001435548
0.0013876686
0.001341693
0.0012963995
0.0012473275
0.0011993876
0.0011522831
0.0011019569
0.0010528056
0.001003946
0.00095175336
0.00090057133
0.00084932127
0.00079623113
0.00074357028
0.00068963297
0.00063589326
0.00058170168
0.00052611099
0.00047187166
0.00041688727
0.00036469842
0.00031010133
0.00027724662
0.00017532651
0.00039133971
-0.00029034928
0.0071480338
0.0068475633
0.0064073788
0.0060418854
0.0057907171
0.005578871
0.005369318
0.0051769969
0.0050078579
0.0048562394
0.0047163209
0.0045840628
0.0044560234
0.0043306698
0.0042093517
0.0040920564
0.0039792511
0.0038715667
0.0037690015
0.0036693554
0.0035712492
0.0034787336
0.0033953096
0.00332107
0.003255918
0.0031974398
0.0031427129
0.0030932666
0.0030508349
0.0030150864
0.0029848637
0.0029601098
0.0029380189
0.0029145577
0.0028897187
0.0028657382
0.0028432295
0.0028216913
0.0028024705
0.0027803779
0.0027506779
0.0027194991
0.0026896465
0.0026613709
0.0026341059
0.0026021929
0.0025645244
0.0025270774
0.0024915276
0.0024574115
0.002419125
0.002375212
0.002332052
0.0022935311
0.0022554512
0.0022126527
0.0021681556
0.0021264699
0.0020875564
0.0020462249
0.0020014106
0.0019587017
0.0019182111
0.0018759555
0.0018315638
0.001789651
0.001748338
0.0017038269
0.0016592754
0.0016165464
0.0015724632
0.0015258724
0.0014818608
0.0014376719
0.0013896626
0.0013436479
0.0012983167
0.0012491858
0.0012012185
0.0011540809
0.0011036711
0.0010544383
0.0010055213
0.000953275
0.00090205581
0.00085076284
0.00079762477
0.00074491679
0.00069092845
0.00063714477
0.00058290782
0.00052727173
0.0004729924
0.00041796504
0.00036573373
0.00031110956
0.00027812568
0.00017901699
0.00039946134
-0.0002838698
0.0069880292
0.0067336173
0.0063548798
0.006019497
0.005773845
0.0055671655
0.0053650845
0.0051763325
0.0050082877
0.0048569246
0.0047168926
0.0045841781
0.0044565347
0.0043323157
0.004211954
0.0040956101
0.0039837863
0.0038768825
0.0037748014
0.0036758782
0.0035790157
0.0034874113
0.0034043169
0.00333007
0.0032644337
0.003205424
0.003150527
0.0031008115
0.0030578826
0.0030215208
0.0029906136
0.002964869
0.0029418462
0.0029178922
0.0028927166
0.002868327
0.0028454344
0.0028235451
0.0028035925
0.0027811612
0.0027518114
0.0027207044
0.0026907028
0.0026620697
0.0026341317
0.0026019549
0.0025644948
0.002527116
0.0024914963
0.0024570945
0.0024188067
0.0023754054
0.002333026
0.0022949957
0.0022570809
0.0022144933
0.0021704229
0.0021292376
0.0020903
0.0020484038
0.0020033675
0.0019607309
0.0019203837
0.0018782428
0.0018338951
0.0017920298
0.0017506486
0.0017060623
0.0016615345
0.0016188119
0.0015746606
0.001527979
0.00148395
0.0014397137
0.0013916385
0.0013456039
0.001300229
0.0012510333
0.0012030448
0.0011558774
0.0011053784
0.0010560707
0.0010071079
0.00095481647
0.00090357036
0.00085224529
0.00079905004
0.0007462737
0.00069223175
0.00063841402
0.00058414061
0.00052846505
0.00047414715
0.00041907549
0.00036680111
0.00031215551
0.00027902222
0.00018288587
0.00040720132
-0.0002767563
0.0068409121
0.0066230785
0.0062970706
0.0059921855
0.0057547549
0.005552975
0.0053575667
0.0051729015
0.0050067398
0.0048566188
0.0047174407
0.0045855419
0.0044587595
0.0043357832
0.0042163779
0.004100928
0.0039898712
0.0038834836
0.0037816712
0.0036832005
0.0035872314
0.0034963079
0.0034134021
0.0033390468
0.0032729319
0.0032134006
0.0031583002
0.0031083244
0.0030648955
0.0030278897
0.0029962692
0.0029695687
0.0029456322
0.0029211716
0.0028957141
0.0028710013
0.0028477567
0.0028255062
0.0028048382
0.0027819677
0.0027528358
0.0027217545
0.0026916504
0.0026628001
0.0026344763
0.0026022945
0.002565163
0.0025278485
0.00249207
0.0024571994
0.0024187562
0.00237561
0.0023334018
0.002295076
0.0022568607
0.0022144507
0.002171005
0.0021306259
0.0020920005
0.0020499032
0.0020050548
0.0019628284
0.0019227584
0.0018802914
0.0018355091
0.001793683
0.0017524032
0.0017079273
0.0016635168
0.0016208595
0.0015766299
0.0015298856
0.0014859215
0.0014416798
0.001393528
0.0013474696
0.0013020671
0.0012528137
0.0012048069
0.0011576023
0.0011070364
0.0010577049
0.0010087137
0.0009563707
0.00090509528
0.00085373961
0.00080048554
0.00074764263
0.00069355244
0.00063970912
0.00058540716
0.00052969235
0.00047531951
0.00042019317
0.00036788098
0.00031322644
0.00027992939
0.00018689039
0.00041425197
-0.00026897023
0.0067049364
0.0065165403
0.0062354101
0.0059599824
0.0057327289
0.0055362885
0.0053475941
0.0051679355
0.0050043963
0.0048558133
0.0047176265
0.0045864634
0.0044603962
0.0043382513
0.0042196961
0.0041050967
0.0039947974
0.0038890035
0.0037876271
0.0036897489
0.0035947413
0.0035046323
0.0034220795
0.0033477496
0.0032813114
0.003221367
0.0031660851
0.0031158759
0.0030719744
0.0030343427
0.0030020239
0.0029744173
0.0029495962
0.0029246165
0.0028988629
0.0028738052
0.0028501624
0.0028275034
0.0028061351
0.0027828115
0.0027538595
0.0027228367
0.0026926517
0.002663598
0.0026349
0.0026026793
0.0025658153
0.0025285473
0.0024926545
0.0024575299
0.0024191668
0.0023763617
0.0023342489
0.0022955851
0.0022570449
0.0022147218
0.0021714654
0.0021310216
0.0020919456
0.0020497385
0.0020054554
0.0019639877
0.0019244861
0.0018818166
0.0018368953
0.0017953689
0.0017543871
0.0017096903
0.0016648853
0.0016222458
0.0015780992
0.0015314754
0.0014876625
0.0014434498
0.0013952062
0.0013491734
0.0013038159
0.0012545183
0.0012064825
0.001159245
0.0011086337
0.0010592985
0.001010281
0.00095788206
0.00090658219
0.00085519781
0.00080190067
0.00074902306
0.00069489716
0.00064102702
0.00058669305
0.00053093647
0.00047650773
0.00042133025
0.00036898282
0.00031433209
0.00028084944
0.0001909812
0.00042029532
-0.00026047162
0.0065786594
0.0064142763
0.0061711189
0.0059233739
0.0057078343
0.0055174924
0.0053355155
0.0051612834
0.0050007502
0.0048538642
0.0047168412
0.0045866152
0.0044614584
0.0043403315
0.0042228669
0.0041092983
0.003999896
0.0038948252
0.0037940075
0.0036967678
0.0036026657
0.0035133344
0.0034311205
0.0033567842
0.0032900206
0.0032296469
0.0031741155
0.0031236294
0.0030792367
0.0030409606
0.0030079214
0.0029794172
0.0029537115
0.0029281747
0.0029020865
0.0028766632
0.0028526064
0.0028295282
0.0028075039
0.0027837386
0.0027549266
0.0027239669
0.0026936876
0.0026644163
0.0026353521
0.0026030705
0.0025664462
0.0025292355
0.002493249
0.0024579046
0.0024195822
0.0023770945
0.0023350746
0.0022962089
0.0022575655
0.0022154429
0.0021723078
0.0021316832
0.0020922127
0.0020499996
0.0020059468
0.0019644574
0.0019246045
0.0018816906
0.001837251
0.0017964534
0.0017559924
0.0017111145
0.0016661062
0.0016236743
0.0015797467
0.001532966
0.001488875
0.0014446574
0.0013964654
0.001350616
0.0013053537
0.0012560259
0.0012079874
0.0011607837
0.0011101654
0.0010608183
0.0010117688
0.0009593314
0.00090802451
0.00085661129
0.00080327477
0.00075037798
0.00069622531
0.0006423277
0.00058795878
0.00053216657
0.00047770617
0.00042249416
0.00037010624
0.00031546311
0.00028177125
0.00019511112
0.00042503798
-0.00025119683
0.0064608936
0.00631633
0.0061052124
0.0058829722
0.0056801399
0.0054966363
0.0053213324
0.0051527627
0.0049956682
0.0048508112
0.0047152485
0.0045862231
0.0044621644
0.0043421574
0.0042258198
0.0041132764
0.0040047581
0.0039004116
0.0038001772
0.0037035739
0.0036103199
0.0035217444
0.0034398965
0.0033655878
0.0032985642
0.0032378201
0.0031820496
0.0031313057
0.0030864554
0.0030475594
0.0030138137
0.0029844492
0.0029578885
0.0029317857
0.0029053492
0.0028795627
0.0028550923
0.0028315886
0.0028089423
0.0027847362
0.0027560145
0.0027251119
0.0026947305
0.0026652417
0.0026358362
0.0026034883
0.0025670885
0.0025299462
0.0024938703
0.0024583121
0.0024200118
0.0023778206
0.002335899
0.0022968604
0.0022581013
0.0022161418
0.0021731235
0.0021323737
0.0020927609
0.0020506811
0.0020067718
0.0019651148
0.001924908
0.0018819547
0.0018377556
0.0017968631
0.0017560423
0.0017110815
0.0016665726
0.0016248094
0.0015811995
0.0015342674
0.0014900277
0.0014459247
0.0013978229
0.0013518732
0.0013063903
0.001257072
0.0012091918
0.0011621153
0.0011115105
0.0010621633
0.0010131296
0.00096070859
0.00090940502
0.00085795533
0.00080459551
0.00075169388
0.00069751372
0.00064359094
0.00058919508
0.00053337469
0.00047889075
0.00042364986
0.000371221
0.00031658807
0.00028267153
0.00019922415
0.00042815795
-0.00024116533
0.0063506279
0.0062225944
0.0060384951
0.0058393977
0.0056497502
0.0054737519
0.0053051402
0.005142403
0.0049891625
0.0048466753
0.0047128199
0.0045851911
0.0044623682
0.0043435574
0.0042283929
0.0041169287
0.0040093602
0.003905818
0.0038062621
0.0037103612
0.0036179607
0.0035301553
0.0034487191
0.0033744807
0.003307251
0.0032461762
0.0031901576
0.003139145
0.0030938395
0.0030543214
0.0030198605
0.002989649
0.0029622427
0.0029355493
0.0029087342
0.0028825693
0.0028576697
0.0028337213
0.0028104731
0.002785824
0.0027571456
0.0027262934
0.0026958064
0.002666101
0.002636373
0.0026039473
0.0025677479
0.0025306745
0.0024945077
0.002458747
0.0024204644
0.0023785561
0.0023367413
0.0022975418
0.0022586596
0.0022168469
0.0021739465
0.0021330926
0.0020933456
0.0020513445
0.0020075633
0.0019657952
0.0019254428
0.0018826224
0.0018385389
0.0017973807
0.001756249
0.0017113678
0.0016670085
0.001625122
0.0015812099
0.001534437
0.0014907518
0.0014470824
0.001399119
0.0013530426
0.0013074169
0.0012581941
0.0012103735
0.0011631228
0.0011124186
0.001063189
0.0010142882
0.0009619085
0.00091061815
0.00085917292
0.00080584949
0.00075295348
0.00069873298
0.000644804
0.0005903993
0.00053455088
0.00048004319
0.00042477906
0.00037231385
0.00031769725
0.00028353697
0.00020325412
0.00042929761
-0.00023052744
0.0062469956
0.0061328825
0.0059715892
0.0057932517
0.0056168407
0.0054488957
0.005287045
0.0051302408
0.0049811914
0.004841394
0.0047094816
0.0045834461
0.0044620188
0.004344515
0.0042306036
0.0041202915
0.004013738
0.0039110623
0.003812248
0.0037170834
0.003625517
0.003538465
0.0034574569
0.0033833126
0.0033159133
0.003254539
0.0031982672
0.0031469801
0.0031012296
0.0030611001
0.0030259306
0.0029948962
0.002966666
0.002939372
0.0029121595
0.0028856101
0.0028602767
0.0028358768
0.0028120529
0.0027869683
0.0027582962
0.0027274881
0.0026968951
0.0026669743
0.0026369412
0.0026044294
0.0025684094
0.0025314077
0.0024951548
0.0024592073
0.0024209391
0.0023792967
0.0023375919
0.0022982424
0.0022592398
0.0022175649
0.0021747846
0.002133836
0.0020939494
0.0020520107
0.0020083605
0.001966504
0.0019260155
0.0018832859
0.0018392888
0.0017979355
0.0017567134
0.0017120142
0.001667645
0.0016254909
0.0015813922
0.0015347921
0.0014910804
0.0014471804
0.0013992742
0.0013535313
0.0013083214
0.0012593279
0.0012115322
0.0011640991
0.0011133504
0.0010642603
0.0010152645
0.00096271939
0.00091151614
0.00086020124
0.00080694171
0.00075405564
0.00069982897
0.00064595257
0.00059155169
0.00053566714
0.00048115111
0.00042587439
0.00037337191
0.00031878103
0.00028435697
0.00020714491
0.00042822668
-0.00021943256
0.0061492533
0.0060469665
0.0059049619
0.0057450921
0.0055816382
0.0054221377
0.0052671366
0.0051163176
0.0049717263
0.0048349271
0.0047051995
0.0045809555
0.0044610855
0.0043450025
0.0042324215
0.0041233248
0.0040178433
0.0039160915
0.0038180805
0.0037236938
0.0036329614
0.0035466633
0.0034661141
0.0033921049
0.0033245857
0.0032629553
0.00320644
0.0031548809
0.0031086995
0.0030679724
0.0030321018
0.0030002644
0.0029712276
0.0029433213
0.0029156886
0.0028887429
0.002862967
0.0028381049
0.0028137233
0.0027882057
0.0027595005
0.0027287228
0.0026980198
0.0026678824
0.0026375582
0.0026049521
0.00256909
0.00253216
0.0024958247
0.0024597026
0.002421443
0.0023800478
0.0023384548
0.0022989681
0.0022598486
0.0022182996
0.0021756369
0.0021346001
0.0020945769
0.0020526964
0.0020091766
0.0019672395
0.0019266094
0.0018839503
0.0018400411
0.0017985238
0.0017572111
0.0017126577
0.001668267
0.0016259346
0.0015818726
0.0015354217
0.0014915034
0.0014473794
0.0013995704
0.0013538059
0.0013084663
0.001259489
0.0012119657
0.0011648594
0.0011143163
0.0010653683
0.0010162046
0.00096352465
0.00091248002
0.00086111548
0.00080768754
0.00075486261
0.00070075011
0.00064695092
0.00059255823
0.00053667401
0.00048219883
0.00042691544
0.00037437214
0.00031982783
0.00028511847
0.00021083737
0.00042491058
-0.00020798091
0.0060567605
0.0059646015
0.0058389549
0.0056954178
0.0055444011
0.0053935667
0.0052454993
0.0051006895
0.0049607624
0.0048272462
0.0046999409
0.0045776787
0.0044595217
0.0043449748
0.0042338063
0.0041259941
0.0040216493
0.003920886
0.0038237432
0.0037301797
0.003640289
0.0035547466
0.003474682
0.0034008447
0.0033332476
0.0032713968
0.0032146453
0.0031628124
0.003116209
0.0030748952
0.0030383307
0.0030057081
0.0029758816
0.0029473544
0.0029192815
0.0028919288
0.0028657045
0.0028403734
0.0028154512
0.0027895063
0.0027607348
0.0027299741
0.0026991602
0.0026688082
0.0026382076
0.002605502
0.002569778
0.0025329196
0.0024965069
0.0024602227
0.002421968
0.0023808035
0.0023393248
0.0022997143
0.0022604818
0.0022190469
0.0021764996
0.0021353831
0.0020952291
0.0020534002
0.0020100046
0.0019679929
0.0019272239
0.0018846294
0.0018408111
0.0017991403
0.0017577243
0.001713297
0.0016688946
0.0016264109
0.0015823794
0.0015360456
0.0014919599
0.0014477702
0.001400117
0.0013542216
0.001308697
0.0012597546
0.0012122056
0.0011649979
0.0011145009
0.0010658138
0.0010168755
0.00096437975
0.00091351342
0.00086198658
0.00080841527
0.00075572878
0.00070157394
0.00064763951
0.00059330296
0.00053752351
0.00048310589
0.00042782422
0.0003752782
0.00032081772
0.00028579587
0.00021427027
0.00041948411
-0.00019624562
0.0059689639
0.0058855407
0.0057738112
0.0056446632
0.0055054037
0.0053632929
0.0052222175
0.0050834218
0.0049483102
0.0048183281
0.0046936733
0.0045735765
0.0044572851
0.0043443935
0.0042347264
0.0041282721
0.0040251315
0.0039254218
0.0038292087
0.0037365124
0.0036474753
0.0035626928
0.0034831377
0.0034095104
0.0033418788
0.0032798457
0.0032228723
0.00317077
0.0031237573
0.0030818728
0.0030446271
0.0030112392
0.0029806418
0.0029514895
0.0029229586
0.0028951885
0.0028685104
0.0028427047
0.0028172563
0.0027908892
0.0027620202
0.0027312601
0.0027003331
0.0026697674
0.0026389023
0.0026060918
0.0025704854
0.0025336962
0.0024972108
0.0024607755
0.0024225219
0.0023815713
0.0023402076
0.0023004857
0.0022611437
0.0022198111
0.0021773762
0.0021361885
0.0020959086
0.0020541234
0.0020108456
0.0019687672
0.0019278642
0.0018853264
0.0018415951
0.0017997778
0.0017582557
0.0017139479
0.0016695442
0.0016269134
0.0015828937
0.0015366644
0.0014924348
0.0014481839
0.0014006773
0.0013546664
0.0013090548
0.0012602294
0.0012125863
0.0011652304
0.0011147686
0.0010660167
0.0010169691
0.00096459918
0.00091399916
0.00086260551
0.0008092138
0.00075667674
0.000702352
0.00064831211
0.00059408423
0.00053826139
0.00048373772
0.00042851464
0.00037604165
0.00032167322
0.00028633258
0.0002173975
0.00041214609
-0.00018427805
0.0058853838
0.0058095447
0.0057096976
0.0055931979
0.0054649212
0.0053314458
0.0051973783
0.0050645848
0.0049343931
0.0048081588
0.0046863693
0.0045686151
0.0044543377
0.0043432214
0.0042351483
0.0041301279
0.0040282608
0.0039296701
0.0038344477
0.0037426637
0.0036544987
0.0035704855
0.003491466
0.0034180883
0.0033504659
0.0032882886
0.0032311106
0.0031787451
0.0031313355
0.0030888963
0.0030509827
0.0030168481
0.002985497
0.0029557163
0.0029267104
0.0028985117
0.0028713745
0.0028450895
0.0028191269
0.0027923425
0.002763348
0.0027325712
0.0027015288
0.0026707513
0.0026396328
0.0026067132
0.0025712059
0.0025344831
0.0024979303
0.0024613549
0.0024230996
0.0023823469
0.0023410985
0.0023012779
0.0022618306
0.0022205898
0.0021782644
0.0021370136
0.002096613
0.0020548645
0.0020116988
0.0019695615
0.0019285292
0.0018860391
0.0018423906
0.0018004366
0.0017588083
0.0017146115
0.0016702099
0.0016274347
0.0015834196
0.0015372948
0.0014929341
0.0014486131
0.0014012362
0.0013551198
0.0013094286
0.0012607271
0.0012130005
0.0011655706
0.0011152057
0.0010663348
0.0010171683
0.00096485102
0.00091418337
0.00086269633
0.00080948768
0.00075719474
0.00070294107
0.00064907481
0.0005949328
0.00053895682
0.00048436439
0.00042920582
0.00037665661
0.00032229213
0.00028668131
0.00022018944
0.00040302895
-0.00017206725
0.0058056036
0.0057363867
0.0056467232
0.0055413303
0.0054232198
0.0052981703
0.0051710741
0.0050442527
0.0049190464
0.0047967347
0.0046780072
0.0045627647
0.0044506442
0.0043414223
0.004235038
0.0041315304
0.0040310077
0.0039336027
0.003839432
0.0037486069
0.003661337
0.0035781067
0.0034996492
0.0034265605
0.0033589905
0.003296707
0.0032393447
0.0031867252
0.0031389324
0.0030959564
0.0030573909
0.0030225291
0.0029904425
0.0029600331
0.0029305384
0.0029019008
0.0028743004
0.0028475334
0.0028210672
0.0027938707
0.0027647258
0.0027339139
0.0027027536
0.0026717663
0.0026404045
0.0026073723
0.0025719459
0.0025352853
0.0024986702
0.002461965
0.0024237054
0.002383135
0.0023420009
0.0023020935
0.0022625457
0.0022213862
0.0021791664
0.0021378604
0.0020973444
0.0020556258
0.0020125661
0.001970377
0.00192922
0.0018867691
0.0018431993
0.0018011185
0.0017593837
0.0017152875
0.001670891
0.0016279767
0.0015839614
0.0015379372
0.0014934527
0.0014490567
0.0014018028
0.0013555926
0.0013098197
0.0012612275
0.0012134202
0.0011659215
0.0011156664
0.0010666968
0.0010174786
0.00096524584
0.00091445508
0.00086289185
0.00080970272
0.00075734135
0.00070306407
0.00064942605
0.00059545274
0.00053955077
0.00048508176
0.0004299251
0.00037723241
0.00032293166
0.0002869665
0.00022262447
0.00039224779
-0.00015948779
0.0057292601
0.0056658554
0.0055849537
0.0054893142
0.0053805485
0.005263621
0.0051434034
0.0050225033
0.0049023143
0.0047840622
0.0046685714
0.0045559996
0.0044461724
0.0043389615
0.0042343624
0.0041324484
0.0040333426
0.0039371907
0.0038441325
0.0037543137
0.0036679661
0.0035855364
0.0035076683
0.0034349082
0.0033674344
0.0033050834
0.00324756
0.0031946992
0.0031465384
0.0031030448
0.0030638455
0.0030282764
0.0029954725
0.0029644361
0.0029344403
0.002905354
0.0028772865
0.0028500354
0.0028230747
0.0027954706
0.0027661528
0.0027352869
0.0027040054
0.0026728107
0.0026412142
0.0026080664
0.0025727038
0.0025361006
0.0024994282
0.002462603
0.0024243369
0.002383934
0.0023429128
0.0023029303
0.0022632871
0.002222199
0.0021800808
0.0021387271
0.0020981015
0.0020564067
0.0020134467
0.0019712125
0.0019299359
0.0018875161
0.001844021
0.0018018226
0.0017599812
0.0017159758
0.0016715875
0.0016285403
0.0015845192
0.00153859
0.0014939898
0.0014495166
0.0014023787
0.0013560828
0.0013102255
0.001261735
0.0012138555
0.0011662881
0.0011161315
0.001067065
0.0010177965
0.00096566269
0.00091478195
0.00086319954
0.00081003294
0.00075756422
0.00070326688
0.00064958962
0.00059553847
0.00053975718
0.00048549856
0.00043042339
0.000377785
0.00032363701
0.00028720081
0.00022484681
0.0003804046
-0.00014646401
0.005656036
0.0055977559
0.0055244231
0.0054373553
0.0053371351
0.0052279572
0.0051144713
0.0049994176
0.0048842489
0.0047701572
0.0046580532
0.0045482988
0.0044408941
0.0043358071
0.0042330894
0.004132851
0.0040352358
0.0039404045
0.0038485196
0.0037597555
0.0036743613
0.0035927537
0.0035155038
0.0034431124
0.0033757787
0.0033133993
0.0032557408
0.0032026541
0.003154142
0.0031101514
0.0030703383
0.0030340828
0.0030005799
0.0029689204
0.0029384138
0.0029088696
0.0028803319
0.002852596
0.002825149
0.0027971416
0.0027676311
0.0027366924
0.0027052856
0.0026738862
0.002642063
0.0026087971
0.0025734823
0.0025369309
0.0025002061
0.0024632701
0.0024249957
0.0023847462
0.0023438355
0.0023037892
0.0022640559
0.0022230302
0.002181009
0.0021396149
0.0020988855
0.0020572084
0.0020143418
0.0019720689
0.0019306778
0.0018882816
0.0018448565
0.0018025495
0.0017606019
0.0017166773
0.0016723
0.0016291259
0.0015850935
0.0015392536
0.0014945461
0.0014499941
0.0014029638
0.0013565896
0.0013106466
0.0012622513
0.0012143065
0.0011666686
0.0011166035
0.0010674472
0.0010181271
0.00096608472
0.00091511494
0.00086352259
0.00081038794
0.00075784764
0.00070357855
0.00064983368
0.00059570865
0.00053993879
0.00048561599
0.00043052674
0.0003780425
0.00032408872
0.00028727941
0.00022687285
0.00036827065
-0.00013349731
0.0055856534
0.0055319101
0.0054651418
0.005385618
0.0052931832
0.0051913378
0.0050843878
0.0049750798
0.0048649082
0.0047550446
0.0046464513
0.0045396464
0.0044347848
0.0043319297
0.0042311881
0.0041327079
0.004036657
0.0039432144
0.0038525635
0.0037649034
0.0036804967
0.0035997367
0.0035231354
0.0034511529
0.0033840033
0.0033216354
0.0032638701
0.0032105761
0.0031617314
0.0031172659
0.0030768609
0.0030399406
0.0030057577
0.0029734809
0.002942456
0.002912446
0.0028834357
0.0028552151
0.002827289
0.0027988822
0.0027691614
0.0027381312
0.0027065947
0.0026749931
0.0026429503
0.0026095642
0.0025742821
0.0025377761
0.0025010034
0.0024639655
0.0024256814
0.0023855718
0.0023447687
0.002304669
0.0022648513
0.0022238795
0.0021819506
0.0021405228
0.0020996957
0.002058031
0.0020152513
0.0019729455
0.0019314454
0.0018890655
0.0018457056
0.0018032986
0.0017612459
0.0017173924
0.0016730284
0.0016297335
0.0015856846
0.0015399283
0.0014951217
0.0014504894
0.0014035583
0.0013571131
0.001311084
0.0012627768
0.0012147724
0.0011670629
0.0011170835
0.0010678439
0.00101847
0.00096651379
0.00091546092
0.00086385475
0.00081074631
0.0007581365
0.00070391237
0.00065011747
0.00059595663
0.00054021261
0.00048579611
0.00043067527
0.00037811832
0.0003241826
0.00028701971
0.00022848459
0.0003563318
-0.00012137238
0.0055178684
0.0054681559
0.0054071041
0.0053342322
0.0052488723
0.005153917
0.0050532667
0.0049495773
0.0048443554
0.004738757
0.0046337719
0.0045300319
0.0044278243
0.004327303
0.0042286295
0.0041319892
0.0040375765
0.0039455902
0.003856234
0.0037697281
0.003686346
0.0036064622
0.0035305417
0.0034590088
0.0033920877
0.003329772
0.0032719303
0.0032184505
0.0031692938
0.0031243769
0.0030834036
0.0030458415
0.0030109981
0.0029781115
0.0029465634
0.0029160809
0.0028865961
0.0028578921
0.0028294936
0.0028006909
0.0027707443
0.0027396044
0.002707933
0.0026761318
0.0026438759