/*--------------------------------*- C++ -*----------------------------------*\
  =========                 |
  \\      /  F ield         | OpenFOAM: The Open Source CFD Toolbox
   \\    /   O peration     | Website:  https://openfoam.org
    \\  /    A nd           | Version:  12
     \\/     M anipulation  |
\*---------------------------------------------------------------------------*/
FoamFile
{
    format      ascii;
    class       volVectorField;
    location    "1900";
    object      U;
}
// * * * * * * * * * * * * * * * * * * * * * * * * * * * * * * * * * * * * * //

dimensions      [0 1 -1 0 0 0 0];

internalField   nonuniform List<vector> 
7480
(
(0.98221357 0.00075727699 0)
(0.969693 0.0014037424 0)
(0.95646038 0.0017632806 0)
(0.94235511 0.0020821882 0)
(0.92838375 0.0024858784 0)
(0.91490808 0.0027359724 0)
(0.90195136 0.0027650303 0)
(0.88950119 0.0026998383 0)
(0.87746475 0.0025907766 0)
(0.86574704 0.002439696 0)
(0.85414712 0.0022642113 0)
(0.84257664 0.0020995738 0)
(0.83100319 0.0019461949 0)
(0.81943153 0.0018021237 0)
(0.80788509 0.0016660104 0)
(0.79640607 0.0015355682 0)
(0.78506751 0.0014038578 0)
(0.77401977 0.0012732163 0)
(0.76314345 0.0011563952 0)
(0.75261302 0.0010457699 0)
(0.74249344 0.00093959033 0)
(0.73283974 0.00083804895 0)
(0.72370803 0.00074169635 0)
(0.71514649 0.00065140995 0)
(0.70719792 0.00056647394 0)
(0.69990211 0.00048704371 0)
(0.69327091 0.00041477641 0)
(0.68728998 0.00034949462 0)
(0.68193265 0.00029112777 0)
(0.6771627 0.00024062004 0)
(0.67293334 0.0001978342 0)
(0.66919445 0.00016159391 0)
(0.66590666 0.00013080294 0)
(0.66302686 0.00010538136 0)
(0.66049831 8.4489796e-05 0)
(0.65825869 6.8143009e-05 0)
(0.65624578 5.6648538e-05 0)
(0.65440248 4.9142963e-05 0)
(0.65269257 4.3652567e-05 0)
(0.65108924 4.0218782e-05 0)
(0.64955713 3.9281907e-05 0)
(0.64805977 4.0038205e-05 0)
(0.64656955 4.1999524e-05 0)
(0.64506699 4.4641363e-05 0)
(0.64354262 4.738916e-05 0)
(0.64198964 5.0381346e-05 0)
(0.64039789 5.4139854e-05 0)
(0.63874553 5.8525142e-05 0)
(0.63701636 6.2800889e-05 0)
(0.6352097 6.6437025e-05 0)
(0.63333251 6.9544479e-05 0)
(0.63138831 7.2232996e-05 0)
(0.62938003 7.4281308e-05 0)
(0.62731994 7.5288917e-05 0)
(0.62522874 7.5254904e-05 0)
(0.62312196 7.46537e-05 0)
(0.62100429 7.3726977e-05 0)
(0.61887688 7.2518215e-05 0)
(0.61674657 7.096504e-05 0)
(0.61462126 6.9276292e-05 0)
(0.6125016 6.7665655e-05 0)
(0.6103885 6.58885e-05 0)
(0.60828999 6.3840303e-05 0)
(0.60621373 6.1710446e-05 0)
(0.60415932 5.968825e-05 0)
(0.60212718 5.7563015e-05 0)
(0.60012193 5.5392645e-05 0)
(0.59814129 5.3472741e-05 0)
(0.59617846 5.172315e-05 0)
(0.59423279 4.9963517e-05 0)
(0.59230753 4.8242374e-05 0)
(0.59040036 4.668258e-05 0)
(0.58851129 4.5030862e-05 0)
(0.58664677 4.3325589e-05 0)
(0.58480491 4.1829584e-05 0)
(0.58298096 4.035805e-05 0)
(0.58117707 3.888733e-05 0)
(0.5793908 3.7610628e-05 0)
(0.57761879 3.6336637e-05 0)
(0.57586542 3.5007103e-05 0)
(0.5741312 3.3800355e-05 0)
(0.57241414 3.2591775e-05 0)
(0.57071656 3.1387274e-05 0)
(0.56903561 3.0334684e-05 0)
(0.56736815 2.9291017e-05 0)
(0.56571644 2.8251614e-05 0)
(0.56408079 2.7268136e-05 0)
(0.56246152 2.6284785e-05 0)
(0.56085771 2.5374893e-05 0)
(0.55926757 2.4491962e-05 0)
(0.55769168 2.3634895e-05 0)
(0.55612868 2.2834729e-05 0)
(0.55457929 2.2032599e-05 0)
(0.55304157 2.1292539e-05 0)
(0.55151801 2.0600924e-05 0)
(0.54998766 1.9943105e-05 0)
(0.54851753 1.9564799e-05 0)
(0.54691938 5.0195806e-05 0)
(0.54552334 9.3919862e-05 0)
(0.54341143 9.051833e-05 0)
(0.99619143 0.0027557039 0)
(0.99708699 0.0038419333 0)
(0.99770688 0.0042224054 0)
(0.99794822 0.0041351554 0)
(0.99737178 0.0039200333 0)
(0.99592883 0.0035822685 0)
(0.99369061 0.003267727 0)
(0.9907067 0.0030111221 0)
(0.98707033 0.0028093921 0)
(0.98287072 0.002662319 0)
(0.9782853 0.0025748771 0)
(0.97340794 0.0025239835 0)
(0.96828085 0.0024900374 0)
(0.9629166 0.0024606175 0)
(0.95731781 0.0024290741 0)
(0.95147901 0.0023908079 0)
(0.94539329 0.0023427248 0)
(0.93899619 0.0022849701 0)
(0.93239904 0.0022109509 0)
(0.92548883 0.002117453 0)
(0.9183838 0.0020084434 0)
(0.91112841 0.0018878144 0)
(0.9037582 0.0017583315 0)
(0.89630839 0.0016233216 0)
(0.88882482 0.0014848176 0)
(0.88134874 0.0013470279 0)
(0.87392009 0.0012141868 0)
(0.86657607 0.0010873215 0)
(0.85935648 0.00096789969 0)
(0.85230338 0.00085726093 0)
(0.84545644 0.00075644222 0)
(0.83885377 0.00066431104 0)
(0.83254286 0.00058312834 0)
(0.82647769 0.00051559905 0)
(0.82065551 0.0004584732 0)
(0.81508321 0.00040940795 0)
(0.80976678 0.00036811816 0)
(0.80471004 0.00033415095 0)
(0.7999038 0.0003045402 0)
(0.79533583 0.00027919777 0)
(0.79098636 0.00025947267 0)
(0.78683191 0.00024398488 0)
(0.78285072 0.00023186887 0)
(0.7790251 0.00022199428 0)
(0.77534548 0.0002130989 0)
(0.77180036 0.00020549557 0)
(0.76838029 0.0002012428 0)
(0.76501033 0.00019992517 0)
(0.76167341 0.00019877893 0)
(0.75837994 0.00019632539 0)
(0.75514323 0.00019332492 0)
(0.75196532 0.00019037768 0)
(0.74883856 0.00018715433 0)
(0.74575757 0.00018287192 0)
(0.74272737 0.00017764741 0)
(0.73974748 0.00017258147 0)
(0.73680205 0.00016781256 0)
(0.73388033 0.00016291933 0)
(0.7309838 0.00015758058 0)
(0.72812021 0.00015217881 0)
(0.72529208 0.00014708041 0)
(0.72249886 0.00014177563 0)
(0.7197445 0.00013613953 0)
(0.71703401 0.000130576 0)
(0.71436588 0.00012538491 0)
(0.71173793 0.00012015027 0)
(0.70914852 0.00011504213 0)
(0.70659397 0.00011052533 0)
(0.70406889 0.00010632747 0)
(0.70157339 0.00010211077 0)
(0.6991122 9.8019207e-05 0)
(0.69668484 9.4276046e-05 0)
(0.69428963 9.0395369e-05 0)
(0.69193187 8.6519125e-05 0)
(0.68960942 8.3123108e-05 0)
(0.68731495 7.9809387e-05 0)
(0.68504909 7.6557393e-05 0)
(0.68281154 7.3691381e-05 0)
(0.68059931 7.0829237e-05 0)
(0.67841578 6.7916533e-05 0)
(0.67626244 6.5275012e-05 0)
(0.67413591 6.2659388e-05 0)
(0.6720365 6.0108609e-05 0)
(0.66996206 5.7858813e-05 0)
(0.66790942 5.5630378e-05 0)
(0.66588046 5.3440723e-05 0)
(0.66387599 5.1374156e-05 0)
(0.66189568 4.9336772e-05 0)
(0.65993787 4.7460229e-05 0)
(0.65800018 4.5646229e-05 0)
(0.65608322 4.3898386e-05 0)
(0.65418602 4.2262201e-05 0)
(0.65230904 4.0646198e-05 0)
(0.6504492 3.914759e-05 0)
(0.64861099 3.779598e-05 0)
(0.64676536 3.6385714e-05 0)
(0.64499742 3.6439183e-05 0)
(0.64308315 7.0279827e-05 0)
(0.64148846 0.00011812116 0)
(0.63857078 9.7237419e-05 0)
(0.9963046 0.0026087357 0)
(0.99683696 0.0030880562 0)
(0.9974544 0.0030475825 0)
(0.99788797 0.0029387352 0)
(0.99815747 0.0029166353 0)
(0.99848078 0.0029469405 0)
(0.99868905 0.0030099069 0)
(0.99877817 0.0030949153 0)
(0.9987536 0.0031642899 0)
(0.99860517 0.0032375879 0)
(0.99832279 0.0032793536 0)
(0.9978992 0.0032962939 0)
(0.99732451 0.0032911572 0)
(0.99658418 0.00326943 0)
(0.9956628 0.0032316216 0)
(0.99454167 0.0031782995 0)
(0.99319833 0.0031112711 0)
(0.99158159 0.0030380788 0)
(0.98971018 0.0029661543 0)
(0.98749806 0.0028873675 0)
(0.98490751 0.0027948285 0)
(0.9819057 0.0026927681 0)
(0.97846895 0.0025852854 0)
(0.97457434 0.0024721931 0)
(0.97023164 0.002351849 0)
(0.96533129 0.0022208057 0)
(0.95994265 0.0020841823 0)
(0.95413448 0.001946711 0)
(0.94795431 0.0018107072 0)
(0.94145632 0.0016772056 0)
(0.93470305 0.0015473773 0)
(0.92776866 0.0014204452 0)
(0.92073607 0.0012965375 0)
(0.91369715 0.0011818295 0)
(0.90671615 0.0010788551 0)
(0.89984863 0.00098577083 0)
(0.89314258 0.00090156959 0)
(0.88665058 0.00082926633 0)
(0.88032104 0.00076616961 0)
(0.87417289 0.00070987729 0)
(0.86822861 0.00066133473 0)
(0.8625007 0.00061819014 0)
(0.85700233 0.0005796987 0)
(0.85173425 0.00054542719 0)
(0.84668341 0.00051393292 0)
(0.84183524 0.0004859675 0)
(0.83717187 0.00046296972 0)
(0.83268281 0.00044499588 0)
(0.82835427 0.00043004808 0)
(0.82417766 0.00041500855 0)
(0.82014509 0.00040022776 0)
(0.81624045 0.00038660576 0)
(0.81244289 0.000373729 0)
(0.80873791 0.00036024272 0)
(0.805126 0.00034631165 0)
(0.80159202 0.00033380675 0)
(0.79810777 0.000322468 0)
(0.79467236 0.00031111826 0)
(0.79129018 0.00029919741 0)
(0.78796764 0.00028730578 0)
(0.78470524 0.00027605299 0)
(0.78149985 0.0002647441 0)
(0.77835178 0.00025320763 0)
(0.7752626 0.0002420205 0)
(0.77222904 0.00023162077 0)
(0.7692472 0.00022151292 0)
(0.76630889 0.00021188877 0)
(0.76341166 0.00020320338 0)
(0.76055332 0.00019502607 0)
(0.7577353 0.00018685992 0)
(0.75496226 0.0001789208 0)
(0.75223347 0.00017157359 0)
(0.74954627 0.00016412676 0)
(0.7469051 0.00015680224 0)
(0.74430545 0.00015032798 0)
(0.74173894 0.00014410271 0)
(0.73920675 0.0001380326 0)
(0.73670982 0.00013255689 0)
(0.73424567 0.00012713867 0)
(0.73181707 0.00012169758 0)
(0.72942549 0.00011670682 0)
(0.7270662 0.00011184511 0)
(0.72473828 0.00010715586 0)
(0.72244007 0.000102949 0)
(0.720169 9.8817293e-05 0)
(0.71792692 9.477482e-05 0)
(0.71571465 9.0943818e-05 0)
(0.71353114 8.7211723e-05 0)
(0.71137403 8.3765342e-05 0)
(0.70924092 8.0449265e-05 0)
(0.70713261 7.7257547e-05 0)
(0.70504837 7.4250515e-05 0)
(0.70298846 7.13185e-05 0)
(0.70094905 6.8572709e-05 0)
(0.69893481 6.6152881e-05 0)
(0.69691558 6.3479989e-05 0)
(0.69497901 6.236191e-05 0)
(0.6928945 9.2874001e-05 0)
(0.69116342 0.00014001176 0)
(0.68793748 0.00010592532 0)
(0.99645598 0.0023665262 0)
(0.99690461 0.0028575554 0)
(0.99747335 0.0030695598 0)
(0.99789972 0.0031891891 0)
(0.99819193 0.003293807 0)
(0.99843929 0.0033741827 0)
(0.99866319 0.0033900638 0)
(0.99885891 0.0033762605 0)
(0.99902912 0.0033389345 0)
(0.99916918 0.003285566 0)
(0.99932804 0.0032319985 0)
(0.99946299 0.003184108 0)
(0.99957539 0.003143021 0)
(0.9996692 0.0031017102 0)
(0.99973911 0.0030676503 0)
(0.99978146 0.0030363983 0)
(0.99979096 0.0030026761 0)
(0.99975898 0.002970524 0)
(0.99967743 0.0029413491 0)
(0.99953597 0.0029087509 0)
(0.99931557 0.002865142 0)
(0.99899079 0.0028121832 0)
(0.99853637 0.0027527032 0)
(0.99792334 0.0026879367 0)
(0.99712379 0.00262157 0)
(0.99607325 0.0025585727 0)
(0.99471751 0.0024948331 0)
(0.99300678 0.0024253678 0)
(0.99089341 0.0023507382 0)
(0.98833263 0.0022733244 0)
(0.98527685 0.0021921256 0)
(0.98170249 0.002104696 0)
(0.97747997 0.0020116428 0)
(0.97263446 0.0019136673 0)
(0.96725804 0.0018105318 0)
(0.961412 0.0017046503 0)
(0.9551745 0.0015975943 0)
(0.94863771 0.0014906902 0)
(0.94194285 0.0013860689 0)
(0.93518588 0.0012878044 0)
(0.9284469 0.0011988185 0)
(0.92178814 0.0011168112 0)
(0.91527718 0.0010432408 0)
(0.90889887 0.00097915288 0)
(0.90264657 0.00092040589 0)
(0.89655949 0.00086606763 0)
(0.89065983 0.00081867135 0)
(0.88499786 0.00077756973 0)
(0.87958965 0.00073979505 0)
(0.87441433 0.00070334247 0)
(0.86944406 0.00066926651 0)
(0.86465244 0.00063891031 0)
(0.86001783 0.00061130817 0)
(0.85553112 0.00058408927 0)
(0.85119386 0.00055689592 0)
(0.84699943 0.00053216057 0)
(0.84292943 0.00051044612 0)
(0.83896308 0.00049022175 0)
(0.83508935 0.00046988252 0)
(0.83130839 0.0004498075 0)
(0.82761687 0.0004308298 0)
(0.82400733 0.00041214925 0)
(0.82047501 0.00039354557 0)
(0.81701724 0.0003756981 0)
(0.81362925 0.00035914142 0)
(0.81030435 0.0003434723 0)
(0.80702416 0.00032863777 0)
(0.80379654 0.00031485783 0)
(0.80062258 0.00030169925 0)
(0.7975032 0.00028861252 0)
(0.79444169 0.00027590745 0)
(0.791436 0.00026410836 0)
(0.78848196 0.00025232866 0)
(0.78558316 0.00024091372 0)
(0.78273025 0.00023082809 0)
(0.77991535 0.00022115535 0)
(0.77714204 0.00021168943 0)
(0.77441231 0.00020301205 0)
(0.77172368 0.00019448317 0)
(0.76907817 0.00018598954 0)
(0.76647687 0.00017816616 0)
(0.76391269 0.00017064662 0)
(0.76138382 0.00016342701 0)
(0.75888973 0.000156861 0)
(0.75642868 0.00015043814 0)
(0.7540024 0.00014416597 0)
(0.7516116 0.00013821326 0)
(0.74925396 0.00013246681 0)
(0.74692634 0.00012714902 0)
(0.74462668 0.00012203938 0)
(0.7423562 0.00011711752 0)
(0.74011432 0.0001124616 0)
(0.73790095 0.00010796125 0)
(0.73571137 0.00010372486 0)
(0.73355012 0.0001000349 0)
(0.73138752 9.5821692e-05 0)
(0.72931044 9.3457938e-05 0)
(0.72708842 0.00011922154 0)
(0.72523702 0.00016559438 0)
(0.72180256 0.00012466194 0)
(0.99663625 0.0022648075 0)
(0.99701738 0.0027801713 0)
(0.99752262 0.0030272892 0)
(0.99791824 0.0031112998 0)
(0.99819285 0.0031511607 0)
(0.9984244 0.0031543141 0)
(0.99864053 0.0031312555 0)
(0.99883581 0.0031072137 0)
(0.99900914 0.0030850489 0)
(0.99916566 0.0030722144 0)
(0.99931049 0.0030670774 0)
(0.99944717 0.0030680784 0)
(0.99957966 0.0030688337 0)
(0.99970787 0.0030679148 0)
(0.99983082 0.0030609347 0)
(0.99994831 0.0030454212 0)
(1.0000607 0.0030234483 0)
(1.0001628 0.0029958399 0)
(1.0002718 0.002964614 0)
(1.000379 0.0029280737 0)
(1.0004752 0.0028815993 0)
(1.0005532 0.0028273098 0)
(1.0006105 0.0027690592 0)
(1.0006426 0.0027083574 0)
(1.0006505 0.002650822 0)
(1.0006305 0.0025981782 0)
(1.0005734 0.0025436565 0)
(1.0004635 0.0024860606 0)
(1.0002825 0.0024286876 0)
(1.0000086 0.002373553 0)
(0.99961253 0.0023204592 0)
(0.99906022 0.002272924 0)
(0.99828501 0.0022309017 0)
(0.99721265 0.0021933792 0)
(0.99577226 0.0021538676 0)
(0.9938894 0.0021105552 0)
(0.99149415 0.0020619302 0)
(0.98850605 0.0020095847 0)
(0.98495383 0.0019511783 0)
(0.98063565 0.001882817 0)
(0.9756996 0.0018031401 0)
(0.97022883 0.0017159636 0)
(0.96431448 0.0016237669 0)
(0.95808825 0.0015303373 0)
(0.95168543 0.0014387547 0)
(0.94520403 0.0013517323 0)
(0.93872672 0.0012717326 0)
(0.93232686 0.0011974976 0)
(0.92607389 0.001131149 0)
(0.91990881 0.0010704674 0)
(0.91387335 0.0010132861 0)
(0.9080077 0.00096053178 0)
(0.90233295 0.00091143611 0)
(0.89686961 0.00086389666 0)
(0.89161246 0.00081837246 0)
(0.88655073 0.00077752619 0)
(0.88167544 0.00074132389 0)
(0.87696161 0.00070771424 0)
(0.87239777 0.00067475093 0)
(0.8679847 0.00064285068 0)
(0.86370912 0.00061319 0)
(0.85955163 0.00058487073 0)
(0.85549893 0.00055738123 0)
(0.85154587 0.00053118038 0)
(0.8476899 0.00050673111 0)
(0.84392622 0.00048344917 0)
(0.84025187 0.00046162327 0)
(0.83665979 0.00044162124 0)
(0.83314235 0.00042258447 0)
(0.82969726 0.00040375912 0)
(0.82632579 0.00038552587 0)
(0.82302366 0.00036859071 0)
(0.81978456 0.00035186319 0)
(0.81661115 0.00033590024 0)
(0.81348559 0.00032177039 0)
(0.81040568 0.00030809939 0)
(0.80737871 0.00029463354 0)
(0.80440634 0.00028216878 0)
(0.8014852 0.00026999382 0)
(0.79861621 0.00025795475 0)
(0.79579979 0.00024689159 0)
(0.79302472 0.00023639268 0)
(0.79028961 0.00022630474 0)
(0.7875961 0.00021701235 0)
(0.78494306 0.00020794353 0)
(0.78233177 0.00019910686 0)
(0.77976264 0.00019073292 0)
(0.77723123 0.00018271865 0)
(0.77473372 0.00017528722 0)
(0.77226905 0.00016814132 0)
(0.76983893 0.00016125115 0)
(0.76744275 0.00015472018 0)
(0.76507981 0.00014845162 0)
(0.76274414 0.00014254023 0)
(0.76044035 0.00013741127 0)
(0.75813974 0.00013146057 0)
(0.75592781 0.00012791146 0)
(0.75357461 0.00014947583 0)
(0.75160846 0.00019575416 0)
(0.74797984 0.00014969285 0)
(0.99680617 0.0021858782 0)
(0.99712702 0.0026677727 0)
(0.99756812 0.0029104933 0)
(0.99793471 0.0029996848 0)
(0.99820261 0.0030551573 0)
(0.99843156 0.003097988 0)
(0.99864642 0.0031236771 0)
(0.99884087 0.0031381412 0)
(0.99901283 0.0031468787 0)
(0.9991668 0.0031466247 0)
(0.99930799 0.0031431065 0)
(0.99944089 0.0031362886 0)
(0.99956969 0.0031247168 0)
(0.99969522 0.0031063769 0)
(0.99981695 0.0030819981 0)
(0.99993488 0.0030525355 0)
(1.0000487 0.0030189983 0)
(1.0001578 0.0029818031 0)
(1.0002625 0.0029430773 0)
(1.0003651 0.0029024858 0)
(1.0004651 0.0028556372 0)
(1.0005584 0.002802843 0)
(1.000642 0.0027466945 0)
(1.0007155 0.0026883265 0)
(1.0007798 0.0026312591 0)
(1.0008353 0.002576704 0)
(1.0008934 0.0025212779 0)
(1.000946 0.0024653567 0)
(1.0009822 0.002411451 0)
(1.0010052 0.0023611956 0)
(1.0010142 0.0023147921 0)
(1.0010086 0.0022750807 0)
(1.0009862 0.002244954 0)
(1.0009396 0.0022185427 0)
(1.0008528 0.0021918464 0)
(1.0007032 0.0021654969 0)
(1.0004607 0.0021408768 0)
(1.0000821 0.0021161687 0)
(0.99951778 0.002094905 0)
(0.99866453 0.0020789493 0)
(0.99743503 0.0020588729 0)
(0.99573762 0.0020307651 0)
(0.99347777 0.0019961769 0)
(0.9906231 0.0019562506 0)
(0.98712498 0.0019064626 0)
(0.98286696 0.0018441768 0)
(0.97799163 0.0017703982 0)
(0.9726004 0.0016889448 0)
(0.96681258 0.0016021678 0)
(0.96079299 0.0015149294 0)
(0.95464252 0.0014316731 0)
(0.94845134 0.0013537058 0)
(0.9422917 0.001279652 0)
(0.93624425 0.0012100778 0)
(0.93025484 0.001145591 0)
(0.92434071 0.0010858426 0)
(0.91855489 0.0010299366 0)
(0.91293663 0.0009768683 0)
(0.90752033 0.00092559828 0)
(0.90230111 0.00087741109 0)
(0.89725159 0.00083332045 0)
(0.8923482 0.00079209154 0)
(0.88758288 0.00075268531 0)
(0.88296089 0.00071520537 0)
(0.87848328 0.00068032458 0)
(0.87413834 0.00064753031 0)
(0.86993157 0.00061693899 0)
(0.8658445 0.00058868818 0)
(0.86186712 0.00056188403 0)
(0.8579937 0.00053572843 0)
(0.85421953 0.00051069508 0)
(0.850534 0.00048756386 0)
(0.84692913 0.00046492902 0)
(0.84340607 0.00044323599 0)
(0.83996218 0.00042386487 0)
(0.83658977 0.00040536512 0)
(0.83328707 0.00038728661 0)
(0.83005201 0.00037048681 0)
(0.82687988 0.00035415406 0)
(0.8237703 0.00033809595 0)
(0.82072248 0.00032343326 0)
(0.81771885 0.00030962131 0)
(0.81476205 0.00029625022 0)
(0.81185665 0.00028378559 0)
(0.8090009 0.00027165266 0)
(0.80619511 0.00025986486 0)
(0.8034391 0.0002487462 0)
(0.8007252 0.00023820224 0)
(0.79804974 0.00022838692 0)
(0.79541351 0.00021891923 0)
(0.79281843 0.00020978409 0)
(0.79026355 0.0002011237 0)
(0.78774713 0.00019287003 0)
(0.78526159 0.00018508686 0)
(0.78281221 0.00017832483 0)
(0.78037153 0.00017043238 0)
(0.77802325 0.00016565966 0)
(0.77553787 0.00018351035 0)
(0.77345509 0.00023067659 0)
(0.76963666 0.00017891569 0)
(0.99696381 0.0021165808 0)
(0.99723485 0.002560296 0)
(0.99761993 0.0028100936 0)
(0.99795944 0.002923141 0)
(0.99821967 0.0029968862 0)
(0.99844252 0.0030525243 0)
(0.99865098 0.003080568 0)
(0.99884096 0.0030894572 0)
(0.99901022 0.0030867141 0)
(0.99916273 0.0030786546 0)
(0.99930337 0.0030676317 0)
(0.99943626 0.0030545729 0)
(0.99956471 0.0030428466 0)
(0.9996897 0.0030286482 0)
(0.99981087 0.0030117403 0)
(0.99992802 0.0029906604 0)
(1.0000407 0.0029656925 0)
(1.0001483 0.002936979 0)
(1.0002513 0.0029060306 0)
(1.0003516 0.0028722911 0)
(1.0004492 0.0028317214 0)
(1.0005409 0.0027840991 0)
(1.0006243 0.0027319501 0)
(1.0006988 0.0026768355 0)
(1.0007649 0.002621968 0)
(1.000825 0.0025689615 0)
(1.0008806 0.0025156492 0)
(1.0009305 0.0024622351 0)
(1.0009734 0.0024103522 0)
(1.0010095 0.0023612074 0)
(1.0010393 0.0023150334 0)
(1.0010641 0.0022744637 0)
(1.0010854 0.0022408444 0)
(1.0011111 0.00221083 0)
(1.0011373 0.0021823849 0)
(1.0011582 0.0021563932 0)
(1.001173 0.0021337956 0)
(1.0011782 0.0021136654 0)
(1.0011715 0.0021012091 0)
(1.0011483 0.0020953108 0)
(1.0010926 0.00208722 0)
(1.0009759 0.0020766578 0)
(1.0007588 0.0020638074 0)
(1.0003913 0.0020494683 0)
(0.99979873 0.0020368126 0)
(0.99886759 0.0020237816 0)
(0.99749518 0.0020037738 0)
(0.99558042 0.0019751066 0)
(0.99303577 0.0019392996 0)
(0.98984526 0.0018951951 0)
(0.9858868 0.0018383891 0)
(0.98130917 0.0017694373 0)
(0.97621684 0.0016917733 0)
(0.97074096 0.0016069503 0)
(0.96502955 0.0015213613 0)
(0.95917662 0.0014414481 0)
(0.95325923 0.0013666552 0)
(0.94734777 0.001294452 0)
(0.94152933 0.0012261661 0)
(0.93573533 0.0011633708 0)
(0.92998827 0.0011044394 0)
(0.92433971 0.001047401 0)
(0.91883479 0.00099189879 0)
(0.91350508 0.00093931456 0)
(0.90833418 0.00089092012 0)
(0.90330105 0.00084530374 0)
(0.89840908 0.0008025352 0)
(0.89366566 0.00076300416 0)
(0.88907814 0.00072575577 0)
(0.88463455 0.00069004119 0)
(0.88032063 0.00065643298 0)
(0.87612066 0.00062549962 0)
(0.87203159 0.00059538832 0)
(0.86805338 0.00056666929 0)
(0.864194 0.00054089697 0)
(0.86043876 0.00051633261 0)
(0.85677833 0.0004925006 0)
(0.85320752 0.0004703833 0)
(0.8497185 0.00044905312 0)
(0.84630754 0.00042826783 0)
(0.84297074 0.00040918777 0)
(0.83970256 0.00039122849 0)
(0.83650221 0.0003739688 0)
(0.8333668 0.00035787618 0)
(0.83029148 0.00034227526 0)
(0.82727542 0.00032715595 0)
(0.82431764 0.00031298671 0)
(0.82140566 0.00029963169 0)
(0.81853825 0.00028709964 0)
(0.81571875 0.00027495889 0)
(0.81294835 0.00026324968 0)
(0.81022526 0.00025216857 0)
(0.80754626 0.00024169431 0)
(0.80490182 0.00023181916 0)
(0.80229912 0.00022318876 0)
(0.79971175 0.00021311823 0)
(0.79722156 0.00020672684 0)
(0.79459814 0.00022133988 0)
(0.79239252 0.00027029723 0)
(0.78838232 0.00021159419 0)
(0.99711037 0.0020587512 0)
(0.99734115 0.0024665069 0)
(0.99767707 0.0027195349 0)
(0.99798883 0.0028480934 0)
(0.99823854 0.0029292958 0)
(0.99845407 0.0029887217 0)
(0.99865604 0.0030222985 0)
(0.99884239 0.003037596 0)
(0.99901013 0.0030437056 0)
(0.99916211 0.003045087 0)
(0.99930279 0.0030437514 0)
(0.99943581 0.0030417404 0)
(0.99956372 0.0030362019 0)
(0.99968775 0.0030275505 0)
(0.99980795 0.0030133867 0)
(0.9999241 0.0029940956 0)
(1.0000358 0.00296963 0)
(1.0001426 0.0029405132 0)
(1.0002449 0.0029081718 0)
(1.0003443 0.0028723881 0)
(1.0004406 0.0028301851 0)
(1.0005313 0.0027813969 0)
(1.0006141 0.0027284449 0)
(1.0006882 0.002673073 0)
(1.0007541 0.0026180135 0)
(1.0008137 0.0025648035 0)
(1.0008685 0.0025117324 0)
(1.0009177 0.0024586059 0)
(1.0009605 0.0024067892 0)
(1.000997 0.0023576271 0)
(1.001028 0.0023116636 0)
(1.0010543 0.0022711948 0)
(1.0010785 0.0022373847 0)
(1.0011033 0.0022078906 0)
(1.0011285 0.0021806913 0)
(1.001153 0.0021558355 0)
(1.001176 0.0021337249 0)
(1.0011973 0.0021136452 0)
(1.0012175 0.0020993194 0)
(1.00124 0.0020904552 0)
(1.0012687 0.0020801879 0)
(1.0013027 0.0020687238 0)
(1.0013284 0.0020575787 0)
(1.0013424 0.0020479417 0)
(1.0013423 0.0020435341 0)
(1.0013182 0.0020413875 0)
(1.0012453 0.0020363526 0)
(1.0010839 0.0020278478 0)
(1.0007778 0.002016451 0)
(1.000248 0.0020049563 0)
(0.99937249 0.0019910463 0)
(0.99804163 0.0019693513 0)
(0.99614741 0.0019378363 0)
(0.9936119 0.0018969295 0)
(0.99031348 0.0018480316 0)
(0.98632341 0.001787689 0)
(0.98176887 0.0017185383 0)
(0.9767669 0.0016414973 0)
(0.97144926 0.0015591044 0)
(0.96593639 0.0014793944 0)
(0.96030115 0.0014056314 0)
(0.9546088 0.0013347754 0)
(0.94893164 0.0012653886 0)
(0.94330778 0.0012009489 0)
(0.9376653 0.0011412916 0)
(0.93205742 0.0010827254 0)
(0.92654617 0.0010256433 0)
(0.92118799 0.0009721748 0)
(0.91597822 0.00092225312 0)
(0.91090264 0.00087473086 0)
(0.90595901 0.00083026719 0)
(0.90115112 0.00078916277 0)
(0.89648986 0.00074937188 0)
(0.89196996 0.00071151959 0)
(0.88758396 0.00067730873 0)
(0.88332249 0.00064488966 0)
(0.87918816 0.00061368118 0)
(0.87517622 0.00058486638 0)
(0.8712726 0.00055739169 0)
(0.86746937 0.00053086564 0)
(0.86376097 0.00050647728 0)
(0.86015398 0.00048350319 0)
(0.85664326 0.00046147486 0)
(0.85321734 0.00044098824 0)
(0.84986786 0.00042125719 0)
(0.84659223 0.00040223261 0)
(0.84338641 0.00038439435 0)
(0.84024604 0.00036760784 0)
(0.83716829 0.00035189288 0)
(0.83415007 0.0003367235 0)
(0.83118991 0.00032212532 0)
(0.82828494 0.00030834629 0)
(0.82542987 0.00029541942 0)
(0.82261326 0.00028319414 0)
(0.81984608 0.00027241183 0)
(0.81710209 0.00025988519 0)
(0.8144602 0.00025212048 0)
(0.81169028 0.00026311913 0)
(0.8093524 0.00031448394 0)
(0.80514464 0.00024760271 0)
(0.99724679 0.0020089519 0)
(0.99744485 0.0023825738 0)
(0.99773767 0.0026330162 0)
(0.99802199 0.002772366 0)
(0.99825998 0.0028612285 0)
(0.99846831 0.002927398 0)
(0.99866406 0.0029700906 0)
(0.99884637 0.0029937349 0)
(0.99901186 0.0030061537 0)
(0.99916246 0.0030116239 0)
(0.99930218 0.0030125559 0)
(0.99943438 0.0030099131 0)
(0.99956133 0.0030040217 0)
(0.99968429 0.0029935579 0)
(0.99980355 0.0029785978 0)
(0.99991884 0.0029589895 0)
(1.0000298 0.0029348237 0)
(1.0001361 0.0029066441 0)
(1.0002382 0.0028754872 0)
(1.000337 0.0028411461 0)
(1.0004326 0.0028012352 0)
(1.0005227 0.0027553362 0)
(1.0006052 0.0027054081 0)
(1.0006795 0.0026531125 0)
(1.0007457 0.002600715 0)
(1.0008057 0.0025496231 0)
(1.0008607 0.0024985834 0)
(1.0009101 0.0024473533 0)
(1.0009533 0.0023972474 0)
(1.0009903 0.0023496677 0)
(1.0010218 0.0023052613 0)
(1.0010487 0.0022659229 0)
(1.0010732 0.0022327554 0)
(1.0010979 0.002203824 0)
(1.0011229 0.0021770412 0)
(1.0011472 0.0021522576 0)
(1.0011705 0.0021300395 0)
(1.0011925 0.0021100327 0)
(1.0012138 0.0020953572 0)
(1.0012382 0.0020861379 0)
(1.0012673 0.0020762749 0)
(1.0012981 0.0020654522 0)
(1.0013283 0.0020547606 0)
(1.001357 0.0020451572 0)
(1.0013859 0.0020394902 0)
(1.0014174 0.0020357027 0)
(1.0014531 0.0020291866 0)
(1.0014944 0.0020210787 0)
(1.0015213 0.0020130006 0)
(1.0015305 0.002008628 0)
(1.0015136 0.0020057094 0)
(1.0014419 0.001998718 0)
(1.0012689 0.0019867706 0)
(1.0009289 0.0019724106 0)
(1.0003081 0.0019579171 0)
(0.99928667 0.0019387612 0)
(0.99774897 0.0019115094 0)
(0.9956085 0.0018737569 0)
(0.99269854 0.0018266162 0)
(0.9890355 0.0017706264 0)
(0.98479549 0.0017070851 0)
(0.98010293 0.001635652 0)
(0.97508003 0.001558082 0)
(0.96983077 0.0014808196 0)
(0.96443367 0.0014087527 0)
(0.95894445 0.0013399689 0)
(0.9534235 0.0012721951 0)
(0.94794935 0.0012094242 0)
(0.94242136 0.0011504803 0)
(0.9368924 0.0010921058 0)
(0.93143414 0.0010353502 0)
(0.92610637 0.00098209856 0)
(0.92090638 0.00093108321 0)
(0.91582599 0.00088255152 0)
(0.91086683 0.0008382865 0)
(0.90604114 0.00079611681 0)
(0.90136742 0.00075566083 0)
(0.89683792 0.00071853105 0)
(0.89243557 0.00068347135 0)
(0.88815745 0.00064979726 0)
(0.88400345 0.00061863638 0)
(0.87997168 0.00058919218 0)
(0.87605728 0.00056118674 0)
(0.87225247 0.00053526194 0)
(0.86854931 0.00051047127 0)
(0.86494202 0.0004867517 0)
(0.86142175 0.00046457584 0)
(0.85799311 0.00044370041 0)
(0.85465213 0.00042413751 0)
(0.85138786 0.00040536596 0)
(0.8481949 0.00038739711 0)
(0.8450686 0.00037045622 0)
(0.84200545 0.00035456846 0)
(0.8389996 0.00033957422 0)
(0.83605421 0.00032634661 0)
(0.83314073 0.00031110198 0)
(0.83033503 0.00030178994 0)
(0.82740633 0.00030911804 0)
(0.82492404 0.00036312264 0)
(0.82051074 0.00028706664 0)
(0.99737409 0.0019656968 0)
(0.99754542 0.0023076213 0)
(0.99780084 0.0025518632 0)
(0.99805892 0.0026992903 0)
(0.99828438 0.002795841 0)
(0.99848516 0.0028682124 0)
(0.99867431 0.0029178987 0)
(0.99885184 0.0029475263 0)
(0.99901447 0.0029642668 0)
(0.99916335 0.0029731943 0)
(0.99930197 0.0029770042 0)
(0.99943335 0.0029770122 0)
(0.99955952 0.0029735608 0)
(0.99968164 0.0029661542 0)
(0.99980003 0.0029543001 0)
(0.99991448 0.0029377072 0)
(1.0000247 0.0029164648 0)
(1.0001304 0.0028909786 0)
(1.0002319 0.0028619832 0)
(1.0003301 0.0028293327 0)
(1.0004248 0.002791192 0)
(1.0005142 0.002747101 0)
(1.0005964 0.0026987548 0)
(1.0006706 0.0026478661 0)
(1.0007371 0.0025964764 0)
(1.0007974 0.0025459654 0)
(1.0008526 0.0024955349 0)
(1.0009024 0.0024449823 0)
(1.000946 0.0023955056 0)
(1.0009837 0.0023484542 0)
(1.0010159 0.0023045287 0)
(1.0010437 0.0022653446 0)
(1.001069 0.0022319423 0)
(1.0010942 0.0022027222 0)
(1.0011195 0.0021757515 0)
(1.0011442 0.0021508568 0)
(1.0011677 0.0021286374 0)
(1.0011901 0.0021088832 0)
(1.0012118 0.0020941222 0)
(1.0012361 0.0020845176 0)
(1.0012645 0.0020746526 0)
(1.0012946 0.0020637956 0)
(1.0013245 0.0020529987 0)
(1.0013535 0.0020432527 0)
(1.0013831 0.0020370992 0)
(1.0014163 0.0020328252 0)
(1.0014532 0.0020262894 0)
(1.0014907 0.0020183264 0)
(1.0015266 0.002010397 0)
(1.0015621 0.0020051593 0)
(1.001601 0.0020006786 0)
(1.0016377 0.0019926107 0)
(1.0016871 0.0019816164 0)
(1.0017149 0.0019723814 0)
(1.0017185 0.0019662374 0)
(1.0016823 0.0019584196 0)
(1.0015654 0.0019462602 0)
(1.0013078 0.001931468 0)
(1.000801 0.0019157328 0)
(0.9999112 0.0018978463 0)
(0.99851801 0.0018720075 0)
(0.99652966 0.0018360246 0)
(0.99377963 0.0017891164 0)
(0.99021838 0.0017322942 0)
(0.98608971 0.0016710548 0)
(0.98154436 0.0016030376 0)
(0.97668932 0.0015298632 0)
(0.971613 0.0014570182 0)
(0.9663841 0.0013880893 0)
(0.96105173 0.0013219668 0)
(0.95567157 0.0012571028 0)
(0.95031704 0.0011965675 0)
(0.94489186 0.0011380007 0)
(0.93945126 0.0010800614 0)
(0.934068 0.0010251581 0)
(0.92879685 0.00097223794 0)
(0.92363836 0.00092165606 0)
(0.91859041 0.00087495706 0)
(0.91366106 0.00083069948 0)
(0.90887035 0.00078817589 0)
(0.90422401 0.0007487954 0)
(0.89970944 0.00071169789 0)
(0.89532397 0.00067647813 0)
(0.89107185 0.00064382442 0)
(0.88694794 0.00061282229 0)
(0.88294224 0.00058342298 0)
(0.87904524 0.000555888 0)
(0.87525934 0.00052982993 0)
(0.87158203 0.00050549791 0)
(0.86800257 0.00048237079 0)
(0.86451426 0.00046036439 0)
(0.86111033 0.00043968392 0)
(0.85778791 0.00042031874 0)
(0.85454737 0.00040204149 0)
(0.8513835 0.00038588849 0)
(0.84826459 0.00036754065 0)
(0.84526098 0.00035632397 0)
(0.84214952 0.00035971673 0)
(0.8395084 0.00041608201 0)
(0.83488075 0.00033027175 0)
(0.99749322 0.0019276539 0)
(0.99764256 0.0022405651 0)
(0.99786574 0.0024762108 0)
(0.99809919 0.0026288786 0)
(0.99831149 0.0027319454 0)
(0.99850425 0.002809396 0)
(0.99868658 0.0028647816 0)
(0.99885895 0.0029001049 0)
(0.99901839 0.0029217328 0)
(0.99916534 0.0029349246 0)
(0.99930266 0.0029423792 0)
(0.99943303 0.0029453423 0)
(0.99955824 0.0029442106 0)
(0.99967932 0.0029386901 0)
(0.99979664 0.0029282996 0)
(0.99991008 0.0029129214 0)
(1.0000194 0.0028927628 0)
(1.0001244 0.0028682389 0)
(1.0002254 0.0028399751 0)
(1.0003228 0.0028079371 0)
(1.0004166 0.002770763 0)
(1.0005054 0.0027280242 0)
(1.0005872 0.0026811695 0)
(1.0006614 0.0026318721 0)
(1.0007283 0.0025819449 0)
(1.0007889 0.0025326608 0)
(1.0008444 0.0024835288 0)
(1.0008945 0.0024343578 0)
(1.0009386 0.0023861908 0)
(1.0009769 0.0023403104 0)
(1.0010099 0.0022974761 0)
(1.0010385 0.0022590914 0)
(1.0010646 0.0022261131 0)
(1.0010904 0.0021972349 0)
(1.0011161 0.0021706997 0)
(1.0011411 0.0021462572 0)
(1.0011651 0.0021244397 0)
(1.0011879 0.0021051426 0)
(1.0012102 0.0020904117 0)
(1.0012348 0.0020804483 0)
(1.0012632 0.002070561 0)
(1.0012933 0.0020597704 0)
(1.0013232 0.0020491136 0)
(1.0013523 0.0020395903 0)
(1.001382 0.0020333823 0)
(1.0014147 0.0020290269 0)