/*--------------------------------*- C++ -*----------------------------------*\
  =========                 |
  \\      /  F ield         | OpenFOAM: The Open Source CFD Toolbox
   \\    /   O peration     | Website:  https://openfoam.org
    \\  /    A nd           | Version:  12
     \\/     M anipulation  |
\*---------------------------------------------------------------------------*/
FoamFile
{
    format      ascii;
    class       volVectorField;
    location    "1900";
    object      wallShearStress;
}
// * * * * * * * * * * * * * * * * * * * * * * * * * * * * * * * * * * * * * //

dimensions      [0 2 -2 0 0 0 0];

internalField   uniform (0 0 0);

boundaryField
{
    inlet
    {
        type            calculated;
        value           uniform (0 0 0);
    }
    top
    {
        type            calculated;
        value           uniform (0 0 0);
    }
    outlet
    {
        type            calculated;
        value           uniform (0 0 0);
    }
    slipsurface
    {
        type            calculated;
        value           uniform (0 0 0);
    }
    bottom
    {
        type            calculated;
        value           nonuniform List<vector> 
100
(
(-0.0033444927 -3.5328751e-06 0)
(-0.0032711536 -6.5135712e-06 0)
(-0.0031942437 -8.1605921e-06 0)
(-0.0031132269 -9.5854865e-06 0)
(-0.0030338477 -1.1316906e-05 0)
(-0.0029580824 -1.23262e-05 0)
(-0.0028860743 -1.2356935e-05 0)
(-0.0028176366 -1.1979655e-05 0)
(-0.0027521609 -1.1421616e-05 0)
(-0.0026890652 -1.0700476e-05 0)
(-0.002627233 -9.8949595e-06 0)
(-0.0025661859 -9.1476785e-06 0)
(-0.0025057524 -8.4569761e-06 0)
(-0.0024459593 -7.8125029e-06 0)
(-0.0023869272 -7.2070004e-06 0)
(-0.0023288652 -6.6293796e-06 0)
(-0.0022721279 -6.0493259e-06 0)
(-0.0022174401 -5.4812384e-06 0)
(-0.0021641708 -4.9731103e-06 0)
(-0.0021131344 -4.4893819e-06 0)
(-0.0020645909 -4.0268272e-06 0)
(-0.002018742 -3.586172e-06 0)
(-0.0019757865 -3.1693069e-06 0)
(-0.0019358798 -2.7793836e-06 0)
(-0.0018991487 -2.4136143e-06 0)
(-0.0018657047 -2.0729056e-06 0)
(-0.0018355326 -1.7639231e-06 0)
(-0.0018085036 -1.4862326e-06 0)
(-0.0017844418 -1.2393236e-06 0)
(-0.0017631364 -1.0261365e-06 0)
(-0.001744339 -8.4565973e-07 0)
(-0.0017277945 -6.9290807e-07 0)
(-0.0017133029 -5.6331803e-07 0)
(-0.0017006533 -4.5630696e-07 0)
(-0.0016895802 -3.6877718e-07 0)
(-0.0016797988 -3.0033984e-07 0)
(-0.0016710285 -2.5146529e-07 0)
(-0.0016630147 -2.1840775e-07 0)
(-0.0016555957 -1.9373176e-07 0)
(-0.0016486523 -1.773527e-07 0)
(-0.0016420292 -1.7068995e-07 0)
(-0.0016355675 -1.7075231e-07 0)
(-0.0016291477 -1.7555189e-07 0)
(-0.0016226858 -1.8302585e-07 0)
(-0.0016161415 -1.9105583e-07 0)
(-0.0016094863 -2.0008197e-07 0)
(-0.0016026773 -2.1196103e-07 0)
(-0.0015956224 -2.2621803e-07 0)
(-0.001588254 -2.4016024e-07 0)
(-0.0015805712 -2.518182e-07 0)
(-0.0015726057 -2.6154804e-07 0)
(-0.0015643744 -2.697682e-07 0)
(-0.0015558914 -2.7569885e-07 0)
(-0.0015472106 -2.7792051e-07 0)
(-0.0015384202 -2.7645887e-07 0)
(-0.0015295865 -2.7302738e-07 0)
(-0.0015207295 -2.68534e-07 0)
(-0.0015118542 -2.6311603e-07 0)
(-0.0015029896 -2.5654071e-07 0)
(-0.0014941684 -2.4953896e-07 0)
(-0.0014853932 -2.4284947e-07 0)
(-0.0014766675 -2.356404e-07 0)
(-0.0014680242 -2.2754724e-07 0)
(-0.0014594943 -2.1923455e-07 0)
(-0.0014510755 -2.113481e-07 0)
(-0.0014427689 -2.0318576e-07 0)
(-0.0014345924 -1.9494614e-07 0)
(-0.0014265362 -1.8761947e-07 0)
(-0.001418572 -1.8093224e-07 0)
(-0.0014106965 -1.7426275e-07 0)
(-0.0014029224 -1.6777082e-07 0)
(-0.0013952398 -1.6185435e-07 0)
(-0.0013876481 -1.5567818e-07 0)
(-0.0013801729 -1.4937247e-07 0)
(-0.0013728057 -1.4380031e-07 0)
(-0.0013655271 -1.3836213e-07 0)
(-0.0013583451 -1.3297346e-07 0)
(-0.0013512495 -1.2825128e-07 0)
(-0.0013442265 -1.235741e-07 0)
(-0.0013372931 -1.187492e-07 0)
(-0.0013304507 -1.1434755e-07 0)
(-0.0013236911 -1.0997591e-07 0)
(-0.0013170228 -1.0565362e-07 0)
(-0.0013104344 -1.0184755e-07 0)
(-0.001303913 -9.8101269e-08 0)
(-0.0012974672 -9.4390911e-08 0)
(-0.0012910977 -9.0878615e-08 0)
(-0.0012848055 -8.7395536e-08 0)
(-0.0012785865 -8.4168239e-08 0)
(-0.0012724335 -8.1049783e-08 0)
(-0.0012663483 -7.8034521e-08 0)
(-0.0012603255 -7.5214787e-08 0)
(-0.0012543674 -7.2412397e-08 0)
(-0.0012484663 -6.9816051e-08 0)
(-0.0012426315 -6.7417292e-08 0)
(-0.0012367827 -6.5055649e-08 0)
(-0.0012311756 -6.37539e-08 0)
(-0.0012250928 -1.5483848e-07 0)
(-0.0012197893 -2.8556957e-07 0)
(-0.0012117857 -2.724225e-07 0)
)
;
    }
    frontandback
    {
        type            empty;
    }
}


// ************************************************************************* //
