/*--------------------------------*- C++ -*----------------------------------*\
  =========                 |
  \\      /  F ield         | OpenFOAM: The Open Source CFD Toolbox
   \\    /   O peration     | Website:  https://openfoam.org
    \\  /    A nd           | Version:  12
     \\/     M anipulation  |
\*---------------------------------------------------------------------------*/
FoamFile
{
    format      ascii;
    class       volScalarField;
    location    "1900";
    object      yPlus;
}
// * * * * * * * * * * * * * * * * * * * * * * * * * * * * * * * * * * * * * //

dimensions      [];

internalField   uniform 0;

boundaryField
{
    inlet
    {
        type            calculated;
        value           uniform 0;
    }
    top
    {
        type            calculated;
        value           uniform 0;
    }
    outlet
    {
        type            calculated;
        value           uniform 0;
    }
    slipsurface
    {
        type            calculated;
        value           uniform 0;
    }
    bottom
    {
        type            calculated;
        value           nonuniform List<scalar> 
100
(
115.85344
114.57447
113.22082
111.7757
110.34205
108.95705
107.62325
106.33963
105.09682
103.88514
102.68389
101.48394
100.2819
99.078247
97.875384
96.6777
95.492834
94.336572
93.196502
92.091006
91.027055
90.010614
89.047791
88.143882
87.303631
86.531476
85.828898
85.194586
84.625897
84.119149
83.669505
83.271747
82.921777
82.615081
82.345672
82.106953
81.892324
81.695715
81.51328
81.342168
81.178614
81.018729
80.859565
80.699043
80.536149
80.370154
80.19997
80.023254
79.838272
79.644941
79.443997
79.235812
79.020691
78.799942
78.575778
78.34986
78.122689
77.894387
77.665687
77.437438
77.209708
76.982598
76.756969
76.533648
76.312594
76.093855
75.877929
75.664577
75.453065
75.243327
75.035714
74.829979
74.626123
74.424846
74.225946
74.028911
73.833977
73.64088
73.44926
73.259591
73.071932
72.886067
72.70225
72.520174
72.339501
72.160476
71.983135
71.807514
71.633513
71.460942
71.289863
71.120132
70.951825
70.784735
70.619132
70.452741
70.292849
70.118979
69.967052
69.737136
)
;
    }
    frontandback
    {
        type            empty;
    }
}


// ************************************************************************* //
