/*--------------------------------*- C++ -*----------------------------------*\
  =========                 |
  \\      /  F ield         | OpenFOAM: The Open Source CFD Toolbox
   \\    /   O peration     | Website:  https://openfoam.org
    \\  /    A nd           | Version:  12
     \\/     M anipulation  |
\*---------------------------------------------------------------------------*/
FoamFile
{
    format      ascii;
    class       volScalarField;
    location    "200";
    object      p;
}
// * * * * * * * * * * * * * * * * * * * * * * * * * * * * * * * * * * * * * //

dimensions      [0 2 -2 0 0 0 0];

internalField   nonuniform List<scalar> 
3000
(
13.3738081669
13.3764013491
13.3801194467
13.3855181314
13.3920869157
13.399477036
13.4074663951
13.4158890458
13.4246133936
13.433534255
13.4425659387
13.451636127
13.4606812601
13.4696435244
13.4784692866
13.4871086974
13.4955161067
13.5036509116
13.5114784928
13.518970977
13.526107659
13.5328750492
13.5392666643
13.5452825431
13.5509272601
13.5562050267
13.5611240078
13.5657509426
13.5702576393
13.5743877665
12.6784858479
12.6779768137
12.6738339024
12.6679877581
12.661004905
12.6532347943
12.644968365
12.6364566034
12.627918148
12.6195441845
12.6114990836
12.6039186656
12.5969080718
12.590540509
12.584857537
12.5798710793
12.5755669565
12.5719095062
12.5688467574
12.5663156546
12.5642469203
12.5625692697
12.5612128182
12.5601116762
12.5592059745
12.5584433969
12.557777933
12.5571612775
12.5565453164
12.5559934468
12.7403115477
12.7400939404
12.7402250712
12.7408543394
12.7416657142
12.7425233062
12.7433743571
12.7441919093
12.7449606209
12.7456721188
12.7463217087
12.7469063116
12.7474235509
12.7478715793
12.7482492837
12.7485566138
12.7487948683
12.7489668406
12.7490767884
12.7491302377
12.7491336644
12.749094112
12.749018798
12.7489147747
12.7487887193
12.7486467756
12.7484937097
12.7483309714
12.7481613345
12.7480220843
12.4183011045
12.4185864393
12.4176261684
12.416196461
12.4145382771
12.4128044644
12.4111051912
12.4095156025
12.4080820965
12.4068280484
12.4057589149
12.404867122
12.4041366579
12.4035470606
12.4030765516
12.4027042171
12.4024113034
12.4021817951
12.4020024917
12.4018627826
12.4017542799
12.401670417
12.4016060728
12.4015572473
12.4015207991
12.4014942694
12.4014758267
12.4014640305
12.4014563553
12.4014475165
12.3281737136
12.3282986853
12.3284469447
12.3288265139
12.3293164985
12.3298470875
12.3303825684
12.3308993356
12.3313802205
12.3318134879
12.3321922094
12.3325135787
12.332778166
12.3329891101
12.3331512943
12.3332705878
12.3333532148
12.3334052833
12.3334324705
12.3334398424
12.3334317785
12.333411967
12.3333834478
12.333348682
12.3333096497
12.3332679405
12.3332246425
12.3331799048
12.3331341168
12.3330965548
12.1437895725
12.1439350195
12.1436253987
12.1431989084
12.1427178399
12.1422247369
12.141751897
12.1413190581
12.1409358347
12.1406049062
12.1403245196
12.1400903652
12.1398969271
12.1397383797
12.1396091259
12.1395040824
12.1394188022
12.1393494984
12.1392930136
12.1392467606
12.1392086502
12.139177017
12.1391505468
12.1391282107
12.1391092092
12.1390929351
12.1390789296
12.1390667113
12.1390555023
12.1390453486
12.0149239281
12.0150363305
12.0150529304
12.015136049
12.0152523767
12.0153813929
12.0155133557
12.0156413621
12.01576
12.0158655398
12.0159558981
12.016030381
12.0160893539
12.0161339082
12.0161655679
12.016186056
12.0161971258
12.0162004483
12.0161975468
12.0161897638
12.0161782523
12.0161639811
12.0161477487
12.0161302036
12.0161118714
12.0160931812
12.0160744175
12.016055523
12.0160364609
12.0160205853
11.8657585164
11.8658453809
11.8657418806
11.8656144442
11.8654764097
11.8653371656
11.8652052948
11.8650857793
11.8649805912
11.8648898598
11.8648126698
11.8647475707
11.8646929092
11.8646470368
11.8646084288
11.8645757429
11.8645478386
11.864523774
11.8645027879
11.8644842768
11.8644677695
11.8644529027
11.8644393986
11.8644270458
11.8644156859
11.8644052068
11.8643955142
11.8643864218
11.8643776393
11.8643700096
11.7319202475
11.7319877857
11.7319729563
11.7319779993
11.7319930135
11.7320120214
11.7320331095
11.73205478
11.7320755445
11.7320942013
11.7321099411
11.7321223256
11.7321312244
11.7321367391
11.7321391301
11.7321387529
11.7321360079
11.7321313028
11.7321250283
11.732117542
11.7321091604
11.7321001561
11.7320907586
11.7320811568
11.7320715069
11.7320619402
11.732052539
11.7320432355
11.7320339452
11.7320261257
11.5943060939
11.5943570778
11.594316192
11.5942718063
11.5942261026
11.5941808669
11.5941387026
11.5941010452
11.5940682574
11.5940401104
11.5940160912
11.5939955788
11.5939779491
11.5939626347
11.5939491511
11.5939371033
11.5939261811
11.5939161478
11.593906828
11.5938980949
11.5938898591
11.5938820591
11.5938746528
11.5938676124
11.5938609204
11.5938545701
11.5938485484
11.5938427696
11.5938371052
11.5938322421
11.4615658913
11.4616051672
11.4615903167
11.4615824162
11.4615780024
11.4615751029
11.4615735763
11.4615731997
11.4615735146
11.4615740357
11.4615743574
11.4615741855
11.4615733379
11.4615717298
11.4615693536
11.4615662568
11.4615625218
11.4615582504
11.4615535512
11.4615485309
11.4615432893
11.4615379158
11.4615324876
11.4615270699
11.4615217181
11.4615164804
11.461511385
11.4615063849
11.4615014166
11.4614972069
11.328652032
11.3286817728
11.3286628338
11.3286444796
11.3286265429
11.328609143
11.3285932091
11.3285792216
11.3285672008
11.3285569396
11.3285481451
11.3285405127
11.3285337651
11.3285276714
11.3285220512
11.3285167712
11.3285117389
11.3285068934
11.3285021986
11.3284976355
11.3284931972
11.3284888842
11.3284847012
11.3284806548
11.3284767531
11.3284730062
11.3284694166
11.3284659402
11.3284625131
11.3284595817
11.197574076
11.197596895
11.1975866045
11.1975792147
11.1975732832
11.1975680482
11.1975636762
11.1975601995
11.197557449
11.1975551905
11.1975531998
11.1975512923
11.1975493327
11.1975472341
11.1975449511
11.1975424706
11.1975398024
11.1975369715
11.1975340111
11.1975309579
11.1975278485
11.1975247175
11.1975215957
11.1975185098
11.1975154828
11.197512536
11.1975096806
11.1975068878
11.1975041181
11.1975017616
11.066916442
11.0669337677
11.0669239429
11.066915139
11.0669068843
11.0668990128
11.0668919157
11.0668857822
11.0668805757
11.0668761574
11.0668723587
11.0668690171
11.0668659932
11.0668631775
11.0668604906
11.0668578791
11.0668553107
11.066852769
11.066850249
11.066847753
11.0668452879
11.0668428626
11.0668404867
11.0668381696
11.0668359202
11.0668337477
11.0668316559
11.066829621
11.0668276094
11.0668258896
10.937082669
10.937095894
10.9370894379
10.9370843889
10.9370800518
10.9370760833
10.9370726434
10.937069791
10.9370674513
10.937065499
10.9370638052
10.937062258
10.9370607704
10.9370592815
10.9370577538
10.9370561687
10.937054522
10.9370528189
10.9370510706
10.9370492918
10.937047498
10.9370457045
10.9370439252
10.9370421727
10.9370404578
10.9370387908
10.9370371771
10.9370355997
10.9370340359
10.9370327012
10.8076315488
10.8076415724
10.8076361238
10.8076314473
10.8076271739
10.8076231489
10.8076195618
10.8076164989
10.807613926
10.8076117569
10.8076098936
10.8076082444
10.8076067334
10.8076053028
10.8076039121
10.807602536
10.8076011608
10.8075997812
10.8075983979
10.8075970152
10.8075956395
10.8075942778
10.8075929371
10.8075916239
10.8075903443
10.8075891042
10.8075879064
10.8075867378
10.8075855805
10.8075845899
10.6786021036
10.6786097033
10.6786057967
10.6786026391
10.6785998656
10.6785973049
10.6785950661
10.678593193
10.6785916471
10.6785903576
10.6785892491
10.6785882545
10.6785873206
10.6785864086
10.6785854935
10.6785845612
10.6785836061
10.6785826287
10.6785816331
10.6785806254
10.6785796131
10.6785786034
10.6785776033
10.6785766188
10.6785756556
10.678574719
10.6785738115
10.6785729237
10.678572043
10.6785712892
10.5498333986
10.5498391266
10.5498360027
10.5498333731
10.5498310024
10.5498287895
10.5498268343
10.5498251805
10.5498238041
10.5498226532
10.5498216698
10.549820801
10.5498200034
10.5498192444
10.5498185015
10.549817761
10.5498170159
10.5498162638
10.5498155057
10.5498147445
10.5498139842
10.549813229
10.5498124831
10.5498117504
10.5498110344
10.5498103386
10.5498096647
10.5498090055
10.5498083516
10.5498077905
10.4212973255
10.4213016312
10.4212993048
10.421297395
10.4212957033
10.4212941407
10.4212927746
10.4212916321
10.4212906915
10.4212899116
10.4212892477
10.4212886601
10.4212881166
10.4212875934
10.4212870749
10.4212865516
10.4212860192
10.4212854769
10.4212849263
10.42128437
10.4212838117
10.4212832549
10.4212827031
10.4212821595
10.421281627
10.4212811083
10.4212806047
10.4212801111
10.4212796209
10.4212791999
10.292923798
10.2929270151
10.2929252006
10.2929236829
10.2929223238
10.2929210645
10.2929199606
10.2929190347
10.2929182714
10.2929176397
10.2929171052
10.2929166369
10.2929162093
10.2929158036
10.2929154066
10.2929150104
10.2929146109
10.2929142065
10.2929137978
10.2929133862
10.292912974
10.2929125635
10.2929121569
10.2929117564
10.292911364
10.2929109815
10.2929106098
10.2929102452
10.2929098829
10.2929095711
10.1646829289
10.1646853208
10.1646839501
10.1646828141
10.1646818048
10.164680876
10.1646800674
10.1646793944
10.1646788443
10.1646783925
10.1646780129
10.1646776817
10.1646773796
10.1646770925
10.1646768105
10.1646765278
10.1646762414
10.1646759503
10.1646756549
10.1646753565
10.1646750568
10.1646747574
10.1646744602
10.1646741668
10.1646738787
10.1646735972
10.1646733232
10.1646730538
10.1646727858
10.1646725547
10.0365394733
10.0365412395
10.0365401849
10.0365393026
10.0365385151
10.0365377911
10.0365371615
10.0365366382
10.0365362116
10.0365358629
10.0365355721
10.0365353207
10.0365350938
10.0365348802
10.0365346723
10.0365344651
10.0365342562
10.0365340444
10.0365338299
10.0365336134
10.0365333959
10.0365331786
10.0365329628
10.0365327495
10.0365325397
10.0365323345
10.0365321344
10.0365319373
10.0365317411
10.0365315714
9.90847229393
9.90847358908
9.90847279039
9.90847212364
9.90847153086
9.90847098881
9.90847052016
9.90847013323
9.90846982021
9.90846956663
9.90846935698
9.90846917724
9.90846901603
9.90846886482
9.90846871773
9.90846857109
9.9084684229
9.90846827236
9.90846811948
9.90846796475
9.90846780894
9.90846765291
9.90846749751
9.90846734356
9.90846719181
9.90846704301
9.90846689754
9.90846675399
9.9084666108
9.9084664867
9.78046207577
9.78046301768
9.78046240945
9.78046189878
9.78046144414
9.78046102964
9.78046067247
9.78046037873
9.78046014237
9.7804599523
9.78045979663
9.78045966459
9.78045954743
9.78045943854
9.78045933336
9.78045922896
9.7804591237
9.78045901687
9.78045890835
9.78045879844
9.7804586876
9.78045857642
9.78045846548
9.78045835535
9.78045824655
9.78045813962
9.78045803483
9.78045793119
9.78045782764
9.78045773765
9.65249545127
9.65249613026
9.65249567144
9.65249528592
9.65249494345
9.6524946329
9.65249436684
9.65249414951
9.65249397607
9.65249383801
9.65249372621
9.65249363248
9.65249355013
9.65249347416
9.65249340105
9.65249332856
9.65249325541
9.65249318102
9.65249310525
9.65249302828
9.65249295043
9.6524928721
9.6524927937
9.65249271563
9.65249263828
9.65249256204
9.65249248708
9.65249241274
9.65249233834
9.65249227347
9.52456142179
9.52456190631
9.52456156047
9.52456126869
9.52456100953
9.52456077554
9.52456057606
9.52456041404
9.52456028572
9.52456018457
9.52456010365
9.52456003672
9.52455997868
9.5245599257
9.52455987508
9.52455982507
9.52455977465
9.52455972333
9.52455967096
9.52455961762
9.52455956351
9.52455950891
9.52455945408
9.52455939931
9.52455934487
9.52455929102
9.52455923792
9.52455918509
9.52455913211
9.52455908575
9.39665193061
9.39665227255
9.39665201384
9.39665179513
9.39665160123
9.39665142715
9.39665127967
9.39665116078
9.39665106751
9.39665099487
9.39665093758
9.39665089093
9.39665085106
9.39665081505
9.39665078086
9.39665074715
9.39665071314
9.39665067841
9.39665064284
9.39665060645
9.39665056939
9.39665053181
9.39665049392
9.39665045592
9.39665041799
9.39665038032
9.39665034304
9.39665030581
9.39665026839
9.39665023553
9.26876065917
9.2687608975
9.26876070479
9.26876054135
9.26876039659
9.26876026733
9.2687601585
9.2687600714
9.26876000371
9.26875995166
9.26875991126
9.26875987893
9.26875985178
9.2687598276
9.26875980484
9.26875978248
9.2687597599
9.26875973678
9.26875971298
9.26875968853
9.26875966349
9.26875963798
9.26875961213
9.26875958607
9.26875955995
9.26875953389
9.26875950798
9.26875948202
9.26875945584
9.26875943276
9.14088289523
9.14088305905
9.1408829166
9.1408827955
9.14088268844
9.14088259344
9.14088251401
9.14088245098
9.14088240254
9.14088236583
9.14088233786
9.14088231594
9.14088229791
9.14088228211
9.14088226738
9.14088225295
9.14088223834
9.1408822233
9.14088220772
9.14088219159
9.14088217496
9.14088215791
9.14088214052
9.14088212289
9.14088210512
9.14088208729
9.14088206948
9.14088205155
9.14088203342
9.14088201736
9.01301503958
9.01301515044
9.01301504584
9.01301495667
9.01301487797
9.01301480857
9.01301475096
9.01301470565
9.01301467124
9.01301464557
9.0130146264
9.01301461176
9.01301460001
9.01301458992
9.01301458064
9.01301457157
9.01301456236
9.01301455281
9.01301454284
9.01301453242
9.01301452158
9.01301451037
9.01301449885
9.0130144871
9.01301447516
9.01301446312
9.01301445102
9.01301443878
9.01301442636
9.0130144153
8.88515440882
8.88515448253
8.88515440638
8.88515434131
8.88515428401
8.88515423382
8.88515419249
8.8851541603
8.88515413617
8.88515411849
8.88515410561
8.88515409606
8.88515408863
8.88515408243
8.8851540768
8.88515407133
8.88515406573
8.88515405987
8.88515405366
8.88515404709
8.88515404018
8.88515403295
8.88515402546
8.88515401774
8.88515400984
8.88515400182
8.8851539937
8.88515398544
8.88515397703
8.88515396949
8.7572989929
8.75729904093
8.75729898597
8.7572989389
8.75729889754
8.75729886156
8.75729883218
8.75729880953
8.75729879279
8.75729878078
8.75729877226
8.75729876617
8.75729876163
8.75729875797
8.75729875472
8.75729875158
8.75729874833
8.75729874486
8.75729874113
8.75729873711
8.75729873281
8.75729872826
8.75729872347
8.75729871849
8.75729871335
8.75729870808
8.75729870271
8.7572986972
8.75729869157
8.7572986865
8.62944730798
8.62944733856
8.62944729929
8.62944726558
8.62944723604
8.62944721053
8.62944718989
8.62944717415
8.62944716271
8.62944715468
8.62944714917
8.62944714541
8.62944714276
8.62944714074
8.629447139
8.62944713733
8.62944713556
8.62944713363
8.62944713148
8.62944712911
8.62944712652
8.62944712372
8.62944712073
8.62944711758
8.62944711429
8.62944711088
8.62944710738
8.62944710376
8.62944710004
8.62944709667
8.50159826312
8.50159828207
8.5015982543
8.50159823042
8.50159820955
8.50159819167
8.50159817733
8.50159816653
8.50159815882
8.50159815354
8.50159815006
8.50159814782
8.50159814637
8.50159814536
8.50159814454
8.50159814375
8.50159814289
8.5015981419
8.50159814074
8.5015981394
8.5015981379
8.50159813623
8.50159813441
8.50159813246
8.5015981304
8.50159812823
8.50159812598
8.50159812364
8.50159812121
8.501598119
8.3737510658
8.37375107715
8.37375105775
8.37375104104
8.37375102647
8.37375101409
8.37375100426
8.37375099696
8.37375099184
8.37375098844
8.37375098631
8.37375098504
8.37375098432
8.3737509839
8.37375098361
8.37375098334
8.373750983
8.37375098256
8.37375098199
8.37375098129
8.37375098046
8.3737509795
8.37375097843
8.37375097725
8.37375097598
8.37375097463
8.37375097321
8.37375097172
8.37375097016
8.37375096873
8.24590514523
8.24590515175
8.24590513836
8.24590512681
8.24590511678
8.24590510832
8.24590510168
8.24590509681
8.24590509347
8.24590509132
8.24590509006
8.24590508939
8.2459050891
8.24590508901
8.245905089
8.245905089
8.24590508894
8.24590508881
8.24590508858
8.24590508825
8.24590508782
8.2459050873
8.24590508669
8.24590508599
8.24590508523
8.24590508441
8.24590508353
8.24590508259
8.24590508161
8.2459050807
8.11806009533
8.11806009888
8.11806008977
8.1180600819
8.11806007509
8.11806006939
8.11806006497
8.11806006178
8.11806005964
8.11806005832
8.1180600576
8.11806005729
8.11806005723
8.1180600573
8.11806005743
8.11806005754
8.11806005762
8.11806005764
8.11806005759
8.11806005747
8.11806005727
8.118060057
8.11806005667
8.11806005628
8.11806005584
8.11806005534
8.11806005481
8.11806005423
8.11806005362
8.11806005305
7.99021563054
7.99021563232
7.99021562622
7.99021562093
7.99021561638
7.99021561261
7.99021560971
7.99021560765
7.99021560631
7.99021560552
7.99021560514
7.99021560503
7.99021560508
7.99021560521
7.99021560538
7.99021560554
7.99021560567
7.99021560576
7.99021560579
7.99021560577
7.9902156057
7.99021560558
7.99021560541
7.99021560519
7.99021560494
7.99021560465
7.99021560434
7.99021560399
7.99021560362
7.99021560327
7.86237155294
7.86237155372
7.86237154969
7.86237154621
7.86237154321
7.86237154075
7.86237153889
7.86237153759
7.86237153677
7.86237153631
7.86237153613
7.86237153611
7.86237153621
7.86237153635
7.86237153652
7.86237153668
7.86237153681
7.86237153691
7.86237153698
7.862371537
7.86237153699
7.86237153695
7.86237153687
7.86237153676
7.86237153662
7.86237153646
7.86237153628
7.86237153607
7.86237153585
7.86237153564
7.73452772706
7.73452772731
7.7345277247
7.73452772243
7.7345277205
7.73452771893
7.73452771775
7.73452771695
7.73452771646
7.7345277162
7.73452771612
7.73452771616
7.73452771626
7.73452771639
7.73452771653
7.73452771666
7.73452771678
7.73452771688
7.73452771694
7.73452771699
7.734527717
7.734527717
7.73452771696
7.73452771691
7.73452771684
7.73452771675
7.73452771665
7.73452771653
7.7345277164
7.73452771628
7.606684062
7.606684062
7.60668406034
7.6066840589
7.60668405768
7.60668405669
7.60668405597
7.60668405548
7.60668405519
7.60668405506
7.60668405504
7.60668405508
7.60668405517
7.60668405528
7.60668405539
7.6066840555
7.60668405559
7.60668405567
7.60668405573
7.60668405577
7.60668405579
7.6066840558
7.60668405579
7.60668405577
7.60668405574
7.60668405569
7.60668405563
7.60668405557
7.60668405549
7.60668405542
7.47884049741
7.47884049731
7.47884049628
7.47884049538
7.47884049463
7.47884049402
7.47884049358
7.4788404933
7.47884049314
7.47884049307
7.47884049307
7.47884049312
7.47884049319
7.47884049327
7.47884049335
7.47884049343
7.4788404935
7.47884049356
7.4788404936
7.47884049364
7.47884049366
7.47884049367
7.47884049368
7.47884049367
7.47884049365
7.47884049363
7.4788404936
7.47884049357
7.47884049352
7.47884049348
7.35099699446
7.35099699433
7.3509969937
7.35099699316
7.3509969927
7.35099699234
7.35099699208
7.35099699192
7.35099699183
7.3509969918
7.35099699182
7.35099699185
7.35099699191
7.35099699196
7.35099699202
7.35099699208
7.35099699212
7.35099699217
7.3509969922
7.35099699223
7.35099699224
7.35099699226
7.35099699226
7.35099699226
7.35099699226
7.35099699224
7.35099699223
7.35099699221
7.35099699219
7.35099699217
7.22315352815
7.22315352804
7.22315352767
7.22315352735
7.22315352708
7.22315352687
7.22315352672
7.22315352663
7.22315352659
7.22315352658
7.22315352659
7.22315352662
7.22315352665
7.22315352669
7.22315352673
7.22315352677
7.2231535268
7.22315352683
7.22315352685
7.22315352687
7.22315352688
7.22315352689
7.2231535269
7.2231535269
7.2231535269
7.22315352689
7.22315352689
7.22315352688
7.22315352687
7.22315352685
7.09531008329
7.09531008321
7.09531008299
7.09531008281
7.09531008265
7.09531008254
7.09531008245
7.09531008241
7.09531008238
7.09531008238
7.09531008239
7.09531008241
7.09531008244
7.09531008246
7.09531008249
7.09531008251
7.09531008253
7.09531008255
7.09531008256
7.09531008258
7.09531008259
7.09531008259
7.0953100826
7.0953100826
7.0953100826
7.0953100826
7.09531008259
7.09531008259
7.09531008258
7.09531008258
6.96746665036
6.9674666503
6.96746665018
6.96746665007
6.96746664999
6.96746664992
6.96746664988
6.96746664985
6.96746664984
6.96746664985
6.96746664985
6.96746664987
6.96746664988
6.9674666499
6.96746664991
6.96746664993
6.96746664994
6.96746664995
6.96746664996
6.96746664997
6.96746664997
6.96746664998
6.96746664998
6.96746664998
6.96746664998
6.96746664998
6.96746664998
6.96746664998
6.96746664998
6.96746664998
6.83962322407
6.83962322403
6.83962322397
6.83962322391
6.83962322387
6.83962322383
6.83962322381
6.8396232238
6.8396232238
6.8396232238
6.8396232238
6.83962322381
6.83962322382
6.83962322383
6.83962322384
6.83962322385
6.83962322386
6.83962322386
6.83962322387
6.83962322387
6.83962322388
6.83962322388
6.83962322388
6.83962322388
6.83962322388
6.83962322388
6.83962322388
6.83962322388
6.83962322388
6.83962322388
6.71177980111
6.71177980108
6.71177980105
6.71177980102
6.711779801
6.71177980098
6.71177980097
6.71177980096
6.71177980096
6.71177980096
6.71177980097
6.71177980097
6.71177980098
6.71177980098
6.71177980099
6.71177980099
6.711779801
6.711779801
6.711779801
6.71177980101
6.71177980101
6.71177980101
6.71177980101
6.71177980101
6.71177980101
6.71177980101
6.71177980101
6.71177980101
6.71177980101
6.71177980101
6.58393637997
6.58393637996
6.58393637994
6.58393637993
6.58393637992
6.58393637991
6.58393637991
6.58393637991
6.5839363799
6.58393637991
6.58393637991
6.58393637991
6.58393637991
6.58393637992
6.58393637992
6.58393637992
6.58393637992
6.58393637992
6.58393637993
6.58393637993
6.58393637993
6.58393637993
6.58393637993
6.58393637993
6.58393637993
6.58393637993
6.58393637993
6.58393637993
6.58393637993
6.58393637993
6.45609295953
6.45609295952
6.45609295951
6.45609295951
6.4560929595
6.4560929595
6.4560929595
6.45609295949
6.45609295949
6.45609295949
6.4560929595
6.4560929595
6.4560929595
6.4560929595
6.4560929595
6.4560929595
6.4560929595
6.4560929595
6.4560929595
6.45609295951
6.45609295951
6.45609295951
6.45609295951
6.45609295951
6.45609295951
6.45609295951
6.45609295951
6.45609295951
6.45609295951
6.45609295951
6.32824953954
6.32824953953
6.32824953953
6.32824953953
6.32824953953
6.32824953953
6.32824953952
6.32824953952
6.32824953952
6.32824953953
6.32824953953
6.32824953953
6.32824953953
6.32824953953
6.32824953953
6.32824953953
6.32824953953
6.32824953953
6.32824953953
6.32824953953
6.32824953953
6.32824953953
6.32824953953
6.32824953953
6.32824953953
6.32824953953
6.32824953953
6.32824953953
6.32824953953
6.32824953953
6.20040611962
6.20040611962
6.20040611961
6.20040611961
6.20040611961
6.20040611961
6.20040611961
6.20040611961
6.20040611961
6.20040611961
6.20040611961
6.20040611961
6.20040611961
6.20040611961
6.20040611961
6.20040611961
6.20040611961
6.20040611961
6.20040611962
6.20040611962
6.20040611962
6.20040611962
6.20040611962
6.20040611962
6.20040611962
6.20040611962
6.20040611962
6.20040611962
6.20040611962
6.20040611962
6.07256269984
6.07256269984
6.07256269984
6.07256269984
6.07256269984
6.07256269984
6.07256269984
6.07256269984
6.07256269984
6.07256269984
6.07256269984
6.07256269984
6.07256269984
6.07256269984
6.07256269984
6.07256269984
6.07256269984
6.07256269984
6.07256269984
6.07256269984
6.07256269984
6.07256269984
6.07256269984
6.07256269984
6.07256269984
6.07256269984
6.07256269984
6.07256269984
6.07256269984
6.07256269984
5.94471928004
5.94471928003
5.94471928003
5.94471928003
5.94471928003
5.94471928003
5.94471928003
5.94471928003
5.94471928003
5.94471928003
5.94471928003
5.94471928003
5.94471928003
5.94471928003
5.94471928003
5.94471928003
5.94471928003
5.94471928003
5.94471928003
5.94471928003
5.94471928003
5.94471928003
5.94471928003
5.94471928003
5.94471928003
5.94471928003
5.94471928003
5.94471928003
5.94471928003
5.94471928003
5.8168758603
5.8168758603
5.8168758603
5.8168758603
5.8168758603
5.8168758603
5.8168758603
5.8168758603
5.8168758603
5.8168758603
5.8168758603
5.8168758603
5.8168758603
5.8168758603
5.8168758603
5.8168758603
5.8168758603
5.8168758603
5.8168758603
5.8168758603
5.8168758603
5.8168758603
5.8168758603
5.8168758603
5.8168758603
5.8168758603
5.8168758603
5.8168758603
5.8168758603
5.8168758603
5.68903244053
5.68903244053
5.68903244053
5.68903244053
5.68903244053
5.68903244053
5.68903244053
5.68903244053
5.68903244053
5.68903244053
5.68903244054
5.68903244054
5.68903244054
5.68903244054
5.68903244054
5.68903244054
5.68903244054
5.68903244054
5.68903244054
5.68903244054
5.68903244054
5.68903244054
5.68903244054
5.68903244054
5.68903244054
5.68903244054
5.68903244054
5.68903244054
5.68903244054
5.68903244054
5.56118902085
5.56118902085
5.56118902085
5.56118902085
5.56118902085
5.56118902085
5.56118902085
5.56118902085
5.56118902085
5.56118902085
5.56118902085
5.56118902085
5.56118902085
5.56118902085
5.56118902085
5.56118902085
5.56118902085
5.56118902085
5.56118902085
5.56118902085
5.56118902085
5.56118902085
5.56118902085
5.56118902085
5.56118902085
5.56118902085
5.56118902085
5.56118902085
5.56118902085
5.56118902085
5.43334560115
5.43334560115
5.43334560115
5.43334560115
5.43334560115
5.43334560115
5.43334560115
5.43334560115
5.43334560115
5.43334560115
5.43334560115
5.43334560115
5.43334560115
5.43334560115
5.43334560115
5.43334560115
5.43334560115
5.43334560115
5.43334560115
5.43334560115
5.43334560115
5.43334560115
5.43334560115
5.43334560115
5.43334560115
5.43334560115
5.43334560115
5.43334560115
5.43334560115
5.43334560115
5.3055021815
5.3055021815
5.3055021815
5.3055021815
5.3055021815
5.3055021815
5.30550218149
5.30550218149
5.30550218149
5.30550218149
5.30550218149
5.30550218149
5.30550218149
5.30550218149
5.30550218149
5.30550218149
5.30550218149
5.30550218149
5.30550218149
5.30550218149
5.30550218149
5.30550218149
5.30550218149
5.30550218149
5.30550218149
5.30550218149
5.30550218149
5.30550218149
5.30550218149
5.30550218149
5.17765876185
5.17765876185
5.17765876185
5.17765876185
5.17765876185
5.17765876185
5.17765876185
5.17765876185
5.17765876185
5.17765876185
5.17765876185
5.17765876185
5.17765876185
5.17765876185
5.17765876185
5.17765876185
5.17765876185
5.17765876185
5.17765876185
5.17765876185
5.17765876185
5.17765876185
5.17765876185
5.17765876185
5.17765876185
5.17765876185
5.17765876185
5.17765876185
5.17765876185
5.17765876185
5.04981534218
5.04981534218
5.04981534218
5.04981534218
5.04981534218
5.04981534218
5.04981534218
5.04981534218
5.04981534218
5.04981534218
5.04981534218
5.04981534218
5.04981534218
5.04981534218
5.04981534218
5.04981534218
5.04981534218
5.04981534218
5.04981534218
5.04981534218
5.04981534218
5.04981534218
5.04981534218
5.04981534218
5.04981534218
5.04981534218
5.04981534218
5.04981534218
5.04981534218
5.04981534218
4.92197192258
4.92197192258
4.92197192258
4.92197192258
4.92197192258
4.92197192258
4.92197192258
4.92197192258
4.92197192258
4.92197192258
4.92197192258
4.92197192258
4.92197192258
4.92197192258
4.92197192258
4.92197192258
4.92197192258
4.92197192258
4.92197192258
4.92197192258
4.92197192258
4.92197192258
4.92197192258
4.92197192258
4.92197192258
4.92197192258
4.92197192258
4.92197192258
4.92197192258
4.92197192258
4.79412850292
4.79412850291
4.79412850291
4.79412850291
4.79412850291
4.79412850291
4.79412850291
4.79412850291
4.79412850291
4.79412850291
4.79412850291
4.79412850291
4.79412850291
4.79412850291
4.79412850291
4.79412850291
4.79412850291
4.79412850291
4.79412850291
4.79412850291
4.79412850291
4.79412850291
4.79412850291
4.79412850291
4.79412850291
4.79412850291
4.79412850291
4.79412850291
4.79412850291
4.79412850291
4.66628508329
4.66628508329
4.66628508329
4.66628508329
4.66628508329
4.66628508329
4.66628508329
4.66628508329
4.66628508329
4.66628508329
4.66628508329
4.66628508329
4.66628508329
4.66628508329
4.66628508329
4.66628508329
4.66628508329
4.66628508329
4.66628508329
4.66628508329
4.66628508329
4.66628508329
4.66628508329
4.66628508329
4.66628508329
4.66628508329
4.66628508329
4.66628508329
4.66628508329
4.66628508329
4.53844166357
4.53844166357
4.53844166357
4.53844166357
4.53844166357
4.53844166357
4.53844166357
4.53844166357
4.53844166357
4.53844166357
4.53844166357
4.53844166357
4.53844166357
4.53844166357
4.53844166357
4.53844166357
4.53844166357
4.53844166357
4.53844166358
4.53844166358
4.53844166358
4.53844166358
4.53844166358
4.53844166358
4.53844166358
4.53844166358
4.53844166358
4.53844166358
4.53844166358
4.53844166358
4.41059824392
4.41059824392
4.41059824392
4.41059824392
4.41059824392
4.41059824392
4.41059824392
4.41059824392
4.41059824392
4.41059824392
4.41059824392
4.41059824392
4.41059824392
4.41059824392
4.41059824392
4.41059824392
4.41059824392
4.41059824392
4.41059824392
4.41059824392
4.41059824392
4.41059824392
4.41059824392
4.41059824392
4.41059824392
4.41059824392
4.41059824392
4.41059824392
4.41059824392
4.41059824392
4.28275482418
4.28275482418
4.28275482418
4.28275482418
4.28275482418
4.28275482418
4.28275482418
4.28275482418
4.28275482418
4.28275482418
4.28275482417
4.28275482417
4.28275482417
4.28275482417
4.28275482417
4.28275482417
4.28275482417
4.28275482417
4.28275482417
4.28275482417
4.28275482417
4.28275482417
4.28275482417
4.28275482417
4.28275482417
4.28275482417
4.28275482417
4.28275482417
4.28275482417
4.28275482417
4.15491140448
4.15491140448
4.15491140448
4.15491140448
4.15491140448
4.15491140448
4.15491140448
4.15491140448
4.15491140448
4.15491140448
4.15491140448
4.15491140448
4.15491140448
4.15491140448
4.15491140448
4.15491140448
4.15491140448
4.15491140448
4.15491140448
4.15491140448
4.15491140448
4.15491140448
4.15491140448
4.15491140448
4.15491140448
4.15491140448
4.15491140448
4.15491140448
4.15491140448
4.15491140448
4.02706798463
4.02706798463
4.02706798463
4.02706798463
4.02706798463
4.02706798463
4.02706798463
4.02706798463
4.02706798463
4.02706798463
4.02706798463
4.02706798463
4.02706798463
4.02706798463
4.02706798463
4.02706798463
4.02706798463
4.02706798463
4.02706798463
4.02706798463
4.02706798463
4.02706798463
4.02706798463
4.02706798463
4.02706798463
4.02706798463
4.02706798463
4.02706798463
4.02706798463
4.02706798463
3.89922456487
3.89922456487
3.89922456487
3.89922456487
3.89922456487
3.89922456487
3.89922456487
3.89922456487
3.89922456488
3.89922456488
3.89922456488
3.89922456488
3.89922456488
3.89922456488
3.89922456488
3.89922456488
3.89922456488
3.89922456488
3.89922456488
3.89922456488
3.89922456488
3.89922456488
3.89922456488
3.89922456488
3.89922456488
3.89922456488
3.89922456488
3.89922456488
3.89922456488
3.89922456488
3.77138114499
3.77138114499
3.77138114499
3.77138114499
3.77138114499
3.77138114499
3.77138114499
3.77138114499
3.77138114499
3.77138114499
3.77138114499