/*--------------------------------*- C++ -*----------------------------------*\
  =========                 |
  \\      /  F ield         | OpenFOAM: The Open Source CFD Toolbox
   \\    /   O peration     | Website:  https://openfoam.org
    \\  /    A nd           | Version:  12
     \\/     M anipulation  |
\*---------------------------------------------------------------------------*/
FoamFile
{
    format      ascii;
    class       volVectorField;
    location    "200";
    object      U;
}
// * * * * * * * * * * * * * * * * * * * * * * * * * * * * * * * * * * * * * //

dimensions      [0 1 -1 0 0 0 0];

internalField   nonuniform List<vector> 
3000
(
(1.15245025471 -0.00996572389923 -1.2516798101e-10)
(1.15318442019 -0.0254593761594 -1.71527710879e-10)
(1.15521497323 -0.0400104069217 -1.51024776851e-10)
(1.15799855198 -0.0540945984553 -1.26721005241e-10)
(1.16102972469 -0.0671659879334 -1.07137180014e-10)
(1.16374809296 -0.0791823778243 -9.22463807814e-11)
(1.16550811305 -0.09011960237 -8.09770109296e-11)
(1.16556722945 -0.0999052769928 -7.2228337714e-11)
(1.1631093835 -0.108434908811 -6.50743588649e-11)
(1.15729379936 -0.115593417925 -5.92879111923e-11)
(1.14731506238 -0.121273067321 -5.40965933714e-11)
(1.13246149852 -0.125388342743 -4.95056187113e-11)
(1.11216194911 -0.12788680044 -4.52537749818e-11)
(1.08601533676 -0.128755111995 -4.12048362751e-11)
(1.05380178763 -0.128020403036 -3.76856774732e-11)
(1.01547748977 -0.125747647815 -3.41058101352e-11)
(0.971157446578 -0.122034226303 -3.07470304477e-11)
(0.921090876986 -0.117002825466 -2.75173139814e-11)
(0.865633589661 -0.110793748445 -2.41749639142e-11)
(0.805220672997 -0.103557468483 -2.10846059046e-11)
(0.740341693699 -0.0954480014684 -1.85468581226e-11)
(0.671519548438 -0.0866174131581 -1.60403498988e-11)
(0.599293300872 -0.0772115339773 -1.34548348871e-11)
(0.524204792964 -0.067366805598 -1.12436872214e-11)
(0.446788522357 -0.0572084484701 -9.20593131848e-12)
(0.367564177638 -0.0468507341557 -7.21212269085e-12)
(0.287031232039 -0.0363978249066 -5.34627075569e-12)
(0.205664952823 -0.0259328433872 -3.64429053337e-12)
(0.12391310926 -0.0154879041414 -2.07146193137e-12)
(0.0421934228386 -0.00507603808608 -6.82455657722e-13)
(1.43177221379 -0.00537610855309 -1.23673028044e-10)
(1.43345684341 -0.0129892955943 -2.20182656687e-10)
(1.43661307766 -0.0188405599374 -2.28231384077e-10)
(1.44000285909 -0.0247403818167 -2.11515362859e-10)
(1.44220229959 -0.0302871773157 -1.89661025006e-10)
(1.44162310962 -0.0352243986512 -1.68728633784e-10)
(1.43660003762 -0.0393586845475 -1.50371851673e-10)
(1.42552379597 -0.0425380736191 -1.34554538899e-10)
(1.40699645885 -0.0446604654531 -1.20804982552e-10)
(1.37997481924 -0.0456834123904 -1.0882121383e-10)
(1.3438722104 -0.0456262435143 -9.80118006851e-11)
(1.29860255326 -0.0445650130938 -8.82757233418e-11)
(1.24456486306 -0.0426219288808 -7.93097915281e-11)
(1.18257792268 -0.0399514583823 -7.10626842888e-11)
(1.11378142835 -0.036725467834 -6.35212833689e-11)
(1.0395216517 -0.0331193981954 -5.64677727703e-11)
(0.961237731835 -0.0293008363748 -4.9958579393e-11)
(0.880360692171 -0.0254211411422 -4.39317054759e-11)
(0.798232601886 -0.0216101923731 -3.8319452223e-11)
(0.716048978724 -0.0179739226016 -3.3197977521e-11)
(0.634824112482 -0.0145940689068 -2.85720253333e-11)
(0.555376660862 -0.011529519729 -2.43081609827e-11)
(0.478331573797 -0.00881867763398 -2.03776096649e-11)
(0.404133949631 -0.00648235212143 -1.68148673971e-11)
(0.333070585647 -0.00452675549623 -1.35558331645e-11)
(0.265295535048 -0.0029462424463 -1.05702677296e-11)
(0.200856727988 -0.00172606398022 -7.84138157903e-12)
(0.139721469844 -0.000846905545806 -5.34942363192e-12)
(0.0817992569406 -0.000290977439744 -3.07068232138e-12)
(0.0269610786355 -2.43553429553e-05 -9.87036232346e-13)
(1.55140048066 -0.00451890048811 -1.16125696695e-10)
(1.5510547685 -0.0119694242467 -2.25339677016e-10)
(1.54926806855 -0.0188787019042 -2.54610854996e-10)
(1.54435227125 -0.0248833530129 -2.50130545493e-10)
(1.5342907909 -0.0295700613138 -2.3235811231e-10)
(1.51708134416 -0.0329000801387 -2.10594194293e-10)
(1.49102128781 -0.0349006611039 -1.88880325292e-10)
(1.45494255874 -0.0356409910988 -1.68689686965e-10)
(1.40836470315 -0.0352414818193 -1.50370289931e-10)
(1.35154310288 -0.03387029062 -1.33987079955e-10)
(1.28541199587 -0.031728888305 -1.1919723482e-10)
(1.2114438196 -0.0290331152653 -1.05954044612e-10)
(1.13145973343 -0.0259942868382 -9.39734487949e-11)
(1.04742886914 -0.0228035576537 -8.31891838235e-11)
(0.96128783084 -0.0196213439096 -7.34765233526e-11)
(0.874800988402 -0.0165721933857 -6.46690969648e-11)
(0.789470094581 -0.0137444249472 -5.6714475624e-11)
(0.706491621329 -0.0111932776208 -4.95169176364e-11)
(0.626753479392 -0.00894616677018 -4.29850491052e-11)
(0.5508596797 -0.00700880289981 -3.70906768346e-11)
(0.479171361251 -0.00537123695365 -3.1777139918e-11)
(0.411854395547 -0.00401323612032 -2.69498551501e-11)
(0.348926433577 -0.00290869246605 -2.25595040651e-11)
(0.290298976619 -0.00202898546118 -1.85799867121e-11)
(0.235812338582 -0.00134534759523 -1.49581121499e-11)
(0.185263024763 -0.000830370709729 -1.16567420422e-11)
(0.138424084226 -0.000459004542719 -8.64582941401e-12)
(0.0950595194941 -0.000209614312956 -5.89754117722e-12)
(0.0549340090194 -6.4438110252e-05 -3.38567324311e-12)
(0.0178191079876 -1.77558816428e-06 -1.08785084264e-12)
(1.67589739343 -0.00280512551156 -9.20758225847e-11)
(1.67252623697 -0.00678272292164 -1.91212331414e-10)
(1.66442245053 -0.00968411726715 -2.29898431652e-10)
(1.65008163048 -0.0120653626104 -2.37103067794e-10)
(1.6276835041 -0.0137104805487 -2.28059942399e-10)
(1.59575103992 -0.014567780981 -2.11559052525e-10)
(1.55347057499 -0.0146731565333 -1.92425222708e-10)
(1.50083137214 -0.0141264024759 -1.73086978999e-10)
(1.43860096767 -0.0130709582714 -1.54667560061e-10)
(1.3681699141 -0.011670517475 -1.3768657801e-10)
(1.29132075965 -0.0100861909114 -1.22194658014e-10)
(1.20998174355 -0.00845871256401 -1.08226145254e-10)
(1.12601475302 -0.00689778709771 -9.56574160512e-11)
(1.04106638764 -0.00547853820297 -8.43848560835e-11)
(0.956489116322 -0.00424357924139 -7.42799180958e-11)
(0.873322953948 -0.00320860416728 -6.52091652905e-11)
(0.792319517815 -0.00236946185518 -5.70605663592e-11)
(0.713989047856 -0.0017091526695 -4.97372033903e-11)
(0.63865444657 -0.00120379268506 -4.31400360617e-11)
(0.566501782624 -0.000827135341089 -3.71950570476e-11)
(0.497621893676 -0.000553631855628 -3.18289923441e-11)
(0.432041622334 -0.000360237844706 -2.69730640655e-11)
(0.369745575865 -0.000227265210332 -2.25722357835e-11)
(0.310690360961 -0.000138581062152 -1.85793313016e-11)
(0.254813435537 -8.14096247574e-05 -1.49507242149e-11)
(0.202038442834 -4.59221376682e-05 -1.16480241209e-11)
(0.152278442393 -2.4722094667e-05 -8.63806383247e-12)
(0.105438002512 -1.23350522198e-05 -5.89144072628e-12)
(0.061414750093 -5.00709448305e-06 -3.38201718307e-12)
(0.0201006938013 -1.33459091516e-06 -1.08664034532e-12)
(1.7479080132 -0.00234360641201 -7.85359769613e-11)
(1.7408245471 -0.00597941134177 -1.66392785819e-10)
(1.72509383552 -0.00894702840606 -2.05965497581e-10)
(1.70011960401 -0.0112394001113 -2.18167977409e-10)
(1.66494072814 -0.0126807526554 -2.145052977e-10)
(1.61908999912 -0.0133232824108 -2.02325945125e-10)
(1.56283458151 -0.0132924572059 -1.86238608423e-10)
(1.49715745173 -0.012742509863 -1.68886385841e-10)
(1.42358169335 -0.0118329710686 -1.51714363565e-10)
(1.34392782632 -0.0107099837742 -1.35496214623e-10)
(1.26007909296 -0.0094937294086 -1.20485048932e-10)
(1.17380184702 -0.00827337697943 -1.0683509706e-10)
(1.0866375729 -0.00710828092699 -9.44790930152e-11)
(0.999859604993 -0.00603299354378 -8.33673887081e-11)
(0.914475716005 -0.00506371718914 -7.33926030031e-11)
(0.831256101924 -0.0042044793426 -6.44228438066e-11)
(0.750770715406 -0.0034521113922 -5.63650657877e-11)
(0.673426147949 -0.00279976914049 -4.91152708682e-11)
(0.599497626583 -0.00223914152649 -4.25818527921e-11)
(0.529155152573 -0.00176167053419 -3.66958782724e-11)
(0.462484485819 -0.00135912303589 -3.13882071904e-11)
(0.399504152011 -0.00102379254494 -2.6586796744e-11)
(0.340179518086 -0.000748522863946 -2.22368024523e-11)
(0.284434660155 -0.000526667038582 -1.8294937336e-11)
(0.232162454418 -0.00035203404421 -1.47156396391e-11)
(0.183233129296 -0.000218842335658 -1.14602387314e-11)
(0.137501422327 -0.000121727718329 -8.49581155634e-12)
(0.0948124559219 -5.59060994966e-05 -5.79285138897e-12)
(0.0550064508959 -1.72898778078e-05 -3.32475103601e-12)
(0.0179224070676 -5.41657953488e-07 -1.06810585567e-12)
(1.81036596507 -0.0016117907196 -6.35142886094e-11)
(1.79980275444 -0.00394583967044 -1.39055232635e-10)
(1.77736019119 -0.00559672768825 -1.76841697875e-10)
(1.74367190792 -0.00676455745636 -1.91715792695e-10)
(1.69883305565 -0.00737473936118 -1.92131671951e-10)
(1.64336044845 -0.00749142073952 -1.84067050507e-10)
(1.57833372526 -0.00722435299006 -1.71540852535e-10)
(1.50528708599 -0.00669269777154 -1.57069037731e-10)
(1.42600396429 -0.00600571803856 -1.42158356749e-10)
(1.34230983323 -0.00525215511519 -1.27677394004e-10)
(1.25591450239 -0.00449667096394 -1.14025649464e-10)
(1.16831869568 -0.00378151072072 -1.01424123812e-10)
(1.08077649956 -0.00313085912222 -8.99034619657e-11)
(0.994296066532 -0.00255582306543 -7.94604862411e-11)
(0.909661435111 -0.00205883553624 -7.00229104915e-11)
(0.827463047289 -0.00163702448986 -6.15055981429e-11)
(0.748129637872 -0.00128455494708 -5.38258412162e-11)
(0.671957912598 -0.000994155193629 -4.69046331978e-11)
(0.599138627033 -0.000758071151465 -4.06608843622e-11)
(0.529778760821 -0.00056864820443 -3.50293542998e-11)
(0.463919950626 -0.000418677389671 -2.99468897063e-11)
(0.401553534541 -0.000301591118649 -2.53516178043e-11)
(0.342632637635 -0.00021155949287 -2.11929334522e-11)
(0.287081752957 -0.000143518826366 -1.74261594106e-11)
(0.234804263323 -9.3152959515e-05 -1.40091165501e-11)
(0.185688313996 -5.684027161e-05 -1.09045644152e-11)
(0.139611393093 -3.15796222238e-05 -8.08135554619e-12)
(0.0964439143893 -1.49353027413e-05 -5.50850720582e-12)
(0.0560520359171 -5.0582115562e-06 -3.16087272557e-12)
(0.0182998825288 -5.65309995642e-07 -1.01528151137e-12)
(1.85294134577 -0.00127781427222 -5.27900549431e-11)
(1.83931111607 -0.00319559659184 -1.17427350163e-10)
(1.81105096925 -0.00462906795198 -1.52038883066e-10)
(1.77007257399 -0.00564420581938 -1.67436411344e-10)
(1.71747344993 -0.00618959324157 -1.70202394887e-10)
(1.6545524818 -0.00633543028605 -1.6507324355e-10)
(1.58290967199 -0.00617988155948 -1.55442687208e-10)
(1.50433977949 -0.00581835999431 -1.43553787891e-10)
(1.42067562991 -0.00533192727356 -1.30830317323e-10)
(1.33365384459 -0.00478337870051 -1.18149639882e-10)
(1.2448283661 -0.00421771711452 -1.05966196693e-10)
(1.15553007849 -0.0036650009058 -9.45562353299e-11)
(1.0668599213 -0.00314388591673 -8.40089480966e-11)
(0.979701989997 -0.00266487749913 -7.43607521856e-11)
(0.894746371573 -0.00223292087322 -6.55858036228e-11)
(0.812515261269 -0.00184930761203 -5.76319002899e-11)
(0.73338881207 -0.00151301572614 -5.0439262477e-11)
(0.657628998629 -0.0012216257715 -4.39409526725e-11)
(0.585400813217 -0.000971934982634 -3.80768844213e-11)
(0.516790656845 -0.000760361571078 -3.27849945085e-11)
(0.451822057232 -0.000583205438963 -2.80108121522e-11)
(0.390468961048 -0.000436812166472 -2.36958546741e-11)
(0.332666882853 -0.00031767313231 -1.97941302922e-11)
(0.278322186908 -0.000222484017427 -1.6264514021e-11)
(0.227319755154 -0.000148174782519 -1.30670393346e-11)
(0.179529267836 -9.19191936911e-05 -1.01658821992e-11)
(0.134810297951 -5.11462012988e-05 -7.52979715715e-12)
(0.0930163977606 -2.36018752163e-05 -5.13069497013e-12)
(0.0539983360339 -7.40565323194e-06 -2.94331367e-12)
(0.0176066163137 -3.28045652113e-07 -9.45227866636e-13)
(1.88674306483 -0.000921284560084 -4.30740217013e-11)
(1.8707032621 -0.00226542231817 -9.79270856353e-11)
(1.83798217109 -0.00320883984221 -1.29083291013e-10)
(1.79158217811 -0.00385118270559 -1.442950571e-10)
(1.73339730295 -0.00416786095785 -1.48545235982e-10)
(1.66528074411 -0.00421424121075 -1.45638175824e-10)
(1.58915159739 -0.00406203944587 -1.38398986969e-10)
(1.50693152426 -0.00377831293178 -1.28782022318e-10)
(1.42044910222 -0.00341845509888 -1.18089100119e-10)
(1.33136336779 -0.00302463866486 -1.07152270252e-10)
(1.24111994777 -0.00262683270576 -9.6457171415e-11)
(1.15093618374 -0.0022449533094 -8.63017268589e-11)
(1.06180660027 -0.00189120685191 -7.68163343049e-11)
(0.974520504357 -0.00157216891226 -6.80695274459e-11)
(0.889685597122 -0.00129046176854 -6.00661987274e-11)
(0.807753541607 -0.00104604189675 -5.2788452342e-11)
(0.7290450014 -0.000837158214393 -4.61884964398e-11)
(0.653772747486 -0.00066104846809 -4.02194787457e-11)
(0.582062150584 -0.000514433433884 -3.48276796455e-11)
(0.513968838884 -0.000393857789457 -2.99625514448e-11)
(0.449493585862 -0.000295916400521 -2.55776145078e-11)
(0.388594653846 -0.000217396290293 -2.16194848513e-11)
(0.331197896788 -0.000155357769434 -1.80455276041e-11)
(0.27720494783 -0.000107172698712 -1.48161723201e-11)
(0.226499805526 -7.05328434676e-05 -1.18954858801e-11)
(0.178954102464 -4.34371265224e-05 -9.24854743595e-12)
(0.134431301702 -2.41696186426e-05 -6.84658401476e-12)
(0.0927900264431 -1.12958297911e-05 -4.66310416251e-12)
(0.0538866915942 -3.68502708722e-06 -2.67430742505e-12)
(0.0175775601208 -2.90388915924e-07 -8.58753312615e-13)
(1.9110953312 -0.000709656778647 -3.55677703873e-11)
(1.89318578311 -0.00176248571377 -8.20404873041e-11)
(1.85701463687 -0.00252579537813 -1.09677118761e-10)
(1.80645281462 -0.00305375603185 -1.24067799022e-10)
(1.74400335041 -0.00332647319481 -1.29037083636e-10)
(1.67191930935 -0.00338750956496 -1.27624281611e-10)
(1.59233699146 -0.00329185582535 -1.22173337524e-10)
(1.5072594423 -0.00309024233842 -1.14366551292e-10)
(1.41850989204 -0.00282458000123 -1.05366418321e-10)
(1.32769486187 -0.00252712961238 -9.59656276176e-11)
(1.23618721544 -0.00222125933435 -8.66227132818e-11)
(1.14512747363 -0.00192291749288 -7.7646557962e-11)
(1.05543805528 -0.00164225968926 -6.91913057608e-11)
(0.967845037398 -0.00138513723194 -6.13479262054e-11)
(0.88290318023 -0.00115433610883 -5.41437027146e-11)
(0.801021297124 -0.000950549560298 -4.75685811732e-11)
(0.722486194878 -0.000773108936974 -4.15986529089e-11)
(0.647484260244 -0.000620513083801 -3.61956397142e-11)
(0.576120341681 -0.000490799107136 -3.13152938922e-11)
(0.508433924373 -0.000381793636108 -2.69153334615e-11)
(0.444412785045 -0.0002912772657 -2.29516945378e-11)
(0.384004396633 -0.000217087899362 -1.93796759636e-11)
(0.327125375065 -0.000157182328287 -1.61595329497e-11)
(0.273669249265 -0.000109669865051 -1.32554800472e-11)
(0.223512809611 -7.2826849302e-05 -1.06330012286e-11)
(0.176521259848 -4.50976715289e-05 -8.26075411894e-12)
(0.132552367629 -2.50938126838e-05 -6.11164266968e-12)
(0.0914597808997 -1.16159583327e-05 -4.16067896302e-12)
(0.0530956531609 -3.68018046885e-06 -2.38539705863e-12)
(0.0173126843956 -1.95212370355e-07 -7.65812150662e-13)
(1.92990726611 -0.00052614552283 -2.92275395978e-11)
(1.91059836322 -0.00129777828345 -6.84941873229e-11)
(1.87185681141 -0.00184413348307 -9.27829237957e-11)
(1.81821063473 -0.00221767801689 -1.06114650515e-10)
(1.75261553276 -0.00240521592186 -1.11360729064e-10)
(1.67761703795 -0.00243885645883 -1.10962200594e-10)
(1.59550955054 -0.00235899609004 -1.06866828338e-10)
(1.50835662879 -0.00220299659768 -1.00520365563e-10)
(1.41797955466 -0.0020018014522 -9.2954261996e-11)
(1.32594771254 -0.00177924904996 -8.48821291538e-11)
(1.23358030608 -0.00155256622442 -7.6754573686e-11)
(1.14195933346 -0.00133342277372 -6.88729418028e-11)
(1.05195051063 -0.00112913127015 -6.14029414796e-11)
(0.964228444397 -0.000943762248041 -5.44420028664e-11)
(0.879303057247 -0.00077908055694 -4.80287351353e-11)
(0.797545207006 -0.000635283923952 -4.2168150563e-11)
(0.719210283706 -0.000511560208287 -3.68425878911e-11)
(0.64445919037 -0.000406493259458 -3.20250480074e-11)
(0.573376533328 -0.000318349343537 -2.76741659389e-11)
(0.505986102035 -0.00024527289528 -2.37578514282e-11)
(0.442263857175 -0.000185415329183 -2.02341384569e-11)
(0.382148708358 -0.000137015552454 -1.70644918902e-11)
(0.325551379138 -9.84464064752e-05 -1.42121431352e-11)
(0.272361645789 -6.8237594251e-05 -1.16447738329e-11)
(0.222454210879 -4.50823715805e-05 -9.33171960371e-12)
(0.175693441482 -2.78328446958e-05 -7.24379713972e-12)
(0.131937169662 -1.54912832173e-05 -5.35555899225e-12)
(0.091039721864 -7.21413848076e-06 -3.64397444227e-12)
(0.0528543166421 -2.32681607922e-06 -2.08832859529e-12)
(0.0172349297346 -1.59927434077e-07 -6.70165495902e-13)
(1.94388841569 -0.000403037569599 -2.41751134972e-11)
(1.92352065704 -0.000998829077619 -5.73475218915e-11)
(1.88282718001 -0.00142786105267 -7.85406495073e-11)
(1.82683250069 -0.0017241152592 -9.06092265622e-11)
(1.75883390455 -0.00187648479762 -9.57762944866e-11)
(1.68159824676 -0.00190935178916 -9.59957736261e-11)
(1.59754097001 -0.0018535733766 -9.28848039016e-11)
(1.50877343537 -0.00173777249425 -8.76805309438e-11)
(1.41711715031 -0.00158574865163 -8.12881309951e-11)
(1.324114443 -0.00141592045927 -7.43667694435e-11)
(1.23104451592 -0.00124166892463 -6.73203668952e-11)
(1.13894567881 -0.00107212370609 -6.04421123003e-11)
(1.04864170808 -0.000913073122652 -5.38797774876e-11)
(0.960769805936 -0.000767816041225 -4.77504630473e-11)
(0.875808097555 -0.000637878886906 -4.20938369252e-11)
(0.794101296198 -0.000523580847696 -3.69191435407e-11)
(0.715883792058 -0.000424459040609 -3.22176729787e-11)
(0.641299880836 -0.000339576589038 -2.79661328563e-11)
(0.570421148655 -0.000267738607462 -2.41336814021e-11)
(0.503261201937 -0.000207638809708 -2.0687988213e-11)
(0.439788014024 -0.000157955559566 -1.75944884493e-11)
(0.379934186601 -0.00011741208713 -1.48178403789e-11)
(0.323605418341 -8.48119520351e-05 -1.23255237354e-11)
(0.270687450261 -5.90577543516e-05 -1.00876005658e-11)
(0.221051727441 -3.91583407024e-05 -8.07547303128e-12)
(0.174559985863 -2.42279256611e-05 -6.26276990548e-12)
(0.131067943817 -1.34833963923e-05 -4.62672213024e-12)
(0.0904282502198 -6.25350928853e-06 -3.14624269195e-12)
(0.0524928189756 -1.99223605741e-06 -1.80239778889e-12)
(0.0171146404803 -1.15461340983e-07 -5.78294372921e-13)
(1.95462338106 -0.000304002128512 -1.99829129753e-11)
(1.93345939172 -0.000751267825084 -4.79705867267e-11)
(1.89129593591 -0.00107029289533 -6.62957827311e-11)
(1.83353159663 -0.00128957151407 -7.71266442343e-11)
(1.76372173356 -0.00140093474873 -8.20214613995e-11)
(1.68480139427 -0.0014226921619 -8.26014434988e-11)
(1.5992787611 -0.00137809773113 -8.02152149063e-11)
(1.50930230431 -0.0012887804315 -7.5922556073e-11)
(1.41669416301 -0.00117273659026 -7.05178898272e-11)
(1.32297620003 -0.00104387812449 -6.45755542644e-11)
(1.22939701083 -0.000912283994986 -5.8479018524e-11)
(1.13696122942 -0.000784797659825 -5.24918993541e-11)
(1.0464600155 -0.00066572124633 -4.67707299625e-11)
(0.958501122604 -0.000557465410768 -4.1419936224e-11)
(0.873537235129 -0.000461096026714 -3.64735479707e-11)
(0.791891743505 -0.000376765176589 -3.19508341281e-11)
(0.713781566569 -0.0003040357861 -2.78428984745e-11)
(0.639336950339 -0.000242117489064 -2.4130519501e-11)
(0.568618377644 -0.000190032601863 -2.07919575649e-11)
(0.501630836056 -0.000146729207472 -1.77939188807e-11)
(0.438335741416 -0.00011115537419 -1.51088770234e-11)
(0.378660823551 -8.23055035003e-05 -1.27042253801e-11)
(0.322508267474 -5.92471566898e-05 -1.05515797965e-11)
(0.269761377439 -4.11345008083e-05 -8.62316560169e-12)
(0.220290000318 -2.72125461517e-05 -6.89483868619e-12)
(0.173954913551 -1.68149440066e-05 -5.34149805187e-12)
(0.130611353297 -9.35978877052e-06 -3.94296837073e-12)
(0.0901118311801 -4.3532404365e-06 -2.67956513378e-12)
(0.0523083646299 -1.39821288713e-06 -1.53431450016e-12)
(0.0170542067351 -9.10301644138e-08 -4.92072255806e-13)
(1.96273454366 -0.000232738262528 -1.65604628388e-11)
(1.9409655261 -0.000576399803094 -4.01538660291e-11)
(1.89768076782 -0.000823360598208 -5.59820379699e-11)
(1.83856359894 -0.000993766768984 -6.55063707695e-11)
(1.76736651012 -0.00108109651429 -7.00053216404e-11)
(1.6871534969 -0.00109934975988 -7.07615767821e-11)
(1.60050413051 -0.00106635719616 -6.89018243333e-11)
(1.50959562131 -0.000998717006393 -6.53323637378e-11)
(1.41625079958 -0.000910251623901 -6.07452679543e-11)
(1.3219759945 -0.000811658155259 -5.56476481789e-11)
(1.22799650852 -0.000710698360943 -5.03862370946e-11)
(1.13529140715 -0.000612654820111 -4.52006011019e-11)
(1.04462721466 -0.000520862128802 -4.02365369059e-11)
(0.956589618694 -0.000437204713144 -3.55835764783e-11)
(0.871612442594 -0.000362535780774 -3.12849938522e-11)
(0.790003467019 -0.000297007505366 -2.73586487818e-11)
(0.711966987572 -0.000240319426403 -2.37977366201e-11)
(0.637623212564 -0.000191898521705 -2.05859136607e-11)
(0.567024739443 -0.000151025526826 -1.77050119942e-11)
(0.500170414236 -0.00011692070067 -1.5125300786e-11)
(0.437016898186 -8.87999560903e-05 -1.28207970693e-11)
(0.377488256769 -6.59099051606e-05 -1.07617496055e-11)
(0.321483862573 -4.75482740433e-05 -8.92383517065e-12)
(0.268884872332 -3.30743788927e-05 -7.28242150703e-12)
(0.219559505645 -2.1912784942e-05 -5.81512315671e-12)
(0.173367321643 -1.35522067819e-05 -4.50016337253e-12)
(0.130162661374 -7.54319358527e-06 -3.31868918616e-12)
(0.0897973978241 -3.50229139279e-06 -2.25365399058e-12)
(0.0521231136399 -1.1189954453e-06 -1.28977910146e-12)
(0.0169927881548 -6.77785025348e-08 -4.13496952402e-13)
(1.96895005214 -0.000176914657529 -1.37180843241e-11)
(1.94672204031 -0.000437648908109 -3.35705641783e-11)
(1.90258435572 -0.000624214121809 -4.7170519609e-11)
(1.84243759054 -0.000752588841835 -5.54750559043e-11)
(1.77018490374 -0.000817890599994 -5.95286145393e-11)
(1.688988977 -0.000830784137651 -6.03448393874e-11)
(1.60148406518 -0.000804856069865 -5.8870884261e-11)
(1.50986939878 -0.000752759089743 -5.58821747835e-11)
(1.41596832627 -0.000685025567981 -5.19803351583e-11)
(1.32127524554 -0.000609796969815 -4.76107562368e-11)
(1.22699755285 -0.000532969244021 -4.30817730434e-11)
(1.13409461721 -0.000458542750482 -3.86078320636e-11)
(1.04331391836 -0.000389029499283 -3.43213055051e-11)
(0.955223998019 -0.000325834550898 -3.03036671678e-11)
(0.870243924885 -0.000269576850921 -2.65962523951e-11)
(0.788669172262 -0.000220342050287 -2.32118020161e-11)
(0.710694004172 -0.000177872751798 -2.01493477889e-11)
(0.636430602239 -0.000141706513729 -1.73937539155e-11)
(0.565925244657 -0.000111272735549 -1.49288356759e-11)
(0.499171879365 -8.59584666101e-05 -1.27277373347e-11)
(0.436123432643 -6.51514314675e-05 -1.07679621255e-11)
(0.376701174051 -4.82667726061e-05 -9.02131149322e-12)
(0.320802429152 -3.47624376131e-05 -7.46781645977e-12)
(0.268306897759 -2.41468195918e-05 -6.08425552728e-12)
(0.219081801677 -1.59810912392e-05 -4.85177443697e-12)
(0.17298605454 -9.87785540693e-06 -3.75002687662e-12)
(0.129873617961 -5.4987252959e-06 -2.76271283678e-12)
(0.0895961826875 -2.55649754862e-06 -1.87465013533e-12)
(0.0520052919068 -8.19900207067e-07 -1.07229239426e-12)
(0.0169539852392 -5.24092976552e-08 -3.43638719636e-13)
(1.9736770327 -0.000135259069458 -1.13769377115e-11)
(1.95109937896 -0.000334953792484 -2.80723036599e-11)
(1.90630941772 -0.000478285467057 -3.9670604139e-11)
(1.8453743497 -0.000576995035397 -4.68594988175e-11)
(1.77231300331 -0.000627299513182 -5.04217861102e-11)
(1.69036381971 -0.000637381583686 -5.12171861503e-11)
(1.60220301878 -0.000617666667479 -5.00197293351e-11)
(1.5100467092 -0.000577861425634 -4.75128473171e-11)
(1.41571860833 -0.000526044102259 -4.41909405846e-11)
(1.32070393397 -0.000468457714372 -4.04465171361e-11)
(1.22619633559 -0.000409622298707 -3.65656872108e-11)
(1.13314009285 -0.000352603941468 -3.27248711535e-11)
(1.04226813775 -0.000299327690175 -2.90437657819e-11)
(0.954135966876 -0.000250870545532 -2.55954233642e-11)
(0.869151481229 -0.000207707839177 -2.24200141631e-11)
(0.787600895888 -0.000169907241977 -1.95234768319e-11)
(0.709670977644 -0.000137274573904 -1.6910712611e-11)
(0.635467944456 -0.000109459376484 -1.45661112006e-11)
(0.565033397502 -8.60288446879e-05 -1.24722468943e-11)
(0.498357659954 -6.65178913778e-05 -1.06090244961e-11)
(0.435390878598 -5.04617690754e-05 -8.95544856271e-12)
(0.376052214064 -3.74162795577e-05 -7.4886787575e-12)
(0.320237410395 -2.69693719054e-05 -6.18790461829e-12)
(0.267824998292 -1.87468971749e-05 -5.03375833269e-12)
(0.218681351624 -1.24143757578e-05 -4.00806551662e-12)
(0.172664785368 -7.67601039407e-06 -3.09386688228e-12)
(0.129628855224 -4.27296978334e-06 -2.27684520943e-12)
(0.0894249942712 -1.98527151835e-06 -1.54367046848e-12)
(0.0519046011215 -6.35320619717e-07 -8.82455357652e-13)
(0.0169206558063 -3.94641448449e-08 -2.82682770759e-13)
(1.97729069583 -0.000102981690328 -9.42101811368e-12)
(1.95444727902 -0.000254933129481 -2.34234477063e-11)
(1.90915955581 -0.0003637811985 -3.32739870795e-11)
(1.84762254917 -0.000438580750231 -3.94543374722e-11)
(1.77394387951 -0.000476482784808 -4.25570592952e-11)
(1.69142010291 -0.000483751453013 -4.32879734191e-11)
(1.6027595895 -0.000468360856726 -4.23080404102e-11)
(1.51019133322 -0.000437732876213 -4.01808484265e-11)
(1.41553926583 -0.000398039093913 -3.73507295471e-11)
(1.32028149527 -0.000354042441161 -3.41549091899e-11)
(1.22560106018 -0.000309184439398 -3.08315359046e-11)
(1.13243059928 -0.00026579266326 -2.75449516271e-11)
(1.0414918151 -0.000225321529006 -2.43985994048e-11)
(0.953330120766 -0.000188577463415 -2.145573218e-11)
(0.868344767544 -0.000155908053273 -1.87483234605e-11)
(0.786814782548 -0.000127350851712 -1.62898006684e-11)
(0.708921098743 -0.000102745117947 -1.40753294393e-11)
(0.634765287562 -8.18126476957e-05 -1.20950538293e-11)
(0.564385308864 -6.42143133307e-05 -1.03320058258e-11)
(0.497768675423 -4.95882827726e-05 -8.76913808869e-12)
(0.434863398654 -3.75748438977e-05 -7.38541592557e-12)
(0.375587044793 -2.78316908116e-05 -6.16261019422e-12)
(0.319834192088 -2.00425880602e-05 -5.08140720493e-12)
(0.267482541405 -1.39215421612e-05 -4.12558587073e-12)
(0.218397897314 -9.21391835367e-06 -3.27910008281e-12)
(0.172438205179 -5.69546261565e-06 -2.52754683764e-12)
(0.129456802083 -3.1707424281e-06 -1.85789883746e-12)
(0.0893050147857 -1.47421661616e-06 -1.25849700423e-12)
(0.0518342173276 -4.72651930265e-07 -7.18981135423e-13)
(0.0168974228834 -3.01696819238e-08 -2.30212853268e-13)
(1.98004093496 -7.85019195777e-05 -7.78850767968e-12)
(1.95699549076 -0.00019445646226 -1.9490846606e-11)
(1.91132744335 -0.000277625197175 -2.78391830551e-11)
(1.84933002552 -0.000334740591573 -3.31016002449e-11)
(1.77517912585 -0.000363626558503 -3.57795929637e-11)
(1.69221593583 -0.000369089333236 -3.64282966285e-11)
(1.60317347573 -0.000357241992565 -3.56092082382e-11)
(1.51029057394 -0.000333770926009 -3.38022510826e-11)
(1.41539126241 -0.000303400648563 -3.13910156187e-11)
(1.3199481327 -0.000269773218932 -2.86656251338e-11)
(1.22513603415 -0.000235516383718 -2.58313650882e-11)
(1.13187864514 -0.000202403787451 -2.30312654438e-11)
(1.04088904584 -0.000171540459032 -2.03551272262e-11)
(0.952704928596 -0.000143536028242 -1.78575253879e-11)
(0.867718943615 -0.000118650054798 -1.55629089236e-11)
(0.786204653534 -9.69061994626e-05 -1.3488767361e-11)
(0.708338574741 -7.81778044646e-05 -1.16241448432e-11)
(0.634218775491 -6.22496609254e-05 -9.96191587537e-12)
(0.563880480172 -4.88610899832e-05 -8.48803299349e-12)
(0.497309095369 -3.77349577984e-05 -7.18569584511e-12)
(0.434451032968 -2.85964340113e-05 -6.03759860647e-12)
(0.375222662234 -2.11844712573e-05 -5.02590740279e-12)
(0.319517681076 -1.5258251545e-05 -4.13520340552e-12)
(0.26721315701 -1.06002338778e-05 -3.35119856367e-12)
(0.218174452481 -7.01690276014e-06 -2.65864363899e-12)
(0.172259217658 -4.33795243282e-06 -2.0463264292e-12)
(0.129320606308 -2.41506051027e-06 -1.50235539831e-12)
(0.0892098460808 -1.1226649017e-06 -1.01670149918e-12)
(0.0517782742845 -3.59662843417e-07 -5.80457185165e-13)
(0.0168789126475 -2.27568150832e-08 -1.85769835134e-13)
(1.98213576419 -5.96384703378e-05 -6.42841309275e-12)
(1.95893719792 -0.000147738940285 -1.61902360446e-11)
(1.91297921499 -0.000210872406071 -2.31996064023e-11)
(1.85063046302 -0.000254137335205 -2.76781790712e-11)
(1.77611929018 -0.000275895111351 -2.99542965829e-11)
(1.69282114285 -0.000279826418287 -3.05088051335e-11)
(1.60348791538 -0.000270606625878 -2.98154150514e-11)
(1.51036591943 -0.000252581742837 -2.82749064815e-11)
(1.41527919596 -0.000229358229575 -2.6222101155e-11)
(1.31969604138 -0.000203711256156 -2.39033458387e-11)
(1.22478496914 -0.000177638156669 -2.14993819873e-11)
(1.13146274128 -0.000152482327018 -1.91279536519e-11)
(1.04043579057 -0.00012907616585 -1.68661767488e-11)
(0.952235861363 -0.000107874282232 -1.47602944453e-11)
(0.867250520768 -8.9065062533e-05 -1.28331119851e-11)
(0.785749125268 -7.26581665904e-05 -1.10917542103e-11)
(0.707904793938 -5.85499917223e-05 -9.5302150606e-12)
(0.633812903907 -4.65708203926e-05 -8.14525222543e-12)
(0.563506583561 -3.65176183058e-05 -6.92103736798e-12)
(0.496969632939 -2.81760459745e-05 -5.84320637714e-12)
(0.434147252805 -2.13346163632e-05 -4.89670459114e-12)
(0.374954916388 -1.57932870769e-05 -4.06656555546e-12)
(0.319285673724 -1.13682116489e-05 -3.33872981401e-12)
(0.267016137849 -7.89390435731e-06 -2.7001967151e-12)
(0.218011365843 -5.22366544133e-06 -2.13893938221e-12)
(0.172128816131 -3.22883388112e-06 -1.64361868924e-12)
(0.129221536107 -1.79773129234e-06 -1.20508011437e-12)
(0.0891407100603 -8.36082026614e-07 -8.14684930608e-13)
(0.0517376773259 -2.6813555526e-07 -4.64788181751e-13)
(0.0168654934965 -1.72459538188e-08 -1.4867525406e-13)
(1.98372553821 -4.52478756931e-05 -5.28999114639e-12)
(1.96041117332 -0.000112149180774 -1.3395970975e-11)
(1.91423238538 -0.000160117642325 -1.92916107726e-11)
(1.85161571783 -0.000192938325434 -2.30399918649e-11)
(1.77682982863 -0.000209372383681 -2.49626198319e-11)