/*--------------------------------*- C++ -*----------------------------------*\
  =========                 |
  \\      /  F ield         | OpenFOAM: The Open Source CFD Toolbox
   \\    /   O peration     | Website:  https://openfoam.org
    \\  /    A nd           | Version:  12
     \\/     M anipulation  |
\*---------------------------------------------------------------------------*/
FoamFile
{
    format      ascii;
    class       volVectorField;
    location    "200";
    object      wallShearStress;
}
// * * * * * * * * * * * * * * * * * * * * * * * * * * * * * * * * * * * * * //

dimensions      [0 2 -2 0 0 0 0];

internalField   uniform (0 0 0);

boundaryField
{
    top
    {
        type            calculated;
        value           nonuniform List<vector> 
100
(
(-0.201066720846 0.048400296662 3.26536242666e-12)
(-0.128374996615 0.000358145534989 4.72191522352e-12)
(-0.0848871974162 6.84718193767e-05 5.20420289382e-12)
(-0.0957565930583 7.63409136235e-06 5.19841191179e-12)
(-0.0853795764619 1.84545132606e-05 5.1097441188e-12)
(-0.0871778183496 6.22989187765e-06 4.85703613539e-12)
(-0.0838752041416 8.10742440704e-06 4.52190435019e-12)
(-0.0837367866913 4.2978115946e-06 4.10821609934e-12)
(-0.082474959574 4.09781591653e-06 3.66359204015e-12)
(-0.0821045489821 2.66833354046e-06 3.20602509817e-12)
(-0.0815315096422 2.24095770151e-06 2.76652003636e-12)
(-0.081243612856 1.59485981145e-06 2.35403942754e-12)
(-0.0809510243151 1.26660178732e-06 1.97814064332e-12)
(-0.080766173332 9.34697738121e-07 1.64394371908e-12)
(-0.0806073971247 7.22549516683e-07 1.35233470152e-12)
(-0.0804967191283 5.39895240312e-07 1.10132226776e-12)
(-0.0804085392635 4.10929543923e-07 8.8870996197e-13)
(-0.080344612535 3.07407096612e-07 7.11252067735e-13)
(-0.0802955599094 2.31276655231e-07 5.63114911508e-13)
(-0.0802595712332 1.72181527048e-07 4.41944635881e-13)
(-0.0802325722998 1.28124375707e-07 3.44404954566e-13)
(-0.0802127879167 9.45767737992e-08 2.65074948237e-13)
(-0.0801981976751 6.95497319924e-08 2.02252111407e-13)
(-0.0801875932983 5.07636200825e-08 1.54418572673e-13)
(-0.0801798962743 3.68364812261e-08 1.14988666984e-13)
(-0.0801743712485 2.65220800913e-08 8.50231676854e-14)
(-0.0801704268081 1.89558353837e-08 6.22861231627e-14)
(-0.0801676393242 1.34322875099e-08 4.50463119866e-14)
(-0.0801656850364 9.43583289578e-09 3.22417843214e-14)
(-0.0801643291437 6.56504736656e-09 2.27058718845e-14)
(-0.0801633976093 4.52211468988e-09 1.55634619629e-14)
(-0.0801627648411 3.08131107291e-09 1.04319886143e-14)
(-0.0801623399321 2.07562938399e-09 6.71550187646e-15)
(-0.0801620581902 1.38110419861e-09 4.17550642947e-15)
(-0.0801618738365 9.07034142214e-10 2.3573111659e-15)
(-0.080161754924 5.87373389102e-10 9.60109026438e-16)
(-0.0801616793843 3.74691135181e-10 1.72216277403e-16)
(-0.0801616321802 2.35163873339e-10 -3.62390419412e-16)
(-0.0801616032011 1.45068794814e-10 -7.27488355968e-16)
(-0.0801615857488 8.77937838423e-11 -9.32135013972e-16)
(-0.0801615754566 5.20521409504e-11 -1.09244468881e-15)
(-0.0801615695249 3.0144898116e-11 -1.27987625553e-15)
(-0.0801615661918 1.70459998216e-11 -1.26644473853e-15)
(-0.0801615643718 9.36262682299e-12 -1.27818884207e-15)
(-0.0801615634101 5.00251876355e-12 -1.19980204527e-15)
(-0.0801615629211 2.54200609982e-12 -1.27080174912e-15)
(-0.0801615626833 1.24800477382e-12 -1.05876360757e-15)
(-0.0801615625739 5.68914483127e-13 -7.76915930102e-16)
(-0.0801615625274 2.7935697835e-13 -8.94855259074e-16)
(-0.0801615625106 1.07090889788e-13 -9.49216047358e-16)
(-0.0801615625055 1.92919607024e-14 -9.12163106541e-16)
(-0.080161562505 -1.13613458073e-14 -9.67614053273e-16)
(-0.0801615625055 2.30501526238e-14 -1.06303881622e-15)
(-0.0801615625069 2.45258504401e-14 -9.58917619813e-16)
(-0.080161562508 -9.5667077356e-15 -1.01889850398e-15)
(-0.0801615625088 -3.06258715913e-14 -1.00148330051e-15)
(-0.0801615625088 1.27389632397e-14 -7.73060550771e-16)
(-0.0801615625091 3.4788150507e-14 -8.79612069974e-16)
(-0.0801615625094 -2.78351067622e-15 -9.79520734394e-16)
(-0.0801615625101 -2.44706897325e-14 -9.86448978465e-16)
(-0.0801615625097 -1.47930518139e-14 -9.51619877354e-16)
(-0.0801615625092 2.85205138756e-14 -8.91567968601e-16)
(-0.080161562509 1.13995921133e-14 -9.08300132568e-16)
(-0.0801615625093 -8.91314618726e-15 -9.26206808414e-16)
(-0.0801615625091 -3.3355793746e-14 -9.15532778069e-16)
(-0.0801615625081 1.31521634365e-15 -8.617348571e-16)
(-0.0801615625072 1.35887361201e-14 -8.30875129769e-16)
(-0.0801615625076 2.68142523561e-14 -8.01056015697e-16)
(-0.0801615625076 -3.8491819212e-14 -8.04871149482e-16)
(-0.0801615625068 -2.99226686396e-14 -5.73251702776e-16)
(-0.0801615625058 1.26780365627e-14 -4.32130531361e-16)
(-0.0801615625059 6.17139888985e-14 -2.86690383132e-16)
(-0.0801615625065 -1.44236712073e-14 -8.77636821707e-16)
(-0.0801615625066 -5.8845230114e-14 -5.51520735919e-16)
(-0.0801615625058 -7.12740228903e-15 -4.49071237525e-16)
(-0.0801615625062 7.87308737366e-14 -3.0099524368e-16)
(-0.080161562506 1.24742946954e-14 -7.78437922563e-16)
(-0.0801615625082 -4.9486451241e-14 -5.08589796356e-16)
(-0.0801615625071 -2.32873827326e-14 -3.66574410458e-16)
(-0.0801615625086 4.22426882766e-14 -2.66657797186e-16)
(-0.0801615625051 2.85068035024e-14 -6.81416444266e-16)
(-0.080161562511 8.68268173029e-15 -4.70980988912e-16)
(-0.0801615625074 -6.99243934281e-15 -5.1024911564e-16)
(-0.0801615625142 -6.84862990878e-14 -5.0936544634e-16)
(-0.0801615625006 -1.51442788765e-14 -4.88554559534e-16)
(-0.0801615625174 1.60760281313e-13 -4.5244160058e-16)
(-0.0801615625006 1.9740566999e-14 -4.35478881049e-16)
(-0.0801615625244 -2.17321300557e-13 -4.13331686308e-16)
(-0.0801615624903 -3.95683645372e-15 -3.76311666232e-16)
(-0.0801615625332 1.73200054662e-13 -3.44803438315e-16)
(-0.0801615624725 -4.47863949014e-14 -3.20467834255e-16)
(-0.0801615625513 3.21316032142e-14 -3.01985864413e-16)
(-0.0801615624649 -1.77851333596e-14 -2.72896201737e-16)
(-0.0801615625547 -3.77640943198e-13 -2.38848031613e-16)
(-0.0801615625062 1.01591944872e-12 -1.88749345083e-16)
(-0.0801615621912 -3.66222475557e-12 -1.56649760124e-16)
(-0.0801615641579 1.57677976482e-11 -1.25242634822e-16)
(-0.0801615554199 -4.77057592022e-11 -1.67213490608e-16)
(-0.0801615846953 1.03259404632e-10 -1.33504579444e-16)
(-0.0801615090242 1.76231208887e-10 -7.73532423788e-17)
)
;
    }
    inlet
    {
        type            calculated;
        value           uniform (0 0 0);
    }
    outlet
    {
        type            calculated;
        value           uniform (0 0 0);
    }
    front
    {
        type            wedge;
    }
    back
    {
        type            wedge;
    }
}


// ************************************************************************* //
