/*--------------------------------*- C++ -*----------------------------------*\
  =========                 |
  \\      /  F ield         | OpenFOAM: The Open Source CFD Toolbox
   \\    /   O peration     | Website:  https://openfoam.org
    \\  /    A nd           | Version:  12
     \\/     M anipulation  |
\*---------------------------------------------------------------------------*/
FoamFile
{
    format      ascii;
    class       volScalarField;
    location    "300";
    object      omega;
}
// * * * * * * * * * * * * * * * * * * * * * * * * * * * * * * * * * * * * * //

dimensions      [0 0 -1 0 0 0 0];

internalField   nonuniform List<scalar> 
7480
(
99.668428
99.668428
99.668428
99.668428
467.26998
658.57483
782.37994
862.97237
913.97889
944.62398
961.56307
969.17804
970.42392
967.32455
961.29345
953.32275
944.12167
934.25908
924.36632
914.50817
904.81572
895.32836
886.19968
877.57546
869.56154
862.23034
855.61959
849.73108
844.53801
839.99296
836.03381
832.59302
829.61136
827.0392
824.81488
822.86488
821.11081
819.4868
817.94476
816.45051
814.97332
813.48514
811.96421
810.39419
808.76682
807.07878
805.32672
803.49979
801.58739
799.59017
797.51746
795.37828
793.18003
790.9351
788.66287
786.37926
784.0896
781.79474
779.49931
777.21066
774.9322
772.66604
770.41809
768.19448
765.99577
763.82165
761.67263
759.54569
757.43548
755.34144
753.26696
751.21182
749.17628
747.16529
745.17701
743.2061
741.25299
739.31657
737.39507
735.4922
733.60934
731.74439
729.89766
728.06667
726.24918
724.44727
722.66202
720.89354
719.1402
717.4001
715.67383
713.96091
712.26216
710.5753
708.90215
707.22399
705.60074
703.86254
702.32848
699.99455
53.580975
53.535223
53.495952
53.440182
60.466344
74.605075
96.919918
126.8879
163.04794
203.17542
244.37339
284.24969
318.8513
346.79406
369.58362
388.71607
404.52813
415.62001
423.15122
426.11387
427.71459
430.61998
434.66205
439.1649
443.57179
447.34724
450.10887
451.63911
451.84322
450.72904
448.39114
444.99876
440.78433
436.05061
430.91833
425.37661
419.36676
413.12581
406.81638
400.55557
394.44217
388.55192
382.93656
377.61392
372.58464
367.84519
363.39009
359.26088
355.44537
351.92009
348.66228
345.64754
342.84728
340.23063
337.77361
335.45387
333.24549
331.13348
329.1073
327.16214
325.29589
323.50193
321.77204
320.10032
318.48281
316.91277
315.38007
313.88239
312.41969
310.99161
309.59969
308.24578
306.9261
305.63923
304.38406
303.15476
301.94911
300.77001
299.61661
298.48789
297.38572
296.3067
295.24765
294.20921
293.19014
292.19034
291.21067
290.24953
289.30578
288.3777
287.46521
286.56891
285.6881
284.82145
283.96993
283.12478
282.3036
281.48154
280.74404
279.43417
52.974421
52.262355
51.558631
50.863181
50.289581
50.016844
50.328841
51.531413
53.894457
57.794972
63.498039
71.147451
80.696444
91.942889
104.62342
118.44172
133.06951
147.69438
160.98809
172.87906
183.7223
194.30413
205.13976
216.6009
228.96779
240.39374
249.98815
257.91566
264.26384
269.05656
272.25741
273.77266
273.52037
271.63676
268.57907
265.11008
261.9634
258.9878
256.0727
253.12647
250.16043
247.21361
244.19582
240.96588
237.61408
234.21479
230.8315
227.53602
224.39643
221.41896
218.59689
215.921
213.38399
210.98264
208.71332
206.57851
204.57904
202.69777
200.91976
199.23547
197.63792
196.1179
194.66505
193.27081
191.92992
190.63674
189.38277
188.1681
186.9936
185.85843
184.76166
183.70237
182.67681
181.68257
180.71587
179.77308
178.85388
177.96031
177.09205
176.24788
175.42807
174.62905
173.84785
173.08504
172.3406
171.61449
170.90696
170.21611
169.54036
168.87879
168.23152
167.59906
166.98076
166.37523
165.78229
165.19905
164.62966
164.07379
163.56183
162.79144
52.965662
52.234598
51.502657
50.770353
50.039728
49.315509
48.607263
47.930939
47.309324
46.780564
46.393157
46.204603
46.277498
46.67504
47.459969
48.697227
50.459433
52.804041
55.761156
59.359154
63.631164
68.638852
74.467006
81.221014
89.024963
97.347748
106.06175
115.07604
124.34397
133.86323
143.66844
153.79946
162.76226
170.00428
175.63723
179.9213
183.16483
185.41015
186.67406
186.93832
186.22792
184.69967
182.81859
181.00395
179.16155
177.22935
175.21885
173.17993
171.12372
168.90632
166.59988
164.26206
161.94105
159.68228
157.49913
155.39042
153.36544
151.43089
149.59026
147.84532
146.19019
144.61402
143.10602
141.65988
140.27376
138.94638
137.68311
136.47671
135.32227
134.21584
133.15395
132.13321
131.14924
130.19914
129.27943
128.38889
127.52767
126.69625
125.89344
125.11736
124.36708
123.6386
122.92975
122.24134
121.57354
120.92596
120.29823
119.68793
119.09334
118.51408
117.95039
117.40247
116.8695
116.34974
115.8428
115.34751
114.86518
114.39726
113.96848
113.37238
52.96571
52.234232
51.50154
50.767967
50.033845
49.299558
48.565603
47.832779
47.102212
46.375652
45.65571
44.946126
44.25202
43.579999
42.938283
42.337151
41.789252
41.310288
40.917945
40.632296
40.475764
40.475238
40.664225
41.085011
41.795157
42.84922
44.309943
46.25299
48.77285
51.988321
56.047621
61.137394
67.351245
74.200629
81.596602
89.489504
97.886126
106.82471
115.66889
123.16454
129.2025
133.76144
137.05124
139.39773
140.88659
141.56021
141.47957
140.74334
139.61584
138.433
137.12844
135.69266
134.1649
132.62415
131.00853
129.27482
127.47551
125.66285
123.88421
122.15985
120.48227
118.84799
117.25907
115.72373
114.24769
112.82894
111.47001
110.17031
108.92877
107.74239
106.60633
105.51529
104.46555
103.45471
102.48842
101.56427
100.67805
99.827351
99.009589
98.222045
97.462824
96.729074
96.020026
95.336033
94.676312
94.039658
93.425019
92.829681
92.252317
91.69292
91.151445
90.627575
90.12012
89.62713
89.148366
88.683257
88.232198
87.795573
87.396678
86.87383
52.965961
52.234513
51.501821
50.768199
50.033945
49.299376
48.564806
47.830553
47.096956
46.364374
45.633203
44.903895
44.176982
43.453103
42.733027
42.0177
41.308293
40.606265
39.913434
39.23204
38.564783
37.914925
37.286376
36.684179
36.115076
35.58774
35.113614
34.706923
34.386553
34.177969
34.115773
34.248514
34.641036
35.361822
36.500194
38.178948
40.570419
43.914188
48.501063
54.361459
61.061432
68.465371
76.460316
84.813602
92.495469
98.958367
104.10846
107.90093
110.48145
112.23581
113.24631
113.59237
113.36533
112.70028
111.87691
110.9482
109.89099
108.72727
107.5214
106.267
104.90051
103.4706
102.0191
100.58255
99.169452
97.772402
96.391663
95.042389
93.737824
92.479198
91.263285
90.087889
88.954438
87.862863
86.816717
85.815621
84.857156
83.939208
83.058709
82.212342
81.397641
80.618031
79.872228
79.157254
78.470585
77.810198
77.174331
76.561062
75.969894
75.400457
74.851848
74.323046
73.812521
73.318515
72.841023
72.379477
71.933622
71.502745
71.108871
70.616994
52.966253
52.234846
51.502166
50.768539
50.034274
49.299687
48.565092
47.830795
47.097111
46.364353
45.63284
44.902886
44.174821
43.448974
42.725673
42.005255
41.288067
40.574469
39.864844
39.159602
38.459189
37.764089
37.074841
36.392058
35.716473
35.048974
34.390661
33.74291
33.10751
32.486862
31.88424
31.304033
30.752759
30.239235
29.776247
29.382565
29.085878
28.928314
28.974854
29.313215
30.047874
31.326161
33.362997
36.456217
40.954029
46.674731
53.271736
60.544414
68.154483
75.119085
80.978871
85.667181
89.163626
91.507246
93.008371
93.886492
94.224297
94.103297
93.63074
93.000796
92.271299
91.434106
90.516217
89.564588
88.547992
87.434418
86.259515
85.063321
83.869211
82.672973
81.479684
80.3016
79.150761
78.030036
76.937007
75.875102
74.84997
73.863512
72.91385
71.998981
71.11807
70.274218
69.467411
68.695155
67.954981
67.244713
66.561903
65.908383
65.283661
64.684992
64.110204
63.557634
63.025769
62.513793
62.021458
61.547633
61.091336
60.651184
60.248061
59.764431
52.966576
52.235218
51.502563
50.768949
50.034688
49.300096
48.565488
47.831174
47.097466
46.364682
45.633137
44.903147
44.175028
43.449096
42.725661
42.005031
41.287507
40.573389
39.86297
39.156541
38.454391
37.756802
37.06405
36.376413
35.694166
35.01759
34.346972
33.682611
33.024825
32.37396
31.730417
31.094668
30.467317
29.849147
29.241211
28.644995
28.062687
27.497632
26.95518
26.443356
25.974311
25.567389
25.25462
25.087644
25.149537
25.549128
26.432032
28.014772
30.614428
34.616517
39.836229
45.933806
52.674598
59.362085
65.222055
70.03017
73.77464
76.491795
78.245978
79.282515
79.836518
79.984493
79.802109
79.39058
78.877752
78.272404
77.577126
76.824641
76.034329
75.134365
74.165262
73.165197
72.154063
71.131158
70.097076
69.064195
68.046383
67.048465
66.072134
65.121024
64.199286
63.306719
62.444644
61.614927
60.8179
60.052272
59.315996
58.610853
57.937305
57.292941
56.675404
56.082839
55.514637
54.972183
54.453018
53.955022
53.476476
53.016002
52.593891
52.103172
52.966919
52.235612
51.502988
50.769391
50.035135
49.30054
48.565922
47.831594
47.097872
46.365073
45.633513
44.903509
44.175375
43.449426
42.725972
42.005319
41.287767
40.573612
39.863144
39.156648
38.454403
37.756677
37.063734
36.375827
35.693202
35.0161
34.344753
33.679387
33.02022
32.367463
31.721322
31.081998
30.449695
29.824618
29.20698
28.597013
27.994982
27.401208
26.816125
26.240345
25.674769
25.120771
24.580596
24.058039
23.559763
23.096293
22.684663
22.355025
22.159842
22.187428
22.556677
23.433489
25.07314
27.844393
32.026572
37.17474
43.067204
49.143115
54.686749
59.251384
62.819215
65.453309
67.238487
68.293636
68.859084
69.089636
69.041501
68.772192
68.388312
67.920523
67.366292
66.752056
66.095098
65.353763
64.542342
63.692613
62.820723
61.926273
61.018173
60.110233
59.21259
58.325156
57.451502
56.598791
55.771028
54.968997
54.193471
53.4451
52.725089
52.033618
51.370148
50.73352
50.123006
49.539971
48.982856
48.449515
47.937614
47.447123
46.998513
46.487075
52.967275
52.236022
51.503432
50.769852
50.035605
49.301009
48.566384
47.832046
47.098313
46.3655
45.633925
44.903905
44.175756
43.44979
42.726319
42.005648
41.288078
40.573905
39.863419
39.156904
38.454637
37.75689
37.063922
36.375987
35.693329
35.016186
34.344788
33.679356
33.020101
32.367225
31.720924
31.08138
30.448772
29.823268
29.20503
28.594209
27.990949
27.395389
26.807664
26.227911
25.656279
25.092932
24.538076
23.991996
23.455135
22.928202
22.412364
21.90965
21.423753
20.961578
20.534857
20.1631
19.883107
19.761816
19.90846
20.466734
21.660666
23.830802
27.385204
31.928725
37.237084
42.707105
47.698922
51.833615
55.008703
57.325932
58.896586
59.829944
60.301908
60.505894
60.483731
60.275731
59.96605
59.579911
59.118359
58.59899
58.034651
57.386178
56.678557
55.93619
55.170743
54.380621
53.576622
52.770746
51.968877
51.175376
50.396505
49.635156
48.892819
48.172398
47.476515
46.805619
46.159114
45.53739
44.941363
44.370257
43.822193
43.296443
42.815316
42.266423
52.967644
52.236442
51.503887
50.770328
50.036091
49.301496
48.566867
47.832521
47.098776
46.36595
45.634361
44.904326
44.176161
43.45018
42.726693
42.006006
41.28842
40.57423
39.863728
39.157196
38.454913
37.757149
37.064164
36.376212
35.693538
35.016379
34.344965
33.679516
33.020244
32.367351
31.72103
31.081464
30.44883
29.823294
29.205014
28.594136
27.990797
27.395126
26.80724
26.227248
25.655253
25.091348
24.535618
23.988144
23.449007
22.918296
22.396118
21.882623
21.378048
20.882808
20.397646
19.923877
19.463972
19.022773
18.609681
18.240473
17.944641
17.780118
17.851265
18.298525
19.344793
21.335763
24.629086
28.893285
33.872453
38.791132
43.141997
46.684562
49.322584
51.189714
52.419948
53.128446
53.470931
53.591638
53.539746
53.347135
53.073284
52.729495
52.320267
51.857239
51.346825
50.760846
50.129576
49.466997
48.776174
48.065759
47.347492
46.627133
45.907832
45.19617
44.498028
43.815991
43.151951
42.50739
41.884254
41.283757
40.7059
40.14825
39.63579
39.045058
52.968022
52.236871
51.504352
50.770815
50.036589
49.301998
48.567365
47.833011
47.099256
46.366418
45.634815
44.904766
44.176587
43.45059
42.727087
42.006383
41.288781
40.574574
39.864055
39.157506
38.455206
37.757425
37.064423
36.376455
35.693765
35.016591
34.345162
33.679699
33.020414
32.367508
31.721175
31.081599
30.448955
29.823409
29.205118
28.59423
27.99088
27.395197
26.807295
26.227284
25.655264
25.091322
24.535539
23.987982
23.448712
22.917782
22.39524
21.881124
21.375471
20.878317
20.389714
19.90974
19.438533
18.976363
18.523771
18.081786
17.652399
17.239693
16.852132
16.504924
16.226697
16.076589
16.161956
16.637129
17.754869
19.906842
23.242723
27.473837
32.098988
36.431634
40.083139
42.933352
44.96707
46.337675
47.195261
47.658678
47.850783
47.883422
47.781947
47.585344
47.322613
46.997898
46.617884
46.192047
45.70294
45.161319
44.583827
43.977509
43.34717
42.702916
42.052444
41.400494
40.753188
40.114671
39.487817
38.87627
38.28273
37.704839
37.1705
36.549003
52.968409
52.237308
51.504825
50.771311
50.037097
49.302511
48.567876
47.833516
47.099751
46.366901
45.635286
44.905222
44.177028
43.451016
42.727497
42.006777
41.289157
40.574934
39.864398
39.157832
38.455515
37.757716
37.064698
36.376713
35.694007
35.016817
34.345374
33.679897
33.020599
32.367681
31.721337
31.08175
30.449095
29.82354
29.205241
28.594345
27.990988
27.395297
26.807389
26.227371
25.655344
25.091396
24.535604
23.988038
23.448757
22.917812
22.395246
21.881092
21.375376
20.878113
20.389316
19.908989
19.437133
18.973749
18.518848
18.072463
17.634682
17.205709
16.78601
16.376542
15.979255
15.598344
15.242812
14.929508
14.692389
14.603661
14.785593
15.430512
16.85492
19.472577
23.046134
27.308032
31.463494
35.045983
37.892404
39.985829
41.392069
42.287524
42.802232
43.05041
43.11194
43.062552
42.916782
42.707746
42.442162
42.123627
41.756951
41.341129
40.869747
40.35943
39.819482
39.254611
38.674488
38.085745
37.492618
36.901513
36.317809
35.740672
35.201491
34.567128
52.968804
52.23775
51.505303
50.771813
50.037613
49.303033
48.568397
47.834032
47.100258
46.367397
45.635769
44.905692
44.177483
43.451456
42.72792
42.007184
41.289548
40.575307
39.864754
39.158171
38.455836
37.75802
37.064984
36.376983
35.69426
35.017055
34.345597
33.680106
33.020794
32.367864
31.721507
31.08191
30.449245
29.823681
29.205373
28.594469
27.991104
27.395406
26.807492
26.227469
25.655436
25.091482
24.535685
23.988114
23.448828
22.917878
22.395306
21.881147
21.375424
20.878152
20.389341
19.908992
19.437098
18.973645
18.518612
18.071977
17.633711
17.203788
16.782189
16.368924
15.964058
15.567785
15.180596
14.803565
14.439018
14.092263
13.774785
13.508389
13.34269
13.378659
13.77228
14.796898
16.896381
20.004659
23.892268
27.801767
31.233637
33.968659
35.989177
37.358913
38.220209
38.72669
38.979469
39.058112
39.026324
38.90857
38.734491
38.509142
38.234811
37.912953
37.548253
37.128722
36.671031
36.184856
35.673882
35.146669
34.610621
34.066738
33.549555
32.928176
52.969206
52.238197
51.505787
50.77232
50.038136
49.303562
48.568927
47.834557
47.100776
46.367905
45.636264
44.906174
44.17795
43.451907
42.728356
42.007603
41.28995
40.575692
39.865121
39.158521
38.456168
37.758335
37.065282
36.377263
35.694524
35.017303
34.34583
33.680324
33.020998
32.368055
31.721687
31.082078
30.449403
29.823829
29.205513
28.5946
27.991228
27.395523
26.807602
26.227573
25.655534
25.091575
24.535773
23.988196
23.448905
22.917951
22.395375
21.881212
21.375484
20.878209
20.389393
19.90904
19.437141
18.973681
18.518639
18.071987
17.633693
17.203714
16.782007
16.368524
15.963214
15.56603
15.176938
14.795935
14.423095
14.058668
13.703309
13.358483
13.027655
12.719025
12.449487
12.255928
12.223564
12.492474
13.310203
15.098086
17.917639
21.523673
25.174919
28.388863
30.929517
32.787096
34.042535
34.821511
35.275314
35.499701
35.574918
35.543243
35.439987
35.28762
35.088803
34.843826
34.554223
34.225199
33.844467
33.427449
32.984077
32.514574
32.054818
31.482713
52.969614
52.23865
51.506274
50.772832
50.038663
49.304098
48.569465
47.835092
47.101303
46.368422
45.63677
44.906666
44.178428
43.45237
42.728803
42.008033
41.290363
40.576088
39.865499
39.158881
38.456511
37.758659
37.065588
36.377552
35.694796
35.017559
34.34607
33.68055
33.02121
32.368254
31.721873
31.082253
30.449568
29.823984
29.205658
28.594737
27.991357
27.395645
26.807717
26.227681
25.655637
25.091672
24.535864
23.988283
23.448988
22.918029
22.395449
21.881281
21.37555
20.87827
20.389451
19.909094
19.437192
18.973728
18.518683
18.072028
17.633729
17.203745
16.78203
16.368532
15.963195
15.565958
15.176756
14.795521
14.422187
14.056695
13.699004
13.349127
13.007194
12.673631
12.349507
12.037386
11.743742
11.482963
11.286277
11.230203
11.45075
12.190809
13.875772
16.55494
19.953296
23.35001
26.287057
28.566217
30.197422
31.28227
31.942995
32.31823
32.497865
32.55315
32.513341
32.415865
32.274904
32.092401
31.866166
31.599543
31.294897
30.940324
30.575796
30.097813
52.970029
52.239107
51.506765
50.773348
50.039195
49.304639
48.570009
47.835633
47.101839
46.368949
45.637285
44.907169
44.178916
43.452843
42.72926
42.008473
41.290785
40.576493
39.865886
39.15925
38.456862
37.758992
37.065903
36.37785
35.695077
35.017824
34.346319
33.680783
33.021429
32.368459
31.722066
31.082434
30.449738
29.824144
29.205809
28.594879
27.991491
27.395771
26.807837
26.227795
25.655744
25.091773
24.53596
23.988374
23.449073
22.91811
22.395525
21.881354
21.375618
20.878334
20.389512
19.909151
19.437245
18.973779
18.51873
18.072072
17.63377
17.203783
16.782065
16.368564
15.963224
15.565982
15.176771
14.795522
14.422159
14.056603
13.698776
13.348597
13.00599
12.670893
12.343285
12.023235
11.711056
11.40762
11.115096
10.839207
10.593477
10.408061
10.359964
10.589373
11.353798
13.105048
15.765969
18.985427
22.102821
24.717826
26.685764
28.051346
28.936525
29.462811
29.750649
29.880745
29.90828
29.855563
29.758422
29.6223
29.449394
29.232704
28.999257
28.662707
52.97045
52.239568
51.507259
50.773868
50.039731
49.305184
48.570558
47.836181
47.102381
46.369483
45.637809
44.90768
44.179413
43.453325
42.729726
42.008922
41.291217
40.576907
39.866283
39.159628
38.457222
37.759334
37.066227
36.378155
35.695365
35.018095
34.346574
33.681023
33.021655
32.368671
31.722264
31.08262
30.449913
29.824309
29.205965
28.595026
27.99163
27.395902
26.80796
26.227912
25.655855
25.091878
24.536059
23.988467
23.449162
22.918194
22.395605
21.881428
21.375689
20.878401
20.389575
19.909211
19.437301
18.973831
18.518779
18.072118
17.633813
17.203823
16.782103
16.368599
15.963257
15.566012
15.176799
14.795547
14.42218
14.05662
13.698783
13.348586
13.005938
12.670751
12.342934
12.0224
11.709074
11.402917
11.103969
10.812494
10.529301
10.25649
9.9998544
9.7735019
9.6105382
9.5976962
9.8900056
10.782492
12.671439
15.417625
18.465279
21.261848
23.505685
25.128489
26.213837
26.89577
27.289273
27.491851
27.573888
27.571358
27.504611
27.403868
27.280751
27.094595
52.970877
52.240033
51.507757
50.77439
50.040271
49.305734
48.571112
47.836735
47.102931
46.370024
45.63834
44.908199
44.179919
43.453816
42.7302
42.00938
41.291658
40.57733
39.866687
39.160015
38.45759
37.759683
37.066558
36.378468
35.695661
35.018373
34.346836
33.68127
33.021886
32.368888
31.722469
31.082812
30.450094
29.824479
29.206125
28.595177
27.991772
27.396036
26.808087
26.228032
25.655968
25.091985
24.536161
23.988564
23.449253
22.91828
22.395686
21.881506
21.375762
20.87847
20.38964
19.909272
19.437359
18.973885
18.51883
18.072166
17.633858
17.203865
16.782142
16.368636
15.963291
15.566044
15.176828
14.795574
14.422205
14.056643
13.698804
13.348604
13.005953
12.670759
12.342929
12.022366
11.708972
11.40265
11.103307
10.81086
10.525261
10.246544
9.9749779
9.7114203
9.4582045
9.2220503
9.0193435
8.891632
8.941457
9.3605029
10.516441
12.63198
15.442272
18.266467
20.673388
22.504899
23.770601
24.586322
25.080569
25.353569
25.479478
25.517101
25.494547
25.423959
52.97131
52.240503
51.508258
50.774915
50.040813
49.306288
48.571671
47.837294
47.103486
46.370573
45.638879
44.908726
44.180432
43.454314
42.730683
42.009847
41.292107
40.577761
39.8671
39.160409
38.457965
37.76004
37.066896
36.378788
35.695963
35.018659
34.347105
33.681522
33.022124
32.369111
31.722678
31.083009
30.450279
29.824654
29.206289
28.595332
27.991918
27.396174
26.808218
26.228155
25.656085
25.092096
24.536266
23.988663
23.449347
22.918368
22.39577
21.881585
21.375836
20.878541
20.389706
19.909335
19.437418
18.973941
18.518882
18.072214
17.633903
17.203908
16.782182
16.368673
15.963325
15.566076
15.176859
14.795602
14.422231
14.056667
13.698826
13.348624
13.005972
12.670776
12.342944
12.022378
11.708979
11.402647
11.103279
10.810774
10.525028
10.245945
9.9734385
9.7074615
9.4480636
9.1955731
8.9510346
8.7174405
8.5034316
8.3303185
8.2579819
8.4162096
9.0605013
10.609556
12.992281
15.700424
18.190456
20.167876
21.58497
22.518032
23.097916
23.431466
23.611137
23.689619
52.971749
52.240977
51.508762
50.775443
50.041359
49.306844
48.572233
47.837857
47.104046
46.371127
45.639424
44.909259
44.180953
43.45482
42.731174
42.010321
41.292564
40.5782
39.867521
39.160811
38.458349
37.760405
37.067242
36.379115
35.696272
35.01895
34.347379
33.681781
33.022366
32.369339
31.722893
31.083211
30.450469
29.824833
29.206458
28.595491
27.992068
27.396316
26.808351
26.228281
25.656205
25.092209
24.536372
23.988764
23.449442
22.918459
22.395856
21.881665
21.375912
20.878613
20.389774
19.909398
19.437478
18.973997
18.518935
18.072264
17.63395
17.203952
16.782223
16.368711
15.963361
15.566109
15.176889
14.795631
14.422258
14.056692
13.698849
13.348646
13.005991
12.670794
12.34296
12.022393
11.708992
11.402658
11.103289
10.810779
10.525024
10.245918
9.9733545
9.707229
9.4474426
9.1939125
8.9466025
8.7056055
8.471387
8.2453874
8.0320528
7.8438632
7.7133464
7.731286
8.0772866
9.1153688
11.049684
13.570889
16.057647
18.120071
19.646922
20.673685
21.330061
21.730507
52.972194
52.241455
51.509268
50.775973
50.041906
49.307404
48.572799
47.838425
47.104611
46.371686
45.639974
44.909799
44.18148
43.455334
42.731672
42.010802
41.293028
40.578646
39.867948
39.16122
38.458739
37.760776
37.067594
36.379449
35.696587
35.019248
34.34766
33.682045
33.022615
32.369573
31.723112
31.083417
30.450663
29.825015
29.20663
28.595653
27.992221
27.39646
26.808487
26.22841
25.656326
25.092324
24.536481
23.988867
23.44954
22.918551
22.395943
21.881748
21.37599
20.878686
20.389843
19.909463
19.437539
18.974054
18.518989
18.072315
17.633997
17.203996
16.782264
16.36875
15.963397
15.566143
15.176921
14.79566
14.422285
14.056716
13.698872
13.348667
13.006011
12.670812
12.342976
12.022408
11.709006
11.402671
11.1033
10.810789
10.525033
10.245924
9.973357
9.707222
9.4474118
9.193818
8.9463356
8.7048678
8.4693402
8.2397441
8.0162665
7.7996595
7.5922489
7.4014206
7.2467906
7.187077
7.3555054
8.0268969
9.5731761
11.862843
14.269082
16.357952
17.95698
19.080362
52.972644
52.241936
51.509778
50.776505
50.042456
49.307965
48.573368
47.838996
47.105181
46.37225
45.640531
44.910345
44.182014
43.455853
42.732176
42.01129
41.293499
40.579099
39.868383
39.161636
38.459136
37.761153
37.067953
36.379789
35.696909
35.019551
34.347946
33.682314
33.022868
32.369811
31.723336
31.083628
30.450861
29.825202
29.206805
28.595818
27.992377
27.396607
26.808626
26.228542
25.656451
25.092441
24.536592
23.988971
23.449639
22.918645
22.396031
21.881831
21.376069
20.87876
20.389913
19.909529
19.437601
18.974113
18.519044
18.072366
17.634045
17.20404
16.782306
16.368789
15.963433
15.566176
15.176952
14.795689
14.422312
14.056741
13.698895
13.348688
13.00603
12.67083
12.342993
12.022423
11.70902
11.402683
11.103311
10.810799
10.525042
10.245933
9.9733642
9.7072279
9.4474156
9.1938174
8.9463243
8.7048274
8.4692188
8.239395
8.0152653
7.796775
7.5839764
7.377257
7.1779422
6.9904456
6.8278198
6.7272086
6.7916152
7.2363478
8.4689809
10.472958
12.784835
14.909098
52.973099
52.242422
51.51029
50.77704
50.043008
49.308529
48.573939
47.83957
47.105754
46.372819
45.641092
44.910896
44.182553
43.456379
42.732687
42.011785
41.293976
40.579559
39.868824
39.162058
38.459539
37.761538
37.068318
36.380135
35.697236
35.01986
34.348237
33.682589
33.023127
32.370054
31.723565
31.083843
30.451064
29.825392
29.206985
28.595987
27.992536
27.396757
26.808768
26.228675
25.656577
25.092561
24.536705
23.989078
23.449739
22.91874
22.396121
21.881916
21.376149
20.878835
20.389984
19.909596
19.437663
18.974171
18.519099
18.072417
17.634093
17.204085
16.782348
16.368828
15.963469
15.56621
15.176983
14.795718
14.422338
14.056766
13.698918
13.348709
13.00605
12.670848
12.343009
12.022438
11.709033
11.402696
11.103323
10.810809
10.525051
10.245941
9.9733714
9.7072342
9.447421
9.193822
8.9463276
8.7048285
8.4692146
8.2393766
8.0152065
7.796598
7.5834529
7.375694
7.1733081
6.9764864
6.7860431
6.6046987
6.4414911
6.3219664
6.3275158
6.6253924
7.6792822
9.4408158
52.97356
52.242912
51.510806
50.777577
50.043561
49.309095
48.574512
47.840147
47.10633
46.373391
45.641657
44.911452
44.183098
43.45691
42.733203
42.012285
41.29446
40.580024
39.869272
39.162487
38.459948
37.761928
37.068689
36.380487
35.697569
35.020175
34.348534
33.682868
33.02339
32.370302
31.723798
31.084062
30.45127
29.825586
29.207167
28.596159
27.992698
27.39691
26.808912
26.228811
25.656705
25.092682
24.536819
23.989186
23.449841
22.918836
22.396212
21.882002
21.376229
20.878911
20.390056
19.909663
19.437726
18.97423
18.519154
18.072469
17.634142
17.204131
16.78239
16.368867
15.963506
15.566244
15.177015
14.795747
14.422365
14.056791
13.698941
13.34873
13.006069
12.670865
12.343025
12.022452
11.709047
11.402708
11.103333
10.810819
10.52506
10.245948
9.9733781
9.7072402
9.4474262
9.1938265
8.9463314
8.7048315
8.4692168
8.2393775
8.0152045
7.7965886
7.5834219
7.375598
7.1730152
6.9755857
6.783263
6.5961309
6.4147082
6.2408081
6.0810999
5.953683
5.9469367
6.1467344
52.974026
52.243405
51.511323
50.778115
50.044117
49.309663
48.575088
47.840726
47.106909
46.373967
45.642226
44.912013
44.183647
43.457447
42.733725
42.012791
41.294949
40.580496
39.869725
39.162921
38.460364
37.762324
37.069065
36.380844
35.697907
35.020495
34.348836
33.683153
33.023658
32.370554
31.724035
31.084285
30.451479
29.825784
29.207353
28.596334
27.992863
27.397065
26.809059
26.22895
25.656836
25.092805
24.536935
23.989296
23.449945
22.918934
22.396304
21.882088
21.376311
20.878988
20.390128
19.909731
19.43779
18.97429
18.51921
18.072521
17.63419
17.204176
16.782432
16.368906
15.963542
15.566278
15.177046
14.795775
14.422391
14.056815
13.698963
13.34875
13.006087
12.670882
12.343041
12.022466
11.709059
11.402719
11.103344
10.810828
10.525068
10.245956
9.9733844
9.7072457
9.4474309
9.1938304
8.9463347
8.7048342
8.4692189
8.2393791
8.0152054
7.7965887
7.5834203
7.3755922
7.1729971
6.9755295
6.783087
6.5955764
6.4129336
6.2351841
6.0626847
5.8966733
5.7452212
5.6149145
52.974497
52.243902
51.511844
50.778656
50.044674
49.310231
48.575665
47.841307
47.10749
46.374545
45.642799
44.912577
44.1842
43.457987
42.734252
42.013302
41.295443
40.580973
39.870184
39.163361
38.460784
37.762725
37.069447
36.381206
35.698251
35.020819
34.349143
33.683442
33.02393
32.37081
31.724276
31.084512
30.451693
29.825984
29.207542
28.596512
27.99303
27.397223
26.809207
26.22909
25.656968
25.09293
24.537053
23.989406
23.450049
22.919032
22.396397
21.882176
21.376393
20.879066
20.390201
19.909799
19.437854
18.97435
18.519265
18.072573
17.634239
17.204221
16.782474
16.368945
15.963578
15.566311
15.177076
14.795804
14.422417
14.056839
13.698985
13.34877
13.006105
12.670899
12.343056
12.02248
11.709071
11.40273
11.103353
10.810837
10.525075
10.245962
9.9733901
9.7072505
9.4474349
9.1938338
8.9463374
8.7048363
8.4692204
8.23938
8.0152059
7.7965887
7.5834199
7.3755912
7.172995
6.9755249
6.7830748
6.5955405
6.41282
6.2348183
6.0614624
5.8927442
5.7291623
5.5710446
52.974972
52.244402
51.512367
50.779198
50.045232
49.310802
48.576243
47.841889
47.108074
46.375126
45.643374
44.913144
44.184758
43.458532
42.734783
42.013818
41.295943
40.581455
39.870647
39.163806
38.46121
37.763132
37.069834
36.381574
35.698599
35.021149
34.349454
33.683736
33.024207
32.371071
31.724521
31.084742
30.45191
29.826188
29.207734
28.596692
27.9932
27.397383
26.809358
26.229232
25.657102
25.093056
24.537172
23.989518
23.450155
22.919132
22.39649
21.882264
21.376476
20.879143
20.390274
19.909867
19.437918
18.974409
18.519321
18.072625
17.634287
17.204266
16.782515
16.368984
15.963614
15.566344
15.177107
14.795831
14.422443
14.056862
13.699006
13.34879
13.006123
12.670915
12.34307
12.022492
11.709083
11.40274
11.103362
10.810845
10.525082
10.245968
9.973395
9.7072546
9.4474383
9.1938364
8.9463393
8.7048376
8.4692212
8.2393803
8.0152058
7.7965881
7.5834189
7.3755898
7.1729933
6.9755228
6.783072
6.595536
6.4128106
6.2347931
6.0613817
5.8924846
5.7280251
5.5679945
52.975452
52.244906
51.512892
50.779742
50.045791
49.311373
48.576822
47.842473
47.108658
46.375709
45.643952
44.913714
44.185318
43.459081
42.735318
42.014338
41.296447
40.581942
39.871116
39.164256
38.461641
37.763543
37.070226
36.381947
35.698953
35.021484
34.34977
33.684034
33.024488
32.371335
31.72477
31.084976
30.45213
29.826395
29.207928
28.596875
27.993372
27.397545
26.80951
26.229375
25.657237
25.093183
24.537292
23.989631
23.450261
22.919232
22.396584
21.882352
21.376559
20.879221
20.390347
19.909936
19.437981
18.974469
18.519377
18.072677
17.634335
17.20431
16.782556
16.369022
15.963649
15.566376
15.177136
14.795858
14.422468
14.056885
13.699027
13.348808
13.00614
12.67093
12.343083
12.022504
11.709093
11.402749
11.10337
10.810852
10.525088
10.245973
9.9733991
9.7072579
9.4474407
9.1938382
8.9463405
8.7048382
8.4692212
8.2393798
8.0152048
7.7965867
7.5834171
7.3755877
7.1729909
6.9755201
6.783069
6.5955328
6.4128069
6.2347881
6.0613741
5.8924665
5.7279479
5.5677875
52.975937
52.245413
51.513419
50.780287
50.046351
49.311944
48.577402
47.843058
47.109244
46.376293
45.644532
44.914287
44.185881
43.459633
42.735856
42.014862
41.296954
40.582432
39.871589
39.16471
38.462076
37.763959
37.070622
36.382323
35.69931
35.021822
34.35009
33.684336
33.024773
32.371603
31.725022
31.085213
30.452353
29.826605
29.208125
28.59706
27.993546
27.397709
26.809665
26.229521
25.657374
25.093312
24.537413
23.989745
23.450368
22.919333
22.396679
21.882441
21.376642
20.879299
20.39042
19.910004
19.438045
18.974528
18.519432
18.072728
17.634383
17.204354
16.782597
16.369059
15.963683
15.566408
15.177165
14.795885
14.422492