/*--------------------------------*- C++ -*----------------------------------*\
  =========                 |
  \\      /  F ield         | OpenFOAM: The Open Source CFD Toolbox
   \\    /   O peration     | Website:  https://openfoam.org
    \\  /    A nd           | Version:  12
     \\/     M anipulation  |
\*---------------------------------------------------------------------------*/
FoamFile
{
    format      ascii;
    class       volScalarField;
    location    "1000";
    object      k;
}
// * * * * * * * * * * * * * * * * * * * * * * * * * * * * * * * * * * * * * //

dimensions      [0 2 -2 0 0 0 0];

internalField   nonuniform List<scalar> 
7480
(
9.1322134e-06
9.5181433e-06
1.0336956e-05
1.2715596e-05
0.0017675623
0.0035111446
0.0049553405
0.0060288097
0.0067625402
0.0072236254
0.0074850148
0.0076040337
0.0076235916
0.0075749672
0.0074807988
0.0073572509
0.0072159115
0.0070659331
0.0069170794
0.0067703237
0.0066275695
0.0064893099
0.0063576541
0.0062345141
0.006121168
0.0060183893
0.0059264571
0.0058451644
0.0057739383
0.0057119584
0.0056582407
0.0056117623
0.0055716411
0.005537146
0.0055074025
0.0054813934
0.0054580507
0.0054364837
0.005416045
0.005396277
0.0053767706
0.005357155
0.0053371453
0.0053165292
0.0052952026
0.0052731266
0.0052502624
0.0052264746
0.005201632
0.0051757512
0.0051489608
0.0051213844
0.0050931239
0.0050643442
0.0050352975
0.0050061897
0.0049770896
0.0049480087
0.0049190059
0.0048901737
0.0048615541
0.0048331722
0.0048051
0.0047774121
0.0047501126
0.0047231948
0.0046966624
0.0046704757
0.0046445664
0.0046189261
0.0045935944
0.0045685664
0.0045438434
0.0045194836
0.0044954621
0.0044717129
0.0044482392
0.0044250264
0.0044020518
0.0043793582
0.0043569606
0.0043348325
0.0043129761
0.0042913609
0.0042699589
0.0042487939
0.004227877
0.0042072081
0.0041867671
0.0041665302
0.0041465033
0.0041266796
0.004107067
0.0040876382
0.0040684129
0.0040491744
0.0040306162
0.0040107751
0.0039933056
0.0039668031
8.9478919e-06
8.822188e-06
8.7067376e-06
8.6318409e-06
4.7738441e-05
0.00014931188
0.00031206708
0.0005202337
0.00075166315
0.00098611645
0.0012045097
0.0013984557
0.0015687572
0.001722537
0.0018690885
0.0020187745
0.0021843777
0.0023869797
0.0026127914
0.0028404235
0.0030741247
0.0033131889
0.0035546122
0.0037949876
0.0040309335
0.0042582015
0.0044728098
0.0046714693
0.0048516127
0.0050115481
0.0051506316
0.0052694506
0.0053697977
0.0054548049
0.0055249491
0.0055800034
0.0056198392
0.0056464913
0.0056615678
0.0056664973
0.0056628543
0.0056523102
0.0056363123
0.0056158178
0.0055916405
0.005564521
0.0055351538
0.0055041375
0.0054719829
0.0054393579
0.0054068646
0.0053749257
0.0053438045
0.0053136862
0.0052847316
0.0052568266
0.0052295861
0.0052028145
0.0051764695
0.0051506167
0.0051253557
0.0051007369
0.0050767134
0.0050531862
0.0050300739
0.005007291
0.0049845388
0.0049616701
0.0049387322
0.0049158449
0.0048931253
0.0048706542
0.0048484566
0.0048265352
0.0048047564
0.0047829918
0.0047612216
0.0047395206
0.0047179855
0.0046966687
0.0046756055
0.0046547264
0.0046339243
0.0046131823
0.0045925567
0.0045721006
0.0045518609
0.0045318103
0.0045118742
0.0044920314
0.0044723138
0.0044527667
0.0044334117
0.0044141813
0.0043950833
0.0043759753
0.0043573148
0.0043378044
0.0043221123
0.0042880523
8.9433456e-06
8.8096212e-06
8.6758212e-06
8.5427686e-06
9.0513092e-06
1.1697414e-05
1.8654749e-05
3.1945858e-05
5.2804416e-05
8.1718592e-05
0.00011804153
0.00016044297
0.00020747637
0.00025788558
0.00031072447
0.0003655313
0.00042262469
0.00048389358
0.00054882432
0.00061891593
0.0006962481
0.00078457296
0.00088741267
0.0010087709
0.0011534106
0.0013105443
0.0014770869
0.0016535435
0.0018399549
0.002035921
0.0022406849
0.0024534921
0.0026715537
0.002885045
0.0030921598
0.003289907
0.0034739228
0.0036410925
0.0037922917
0.0039272028
0.0040469433
0.0041528183
0.0042443075
0.0043204757
0.0043831099
0.0044339375
0.0044746916
0.0045040303
0.0045255598
0.0045413468
0.0045526008
0.0045601502
0.0045647551
0.0045672849
0.0045684323
0.0045684328
0.0045672429
0.0045648986
0.0045616148
0.0045576917
0.0045533391
0.0045486296
0.0045435183
0.0045379357
0.0045318844
0.0045253246
0.0045178935
0.0045096105
0.0045006693
0.0044912658
0.0044815291
0.0044715201
0.0044612634
0.0044507769
0.0044398341
0.0044283422
0.0044163919
0.0044041236
0.0043916673
0.00437909
0.0043664269
0.0043535529
0.0043403592
0.0043268831
0.0043132397
0.0042995135
0.0042857629
0.0042719267
0.0042579138
0.0042437392
0.0042294746
0.0042151902
0.0042009071
0.0041865414
0.0041720744
0.0041575239
0.0041430424
0.0041280019
0.0041154722
0.0040888922
8.9432405e-06
8.8091826e-06
8.6750258e-06
8.5408804e-06
8.4159732e-06
8.3325644e-06
8.3606193e-06
8.6166971e-06
9.2641651e-06
1.0526171e-05
1.2643111e-05
1.5842493e-05
2.0314853e-05
2.62034e-05
3.3609821e-05
4.2608079e-05
5.3272872e-05
6.575461e-05
8.021478e-05
9.6856845e-05
0.00011592938
0.00013783035
0.00016312266
0.00019257466
0.00022725261
0.00026786247
0.00031514871
0.00037021644
0.00043470108
0.00051096718
0.00060238018
0.00071355464
0.00084291572
0.00098580043
0.0011432037
0.0013164905
0.0015062883
0.001709969
0.0019169481
0.0021227046
0.0023235904
0.0025166108
0.0026987871
0.0028686946
0.0030249836
0.0031665962
0.0032942556
0.0034084063
0.0035095253
0.0035960924
0.003670191
0.0037337369
0.0037885996
0.0038367421
0.0038791847
0.0039155122
0.0039458262
0.0039718028
0.0039946091
0.0040150858
0.0040335567
0.0040501047
0.0040647718
0.0040777132
0.0040891667
0.0040992016
0.0041077052
0.0041146992
0.0041203893
0.0041249799
0.0041285936
0.004131276
0.0041330707
0.0041340351
0.0041339366
0.0041327857
0.0041307607
0.0041280242
0.0041247008
0.0041208594
0.0041165412
0.0041115769
0.0041059077
0.0040996434
0.0040929277
0.0040858557
0.0040784909
0.0040707367
0.0040625123
0.0040538819
0.0040449492
0.0040357962
0.0040264352
0.0040167671
0.0040067808
0.0039965866
0.0039861991
0.0039753381
0.00396602
0.0039454942
8.9432484e-06
8.8091806e-06
8.6750369e-06
8.5408902e-06
8.4069268e-06
8.2737839e-06
8.1431274e-06
8.0184616e-06
7.9059392e-06
7.8155935e-06
7.762086e-06
7.765317e-06
7.8505284e-06
8.0482104e-06
8.3942194e-06
8.9297753e-06
9.7017947e-06
1.0764348e-05
1.218052e-05
1.4021715e-05
1.6366496e-05
1.9308395e-05
2.2963578e-05
2.7478585e-05
3.304981e-05
3.9924053e-05
4.8389387e-05
5.8797666e-05
7.1600733e-05
8.739846e-05
0.00010700745
0.00013158316
0.0001623969
0.00020070917
0.00024821133
0.00030731924
0.00038144535
0.00047523356
0.00059228028
0.0007259188
0.00087559837
0.0010401334
0.0012193227
0.0014080399
0.0016000506
0.0017911645
0.001977686
0.0021564061
0.0023251036
0.002483797
0.0026299998
0.0027631484
0.0028842468
0.002995288
0.0030953561
0.0031835669
0.0032610074
0.0033294807
0.0033909458
0.0034465994
0.0034967292
0.0035417935
0.0035823911
0.0036192724
0.0036529675
0.0036834168
0.0037101425
0.0037340491
0.0037557024
0.0037753962
0.0037932445
0.0038093005
0.0038237049
0.0038365842
0.0038479243
0.0038577746
0.0038662868
0.003873612
0.0038798646
0.0038851174
0.0038894253
0.0038926337
0.0038947766
0.0038960156
0.0038964906
0.0038962943
0.0038954905
0.0038939597
0.0038916642
0.0038887225
0.0038852543
0.0038813423
0.0038769861
0.0038720781
0.0038666439
0.0038608445
0.0038546387
0.0038479019
0.0038421302
0.0038264191
8.943271e-06
8.8092129e-06
8.6750795e-06
8.5409341e-06
8.4068393e-06
8.2728655e-06
8.1391047e-06
8.0056984e-06
7.8728811e-06
7.7410424e-06
7.6108098e-06
7.4831485e-06
7.3594687e-06
7.2417327e-06
7.1325774e-06
7.0354335e-06
6.9546714e-06
6.8957955e-06
6.865757e-06
6.8731936e-06
6.9284601e-06
7.0442301e-06
7.2364502e-06
7.5253954e-06
7.9381112e-06
8.5104328e-06
9.2883652e-06
1.0331457e-05
1.1718766e-05
1.3556594e-05
1.5988909e-05
1.921795e-05
2.351988e-05
2.926573e-05
3.6952675e-05
4.7270087e-05
6.1191595e-05
8.0098213e-05
0.00010585011
0.00014010794
0.00018484238
0.00024250757
0.00031657431
0.00041006962
0.00052522947
0.0006578701
0.00080701763
0.00097006762
0.0011439615
0.0013215296
0.0014991226
0.0016733207
0.0018414324
0.0020017866
0.0021552168
0.0022995218
0.0024330065
0.0025557429
0.0026692455
0.0027736271
0.0028674204
0.0029520326
0.0030288323
0.0030992135
0.003163675
0.0032221221
0.0032745387
0.0033219441
0.0033652701
0.003404872
0.0034409685
0.0034738529
0.0035039388
0.0035314733
0.0035561195
0.0035783025
0.0035984486
0.0036167892
0.003633446
0.0036485097
0.0036620699
0.0036741534
0.0036848417
0.0036942621
0.0037025333
0.0037097493
0.0037159756
0.0037211146
0.0037252019
0.0037283887
0.0037307888
0.0037324791
0.0037334506
0.0037336082
0.0037330314
0.0037319028
0.0037301524
0.0037277339
0.0037258726
0.0037147003
8.9433029e-06
8.8092498e-06
8.6751177e-06
8.5409717e-06
8.4068747e-06
8.2728888e-06
8.1390749e-06
8.0054929e-06
7.8722064e-06
7.7392833e-06
7.6068001e-06
7.474846e-06
7.3435365e-06
7.2130163e-06
7.0834727e-06
6.955151e-06
6.8283724e-06
6.703555e-06
6.5812435e-06
6.4621405e-06
6.3471267e-06
6.2373032e-06
6.1340631e-06
6.0391773e-06
5.954964e-06
5.8844951e-06
5.8317761e-06
5.8021075e-06
5.8026657e-06
5.8433438e-06
5.9379595e-06
6.1065354e-06
6.3784811e-06
6.7964397e-06
7.4225262e-06
8.3493e-06
9.7166919e-06
1.1737218e-05
1.473637e-05
1.9171423e-05
2.5682247e-05
3.5164917e-05
4.8891517e-05
6.8540854e-05
9.6274692e-05
0.0001342051
0.00018479958
0.00025104897
0.00033682904
0.00044288743
0.00056601439
0.00070557332
0.00085922358
0.0010229008
0.0011887568
0.0013541911
0.0015166198
0.0016739766
0.0018249326
0.00197073
0.0021091027
0.0022386813
0.0023596434
0.0024731346
0.0025782956
0.0026739932
0.0027610621
0.0028407674
0.0029140391
0.0029807845
0.0030414701
0.003096903
0.0031478349
0.0031945705
0.0032369346
0.0032753768
0.0033105387
0.0033427866
0.0033723137
0.0033993322
0.003424075
0.0034464043
0.0034666391
0.0034850758
0.0035018791
0.0035171648
0.0035310022
0.0035434294
0.0035545367
0.0035644398
0.0035732345
0.0035809982
0.0035877307
0.0035933874
0.003598093
0.0036020222
0.0036050913
0.0036072917
0.0036097455
0.00360317
8.9433449e-06
8.8092973e-06
8.6751688e-06
8.5410257e-06
8.4069306e-06
8.2729452e-06
8.1391294e-06
8.005542e-06
7.8722423e-06
7.7392901e-06
7.6067451e-06
7.4746671e-06
7.3431162e-06
7.2121543e-06
7.0818434e-06
6.9522477e-06
6.8234349e-06
6.6954778e-06
6.5684563e-06
6.4424606e-06
6.3175939e-06
6.1939752e-06
6.0717453e-06
5.9510734e-06
5.8321686e-06
5.7152947e-06
5.6007856e-06
5.4890698e-06
5.3807112e-06
5.2764681e-06
5.1773776e-06
5.08491e-06
5.0012001e-06
4.9293459e-06
4.8738919e-06
4.8416826e-06
4.843282e-06
4.895285e-06
5.0247925e-06
5.2756081e-06
5.7172215e-06
6.4615235e-06
7.6900017e-06
9.6913482e-06
1.2913903e-05
1.8012232e-05
2.5928363e-05
3.7999018e-05
5.6107908e-05
8.2533665e-05
0.00011954012
0.00016974924
0.00023633526
0.00032380748
0.00042943204
0.00055118419
0.00068812827
0.00083771389
0.00099516003
0.0011515389
0.0013064875
0.0014583614
0.0016058924
0.0017487751
0.0018875424
0.0020196711
0.0021442128
0.0022614791
0.0023720879
0.0024732069
0.0025659147
0.0026514188
0.0027304725
0.002803026
0.0028691125
0.002929399
0.0029846577
0.0030352424
0.0030814859
0.0031238651
0.0031628414
0.0031983616
0.0032307244
0.003260373
0.0032876069
0.0033126061
0.0033355132
0.003356297
0.0033752091
0.0033924888
0.0034082622
0.0034226248
0.0034356231
0.0034473217
0.0034578182
0.0034672602
0.0034755672
0.0034827552
0.0034899844
0.0034881975
8.9433937e-06
8.8093525e-06
8.6752286e-06
8.5410885e-06
8.4069947e-06
8.2730088e-06
8.1391914e-06
8.005602e-06
7.8723001e-06
7.7393454e-06
7.6067973e-06
7.4747146e-06
7.343156e-06
7.2121793e-06
7.0818417e-06
6.9521994e-06
6.8233075e-06
6.6952203e-06
6.5679913e-06
6.4416733e-06
6.3163187e-06
6.1919791e-06
6.068706e-06
5.9465513e-06
5.8255681e-06
5.7058118e-06
5.5873416e-06
5.4702213e-06
5.3545228e-06
5.2403296e-06
5.1277427e-06
5.0168901e-06
4.9079423e-06
4.8011318e-06
4.6967834e-06
4.5953674e-06
4.4975876e-06
4.4045232e-06
4.3179092e-06
4.240576e-06
4.1770879e-06
4.134985e-06
4.1269783e-06
4.1747696e-06
4.3159806e-06
4.615074e-06
5.1817525e-06
6.2031754e-06
7.9955357e-06
1.106445e-05
1.6166015e-05
2.440576e-05
3.7364665e-05
5.7372214e-05
8.6811232e-05
0.00012816738
0.00018435146
0.00025924815
0.00035526893
0.00046714115
0.00059363802
0.00073297286
0.00088142773
0.0010325243
0.0011806034
0.001326871
0.0014702018
0.0016094591
0.0017460955
0.0018773776
0.0020020162
0.0021200244
0.0022319239
0.0023355891
0.0024310915
0.0025193575
0.0026009437
0.0026757127
0.0027441395
0.0028069731
0.0028648076
0.0029176366
0.0029658258
0.0030099871
0.0030505321
0.0030877411
0.0031219303
0.0031531939
0.0031817799
0.0032080071
0.0032321233
0.0032542865
0.0032745357
0.0032929402
0.0033097851
0.0033252319
0.0033392215
0.0033518249
0.0033643667
0.0033675682
8.9434476e-06
8.8094134e-06
8.6752945e-06
8.5411573e-06
8.4070649e-06
8.273079e-06
8.1392606e-06
8.0056697e-06
7.8723661e-06
7.7394094e-06
7.6068589e-06
7.4747737e-06
7.3432124e-06
7.2122326e-06
7.0818914e-06
6.9522448e-06
6.8233474e-06
6.6952528e-06
6.5680132e-06
6.4416795e-06
6.3163014e-06
6.1919266e-06
6.0686012e-06
5.9463699e-06
5.8252756e-06
5.7053599e-06
5.5866632e-06
5.4692244e-06
5.3530812e-06
5.2382702e-06
5.1248276e-06
5.0127895e-06
4.9021931e-06
4.7930781e-06
4.6854884e-06
4.5794748e-06
4.475101e-06
4.3724518e-06
4.2716491e-06
4.1728794e-06
4.0764322e-06
3.9827743e-06
3.8926831e-06
3.807485e-06
3.7295062e-06
3.6628398e-06
3.6146788e-06
3.5978753e-06
3.6357175e-06
3.7705549e-06
4.0782785e-06
4.6937552e-06
5.8552944e-06
7.982853e-06
1.1740091e-05
1.8131895e-05
2.862659e-05
4.5383581e-05
7.1217742e-05
0.00010869659
0.00016062793
0.0002307579
0.00032130897
0.0004299063
0.00055205826
0.00068613743
0.00082864442
0.00097500092
0.0011173565
0.0012584677
0.0013973384
0.0015327957
0.001666214
0.0017951068
0.0019181143
0.0020350394
0.0021461381
0.0022490626
0.0023443147
0.0024326494
0.0025144681
0.0025895168
0.0026583362
0.0027215588
0.0027795302
0.0028326459
0.002881448
0.0029261848
0.002967088
0.0030045828
0.0030390746
0.0030708107
0.0030999245
0.0031265438
0.0031509981
0.003173527
0.0031941739
0.0032129068
0.0032313997
0.003239633
8.9435057e-06
8.8094788e-06
8.6753651e-06
8.5412312e-06
8.4071404e-06
8.2731548e-06
8.1393356e-06
8.0057433e-06
7.8724377e-06
7.7394788e-06
7.606926e-06
7.4748383e-06
7.3432744e-06
7.2122921e-06
7.0819483e-06
6.952299e-06
6.823399e-06
6.6953016e-06
6.5680591e-06
6.4417224e-06
6.3163408e-06
6.191962e-06
6.068632e-06
5.9463948e-06
5.825293e-06
5.7053673e-06
5.586657e-06
5.4691996e-06
5.3530304e-06
5.2381832e-06
5.1246898e-06
5.0125805e-06
4.9018839e-06
4.792627e-06
4.6848354e-06
4.5785332e-06
4.4737436e-06
4.370489e-06
4.2687922e-06
4.1686783e-06
4.0701771e-06
3.9733262e-06
3.8781799e-06
3.7848223e-06
3.6933943e-06
3.6041399e-06
3.5174879e-06
3.4342082e-06
3.3557109e-06
3.2846219e-06
3.2258248e-06
3.188356e-06
3.1891163e-06
3.2604344e-06
3.4630738e-06
3.9097762e-06
4.8080597e-06
6.5369044e-06
9.7488254e-06
1.5465829e-05
2.5200709e-05
4.1203272e-05
6.6398049e-05
0.00010385353
0.00015640718
0.00022800666
0.00031907064
0.00042883847
0.00055099264
0.00068327615
0.0008222265
0.00096395494
0.0011019256
0.0012382482
0.0013727454
0.0015045984
0.0016345393
0.0017599942
0.0018798804
0.0019941645
0.0021025075
0.0022028591
0.0022960945
0.0023826289
0.0024623822
0.0025357276
0.0026032677
0.0026653097
0.0027220942
0.0027741408
0.0028219501
0.0028658483
0.0029061404
0.0029430594
0.0029769402
0.0030081269
0.0030368287
0.0030629701
0.003088605
0.0031028795
8.9435672e-06
8.8095478e-06
8.6754395e-06
8.5413091e-06
8.4072202e-06
8.2732351e-06
8.1394152e-06
8.0058215e-06
7.8725141e-06
7.7395531e-06
7.6069979e-06
7.4749078e-06
7.3433413e-06
7.2123564e-06
7.0820099e-06
6.9523578e-06
6.8234548e-06
6.6953546e-06
6.5681092e-06
6.4417695e-06
6.316385e-06
6.1920033e-06
6.0686703e-06
5.9464303e-06
5.8253256e-06
5.7053971e-06
5.586684e-06
5.4692235e-06
5.3530511e-06
5.2382002e-06
5.1247026e-06
5.012588e-06
4.9018845e-06
4.7926184e-06
4.6848141e-06
4.5784942e-06
4.473679e-06
4.3703875e-06
4.2686363e-06
4.1684409e-06
4.0698155e-06
3.9727728e-06
3.8773243e-06
3.7834819e-06
3.6912588e-06
3.6006728e-06
3.5117505e-06
3.4245367e-06
3.3391113e-06
3.2556247e-06
3.1743616e-06
3.0958604e-06
3.0211465e-06
2.9522157e-06
2.8929593e-06
2.8509084e-06
2.8406847e-06
2.8911568e-06
3.0594658e-06
3.4565912e-06
4.2945216e-06
5.9738975e-06
9.2038236e-06
1.51471e-05
2.5532979e-05
4.297106e-05
7.057889e-05
0.00011183778
0.00016987581
0.0002476899
0.00034436139
0.00045870899
0.0005836079
0.00071572037
0.00085218061
0.00098948271
0.0011229305
0.0012551603
0.0013854425
0.001514115
0.0016400605
0.0017613112
0.0018772735
0.0019879658
0.0020915947
0.0021879891
0.0022776373
0.0023606538
0.0024370959
0.0025074406
0.0025721298
0.0026314907
0.0026859983
0.0027360049
0.0027818324
0.0028239237
0.0028626708
0.0028980022
0.0029323778
0.0029543789
8.9436315e-06
8.8096196e-06
8.675517e-06
8.5413902e-06
8.4073034e-06
8.2733189e-06
8.1394986e-06
8.0059037e-06
7.8725946e-06
7.7396315e-06
7.607074e-06
7.4749814e-06
7.3434123e-06
7.2124246e-06
7.0820753e-06
6.9524203e-06
6.8235144e-06
6.6954112e-06
6.5681629e-06
6.4418203e-06
6.3164328e-06
6.1920482e-06
6.0687123e-06
5.9464695e-06
5.8253621e-06
5.705431e-06
5.5867155e-06
5.4692527e-06
5.353078e-06
5.238225e-06
5.1247254e-06
5.0126089e-06
4.9019036e-06
4.7926357e-06
4.6848295e-06
4.5785074e-06
4.4736899e-06
4.3703952e-06
4.2686401e-06
4.1684393e-06
4.0698061e-06
3.9727516e-06
3.8772851e-06
3.7834143e-06
3.6911451e-06
3.6004826e-06
3.5114306e-06
3.4239922e-06
3.3381711e-06
3.2539734e-06
3.1714117e-06
3.090512e-06
3.0113275e-06
2.9339669e-06
2.8586533e-06
2.785834e-06
2.7164028e-06
2.6521649e-06
2.5968011e-06
2.5577731e-06
2.5501577e-06
2.6048814e-06
2.78546e-06
3.2209791e-06
4.1669238e-06
6.1210737e-06
9.9682615e-06
1.7175507e-05
2.995566e-05
5.1391149e-05
8.49254e-05
0.00013436648
0.00020332857
0.00029111997
0.00039696447
0.00051756318
0.00064501941
0.00077690578
0.00091100062
0.0010433339
0.001172718
0.0013011039
0.0014277949
0.0015529522
0.0016742639
0.0017906531
0.0019020518
0.0020073977
0.0021054897
0.0021967862
0.0022815185
0.0023596751
0.0024317125
0.0024980059
0.0025588269
0.0026146639
0.002666029
0.0027128907
0.0027580974
0.0027900822
8.9436982e-06
8.8096938e-06
8.6755968e-06
8.5414739e-06
8.4073893e-06
8.2734057e-06
8.1395852e-06
8.0059892e-06
7.8726786e-06
7.7397134e-06
7.6071536e-06
7.4750585e-06
7.3434868e-06
7.2124963e-06
7.0821441e-06
6.9524862e-06
6.8235774e-06
6.6954711e-06
6.5682198e-06
6.4418741e-06
6.3164836e-06
6.1920959e-06
6.0687571e-06
5.9465113e-06
5.8254011e-06
5.7054674e-06
5.5867493e-06
5.469284e-06
5.3531071e-06
5.238252e-06
5.1247504e-06
5.0126321e-06
4.9019251e-06
4.7926557e-06
4.6848481e-06
4.5785247e-06
4.4737059e-06
4.3704101e-06
4.2686538e-06
4.1684519e-06
4.0698175e-06
3.9727616e-06
3.8772934e-06
3.7834203e-06
3.691148e-06
3.6004807e-06
3.511421e-06
3.4239697e-06
3.3381264e-06
3.253889e-06
3.171255e-06
3.0902211e-06
3.010784e-06
2.9329425e-06
2.8567007e-06
2.7820751e-06
2.7091071e-06
2.6378924e-06
2.5686403e-06
2.5017963e-06
2.4382929e-06
2.380094e-06
2.3313673e-06
2.300935e-06
2.3074014e-06
2.3907082e-06
2.6359044e-06
3.2223519e-06
4.5179266e-06
7.2317514e-06
1.2612487e-05
2.2686544e-05
4.0497896e-05
6.9526807e-05
0.0001135622
0.00017696636
0.00025973232
0.00036061778
0.0004771185
0.00060216241
0.00073075101
0.000861561
0.00099215132
0.0011195448
0.0012455202
0.0013700061
0.0014937142
0.0016142243
0.0017301668
0.0018413434
0.0019469623
0.0020454015
0.0021371471
0.0022224353
0.0023011601
0.0023737144
0.0024406144
0.0025017841
0.0025603379
0.0026050428
8.943767e-06
8.8097699e-06
8.6756787e-06
8.5415598e-06
8.4074775e-06
8.273495e-06
8.1396745e-06
8.0060776e-06
7.8727654e-06
7.7397983e-06
7.6072363e-06
7.4751387e-06
7.3435643e-06
7.2125711e-06
7.082216e-06
6.9525551e-06
6.8236432e-06
6.6955339e-06
6.5682794e-06
6.4419307e-06
6.316537e-06
6.1921463e-06
6.0688043e-06
5.9465556e-06
5.8254425e-06
5.705506e-06
5.5867853e-06
5.4693175e-06
5.3531382e-06
5.238281e-06
5.1247773e-06
5.0126572e-06
4.9019485e-06
4.7926774e-06
4.6848684e-06
4.5785437e-06
4.4737236e-06
4.3704267e-06
4.2686693e-06
4.1684665e-06
4.0698311e-06
3.9727743e-06
3.8773053e-06
3.7834314e-06
3.6911583e-06
3.6004901e-06
3.5114293e-06
3.4239768e-06
3.3381317e-06
3.2538918e-06
3.1712534e-06
3.0902119e-06
3.0107607e-06
2.9328926e-06
2.8565994e-06
2.7818725e-06
2.7087038e-06
2.6370871e-06
2.567022e-06
2.4985213e-06
2.4316263e-06
2.3664407e-06
2.3032045e-06
2.2424536e-06
2.1853588e-06
2.134506e-06
2.095617e-06
2.0813168e-06
2.119606e-06
2.2727517e-06
2.6778788e-06
3.6319812e-06
5.7506142e-06
1.0173319e-05
1.8811325e-05
3.4727797e-05
6.1586784e-05
0.00010327347
0.00016429121
0.00024515176
0.00034409245
0.00045830292
0.0005820446
0.00070846781
0.00083650457
0.00096485524
0.001090247
0.0012137709
0.0013361866
0.0014581701
0.0015772774
0.0016920703
0.0018022768
0.0019070883
0.0020048474
0.0020959968
0.0021808628
0.0022589504
0.0023334195
0.0023938974
8.9438377e-06
8.8098477e-06
8.6757622e-06
8.5416474e-06
8.4075676e-06
8.2735864e-06
8.139766e-06
8.0061684e-06
7.8728548e-06
7.7398859e-06
7.6073217e-06
7.4752217e-06
7.3436446e-06
7.2126486e-06
7.0822906e-06
6.9526267e-06
6.8237117e-06
6.6955992e-06
6.5683416e-06
6.4419897e-06
6.3165928e-06
6.1921989e-06
6.0688538e-06
5.946602e-06
5.825486e-06
5.7055467e-06
5.5868232e-06
5.4693529e-06
5.3531712e-06
5.2383116e-06
5.1248059e-06
5.0126838e-06
4.9019733e-06
4.7927006e-06
4.68489e-06
4.5785639e-06
4.4737425e-06
4.3704444e-06
4.268686e-06
4.1684821e-06
4.0698457e-06
3.972788e-06
3.8773182e-06
3.7834435e-06
3.6911696e-06
3.6005007e-06
3.5114393e-06
3.4239861e-06
3.3381404e-06
3.2538998e-06
3.1712607e-06
3.0902182e-06
3.0107659e-06
2.932896e-06
2.8565996e-06
2.7818669e-06
2.708687e-06
2.6370479e-06
2.5669372e-06
2.4983425e-06
2.4312521e-06
2.365657e-06
2.3015558e-06
2.2389642e-06
2.1779362e-06
2.1186132e-06
2.0613356e-06
2.0068901e-06
1.9570802e-06
1.9160595e-06
1.8933837e-06
1.9110512e-06
2.0202968e-06
2.3387658e-06
3.1308846e-06
4.9766368e-06
9.0012159e-06
1.7147265e-05
3.2590343e-05
5.9243106e-05
0.00010116326
0.00016288376
0.00024462163
0.00034419074
0.00045805499
0.00058113118
0.00070591116
0.00083156303
0.00095746702
0.0010806874
0.0012019503
0.0013225467
0.0014426509
0.0015599143
0.0016730688
0.0017817138
0.0018849236
0.0019809362
0.0020729795
0.0021519426
8.9439102e-06
8.8099271e-06
8.6758472e-06
8.5417364e-06
8.4076594e-06
8.2736795e-06
8.1398594e-06
8.0062612e-06
7.8729465e-06
7.7399758e-06
7.6074095e-06
7.4753071e-06
7.3437274e-06
7.2127286e-06
7.0823676e-06
6.9527007e-06
6.8237825e-06
6.6956669e-06
6.5684061e-06
6.4420509e-06
6.3166508e-06
6.1922536e-06
6.0689054e-06
5.9466504e-06
5.8255314e-06
5.7055892e-06
5.5868629e-06
5.46939e-06
5.3532057e-06
5.2383438e-06
5.1248359e-06
5.0127118e-06
4.9019995e-06
4.7927251e-06
4.6849129e-06
4.5785853e-06
4.4737626e-06
4.3704632e-06
4.2687036e-06
4.1684986e-06
4.0698613e-06
3.9728027e-06
3.8773319e-06
3.7834564e-06
3.6911817e-06
3.6005121e-06
3.51145e-06
3.4239961e-06
3.3381498e-06
3.2539085e-06
3.1712689e-06
3.0902258e-06
3.010773e-06
2.9329025e-06
2.8566055e-06
2.7818721e-06
2.7086912e-06
2.6370506e-06
2.5669371e-06
2.498337e-06
2.4312356e-06
2.3656174e-06
2.3014669e-06
2.2387688e-06
2.1775097e-06
2.1176803e-06
2.0592832e-06
2.0023479e-06
1.9469668e-06
1.8933813e-06
1.842184e-06
1.7947902e-06
1.7546022e-06
1.7297895e-06
1.7398345e-06
1.8320567e-06
2.1196949e-06
2.8671662e-06
4.6752719e-06
8.7501984e-06
1.7213776e-05
3.352203e-05
6.186642e-05
0.00010652104
0.0001714964
0.00025668376
0.00035892993
0.00047380007
0.0005964114
0.00071974669
0.00084333378
0.00096675947
0.0010877687
0.0012069202
0.0013259412
0.00144405
0.0015592381
0.0016701837
0.0017790506
0.0018772737
8.9439842e-06
8.8100078e-06
8.6759334e-06
8.5418268e-06
8.4077525e-06
8.2737741e-06
8.1399545e-06
8.0063559e-06
7.87304e-06
7.7400677e-06
7.6074994e-06
7.4753946e-06
7.3438124e-06
7.2128107e-06
7.0824469e-06
6.9527768e-06
6.8238556e-06
6.6957367e-06
6.5684726e-06
6.4421142e-06
6.3167108e-06
6.1923103e-06
6.0689588e-06
5.9467006e-06
5.8255785e-06
5.7056333e-06
5.5869043e-06
5.4694286e-06
5.3532418e-06
5.2383775e-06
5.1248673e-06
5.0127411e-06
4.9020269e-06
4.7927507e-06
4.6849369e-06
4.5786078e-06
4.4737836e-06
4.3704829e-06
4.2687222e-06
4.1685161e-06
4.0698777e-06
3.9728181e-06
3.8773464e-06
3.78347e-06
3.6911946e-06
3.6005242e-06
3.5114613e-06
3.4240067e-06
3.3381597e-06
3.2539179e-06
3.1712776e-06
3.090234e-06
3.0107805e-06
2.9329095e-06
2.856612e-06
2.7818782e-06
2.7086968e-06
2.6370557e-06
2.5669417e-06
2.498341e-06
2.4312386e-06
2.3656189e-06
2.3014655e-06
2.2387613e-06
2.177489e-06
2.1176306e-06
2.0591684e-06
2.0020861e-06
1.9463704e-06
1.8920167e-06
1.8390418e-06
1.7875137e-06
1.7376266e-06
1.6898857e-06
1.6455501e-06
1.607772e-06
1.584435e-06
1.595097e-06
1.6890677e-06
1.9890572e-06
2.7920501e-06
4.7875558e-06
9.3790816e-06
1.9050806e-05
3.7669132e-05
6.9746123e-05
0.00011977379
0.00019051182
0.00028108024
0.00038722868
0.00050368077
0.00062563561
0.00074749673
0.00086920336
0.00099018681
0.0011089619
0.0012262559
0.0013436795
0.0014618942
0.0015741337
8.9440596e-06
8.8100897e-06
8.6760207e-06
8.5419182e-06
8.4078467e-06
8.27387e-06
8.140051e-06
8.0064522e-06
7.8731353e-06
7.7401615e-06
7.6075912e-06
7.4754841e-06
7.3438993e-06
7.2128949e-06
7.0825281e-06
6.952855e-06
6.8239306e-06
6.6958085e-06
6.5685411e-06
6.4421793e-06
6.3167726e-06
6.1923688e-06
6.0690139e-06
5.9467526e-06
5.8256273e-06
5.7056791e-06
5.5869471e-06
5.4694687e-06
5.3532793e-06
5.2384125e-06
5.1249e-06
5.0127717e-06
4.9020555e-06
4.7927775e-06
4.684962e-06
4.5786313e-06
4.4738057e-06
4.3705036e-06
4.2687416e-06
4.1685344e-06
4.0698949e-06
3.9728342e-06
3.8773616e-06
3.7834843e-06
3.691208e-06
3.6005368e-06
3.5114731e-06
3.4240179e-06
3.3381701e-06
3.2539276e-06
3.1712868e-06
3.0902425e-06
3.0107885e-06
2.932917e-06
2.856619e-06
2.7818846e-06
2.7087027e-06
2.6370612e-06
2.5669468e-06
2.4983457e-06
2.4312429e-06
2.3656228e-06
2.3014689e-06
2.2387641e-06
2.1774908e-06
2.1176306e-06
2.0591646e-06
2.0020739e-06
1.9463388e-06
1.8919402e-06
1.8388596e-06
1.7870817e-06
1.736598e-06
1.6874194e-06
1.6396044e-06
1.5933322e-06
1.5490926e-06
1.5081589e-06
1.4738456e-06
1.4547733e-06
1.4731961e-06
1.5873076e-06
1.9471803e-06
2.9278797e-06
5.4026326e-06
1.1127558e-05
2.3177616e-05
4.5911103e-05
8.4101444e-05
0.00014226724
0.0002208242
0.00031790812
0.00042805528
0.00054602653
0.00066696485
0.00078724349
0.00090731279
0.00102561
0.0011444884
0.001260488
8.9441365e-06
8.8101727e-06
8.6761091e-06
8.5420106e-06
8.407942e-06
8.273967e-06
8.1401488e-06
8.0065498e-06
7.8732321e-06
7.7402569e-06
7.6076847e-06
7.4755755e-06
7.3439881e-06
7.212981e-06
7.0826113e-06
6.9529351e-06
6.8240074e-06
6.6958821e-06
6.5686113e-06
6.4422462e-06
6.3168361e-06
6.1924289e-06
6.0690707e-06
5.9468061e-06
5.8256776e-06
5.7057264e-06
5.5869914e-06
5.4695102e-06
5.3533181e-06
5.2384488e-06
5.1249339e-06
5.0128034e-06
4.9020851e-06
4.7928053e-06
4.684988e-06
4.5786557e-06
4.4738285e-06
4.3705251e-06
4.2687618e-06
4.1685533e-06
4.0699128e-06
3.972851e-06
3.8773774e-06
3.7834991e-06
3.6912219e-06
3.6005499e-06
3.5114855e-06
3.4240294e-06
3.338181e-06
3.2539378e-06
3.1712963e-06
3.0902514e-06
3.0107968e-06
2.9329247e-06
2.8566262e-06
2.7818913e-06
2.708709e-06
2.637067e-06
2.5669522e-06
2.4983506e-06
2.4312475e-06
2.365627e-06
2.3014727e-06
2.2387676e-06
2.177494e-06
2.1176334e-06
2.059167e-06
2.0020755e-06
1.9463392e-06
1.8919379e-06
1.8388512e-06
1.7870586e-06
1.7365398e-06
1.6872752e-06
1.6392483e-06
1.5924494e-06
1.5468883e-06
1.5026245e-06
1.4598494e-06
1.4191052e-06
1.3818577e-06
1.3520702e-06
1.3404559e-06
1.3758334e-06
1.5361075e-06
2.0281017e-06
3.3796872e-06
6.7926873e-06
1.460165e-05
3.0710095e-05
5.9872616e-05
0.00010704517
0.00017511665
0.00026298827
0.00036687004
0.00048049026
0.00059969347
0.00071884083
0.00083980223
0.00095732427
8.9442146e-06
8.8102568e-06
8.6761983e-06
8.5421039e-06
8.4080382e-06
8.274065e-06
8.1402476e-06
8.0066487e-06
7.8733303e-06
7.7403538e-06
7.6077798e-06
7.4756684e-06
7.3440786e-06
7.2130688e-06
7.0826961e-06
6.9530169e-06
6.824086e-06
6.6959574e-06
6.5686833e-06
6.4423148e-06
6.3169012e-06
6.1924906e-06
6.0691291e-06
5.9468611e-06
5.8257294e-06
5.705775e-06
5.5870371e-06
5.4695529e-06
5.3533581e-06
5.2384862e-06
5.1249689e-06
5.0128361e-06
4.9021158e-06
4.792834e-06
4.6850149e-06
4.5786809e-06
4.4738522e-06
4.3705473e-06
4.2687827e-06
4.168573e-06
4.0699312e-06
3.9728684e-06
3.8773937e-06
3.7835145e-06
3.6912364e-06
3.6005635e-06
3.5114983e-06
3.4240414e-06
3.3381922e-06
3.2539484e-06
3.1713062e-06
3.0902607e-06
3.0108054e-06
2.9329327e-06
2.8566337e-06
2.7818983e-06
2.7087154e-06
2.6370729e-06
2.5669577e-06
2.4983557e-06
2.4312522e-06
2.3656313e-06
2.3014767e-06
2.2387713e-06
2.1774973e-06
2.1176364e-06
2.0591697e-06
2.002078e-06
1.9463414e-06
1.8919397e-06
1.8388525e-06
1.787059e-06
1.736538e-06
1.6872684e-06
1.639229e-06
1.5923988e-06
1.5467579e-06
1.5022894e-06
1.4589843e-06
1.4168559e-06
1.3759767e-06
1.3365821e-06
1.2993594e-06
1.2662351e-06
1.2426128e-06
1.2436197e-06
1.3116646e-06
1.5647624e-06
2.3231148e-06
4.3997893e-06
9.546959e-06
2.1003249e-05
4.3450526e-05
8.1944818e-05
0.00014099532
0.00022051285
0.00031819029
0.00042751842
0.00054592545
0.00066446654
8.944294e-06
8.810342e-06
8.6762883e-06
8.5421979e-06
8.4081351e-06
8.2741638e-06
8.1403474e-06
8.0067486e-06
7.8734296e-06
7.7404519e-06
7.6078763e-06
7.4757628e-06
7.3441706e-06
7.2131581e-06
7.0827825e-06
6.9531002e-06
6.8241662e-06
6.6960342e-06
6.5687568e-06
6.4423849e-06
6.3169679e-06
6.1925538e-06
6.0691889e-06
5.9469175e-06
5.8257826e-06
5.705825e-06
5.5870839e-06
5.4695969e-06
5.3533993e-06
5.2385247e-06
5.125005e-06
5.0128699e-06
4.9021474e-06
4.7928636e-06
4.6850427e-06
4.5787069e-06
4.4738767e-06
4.3705702e-06
4.2688042e-06
4.1685933e-06
4.0699503e-06
3.9728864e-06
3.8774106e-06
3.7835304e-06
3.6912513e-06
3.6005776e-06
3.5115114e-06
3.4240538e-06
3.3382038e-06
3.2539592e-06
3.1713164e-06
3.0902702e-06
3.0108143e-06
2.932941e-06
2.8566414e-06
2.7819054e-06
2.7087221e-06
2.6370791e-06
2.5669634e-06
2.498361e-06
2.431257e-06
2.3656358e-06
2.3014808e-06
2.238775e-06