/*--------------------------------*- C++ -*----------------------------------*\
  =========                 |
  \\      /  F ield         | OpenFOAM: The Open Source CFD Toolbox
   \\    /   O peration     | Website:  https://openfoam.org
    \\  /    A nd           | Version:  12
     \\/     M anipulation  |
\*---------------------------------------------------------------------------*/
FoamFile
{
    format      ascii;
    class       surfaceScalarField;
    location    "1000";
    object      phi;
}
// * * * * * * * * * * * * * * * * * * * * * * * * * * * * * * * * * * * * * //

dimensions      [0 3 -1 0 0 0 0];

internalField   nonuniform List<scalar> 
14782
(
0.0007825013
8.8479586e-06
-0.00079134926
0.00077194014
1.0561159e-05
0.00076078944
1.1150699e-05
0.00074959797
1.119147e-05
0.00073861407
1.0983901e-05
0.00072801975
1.0594323e-05
0.00071784476
1.0174987e-05
0.00070803003
9.8147326e-06
0.0006985088
9.5212279e-06
0.00068916362
9.3451809e-06
0.00067988341
9.2802071e-06
0.00067061202
9.271393e-06
0.00066133837
9.2736463e-06
0.0006520755
9.2628762e-06
0.00064284991
9.2255837e-06
0.00063370818
9.1417307e-06
0.00062473469
8.9734898e-06
0.0006159476
8.7870963e-06
0.00060737236
8.5752411e-06
0.00059909779
8.2745677e-06
0.00059117081
7.9269831e-06
0.0005836403
7.530507e-06
0.00057654846
7.0918347e-06
0.00056992824
6.6202257e-06
0.00056381582
6.112422e-06
0.00055823458
5.5812399e-06
0.00055317713
5.0574509e-06
0.00054862934
4.5477831e-06
0.00054456823
4.0611117e-06
0.00054095986
3.6083686e-06
0.00053776385
3.1960155e-06
0.00053494443
2.819421e-06
0.00053247252
2.4719059e-06
0.00053030478
2.1677413e-06
0.00052839189
1.9128895e-06
0.00052668656
1.7053243e-06
0.00052514092
1.5456408e-06
0.00052371462
1.4263054e-06
0.00052238732
1.3273024e-06
0.00052113326
1.2540554e-06
0.00051991874
1.2145163e-06
0.00051872082
1.1979216e-06
0.00051752161
1.1992122e-06
0.00051630839
1.2132156e-06
0.00051507669
1.2317051e-06
0.00051381819
1.2584971e-06
0.00051251828
1.2999088e-06
0.00051116336
1.3549199e-06
0.00050974626
1.4171004e-06
0.00050827185
1.4744122e-06
0.00050674256
1.5292881e-06
0.00050515908
1.5834805e-06
0.0005035279
1.6311859e-06
0.00050186453
1.6633691e-06
0.00050018425
1.6802818e-06
0.00049849216
1.6920867e-06
0.00049679056
1.7015942e-06
0.0004950838
1.7067685e-06
0.00049337943
1.7043694e-06
0.00049167975
1.699676e-06
0.00048998284
1.6969077e-06
0.00048829455
1.6882937e-06
0.00048662235
1.6721976e-06
0.00048496803
1.6543205e-06
0.00048332937
1.6386655e-06
0.00048171116
1.6182064e-06
0.00048011513
1.5960266e-06
0.00047853471
1.5804223e-06
0.00047696768
1.5670328e-06
0.00047541684
1.5508371e-06
0.0004738821
1.5347454e-06
0.00047235964
1.5224585e-06
0.00047085528
1.5043603e-06
0.00046937147
1.4838022e-06
0.00046790145
1.4700286e-06
0.0004664472
1.4542489e-06
0.00046500998
1.4372208e-06
0.00046358336
1.4266133e-06
0.00046217016
1.4132022e-06
0.00046077389
1.3962682e-06
0.00045939021
1.3836807e-06
0.00045802161
1.3685991e-06
0.00045666901
1.3526037e-06
0.00045532665
1.3423634e-06
0.00045399668
1.3299696e-06
0.0004526801
1.3165783e-06
0.00045137546
1.3046331e-06
0.00045008454
1.2909257e-06
0.00044880462
1.279919e-06
0.00044753612
1.2684968e-06
0.00044627899
1.2571379e-06
0.00044503141
1.2475712e-06
0.00044379522
1.2361912e-06
0.00044256768
1.2275476e-06
0.00044134749
1.2201807e-06
0.00044013303
1.2144627e-06
0.00043894827
1.1847603e-06
0.0004376249
1.3233723e-06
0.00043659697
1.0279283e-06
1.4101351e-06
0.0008254996
8.0469206e-06
-0.00082469856
0.00082599856
1.0062194e-05
0.00082623027
1.0918996e-05
0.00082611496
1.1306778e-05
0.00082531522
1.1783635e-05
0.00082379986
1.2109689e-05
0.00082164458
1.2330263e-05
0.00081890384
1.255548e-05
0.00081566297
1.2762097e-05
0.00081202695
1.2981197e-05
0.00080811181
1.3195349e-05
0.00080397226
1.3410939e-05
0.00079962972
1.3616186e-05
0.00079509202
1.3800575e-05
0.00079035815
1.3959458e-05
0.00078542241
1.4077466e-05
0.00078025525
1.4140651e-05
0.00077487493
1.4167416e-05
0.00076928621
1.4163966e-05
0.00076348636
1.4074417e-05
0.00075754004
1.38733e-05
0.00075148455
1.3585997e-05
0.00074534955
1.3226833e-05
0.00073916546
1.280432e-05
0.00073297113
1.2306749e-05
0.00072680208
1.1750288e-05
0.00072068485
1.1174682e-05
0.00071465332
1.0579316e-05
0.00070874295
9.9714814e-06
0.00070298702
9.3643007e-06
0.00069741651
8.7665273e-06
0.00069206695
8.1689748e-06
0.0006869426
7.5962565e-06
0.00068202026
7.0900792e-06
0.00067730046
6.6326941e-06
0.00067279047
6.2153137e-06
0.00066849429
5.8418209e-06
0.00066440766
5.5129347e-06
0.00066052561
5.2093525e-06
0.0006568341
4.9455668e-06
0.00065331156
4.7370544e-06
0.00064994143
4.5680533e-06
0.00064670805
4.4325955e-06
0.00064359931
4.3219474e-06
0.00064060802
4.2229958e-06
0.00063772432
4.1421949e-06
0.00063491237
4.1118603e-06
0.00063213495
4.1323447e-06
0.00062938888
4.163165e-06
0.00062668564
4.1776545e-06
0.00062403037
4.1845591e-06
0.00062141951
4.1943418e-06
0.000618848
4.202699e-06
0.00061631724
4.1941298e-06
0.0006138296
4.1679184e-06
0.00061137635
4.1453333e-06
0.00060894643
4.131512e-06
0.00060653671
4.1164905e-06
0.00060415206
4.0890185e-06
0.00060179597
4.0557687e-06
0.00059946762
4.0252579e-06
0.00059716992
3.9859969e-06
0.00059490732
3.9347993e-06
0.00059268053
3.8811022e-06
0.00059048665
3.8325495e-06
0.00058832588
3.7789801e-06
0.00058619646
3.7254395e-06
0.00058409281
3.684072e-06
0.00058201322
3.6466255e-06
0.00057996076
3.6032998e-06
0.0005779369
3.5586052e-06
0.00057593902
3.5203345e-06
0.00057397057
3.4728108e-06
0.00057203323
3.4211394e-06
0.00057012066
3.3826071e-06
0.00056823187
3.3430398e-06
0.00056636777
3.301315e-06
0.00056452464
3.2697487e-06
0.00056270402
3.2338212e-06
0.00056090881
3.1914724e-06
0.00055913612
3.1563763e-06
0.00055738601
3.1187076e-06
0.00055565835
3.080263e-06
0.00055394906
3.0516558e-06
0.00055225899
3.0200326e-06
0.00055058924
2.9863318e-06
0.00054893906
2.9548154e-06
0.00054730874
2.9212492e-06
0.00054569571
2.8929403e-06
0.00054409973
2.8644776e-06
0.00054252077
2.8361006e-06
0.00054095779
2.8105485e-06
0.00053941096
2.7830242e-06
0.00053787923
2.7592742e-06
0.00053635581
2.7436071e-06
0.00053485322
2.7170542e-06
0.00053335229
2.6856886e-06
0.00053183241
2.8432496e-06
0.00053016541
2.6949324e-06
2.9203863e-06
0.00085292622
7.6015816e-06
-0.00085248088
0.00085335399
9.6344218e-06
0.00085371486
1.055813e-05
0.00085400347
1.1018172e-05
0.0008542927
1.1494398e-05
0.00085452275
1.1879644e-05
0.00085465007
1.2202941e-05
0.00085467554
1.2530005e-05
0.00085460211
1.2835527e-05
0.00085441888
1.3164433e-05
0.00085411783
1.3496394e-05
0.00085369323
1.383554e-05
0.00085313171
1.4177707e-05
0.00085242213
1.4510154e-05
0.00085154986
1.4831734e-05
0.00085049628
1.513104e-05
0.00084923162
1.5405313e-05
0.00084773995
1.5659082e-05
0.00084599596
1.5907955e-05
0.00084394536
1.6125025e-05
0.00084155412
1.6264539e-05
0.00083880145
1.6338665e-05
0.00083566822
1.6360065e-05
0.00083214531
1.6327232e-05
0.00082819402
1.6258039e-05
0.00082379725
1.614705e-05
0.00081900891
1.5963025e-05
0.00081388118
1.5707049e-05
0.00080845888
1.5393784e-05
0.00080279135
1.5031829e-05
0.00079693562
1.462226e-05
0.00079095952
1.4145077e-05
0.00078494039
1.3615385e-05
0.00077894212
1.3088346e-05
0.00077301568
1.2559136e-05
0.00076720706
1.2023932e-05
0.00076155904
1.1489837e-05
0.00075607072
1.1001255e-05
0.00075073158
1.05485e-05
0.0007455583
1.0118847e-05
0.00074056241
9.7329388e-06
0.00073575712
9.3733465e-06
0.00073114898
9.0407342e-06
0.00072673217
8.7387567e-06
0.00072249625
8.4589127e-06
0.00071842634
8.2121062e-06
0.00071450897
8.0292371e-06
0.00071073485
7.9064623e-06
0.00070709434
7.8036765e-06
0.00070358178
7.6902066e-06
0.00070018578
7.5805586e-06
0.00069688945
7.4906785e-06
0.00069367794
7.414205e-06
0.00069054658
7.3254964e-06
0.00068748954
7.2249543e-06
0.0006844866
7.14827e-06
0.00068152515
7.0929608e-06
0.00067860731
7.0343308e-06
0.0006757386
6.9577343e-06
0.00067292132
6.8730452e-06
0.00067015303
6.7935533e-06
0.00066743376
6.7052679e-06
0.00066476491
6.6036427e-06
0.00066214515
6.5008592e-06
0.0006595703
6.4074028e-06
0.00065703668
6.3126059e-06
0.00065454001
6.2221061e-06
0.00065207684
6.1472445e-06
0.00064964724
6.076225e-06
0.00064725466
5.9958819e-06
0.00064490055
5.9127093e-06
0.00064258214
5.8387442e-06
0.00064030169
5.7532576e-06
0.00063805949
5.6633463e-06
0.00063584814
5.593957e-06
0.00063366593
5.5252459e-06
0.00063151435
5.4528954e-06
0.00062939094
5.3931606e-06
0.00062729689
5.3278691e-06
0.00062523468
5.2536846e-06
0.00062320133
5.1897279e-06
0.00062119544
5.1245998e-06
0.00061921635
5.0593532e-06
0.00061726086
5.0071466e-06
0.00061532968
4.9512041e-06
0.00061342395
4.8920667e-06
0.00061154287
4.8358913e-06
0.00060968581
4.7783134e-06
0.00060785006
4.7286854e-06
0.00060603529
4.6792514e-06
0.00060424161
4.6297801e-06
0.00060246822
4.5839397e-06
0.0006007145
4.5367416e-06
0.00059897963
4.4941486e-06
0.00059725518
4.4680572e-06
0.00059555791
4.4143171e-06
0.00059385445
4.3891582e-06
0.00059217277
4.5249233e-06
0.00059019874
4.6689596e-06
4.5215468e-06
0.00088145914
7.2579659e-06
-0.00088111552
0.00088188971
9.2038517e-06
0.00088225055
1.0197292e-05
0.00088254242
1.0726296e-05
0.00088281157
1.1225248e-05
0.00088302706
1.1664156e-05
0.0008832096
1.2020406e-05
0.00088337032
1.2369285e-05
0.00088350677
1.2699078e-05
0.00088364053
1.3030669e-05
0.00088376985
1.3367076e-05
0.00088388085
1.3724537e-05
0.00088397256
1.4085992e-05
0.00088404498
1.4437735e-05
0.00088409503
1.4781691e-05
0.00088411792
1.5108149e-05
0.00088410842
1.5414809e-05
0.00088405775
1.5709749e-05
0.00088396021
1.6005502e-05
0.00088380259
1.6282645e-05
0.00088356147
1.6505658e-05
0.00088321712
1.6683013e-05
0.0008827467
1.6830489e-05
0.00088212234
1.6951591e-05
0.00088130619
1.7074184e-05
0.00088024622
1.7207027e-05
0.00087889243
1.7316814e-05
0.00087720371
1.7395763e-05
0.00087514018
1.7457319e-05
0.00087266074
1.7511265e-05
0.00086973206
1.7550943e-05
0.00086628843
1.7588703e-05
0.000862285
1.7618818e-05
0.00085776948
1.7603863e-05
0.00085281018
1.7518439e-05
0.00084747008
1.7364026e-05
0.00084182453
1.7135394e-05
0.00083597372
1.6852064e-05
0.00083002708
1.6495135e-05
0.00082406186
1.6084069e-05
0.00081813702
1.5657783e-05
0.00081231255
1.519781e-05
0.00080661259
1.4740699e-05
0.00080102675
1.4324593e-05
0.00079557067
1.3915e-05
0.00079027051
1.351226e-05
0.00078515666
1.3143093e-05
0.00078025983
1.280329e-05
0.00077557825
1.2485251e-05
0.00077109185
1.2176613e-05
0.0007667753
1.1897103e-05
0.00076260626
1.1659717e-05
0.00075857142
1.1449046e-05
0.00075466879
1.1228127e-05
0.0007508965
1.0997247e-05
0.00074724173
1.0803037e-05
0.00074368729
1.0647409e-05
0.0007402197
1.050192e-05
0.00073683491
1.0342521e-05
0.00073353087
1.0177084e-05
0.00073030157
1.0022854e-05
0.00072714281
9.8640239e-06
0.00072405184
9.6946127e-06
0.00072102477
9.5279345e-06
0.00071805552
9.3766515e-06
0.00071513446
9.2336636e-06
0.00071225702
9.0995474e-06
0.00070942585
8.9784141e-06
0.00070664226
8.8598152e-06
0.00070390887
8.7292729e-06
0.00070122601
8.5955665e-06
0.00069858976
8.4749984e-06
0.0006960012
8.3418159e-06
0.00069345808
8.2064691e-06
0.0006909511
8.1009376e-06
0.00068847955
7.9967937e-06
0.0006860464
7.8860463e-06
0.00068364987
7.7896887e-06
0.0006812907
7.68704e-06
0.00067897083
7.5735569e-06
0.00067668626
7.4742949e-06
0.00067443393
7.3769261e-06
0.00067221317
7.2801139e-06
0.00067002178
7.1985425e-06
0.00066786063
7.1123513e-06
0.00066573079
7.0219071e-06
0.00066363098
6.9357037e-06
0.00066155946
6.8498311e-06
0.00065951337
6.7747713e-06
0.00065749263
6.699997e-06
0.00065549758
6.624828e-06
0.00065352743
6.5540887e-06
0.00065158083
6.4833475e-06
0.00064965667
6.4183008e-06
0.00064774597
6.3787623e-06
0.00064586739
6.292899e-06
0.00064398046
6.2760816e-06
0.00064213805
6.3673368e-06
0.00063992465
6.8823593e-06
6.2258061e-06
0.00091100283
6.9706367e-06
-0.0009107155
0.0009114037
8.8029809e-06
0.00091174715
9.8538381e-06
0.00091202615
1.0447298e-05
0.0009122798
1.0971594e-05
0.00091249664
1.1447321e-05
0.00091268018
1.1836868e-05
0.00091284751
1.2201955e-05
0.00091299758
1.2549002e-05
0.00091313686
1.2891388e-05
0.00091326481
1.3239129e-05
0.00091338891
1.3600439e-05
0.00091350881
1.3966091e-05
0.0009136231
1.4323444e-05
0.00091373318
1.4671619e-05
0.00091383835
1.500297e-05
0.00091393649
1.5316668e-05
0.00091403221
1.5614033e-05
0.00091413141
1.5906299e-05
0.00091422618
1.6187874e-05
0.00091430548
1.6426359e-05
0.00091436675
1.6621747e-05
0.00091440812
1.6789122e-05
0.00091442588
1.6933831e-05
0.00091442067
1.7079389e-05
0.00091438718
1.7240516e-05
0.00091431117
1.7392831e-05
0.00091417837
1.7528555e-05
0.00091397124
1.7664454e-05
0.00091366649
1.781601e-05
0.00091323362
1.7983815e-05
0.00091262835
1.819397e-05
0.00091178783
1.8459342e-05
0.00091064279
1.8748906e-05
0.00090912704
1.9034184e-05
0.00090717584
1.9315233e-05
0.00090472104
1.9590187e-05
0.00090173498
1.9838127e-05
0.00089814483
2.0085282e-05
0.00089392331
2.0305594e-05
0.00088917128
2.0409807e-05
0.00088397193
2.0397163e-05
0.00087842695
2.0285683e-05
0.00087265718
2.009436e-05
0.00086677172
1.9800462e-05
0.00086085188
1.9432096e-05
0.0008549672
1.9027773e-05
0.00084918445
1.8586045e-05
0.00084350931
1.8160384e-05
0.0008379348
1.7751126e-05
0.00083249684
1.7335067e-05
0.00082722233
1.6934227e-05
0.00082213074
1.654063e-05
0.00081723088
1.6127988e-05
0.00081251577
1.5712352e-05
0.00080797429
1.5344523e-05
0.00080359123
1.5030468e-05
0.0007993506
1.4742551e-05
0.00079524828
1.4444843e-05
0.00079127791
1.414745e-05
0.00078742329
1.3877476e-05
0.00078367074
1.3616569e-05
0.00078001232
1.3353038e-05
0.00077644384
1.3096415e-05
0.00077296094
1.2859551e-05
0.00076956144
1.2633161e-05
0.00076624104
1.2419944e-05
0.00076299172
1.2227742e-05
0.0007598093
1.2042236e-05
0.00075669406
1.1844511e-05
0.00075364441
1.1645216e-05
0.00075065436
1.1465041e-05
0.00074772357
1.1272611e-05
0.0007448454
1.1084634e-05
0.00074200901
1.0937332e-05
0.00073921787
1.0787937e-05
0.00073647656
1.0627356e-05
0.00073378283
1.0483412e-05
0.00073113648
1.0333396e-05
0.00072853861
1.0171419e-05
0.00072598309
1.0029818e-05
0.00072346493
9.8950884e-06
0.00072098455
9.7604957e-06
0.0007185411
9.6419948e-06
0.00071613548
9.517971e-06
0.00071376842
9.3889608e-06
0.00071143759
9.2665387e-06
0.00070913982
9.1475961e-06
0.00070687236
9.0422335e-06
0.00070463575
8.9366071e-06
0.00070243057
8.8300051e-06
0.00070025578
8.7288819e-06
0.00069810902
8.6301071e-06
0.00069598875
8.5385731e-06
0.00069388587
8.4816368e-06
0.00069182034
8.3584287e-06
0.00068974669
8.3497304e-06
0.00068773564
8.3783941e-06
0.00068529188
9.3261192e-06
8.0520356e-06
0.0009415369
6.7322892e-06
-0.00094129856
0.00094189755
8.4423347e-06
0.00094222572
9.5256645e-06
0.00094249928
1.0173738e-05
0.00094274935
1.0721526e-05
0.00094297171
1.1224965e-05
0.00094316114
1.1647436e-05
0.0009433324
1.2030692e-05
0.00094348611
1.2395299e-05
0.00094362654
1.2750952e-05
0.00094375569
1.3109987e-05
0.00094388022
1.3475901e-05
0.00094400101
1.3845302e-05
0.00094411739
1.4207066e-05
0.00094423077
1.4558235e-05
0.0009443404
1.4893341e-05
0.00094444565
1.5211417e-05
0.00094454612
1.5513563e-05
0.00094464439
1.5808034e-05
0.00094474156
1.6090704e-05
0.00094483267
1.6335247e-05
0.00094491557
1.6538842e-05
0.00094498998
1.671472e-05
0.00094505461
1.6869199e-05
0.00094511136
1.7022637e-05
0.00094516625
1.7185632e-05
0.00094521859
1.7340488e-05
0.00094526034
1.7486807e-05
0.00094528844
1.7636356e-05
0.00094530412
1.7800326e-05
0.00094530533
1.7982604e-05
0.00094529223
1.8207076e-05
0.00094526104
1.8490528e-05
0.0009451989
1.8811044e-05
0.00094508745
1.9145637e-05
0.00094490294
1.9499736e-05
0.00094461135
1.9881777e-05
0.00094416604
2.0283442e-05
0.00094349932
2.0752004e-05
0.0009425212
2.1283708e-05
0.00094114182
2.1789192e-05
0.00093927702
2.2261961e-05
0.00093686651
2.2696196e-05
0.00093387071
2.3090158e-05
0.00093021508
2.3456085e-05
0.0009259085
2.3738678e-05
0.00092106405
2.3872223e-05
0.00091578812
2.3861978e-05
0.00091021406
2.3734441e-05
0.00090446963
2.3495559e-05
0.00089864377
2.3160923e-05
0.00089281161
2.2766392e-05
0.00088704585
2.2306386e-05
0.00088136194
2.1811901e-05
0.00087574221
2.1332082e-05
0.00087021715
2.0869583e-05
0.00086483071
2.0416912e-05
0.00085961852
1.9954741e-05
0.00085459581
1.9467551e-05
0.00084974666
1.89966e-05
0.00084504547
1.8578666e-05
0.00084047872
1.8183319e-05
0.00083604554
1.7786214e-05
0.00083174823
1.7393724e-05
0.00082758075
1.7027033e-05
0.00082354154
1.6672376e-05
0.0008196249
1.6336584e-05
0.00081581591
1.6036727e-05
0.00081210757
1.5750575e-05
0.00080849575
1.5456333e-05
0.00080497296
1.5168011e-05
0.00080152919
1.4908803e-05
0.00079816262
1.4639184e-05
0.0007948727
1.4374558e-05
0.00079165296
1.4157071e-05
0.00078850017
1.3940721e-05
0.00078541297
1.3714563e-05
0.00078238665
1.3509725e-05
0.00077941973
1.3300316e-05
0.00077651216
1.3078996e-05
0.0007736541
1.2887879e-05
0.00077083919
1.2709991e-05
0.00076807115
1.2528538e-05
0.00076535027
1.2362874e-05
0.0007626767
1.2191549e-05
0.00076005044
1.2015218e-05
0.00075746733
1.1849644e-05
0.0007549226
1.1692333e-05
0.00075241433
1.1550496e-05
0.00074994409
1.1406856e-05
0.00074751238
1.1261707e-05
0.00074511753
1.1123734e-05
0.0007427558
1.0991838e-05
0.0007404252
1.0869168e-05
0.0007381171
1.0789744e-05
0.00073585231
1.0623214e-05
0.00073358121
1.0620832e-05
0.00073138867
1.0570935e-05
0.0007287097
1.200509e-05
1.0014773e-05
0.0009730919
6.5336915e-06
-0.0009728933
0.00097341486
8.1193747e-06
0.000973729
9.2115266e-06
0.00097399759
9.9051465e-06
0.00097424259
1.0476528e-05
0.00097446456
1.1002987e-05
0.00097465704
1.1454961e-05
0.00097482998
1.1857748e-05
0.00097498719
1.2238096e-05
0.0009751308
1.2607336e-05
0.00097526455
1.2976243e-05
0.00097539259
1.3347856e-05
0.00097551696
1.3720933e-05
0.00097563687
1.408716e-05
0.00097575336
1.4441744e-05
0.00097586562
1.4781077e-05
0.00097597308
1.5103959e-05
0.00097607552
1.5411123e-05
0.00097617504
1.5708511e-05
0.00097627287
1.5992874e-05
0.00097636523
1.6242891e-05
0.00097645013
1.645394e-05
0.00097652736
1.6637491e-05
0.00097659567
1.6800889e-05
0.00097665733
1.6960973e-05
0.00097671493
1.7128036e-05
0.00097676663
1.7288788e-05
0.00097681168
1.7441753e-05
0.00097685028
1.7597763e-05
0.00097688289
1.7767716e-05
0.00097690918
1.7956316e-05
0.00097693163
1.818462e-05
0.00097695557
1.8466589e-05
0.00097698156
1.8785053e-05
0.00097700445
1.912275e-05
0.00097702187
1.9482319e-05
0.00097703228
1.9871359e-05
0.00097703051
2.0285218e-05
0.00097701641
2.0766099e-05
0.00097698061
2.1319514e-05
0.00097689633
2.1873464e-05
0.00097673382
2.2424472e-05
0.00097644973
2.2980288e-05
0.00097598217
2.3557717e-05
0.00097524239
2.4195868e-05
0.00097412323
2.4857832e-05
0.00097252263
2.5472829e-05
0.00097035116
2.6033443e-05
0.00096755686
2.6528749e-05
0.00096407532
2.6977098e-05
0.00095991636
2.7319885e-05
0.00095520147
2.7481278e-05
0.0009500465
2.746136e-05
0.00094458963
2.7268764e-05
0.00093894944
2.6972277e-05
0.00093320701
2.6612009e-05
0.00092743462
2.6189301e-05
0.00092170988
2.5679481e-05
0.00091604423
2.5133204e-05
0.00091041342
2.4627405e-05
0.00090485163
2.4140461e-05
0.00089940788
2.3627067e-05
0.00089412034
2.307376e-05
0.00088899592
2.2518137e-05
0.00088401514
2.2007813e-05
0.00087917094
2.1516584e-05
0.0008744688
2.1038723e-05
0.00086991431
2.0591209e-05
0.00086550592
2.0158967e-05
0.00086123173
1.9730522e-05
0.00085707678
1.9322963e-05
0.00085303048
1.8955104e-05
0.00084909294
1.857672e-05
0.00084526808
1.8199428e-05
0.00084155099
1.787416e-05
0.00083793137
1.7560341e-05
0.00083440253
1.72434e-05
0.00083095654
1.6955717e-05
0.00082758873
1.6668121e-05
0.0008242959
1.6371831e-05
0.00082107209
1.6111688e-05
0.00081791507
1.5867008e-05
0.0008148234
1.5620213e-05
0.0008117922
1.5394073e-05
0.00080881952
1.5164229e-05
0.00080590442
1.4930316e-05
0.00080303992
1.4714149e-05
0.00080021983
1.451242e-05
0.00079744464
1.4325683e-05
0.00079471686
1.4134637e-05
0.00079203627
1.39423e-05
0.00078939999
1.3760006e-05
0.00078680249
1.3589343e-05
0.00078424169
1.3429967e-05
0.00078171002
1.3321412e-05
0.00077922872
1.3104516e-05
0.0007767442
1.3105351e-05
0.00077435321
1.2961923e-05
0.0007714262
1.4932104e-05
1.212824e-05
0.001005702
6.3656375e-06
-0.001005534
0.0010059906
7.8307733e-06
0.0010062886
8.9135868e-06
0.0010065504
9.6433221e-06
0.0010067895
1.0237398e-05
0.00100701
1.078252e-05
0.0010072055
1.1259442e-05
0.0010073817
1.1681621e-05
0.0010075428
1.2076963e-05
0.0010076908
1.2459277e-05
0.0010078294
1.2837694e-05
0.0010079612
1.3216039e-05
0.0010080888
1.3593339e-05
0.001008212
1.3963979e-05
0.0010083313
1.4322385e-05
0.0010084463
1.4666112e-05
0.0010085565
1.4993775e-05
0.0010086618
1.5305864e-05
0.0010087637
1.560654e-05
0.0010088635
1.5893127e-05
0.0010089579
1.6148447e-05
0.0010090449
1.6366958e-05
0.0010091241
1.655832e-05
0.0010091945
1.6730487e-05
0.0010092578
1.6897597e-05
0.0010093165
1.7069349e-05
0.0010093693
1.7236027e-05
0.0010094155
1.7395568e-05
0.0010094555
1.7557735e-05
0.00100949
1.7733242e-05
0.0010095186
1.7927685e-05
0.001009544
1.8159191e-05
0.0010095697
1.8440953e-05
0.0010095956
1.8759158e-05
0.0010096205
1.9097797e-05
0.0010096444
1.9458453e-05
0.0010096672
1.9848502e-05
0.0010096872
2.0265243e-05
0.001009709
2.0744303e-05
0.001009737
2.1291487e-05
0.0010097682
2.1842267e-05
0.0010097981
2.2394628e-05
0.0010098182
2.2960166e-05
0.0010098246
2.35513e-05
0.0010098137
2.4206787e-05
0.0010097667
2.4904806e-05
0.0010096486
2.5590972e-05
0.0010094136
2.6268408e-05
0.0010089931
2.6949253e-05
0.0010082882
2.7681986e-05
0.0010071808
2.8427276e-05
0.0010055585
2.9103611e-05
0.0010033286
2.9691314e-05
0.0010003929
3.0204386e-05
0.00099672479
3.0640426e-05
0.00099242092
3.0915871e-05
0.0009876049
3.1005322e-05
0.0009824033
3.0881087e-05
0.00097694467
3.0591831e-05
0.00097132529
3.024679e-05
0.0009656132
2.985255e-05
0.00095987975
2.9360515e-05
0.00095418157
2.8771937e-05
0.00094850148
2.8198225e-05
0.00094282756
2.7681737e-05
0.00093721995
2.7124187e-05
0.00093173868
2.6519994e-05
0.00092640846
2.5921434e-05
0.00092122053
2.5346895e-05
0.0009161675
2.4783554e-05
0.00091124967
2.4240788e-05
0.00090647288
2.3731899e-05
0.000901842
2.3207596e-05
0.0008973507
2.2690729e-05
0.00089298849
2.2236373e-05
0.00088875353
2.1795299e-05
0.00088464525
2.1351677e-05
0.00088065245
2.0948522e-05
0.00087676512
2.0555451e-05
0.000872977
2.0159952e-05
0.00086928702
1.9801668e-05
0.00086569697
1.9457052e-05
0.00086219889
1.911829e-05
0.00085878158
1.881139e-05
0.00085544036
1.8505445e-05
0.00085217185
1.8198828e-05
0.00084897127
1.7914725e-05
0.00084583562
1.7648074e-05
0.00084276139
1.7399913e-05
0.00083974655
1.7149477e-05
0.00083678897
1.6899882e-05
0.00083388411
1.6664859e-05
0.00083102423
1.6449224e-05
0.00082820812
1.6246085e-05
0.00082542991
1.6099616e-05
0.00082271041
1.5824019e-05
0.00081999189
1.5823867e-05
0.00081738142
1.5572397e-05
0.00081418789
1.8125635e-05
1.4407381e-05
0.0010394013
6.2210062e-06
-0.0010392567
0.0010396588
7.5732792e-06
0.001039939
8.6334146e-06
0.0010401933
9.3890315e-06
0.0010404271
1.0003567e-05
0.0010406458
1.0563887e-05
0.0010408436
1.1061633e-05
0.0010410226
1.1502643e-05
0.0010411868
1.1912667e-05
0.0010413386
1.2307484e-05
0.0010414808
1.2695511e-05
0.0010416162
1.3080684e-05
0.0010417468
1.3462768e-05
0.0010418732
1.3837527e-05
0.0010419955
1.4200051e-05
0.0010421135
1.4548142e-05
0.0010422268
1.4880501e-05
0.0010423352
1.5197408e-05
0.0010424401
1.5501656e-05
0.0010425423
1.5790931e-05
0.0010426393
1.6051451e-05
0.0010427289
1.627737e-05
0.0010428106
1.647662e-05
0.0010428837
1.6657372e-05
0.0010429496
1.6831708e-05
0.0010430104
1.7008596e-05
0.0010430651
1.7181247e-05
0.0010431132
1.7347461e-05
0.001043155
1.7515948e-05
0.0010431911
1.769717e-05
0.0010432214
1.7897419e-05
0.0010432482
1.8132413e-05
0.0010432747
1.8414448e-05
0.0010433012
1.8732587e-05
0.0010433269
1.9072148e-05
0.0010433516
1.943373e-05
0.0010433756
1.9824467e-05
0.0010433974
2.0243446e-05
0.0010434214
2.0720318e-05
0.0010434513
2.1261559e-05
0.0010434824
2.1811213e-05
0.0010435138
2.2363215e-05
0.0010435445
2.2929496e-05
0.0010435739
2.3521911e-05
0.0010436063
2.4174376e-05
0.0010436427
2.4868351e-05
0.0010436823
2.5551397e-05
0.0010437177
2.623305e-05
0.001043736
2.6930968e-05
0.0010437331
2.7684865e-05
0.001043689
2.8471388e-05
0.0010435618
2.9230792e-05
0.0010432946
2.9958536e-05
0.0010427963
3.0702661e-05
0.0010419454
3.149127e-05
0.0010406163
3.2245019e-05
0.0010387035
3.2918079e-05
0.0010360775
3.3507131e-05
0.0010326598
3.4009556e-05
0.0010285472
3.4359388e-05
0.0010238953
3.4504423e-05
0.001018835
3.4420852e-05
0.0010134851
3.4121793e-05
0.0010079396
3.3743775e-05
0.0010022667
3.3354628e-05
0.00099652973
3.2861118e-05
0.00099080101
3.2248712e-05
0.00098506825
3.1654197e-05
0.00097930616
3.1108989e-05
0.00097358064
3.0509075e-05
0.00096795973
2.9861693e-05
0.00096247191
2.921972e-05
0.00095711388
2.8565623e-05
0.00095188214
2.7922469e-05
0.00094678148
2.7337032e-05
0.00094182986
2.6746926e-05
0.00093703355
2.6147981e-05
0.00093237764
2.5604435e-05
0.00092785294
2.5080147e-05
0.00092345848
2.4554415e-05
0.00091919152
2.4068626e-05
0.0009150497
2.3598877e-05
0.00091102683
2.3141161e-05
0.0009071134
2.2724815e-05
0.00090330328
2.2315567e-05
0.00089958878
2.1913323e-05
0.00089596701
2.1536505e-05
0.00089243903
2.1176051e-05
0.00088899659
2.0842348e-05
0.00088563143
2.0514637e-05
0.00088233835
2.0192968e-05
0.00087911261
1.9890593e-05
0.00087595004
1.9611795e-05
0.00087284833
1.9347802e-05
0.00086979609
1.915185e-05
0.00086681215
1.8807958e-05
0.00086383432
1.8801701e-05
0.00086097895
1.842777e-05
0.00085749595
2.1608633e-05
1.6868129e-05
0.0010742253
6.0945839e-06
-0.0010740989
0.0010744552
7.3433585e-06
0.0010747171
8.3715139e-06
0.0010749632
9.1429405e-06
0.0010751919
9.774915e-06
0.0010754079
1.0347819e-05
0.0010756068
1.0862753e-05
0.0010757881
1.1321355e-05
0.0010759552
1.174556e-05
0.0010761105
1.2152211e-05
0.0010762564
1.2549633e-05
0.0010763953
1.2941698e-05
0.0010765293
1.3328765e-05
0.0010766591
1.3707751e-05
0.0010767846
1.4074577e-05
0.0010769056
1.4427095e-05
0.001077022
1.4764159e-05
0.0010771335
1.5085853e-05
0.0010772413
1.5393937e-05
0.0010773459
1.5686339e-05
0.0010774453
1.5952026e-05
0.0010775374
1.6185269e-05
0.0010776216
1.6392436e-05
0.0010776973
1.6581603e-05
0.0010777658
1.6763275e-05
0.0010778287
1.6945655e-05
0.0010778856
1.7124321e-05
0.0010779358
1.7297253e-05
0.0010779796
1.7472173e-05
0.0010780176
1.7659214e-05
0.0010780498
1.786518e-05
0.0010780784
1.8103818e-05
0.0010781064
1.8386483e-05
0.0010781342
1.870471e-05
0.0010781612
1.9045228e-05
0.0010781871
1.9407844e-05
0.0010782122
1.9799359e-05
0.0010782353
2.022033e-05
0.0010782602
2.0695401e-05
0.0010782905
2.123129e-05
0.001078322
2.1779683e-05
0.0010783539
2.2331322e-05
0.0010783856
2.2897827e-05
0.0010784166
2.3490852e-05
0.0010784513
2.4139712e-05
0.0010784904
2.4829234e-05
0.00107853
2.5511798e-05
0.0010785692
2.6193866e-05
0.0010786071
2.6893056e-05
0.001078648
2.7643981e-05
0.0010786903
2.8429081e-05
0.0010787361
2.9184938e-05
0.0010787767
2.9917995e-05
0.0010787939
3.0685457e-05
0.0010787783
3.1506805e-05
0.0010786968
3.2326535e-05
0.0010784953
3.3119625e-05
0.0010780852
3.3917189e-05
0.0010773377
3.4757082e-05
0.0010761134
3.5583716e-05
0.0010742963
3.6321502e-05
0.0010717504
3.6966739e-05
0.0010683599
3.7512305e-05
0.0010642246
3.7879095e-05
0.0010595558
3.8023356e-05
0.0010544965
3.7920498e-05
0.0010491518
3.7593375e-05
0.0010436037
3.7202249e-05
0.0010379168
3.6795893e-05
0.0010321492
3.6276715e-05
0.0010263693
3.5641575e-05
0.0010205642
3.502484e-05
0.0010147133
3.4416532e-05
0.0010088853
3.3750466e-05
0.0010031462
3.307613e-05
0.00099752868
3.2364445e-05
0.00099203244
3.1644218e-05
0.00098665811
3.0978768e-05
0.00098142239
3.031587e-05
0.00097633995
2.9636847e-05
0.00097140527
2.9003314e-05
0.00096661136
2.8392786e-05
0.00096195944
2.7793078e-05
0.0009574476
2.7236657e-05
0.00095306891
2.6694259e-05
0.00094881276
2.6169468e-05
0.00094467458
2.5674691e-05
0.0009406551
2.5195526e-05
0.00093674666
2.4750793e-05
0.00093294016
2.4321132e-05
0.0009292284
2.3904731e-05
0.00092560566
2.3513332e-05
0.00092207129
2.3146165e-05
0.00091862182
2.2797268e-05
0.0009152393
2.2534371e-05
0.00091193851
2.2108745e-05
0.00090865595
2.208427e-05
0.00090552085
2.1562865e-05
0.00090172189
2.540759e-05
1.9527372e-05
0.0011102109
5.9825194e-06
-0.0011100989
0.0011104168
7.137482e-06
0.0011106606
8.12774e-06
0.0011108977
8.9058244e-06
0.001111121
9.5516119e-06
0.001111334
1.0134857e-05
0.001111533
1.0663696e-05
0.0011117163
1.1138124e-05
0.001111886
1.1575828e-05
0.0011120445
1.1993676e-05
0.0011121939
1.2400202e-05
0.0011123365
1.2799194e-05
0.0011124738
1.3191443e-05
0.0011126067
1.3574834e-05
0.0011127352
1.3946053e-05
0.0011128593
1.4303051e-05
0.0011129786
1.4644808e-05
0.0011130932
1.4971246e-05
0.0011132038
1.5283361e-05
0.0011133109
1.5579255e-05
0.0011134128
1.5850108e-05
0.0011135075
1.6090566e-05
0.0011135943
1.6305649e-05
0.0011136728
1.6503098e-05
0.0011137439
1.6692191e-05
0.0011138091
1.6880393e-05
0.0011138683
1.7065158e-05
0.0011139207
1.7244855e-05
0.0011139666
1.7426317e-05
0.0011140065
1.7619276e-05
0.0011140408
1.7830894e-05
0.0011140713
1.8073305e-05
0.0011141008
1.8356927e-05
0.0011141302
1.8675402e-05
0.0011141585
1.9016907e-05
0.0011141857
1.9380635e-05
0.0011142121
1.9772983e-05
0.0011142367
2.0195677e-05
0.0011142629
2.0669183e-05
0.0011142941
2.1200121e-05
0.0011143268
2.1747016e-05
0.0011143597
2.2298351e-05
0.0011143925
2.2865031e-05
0.0011144248
2.345855e-05
0.0011144603
2.4104209e-05
0.0011144999
2.4789675e-05
0.0011145399
2.5471781e-05
0.0011145798
2.6153968e-05
0.0011146193
2.6853532e-05
0.0011146621
2.760122e-05
0.0011147092
2.8381958e-05
0.001114756
2.9138119e-05
0.0011148001
2.9873892e-05
0.0011148441
3.0641507e-05
0.0011148895
3.1461401e-05
0.0011149371
3.2278912e-05
0.0011149836
3.3073124e-05
0.0011150121
3.3888708e-05
0.0011150071
3.4762041e-05
0.0011149395
3.5651401e-05
0.0011147513
3.6509689e-05
0.0011143476
3.7370467e-05
0.0011135841
3.8275707e-05