/*--------------------------------*- C++ -*----------------------------------*\
  =========                 |
  \\      /  F ield         | OpenFOAM: The Open Source CFD Toolbox
   \\    /   O peration     | Website:  https://openfoam.org
    \\  /    A nd           | Version:  12
     \\/     M anipulation  |
\*---------------------------------------------------------------------------*/
FoamFile
{
    format      ascii;
    class       volVectorField;
    location    "1000";
    object      wallShearStress;
}
// * * * * * * * * * * * * * * * * * * * * * * * * * * * * * * * * * * * * * //

dimensions      [0 2 -2 0 0 0 0];

internalField   uniform (0 0 0);

boundaryField
{
    inlet
    {
        type            calculated;
        value           uniform (0 0 0);
    }
    top
    {
        type            calculated;
        value           uniform (0 0 0);
    }
    outlet
    {
        type            calculated;
        value           uniform (0 0 0);
    }
    slipsurface
    {
        type            calculated;
        value           uniform (0 0 0);
    }
    bottom
    {
        type            calculated;
        value           nonuniform List<vector> 
100
(
(-0.0033444534 -3.5437455e-06 0)
(-0.0032711239 -6.5233763e-06 0)
(-0.0031942141 -8.1681041e-06 0)
(-0.0031131976 -9.5922985e-06 0)
(-0.0030338187 -1.1323962e-05 0)
(-0.0029580541 -1.2332017e-05 0)
(-0.0028860468 -1.236173e-05 0)
(-0.0028176101 -1.1983667e-05 0)
(-0.0027521353 -1.1425048e-05 0)
(-0.0026890405 -1.0703374e-05 0)
(-0.0026272093 -9.8974318e-06 0)
(-0.0025661632 -9.1498197e-06 0)
(-0.0025057308 -8.4588304e-06 0)
(-0.0024459386 -7.8141263e-06 0)
(-0.0023869075 -7.2083946e-06 0)
(-0.0023288466 -6.6305941e-06 0)
(-0.0022721102 -6.050394e-06 0)
(-0.0022174235 -5.4821386e-06 0)
(-0.0021641553 -4.9738785e-06 0)
(-0.0021131199 -4.490048e-06 0)
(-0.0020645771 -4.0274034e-06 0)
(-0.0020187289 -3.5866706e-06 0)
(-0.0019757739 -3.1697372e-06 0)
(-0.0019358677 -2.7797508e-06 0)
(-0.0018991369 -2.4139243e-06 0)
(-0.0018656933 -2.0731616e-06 0)
(-0.0018355214 -1.7641326e-06 0)
(-0.0018084926 -1.486404e-06 0)
(-0.001784431 -1.2394543e-06 0)
(-0.001763126 -1.0262331e-06 0)
(-0.0017443289 -8.457269e-07 0)
(-0.0017277848 -6.9295029e-07 0)
(-0.0017132938 -5.6333912e-07 0)
(-0.0017006447 -4.5631092e-07 0)
(-0.0016895722 -3.6876729e-07 0)
(-0.0016797913 -3.0031784e-07 0)
(-0.0016710218 -2.5143344e-07 0)
(-0.0016630086 -2.1836843e-07 0)
(-0.0016555904 -1.9368587e-07 0)
(-0.0016486477 -1.7730078e-07 0)
(-0.0016420253 -1.7063369e-07 0)
(-0.0016355643 -1.7069292e-07 0)
(-0.0016291451 -1.7548983e-07 0)
(-0.0016226839 -1.8296274e-07 0)
(-0.0016161403 -1.9099305e-07 0)
(-0.0016094856 -2.0002025e-07 0)
(-0.0016026773 -2.1190111e-07 0)
(-0.0015956229 -2.2615939e-07 0)
(-0.0015882552 -2.4010296e-07 0)
(-0.001580573 -2.5176393e-07 0)
(-0.0015726081 -2.6149789e-07 0)
(-0.0015643773 -2.6972262e-07 0)
(-0.0015558949 -2.7565768e-07 0)
(-0.0015472144 -2.778833e-07 0)
(-0.0015384245 -2.7642571e-07 0)
(-0.001529591 -2.7299775e-07 0)
(-0.0015207342 -2.685069e-07 0)
(-0.0015118592 -2.6309118e-07 0)
(-0.0015029947 -2.5651834e-07 0)
(-0.0014941735 -2.4951943e-07 0)
(-0.0014853983 -2.4283292e-07 0)
(-0.0014766726 -2.3562688e-07 0)
(-0.0014680292 -2.2753689e-07 0)
(-0.0014594991 -2.1922743e-07 0)
(-0.00145108 -2.113439e-07 0)
(-0.001442773 -2.0318404e-07 0)
(-0.0014345962 -1.9494663e-07 0)
(-0.0014265396 -1.8762211e-07 0)
(-0.0014185748 -1.8093703e-07 0)
(-0.0014106988 -1.7426959e-07 0)
(-0.0014029242 -1.6777994e-07 0)
(-0.0013952411 -1.6186516e-07 0)
(-0.0013876489 -1.5569005e-07 0)
(-0.0013801731 -1.4938515e-07 0)
(-0.0013728054 -1.4381289e-07 0)
(-0.0013655263 -1.3837388e-07 0)
(-0.0013583439 -1.3298397e-07 0)
(-0.0013512479 -1.2826012e-07 0)
(-0.0013442247 -1.2358091e-07 0)
(-0.001337291 -1.1875372e-07 0)
(-0.0013304486 -1.1434945e-07 0)
(-0.001323689 -1.0997488e-07 0)
(-0.001317021 -1.0564954e-07 0)
(-0.0013104328 -1.0184043e-07 0)
(-0.0013039118 -9.8091365e-08 0)
(-0.0012974665 -9.4378734e-08 0)
(-0.0012910976 -9.0864436e-08 0)
(-0.001284806 -8.7379797e-08 0)
(-0.0012785876 -8.4151555e-08 0)
(-0.0012724353 -8.1032799e-08 0)
(-0.0012663508 -7.8017983e-08 0)
(-0.0012603286 -7.5199006e-08 0)
(-0.001254371 -7.2397758e-08 0)
(-0.0012484705 -6.9803211e-08 0)
(-0.0012426362 -6.7404638e-08 0)
(-0.0012367872 -6.5150392e-08 0)
(-0.0012311871 -6.2050587e-08 0)
(-0.0012250933 -1.5357925e-07 0)
(-0.0012197875 -2.8508082e-07 0)
(-0.0012117847 -2.7387441e-07 0)
)
;
    }
    frontandback
    {
        type            empty;
    }
}


// ************************************************************************* //
