# y+ ()             
# Time              	patch               	min                 	max                 	average             
1000                	top	1.178998012109e+00	2.455782834821e+00	1.220471897336e+00
