# Selection     : all 
# Volume        : 2.33333000e+00
# Time          	maxMagU	location	cell
0               	1.00000000e+00	-3.13296488e-01 1.00232707e-06 5.00000000e-01	0
0.00011999      	1.00108038e+00	-2.00507731e-03 3.02191818e-06 5.00000000e-01	159
0.000263962     	1.00229768e+00	-2.00507731e-03 3.02191818e-06 5.00000000e-01	159
0.000436717     	1.00381019e+00	-2.00507731e-03 5.08654275e-06 5.00000000e-01	295
0.000644009     	1.00542761e+00	-2.00507731e-03 5.08654275e-06 5.00000000e-01	295
0.000892729     	1.00732315e+00	-2.00507731e-03 7.22696841e-06 5.00000000e-01	431
0.00119115      	1.00942926e+00	-2.00507731e-03 7.22696841e-06 5.00000000e-01	431
0.00154914      	1.01181441e+00	-2.00507731e-03 9.47509236e-06 5.00000000e-01	567
0.00197859      	1.01449103e+00	-2.00507731e-03 9.47509236e-06 5.00000000e-01	567
0.00249383      	1.01752946e+00	-2.00507731e-03 1.18644168e-05 5.00000000e-01	703
0.00311186      	1.02087404e+00	-2.00507731e-03 1.18644168e-05 5.00000000e-01	703
0.00385304      	1.02478769e+00	-2.00507731e-03 1.44305481e-05 5.00000000e-01	839
0.00474246      	1.02916224e+00	-2.00507731e-03 1.72117274e-05 5.00000000e-01	975
0.00580919      	1.03410410e+00	-2.00507731e-03 2.02494007e-05 5.00000000e-01	1111
0.00708871      	1.03972679e+00	-2.00507731e-03 2.35888362e-05 5.00000000e-01	1247
0.00838833      	1.04590332e+00	-2.00507731e-03 2.35888362e-05 5.00000000e-01	1247
0.00966783      	1.05249893e+00	-2.00507731e-03 2.72797991e-05 5.00000000e-01	1383
0.0109294       	1.05932270e+00	-2.00507731e-03 3.13772932e-05 5.00000000e-01	1519
0.012172        	1.06660236e+00	-2.00507731e-03 3.13772932e-05 5.00000000e-01	1519
0.013393        	1.07387070e+00	-2.00507731e-03 3.59423805e-05 5.00000000e-01	1655
0.0145933       	1.08150548e+00	-2.00507731e-03 3.59423805e-05 5.00000000e-01	1655
0.0157748       	1.08898952e+00	-2.00507731e-03 3.59423805e-05 5.00000000e-01	1655
0.0169382       	1.09646941e+00	-2.00507731e-03 4.10430912e-05 5.00000000e-01	1791
0.0180853       	1.10409090e+00	-2.00507731e-03 4.10430912e-05 5.00000000e-01	1791
0.0192165       	1.11149385e+00	-2.00507731e-03 4.10430912e-05 5.00000000e-01	1791
0.0203323       	1.11865077e+00	-2.00507731e-03 4.10430912e-05 5.00000000e-01	1791
0.0214331       	1.12561367e+00	-2.00507731e-03 4.10430912e-05 5.00000000e-01	1791
0.0225204       	1.13234364e+00	-2.00507731e-03 4.67554375e-05 5.00000000e-01	1927
0.0235957       	1.13905632e+00	-2.00507731e-03 4.67554375e-05 5.00000000e-01	1927
0.0246593       	1.14549945e+00	-2.00507731e-03 4.67554375e-05 5.00000000e-01	1927
0.0257115       	1.15166644e+00	-2.00507731e-03 4.67554375e-05 5.00000000e-01	1927
0.0267524       	1.15755298e+00	-2.00507731e-03 4.67554375e-05 5.00000000e-01	1927
0.0277834       	1.16316035e+00	-2.00507731e-03 4.67554375e-05 5.00000000e-01	1927
0.0288035       	1.16848648e+00	-2.00507731e-03 4.67554375e-05 5.00000000e-01	1927
0.0298141       	1.17354128e+00	-2.00507731e-03 4.67554375e-05 5.00000000e-01	1927
0.0308164       	1.17833579e+00	-2.00507731e-03 4.67554375e-05 5.00000000e-01	1927
0.0318104       	1.18287813e+00	-2.00507731e-03 4.67554375e-05 5.00000000e-01	1927
0.0327964       	1.18717707e+00	-2.00507731e-03 4.67554375e-05 5.00000000e-01	1927
0.0337743       	1.19124191e+00	-2.00507731e-03 4.67554375e-05 5.00000000e-01	1927
0.0347454       	1.19508364e+00	-2.00507731e-03 4.67554375e-05 5.00000000e-01	1927
0.0357097       	1.19870960e+00	-2.00507731e-03 4.67554375e-05 5.00000000e-01	1927
0.0366682       	1.20212993e+00	-2.00507731e-03 4.67554375e-05 5.00000000e-01	1927
0.0376201       	1.20535248e+00	-2.00507731e-03 4.67554375e-05 5.00000000e-01	1927
0.0385664       	1.20839043e+00	-2.00507731e-03 4.67554375e-05 5.00000000e-01	1927
0.0395072       	1.21125487e+00	-2.00507731e-03 4.67554375e-05 5.00000000e-01	1927
0.0404424       	1.21395684e+00	-2.00507731e-03 4.67554375e-05 5.00000000e-01	1927
0.0413731       	1.21665665e+00	-2.00507731e-03 4.10430912e-05 5.00000000e-01	1791
0.0422984       	1.21926995e+00	-2.00507731e-03 4.10430912e-05 5.00000000e-01	1791
0.0432193       	1.22176171e+00	-2.00507731e-03 4.10430912e-05 5.00000000e-01	1791
0.0441358       	1.22413985e+00	-2.00507731e-03 4.10430912e-05 5.00000000e-01	1791
0.0450478       	1.22641164e+00	-2.00507731e-03 4.10430912e-05 5.00000000e-01	1791
0.0459564       	1.22858285e+00	-2.00507731e-03 4.10430912e-05 5.00000000e-01	1791
0.0468608       	1.23065382e+00	-2.00507731e-03 4.10430912e-05 5.00000000e-01	1791
0.0477616       	1.23265302e+00	-2.00507731e-03 4.10430912e-05 5.00000000e-01	1791
0.0486591       	1.23458790e+00	-2.00507731e-03 4.10430912e-05 5.00000000e-01	1791
0.0495533       	1.23644825e+00	-2.00507731e-03 4.10430912e-05 5.00000000e-01	1791
0.050444        	1.23824009e+00	-2.00507731e-03 4.10430912e-05 5.00000000e-01	1791
0.0513315       	1.23998875e+00	-2.00507731e-03 3.59423805e-05 5.00000000e-01	1655
0.0522164       	1.24188358e+00	-2.00507731e-03 3.59423805e-05 5.00000000e-01	1655
0.0530981       	1.24372602e+00	-2.00507731e-03 3.59423805e-05 5.00000000e-01	1655
0.0539773       	1.24552025e+00	-2.00507731e-03 3.59423805e-05 5.00000000e-01	1655
0.054854        	1.24726840e+00	-2.00507731e-03 3.59423805e-05 5.00000000e-01	1655
0.0557275       	1.24896894e+00	-2.00507731e-03 3.59423805e-05 5.00000000e-01	1655
0.0565986       	1.25062338e+00	-2.00507731e-03 3.59423805e-05 5.00000000e-01	1655
0.0574673       	1.25225480e+00	-2.00507731e-03 3.59423805e-05 5.00000000e-01	1655
0.0583336       	1.25385635e+00	-2.00507731e-03 3.59423805e-05 5.00000000e-01	1655
0.0591983       	1.25542127e+00	-2.00507731e-03 3.59423805e-05 5.00000000e-01	1655
0.0600607       	1.25695145e+00	-2.00507731e-03 3.59423805e-05 5.00000000e-01	1655
0.0609206       	1.25856977e+00	-2.00507731e-03 3.13772932e-05 5.00000000e-01	1519
0.061779        	1.26023049e+00	-2.00507731e-03 3.13772932e-05 5.00000000e-01	1519
0.0626351       	1.26185995e+00	-2.00507731e-03 3.13772932e-05 5.00000000e-01	1519
0.0634895       	1.26345908e+00	-2.00507731e-03 3.13772932e-05 5.00000000e-01	1519
0.0643417       	1.26502551e+00	-2.00507731e-03 3.13772932e-05 5.00000000e-01	1519
0.0651923       	1.26655792e+00	-2.00507731e-03 3.13772932e-05 5.00000000e-01	1519
0.0660413       	1.26806946e+00	-2.00507731e-03 3.13772932e-05 5.00000000e-01	1519
0.0668889       	1.26956336e+00	-2.00507731e-03 3.13772932e-05 5.00000000e-01	1519
0.0677348       	1.27102904e+00	-2.00507731e-03 3.13772932e-05 5.00000000e-01	1519
0.0685785       	1.27246526e+00	-2.00507731e-03 3.13772932e-05 5.00000000e-01	1519
0.0694207       	1.27394579e+00	-2.00507731e-03 2.72797991e-05 5.00000000e-01	1383
0.0702613       	1.27549389e+00	-2.00507731e-03 2.72797991e-05 5.00000000e-01	1383
0.0711012       	1.27701511e+00	-2.00507731e-03 2.72797991e-05 5.00000000e-01	1383
0.0719395       	1.27850849e+00	-2.00507731e-03 2.72797991e-05 5.00000000e-01	1383
0.0727764       	1.27997250e+00	-2.00507731e-03 2.72797991e-05 5.00000000e-01	1383
0.0736117       	1.28140628e+00	-2.00507731e-03 2.72797991e-05 5.00000000e-01	1383
0.0744455       	1.28281936e+00	-2.00507731e-03 2.72797991e-05 5.00000000e-01	1383
0.0752779       	1.28421529e+00	-2.00507731e-03 2.72797991e-05 5.00000000e-01	1383
0.0761095       	1.28558683e+00	-2.00507731e-03 2.72797991e-05 5.00000000e-01	1383
0.0769396       	1.28693174e+00	-2.00507731e-03 2.72797991e-05 5.00000000e-01	1383
0.0777682       	1.28832057e+00	-2.00507731e-03 2.35888362e-05 5.00000000e-01	1247
0.078596        	1.28975668e+00	-2.00507731e-03 2.35888362e-05 5.00000000e-01	1247
0.0794224       	1.29116715e+00	-2.00507731e-03 2.35888362e-05 5.00000000e-01	1247
0.080248        	1.29255209e+00	-2.00507731e-03 2.35888362e-05 5.00000000e-01	1247
0.0810722       	1.29390982e+00	-2.00507731e-03 2.35888362e-05 5.00000000e-01	1247
0.0818956       	1.29524220e+00	-2.00507731e-03 2.35888362e-05 5.00000000e-01	1247
0.0827175       	1.29655622e+00	-2.00507731e-03 2.35888362e-05 5.00000000e-01	1247
0.0835387       	1.29785337e+00	-2.00507731e-03 2.35888362e-05 5.00000000e-01	1247
0.0843592       	1.29912868e+00	-2.00507731e-03 2.35888362e-05 5.00000000e-01	1247
0.0851782       	1.30038043e+00	-2.00507731e-03 2.35888362e-05 5.00000000e-01	1247
0.0859964       	1.30168868e+00	-2.00507731e-03 2.02494007e-05 5.00000000e-01	1111
0.086814        	1.30301287e+00	-2.00507731e-03 2.02494007e-05 5.00000000e-01	1111
0.08763         	1.30431364e+00	-2.00507731e-03 2.02494007e-05 5.00000000e-01	1111
0.0884454       	1.30559098e+00	-2.00507731e-03 2.02494007e-05 5.00000000e-01	1111
0.08926         	1.30684450e+00	-2.00507731e-03 2.02494007e-05 5.00000000e-01	1111
0.0900739       	1.30807668e+00	-2.00507731e-03 2.02494007e-05 5.00000000e-01	1111
0.0908871       	1.30929218e+00	-2.00507731e-03 2.02494007e-05 5.00000000e-01	1111
0.0916995       	1.31049096e+00	-2.00507731e-03 2.02494007e-05 5.00000000e-01	1111
0.0925105       	1.31166972e+00	-2.00507731e-03 2.02494007e-05 5.00000000e-01	1111
0.0933207       	1.31282776e+00	-2.00507731e-03 2.02494007e-05 5.00000000e-01	1111
0.0941303       	1.31403871e+00	-2.00507731e-03 1.72117274e-05 5.00000000e-01	975
0.0949391       	1.31525115e+00	-2.00507731e-03 1.72117274e-05 5.00000000e-01	975
0.0957472       	1.31644220e+00	-2.00507731e-03 1.72117274e-05 5.00000000e-01	975
0.0965545       	1.31761157e+00	-2.00507731e-03 1.72117274e-05 5.00000000e-01	975
0.0973612       	1.31875949e+00	-2.00507731e-03 1.72117274e-05 5.00000000e-01	975
0.0981671       	1.31988798e+00	-2.00507731e-03 1.72117274e-05 5.00000000e-01	975
0.0989723       	1.32099979e+00	-2.00507731e-03 1.72117274e-05 5.00000000e-01	975
0.0997775       	1.32209545e+00	-2.00507731e-03 1.72117274e-05 5.00000000e-01	975
0.100582        	1.32317293e+00	-2.00507731e-03 1.72117274e-05 5.00000000e-01	975
0.101386        	1.32423120e+00	-2.00507731e-03 1.72117274e-05 5.00000000e-01	975
0.102189        	1.32531874e+00	-2.00507731e-03 1.44305481e-05 5.00000000e-01	839
0.102991        	1.32641608e+00	-2.00507731e-03 1.44305481e-05 5.00000000e-01	839
0.103793        	1.32749335e+00	-2.00507731e-03 1.44305481e-05 5.00000000e-01	839
0.104594        	1.32855052e+00	-2.00507731e-03 1.44305481e-05 5.00000000e-01	839
0.105395        	1.32958816e+00	-2.00507731e-03 1.44305481e-05 5.00000000e-01	839
0.106195        	1.33060717e+00	-2.00507731e-03 1.44305481e-05 5.00000000e-01	839
0.106994        	1.33160937e+00	-2.00507731e-03 1.44305481e-05 5.00000000e-01	839
0.107793        	1.33259557e+00	-2.00507731e-03 1.44305481e-05 5.00000000e-01	839
0.108592        	1.33356547e+00	-2.00507731e-03 1.44305481e-05 5.00000000e-01	839
0.10939         	1.33451793e+00	-2.00507731e-03 1.44305481e-05 5.00000000e-01	839
0.110187        	1.33545992e+00	-2.00507731e-03 1.18644168e-05 5.00000000e-01	703
0.110984        	1.33644044e+00	-2.00507731e-03 1.18644168e-05 5.00000000e-01	703
0.111781        	1.33740255e+00	-2.00507731e-03 1.18644168e-05 5.00000000e-01	703
0.112577        	1.33834637e+00	-2.00507731e-03 1.18644168e-05 5.00000000e-01	703
0.113373        	1.33927232e+00	-2.00507731e-03 1.18644168e-05 5.00000000e-01	703
0.114168        	1.34018080e+00	-2.00507731e-03 1.18644168e-05 5.00000000e-01	703
0.114963        	1.34107307e+00	-2.00507731e-03 1.18644168e-05 5.00000000e-01	703
0.115758        	1.34194992e+00	-2.00507731e-03 1.18644168e-05 5.00000000e-01	703
0.116551        	1.34281183e+00	-2.00507731e-03 1.18644168e-05 5.00000000e-01	703
0.117345        	1.34365876e+00	-2.00507731e-03 1.18644168e-05 5.00000000e-01	703
0.118138        	1.34449015e+00	-2.00507731e-03 1.18644168e-05 5.00000000e-01	703
0.118931        	1.34530600e+00	-2.00507731e-03 1.18644168e-05 5.00000000e-01	703
0.119724        	1.34615406e+00	-2.00507731e-03 9.47509236e-06 5.00000000e-01	567
0.120516        	1.34698879e+00	-2.00507731e-03 9.47509236e-06 5.00000000e-01	567
0.121308        	1.34780742e+00	-2.00507731e-03 9.47509236e-06 5.00000000e-01	567
0.122099        	1.34861039e+00	-2.00507731e-03 9.47509236e-06 5.00000000e-01	567
0.12289         	1.34939794e+00	-2.00507731e-03 9.47509236e-06 5.00000000e-01	567
0.123681        	1.35017084e+00	-2.00507731e-03 9.47509236e-06 5.00000000e-01	567
0.124471        	1.35092958e+00	-2.00507731e-03 9.47509236e-06 5.00000000e-01	567
0.125261        	1.35167484e+00	-2.00507731e-03 9.47509236e-06 5.00000000e-01	567
0.126051        	1.35240666e+00	-2.00507731e-03 9.47509236e-06 5.00000000e-01	567
0.12684         	1.35312520e+00	-2.00507731e-03 9.47509236e-06 5.00000000e-01	567
0.12763         	1.35383032e+00	-2.00507731e-03 9.47509236e-06 5.00000000e-01	567
0.128419        	1.35452182e+00	-2.00507731e-03 9.47509236e-06 5.00000000e-01	567
0.129207        	1.35521865e+00	-2.00507731e-03 7.22696841e-06 5.00000000e-01	431
0.129995        	1.35592211e+00	-2.00507731e-03 7.22696841e-06 5.00000000e-01	431
0.130783        	1.35661186e+00	-2.00507731e-03 7.22696841e-06 5.00000000e-01	431
0.131571        	1.35728803e+00	-2.00507731e-03 7.22696841e-06 5.00000000e-01	431
0.132359        	1.35795076e+00	-2.00507731e-03 7.22696841e-06 5.00000000e-01	431
0.133146        	1.35860048e+00	-2.00507731e-03 7.22696841e-06 5.00000000e-01	431
0.133933        	1.35923742e+00	-2.00507731e-03 7.22696841e-06 5.00000000e-01	431
0.134719        	1.35986207e+00	-2.00507731e-03 7.22696841e-06 5.00000000e-01	431
0.135506        	1.36047469e+00	-2.00507731e-03 7.22696841e-06 5.00000000e-01	431
0.136292        	1.36107541e+00	-2.00507731e-03 7.22696841e-06 5.00000000e-01	431
0.137078        	1.36166447e+00	-2.00507731e-03 7.22696841e-06 5.00000000e-01	431
0.137864        	1.36224189e+00	-2.00507731e-03 7.22696841e-06 5.00000000e-01	431
0.138649        	1.36280760e+00	-2.00507731e-03 7.22696841e-06 5.00000000e-01	431
0.139434        	1.36336178e+00	-2.00507731e-03 7.22696841e-06 5.00000000e-01	431
0.140219        	1.36390445e+00	-2.00507731e-03 7.22696841e-06 5.00000000e-01	431
0.141004        	1.36445668e+00	-2.00507731e-03 5.08654275e-06 5.00000000e-01	295
0.141789        	1.36500585e+00	-2.00507731e-03 5.08654275e-06 5.00000000e-01	295
0.142573        	1.36554354e+00	-2.00507731e-03 5.08654275e-06 5.00000000e-01	295
0.143358        	1.36606990e+00	-2.00507731e-03 5.08654275e-06 5.00000000e-01	295
0.144142        	1.36658509e+00	-2.00507731e-03 5.08654275e-06 5.00000000e-01	295
0.144926        	1.36708926e+00	-2.00507731e-03 5.08654275e-06 5.00000000e-01	295
0.14571         	1.36758271e+00	-2.00507731e-03 5.08654275e-06 5.00000000e-01	295
0.146494        	1.36806563e+00	-2.00507731e-03 5.08654275e-06 5.00000000e-01	295
0.147277        	1.36853825e+00	-2.00507731e-03 5.08654275e-06 5.00000000e-01	295
0.14806         	1.36900070e+00	-2.00507731e-03 5.08654275e-06 5.00000000e-01	295
0.148843        	1.36945325e+00	-2.00507731e-03 5.08654275e-06 5.00000000e-01	295
0.149626        	1.36989604e+00	-2.00507731e-03 5.08654275e-06 5.00000000e-01	295
0.150409        	1.37032921e+00	-2.00507731e-03 5.08654275e-06 5.00000000e-01	295
0.151192        	1.37075287e+00	-2.00507731e-03 5.08654275e-06 5.00000000e-01	295
0.151975        	1.37116710e+00	-2.00507731e-03 5.08654275e-06 5.00000000e-01	295
0.152757        	1.37157209e+00	-2.00507731e-03 5.08654275e-06 5.00000000e-01	295
0.153539        	1.37196797e+00	-2.00507731e-03 5.08654275e-06 5.00000000e-01	295
0.154322        	1.37235488e+00	-2.00507731e-03 5.08654275e-06 5.00000000e-01	295
0.155104        	1.37273297e+00	-2.00507731e-03 5.08654275e-06 5.00000000e-01	295
0.155886        	1.37312030e+00	-2.00507731e-03 3.02191818e-06 5.00000000e-01	159
0.156667        	1.37350146e+00	-2.00507731e-03 3.02191818e-06 5.00000000e-01	159
0.157449        	1.37387392e+00	-2.00507731e-03 3.02191818e-06 5.00000000e-01	159
0.15823         	1.37423783e+00	-2.00507731e-03 3.02191818e-06 5.00000000e-01	159
0.159012        	1.37459337e+00	-2.00507731e-03 3.02191818e-06 5.00000000e-01	159
0.159794        	1.37494070e+00	-2.00507731e-03 3.02191818e-06 5.00000000e-01	159
0.160574        	1.37527997e+00	-2.00507731e-03 3.02191818e-06 5.00000000e-01	159
0.161355        	1.37561138e+00	-2.00507731e-03 3.02191818e-06 5.00000000e-01	159
0.162136        	1.37593510e+00	-2.00507731e-03 3.02191818e-06 5.00000000e-01	159
0.162917        	1.37625130e+00	-2.00507731e-03 3.02191818e-06 5.00000000e-01	159
0.163698        	1.37656013e+00	-2.00507731e-03 3.02191818e-06 5.00000000e-01	159
0.164479        	1.37686176e+00	-2.00507731e-03 3.02191818e-06 5.00000000e-01	159
0.16526         	1.37715633e+00	-2.00507731e-03 3.02191818e-06 5.00000000e-01	159
0.16604         	1.37744396e+00	-2.00507731e-03 3.02191818e-06 5.00000000e-01	159
0.16682         	1.37772482e+00	-2.00507731e-03 3.02191818e-06 5.00000000e-01	159
0.1676          	1.37799904e+00	-2.00507731e-03 3.02191818e-06 5.00000000e-01	159
0.16838         	1.37826674e+00	-2.00507731e-03 3.02191818e-06 5.00000000e-01	159
0.16916         	1.37852804e+00	-2.00507731e-03 3.02191818e-06 5.00000000e-01	159
0.16994         	1.37878305e+00	-2.00507731e-03 3.02191818e-06 5.00000000e-01	159
0.17072         	1.37903189e+00	-2.00507731e-03 3.02191818e-06 5.00000000e-01	159
0.171501        	1.37927465e+00	-2.00507731e-03 3.02191818e-06 5.00000000e-01	159
0.172281        	1.37951145e+00	-2.00507731e-03 3.02191818e-06 5.00000000e-01	159
0.173061        	1.37974237e+00	-2.00507731e-03 3.02191818e-06 5.00000000e-01	159
0.17384         	1.37996750e+00	-2.00507731e-03 3.02191818e-06 5.00000000e-01	159
0.17462         	1.38018696e+00	-2.00507731e-03 3.02191818e-06 5.00000000e-01	159
0.175399        	1.38040082e+00	-2.00507731e-03 3.02191818e-06 5.00000000e-01	159
0.176178        	1.38060919e+00	-2.00507731e-03 3.02191818e-06 5.00000000e-01	159
0.176958        	1.38081214e+00	-2.00507731e-03 3.02191818e-06 5.00000000e-01	159
0.177737        	1.38100977e+00	-2.00507731e-03 3.02191818e-06 5.00000000e-01	159
0.178517        	1.38121199e+00	-2.00507731e-03 1.00232707e-06 5.00000000e-01	23
0.179296        	1.38141090e+00	-2.00507731e-03 1.00232707e-06 5.00000000e-01	23
0.180075        	1.38160456e+00	-2.00507731e-03 1.00232707e-06 5.00000000e-01	23
0.180855        	1.38179308e+00	-2.00507731e-03 1.00232707e-06 5.00000000e-01	23
0.181634        	1.38197652e+00	-2.00507731e-03 1.00232707e-06 5.00000000e-01	23
0.182414        	1.38215497e+00	-2.00507731e-03 1.00232707e-06 5.00000000e-01	23
0.183193        	1.38232850e+00	-2.00507731e-03 1.00232707e-06 5.00000000e-01	23
0.183972        	1.38249719e+00	-2.00507731e-03 1.00232707e-06 5.00000000e-01	23
0.184751        	1.38266111e+00	-2.00507731e-03 1.00232707e-06 5.00000000e-01	23
0.18553         	1.38282035e+00	-2.00507731e-03 1.00232707e-06 5.00000000e-01	23
0.186308        	1.38297499e+00	-2.00507731e-03 1.00232707e-06 5.00000000e-01	23
0.187087        	1.38312510e+00	-2.00507731e-03 1.00232707e-06 5.00000000e-01	23
0.187866        	1.38327077e+00	-2.00507731e-03 1.00232707e-06 5.00000000e-01	23
0.188644        	1.38341207e+00	-2.00507731e-03 1.00232707e-06 5.00000000e-01	23
0.189423        	1.38354909e+00	-2.00507731e-03 1.00232707e-06 5.00000000e-01	23
0.190202        	1.38368192e+00	-2.00507731e-03 1.00232707e-06 5.00000000e-01	23
0.19098         	1.38381064e+00	-2.00507731e-03 1.00232707e-06 5.00000000e-01	23
0.191759        	1.38393534e+00	-2.00507731e-03 1.00232707e-06 5.00000000e-01	23
0.192538        	1.38405610e+00	-2.00507731e-03 1.00232707e-06 5.00000000e-01	23
0.193316        	1.38417301e+00	-2.00507731e-03 1.00232707e-06 5.00000000e-01	23
0.194095        	1.38428617e+00	-2.00507731e-03 1.00232707e-06 5.00000000e-01	23
0.194874        	1.38439565e+00	-2.00507731e-03 1.00232707e-06 5.00000000e-01	23
0.195652        	1.38450156e+00	-2.00507731e-03 1.00232707e-06 5.00000000e-01	23
0.196431        	1.38460397e+00	-2.00507731e-03 1.00232707e-06 5.00000000e-01	23
0.19721         	1.38470299e+00	-2.00507731e-03 1.00232707e-06 5.00000000e-01	23
0.197988        	1.38479869e+00	-2.00507731e-03 1.00232707e-06 5.00000000e-01	23
0.198767        	1.38489118e+00	-2.00507731e-03 1.00232707e-06 5.00000000e-01	23
0.199545        	1.38498053e+00	-2.00507731e-03 1.00232707e-06 5.00000000e-01	23
0.200324        	1.38506684e+00	-2.00507731e-03 1.00232707e-06 5.00000000e-01	23
0.201103        	1.38515018e+00	-2.00507731e-03 1.00232707e-06 5.00000000e-01	23
0.201881        	1.38523066e+00	-2.00507731e-03 1.00232707e-06 5.00000000e-01	23
0.20266         	1.38530834e+00	-2.00507731e-03 1.00232707e-06 5.00000000e-01	23
0.203439        	1.38538330e+00	-2.00507731e-03 1.00232707e-06 5.00000000e-01	23
0.204217        	1.38545564e+00	-2.00507731e-03 1.00232707e-06 5.00000000e-01	23
0.204996        	1.38552541e+00	-2.00507731e-03 1.00232707e-06 5.00000000e-01	23
0.205775        	1.38559270e+00	-2.00507731e-03 1.00232707e-06 5.00000000e-01	23
0.206553        	1.38565757e+00	-2.00507731e-03 1.00232707e-06 5.00000000e-01	23
0.207332        	1.38572010e+00	-2.00507731e-03 1.00232707e-06 5.00000000e-01	23
0.208111        	1.38578034e+00	-2.00507731e-03 1.00232707e-06 5.00000000e-01	23
0.208889        	1.38583835e+00	-2.00507731e-03 1.00232707e-06 5.00000000e-01	23
0.209668        	1.38589419e+00	-2.00507731e-03 1.00232707e-06 5.00000000e-01	23
0.210447        	1.38594792e+00	-2.00507731e-03 1.00232707e-06 5.00000000e-01	23
0.211225        	1.38599958e+00	-2.00507731e-03 1.00232707e-06 5.00000000e-01	23
0.212003        	1.38604922e+00	-2.00507731e-03 1.00232707e-06 5.00000000e-01	23
0.212781        	1.38609688e+00	-2.00507731e-03 1.00232707e-06 5.00000000e-01	23
0.213559        	1.38614261e+00	-2.00507731e-03 1.00232707e-06 5.00000000e-01	23
0.214337        	1.38618644e+00	-2.00507731e-03 1.00232707e-06 5.00000000e-01	23
0.215115        	1.38622841e+00	-2.00507731e-03 1.00232707e-06 5.00000000e-01	23
0.215893        	1.38626855e+00	-2.00507731e-03 1.00232707e-06 5.00000000e-01	23
0.21667         	1.38630688e+00	-2.00507731e-03 1.00232707e-06 5.00000000e-01	23
0.217448        	1.38634345e+00	-2.00507731e-03 1.00232707e-06 5.00000000e-01	23
0.218226        	1.38637826e+00	-2.00507731e-03 1.00232707e-06 5.00000000e-01	23
0.219004        	1.38641134e+00	-2.00507731e-03 1.00232707e-06 5.00000000e-01	23
0.219782        	1.38644273e+00	-2.00507731e-03 1.00232707e-06 5.00000000e-01	23
0.22056         	1.38647242e+00	-2.00507731e-03 1.00232707e-06 5.00000000e-01	23
0.221338        	1.38650045e+00	-2.00507731e-03 1.00232707e-06 5.00000000e-01	23
0.222116        	1.38652683e+00	-2.00507731e-03 1.00232707e-06 5.00000000e-01	23
0.222894        	1.38655158e+00	-2.00507731e-03 1.00232707e-06 5.00000000e-01	23
0.223671        	1.38657472e+00	-2.00507731e-03 1.00232707e-06 5.00000000e-01	23
0.224449        	1.38659626e+00	-2.00507731e-03 1.00232707e-06 5.00000000e-01	23
0.225227        	1.38661622e+00	-2.00507731e-03 1.00232707e-06 5.00000000e-01	23
0.226005        	1.38663462e+00	-2.00507731e-03 1.00232707e-06 5.00000000e-01	23
0.226783        	1.38665147e+00	-2.00507731e-03 1.00232707e-06 5.00000000e-01	23
0.227561        	1.38666680e+00	-2.00507731e-03 1.00232707e-06 5.00000000e-01	23
0.228339        	1.38668063e+00	-2.00507731e-03 1.00232707e-06 5.00000000e-01	23
0.229117        	1.38669297e+00	-2.00507731e-03 1.00232707e-06 5.00000000e-01	23
0.229896        	1.38670385e+00	-2.00507731e-03 1.00232707e-06 5.00000000e-01	23
0.230675        	1.38671329e+00	-2.00507731e-03 1.00232707e-06 5.00000000e-01	23
0.231453        	1.38672131e+00	-2.00507731e-03 1.00232707e-06 5.00000000e-01	23
0.232232        	1.38672795e+00	-2.00507731e-03 1.00232707e-06 5.00000000e-01	23
0.233011        	1.38673321e+00	-2.00507731e-03 1.00232707e-06 5.00000000e-01	23
0.233789        	1.38673714e+00	-2.00507731e-03 1.00232707e-06 5.00000000e-01	23
0.234568        	1.38673977e+00	-2.00507731e-03 1.00232707e-06 5.00000000e-01	23
0.235347        	1.38674112e+00	-2.00507731e-03 1.00232707e-06 5.00000000e-01	23
0.236125        	1.38674122e+00	-2.00507731e-03 1.00232707e-06 5.00000000e-01	23
0.236904        	1.38674012e+00	-2.00507731e-03 1.00232707e-06 5.00000000e-01	23
0.237683        	1.38673785e+00	-2.00507731e-03 1.00232707e-06 5.00000000e-01	23
0.238461        	1.38673444e+00	-2.00507731e-03 1.00232707e-06 5.00000000e-01	23
0.23924         	1.38672993e+00	-2.00507731e-03 1.00232707e-06 5.00000000e-01	23
0.240019        	1.38672436e+00	-2.00507731e-03 1.00232707e-06 5.00000000e-01	23
0.240797        	1.38671777e+00	-2.00507731e-03 1.00232707e-06 5.00000000e-01	23
0.241576        	1.38671020e+00	-2.00507731e-03 1.00232707e-06 5.00000000e-01	23
0.242355        	1.38670169e+00	-2.00507731e-03 1.00232707e-06 5.00000000e-01	23
0.243133        	1.38669228e+00	-2.00507731e-03 1.00232707e-06 5.00000000e-01	23
0.243912        	1.38668202e+00	-2.00507731e-03 1.00232707e-06 5.00000000e-01	23
0.244691        	1.38667094e+00	-2.00507731e-03 1.00232707e-06 5.00000000e-01	23
0.245469        	1.38665908e+00	-2.00507731e-03 1.00232707e-06 5.00000000e-01	23
0.246248        	1.38664650e+00	-2.00507731e-03 1.00232707e-06 5.00000000e-01	23
0.247027        	1.38663322e+00	-2.00507731e-03 1.00232707e-06 5.00000000e-01	23
0.247805        	1.38661930e+00	-2.00507731e-03 1.00232707e-06 5.00000000e-01	23
0.248584        	1.38660477e+00	-2.00507731e-03 1.00232707e-06 5.00000000e-01	23
0.249363        	1.38658967e+00	-2.00507731e-03 1.00232707e-06 5.00000000e-01	23
0.250141        	1.38657405e+00	-2.00507731e-03 1.00232707e-06 5.00000000e-01	23
0.25092         	1.38655794e+00	-2.00507731e-03 1.00232707e-06 5.00000000e-01	23
0.251699        	1.38654137e+00	-2.00507731e-03 1.00232707e-06 5.00000000e-01	23
0.252477        	1.38652440e+00	-2.00507731e-03 1.00232707e-06 5.00000000e-01	23
0.253256        	1.38650704e+00	-2.00507731e-03 1.00232707e-06 5.00000000e-01	23
0.254035        	1.38648934e+00	-2.00507731e-03 1.00232707e-06 5.00000000e-01	23
0.254813        	1.38647133e+00	-2.00507731e-03 1.00232707e-06 5.00000000e-01	23
0.255592        	1.38645304e+00	-2.00507731e-03 1.00232707e-06 5.00000000e-01	23
0.256371        	1.38643450e+00	-2.00507731e-03 1.00232707e-06 5.00000000e-01	23
0.257149        	1.38641573e+00	-2.00507731e-03 1.00232707e-06 5.00000000e-01	23
0.257928        	1.38639676e+00	-2.00507731e-03 1.00232707e-06 5.00000000e-01	23
0.258707        	1.38637762e+00	-2.00507731e-03 1.00232707e-06 5.00000000e-01	23
0.259485        	1.38635833e+00	-2.00507731e-03 1.00232707e-06 5.00000000e-01	23
0.260264        	1.38633890e+00	-2.00507731e-03 1.00232707e-06 5.00000000e-01	23
0.261043        	1.38631936e+00	-2.00507731e-03 1.00232707e-06 5.00000000e-01	23
0.261821        	1.38629971e+00	-2.00507731e-03 1.00232707e-06 5.00000000e-01	23
0.2626          	1.38627999e+00	-2.00507731e-03 1.00232707e-06 5.00000000e-01	23
0.263379        	1.38626018e+00	-2.00507731e-03 1.00232707e-06 5.00000000e-01	23
0.264157        	1.38624032e+00	-2.00507731e-03 1.00232707e-06 5.00000000e-01	23
0.264936        	1.38622040e+00	-2.00507731e-03 1.00232707e-06 5.00000000e-01	23
0.265715        	1.38620042e+00	-2.00507731e-03 1.00232707e-06 5.00000000e-01	23
0.266493        	1.38618041e+00	-2.00507731e-03 1.00232707e-06 5.00000000e-01	23
0.267272        	1.38616034e+00	-2.00507731e-03 1.00232707e-06 5.00000000e-01	23
0.268051        	1.38614023e+00	-2.00507731e-03 1.00232707e-06 5.00000000e-01	23
0.26883         	1.38612008e+00	-2.00507731e-03 1.00232707e-06 5.00000000e-01	23
0.269608        	1.38609987e+00	-2.00507731e-03 1.00232707e-06 5.00000000e-01	23
0.270387        	1.38607961e+00	-2.00507731e-03 1.00232707e-06 5.00000000e-01	23
0.271166        	1.38605929e+00	-2.00507731e-03 1.00232707e-06 5.00000000e-01	23
0.271944        	1.38603890e+00	-2.00507731e-03 1.00232707e-06 5.00000000e-01	23
0.272723        	1.38601842e+00	-2.00507731e-03 1.00232707e-06 5.00000000e-01	23
0.273502        	1.38599786e+00	-2.00507731e-03 1.00232707e-06 5.00000000e-01	23
0.27428         	1.38597720e+00	-2.00507731e-03 1.00232707e-06 5.00000000e-01	23
0.275059        	1.38595643e+00	-2.00507731e-03 1.00232707e-06 5.00000000e-01	23
0.275838        	1.38593554e+00	-2.00507731e-03 1.00232707e-06 5.00000000e-01	23
0.276616        	1.38591450e+00	-2.00507731e-03 1.00232707e-06 5.00000000e-01	23
0.277395        	1.38589332e+00	-2.00507731e-03 1.00232707e-06 5.00000000e-01	23
0.278174        	1.38587196e+00	-2.00507731e-03 1.00232707e-06 5.00000000e-01	23
0.278952        	1.38585043e+00	-2.00507731e-03 1.00232707e-06 5.00000000e-01	23
0.279731        	1.38582871e+00	-2.00507731e-03 1.00232707e-06 5.00000000e-01	23
0.28051         	1.38580677e+00	-2.00507731e-03 1.00232707e-06 5.00000000e-01	23
0.281288        	1.38578461e+00	-2.00507731e-03 1.00232707e-06 5.00000000e-01	23
0.282067        	1.38576222e+00	-2.00507731e-03 1.00232707e-06 5.00000000e-01	23
0.282846        	1.38573957e+00	-2.00507731e-03 1.00232707e-06 5.00000000e-01	23
0.283624        	1.38571667e+00	-2.00507731e-03 1.00232707e-06 5.00000000e-01	23
0.284403        	1.38569350e+00	-2.00507731e-03 1.00232707e-06 5.00000000e-01	23
0.285182        	1.38567005e+00	-2.00507731e-03 1.00232707e-06 5.00000000e-01	23
0.28596         	1.38564631e+00	-2.00507731e-03 1.00232707e-06 5.00000000e-01	23
0.286739        	1.38562227e+00	-2.00507731e-03 1.00232707e-06 5.00000000e-01	23
0.287518        	1.38559792e+00	-2.00507731e-03 1.00232707e-06 5.00000000e-01	23
0.288298        	1.38557327e+00	-2.00507731e-03 1.00232707e-06 5.00000000e-01	23
0.289077        	1.38554830e+00	-2.00507731e-03 1.00232707e-06 5.00000000e-01	23
0.289857        	1.38552301e+00	-2.00507731e-03 1.00232707e-06 5.00000000e-01	23
0.290637        	1.38549741e+00	-2.00507731e-03 1.00232707e-06 5.00000000e-01	23
0.291416        	1.38547148e+00	-2.00507731e-03 1.00232707e-06 5.00000000e-01	23
0.292196        	1.38544524e+00	-2.00507731e-03 1.00232707e-06 5.00000000e-01	23
0.292975        	1.38541868e+00	-2.00507731e-03 1.00232707e-06 5.00000000e-01	23
0.293755        	1.38539181e+00	-2.00507731e-03 1.00232707e-06 5.00000000e-01	23
0.294534        	1.38536464e+00	-2.00507731e-03 1.00232707e-06 5.00000000e-01	23