#      distance             U_x             U_y             U_z wallShearStr... wallShearStr... wallShearStr...               p             nut         nuTilda
  3.0219182e-06     0.018855812   2.7097037e-09  -3.5563184e-23               0               0               0    0.0002409105   3.1859558e-12   4.3835781e-08
  5.0865428e-06     0.031741157   6.8741464e-09  -1.5136003e-23               0               0               0   0.00024091071   1.5791545e-11    7.378635e-08
  7.2269684e-06     0.045097788   1.3536468e-08  -3.8981906e-23               0               0               0   0.00024091094   5.3954679e-11   1.0483263e-07
  9.4750924e-06      0.05912175   2.3069927e-08  -5.8466606e-23               0               0               0   0.00024091117   1.4693925e-10   1.3743537e-07
  1.1864417e-05     0.074015469   3.6001353e-08  -2.4741349e-23               0               0               0   0.00024091141   3.4559196e-10   1.7207787e-07
  1.4430548e-05     0.089987453   5.3089422e-08   8.0869105e-23               0               0               0   0.00024091167   7.3594407e-10   2.0927289e-07
  1.7211727e-05      0.10724927   7.5332655e-08    1.318023e-22               0               0               0   0.00024091195   1.4613129e-09   2.4957019e-07
  2.0249401e-05      0.12600768   1.0400347e-07   2.7889311e-23               0               0               0   0.00024091227   2.7575514e-09   2.9356495e-07
  2.3588836e-05      0.14644853   1.4068929e-07  -3.5574462e-23               0               0               0   0.00024091263    5.008298e-09   3.4190797e-07
  2.7279799e-05      0.16870759   1.8731875e-07  -1.7787231e-23               0               0               0   0.00024091306   8.8298286e-09   3.9531886e-07
  3.1377293e-05      0.19282362   2.4614668e-07               0               0               0               0   0.00024091357   1.5197907e-08   4.5460433e-07
  3.5942381e-05      0.21867242    3.196627e-07   8.7733464e-23               0               0               0   0.00024091422   2.5630061e-08    5.206827e-07
  4.1043091e-05      0.24589391   4.1038981e-07   1.3158612e-22               0               0               0   0.00024091506   4.2430544e-08   5.9461234e-07
  4.6755437e-05      0.27384673    5.205819e-07   1.5308126e-22               0               0               0   0.00024091622   6.8978555e-08   6.7761117e-07
  5.3164546e-05      0.30164508   6.5192937e-07   1.6382538e-22               0               0               0   0.00024091785   1.0997332e-07   7.7104516e-07
  6.0365928e-05      0.32831462   8.0548486e-07  -2.3004519e-22               0               0               0   0.00024092016   1.7144636e-07    8.763764e-07
    6.84669e-05        0.353028   9.8197746e-07  -4.9908459e-22               0               0               0   0.00024092345   2.6029823e-07   9.9510993e-07
  7.7588184e-05      0.37530199   1.1824334e-06  -2.6258372e-22               0               0               0   0.00024092801   3.8325239e-07   1.1288089e-06
   8.786571e-05      0.39505038   1.4087811e-06   4.5634721e-23               0               0               0    0.0002409341   5.4545579e-07   1.2791953e-06
  9.9452634e-05       0.4124938   1.6641679e-06   2.4762275e-22               0               0               0   0.00024094194   7.4929052e-07    1.448275e-06
  0.00011252163      0.42801158    1.952977e-06   6.8014944e-23               0               0               0    0.0002409516   9.9402447e-07   1.6384202e-06
  0.00012726745      0.44201714   2.2807106e-06  -1.0876644e-22               0               0               0   0.00024096306   1.2765814e-06   1.8524029e-06
  0.00014390985      0.45488575   2.6538888e-06  -2.2934445e-23               0               0               0   0.00024097627   1.5931184e-06   2.0934029e-06
  0.00016269684       0.4669264   3.0800273e-06   6.0096287e-23               0               0               0   0.00024099119   1.9406939e-06   2.3650166e-06
  0.00018390838      0.47837925   3.5676962e-06    4.444251e-22               0               0               0   0.00024100786   2.3183953e-06   2.6712768e-06
  0.00020786057      0.48942429   4.1266471e-06   5.4639306e-22               0               0               0    0.0002410264   2.7277211e-06   3.0166856e-06
  0.00023491035      0.50019318   4.7679896e-06   1.6206425e-22               0               0               0   0.00024104707   3.1723987e-06   3.4062599e-06
  0.00026546084       0.5107806   5.5044092e-06               0               0               0               0   0.00024107018   3.6579517e-06   3.8455851e-06
   0.0002999673      0.52125378   6.3504219e-06               0               0               0               0   0.00024109615   4.1912623e-06   4.3408734e-06
  0.00033894396      0.53166005   7.3226709e-06  -1.7303762e-22               0               0               0   0.00024112546    4.780245e-06   4.8990235e-06
  0.00038297165      0.54203258   8.4402727e-06  -3.4607525e-22               0               0               0   0.00024115869   5.4336496e-06   5.5276767e-06
  0.00043270649      0.55239463   9.7252233e-06   6.9969242e-22               0               0               0   0.00024119647   6.1609685e-06   6.2352662e-06
  0.00048888965      0.56276269   1.1202879e-05   1.3826659e-21               0               0               0   0.00024123952   6.9724048e-06   7.0310538e-06
  0.00055235838      0.57314877    1.290253e-05   5.0993584e-22               0               0               0   0.00024128864   7.8788672e-06   7.9251466e-06
   0.0006240585      0.58356211   1.4858083e-05               0               0               0               0   0.00024134478   8.8919612e-06   8.9284854e-06
  0.00070505852      0.59401038    1.710889e-05   2.4322739e-22               0               0               0   0.00024140896   1.0023951e-05   1.0052793e-05
  0.00079656552      0.60450067   1.9700753e-05   4.8645478e-22               0               0               0   0.00024148236   1.1287673e-05   1.1310473e-05
  0.00089994316      0.61504022   2.2687142e-05   2.4322739e-22               0               0               0   0.00024156633   1.2696382e-05    1.271443e-05
    0.001016732      0.62563697   2.6130705e-05               0               0               0               0   0.00024166238   1.4263511e-05   1.4277824e-05
   0.0011486725      0.63630012   3.0105104e-05   1.0008051e-21               0               0               0    0.0002417722   1.6002332e-05   1.6013708e-05
   0.0012977308      0.64704051   3.4697303e-05    -7.81212e-22               0               0               0   0.00024189771   1.7925508e-05   1.7934575e-05
   0.0014661282      0.65787104   4.0010366e-05  -3.4516688e-21               0               0               0   0.00024204103   2.0044533e-05   2.0051784e-05
   0.0016563743      0.66880696   4.6166921e-05  -2.8033369e-21               0               0               0   0.00024220452   2.2369069e-05   2.2374889e-05
   0.0018713042      0.67986619   5.3313398e-05  -1.7384822e-21               0               0               0   0.00024239073   2.4906195e-05   2.4910888e-05
   0.0021141207      0.69106955   6.1625218e-05  -6.0479694e-22               0               0               0   0.00024260243   2.7659592e-05   2.7663395e-05
   0.0023884425      0.70244086   7.1313098e-05  -4.5756455e-22               0               0               0   0.00024284247   3.0628681e-05    3.063178e-05
   0.0026983575       0.7140071    8.263069e-05   1.1644687e-21               0               0               0   0.00024311379   3.3807713e-05   3.3810254e-05
   0.0030484842      0.72579834   9.5883776e-05  -2.4173237e-21               0               0               0   0.00024341916   3.7184792e-05    3.718689e-05
   0.0034440402      0.73784774    0.0001114413   -5.835873e-21               0               0               0   0.00024376106   4.0740753e-05   4.0742498e-05
   0.0038909203      0.75019134   0.00012974849  -1.7965159e-21               0               0               0   0.00024414128   4.4447826e-05   4.4449291e-05
    0.004395784      0.76286785   0.00015134214   3.8240744e-21               0               0               0   0.00024456043   4.8267969e-05   4.8269211e-05
   0.0049661549      0.77591831   0.00017686871  -4.6079021e-21               0               0               0   0.00024501742   5.2150782e-05   5.2151844e-05
   0.0056105328      0.78938556   0.00020710808  -1.5115961e-20               0               0               0    0.0002455091   5.6030913e-05   5.6031832e-05
   0.0063385204      0.80331341   0.00024300785   5.6643968e-21               0               0               0   0.00024602961   5.9824924e-05   5.9825729e-05
   0.0071609664      0.81774534   0.00028571134   2.0570751e-20               0               0               0   0.00024656331   6.3427559e-05   6.3428274e-05
   0.0080901272      0.83272234   0.00033637538   4.7958889e-20               0               0               0   0.00024708483   6.6707378e-05   6.6708024e-05
   0.0091398493      0.84827942   0.00039662122   6.0614673e-20               0               0               0   0.00024756302   6.9501707e-05   6.9502302e-05
    0.010325776      0.86443985   0.00046841895   2.5778119e-20               0               0               0   0.00024795037   7.1610853e-05   7.1611412e-05
     0.01166558      0.88120599   0.00055358845    4.899969e-21               0               0               0   0.00024817945   7.2791547e-05   7.2792088e-05
    0.013179228      0.89854431   0.00065413519   1.6397339e-20               0               0               0   0.00024815756    7.274974e-05   7.2750281e-05
    0.014889277      0.91636082   0.00077202819   1.4082193e-20               0               0               0   0.00024775374     7.11331e-05   7.1133667e-05
    0.016821209      0.93446026   0.00090855956   4.1579033e-20               0               0               0   0.00024679409   6.7524036e-05   6.7524669e-05
    0.019003816      0.95247648    0.0010632092    6.519254e-20               0               0               0   0.00024505554   6.1434177e-05   6.1434952e-05
    0.021469624      0.96975162    0.0012316001   3.3531913e-20               0               0               0   0.00024229074   5.2293803e-05   5.2294922e-05
    0.024255377      0.98516362    0.0014048465   1.3878746e-20               0               0               0   0.00023836807   3.9257405e-05   3.9259859e-05
    0.027402591      0.99661889    0.0015423921   1.6451557e-21               0               0               0    0.0002327863   2.2513771e-05   2.2543204e-05
    0.030958166       1.0023367    0.0016046809               0               0               0               0   0.00022549745   8.2069685e-06   8.3998594e-06
    0.034975088       1.0037618     0.001613976               0               0               0               0   0.00021783836   2.2364969e-06   2.6673563e-06
    0.039513219       1.0038582    0.0016052585   1.9842961e-20               0               0               0   0.00021056894   1.4451448e-06   1.9790247e-06
    0.044640187       1.0038602    0.0015948034   2.8292281e-20               0               0               0   0.00020335549   1.4389284e-06   1.9743082e-06
    0.050432395       1.0038659    0.0015845225   6.9802274e-21               0               0               0   0.00019602071   1.4472325e-06   1.9805924e-06
    0.056976161       1.0038707    0.0015722902  -1.4690563e-21               0               0               0   0.00018864056   1.4538405e-06   1.9855953e-06
    0.064369002        1.003873    0.0015595639               0               0               0               0   0.00018134785   1.4591572e-06   1.9896225e-06
    0.072721087       1.0038712    0.0015451516               0               0               0               0   0.00017427773   1.4635984e-06   1.9929878e-06
    0.082156882       1.0038664    0.0015300223               0               0               0               0   0.00016752983   1.4673317e-06   1.9958176e-06
    0.092817002       1.0038591    0.0015136137               0               0               0               0   0.00016119257   1.4712383e-06   1.9987796e-06
