/*--------------------------------*- C++ -*----------------------------------*\
  =========                 |
  \\      /  F ield         | OpenFOAM: The Open Source CFD Toolbox
   \\    /   O peration     | Website:  https://openfoam.org
    \\  /    A nd           | Version:  12
     \\/     M anipulation  |
\*---------------------------------------------------------------------------*/
FoamFile
{
    format      ascii;
    class       volScalarField;
    location    "800";
    object      nut;
}
// * * * * * * * * * * * * * * * * * * * * * * * * * * * * * * * * * * * * * //

dimensions      [0 2 -1 0 0 0 0];

internalField   nonuniform List<scalar> 
7480
(
8.0746853e-08
4.2962716e-08
3.1056931e-08
2.8365612e-08
3.1794906e-06
5.3315746e-06
6.3338535e-06
6.9862988e-06
7.3992276e-06
7.6473176e-06
7.4894486e-06
7.2193178e-06
6.8980103e-06
6.5574915e-06
6.2182088e-06
5.8930813e-06
5.5905066e-06
5.31998e-06
5.0762212e-06
4.8644657e-06
4.6802751e-06
4.5209845e-06
4.3859188e-06
4.2745659e-06
4.1860994e-06
4.1198923e-06
4.0748599e-06
4.0495124e-06
4.0421431e-06
4.0508713e-06
4.0736495e-06
4.1083761e-06
4.1529981e-06
4.207713e-06
4.2711712e-06
4.3413323e-06
4.4158594e-06
4.4924392e-06
4.5696815e-06
4.6465742e-06
4.7220025e-06
4.7948552e-06
4.8642567e-06
4.9294933e-06
4.9900008e-06
5.0454544e-06
5.0953394e-06
5.1412491e-06
5.1828033e-06
5.2192659e-06
5.2501986e-06
5.275509e-06
5.295518e-06
5.3109812e-06
5.3227185e-06
5.3315654e-06
5.3384627e-06
5.3439255e-06
5.3482336e-06
5.351469e-06
5.353566e-06
5.3545986e-06
5.3548233e-06
5.3544363e-06
5.3534868e-06
5.3520847e-06
5.3505348e-06
5.3488587e-06
5.3469063e-06
5.3446269e-06
5.3419875e-06
5.3388858e-06
5.3354032e-06
5.331662e-06
5.3276433e-06
5.3233986e-06
5.3190066e-06
5.3143395e-06
5.3093476e-06
5.3041334e-06
5.298662e-06
5.2929721e-06
5.2871712e-06
5.2811838e-06
5.2749764e-06
5.268598e-06
5.2620357e-06
5.2553238e-06
5.2484751e-06
5.2414917e-06
5.2343793e-06
5.2271091e-06
5.2197035e-06
5.2121903e-06
5.2044876e-06
5.1967488e-06
5.1888919e-06
5.1803251e-06
5.1684428e-06
5.1776256e-06
1.6699853e-07
1.6479303e-07
1.6275584e-07
1.6152413e-07
7.8952172e-07
2.0014169e-06
3.2199448e-06
4.1000936e-06
4.6102585e-06
4.8537316e-06
4.9292049e-06
4.92006e-06
4.9202763e-06
4.9672828e-06
5.0575349e-06
5.1936961e-06
5.4000609e-06
5.7434096e-06
5.8736533e-06
6.1611855e-06
6.4630723e-06
6.7817692e-06
7.1154004e-06
7.4619768e-06
7.8192583e-06
8.1874115e-06
8.5616877e-06
8.9377681e-06
9.3126159e-06
9.6838294e-06
1.0049697e-05
1.0409555e-05
1.0764395e-05
1.1116844e-05
1.1463961e-05
1.1800464e-05
1.2120546e-05
1.2422108e-05
1.2708229e-05
1.2978442e-05
1.3231698e-05
1.3467428e-05
1.3684868e-05
1.3883282e-05
1.4063185e-05
1.4225382e-05
1.4370767e-05
1.4498935e-05
1.4609848e-05
1.4704741e-05
1.4785429e-05
1.4853855e-05
1.4912073e-05
1.4962342e-05
1.5006464e-05
1.5046436e-05
1.5083789e-05
1.5118064e-05
1.5149252e-05
1.5177577e-05
1.5203257e-05
1.5226726e-05
1.5248463e-05
1.5268664e-05
1.5287305e-05
1.5304478e-05
1.5320403e-05
1.5334622e-05
1.5346825e-05
1.5357156e-05
1.536581e-05
1.5372858e-05
1.5378608e-05
1.5383234e-05
1.5386539e-05
1.5388445e-05
1.5388963e-05
1.5387987e-05
1.5385726e-05
1.5382494e-05
1.5378298e-05
1.5373169e-05
1.5367065e-05
1.53598e-05
1.5351493e-05
1.5342359e-05
1.5332491e-05
1.5321934e-05
1.5310573e-05
1.5298394e-05
1.5285477e-05
1.527191e-05
1.5257808e-05
1.524313e-05
1.5227676e-05
1.521189e-05
1.519525e-05
1.5177451e-05
1.515728e-05
1.5154052e-05
1.6882484e-07
1.6856639e-07
1.6827203e-07
1.6795689e-07
1.7998487e-07
2.3387144e-07
3.7066186e-07
6.1994101e-07
9.7979697e-07
1.4139766e-06
1.8590349e-06
2.2551503e-06
2.5711606e-06
2.804945e-06
2.9700402e-06
3.0862838e-06
3.176085e-06
3.2764294e-06
3.4092017e-06
3.5801404e-06
3.7897497e-06
4.0379165e-06
4.3259338e-06
4.657307e-06
5.0374536e-06
5.4516693e-06
5.9086416e-06
6.4112024e-06
6.9626066e-06
7.5669484e-06
8.230109e-06
8.961902e-06
9.7491288e-06
1.0441547e-05
1.1159182e-05
1.1897389e-05
1.2644576e-05
1.3390979e-05
1.4133911e-05
1.4867003e-05
1.5587537e-05
1.6292839e-05
1.6970328e-05
1.7614513e-05
1.8230723e-05
1.8817288e-05
1.9374534e-05
1.9795061e-05
2.0167943e-05
2.0510424e-05
2.0826677e-05
2.1119727e-05
2.1392393e-05
2.1647853e-05
2.1888712e-05
2.2114897e-05
2.2325202e-05
2.2520819e-05
2.2703751e-05
2.2875974e-05
2.3038846e-05
2.319338e-05
2.3340206e-05
2.3479681e-05
2.3612176e-05
2.3737923e-05
2.3855846e-05
2.3965808e-05
2.4068513e-05
2.4164917e-05
2.4255664e-05
2.4341048e-05
2.4421557e-05
2.449749e-05
2.4567988e-05
2.4632913e-05
2.4692709e-05
2.4747772e-05
2.4798788e-05
2.4846223e-05
2.489017e-05
2.493035e-05
2.4966499e-05
2.4998685e-05
2.5027517e-05
2.5053436e-05
2.5076705e-05
2.5097202e-05
2.5114581e-05
2.5129033e-05
2.5140924e-05
2.5150567e-05
2.5158155e-05
2.5163372e-05
2.5166109e-05
2.5166867e-05
2.5166012e-05
2.5159571e-05
2.5161632e-05
2.5117413e-05
1.6885077e-07
1.686475e-07
1.6843941e-07
1.6822675e-07
1.6818682e-07
1.6896536e-07
1.7200445e-07
1.7977416e-07
1.9582231e-07
2.2501334e-07
2.7252398e-07
3.4288174e-07
4.3898662e-07
5.6141092e-07
7.0818547e-07
8.7497572e-07
1.0557754e-06
1.2452773e-06
1.4385616e-06
1.6317247e-06
1.8219069e-06
2.0080552e-06
2.190532e-06
2.3709837e-06
2.5526666e-06
2.7515825e-06
2.9713465e-06
3.2171237e-06
3.4959385e-06
3.8170744e-06
4.1928529e-06
4.6395338e-06
5.1788596e-06
5.7987501e-06
6.5089895e-06
7.3171613e-06
8.2238297e-06
9.2228105e-06
1.0050042e-05
1.092446e-05
1.1839989e-05
1.2790999e-05
1.3770322e-05
1.4770388e-05
1.5777347e-05
1.6778581e-05
1.7768224e-05
1.8737476e-05
1.967386e-05
2.0577654e-05
2.1449641e-05
2.2286199e-05
2.3084691e-05
2.384325e-05
2.4564292e-05
2.5198181e-05
2.5728525e-05
2.6228729e-05
2.6703899e-05
2.7157552e-05
2.7591353e-05
2.8006481e-05
2.8404071e-05
2.8785367e-05
2.9151438e-05
2.9502112e-05
2.9834527e-05
3.0149471e-05
3.0448701e-05
3.0733895e-05
3.1006117e-05
3.1265929e-05
3.1514181e-05
3.1751548e-05
3.1976659e-05
3.2189487e-05
3.2390989e-05
3.2581958e-05
3.2763342e-05
3.2935878e-05
3.3099869e-05
3.3254755e-05
3.3400411e-05
3.353728e-05
3.3666277e-05
3.3788104e-05
3.3903208e-05
3.4011308e-05
3.4112066e-05
3.4205985e-05
3.4293736e-05
3.4375831e-05
3.4452508e-05
3.4523329e-05
3.4588213e-05
3.4648341e-05
3.4703515e-05
3.4750483e-05
3.4799339e-05
3.4801245e-05
1.6885077e-07
1.6864866e-07
1.684433e-07
1.6823486e-07
1.6802581e-07
1.6782774e-07
1.6767372e-07
1.6763625e-07
1.6784739e-07
1.6852886e-07
1.7001439e-07
1.7277039e-07
1.7740603e-07
1.8467788e-07
1.9549644e-07
2.1092238e-07
2.3216231e-07
2.605759e-07
2.9768504e-07
3.4509177e-07
4.0435694e-07
4.7704588e-07
5.6471499e-07
6.688243e-07
7.907567e-07
9.317311e-07
1.0920616e-06
1.271212e-06
1.468037e-06
1.6811094e-06
1.9092179e-06
2.1522521e-06
2.4112032e-06
2.7049761e-06
3.0419732e-06
3.4341996e-06
3.8969159e-06
4.448843e-06
5.1206236e-06
5.8940629e-06
6.7771414e-06
7.7762579e-06
8.8970926e-06
9.8758659e-06
1.0795296e-05
1.178925e-05
1.2840742e-05
1.3945034e-05
1.509524e-05
1.6281321e-05
1.7478789e-05
1.8671503e-05
1.9852404e-05
2.1016585e-05
2.2173114e-05
2.3311859e-05
2.4419909e-05
2.5488391e-05
2.6510661e-05
2.7490361e-05
2.8432602e-05
2.9342617e-05
3.0222558e-05
3.1071095e-05
3.188566e-05
3.2646354e-05
3.3284043e-05
3.3893643e-05
3.447869e-05
3.5041086e-05
3.5581881e-05
3.6101925e-05
3.6602543e-05
3.7084633e-05
3.7544872e-05
3.7983445e-05
3.8402311e-05
3.8802924e-05
3.9186553e-05
3.9554224e-05
3.9906548e-05
4.0242432e-05
4.0561921e-05
4.0865947e-05
4.1155747e-05
4.1432309e-05
4.1696312e-05
4.1947251e-05
4.2184921e-05
4.2410227e-05
4.2624141e-05
4.282739e-05
4.3020233e-05
4.3202128e-05
4.3373213e-05
4.3535293e-05
4.3687691e-05
4.3828177e-05
4.3962038e-05
4.4045763e-05
1.688504e-07
1.6864837e-07
1.684432e-07
1.6823496e-07
1.6802373e-07
1.6780973e-07
1.6759364e-07
1.6737721e-07
1.6716421e-07
1.6696193e-07
1.6678318e-07
1.6664897e-07
1.6659143e-07
1.6665713e-07
1.6691102e-07
1.674406e-07
1.6836104e-07
1.6982189e-07
1.7201719e-07
1.751945e-07
1.7965899e-07
1.8579195e-07
1.9407942e-07
2.0514229e-07
2.1980319e-07
2.3914287e-07
2.6452757e-07
2.976828e-07
3.4080259e-07
3.9665747e-07
4.6868033e-07
5.6115176e-07
6.7898667e-07
8.2764403e-07
1.0124441e-06
1.2381807e-06
1.5083597e-06
1.8240703e-06
2.1825485e-06
2.5774824e-06
3.0273221e-06
3.5422428e-06
4.1406051e-06
4.8352072e-06
5.678702e-06
6.6482323e-06
7.7520068e-06
8.9906864e-06
1.0304201e-05
1.1259987e-05
1.2309115e-05
1.3434493e-05
1.4627476e-05
1.5879808e-05
1.7189962e-05
1.8534982e-05
1.9894486e-05
2.1253637e-05
2.2601077e-05
2.3963918e-05
2.532419e-05
2.6671162e-05
2.7992106e-05
2.9278533e-05
3.0534844e-05
3.1762813e-05
3.2953784e-05
3.4104301e-05
3.5208336e-05
3.6268403e-05
3.7290871e-05
3.8282043e-05
3.9240057e-05
4.0165461e-05
4.0961261e-05
4.1697501e-05
4.2405806e-05
4.3087979e-05
4.3745235e-05
4.437877e-05
4.4989509e-05
4.5574429e-05
4.6133782e-05
4.6669488e-05
4.7183294e-05
4.7676507e-05
4.8150037e-05
4.8602882e-05
4.9034934e-05
4.9447571e-05
4.9842103e-05
5.0219519e-05
5.0580073e-05
5.0923071e-05
5.1249019e-05
5.1560247e-05
5.1855727e-05
5.2134329e-05
5.2396796e-05
5.2603556e-05
1.6885007e-07
1.68648e-07
1.6844282e-07
1.6823457e-07
1.6802333e-07
1.6780914e-07
1.6759204e-07
1.6737207e-07
1.6714934e-07
1.6692406e-07
1.6669664e-07
1.6646782e-07
1.6623891e-07
1.6601203e-07
1.6579042e-07
1.655789e-07
1.6538445e-07
1.6521684e-07
1.6508965e-07
1.6502133e-07
1.6503613e-07
1.651657e-07
1.6545164e-07
1.6594854e-07
1.6672973e-07
1.6789458e-07
1.6957568e-07
1.7195198e-07
1.7526933e-07
1.7987049e-07
1.8623839e-07
1.9507657e-07
2.0741827e-07
2.24765e-07
2.4928996e-07
2.841771e-07
3.3409584e-07
4.0577268e-07
5.086452e-07
6.5409396e-07
8.5481135e-07
1.1226736e-06
1.4656113e-06
1.8802981e-06
2.3510481e-06
2.8756061e-06
3.4693075e-06
4.1468681e-06
4.9424914e-06
5.8961561e-06
6.9900201e-06
8.2366044e-06
9.6369048e-06
1.1178828e-05
1.2324358e-05
1.344669e-05
1.4657891e-05
1.5950459e-05
1.7315941e-05
1.8758623e-05
2.02478e-05
2.1757061e-05
2.3270542e-05
2.4793708e-05
2.6356132e-05
2.7930059e-05
2.9503875e-05
3.1052796e-05
3.2578952e-05
3.4081663e-05
3.5560505e-05
3.7010351e-05
3.8419775e-05
3.978929e-05
4.1112869e-05
4.2390657e-05
4.3620063e-05
4.4801402e-05
4.5940091e-05
4.70414e-05
4.8109309e-05
4.9041666e-05
4.9902469e-05
5.0731811e-05
5.1531643e-05
5.2303261e-05
5.3047708e-05
5.37623e-05
5.4446969e-05
5.5104052e-05
5.5735353e-05
5.6342148e-05
5.6924512e-05
5.7481285e-05
5.8013532e-05
5.8524039e-05
5.9011659e-05
5.9476162e-05
5.9914751e-05
6.0289599e-05
1.6884983e-07
1.6864771e-07
1.6844251e-07
1.6823427e-07
1.6802306e-07
1.6780889e-07
1.6759179e-07
1.6737177e-07
1.6714884e-07
1.6692303e-07
1.6669436e-07
1.6646287e-07
1.6622862e-07
1.6599173e-07
1.6575233e-07
1.6551067e-07
1.652671e-07
1.6502216e-07
1.6477662e-07
1.645316e-07
1.6428867e-07
1.6404994e-07
1.6381832e-07
1.6359771e-07
1.6339344e-07
1.6321279e-07
1.630656e-07
1.6296522e-07
1.6293005e-07
1.6298577e-07
1.6316858e-07
1.6353104e-07
1.6415096e-07
1.6514353e-07
1.6668094e-07
1.6902646e-07
1.7259178e-07
1.7803107e-07
1.8642062e-07
1.9951738e-07
2.2012747e-07
2.5275024e-07
3.0453617e-07
3.8635517e-07
5.1356575e-07
7.0511911e-07
9.8110396e-07
1.3566048e-06
1.8329985e-06
2.384553e-06
3.0011508e-06
3.6959136e-06
4.487134e-06
5.4552649e-06
6.5846189e-06
7.8711405e-06
9.3279401e-06
1.0952239e-05
1.2718972e-05
1.3969352e-05
1.521135e-05
1.6547853e-05
1.7970691e-05
1.9479987e-05
2.1073501e-05
2.2712602e-05
2.4377736e-05
2.6051641e-05
2.7804669e-05
2.9590466e-05
3.1386271e-05
3.3163893e-05
3.4928959e-05
3.6683938e-05
3.8432959e-05
4.0160885e-05
4.1847435e-05
4.3490618e-05
4.5095917e-05
4.6661927e-05
4.8183599e-05
4.9646883e-05
5.1052469e-05
5.2405828e-05
5.3708834e-05
5.4964763e-05
5.6181957e-05
5.7263073e-05
5.8255264e-05
5.9212135e-05
6.0135718e-05
6.1027306e-05
6.1886197e-05
6.2709809e-05
6.3500578e-05
6.4261765e-05
6.4992406e-05
6.5692524e-05
6.6357182e-05
6.6947909e-05
1.6884966e-07
1.686475e-07
1.6844228e-07
1.6823405e-07
1.6802284e-07
1.6780867e-07
1.6759158e-07
1.6737156e-07
1.6714863e-07
1.6692281e-07
1.6669413e-07
1.6646259e-07
1.6622822e-07
1.6599104e-07
1.6575109e-07
1.6550839e-07
1.6526297e-07
1.650149e-07
1.6476423e-07
1.6451105e-07
1.6425546e-07
1.6399761e-07
1.6373771e-07
1.6347602e-07
1.6321291e-07
1.6294888e-07
1.6268463e-07
1.6242108e-07
1.6215954e-07
1.6190178e-07
1.6165035e-07
1.6140886e-07
1.6118265e-07
1.6097951e-07
1.6081103e-07
1.6069475e-07
1.606578e-07
1.6074296e-07
1.6102039e-07
1.6160678e-07
1.6269446e-07
1.646072e-07
1.6790009e-07
1.7353554e-07
1.8320274e-07
1.9983418e-07
2.2844935e-07
2.7752198e-07
3.608698e-07
4.9876862e-07
7.1681266e-07
1.0416726e-06
1.4904755e-06
2.0607895e-06
2.7109882e-06
3.4481312e-06
4.2810216e-06
5.2758743e-06
6.4969667e-06
7.8845792e-06
9.4504917e-06
1.1199013e-05
1.3109661e-05
1.4941537e-05
1.624676e-05
1.7651981e-05
1.9153388e-05
2.0749707e-05
2.2455928e-05
2.422982e-05
2.6043384e-05
2.787313e-05
2.9800616e-05
3.1785584e-05
3.3793351e-05
3.5797527e-05
3.7808113e-05
3.9822721e-05
4.1828875e-05
4.3806597e-05
4.5744841e-05
4.7656459e-05
4.9537873e-05
5.1371409e-05
5.3149314e-05
5.4876478e-05
5.6557907e-05
5.8175467e-05
5.9723355e-05
6.1211728e-05
6.2647109e-05
6.4033355e-05
6.5329003e-05
6.6469521e-05
6.7569574e-05
6.8632348e-05
6.9657297e-05
7.0643139e-05
7.158434e-05
7.2440857e-05
1.6884954e-07
1.6864734e-07
1.6844211e-07
1.6823388e-07
1.6802266e-07
1.678085e-07
1.6759141e-07
1.6737139e-07
1.6714847e-07
1.6692266e-07
1.6669397e-07
1.6646243e-07
1.6622806e-07
1.6599088e-07
1.6575091e-07
1.6550817e-07
1.652627e-07
1.6501451e-07
1.6476365e-07
1.6451013e-07
1.64254e-07
1.639953e-07
1.6373405e-07
1.6347031e-07
1.6320413e-07
1.6293557e-07
1.6266471e-07
1.6239163e-07
1.6211645e-07
1.6183933e-07
1.6156046e-07
1.6128011e-07
1.6099866e-07
1.6071666e-07
1.6043489e-07
1.6015453e-07
1.5987732e-07
1.5960601e-07
1.5934496e-07
1.5910137e-07
1.5888703e-07
1.5872172e-07
1.5863935e-07
1.5869917e-07
1.5900729e-07
1.597544e-07
1.6128317e-07
1.6421813e-07
1.6971117e-07
1.7988926e-07
1.9861878e-07
2.3281524e-07
2.945272e-07
4.0401917e-07
5.898048e-07
8.8606997e-07
1.3218076e-06
1.9047059e-06
2.6009623e-06
3.4047724e-06
4.314115e-06
5.4037569e-06
6.7367057e-06
8.2944651e-06
1.0036364e-05
1.1969665e-05
1.4070196e-05
1.6297034e-05
1.7757497e-05
1.9267001e-05
2.0878295e-05
2.2593736e-05
2.4430612e-05
2.6346376e-05
2.8309913e-05
3.031516e-05
3.2449471e-05
3.4652189e-05
3.6875244e-05
3.9106314e-05
4.1357436e-05
4.3622743e-05
4.5883486e-05
4.8116505e-05
5.0317581e-05
5.2488412e-05
5.4615033e-05
5.6696466e-05
5.8732044e-05
6.0713818e-05
6.2634387e-05
6.449531e-05
6.6296334e-05
6.8018943e-05
6.9671689e-05
7.125992e-05
7.2806394e-05
7.4206587e-05
7.5472506e-05
7.6647586e-05
1.6884946e-07
1.6864724e-07
1.6844199e-07
1.6823375e-07
1.6802254e-07
1.6780838e-07
1.6759129e-07
1.6737127e-07
1.6714835e-07
1.6692254e-07
1.6669385e-07
1.6646231e-07
1.6622794e-07
1.6599076e-07
1.6575079e-07
1.6550805e-07
1.6526258e-07
1.6501439e-07
1.6476352e-07
1.6451e-07
1.6425385e-07
1.6399511e-07
1.6373381e-07
1.6346998e-07
1.6320366e-07
1.6293489e-07
1.6266369e-07
1.6239012e-07
1.6211421e-07
1.6183601e-07
1.6155557e-07
1.6127295e-07
1.6098819e-07
1.6070139e-07
1.6041262e-07
1.60122e-07
1.5982967e-07
1.5953586e-07
1.5924085e-07
1.5894514e-07
1.5864945e-07
1.5835501e-07
1.5806384e-07
1.5777945e-07
1.5750808e-07
1.57261e-07
1.570586e-07
1.5693845e-07
1.5697088e-07
1.5728956e-07
1.5814868e-07
1.6002955e-07
1.6385139e-07
1.7140331e-07
1.8610135e-07
2.1436504e-07
2.6796899e-07
3.6770143e-07
5.4619081e-07
8.4531154e-07
1.3028842e-06
1.931431e-06
2.6962355e-06
3.5947408e-06
4.6179231e-06
5.8782241e-06
7.3962802e-06
9.1863929e-06
1.1171746e-05
1.3348535e-05
1.5686099e-05
1.8144694e-05
1.9767865e-05
2.1413928e-05
2.3166594e-05
2.5034778e-05
2.7031155e-05
2.9110674e-05
3.1237069e-05
3.3469637e-05
3.5838819e-05
3.8261477e-05
4.0705084e-05
4.3186694e-05
4.5703748e-05
4.8228219e-05
5.0728819e-05
5.320842e-05
5.5673615e-05
5.8102449e-05
6.0476514e-05
6.2797542e-05
6.5069144e-05
6.7289491e-05
6.9445169e-05
7.1529597e-05
7.3561811e-05
7.5518025e-05
7.732082e-05
7.9468507e-05
1.6884942e-07
1.6864717e-07
1.6844192e-07
1.6823368e-07
1.6802246e-07
1.678083e-07
1.6759121e-07
1.6737119e-07
1.6714827e-07
1.6692245e-07
1.6669377e-07
1.6646223e-07
1.6622786e-07
1.6599067e-07
1.657507e-07
1.6550796e-07
1.6526249e-07
1.650143e-07
1.6476343e-07
1.645099e-07
1.6425375e-07
1.6399501e-07
1.637337e-07
1.6346987e-07
1.6320354e-07
1.6293475e-07
1.6266354e-07
1.6238995e-07
1.6211401e-07
1.6183576e-07
1.6155524e-07
1.6127249e-07
1.6098756e-07
1.6070048e-07
1.6041132e-07
1.601201e-07
1.5982689e-07
1.5953174e-07
1.5923471e-07
1.5893586e-07
1.5863528e-07
1.583331e-07
1.5802946e-07
1.5772461e-07
1.5741895e-07
1.5711315e-07
1.5680842e-07
1.5650695e-07
1.5621281e-07
1.5593382e-07
1.5568502e-07
1.5549537e-07
1.5542121e-07
1.5557423e-07
1.5617679e-07
1.5766935e-07
1.6092652e-07
1.6770854e-07
1.8155601e-07
2.0944138e-07
2.6467902e-07
3.7162274e-07
5.6952468e-07
9.1051411e-07
1.4381975e-06
2.1587863e-06
3.0368358e-06
4.0709876e-06
5.2925507e-06
6.7990865e-06
8.5915563e-06
1.0684671e-05
1.2979047e-05
1.5446326e-05
1.8057166e-05
2.0592845e-05
2.2317106e-05
2.413034e-05
2.605604e-05
2.8120266e-05
3.0305027e-05
3.2563059e-05
3.4900449e-05
3.7413949e-05
4.0035362e-05
4.2689162e-05
4.5391172e-05
4.8151574e-05
5.0938512e-05
5.371714e-05
5.648029e-05
5.9225923e-05
6.1934354e-05
6.4600523e-05
6.722229e-05
6.9782351e-05
7.2283536e-05
7.4737338e-05
7.7012472e-05
8.0060476e-05
1.688494e-07
1.6864714e-07
1.6844188e-07
1.6823363e-07
1.6802242e-07
1.6780826e-07
1.6759116e-07
1.6737114e-07
1.6714822e-07
1.669224e-07
1.6669372e-07
1.6646218e-07
1.662278e-07
1.6599062e-07
1.6575064e-07
1.655079e-07
1.6526242e-07
1.6501423e-07
1.6476336e-07
1.6450983e-07
1.6425368e-07
1.6399493e-07
1.6373362e-07
1.6346979e-07
1.6320346e-07
1.6293467e-07
1.6266346e-07
1.6238986e-07
1.6211391e-07
1.6183566e-07
1.6155514e-07
1.6127238e-07
1.6098744e-07
1.6070036e-07
1.6041117e-07
1.6011993e-07
1.5982667e-07
1.5953144e-07
1.5923429e-07
1.5893527e-07
1.5863442e-07
1.5833179e-07
1.5802744e-07
1.5772142e-07
1.5741379e-07
1.5710465e-07
1.5679409e-07
1.5648228e-07
1.561695e-07
1.558562e-07
1.5554329e-07
1.5523245e-07
1.5492697e-07
1.546334e-07
1.5436499e-07
1.5414848e-07
1.5403808e-07
1.5414516e-07
1.5470127e-07
1.5618658e-07
1.5959395e-07
1.6700071e-07
1.8274446e-07
2.1575328e-07
2.8362056e-07
4.1915805e-07
6.7420157e-07
1.1131107e-06
1.7773144e-06
2.6392376e-06
3.6851383e-06
4.9205492e-06
6.4625363e-06
8.3070171e-06
1.0476393e-05
1.2943986e-05
1.558357e-05
1.8372509e-05
2.1284567e-05
2.3555484e-05
2.5460704e-05
2.747159e-05
2.9616794e-05
3.191041e-05
3.430317e-05
3.6764965e-05
3.9430912e-05
4.2251714e-05
4.5117528e-05
4.8051439e-05
5.1066727e-05
5.4117217e-05
5.7164425e-05
6.0208411e-05
6.3245748e-05
6.6243427e-05
6.9195401e-05
7.2118773e-05
7.4840746e-05
7.8509943e-05
1.688494e-07
1.6864713e-07
1.6844186e-07
1.6823362e-07
1.680224e-07
1.6780824e-07
1.6759115e-07
1.6737113e-07
1.671482e-07
1.6692239e-07
1.666937e-07
1.6646215e-07
1.6622778e-07
1.6599059e-07
1.6575061e-07
1.6550787e-07
1.6526239e-07
1.6501419e-07
1.6476332e-07
1.6450978e-07
1.6425363e-07
1.6399488e-07
1.6373357e-07
1.6346973e-07
1.6320339e-07
1.629346e-07
1.6266339e-07
1.6238978e-07
1.6211384e-07
1.6183558e-07
1.6155505e-07
1.612723e-07
1.6098736e-07
1.6070027e-07
1.6041108e-07
1.6011984e-07
1.5982658e-07
1.5953135e-07
1.592342e-07
1.5893516e-07
1.586343e-07
1.5833165e-07
1.5802726e-07
1.5772117e-07
1.5741344e-07
1.5710412e-07
1.5679324e-07
1.5648087e-07
1.5616705e-07
1.5585187e-07
1.5553541e-07
1.5521781e-07
1.5489928e-07
1.5458023e-07
1.5426145e-07
1.5394452e-07
1.5363263e-07
1.5333242e-07
1.5305786e-07
1.5283852e-07
1.527368e-07
1.5288631e-07
1.5357609e-07
1.5543196e-07
1.5980427e-07
1.6964802e-07
1.9135777e-07
2.3854235e-07
3.3859735e-07
5.4051961e-07
9.1574352e-07
1.5331385e-06
2.3967925e-06
3.4755038e-06
4.7531031e-06
6.365324e-06
8.3158741e-06
1.0616369e-05
1.3257568e-05
1.6118639e-05
1.9119901e-05
2.2247674e-05
2.5122649e-05
2.7169976e-05
2.9283484e-05
3.1531037e-05
3.3948086e-05
3.6482085e-05
3.9091617e-05
4.1934594e-05
4.4963869e-05
4.8054848e-05
5.1234402e-05
5.4510182e-05
5.7830585e-05
6.1158205e-05
6.4494764e-05
6.7837642e-05
7.0986462e-05
7.5135269e-05
1.6884942e-07
1.6864714e-07
1.6844187e-07
1.6823363e-07
1.6802241e-07
1.6780825e-07
1.6759115e-07
1.6737113e-07
1.6714821e-07
1.6692239e-07
1.666937e-07
1.6646215e-07
1.6622778e-07
1.6599058e-07
1.657506e-07
1.6550786e-07
1.6526237e-07
1.6501418e-07
1.647633e-07
1.6450976e-07
1.642536e-07
1.6399484e-07
1.6373353e-07
1.6346969e-07
1.6320335e-07
1.6293455e-07
1.6266333e-07
1.6238973e-07
1.6211378e-07
1.6183552e-07
1.6155499e-07
1.6127223e-07
1.6098729e-07
1.607002e-07
1.6041101e-07
1.6011977e-07
1.5982651e-07
1.5953128e-07
1.5923412e-07
1.5893509e-07
1.5863422e-07
1.5833157e-07
1.5802718e-07
1.5772109e-07
1.5741336e-07
1.5710402e-07
1.5679313e-07
1.5648073e-07
1.5616686e-07
1.5585158e-07
1.5553493e-07
1.5521697e-07
1.5489774e-07
1.5457731e-07
1.5425576e-07
1.5393322e-07
1.5360991e-07
1.5328624e-07
1.5296305e-07
1.526421e-07
1.5232712e-07
1.520262e-07
1.5175709e-07
1.5155897e-07
1.5151822e-07
1.5182866e-07
1.5292794e-07
1.5580476e-07
1.6269958e-07
1.7868595e-07
2.1509042e-07
2.9632196e-07
4.7040429e-07
8.1426707e-07
1.4131712e-06
2.2999965e-06
3.437075e-06
4.7980352e-06
6.5259555e-06
8.6355327e-06
1.1125186e-05
1.3978381e-05
1.7097828e-05
2.034599e-05
2.3713884e-05
2.7057051e-05
2.9263677e-05
3.1497347e-05
3.3872475e-05
3.6431386e-05
3.911664e-05
4.1909258e-05
4.496392e-05
4.8213191e-05
5.154687e-05
5.4995108e-05
5.8551833e-05
6.2168296e-05
6.5665498e-05
7.0151895e-05
1.6884946e-07
1.6864717e-07
1.684419e-07
1.6823365e-07
1.6802244e-07
1.6780828e-07
1.6759118e-07
1.6737116e-07
1.6714824e-07
1.6692242e-07
1.6669372e-07
1.6646218e-07
1.6622779e-07
1.659906e-07
1.6575062e-07
1.6550787e-07
1.6526238e-07
1.6501418e-07
1.6476329e-07
1.6450975e-07
1.6425359e-07
1.6399483e-07
1.6373351e-07
1.6346966e-07
1.6320332e-07
1.6293452e-07
1.626633e-07
1.6238969e-07
1.6211374e-07
1.6183547e-07
1.6155494e-07
1.6127218e-07
1.6098724e-07
1.6070015e-07
1.6041096e-07
1.6011971e-07
1.5982644e-07
1.5953121e-07
1.5923406e-07
1.5893503e-07
1.5863416e-07
1.5833151e-07
1.5802712e-07
1.5772103e-07
1.5741329e-07
1.5710396e-07
1.5679306e-07
1.5648066e-07
1.5616679e-07
1.5585151e-07
1.5553485e-07
1.5521687e-07
1.548976e-07
1.545771e-07
1.542554e-07
1.5393257e-07
1.5360864e-07
1.5328369e-07
1.529578e-07
1.526311e-07
1.5230385e-07
1.5197654e-07
1.5165025e-07
1.5132733e-07
1.5101303e-07
1.5071927e-07
1.5047347e-07
1.5033871e-07
1.504613e-07
1.5118446e-07
1.5331573e-07
1.5875747e-07
1.7202623e-07
2.0365919e-07
2.7737552e-07
4.4308377e-07
7.8596642e-07
1.4064044e-06
2.3485266e-06
3.5783926e-06
5.0698637e-06
6.9756929e-06
9.3058089e-06
1.2048987e-05
1.5168855e-05
1.8577194e-05
2.2099246e-05
2.5730508e-05
2.9373692e-05
3.174269e-05
3.4118517e-05
3.6651948e-05
3.9377332e-05
4.2229689e-05
4.525107e-05
4.8554856e-05
5.2041889e-05
5.5657793e-05
5.9325206e-05
6.3880615e-05
1.688495e-07
1.6864722e-07
1.6844195e-07
1.682337e-07
1.6802249e-07
1.6780833e-07
1.6759123e-07
1.6737121e-07
1.6714828e-07
1.6692246e-07
1.6669377e-07
1.6646222e-07
1.6622783e-07
1.6599064e-07
1.6575065e-07
1.655079e-07
1.652624e-07
1.650142e-07
1.6476331e-07
1.6450977e-07
1.642536e-07
1.6399483e-07
1.6373351e-07
1.6346966e-07
1.6320331e-07
1.6293451e-07
1.6266328e-07
1.6238967e-07
1.6211371e-07
1.6183544e-07
1.6155491e-07
1.6127215e-07
1.609872e-07
1.607001e-07
1.6041091e-07
1.6011966e-07
1.598264e-07
1.5953116e-07
1.5923401e-07
1.5893497e-07
1.5863411e-07
1.5833145e-07
1.5802706e-07
1.5772097e-07
1.5741324e-07
1.571039e-07
1.5679301e-07
1.564806e-07
1.5616674e-07
1.5585145e-07
1.5553479e-07
1.5521681e-07
1.5489754e-07
1.5457703e-07
1.5425533e-07
1.5393248e-07
1.5360853e-07
1.5328351e-07
1.5295747e-07
1.5263047e-07
1.5230254e-07
1.5197377e-07
1.5164423e-07
1.5131412e-07
1.5098376e-07
1.5065388e-07
1.5032615e-07
1.5000442e-07
1.4969771e-07
1.4942758e-07
1.4924574e-07
1.4927656e-07
1.4982388e-07
1.5163329e-07
1.5652596e-07
1.6901423e-07
2.0007816e-07
2.7544011e-07
4.5121178e-07
8.2619512e-07
1.5159453e-06
2.5577456e-06
3.9238689e-06
5.6105523e-06
7.7589902e-06
1.0384596e-05
1.3450323e-05
1.6890523e-05
2.0611041e-05
2.4428881e-05
2.8346374e-05
3.2095844e-05
3.4628361e-05
3.7172203e-05
3.9897521e-05
4.2809735e-05
4.5849003e-05
4.9157753e-05
5.2737146e-05
5.6921069e-05
1.6884956e-07
1.6864727e-07
1.68442e-07
1.6823376e-07
1.6802255e-07
1.6780839e-07
1.6759129e-07
1.6737127e-07
1.6714834e-07
1.6692252e-07
1.6669382e-07
1.6646227e-07
1.6622789e-07
1.6599069e-07
1.657507e-07
1.6550794e-07
1.6526244e-07
1.6501424e-07
1.6476334e-07
1.6450979e-07
1.6425362e-07
1.6399485e-07
1.6373352e-07
1.6346967e-07
1.6320331e-07
1.6293451e-07
1.6266327e-07
1.6238966e-07
1.621137e-07
1.6183543e-07
1.6155489e-07
1.6127212e-07
1.6098717e-07
1.6070008e-07
1.6041088e-07
1.6011963e-07
1.5982636e-07
1.5953113e-07
1.5923397e-07
1.5893493e-07
1.5863406e-07
1.5833141e-07
1.5802702e-07
1.5772093e-07
1.5741319e-07
1.5710385e-07
1.5679296e-07
1.5648055e-07
1.5616668e-07
1.558514e-07
1.5553474e-07
1.5521675e-07
1.5489749e-07
1.5457698e-07
1.5425528e-07
1.5393243e-07
1.5360847e-07
1.5328345e-07
1.5295741e-07
1.5263038e-07
1.5230243e-07
1.5197357e-07
1.5164387e-07
1.5131336e-07
1.509821e-07
1.5065017e-07
1.5031769e-07
1.4998494e-07
1.4965246e-07
1.4932158e-07
1.4899547e-07
1.4868185e-07
1.4839986e-07
1.4819745e-07
1.4819437e-07
1.4869499e-07
1.5047705e-07
1.555172e-07
1.6890126e-07
2.0349762e-07
2.90482e-07
4.9875018e-07
9.4821656e-07
1.7666597e-06
2.9725834e-06
4.5236545e-06
6.4863488e-06
8.9602263e-06
1.1957947e-05
1.5409887e-05
1.9214096e-05
2.3261147e-05
2.7390998e-05
3.161576e-05
3.5260562e-05
3.7947806e-05
4.0693694e-05
4.3633162e-05
4.6822448e-05
5.0148232e-05
1.6884962e-07
1.6864734e-07
1.6844207e-07
1.6823383e-07
1.6802262e-07
1.6780847e-07
1.6759137e-07
1.6737135e-07
1.6714842e-07
1.6692259e-07
1.666939e-07
1.6646234e-07
1.6622795e-07
1.6599075e-07
1.6575076e-07
1.65508e-07
1.652625e-07
1.6501428e-07
1.6476339e-07
1.6450983e-07
1.6425365e-07
1.6399488e-07
1.6373355e-07
1.6346969e-07
1.6320333e-07
1.6293452e-07
1.6266328e-07
1.6238966e-07
1.621137e-07
1.6183542e-07
1.6155488e-07
1.6127211e-07
1.6098716e-07
1.6070006e-07
1.6041086e-07
1.601196e-07
1.5982634e-07
1.595311e-07
1.5923394e-07
1.589349e-07
1.5863403e-07
1.5833138e-07
1.5802698e-07
1.5772089e-07
1.5741315e-07
1.5710381e-07
1.5679292e-07
1.5648051e-07
1.5616664e-07
1.5585135e-07
1.555347e-07
1.5521671e-07
1.5489744e-07
1.5457693e-07
1.5425523e-07
1.5393238e-07
1.5360842e-07
1.532834e-07
1.5295736e-07
1.5263033e-07
1.5230237e-07
1.5197351e-07
1.516438e-07
1.5131327e-07
1.5098196e-07
1.5064992e-07
1.5031719e-07
1.4998381e-07
1.4964986e-07
1.4931544e-07
1.4898078e-07
1.4864635e-07
1.4831334e-07
1.479847e-07
1.4766793e-07
1.4738232e-07
1.4717821e-07
1.4718656e-07
1.4775334e-07
1.4979843e-07
1.5575464e-07
1.7211242e-07
2.1587107e-07
3.2924702e-07
6.0415173e-07
1.1886646e-06
2.2037975e-06
3.6343689e-06
5.4460525e-06
7.788314e-06
1.0681383e-05
1.4125896e-05
1.8007307e-05
2.2207781e-05
2.6591936e-05
3.1049299e-05
3.5607693e-05
3.8897168e-05
4.1885443e-05
4.4487802e-05
1.6884969e-07
1.6864741e-07
1.6844215e-07
1.6823391e-07
1.6802271e-07
1.6780855e-07
1.6759145e-07
1.6737143e-07
1.671485e-07
1.6692268e-07
1.6669398e-07
1.6646242e-07
1.6622803e-07
1.6599083e-07
1.6575083e-07
1.6550807e-07
1.6526256e-07
1.6501435e-07
1.6476344e-07
1.6450989e-07
1.642537e-07
1.6399493e-07
1.6373359e-07
1.6346972e-07
1.6320336e-07
1.6293454e-07
1.626633e-07
1.6238968e-07
1.6211371e-07
1.6183543e-07
1.6155488e-07
1.6127211e-07
1.6098715e-07
1.6070005e-07
1.6041085e-07
1.6011959e-07
1.5982632e-07
1.5953108e-07
1.5923392e-07
1.5893488e-07
1.5863401e-07
1.5833135e-07
1.5802695e-07
1.5772086e-07
1.5741312e-07
1.5710378e-07
1.5679288e-07
1.5648048e-07
1.5616661e-07
1.5585132e-07
1.5553466e-07
1.5521667e-07
1.548974e-07
1.5457689e-07
1.5425519e-07
1.5393234e-07
1.5360838e-07
1.5328336e-07
1.5295731e-07
1.5263029e-07
1.5230233e-07
1.5197347e-07
1.5164375e-07
1.5131322e-07
1.5098191e-07
1.5064987e-07
1.5031712e-07
1.4998371e-07
1.4964968e-07
1.4931506e-07
1.4897991e-07
1.4864429e-07
1.4830829e-07
1.4797211e-07
1.4763624e-07
1.4730187e-07
1.4697213e-07
1.4665526e-07
1.4637339e-07
1.4618662e-07
1.4625767e-07
1.4703385e-07
1.4975232e-07
1.5782135e-07
1.8063703e-07
2.4344198e-07
4.0922473e-07
8.0702158e-07
1.6114482e-06
2.8944041e-06
4.6081151e-06
6.8177018e-06
9.6264526e-06
1.3039355e-05
1.6995739e-05
2.1336932e-05
2.5961512e-05
3.0676514e-05
3.5565732e-05
3.9582888e-05
1.6884977e-07
1.6864749e-07
1.6844223e-07
1.68234e-07
1.680228e-07
1.6780864e-07
1.6759155e-07
1.6737153e-07
1.671486e-07
1.6692277e-07
1.6669407e-07
1.6646251e-07
1.6622812e-07
1.6599091e-07
1.6575091e-07
1.6550815e-07
1.6526264e-07
1.6501442e-07
1.6476351e-07
1.6450995e-07
1.6425376e-07
1.6399498e-07
1.6373363e-07
1.6346976e-07
1.632034e-07
1.6293458e-07
1.6266333e-07
1.623897e-07
1.6211373e-07
1.6183544e-07
1.6155489e-07
1.6127212e-07
1.6098716e-07
1.6070005e-07
1.6041085e-07
1.6011959e-07
1.5982631e-07
1.5953107e-07
1.5923391e-07
1.5893486e-07
1.5863399e-07
1.5833133e-07
1.5802693e-07
1.5772084e-07
1.574131e-07
1.5710375e-07
1.5679286e-07
1.5648045e-07
1.5616658e-07
1.5585129e-07
1.5553463e-07
1.5521664e-07
1.5489737e-07
1.5457686e-07
1.5425515e-07
1.539323e-07
1.5360834e-07
1.5328332e-07
1.5295727e-07
1.5263025e-07
1.5230228e-07
1.5197343e-07
1.5164371e-07
1.5131318e-07
1.5098187e-07
1.5064982e-07
1.5031707e-07
1.4998366e-07
1.4964963e-07
1.49315e-07
1.4897983e-07
1.4864413e-07
1.4830796e-07
1.4797136e-07
1.4763438e-07
1.4729713e-07
1.4695981e-07
1.4662295e-07
1.4628794e-07
1.4595852e-07
1.4564505e-07
1.4537644e-07
1.4523443e-07
1.4544984e-07
1.4668239e-07
1.5082408e-07
1.6329967e-07
1.9947947e-07
3.0115869e-07
5.69035e-07
1.1818324e-06
2.303941e-06
3.9319575e-06
6.0377867e-06
8.7798926e-06
1.2168635e-05
1.6194108e-05
2.0677611e-05
2.5592095e-05
3.0575378e-05
1.6884985e-07
1.6864758e-07
1.6844232e-07
1.6823409e-07
1.680229e-07
1.6780874e-07
1.6759165e-07
1.6737163e-07
1.671487e-07
1.6692288e-07