/*--------------------------------*- C++ -*----------------------------------*\
  =========                 |
  \\      /  F ield         | OpenFOAM: The Open Source CFD Toolbox
   \\    /   O peration     | Website:  https://openfoam.org
    \\  /    A nd           | Version:  12
     \\/     M anipulation  |
\*---------------------------------------------------------------------------*/
FoamFile
{
    format      ascii;
    class       volScalarField;
    location    "800";
    object      p;
}
// * * * * * * * * * * * * * * * * * * * * * * * * * * * * * * * * * * * * * //

dimensions      [0 2 -2 0 0 0 0];

internalField   nonuniform List<scalar> 
7480
(
0.0087567366
0.0077092706
0.0065839517
0.0060604743
0.0057237
0.0054645971
0.0052566461
0.0050678122
0.0049060709
0.0047722169
0.0046567469
0.0045391777
0.0044160259
0.0042910371
0.0041664292
0.0040433389
0.0039238747
0.0038160193
0.0037161715
0.0036109968
0.0035038902
0.0034055756
0.0033188571
0.0032430986
0.0031804617
0.00312621
0.0030725926
0.0030241579
0.0029843487
0.0029514748
0.0029239938
0.0029027981
0.0028865539
0.0028674268
0.0028443773
0.0028218775
0.0028010188
0.0027819222
0.0027661654
0.0027461881
0.0027172223
0.0026860553
0.0026569865
0.002629911
0.0026032025
0.0025717367
0.0025348798
0.0024976047
0.0024623319
0.0024284445
0.002390138
0.0023464885
0.0023032124
0.0022646468
0.0022273815
0.0021858091
0.0021421242
0.0021007761
0.0020619816
0.0020210175
0.0019767503
0.0019344375
0.0018944083
0.0018527549
0.0018090001
0.0017676999
0.0017270934
0.0016832815
0.0016392855
0.0015970512
0.0015535583
0.0015075953
0.0014640818
0.0014205966
0.0013733999
0.0013279569
0.0012832144
0.0012347359
0.0011873102
0.0011407407
0.0010909836
0.0010423422
0.00099400317
0.0009423383
0.00089162605
0.00084084729
0.00078821496
0.00073598056
0.00068246308
0.00062910817
0.00057528742
0.00052004766
0.00046613102
0.00041146595
0.00035955811
0.00030525306
0.00027282118
0.0001617851
0.00035927283
-0.00031301222
0.0082432268
0.0073166833
0.0064337794
0.0060159988
0.0057968811
0.0055964488
0.005397188
0.0052025287
0.0050296018
0.0048748349
0.0047346924
0.0045993369
0.0044642437
0.0043313375
0.0042016073
0.0040760461
0.0039571561
0.0038472703
0.0037447359
0.0036396657
0.0035325051
0.0034339324
0.0033468387
0.0032705771
0.0032075395
0.0031526746
0.0030980732
0.0030485313
0.0030074252
0.0029731294
0.0029441919
0.0029215972
0.002904037
0.0028836772
0.0028595303
0.0028358882
0.0028138369
0.0027936824
0.0027770769
0.0027562306
0.0027264159
0.0026945432
0.0026648601
0.0026372584
0.0026100884
0.0025781597
0.0025408913
0.0025033316
0.0024678538
0.0024337572
0.0023952063
0.0023513234
0.0023078572
0.0022691294
0.0022316951
0.0021899524
0.0021461186
0.0021046319
0.0020656958
0.0020245758
0.0019801551
0.0019377059
0.0018975383
0.0018557398
0.0018118459
0.0017704224
0.0017296921
0.0016857576
0.0016416531
0.0015993161
0.0015557186
0.0015096561
0.0014660526
0.001422474
0.0013751874
0.0013296664
0.0012848464
0.0012362925
0.0011887998
0.001142163
0.0010923394
0.0010436382
0.00099524021
0.00094351911
0.00089275624
0.00084192733
0.00078924655
0.00073696654
0.00068340528
0.00063000969
0.00057614964
0.00052087241
0.00046692067
0.000412221
0.00036028424
0.00030594344
0.00027344803
0.00016307179
0.00036230688
-0.00031049333
0.0079380323
0.0072801007
0.0065505781
0.0061123541
0.0058625112
0.005619344
0.0053851375
0.0051724732
0.0049908162
0.0048341266
0.0046945604
0.0045647437
0.004437025
0.004311626
0.0041887173
0.004069472
0.0039567302
0.0038499201
0.0037485057
0.0036466194
0.0035433785
0.0034480443
0.0033637085
0.0032895768
0.0032280727
0.0031734748
0.0031184655
0.0030685235
0.0030269021
0.0029920081
0.0029624889
0.0029395171
0.002920911
0.0028988669
0.0028735769
0.0028490224
0.0028260309
0.002805079
0.0027880236
0.0027666556
0.0027361873
0.0027037609
0.0026735163
0.0026454387
0.0026178735
0.002585486
0.0025475154
0.0025092586
0.0024734168
0.0024390979
0.002400298
0.0023561845
0.0023125563
0.0022737163
0.0022361464
0.0021942312
0.0021502517
0.0021086427
0.0020695826
0.0020283127
0.0019837421
0.0019411737
0.0019008848
0.0018589494
0.0018149226
0.0017733925
0.0017325483
0.0016884895
0.0016442783
0.0016018424
0.0015581389
0.0015119734
0.0014682834
0.0014246104
0.0013772281
0.0013316293
0.001286729
0.0012380928
0.0011905316
0.0011438243
0.0010939278
0.0010451637
0.00099670214
0.00094491814
0.00089410109
0.00084321728
0.00079048263
0.00073815237
0.0006845416
0.00063110072
0.00057719642
0.00052187647
0.00046788515
0.00041314534
0.00036117539
0.00030679268
0.0002742339
0.00016524422
0.00036772639
-0.00030638257
0.0077188443
0.0071989599
0.0065260538
0.0060725627
0.0058137328
0.0055825202
0.0053603743
0.0051642002
0.0049950877
0.0048475975
0.0047108081
0.0045820225
0.0044541991
0.0043273645
0.0042033718
0.0040830989
0.0039682481
0.003858811
0.003755198
0.0036529888
0.0035504745
0.0034553287
0.0033709836
0.0032967025
0.0032337367
0.0031770546
0.003121674
0.0030722563
0.0030312738
0.0029973663
0.0029691239
0.0029477004
0.0029298176
0.0029076982
0.00288268
0.0028585523
0.0028358609
0.0028143717
0.002796516
0.002774592
0.0027435533
0.0027108228
0.0026803003
0.0026520408
0.0026244128
0.0025917823
0.0025532071
0.0025143631
0.0024783013
0.0024439376
0.0024049999
0.0023607038
0.0023169516
0.0022780553
0.0022403326
0.0021980876
0.0021538569
0.0021121523
0.0020730319
0.0020316624
0.00198698
0.0019443415
0.0019039791
0.0018619431
0.0018178096
0.0017761958
0.00173525
0.0016910772
0.0016467723
0.0016042537
0.001560455
0.001514194
0.0014704321
0.0014266764
0.0013792045
0.0013335377
0.0012885633
0.0012398468
0.0011922231
0.0011454504
0.0010954831
0.0010466616
0.00099814018
0.00094629436
0.00089542639
0.00084449004
0.00079170309
0.00073932467
0.00068566534
0.00063218093
0.00057823359
0.00052287159
0.00046884165
0.00041406204
0.00036205818
0.00030763799
0.00027502039
0.00016802395
0.00037470648
-0.00030151055
0.0075124653
0.0070806375
0.006486741
0.0060629466
0.0058126407
0.0055965588
0.0053787562
0.0051830023
0.0050111217
0.0048586415
0.0047168242
0.004583864
0.0044538878
0.0043259557
0.004202672
0.004083862
0.0039698567
0.0038612252
0.0037583947
0.003657799
0.0035573728
0.0034633106
0.0033792914
0.0033049009
0.0032406389
0.0031828615
0.0031278384
0.0030786462
0.0030372156
0.0030027031
0.0029737959
0.0029511428
0.0029312974
0.0029082921
0.0028834088
0.0028598686
0.0028380695
0.0028172194
0.0028000344
0.0027790304
0.0027485561
0.0027164873
0.0026860568
0.0026572342
0.0026292668
0.002596385
0.0025575276
0.0025186366
0.0024826728
0.0024484423
0.0024094623
0.0023649553
0.0023210373
0.0022821061
0.0022442855
0.0022017403
0.0021572769
0.0021154931
0.0020763383
0.0020348941
0.0019901195
0.0019474491
0.0019070538
0.0018649404
0.0018206999
0.0017789466
0.0017378516
0.0016935801
0.0016492095
0.0016066368
0.0015627644
0.0015164245
0.0014726123
0.0014287836
0.0013812187
0.0013354893
0.0012904454
0.0012416483
0.0011939657
0.0011471301
0.0010970924
0.0010482172
0.00099963704
0.00094772709
0.00089680787
0.00084581797
0.00079297748
0.00074055066
0.00068684141
0.00063331251
0.00057932063
0.00052391466
0.00046984462
0.00041502347
0.00036298278
0.00030852835
0.00027583652
0.00017121029
0.0003825504
-0.00029614829
0.0073214582
0.0069622568
0.0064504928
0.0060567429
0.0058051797
0.0055900088
0.005373311
0.0051772768
0.0050058341
0.0048536935
0.0047135098
0.0045820864
0.0044541769
0.0043286388
0.0042073639
0.0040900529
0.0039770137
0.0038690474
0.0037663707
0.0036661426
0.0035666502
0.0034730036
0.0033889261
0.0033142897
0.0032492717
0.0031909442
0.0031359949
0.0030865729
0.0030444422
0.0030090676
0.0029792465
0.0029552432
0.0029338159
0.0029103996
0.002885514
0.0028617498
0.002839544
0.0028183376
0.0028001156
0.0027784592
0.0027482514
0.0027167925
0.0026868582
0.0026584983
0.0026314152
0.0025994129
0.0025611386
0.0025228153
0.002486682
0.0024519569
0.0024127974
0.002368156
0.0023242593
0.0022855108
0.0022477985
0.0022052101
0.0021606472
0.0021187623
0.0020795713
0.0020380841
0.0019932241
0.0019505122
0.001910065
0.0018678586
0.0018235094
0.0017816307
0.0017404129
0.0016960576
0.0016516347
0.001609028
0.0015651048
0.0015187059
0.001474866
0.0014309392
0.0013832352
0.0013374466
0.0012923513
0.0012434862
0.0011957596
0.001148874
0.0010987698
0.0010498411
0.0010012034
0.00094922895
0.00089826018
0.00084721741
0.00079432395
0.00074184996
0.00068808989
0.0006345154
0.00058047723
0.00052502534
0.00047091406
0.0004160499
0.00036396921
0.00030948343
0.00027669183
0.00017469101
0.00039073973
-0.00029027565
0.0071468219
0.0068460367
0.0064057722
0.0060404491
0.0057896497
0.0055783255
0.0053693988
0.0051777605
0.005009314
0.0048583546
0.0047190252
0.0045872605
0.0044595997
0.0043344978
0.0042133115
0.0040960269
0.0039831244
0.0038752506
0.003772423
0.0036724599
0.0035739985
0.0034811078
0.003397305
0.0033226956
0.0032571921
0.0031983873
0.003143363
0.0030936474
0.0030509707
0.0030149999
0.0029845742
0.0029596322
0.0029373622
0.0029137276
0.0028887157
0.0028645572
0.002841865
0.0028201371
0.0028007196
0.0027784232
0.0027485149
0.0027171237
0.0026870543
0.0026585613
0.0026310806
0.0025989551
0.0025610807
0.0025234344
0.0024876918
0.0024533914
0.0024149297
0.0023708524
0.0023275385
0.0022888736
0.0022506602
0.0022077391
0.0021631302
0.0021213446
0.0020823433
0.002040937
0.001996061
0.0019533051
0.0019127837
0.0018705135
0.0018261234
0.0017842299
0.0017429554
0.0016985011
0.0016540245
0.001611389
0.0015674185
0.0015209556
0.001477089
0.0014330631
0.0013852291
0.0013394016
0.0012942686
0.0012453445
0.0011975905
0.0011506719
0.0011004841
0.0010514738
0.0010027788
0.00095075066
0.00089974475
0.00084865909
0.00079571768
0.00074319655
0.00068938548
0.00063576703
0.00058168348
0.00052618618
0.0004720349
0.00041712775
0.0003650046
0.0003104913
0.00027757429
0.00017839821
0.00039887834
-0.00028382174
0.0069868141
0.0067320896
0.0063532714
0.0060180577
0.0057727744
0.0055666167
0.0053651622
0.0051770932
0.0050097413
0.0048590377
0.0047195954
0.0045873748
0.004460111
0.0043361456
0.0042159155
0.0040995828
0.003987662
0.003880569
0.0037782251
0.0036789843
0.0035817663
0.0034897863
0.0034063127
0.0033316954
0.0032657072
0.0032063704
0.0031511753
0.0031011901
0.0030580163
0.0030214322
0.0029903223
0.0029643897
0.0029411884
0.0029170613
0.0028917129
0.0028671458
0.0028440702
0.0028219915
0.0028018424
0.0027792074
0.0027496496
0.0027183302
0.0026881116
0.0026592609
0.002631107
0.0025987176
0.0025610513
0.002523473
0.0024876602
0.0024530738
0.0024146106
0.0023710449
0.0023285116
0.0022903372
0.002252289
0.0022095788
0.0021653968
0.0021241117
0.0020850864
0.0020431155
0.0019980175
0.001955334
0.0019149561
0.0018728006
0.0018284545
0.0017866086
0.001745266
0.0017007365
0.0016562836
0.0016136546
0.0015696159
0.0015230622
0.0014791783
0.001435105
0.0013872051
0.0013413576
0.001296181
0.0012471921
0.0011994169
0.0011524685
0.0011021913
0.0010531062
0.0010043655
0.00095229224
0.00090125941
0.00085014165
0.00079714302
0.00074455353
0.00069068888
0.00063703639
0.00058291638
0.00052737957
0.00047318972
0.00041823826
0.00036607205
0.00031153703
0.00027847268
0.00018228333
0.00040663545
-0.00027673332
0.0068396949
0.0066215496
0.0062954607
0.0059907435
0.0057536815
0.0055524229
0.0053576414
0.0051736595
0.0050081909
0.0048587298
0.0047201423
0.0045887383
0.0044623361
0.0043396154
0.0042203418
0.0041049039
0.0039937508
0.0038871743
0.0037850991
0.0036863105
0.0035899856
0.0034986864
0.003415401
0.0033406749
0.0032742076
0.0032143487
0.0031589497
0.0031087036
0.0030650296
0.0030278016
0.0029959782
0.0029690898
0.0029449748
0.0029203412
0.0028947109
0.0028698209
0.0028463934
0.0028239535
0.0028030891
0.0027800151
0.0027506749
0.002719381
0.0026890599
0.0026599918
0.002631452
0.0025990573
0.0025617194
0.0025242052
0.0024882333
0.0024531779
0.0024145591
0.0023712485
0.0023288865
0.0022904166
0.0022520679
0.0022095353
0.0021659781
0.0021254993
0.0020867864
0.0020446144
0.0019997044
0.0019574312
0.0019173305
0.001874849
0.0018300683
0.0017882616
0.0017470204
0.0017026014
0.0016582658
0.0016157022
0.0015715854
0.001524969
0.0014811498
0.0014370711
0.0013890947
0.0013432234
0.0012980193
0.0012489726
0.0012011791
0.0011541936
0.0011038495
0.0010547405
0.0010059714
0.00095384657
0.00090278445
0.00085163608
0.00079857858
0.00074592251
0.00069200965
0.00063833158
0.00058418302
0.00052860694
0.00047436213
0.00041935598
0.000367152
0.00031260775
0.00027938038
0.00018630337
0.00041370307
-0.00026897131
0.006703718
0.0065150106
0.006233799
0.0059585382
0.0057316528
0.0055357335
0.0053476657
0.0051686907
0.005005845
0.0048579223
0.0047203269
0.0045896594
0.0044639735
0.0043420853
0.0042236625
0.0041090759
0.0039986808
0.0038926984
0.0037910593
0.0036928629
0.0035974994
0.0035070144
0.0034240815
0.0033493804
0.0032825892
0.0032223167
0.0031667353
0.0031162552
0.0030721082
0.003034254
0.0030017324
0.0029739378
0.0029489382
0.0029237852
0.0028978588
0.0028726241
0.0028487987
0.0028259505
0.0028043858
0.0027808588
0.0027516985
0.0027204629
0.002690061
0.0026607895
0.0026318754
0.0025994418
0.0025623712
0.0025249032
0.002488817
0.0024535077
0.0024149689
0.0023719994
0.0023297328
0.0022909249
0.0022522512
0.0022098056
0.0021664378
0.0021258944
0.002086731
0.0020444493
0.0020001047
0.0019585902
0.001919058
0.001876374
0.0018314543
0.0017899474
0.0017490043
0.0017043644
0.0016596343
0.0016170885
0.0015730547
0.0015265588
0.001482891
0.0014388413
0.001390773
0.0013449274
0.0012997682
0.0012506774
0.0012028549
0.0011558364
0.0011054469
0.0010563343
0.0010075388
0.00095535805
0.00090427146
0.00085309439
0.00079999377
0.00074730299
0.00069335445
0.00063964956
0.00058546898
0.0005298511
0.0004755504
0.00042049309
0.00036825391
0.00031371317
0.00028030027
0.00019040884
0.00041976303
-0.00026049546
0.0065774407
0.0064127462
0.0061695069
0.0059219279
0.0057067558
0.0055169347
0.0053355843
0.005162036
0.0050021965
0.0048559713
0.0047195405
0.0045898109
0.0044650362
0.0043441673
0.0042268359
0.0041132807
0.0040037834
0.0038985245
0.0037974441
0.003699886
0.0036054276
0.00351572
0.0034331256
0.0033584174
0.0032913003
0.0032305979
0.0031747663
0.0031240085
0.00307937
0.0030408712
0.0030076289
0.0029789366
0.0029530524
0.0029273424
0.0029010814
0.0028754813
0.0028512421
0.0028279749
0.0028057544
0.0027817859
0.0027527656
0.0027215931
0.0026910969
0.0026616078
0.0026323274
0.0025998329
0.0025630019
0.002525591
0.0024894111
0.0024538819
0.0024153838
0.0023727316
0.0023305578
0.002291548
0.0022527712
0.0022105261
0.0021672796
0.0021265555
0.0020869978
0.0020447101
0.0020005958
0.0019590597
0.0019191763
0.001876248
0.0018318098
0.0017910317
0.0017506095
0.0017057885
0.0016608552
0.001618517
0.0015747023
0.0015280494
0.0014841035
0.0014400491
0.0013920323
0.0013463701
0.0013013062
0.0012521852
0.0012043601
0.0011573753
0.0011069788
0.0010578542
0.0010090267
0.00095680751
0.00090571389
0.00085450796
0.00080136793
0.00074865796
0.00069468267
0.00064095031
0.00058673478
0.00053108125
0.00047674888
0.00042165703
0.00036937739
0.00031484395
0.00028122178
0.00019455244
0.0004245218
-0.00025124198
0.0064596752
0.0063147997
0.0061035998
0.0058815247
0.0056790593
0.0054960761
0.0053213987
0.0051535127
0.0049971121
0.0048529164
0.0047179466
0.0045894185
0.0044657429
0.0043459949
0.0042297913
0.0041172622
0.0040086494
0.0039041152
0.0038036182
0.0037066964
0.0036130859
0.0035241338
0.003441905
0.0033672238
0.0032998461
0.0032387726
0.0031827012
0.0031316849
0.0030865883
0.0030474695
0.0030135206
0.0029839679
0.0029572286
0.0029309526
0.0029043434
0.0028783804
0.0028537279
0.0028300354
0.0028071931
0.002782784
0.0027538539
0.0027227385
0.0026921402
0.0026624337
0.002632812
0.002600251
0.0025636442
0.0025263017
0.0024900322
0.0024542891
0.0024158131
0.0023734573
0.0023313817
0.002292199
0.0022533064
0.0022112244
0.0021680948
0.0021272455
0.0020875455
0.0020453913
0.0020014205
0.0019597169
0.0019194797
0.001876512
0.0018323143
0.0017914414
0.0017506596
0.0017057556
0.0016613216
0.0016196522
0.0015761552
0.001529351
0.0014852563
0.0014413165
0.00139339
0.0013476275
0.0013023429
0.0012532315
0.0012055647
0.0011587071
0.0011083241
0.0010591994
0.0010103877
0.00095818479
0.00090709451
0.00085585212
0.00080268875
0.00074997394
0.00069597116
0.00064221362
0.00058797116
0.00053228942
0.00047793351
0.00042281277
0.00037049222
0.00031596863
0.00028212184
0.00019867806
0.00042765728
-0.00024123008
0.0063494104
0.0062210646
0.0060368824
0.0058379491
0.0056486679
0.0054731895
0.005305204
0.0051431506
0.0049906042
0.0048487787
0.0047155169
0.0045883862
0.0044659473
0.0043473966
0.0042323671
0.0041209178
0.0040132555
0.0039095261
0.0038097077
0.0037134881
0.0036207311
0.0035325487
0.0034507311
0.0033761198
0.0033085353
0.0032471304
0.0031908101
0.0031395245
0.0030939723
0.0030542311
0.0030195669
0.002989167
0.0029615822
0.0029347156
0.0029077278
0.0028813866
0.0028563051
0.0028321682
0.0028087242
0.0027838721
0.0027549855
0.0027239203
0.0026932165
0.0026632933
0.002633349
0.0026007102
0.0025643037
0.0025270297
0.0024906693
0.0024547235
0.0024162651
0.0023741921
0.0023322232
0.0022928795
0.0022538639
0.0022119288
0.0021689171
0.0021279638
0.0020881295
0.0020460541
0.0020022116
0.001960397
0.0019200142
0.0018771795
0.0018330976
0.001791959
0.0017508663
0.001706042
0.0016617577
0.0016199649
0.0015761659
0.0015295208
0.0014859805
0.0014424743
0.0013946863
0.0013487971
0.0013033696
0.0012543537
0.0012067465
0.0011597147
0.0011092323
0.0010602252
0.0010115464
0.0009593848
0.00090830773
0.00085706979
0.0008039428
0.00075123362
0.0006971905
0.00064342677
0.00058917548
0.00053346568
0.00047908601
0.00042394203
0.00037158516
0.00031707754
0.00028298728
0.00020271943
0.00042881178
-0.00023060982
0.0062457797
0.0061313536
0.0059699767
0.0057918025
0.0056157571
0.0054483314
0.0052871066
0.0051309862
0.004982631
0.0048434957
0.0047121775
0.0045866409
0.0044655986
0.0043483559
0.0042345804
0.004124284
0.0040176374
0.0039147749
0.0038156984
0.003720215
0.0036282918
0.0035408626
0.0034594727
0.0033849548
0.0033172001
0.0032554951
0.0031989208
0.00314736
0.0031013625
0.0030610096
0.0030256365
0.0029944136
0.0029660049
0.0029385377
0.0029111525
0.002884427
0.002858912
0.0028343237
0.0028103043
0.0027850168
0.0027561364
0.0027251154
0.0026943056
0.002664167
0.0026339175
0.0026011924
0.0025649652
0.0025277626
0.0024913159
0.0024551832
0.0024167393
0.002374932
0.0023330729
0.0022935792
0.0022544432
0.0022126459
0.0021697544
0.0021287064
0.0020887327
0.0020467198
0.0020030084
0.0019611055
0.0019205868
0.0018778428
0.0018338475
0.0017925139
0.0017513308
0.0017066886
0.0016623944
0.0016203341
0.0015763485
0.001529876
0.0014863095
0.0014425727
0.0013948416
0.0013492859
0.0013042744
0.0012554877
0.0012079053
0.0011606913
0.0011101642
0.0010612966
0.0010125229
0.00096019577
0.00090920578
0.00085809819
0.00080503509
0.00075233586
0.00069828657
0.00064457544
0.000590328
0.00053458204
0.00048019404
0.00042503746
0.00037264333
0.00031816108
0.00028380748
0.00020662036
0.00042775511
-0.00021953026
0.0061480395
0.006045439
0.00590335
0.0057436427
0.0055805535
0.0054215718
0.0052671963
0.0051170609
0.004973164
0.0048370273
0.0047078944
0.0045841502
0.004464666
0.0043488452
0.0042364009
0.0041273209
0.0040217469
0.0039198088
0.0038215358
0.0037268302
0.0036357409
0.0035490653
0.0034681339
0.0033937506
0.0033258753
0.0032639135
0.0032070951
0.0031552615
0.0031088326
0.0030678817
0.0030318074
0.0029997814
0.002970566
0.0029424864
0.0029146812
0.0028875595
0.0028616023
0.002836552
0.0028119749
0.0027862547
0.0027573412
0.0027263505
0.0026954307
0.0026650755
0.0026345348
0.0026017153
0.0025656457
0.0025285147
0.0024919854
0.002455678
0.0024172426
0.0023756825
0.002333935
0.002294304
0.0022550511
0.0022133797
0.0021706059
0.0021294698
0.0020893596
0.0020474049
0.002003824
0.0019618407
0.0019211804
0.0018785071
0.0018345997
0.0017931023
0.0017518286
0.0017073323
0.0016630166
0.0016207781
0.0015768293
0.0015305061
0.0014867327
0.0014427721
0.0013951382
0.0013495608
0.0013044195
0.0012556489
0.001208339
0.0011614517
0.0011111302
0.0010624047
0.001013463
0.00096100102
0.00091016969
0.00085901254
0.00080578097
0.00075314287
0.00069920779
0.0006455739
0.00059133468
0.00053558901
0.00048124188
0.00042607863
0.00037364367
0.00031920765
0.00028456936
0.00021032167
0.00042445276
-0.00020809144
0.0060555495
0.005963076
0.0058373442
0.0056939687
0.0055433159
0.0053929996
0.0052455574
0.005101431
0.0049621984
0.0048293449
0.004702635
0.0045808732
0.0044631031
0.0043488193
0.0042377885
0.0041299937
0.0040255571
0.0039246081
0.0038272035
0.0037333211
0.0036430734
0.0035571532
0.0034767059
0.003402494
0.0033345402
0.0032723573
0.003215302
0.003163194
0.0031163425
0.0030748046
0.0030380361
0.0030052247
0.0029752196
0.0029465191
0.0029182736
0.0028907452
0.0028643397
0.0028388206
0.0028137031
0.0027875558
0.002758576
0.0027276022
0.0026965716
0.0026660017
0.0026351845
0.0026022655
0.0025663337
0.002529274
0.0024926673
0.0024561976
0.002417767
0.0023764374
0.0023348042
0.0022950494
0.0022556834
0.0022141261
0.0021714677
0.002130252
0.002090011
0.002048108
0.0020046515
0.0019625938
0.0019217946
0.001879186
0.0018353697
0.0017937188
0.001752342
0.0017079717
0.0016636445
0.0016212548
0.0015773363
0.0015311303
0.0014871897
0.0014431632
0.0013956852
0.001349977
0.0013046506
0.0012559149
0.0012085792
0.0011615904
0.0011113149
0.0010628503
0.0010141339
0.00096185608
0.0009112031
0.00085988371
0.00080650868
0.00075400908
0.00070003177
0.0006462626
0.00059207951
0.00053643865
0.00048214909
0.00042698755
0.00037454985
0.00032019735
0.00028524731
0.00021376211
0.00041903965
-0.00019636635
0.0059677564
0.0058840179
0.0057722023
0.0056432149
0.0055043184
0.005362725
0.0052222743
0.0050841618
0.0049497446
0.0048204255
0.0046963667
0.004576771
0.0044608673
0.0043482398
0.0042387114
0.0041322753
0.0040290437
0.0039291488
0.0038326742
0.0037396591
0.0036502648
0.0035651042
0.003485166
0.0034111636
0.0033431747
0.0032808088
0.0032235308
0.0031711527
0.0031238914
0.0030817825
0.0030443324
0.0030107556
0.0029799795
0.0029506539
0.0029219504
0.0028940048
0.0028671457
0.0028411522
0.0028155086
0.0027889392
0.002759862
0.0027288887
0.002697745
0.0026669614
0.0026358796
0.0026028555
0.0025670411
0.0025300505
0.0024933709
0.0024567499
0.0024183204
0.0023772044
0.0023356861
0.0022958198
0.0022563443
0.0022148893
0.0021723434
0.0021310565
0.0020906897
0.0020488305
0.002005492
0.0019633676
0.0019224345
0.0018798827
0.0018361536
0.0017943564
0.0017528733
0.0017086228
0.0016642943
0.0016217576
0.0015778508
0.0015317495
0.0014876652
0.0014435773
0.0013962459
0.0013504222
0.0013050087
0.00125639
0.0012089602
0.0011618231
0.0011115828
0.0010630533
0.0010142276
0.00096207554
0.00091168888
0.00086050267
0.00080730715
0.00075495707
0.00070080994
0.00064693525
0.00059286093
0.00053717675
0.00048278108
0.00042767808
0.00037531345
0.0003210527
0.00028578466
0.00021689562
0.00041171469
-0.00018440646
0.0058841807
0.0058080252
0.0057080911
0.0055917509
0.0054638363
0.0053308776
0.0051974342
0.0050653236
0.0049358263
0.0048102552
0.0046890621
0.0045718098
0.004457921
0.0043470697
0.0042391361
0.0041341349
0.0040321775
0.0039334021
0.0038379185
0.0037458159
0.0036572934
0.003572902
0.003493499
0.0034197456
0.0033517652
0.0032892544
0.0032317711
0.0031791291
0.0031314704
0.0030888064
0.0030506882
0.0030163644
0.0029848346
0.0029548804
0.0029257021
0.0028973279
0.0028700099
0.0028435373
0.0028173797
0.0027903931
0.0027611904
0.0027302003
0.0026989413
0.0026679457
0.0026366105
0.0026034772
0.0025677616
0.0025308371
0.0024940899
0.0024573289
0.0024188974
0.0023779792
0.002336576
0.0022966109
0.0022570302
0.0022156669
0.0021732305
0.0021318807
0.0020913932
0.0020495709
0.0020063446
0.0019641614
0.0019230991
0.0018805951
0.0018369489
0.0017950151
0.001753426
0.0017092865
0.0016649603
0.0016222791
0.001578377
0.0015323804
0.001488165
0.0014440068
0.0013968052
0.001350876
0.0013053829
0.0012568881
0.0012093748
0.0011621636
0.0011120201
0.0010633717
0.001014427
0.00096232748
0.0009118732
0.00086059357
0.00080758106
0.00075547512
0.00070139907
0.00064769798
0.00059370968
0.0005378724
0.00048340785
0.00042836943
0.00037592867
0.00032167145
0.00028613408
0.00021969276
0.00040261045
-0.00017220102
0.0058044055
0.0057348712
0.0056451197
0.0055398853
0.0054221359
0.0052976022
0.0051711295
0.0050449906
0.0049204785
0.0047988303
0.0046806996
0.0045659597
0.0044542285
0.0043452725
0.0042390288
0.0041355412
0.0040349289
0.0039373398
0.0038429083
0.0037517647
0.0036641373
0.0035805285
0.0035016871
0.0034282221
0.0033602936
0.0032976759
0.0032400075
0.0031871109
0.0031390684
0.0030958671
0.0030570967
0.0030220455
0.00298978
0.0029591971
0.0029295299
0.002900717
0.002872936
0.0028459815
0.0028193205
0.0027919219
0.0027625688
0.0027315437
0.0027001667
0.0026689613
0.0026373826
0.0026041366
0.0025685017
0.0025316392
0.0024948295
0.0024579384
0.0024195025
0.0023787665
0.0023374774
0.0022974255
0.0022577442
0.0022164622
0.0021741315
0.0021327264
0.0020921236
0.0020503313
0.0020072112
0.0019649763
0.0019237894
0.0018813247
0.0018377575
0.0017956969
0.0017540013
0.0017099626
0.0016656416
0.0016228214
0.0015789191
0.0015330233
0.0014886842
0.0014444509
0.0013973723
0.0013513493
0.0013057745
0.001257389
0.0012097949
0.0011625149
0.0011124811
0.0010637339
0.0010147375
0.00096272247
0.00091214506
0.00086078921
0.0008077962
0.00075562186
0.00070152219
0.00064804933
0.00059422981
0.00053846653
0.00048412536
0.00042908894
0.00037650473
0.0003223108
0.00028642009
0.00022213211
0.00039184213
-0.00015962492
0.0057280679
0.0056643447
0.005583354
0.0054878719
0.0053794662
0.0052630536
0.0051434588
0.0050232407
0.0049037458
0.0047861572
0.0046712636
0.004559195
0.004449758
0.0043428139
0.0042383562
0.0041364632
0.0040372686
0.0039409331
0.0038476144
0.0037574773
0.0036707722
0.0035879638
0.0035097114
0.0034365745
0.0033687415
0.0033060556
0.0032482254
0.0031950868
0.0031466757
0.0031029563
0.0030635518
0.0030277931
0.0029948101
0.0029636002
0.0029334319
0.0029041703
0.0028759224
0.002848484
0.0028213286
0.0027935225
0.0027639965
0.0027329174
0.0027014191
0.0026700063
0.0026381928
0.002604831
0.0025692597
0.0025324543
0.0024955871
0.0024585759
0.0024201333
0.0023795646
0.0023383882
0.0022982612
0.0022584843
0.0022172739
0.0021750448
0.0021335921
0.0020928797
0.0020511112
0.002008091
0.0019658112
0.0019245047
0.0018820713
0.0018385789
0.0017964009
0.0017545988
0.0017106509
0.0016663383
0.0016233853
0.0015794773
0.0015336765
0.0014892217
0.0014449113
0.0013979487
0.00135184
0.0013061808
0.0012578969
0.0012102307
0.0011628819
0.0011129466
0.0010641024
0.0010150556
0.00096313956
0.00091247213
0.00086109704
0.00080812659
0.00075584491
0.00070172519
0.00064821311
0.00059431581
0.00053867318
0.00048454239
0.00042958749
0.00037705752
0.00032301605
0.00028665528
0.00022435786
0.00038001158
-0.00014660274
0.0056548506
0.005596251
0.0055228279
0.0054359163
0.005336055
0.005227391
0.005114527
0.0050001549
0.00488568
0.004772252
0.0046607455
0.0045514949
0.0044444811
0.0043396617
0.0042370864
0.0041368699
0.0040391665
0.0039441524
0.0038520074
0.0037629251
0.0036771734
0.0035951869
0.0035175524
0.0034447837
0.00337709
0.0033143751
0.0032564091
0.0032030438
0.0031542809
0.0031100641
0.0030700454
0.0030336
0.0029999178
0.0029680846
0.0029374055
0.0029076862
0.0028789682
0.0028510452
0.0028234036
0.0027951943
0.0027654756
0.0027343236
0.0027027
0.0026710824
0.0026390421
0.0026055621
0.0025700383
0.0025332844
0.0024963646
0.0024592424
0.0024207914
0.0023803759
0.0023393099
0.0022991188
0.0022592519
0.0022181038
0.0021759717
0.0021344786
0.0020936626
0.002051912
0.0020089853
0.0019666668
0.001925246
0.0018828362
0.001839414
0.0017971276
0.0017552194
0.0017113524
0.001667051
0.0016239712
0.0015800518
0.0015343406
0.0014897786
0.0014453892
0.0013985344
0.0013523474
0.0013066024
0.0012584137
0.0012106821
0.0011632628
0.001113419
0.001064485
0.0010153866
0.00096356188
0.00091280536
0.00086142024
0.00080848182
0.00075612861
0.00070203708
0.00064845743
0.00059448631
0.00053885512
0.00048466015
0.00042969119
0.00037731529
0.00032346778
0.0002867347
0.00022638632
0.00036788931
-0.00013363613
0.0055844759
0.0055304119
0.005463552
0.0053841831
0.005292106
0.0051907734
0.0050844445
0.0049758174
0.0048663394
0.0047571394
0.0046491439
0.0045428433
0.0044383733
0.0043357868
0.0042351884
0.0041367309
0.0040405927
0.0039469678
0.0038560573
0.0037680792
0.0036833151
0.0036021759
0.0035251897
0.0034528294
0.0033853193
0.0033226151
0.0032645416
0.0032109683
0.0031618721
0.0031171799
0.0030765689
0.0030394585
0.003005096
0.0029726455
0.0029414481
0.002911263
0.0028820725
0.002853665
0.0028255444
0.0027969358
0.0027670068
0.0027357633
0.0027040099
0.00267219
0.00263993
0.0026063295
0.0025708383
0.0025341295
0.0024971616
0.0024599372
0.0024214763
0.0023812005
0.002340242
0.0022999974
0.002260046
0.0022189517
0.002176912
0.0021353853
0.0020944716
0.0020527334
0.0020098938
0.0019675426
0.0019260129
0.0018836196
0.0018402627
0.0017978766
0.0017558633
0.0017120676
0.0016677795
0.001624579
0.0015806432
0.0015350158
0.0014903548
0.0014458851
0.0013991294
0.0013528714
0.0013070404
0.0012589397
0.0012111485
0.0011636576
0.0011138995
0.0010648821
0.0010157298
0.00096399128
0.00091315163
0.00086175262
0.00080884048
0.00075641778
0.00070237119
0.00064874154
0.00059473462
0.00053912933
0.00048484067
0.00042984014
0.00037739149
0.00032356184
0.00028647583
0.0002279997
0.00035596021
-0.00012151006
0.0055166999
0.0054666654
0.0054055206
0.0053328023
0.0052477987
0.0051533551
0.005053325
0.0049503158
0.0048457869
0.0047408521
0.004636465
0.0045332298
0.0044314146
0.0043311627
0.0042326333
0.0041360166
0.0040415174
0.0039493495
0.0038597341
0.0037729105
0.0036891709
0.0036089079
0.003532602
0.0034606908
0.0033934087
0.0033307559
0.0032726053
0.0032188455
0.0031694367
0.0031242926
0.0030831129
0.0030453602
0.0030103371
0.0029772767
0.002945556
0.0029148985
0.0028852335
0.0028563427
0.0028277498
0.0027987454
0.0027685906
0.0027372374
0.002705349
0.0026733295