/*--------------------------------*- C++ -*----------------------------------*\
  =========                 |
  \\      /  F ield         | OpenFOAM: The Open Source CFD Toolbox
   \\    /   O peration     | Website:  https://openfoam.org
    \\  /    A nd           | Version:  12
     \\/     M anipulation  |
\*---------------------------------------------------------------------------*/
FoamFile
{
    format      ascii;
    class       surfaceScalarField;
    location    "800";
    object      phi;
}
// * * * * * * * * * * * * * * * * * * * * * * * * * * * * * * * * * * * * * //

dimensions      [0 3 -1 0 0 0 0];

internalField   nonuniform List<scalar> 
14782
(
0.00078251307
8.8482857e-06
-0.00079136136
0.0007719508
1.0562274e-05
0.00076080022
1.1150579e-05
0.00074960864
1.1191582e-05
0.00073862473
1.0983911e-05
0.00072803026
1.0594471e-05
0.00071785512
1.017514e-05
0.00070804021
9.8149073e-06
0.0006985188
9.5214078e-06
0.00068917347
9.3453337e-06
0.0006798931
9.2803669e-06
0.00067062157
9.2715326e-06
0.00066134778
9.2737867e-06
0.00065208481
9.2629731e-06
0.00064285911
9.2256939e-06
0.00063371727
9.1418425e-06
0.00062474368
8.9735879e-06
0.00061595646
8.7872231e-06
0.00060738107
8.5753929e-06
0.00059910634
8.2747281e-06
0.0005911792
7.9271432e-06
0.00058364854
7.5306597e-06
0.00057655656
7.0919718e-06
0.00056993622
6.6203439e-06
0.00056382371
6.1125144e-06
0.00055824238
5.5813216e-06
0.00055318487
5.0575136e-06
0.00054863704
4.5478277e-06
0.00054457587
4.0611687e-06
0.00054096744
3.6084369e-06
0.00053777134
3.1961019e-06
0.00053495181
2.8195261e-06
0.00053247977
2.4720362e-06
0.00053031188
2.1678907e-06
0.00052839883
1.9130561e-06
0.00052669331
1.7055153e-06
0.00052514746
1.5458551e-06
0.00052372092
1.4265325e-06
0.00052239338
1.3275392e-06
0.00052113907
1.2543121e-06
0.00051992429
1.2147816e-06
0.0005187261
1.1981933e-06
0.0005175266
1.1995023e-06
0.00051631308
1.2135197e-06
0.00051508105
1.2320212e-06
0.00051382222
1.2588315e-06
0.00051252197
1.3002535e-06
0.00051116669
1.3552781e-06
0.00050974921
1.4174847e-06
0.00050827439
1.4748144e-06
0.00050674469
1.5297052e-06
0.00050516079
1.5838949e-06
0.0005035292
1.6315904e-06
0.00050186543
1.6637719e-06
0.00050018476
1.680672e-06
0.00049849229
1.6924631e-06
0.00049679034
1.7019565e-06
0.00049508322
1.7071174e-06
0.00049337852
1.7047052e-06
0.00049167852
1.6999924e-06
0.00048998133
1.6971968e-06
0.00048829277
1.6885529e-06
0.00048662035
1.6724281e-06
0.00048496583
1.6545176e-06
0.000483327
1.6388257e-06
0.00048170867
1.6183321e-06
0.00048011255
1.5961214e-06
0.00047853207
1.580482e-06
0.00047696501
1.5670536e-06
0.00047541419
1.5508193e-06
0.00047387951
1.5346859e-06
0.00047235715
1.5223601e-06
0.00047085292
1.5042293e-06
0.00046936928
1.4836399e-06
0.00046789944
1.4698428e-06
0.00046644539
1.4540488e-06
0.00046500838
1.437011e-06
0.00046358198
1.4263983e-06
0.00046216899
1.4129898e-06
0.00046077292
1.396065e-06
0.00045938943
1.3834953e-06
0.00045802099
1.3684426e-06
0.0004566685
1.3524827e-06
0.00045532622
1.3422835e-06
0.00045399629
1.3299337e-06
0.0004526797
1.3165833e-06
0.00045137502
1.3046822e-06
0.000450084
1.2910172e-06
0.00044880396
1.2800438e-06
0.00044753531
1.2686473e-06
0.00044627801
1.2573015e-06
0.00044503027
1.247743e-06
0.00044379391
1.2363611e-06
0.0004425662
1.2277105e-06
0.00044134591
1.220281e-06
0.0004401312
1.2147159e-06
0.00043894639
1.1848105e-06
0.00043762337
1.3230205e-06
0.00043659525
1.0281144e-06
1.4081937e-06
0.00082550846
8.0482147e-06
-0.00082470839
0.00082600734
1.0063388e-05
0.00082623915
1.0918775e-05
0.00082612401
1.1306721e-05
0.00082532442
1.1783496e-05
0.0008238092
1.2109697e-05
0.00082165409
1.2330246e-05
0.00081891347
1.2555526e-05
0.00081567271
1.2762168e-05
0.0008120368
1.2981245e-05
0.0008081217
1.3195463e-05
0.00080398222
1.3411021e-05
0.00079963972
1.3616278e-05
0.00079510211
1.3800585e-05
0.00079036831
1.3959501e-05
0.00078543264
1.407751e-05
0.00078026556
1.4140664e-05
0.00077488533
1.4167456e-05
0.00076929671
1.4164016e-05
0.00076349697
1.407446e-05
0.00075755076
1.3873356e-05
0.00075149535
1.3586074e-05
0.00074536039
1.3226925e-05
0.00073917631
1.280443e-05
0.00073298196
1.2306864e-05
0.00072681284
1.1750436e-05
0.00072069552
1.117484e-05
0.00071466387
1.0579474e-05
0.00070875335
9.9716857e-06
0.00070299725
9.3645406e-06
0.00069742654
8.7668085e-06
0.00069207677
8.1693016e-06
0.00068695216
7.5966416e-06
0.00068202955
7.0904986e-06
0.00067730947
6.6331409e-06
0.00067279918
6.2158037e-06
0.00066850268
5.8423554e-06
0.00066441571
5.5134997e-06
0.00066053331
5.2099467e-06
0.00065684141
4.9462116e-06
0.00065331846
4.7377253e-06
0.00064994791
4.5687415e-06
0.0006467141
4.4333213e-06
0.00064360491
4.3227016e-06
0.00064061316
4.2237759e-06
0.00063772898
4.1430095e-06
0.00063491653
4.1127038e-06
0.00063213858
4.1332276e-06
0.00062939197
4.164092e-06
0.00062668819
4.1786002e-06
0.00062403237
4.1855214e-06
0.00062142098
4.1952885e-06
0.00061884895
4.203617e-06
0.00061631769
4.1950335e-06
0.00061382957
4.1687906e-06
0.00061137585
4.1461804e-06
0.00060894548
4.1323293e-06
0.00060653533
4.1172718e-06
0.00060415027
4.0897604e-06
0.00060179381
4.0564576e-06
0.00059946513
4.025877e-06
0.00059716714
3.986542e-06
0.00059490429
3.9352757e-06
0.00059267731
3.8814983e-06
0.00059048328
3.8328582e-06
0.0005883224
3.7792121e-06
0.00058619292
3.7256015e-06
0.00058408925
3.6841488e-06
0.0005820097
3.6466056e-06
0.00057995733
3.6031853e-06
0.00057793362
3.558394e-06
0.00057593595
3.5200312e-06
0.00057396775
3.4724306e-06
0.0005720307
3.4206925e-06
0.00057011843
3.3821125e-06
0.00056822996
3.3425169e-06
0.0005663662
3.3007732e-06
0.0005645234
3.269198e-06
0.00056270311
3.2332804e-06
0.00056090821
3.1909587e-06
0.0005591358
3.1559116e-06
0.00055738592
3.1183197e-06
0.00055565844
3.0799664e-06
0.00055394926
3.0514601e-06
0.00055225925
3.0199441e-06
0.00055058949
2.9863451e-06
0.00054893924
2.9549349e-06
0.00054730878
2.9214713e-06
0.00054569558
2.8932431e-06
0.00054409939
2.8648392e-06
0.0005425202
2.8364911e-06
0.00054095699
2.8109524e-06
0.00053940993
2.7834187e-06
0.00053787799
2.7596512e-06
0.00053635447
2.7438002e-06
0.00053485148
2.7177108e-06
0.00053335044
2.6858503e-06
0.00053183125
2.8422149e-06
0.00053016426
2.6951023e-06
2.9166298e-06
0.00085293678
7.6027091e-06
-0.00085249127
0.00085336513
9.6350379e-06
0.00085372619
1.0557714e-05
0.00085401496
1.101795e-05
0.00085430435
1.1494101e-05
0.00085453454
1.1879514e-05
0.00085466196
1.2202822e-05
0.00085468753
1.2529957e-05
0.00085461418
1.2835516e-05
0.00085443101
1.3164415e-05
0.00085413001
1.3496469e-05
0.00085370544
1.383559e-05
0.00085314391
1.4177801e-05
0.00085243436
1.4510136e-05
0.00085156208
1.4831787e-05
0.00085050848
1.5131104e-05
0.00084924381
1.5405332e-05
0.00084775214
1.5659131e-05
0.00084600815
1.590801e-05
0.00084395755
1.6125056e-05
0.00084156633
1.6264575e-05
0.00083881368
1.6338721e-05
0.00083568047
1.6360141e-05
0.00083215756
1.6327341e-05
0.00082820625
1.6258166e-05
0.00082380945
1.6147245e-05
0.00081902102
1.5963267e-05
0.00081389318
1.5707317e-05
0.00080847072
1.5394144e-05
0.000802803
1.503226e-05
0.00079694704
1.4622768e-05
0.00079097068
1.4145658e-05
0.00078495127
1.3616053e-05
0.0007789527
1.308907e-05
0.00077302594
1.2559906e-05
0.00076721697
1.2024769e-05
0.00076156858
1.1490741e-05
0.00075607986
1.1002221e-05
0.00075074028
1.0549532e-05
0.00074556653
1.0119958e-05
0.00074057017
9.7340883e-06
0.00073576439
9.3745181e-06
0.00073115575
9.0419621e-06
0.00072673842
8.7400356e-06
0.00072250196
8.4602372e-06
0.00071843148
8.2134873e-06
0.00071451353
8.0306546e-06
0.00071073884
7.9079185e-06
0.00070709774
7.8051857e-06
0.0007035846
7.6917397e-06
0.00070018801
7.5821157e-06
0.00069689109
7.4922109e-06
0.00069367901
7.4156909e-06
0.0006905471
7.3269507e-06
0.00068748953
7.2263583e-06
0.00068448607
7.1496414e-06
0.00068152411
7.0942831e-06
0.0006786058
7.0355872e-06
0.00067573664
6.9589178e-06
0.00067291896
6.8741353e-06
0.00067015031
6.7945257e-06
0.00066743074
6.7061173e-06
0.00066476164
6.6043775e-06
0.00066214168
6.5014589e-06
0.00065956667
6.4078612e-06
0.00065703294
6.3129442e-06
0.00065453622
6.2223262e-06
0.00065207305
6.1473179e-06
0.00064964352
6.0761333e-06
0.00064725107
5.9956306e-06
0.00064489717
5.9122985e-06
0.00064257902
5.8381831e-06
0.00064029888
5.7525695e-06
0.00063805702
5.6625544e-06
0.00063584603
5.5930954e-06
0.00063366421
5.5243407e-06
0.00063151302
5.4519598e-06
0.00062939001
5.3922128e-06
0.00062729635
5.3269424e-06
0.0006252345
5.2528083e-06
0.00062320147
5.1889414e-06
0.00062119584
5.1239507e-06
0.00061921694
5.0588624e-06
0.00061726157
5.0068267e-06
0.00061533045
4.9510656e-06
0.0006134247
4.8921025e-06
0.00061154352
4.8361075e-06
0.00060968629
4.7787035e-06
0.00060785032
4.729211e-06
0.00060603529
4.6798723e-06
0.00060424133
4.6304465e-06
0.00060246766
4.5846227e-06
0.00060071368
4.5374035e-06
0.00059897855
4.4947763e-06
0.00059725399
4.4683685e-06
0.00059555624
4.4154543e-06
0.00059385263
4.3894621e-06
0.00059217179
4.5230508e-06
0.00059019811
4.6687833e-06
4.5164518e-06
0.00088147081
7.2585212e-06
-0.00088112663
0.00088190167
9.2041831e-06
0.00088226253
1.0196848e-05
0.00088255455
1.072593e-05
0.00088282381
1.1224841e-05
0.00088303944
1.1663892e-05
0.0008832221
1.2020158e-05
0.00088338295
1.2369104e-05
0.00088351952
1.2698947e-05
0.0008836534
1.3030538e-05
0.00088378284
1.336703e-05
0.00088389391
1.3724513e-05
0.00088398568
1.4086032e-05
0.00088405815
1.443767e-05
0.00088410823
1.4781711e-05
0.00088413114
1.5108189e-05
0.00088412166
1.5414811e-05
0.000884071
1.5709795e-05
0.00088397344
1.6005567e-05
0.0008838158
1.6282692e-05
0.00088357466
1.6505722e-05
0.00088323027
1.6683108e-05
0.0008827598
1.6830615e-05
0.00088213538
1.6951761e-05
0.00088131916
1.7074381e-05
0.0008802591
1.720731e-05
0.00087890521
1.7317156e-05
0.00087721638
1.7396142e-05
0.00087515271
1.7457818e-05
0.0008726731
1.7511867e-05
0.00086974422
1.7551652e-05
0.00086630035
1.7589521e-05
0.00086229664
1.761977e-05
0.0008577808
1.7604902e-05
0.00085282116
1.7519547e-05
0.0008474807
1.7365232e-05
0.00084183475
1.7136695e-05
0.00083598352
1.6853443e-05
0.00083003646
1.6496597e-05
0.00082407077
1.6085642e-05
0.00081814545
1.5659416e-05
0.00081232049
1.5199474e-05
0.00080661999
1.4742465e-05
0.00080103356
1.4326464e-05
0.00079557687
1.3916929e-05
0.00079027609
1.3514263e-05
0.00078516162
1.314513e-05
0.00078026419
1.280535e-05
0.000775582
1.2487374e-05
0.00077109497
1.2178772e-05
0.00076677778
1.18993e-05
0.00076260811
1.1661883e-05
0.00075857265
1.1451148e-05
0.00075466942
1.1230184e-05
0.00075089654
1.0999235e-05
0.00074724121
1.0804976e-05
0.00074368622
1.0649276e-05
0.00074021811
1.0503692e-05
0.00073683284
1.0344185e-05
0.00073352837
1.017861e-05
0.00073029868
1.0024212e-05
0.00072713959
9.8652086e-06
0.00072404833
9.695634e-06
0.00072102103
9.5287591e-06
0.00071805161
9.3772838e-06
0.00071513043
9.2341314e-06
0.00071225292
9.0998327e-06
0.00070942176
8.9784783e-06
0.00070663825
8.8596372e-06
0.00070390502
8.728863e-06
0.00070122239
8.5949292e-06
0.00069858643
8.4741481e-06
0.00069599821
8.3407818e-06
0.00069345547
8.2052947e-06
0.0006909489
8.0996731e-06
0.00068847778
7.9954619e-06
0.00068604507
7.8846657e-06
0.00068364899
7.7882914e-06
0.00068129026
7.6856769e-06
0.00067897079
7.5722698e-06
0.00067668659
7.4731461e-06
0.00067443456
7.375985e-06
0.00067221402
7.2794022e-06
0.00067002277
7.1980765e-06
0.00066786168
7.1121481e-06
0.00066573183
7.0219595e-06
0.00066363191
6.9360204e-06
0.00066156021
6.8504017e-06
0.00065951389
6.7755363e-06
0.00065749287
6.7008955e-06
0.00065549752
6.6257895e-06
0.00065352708
6.5550697e-06
0.00065158019
6.4842937e-06
0.00064965577
6.4191899e-06
0.00064774493
6.379207e-06
0.00064586585
6.2945334e-06
0.00064397883
6.2764916e-06
0.00064213733
6.3645496e-06
0.00063992438
6.8817286e-06
6.2196409e-06
0.00091101484
6.9707554e-06
-0.00091072708
0.000911416
8.803024e-06
0.00091175954
9.8533128e-06
0.00091203868
1.0446788e-05
0.00091229245
1.0971072e-05
0.00091250943
1.1446907e-05
0.0009126931
1.1836489e-05
0.00091286057
1.2201639e-05
0.00091301077
1.2548742e-05
0.00091315016
1.2891148e-05
0.00091327822
1.323897e-05
0.00091340242
1.3600313e-05
0.00091352243
1.3966029e-05
0.00091363677
1.432332e-05
0.00091374692
1.4671568e-05
0.00091385216
1.5002948e-05
0.00091395033
1.5316643e-05
0.0009140461
1.5614026e-05
0.00091414535
1.5906311e-05
0.0009142401
1.6187945e-05
0.00091431934
1.6426478e-05
0.00091438055
1.6621902e-05
0.00091442185
1.6789314e-05
0.00091443954
1.6934074e-05
0.00091443425
1.7079667e-05
0.00091440066
1.7240899e-05
0.00091432453
1.7393286e-05
0.00091419162
1.7529056e-05
0.00091398434
1.7665095e-05
0.00091367943
1.7816775e-05
0.00091324638
1.7984706e-05
0.00091264091
1.8194992e-05
0.00091180015
1.8460529e-05
0.00091065484
1.8750209e-05
0.0009091388
1.9035584e-05
0.00090718726
1.9316774e-05
0.00090473209
1.9591865e-05
0.0009017456
1.9839934e-05
0.00089815498
2.0087214e-05
0.00089393296
2.030767e-05
0.00088918042
2.0411957e-05
0.00088398054
2.0399353e-05
0.00087843501
2.0287988e-05
0.0008726647
2.009678e-05
0.00086677866
1.9802966e-05
0.00086085822
1.9434709e-05
0.00085497291
1.9030432e-05
0.0008491895
1.8588761e-05
0.00084351367
1.816321e-05
0.00083793845
1.7753984e-05
0.00083249979
1.7337961e-05
0.0008272246
1.6937076e-05
0.00082213235
1.6543395e-05
0.00081723183
1.6130708e-05
0.00081251606
1.5714999e-05
0.00080797394
1.5347103e-05
0.00080359027
1.5032946e-05
0.00079934906
1.4744899e-05
0.0007952462
1.4447043e-05
0.00079127534
1.414947e-05
0.00078742027
1.3879281e-05
0.00078366733
1.3618152e-05
0.00078000856
1.3354401e-05
0.0007764398
1.3097517e-05
0.0007729567
1.2860391e-05
0.00076955706
1.2633771e-05
0.00076623658
1.2420306e-05
0.00076298725
1.2227806e-05
0.00075980492
1.2041973e-05
0.00075668984
1.1843938e-05
0.00075364043
1.1644344e-05
0.00075065069
1.1463888e-05
0.00074772026
1.127121e-05
0.00074484249
1.1083062e-05
0.00074200652
1.0935646e-05
0.00073921584
1.078614e-05
0.00073647503
1.0625484e-05
0.0007337818
1.0481519e-05
0.00073113593
1.033155e-05
0.00072853852
1.0169674e-05
0.0007259834
1.0028268e-05
0.00072346556
9.893823e-06
0.00072098544
9.7595274e-06
0.00071854216
9.6413484e-06
0.00071613664
9.5176752e-06
0.00071376959
9.3890087e-06
0.00071143866
9.2669446e-06
0.00070914072
9.1483428e-06
0.00070687302
9.0432349e-06
0.00070463614
8.9377809e-06
0.00070243067
8.8312609e-06
0.00070025558
8.730161e-06
0.00069810853
8.6313366e-06
0.00069598801
8.5397176e-06
0.00069388499
8.4822211e-06
0.00069181899
8.3605313e-06
0.00068974531
8.3501764e-06
0.0006877352
8.3746633e-06
0.00068529191
9.325014e-06
8.0449875e-06
0.0009415493
6.7320465e-06
-0.00094131059
0.00094191022
8.4420965e-06
0.00094223851
9.5250267e-06
0.00094251221
1.0173083e-05
0.00094276241
1.0720876e-05
0.00094298492
1.1224399e-05
0.00094317449
1.1646919e-05
0.00094334589
1.2030239e-05
0.00094349972
1.2394907e-05
0.00094364027
1.2750597e-05
0.00094376953
1.3109712e-05
0.00094389418
1.3475666e-05
0.00094401507
1.3845135e-05
0.00094413152
1.4206874e-05
0.00094424498
1.4558105e-05
0.00094435467
1.4893255e-05
0.00094445997
1.5211344e-05
0.00094456048
1.5513522e-05
0.00094465876
1.5808028e-05
0.00094475594
1.6090767e-05
0.00094484704
1.6335373e-05
0.00094492992
1.6539022e-05
0.00094500428
1.6714953e-05
0.00094506887
1.6869491e-05
0.00094512553
1.7023001e-05
0.00094518038
1.7186047e-05
0.00094523265
1.7341018e-05
0.00094527419
1.7487519e-05
0.00094530209
1.7637193e-05
0.00094531759
1.7801273e-05
0.00094531862
1.7983677e-05
0.00094530533
1.8208286e-05
0.00094527393
1.8491924e-05
0.00094521157
1.8812574e-05
0.00094509988
1.9147276e-05
0.00094491511
1.9501544e-05
0.00094462322
1.9883748e-05
0.00094417758
2.0285573e-05
0.0009435105
2.0754296e-05
0.00094253198
2.1286194e-05
0.00094115214
2.1791792e-05
0.00093928686
2.2264642e-05
0.00093687582
2.2699027e-05
0.00093387944
2.3093159e-05
0.00093022318
2.3459223e-05
0.00092591595
2.3741943e-05
0.00092107084
2.3875543e-05
0.00091579425
2.3865349e-05
0.00091021952
2.3737935e-05
0.0009044744
2.3499111e-05
0.00089864782
2.3164537e-05
0.00089281493
2.2769966e-05
0.00088704847
2.230986e-05
0.0008813638
2.1815372e-05
0.00087574328
2.1335525e-05
0.00087021745
2.0872935e-05
0.00086483028
2.0420115e-05
0.00085961741
1.9957761e-05
0.00085459407
1.9470384e-05
0.00084974432
1.8999225e-05
0.00084504256
1.8581037e-05
0.0008404753
1.8185411e-05
0.00083604169
1.7788019e-05
0.000831744
1.7395198e-05
0.00082757623
1.7028163e-05
0.00082353682
1.6673184e-05
0.00081962006
1.6337067e-05
0.00081581104
1.6036827e-05
0.00081210275
1.5750259e-05
0.00080849106
1.5455627e-05
0.00080496848
1.5166931e-05
0.000801525
1.4907364e-05
0.00079815879
1.4637423e-05
0.00079486928
1.4372566e-05
0.00079165001
1.4154918e-05
0.00078849773
1.3938421e-05
0.00078541105
1.3712164e-05
0.00078238527
1.3507298e-05
0.00077941887
1.3297947e-05
0.0007765118
1.3076749e-05
0.00077365417
1.2885894e-05
0.00077083963
1.2708368e-05
0.00076807189
1.2527265e-05
0.00076535124
1.2362e-05
0.00076267779
1.2191121e-05
0.00076005158
1.2015226e-05
0.00075746841
1.1850115e-05
0.00075492351
1.1693237e-05
0.00075241503
1.1551712e-05
0.00074994453
1.1408284e-05
0.00074751255
1.126324e-05
0.00074511742
1.1125297e-05
0.00074275541
1.0993337e-05
0.00074042458
1.087055e-05
0.00073811633
1.0790468e-05
0.00073585115
1.0625713e-05
0.00073358011
1.0621219e-05
0.0007313885
1.0566272e-05
0.00072870998
1.2003531e-05
1.0006982e-05
0.0009731047
6.5331396e-06
-0.00097290579
0.00097342792
8.1188683e-06
0.0009737422
9.2107507e-06
0.00097401094
9.9043412e-06
0.00097425608
1.0475739e-05
0.00097447821
1.100227e-05
0.00097467083
1.14543e-05
0.00097484391
1.1857154e-05
0.00097500125
1.2237567e-05
0.00097514499
1.2606859e-05
0.00097527885
1.2975847e-05
0.00097540701
1.3347511e-05
0.00097553149
1.3720659e-05
0.00097565147
1.408689e-05
0.00097576804
1.4441534e-05
0.00097588037
1.4780924e-05
0.00097598788
1.5103836e-05
0.00097609036
1.5411045e-05
0.0009761899
1.5708483e-05
0.00097628774
1.5992924e-05
0.0009763801
1.6243018e-05
0.00097646498
1.6454136e-05
0.00097654218
1.6637757e-05
0.00097661044
1.6801231e-05
0.00097667204
1.6961402e-05
0.00097672954
1.7128543e-05
0.00097678114
1.7289425e-05
0.00097682607
1.7442582e-05
0.00097686453
1.759874e-05
0.00097689698
1.7768821e-05
0.0009769231
1.7957557e-05
0.00097694536
1.8186029e-05
0.00097696915
1.8468135e-05
0.00097699493
1.8786787e-05
0.00097701748
1.9124727e-05
0.00097703458
1.9484445e-05
0.0009770447
1.9873628e-05
0.00097704263
2.0287642e-05
0.00097702824
2.076869e-05
0.00097699211
2.1322325e-05
0.00097690749
2.1876408e-05
0.00097674462
2.2427516e-05
0.00097646012
2.298352e-05
0.00097599213
2.3561156e-05
0.00097525186
2.4199491e-05
0.00097413216
2.4861641e-05
0.00097253096
2.5476745e-05
0.00097035888
2.6037431e-05
0.00096756389
2.6532916e-05
0.00096408162
2.6981382e-05
0.0009599219
2.7324255e-05
0.00095520626
2.7485614e-05
0.00095005052
2.7465592e-05
0.00094459289
2.7273007e-05
0.0009389519
2.6976509e-05
0.00093320867
2.661617e-05
0.00092743548
2.6193305e-05
0.00092170997
2.5683268e-05
0.00091604354
2.5136819e-05
0.00091041193
2.4630832e-05
0.00090484939
2.4143577e-05
0.00089940498
2.3629824e-05
0.00089411684
2.3076159e-05
0.00088899189
2.2520146e-05
0.00088401066
2.2009399e-05
0.0008791661
2.1517745e-05
0.00087446371
2.103945e-05
0.0008699091
2.0591442e-05
0.00086550067
2.0158689e-05
0.00086122652
1.9729775e-05
0.0008570717
1.9321754e-05
0.00085302562
1.8953436e-05
0.0008490884
1.8574647e-05
0.00084526393
1.8197033e-05
0.00084154733
1.7871523e-05
0.00083792823
1.7557517e-05
0.00083439994
1.7240455e-05
0.0008309545
1.6952734e-05
0.00082758726
1.6665195e-05
0.00082429497
1.6369039e-05
0.00082107166
1.6109195e-05
0.00081791509
1.5864938e-05
0.00081482379
1.5618568e-05
0.00081179287
1.5392916e-05
0.00080882038
1.5163616e-05
0.00080590537
1.4930237e-05
0.00080304083
1.4714649e-05
0.00080022062
1.4513449e-05
0.00079744526
1.4327071e-05
0.00079471726
1.4136283e-05
0.00079203643
1.3944077e-05
0.0007893999
1.3761826e-05
0.00078680215
1.3591087e-05
0.00078424114
1.343156e-05
0.00078170934
1.3322271e-05
0.00077922773
1.310732e-05
0.00077674338
1.310557e-05
0.0007743533
1.2956351e-05
0.0007714267
1.4930129e-05
1.211981e-05
0.0010057153
6.3648117e-06
-0.0010055469
0.0010060041
7.8300108e-06
0.0010063022
8.9126521e-06
0.0010065642
9.642359e-06
0.0010068035
1.0236459e-05
0.0010070241
1.0781646e-05
0.0010072198
1.1258631e-05
0.001007396
1.1680881e-05
0.0010075573
1.2076294e-05
0.0010077055
1.2458672e-05
0.0010078442
1.2837172e-05
0.0010079761
1.321558e-05
0.0010081038
1.3592954e-05
0.0010082271
1.3963625e-05
0.0010083465
1.4322094e-05
0.0010084616
1.4665889e-05
0.0010085718
1.49936e-05
0.0010086771
1.5305747e-05
0.0010087791
1.5606488e-05
0.0010088788
1.5893163e-05
0.0010089733
1.6148575e-05
0.0010090603
1.6367171e-05
0.0010091394
1.655862e-05
0.0010092097
1.6730879e-05
0.0010092731
1.6898093e-05
0.0010093316
1.7069945e-05
0.0010093843
1.723677e-05
0.0010094304
1.7396509e-05
0.0010094703
1.7558843e-05
0.0010095046
1.7734499e-05
0.0010095331
1.7929096e-05
0.0010095583
1.8160785e-05
0.0010095837
1.844271e-05
0.0010096094
1.876112e-05
0.0010096341
1.9100013e-05
0.0010096577
1.9460843e-05
0.0010096803
1.9851052e-05
0.0010097
2.0267953e-05
0.0010097214
2.0747218e-05
0.0010097492
2.1294527e-05
0.0010097801
2.1845515e-05
0.0010098095
2.2398174e-05
0.0010098291
2.2963856e-05
0.0010098352
2.3555144e-05
0.0010098239
2.4210796e-05
0.0010097765
2.4909028e-05
0.0010096579
2.5595324e-05
0.0010094225
2.6272858e-05
0.0010090014
2.6953929e-05
0.001008296
2.7686829e-05
0.001007188
2.8432272e-05
0.001005565
2.9108624e-05
0.0010033343
2.9696271e-05
0.0010003979
3.020943e-05
0.0009967289
3.0645483e-05
0.00099242422
3.0920845e-05
0.00098760739
3.1010139e-05
0.00098240496
3.0885692e-05
0.00097694551
3.0596276e-05
0.00097132529
3.0251052e-05
0.00096561238
2.9856486e-05
0.00095987816
2.9364046e-05
0.0009541792
2.8775112e-05
0.00094849834
2.8201009e-05
0.00094282373
2.7684011e-05
0.00093721555
2.7125922e-05
0.00093173383
2.6521167e-05
0.00092640328
2.5921999e-05
0.0009212151
2.5346859e-05
0.00091616193
2.4782952e-05
0.00091124407
2.4239607e-05
0.00090646738
2.3730131e-05
0.0009018367
2.3205323e-05
0.0008973457
2.2688039e-05
0.00089298389
2.223333e-05
0.00088874942
2.179199e-05
0.00088464167
2.1348204e-05
0.00088064942
2.0944981e-05
0.00087676267
2.0551944e-05
0.00087297513
2.0156578e-05
0.00086928574
1.9798593e-05
0.00086569624
1.9454436e-05
0.00086219862
1.911619e-05
0.00085878166
1.8809876e-05
0.0008554407
1.8504576e-05
0.00085217234
1.8198589e-05
0.00084897183
1.7915162e-05
0.00084583615
1.7649131e-05
0.00084276181
1.7401406e-05
0.00083974681
1.7151283e-05
0.00083678904
1.6901855e-05
0.00083388397
1.6666897e-05
0.00083102387
1.6451178e-05
0.00082820758
1.624785e-05
0.00082542926
1.6100593e-05
0.00082270954
1.5827039e-05
0.00081999129
1.5823824e-05
0.00081738171
1.5565932e-05
0.00081418857
1.8123264e-05
1.439839e-05
0.001039415
6.2199292e-06
-0.0010392701
0.0010396727
7.5722709e-06
0.0010399531
8.6323056e-06
0.0010402075
9.3879029e-06
0.0010404415
1.0002469e-05
0.0010406603
1.0562852e-05
0.0010408583
1.1060667e-05
0.0010410374
1.1501753e-05
0.0010412019
1.1911853e-05
0.0010413538
1.2306744e-05
0.0010414961
1.269486e-05
0.0010416316
1.3080106e-05
0.0010417623
1.3462271e-05
0.0010418888
1.3837081e-05
0.0010420112
1.4199678e-05
0.0010421293
1.4547847e-05
0.0010422426
1.488027e-05
0.0010423511
1.519725e-05
0.001042456
1.5501577e-05
0.0010425582
1.5790953e-05
0.0010426552
1.6051579e-05
0.0010427448
1.6277599e-05
0.0010428264
1.6476954e-05
0.0010428995
1.6657816e-05
0.0010429653
1.6832274e-05
0.001043026
1.7009284e-05
0.0010430807
1.7182096e-05
0.0010431287
1.7348518e-05
0.0010431703
1.7517191e-05
0.0010432062
1.7698582e-05
0.0010432363
1.7899005e-05
0.0010432629
1.8134197e-05
0.0010432892
1.8416417e-05
0.0010433155
1.8734777e-05
0.001043341
1.9074599e-05
0.0010433654
1.9436377e-05
0.0010433892
1.9827293e-05
0.0010434107
2.024645e-05
0.0010434344
2.0723538e-05
0.001043464
2.1264932e-05
0.0010434947
2.1814811e-05
0.0010435257
2.2367118e-05
0.001043556
2.2933564e-05
0.001043585
2.3526136e-05
0.001043617
2.4178802e-05
0.0010436532
2.4872877e-05
0.0010436923
2.5556156e-05
0.0010437271
2.6238122e-05
0.0010437448
2.6936165e-05
0.0010437415
2.7690171e-05
0.0010436969
2.8476861e-05
0.0010435692
2.9236307e-05
0.0010433015
2.9964028e-05
0.0010428026
3.0708298e-05
0.0010419511
3.1496975e-05
0.0010406212
3.2250702e-05
0.0010387077
3.2923651e-05
0.0010360808
3.351258e-05
0.0010326622
3.4014881e-05
0.0010285488
3.4364482e-05
0.0010238961
3.4509177e-05
0.001018835
3.4425201e-05
0.0010134843
3.4125794e-05
0.0010079379
3.3747379e-05
0.0010022642
3.3357694e-05
0.00099652656
3.2863585e-05
0.0009907972
3.2250536e-05
0.00098506381
3.165538e-05
0.00097930115
3.1109527e-05
0.00097357519
3.0508907e-05
0.00096795402
2.9860782e-05
0.00096246607
2.9218082e-05
0.00095710801
2.8563377e-05
0.00095187637
2.7919685e-05
0.00094677594
2.7333753e-05
0.00094182467
2.6743265e-05
0.0009370288
2.6144071e-05
0.0009323734
2.5600383e-05
0.00092784928
2.5076066e-05
0.00092345541
2.4550446e-05
0.00091918905
2.4064952e-05
0.00091504782
2.359567e-05
0.00091102548
2.3138527e-05
0.0009071125
2.2722854e-05
0.00090330273
2.2314344e-05
0.0008995885
2.191282e-05
0.00089596692
2.153675e-05
0.00089243904
2.1177004e-05
0.00088899661
2.0843841e-05
0.00088563137
2.0516516e-05
0.00088233817
2.0195056e-05
0.0008791123
1.9892767e-05
0.00087594959
1.9613887e-05
0.00087284776
1.934969e-05
0.00086979543
1.9152914e-05
0.00086681135
1.8811123e-05
0.00086383385
1.8801321e-05
0.00086097939
1.8420395e-05
0.00085749679
2.1605864e-05
1.6858634e-05
0.0010742394
6.0932699e-06
-0.0010741128
0.0010744696
7.3421127e-06
0.0010747317
8.3702187e-06
0.0010749779
9.1416383e-06
0.0010752067
9.7736499e-06
0.001075423
1.0346618e-05
0.001075622
1.0861625e-05
0.0010758035
1.1320308e-05
0.0010759707
1.1744596e-05
0.0010761261
1.2151331e-05
0.0010762721
1.2548848e-05
0.0010764113
1.2940997e-05
0.0010765454
1.3328154e-05
0.0010766752
1.3707209e-05
0.0010768008
1.4074117e-05
0.0010769219
1.4426725e-05
0.0010770383
1.4763869e-05
0.0010771499
1.5085652e-05
0.0010772577
1.539383e-05
0.0010773623
1.5686346e-05
0.0010774617
1.5952154e-05
0.0010775538
1.6185515e-05
0.0010776379
1.6392804e-05
0.0010777137
1.6582099e-05
0.001077782
1.6763911e-05
0.0010778449
1.6946435e-05
0.0010779017
1.7125279e-05
0.0010779518
1.729843e-05
0.0010779954
1.7473555e-05
0.0010780332
1.7660785e-05
0.0010780653
1.7866945e-05
0.0010780937
1.8105798e-05
0.0010781214
1.8388669e-05
0.0010781491
1.8707133e-05
0.0010781757
1.9047923e-05
0.0010782014
1.9410756e-05
0.0010782262
1.9802469e-05
0.001078249
2.0223637e-05
0.0010782736
2.0698936e-05
0.0010783035
2.1235003e-05
0.0010783347
2.1783633e-05
0.0010783662
2.2335579e-05
0.0010783975
2.290227e-05
0.0010784282
2.3495469e-05
0.0010784625
2.4144539e-05
0.0010785012
2.4834189e-05
0.0010785403
2.5516999e-05
0.001078579
2.6199384e-05
0.0010786165
2.6898711e-05
0.0010786569
2.7649781e-05
0.0010786989
2.8434873e-05
0.0010787443
2.9190907e-05
0.0010787841
2.9924251e-05
0.0010788007
3.0691692e-05
0.0010787846
3.1513017e-05
0.0010787026
3.2332754e-05
0.0010785005
3.3125763e-05
0.0010780898
3.3923254e-05
0.0010773416
3.4763079e-05
0.0010761165
3.5589538e-05
0.0010742987
3.6327021e-05
0.001071752
3.6971928e-05
0.0010683606
3.7517167e-05
0.0010642245
3.7883504e-05
0.0010595549
3.8027214e-05
0.0010544948
3.7923759e-05
0.0010491493
3.7595988e-05
0.0010436005
3.7204193e-05
0.0010379129
3.679714e-05
0.0010321446
3.6277177e-05
0.0010263642
3.5641185e-05
0.0010205586
3.5023664e-05
0.0010147073
3.4414675e-05
0.0010088791
3.3747891e-05
0.00100314
3.3072893e-05
0.00099752256
3.236069e-05
0.00099202656
3.1640075e-05
0.0009866526
3.0974339e-05
0.00098141736
3.0311304e-05
0.00097633547
2.963234e-05
0.00097140135
2.899907e-05
0.00096660804
2.8388983e-05
0.0009619567
2.7789863e-05
0.00095744539
2.723417e-05
0.00095306716
2.6692574e-05
0.0009488114
2.6168578e-05
0.00094467352
2.5674624e-05
0.00094065428
2.5196248e-05
0.00093674597
2.4752148e-05
0.00093293953
2.4322955e-05
0.00092922777
2.3906817e-05
0.00092560502
2.3515523e-05
0.00092207061
2.3148292e-05
0.0009186211
2.2799202e-05
0.00091523855
2.2535465e-05
0.00091193769
2.2111981e-05
0.00090865554
2.2083475e-05
0.0009055214
2.1554533e-05
0.00090172287
2.5404392e-05
1.9517411e-05
0.0011102255
5.9809764e-06
-0.0011101132
0.0011104316
7.1360044e-06
0.0011106756
8.1262493e-06
0.0011109129
8.9043407e-06
0.0011111364
9.5501717e-06
0.0011113495
1.0133484e-05
0.0011115487
1.06624e-05
0.0011117321
1.1136915e-05
0.001111902
1.157471e-05
0.0011120607
1.199265e-05
0.0011122103
1.2399277e-05
0.0011123529
1.2798366e-05
0.0011124903
1.3190713e-05
0.0011126234
1.357419e-05
0.001112752
1.3945503e-05
0.0011128761
1.4302603e-05
0.0011129955
1.4644457e-05
0.0011131102
1.4970998e-05
0.0011132208
1.5283224e-05
0.0011133279
1.5579246e-05
0.0011134298
1.5850234e-05
0.0011135245
1.6090829e-05
0.0011136112
1.6306051e-05
0.0011136897
1.6503647e-05
0.0011137607
1.6692899e-05
0.0011138259
1.6881267e-05
0.0011138849
1.7066227e-05
0.0011139372
1.7246156e-05
0.0011139829
1.7427842e-05
0.0011140227
1.7621012e-05
0.0011140568
1.7832843e-05
0.0011140871
1.8075486e-05
0.0011141164
1.8359336e-05
0.0011141455
1.8678066e-05
0.0011141735
1.9019853e-05
0.0011142005
1.9383819e-05
0.0011142266
1.9776384e-05
0.0011142509
2.0199295e-05
0.0011142768
2.0673043e-05
0.0011143076
2.1204183e-05
0.0011143399
2.1751328e-05
0.0011143725
2.2302974e-05
0.0011144049
2.2869862e-05
0.0011144368
2.346357e-05
0.0011144719
2.410945e-05
0.0011145111
2.4795068e-05
0.0011145506
2.5477426e-05
0.0011145901
2.615993e-05
0.0011146291
2.6859649e-05
0.0011146714
2.7607491e-05
0.0011147181
2.8388252e-05
0.0011147644
2.91446e-05
0.001114808
2.9880652e-05
0.0011148514
3.0648263e-05
0.0011148963
3.146815e-05
0.0011149434
3.2285621e-05
0.0011149893
3.3079867e-05
0.0011150171
3.3895463e-05
0.0011150115
3.4768617e-05
0.0011149433
3.5657798e-05
0.0011147545
3.6515809e-05
0.0011143501
3.7376296e-05
0.001113586
3.8281258e-05
0.0011123058
3.9163713e-05
0.0011103929