/*--------------------------------*- C++ -*----------------------------------*\
  =========                 |
  \\      /  F ield         | OpenFOAM: The Open Source CFD Toolbox
   \\    /   O peration     | Website:  https://openfoam.org
    \\  /    A nd           | Version:  12
     \\/     M anipulation  |
\*---------------------------------------------------------------------------*/
FoamFile
{
    format      ascii;
    class       volVectorField;
    location    "800";
    object      U;
}
// * * * * * * * * * * * * * * * * * * * * * * * * * * * * * * * * * * * * * //

dimensions      [0 1 -1 0 0 0 0];

internalField   nonuniform List<vector> 
7480
(
(0.98222584 0.00075657908 0)
(0.96970162 0.0014018523 0)
(0.9564687 0.001761392 0)
(0.94236344 0.0020804043 0)
(0.92839205 0.0024835903 0)
(0.91491631 0.0027338931 0)
(0.90195946 0.0027632456 0)
(0.88950917 0.0026982384 0)
(0.87747261 0.0025893378 0)
(0.86575479 0.0024383946 0)
(0.85415481 0.0022630322 0)
(0.84258428 0.0020984899 0)
(0.8310108 0.001945205 0)
(0.81943914 0.0018012267 0)
(0.80789272 0.001665206 0)
(0.79641373 0.0015348658 0)
(0.78507522 0.0014031919 0)
(0.77402752 0.0012726425 0)
(0.76315121 0.001155918 0)
(0.75262075 0.0010453811 0)
(0.74250111 0.00093927908 0)
(0.73284733 0.00083780543 0)
(0.72371553 0.00074150952 0)
(0.71515392 0.00065127088 0)
(0.70720527 0.00056637438 0)
(0.6999094 0.00048697681 0)
(0.69327814 0.00041473639 0)
(0.68729719 0.00034947044 0)
(0.68193983 0.0002911191 0)
(0.67716987 0.00024062308 0)
(0.67294048 0.00019784533 0)
(0.66920155 0.00016161006 0)
(0.66591372 0.00013082207 0)
(0.66303386 0.00010540163 0)
(0.66050524 8.4510091e-05 0)
(0.65826553 6.8162932e-05 0)
(0.65625252 5.6667758e-05 0)
(0.6544091 4.9161094e-05 0)
(0.65269906 4.366964e-05 0)
(0.65109558 4.0235234e-05 0)
(0.64956331 3.9297444e-05 0)
(0.64806577 4.0052898e-05 0)
(0.64657535 4.2013842e-05 0)
(0.64507258 4.4655304e-05 0)
(0.64354797 4.7402745e-05 0)
(0.64199473 5.0394931e-05 0)
(0.6404027 5.4153503e-05 0)
(0.63875004 5.8539307e-05 0)
(0.63702055 6.2816517e-05 0)
(0.63521355 6.6454265e-05 0)
(0.63333598 6.9563488e-05 0)
(0.63139139 7.2253464e-05 0)
(0.62938272 7.4303067e-05 0)
(0.62732222 7.5312194e-05 0)
(0.62523062 7.5279329e-05 0)
(0.62312344 7.4679021e-05 0)
(0.62100536 7.3752938e-05 0)
(0.61887756 7.2544684e-05 0)
(0.61674686 7.0991863e-05 0)
(0.61462116 6.9303079e-05 0)
(0.61250112 6.7691916e-05 0)
(0.61038767 6.5913947e-05 0)
(0.60828883 6.3864828e-05 0)
(0.60621225 6.1733806e-05 0)
(0.60415756 5.9710202e-05 0)
(0.60212516 5.7583524e-05 0)
(0.60011968 5.541175e-05 0)
(0.59813885 5.3490277e-05 0)
(0.59617585 5.1738936e-05 0)
(0.59423005 4.9977435e-05 0)
(0.59230471 4.8254275e-05 0)
(0.59039751 4.6692376e-05 0)
(0.58850844 4.5038657e-05 0)
(0.58664398 4.3331398e-05 0)
(0.5848022 4.1833441e-05 0)
(0.58297838 4.036014e-05 0)
(0.58117464 3.8887752e-05 0)
(0.57938855 3.7609415e-05 0)
(0.57761674 3.6333947e-05 0)
(0.57586358 3.5003121e-05 0)
(0.57412959 3.3795289e-05 0)
(0.57241275 3.2585954e-05 0)
(0.57071539 3.1381005e-05 0)
(0.56903463 3.0328235e-05 0)
(0.56736734 2.9284646e-05 0)
(0.56571577 2.8245496e-05 0)
(0.56408023 2.7262511e-05 0)
(0.56246104 2.6279898e-05 0)
(0.56085726 2.5370847e-05 0)
(0.55926712 2.4488795e-05 0)
(0.5576912 2.3632543e-05 0)
(0.55612816 2.2833156e-05 0)
(0.5545787 2.2031699e-05 0)
(0.55304091 2.1292321e-05 0)
(0.55151726 2.0601774e-05 0)
(0.54998692 1.9960936e-05 0)
(0.54851768 1.917043e-05 0)
(0.54691711 5.0320437e-05 0)
(0.54552162 9.4430999e-05 0)
(0.54341098 9.0240072e-05 0)
(0.99619864 0.0027571118 0)
(0.99709371 0.0038449392 0)
(0.99771357 0.0042243387 0)
(0.997955 0.0041369871 0)
(0.99737869 0.0039219167 0)
(0.99593584 0.0035840004 0)
(0.99369772 0.0032692429 0)
(0.99071394 0.0030124672 0)
(0.98707767 0.0028105177 0)
(0.98287817 0.0026633087 0)
(0.97829283 0.0025756856 0)
(0.97341554 0.0025246621 0)
(0.96828853 0.0024906158 0)
(0.96292438 0.0024611115 0)
(0.95732571 0.0024294894 0)
(0.95148704 0.00239116 0)
(0.94540145 0.00234304 0)
(0.93900451 0.0022852414 0)
(0.9324075 0.0022111796 0)
(0.92549749 0.0021176465 0)
(0.91839267 0.0020086075 0)
(0.91113748 0.0018879501 0)
(0.90376745 0.0017584494 0)
(0.89631779 0.0016234238 0)
(0.88883434 0.0014849046 0)
(0.88135835 0.0013471012 0)
(0.87392976 0.0012142446 0)
(0.86658577 0.0010873669 0)
(0.85936618 0.00096793636 0)
(0.85231306 0.0008572908 0)
(0.84546606 0.00075646656 0)
(0.83886333 0.00066433165 0)
(0.83255231 0.00058314738 0)
(0.82648702 0.00051561636 0)
(0.82066471 0.00045848911 0)
(0.81509225 0.00040942407 0)
(0.80977565 0.00036813535 0)
(0.80471873 0.0003341688 0)
(0.79991228 0.00030455882 0)
(0.79534408 0.00027921842 0)
(0.79099435 0.00025949442 0)
(0.78683963 0.00024400748 0)
(0.78285814 0.00023189342 0)
(0.7790322 0.0002220205 0)
(0.77535224 0.00021312655 0)
(0.77180674 0.00020552512 0)
(0.76838629 0.00020127323 0)
(0.76501593 0.00019995655 0)
(0.76167857 0.00019881235 0)
(0.75838464 0.00019636011 0)
(0.75514744 0.00019336079 0)
(0.75196904 0.00019041309 0)
(0.74884178 0.00018718857 0)
(0.7457603 0.00018290571 0)
(0.7427296 0.00017767999 0)
(0.73974922 0.00017261267 0)
(0.73680329 0.00016784213 0)
(0.73388109 0.00016294745 0)
(0.73098408 0.00015760751 0)
(0.72812003 0.00015220428 0)
(0.72529146 0.00014710373 0)
(0.72249783 0.00014179669 0)
(0.71974308 0.00013615873 0)
(0.71703223 0.00013059307 0)
(0.71436377 0.00012539947 0)
(0.71173555 0.0001201625 0)
(0.70914588 0.00011505246 0)
(0.70659112 0.00011053349 0)
(0.70406588 0.00010633327 0)
(0.70157026 0.00010211432 0)
(0.69910901 9.8020577e-05 0)
(0.69668166 9.4275055e-05 0)
(0.6942865 9.0392389e-05 0)
(0.69192885 8.651454e-05 0)
(0.68960656 8.3117013e-05 0)
(0.68731227 7.9802242e-05 0)
(0.68504664 7.654951e-05 0)
(0.68280933 7.3682859e-05 0)
(0.68059739 7.0820418e-05 0)
(0.67841415 6.7907754e-05 0)
(0.67626111 6.5266521e-05 0)
(0.67413486 6.26516e-05 0)
(0.67203571 6.0101825e-05 0)
(0.6699615 5.785316e-05 0)
(0.66790906 5.5625991e-05 0)
(0.66588025 5.3437614e-05 0)
(0.66387588 5.1372312e-05 0)
(0.66189561 4.9336213e-05 0)
(0.6599378 4.7460767e-05 0)
(0.65800007 4.564763e-05 0)
(0.65608302 4.3900382e-05 0)
(0.65418571 4.2264528e-05 0)
(0.65230862 4.0648643e-05 0)
(0.65044866 3.9150317e-05 0)
(0.6486103 3.779652e-05 0)
(0.64676474 3.6387571e-05 0)
(0.64499747 3.560194e-05 0)
(0.6430807 7.011649e-05 0)
(0.64148694 0.00011872556 0)
(0.63857064 9.8222073e-05 0)
(0.99631226 0.002608343 0)
(0.99684443 0.0030867843 0)
(0.99746233 0.0030463068 0)
(0.99789598 0.0029375179 0)
(0.99816563 0.0029154031 0)
(0.99848914 0.0029457677 0)
(0.99869755 0.003008752 0)
(0.99878681 0.0030937147 0)
(0.99876237 0.0031633166 0)
(0.99861406 0.0032365626 0)
(0.99833179 0.0032785441 0)
(0.9979083 0.0032955714 0)
(0.9973337 0.0032905069 0)
(0.99659347 0.0032688452 0)
(0.99567217 0.0032311094 0)
(0.99455113 0.0031778454 0)
(0.99320787 0.0031108898 0)
(0.99159121 0.0030377656 0)
(0.9897199 0.0029658998 0)
(0.98750787 0.0028871606 0)
(0.98491743 0.002794664 0)
(0.98191574 0.002692655 0)
(0.97847912 0.0025851979 0)
(0.97458465 0.0024721278 0)
(0.97024207 0.0023518028 0)
(0.96534184 0.0022207763 0)
(0.9599533 0.0020841681 0)
(0.95414519 0.0019467071 0)
(0.94796506 0.0018107098 0)
(0.94146707 0.0016772156 0)
(0.93471377 0.0015473946 0)
(0.92777931 0.0014204682 0)
(0.92074663 0.001296566 0)
(0.91370758 0.0011818624 0)
(0.90672644 0.0010788895 0)
(0.89985876 0.00098580716 0)
(0.89315253 0.00090160796 0)
(0.88666031 0.00082930681 0)
(0.88033053 0.00076621235 0)
(0.8741821 0.00070992311 0)
(0.86823752 0.00066138179 0)
(0.86250929 0.00061823785 0)
(0.85701058 0.00057974885 0)
(0.85174214 0.00054547972 0)
(0.84669092 0.00051398751 0)
(0.84184233 0.00048602493 0)
(0.83717851 0.00046302844 0)
(0.83268899 0.00044505576 0)
(0.82835997 0.00043011078 0)
(0.82418286 0.00041507292 0)
(0.82014977 0.00040029368 0)
(0.8162446 0.00038667092 0)
(0.81244649 0.00037379236 0)
(0.80874097 0.00036030525 0)
(0.80512853 0.000346372 0)
(0.80159402 0.00033386517 0)
(0.79810923 0.00032252429 0)
(0.7946733 0.00031117215 0)
(0.7912906 0.00029924905 0)
(0.78796756 0.00028735459 0)
(0.78470469 0.00027609787 0)
(0.78149885 0.00026478489 0)
(0.77835036 0.00025324495 0)
(0.77526079 0.00024205394 0)
(0.77222688 0.00023164974 0)
(0.76924474 0.00022153785 0)
(0.76630616 0.00021191026 0)
(0.7634087 0.00020322087 0)
(0.76055019 0.00019503911 0)
(0.75773205 0.00018686858 0)
(0.75495894 0.00017892525 0)
(0.75223016 0.00017157367 0)
(0.74954302 0.00016412305 0)
(0.74690197 0.00015679541 0)
(0.74430248 0.00015031835 0)
(0.74173617 0.00014409099 0)
(0.73920422 0.00013801922 0)
(0.73670756 0.00013254205 0)
(0.7342437 0.000127123 0)
(0.73181541 0.00012168168 0)
(0.72942414 0.00011669122 0)
(0.72706514 0.00011183064 0)
(0.72473748 0.00010714304 0)
(0.7224395 0.00010293807 0)
(0.72016862 9.8808532e-05 0)
(0.71792666 9.4768305e-05 0)
(0.71571448 9.0939628e-05 0)
(0.71353098 8.7209962e-05 0)
(0.71137384 8.3765686e-05 0)
(0.70924064 8.0451267e-05 0)
(0.70713221 7.7260711e-05 0)
(0.70504782 7.42544e-05 0)
(0.70298775 7.1322689e-05 0)
(0.70094819 6.8577565e-05 0)
(0.69893376 6.6153694e-05 0)
(0.6969146 6.3492112e-05 0)
(0.69497818 6.1734749e-05 0)
(0.69289204 9.2608171e-05 0)
(0.69116212 0.00014061487 0)
(0.6879375 0.00010702739 0)
(0.99646382 0.0023665 0)
(0.99691253 0.0028578371 0)
(0.99748147 0.003069774 0)
(0.99790795 0.0031894381 0)
(0.99820029 0.0032940678 0)
(0.99844778 0.0033745165 0)
(0.99867184 0.00339043 0)
(0.9988677 0.0033766772 0)
(0.99903806 0.0033393232 0)
(0.99917827 0.0032859868 0)
(0.99933729 0.0032323707 0)
(0.99947241 0.0031844452 0)
(0.99958495 0.0031433426 0)
(0.9996789 0.0031020187 0)
(0.99974894 0.0030679259 0)
(0.99979141 0.0030366819 0)
(0.99980103 0.0030028879 0)
(0.99976917 0.0029707046 0)
(0.99968773 0.0029415036 0)
(0.99954638 0.0029088769 0)
(0.99932607 0.0028652419 0)
(0.99900139 0.0028122577 0)
(0.99854705 0.0027527622 0)
(0.9979341 0.0026879851 0)
(0.99713462 0.0026216032 0)
(0.99608415 0.0025585998 0)
(0.99472846 0.0024948548 0)
(0.99301778 0.0024253832 0)
(0.99090444 0.0023507625 0)
(0.98834369 0.002273349 0)
(0.9852879 0.0021921511 0)
(0.98171352 0.0021047236 0)
(0.97749094 0.0020116758 0)
(0.97264534 0.0019137007 0)
(0.9672688 0.001810569 0)
(0.96142262 0.0017046952 0)
(0.95518494 0.001597645 0)
(0.94864796 0.0014907453 0)
(0.94195288 0.0013861283 0)
(0.93519565 0.0012878702 0)
(0.92845639 0.0011988883 0)
(0.92179733 0.0011168834 0)
(0.91528605 0.0010433186 0)
(0.90890736 0.00097923582 0)
(0.90265463 0.00092049169 0)
(0.89656711 0.0008661569 0)
(0.89066698 0.00081876188 0)
(0.88500453 0.000777661 0)
(0.87959583 0.00073988943 0)
(0.87441999 0.00070343871 0)
(0.86944918 0.00066936472 0)
(0.86465699 0.00063900729 0)
(0.86002182 0.00061140233 0)
(0.85553454 0.00058418186 0)
(0.85119672 0.00055698536 0)
(0.84700172 0.00053224707 0)
(0.84293115 0.00051052914 0)
(0.83896425 0.00049030102 0)
(0.83508997 0.00046995813 0)
(0.83130847 0.00044987858 0)
(0.82761645 0.00043089489 0)
(0.82400643 0.00041220824 0)
(0.82047367 0.00039359939 0)
(0.81701549 0.00037574602 0)
(0.81362712 0.00035918277 0)
(0.81030189 0.00034350783 0)
(0.80702142 0.00032866808 0)
(0.80379354 0.00031488199 0)
(0.8006194 0.00030171666 0)
(0.79749989 0.00028862332 0)
(0.79443832 0.00027591198 0)
(0.79143263 0.00026410654 0)
(0.78847865 0.00025232128 0)
(0.78557998 0.00024090188 0)
(0.78272724 0.00023081245 0)
(0.77991254 0.00022113675 0)
(0.77713948 0.00021166846 0)
(0.77441004 0.00020298909 0)
(0.77172171 0.00019445925 0)
(0.76907652 0.00018596554 0)
(0.76647555 0.00017814298 0)
(0.76391167 0.00017062551 0)
(0.76138307 0.00016340861 0)
(0.75888922 0.0001568456 0)
(0.75642835 0.00015042614 0)
(0.7540022 0.00014415748 0)
(0.75161148 0.00013820841 0)
(0.74925384 0.0001324657 0)
(0.74692617 0.00012715104 0)
(0.74462641 0.00012204377 0)
(0.74235579 0.0001171235 0)
(0.74011375 0.00011246849 0)
(0.7379002 0.00010796842 0)
(0.73571046 0.00010373275 0)
(0.73354901 0.00010003659 0)
(0.73138647 9.5837121e-05 0)
(0.72930933 9.2963292e-05 0)
(0.72708613 0.0001189357 0)
(0.72523599 0.00016617019 0)
(0.72180272 0.00012541254 0)
(0.99664413 0.0022648216 0)
(0.99702528 0.0027802408 0)
(0.99753071 0.0030271893 0)
(0.99792647 0.003111195 0)
(0.9982012 0.0031510612 0)
(0.99843289 0.0031542383 0)
(0.99864917 0.0031311987 0)
(0.99884461 0.0031071635 0)
(0.99901809 0.0030850374 0)
(0.99917476 0.0030721927 0)
(0.99931975 0.0030670843 0)
(0.99945658 0.0030680903 0)
(0.99958922 0.0030688465 0)
(0.99971759 0.0030679216 0)
(0.99984068 0.0030609477 0)
(0.99995832 0.003045423 0)
(1.0000708 0.0030234606 0)
(1.0001731 0.002995859 0)
(1.0002823 0.0029646331 0)
(1.0003896 0.0029280902 0)
(1.0004859 0.0028816145 0)
(1.000564 0.0028273255 0)
(1.0006214 0.0027690731 0)
(1.0006536 0.0027083703 0)
(1.0006615 0.0026508354 0)
(1.0006415 0.002598195 0)
(1.0005844 0.0025436763 0)
(1.0004747 0.0024860812 0)
(1.0002937 0.0024287098 0)
(1.0000198 0.002373581 0)
(0.99962367 0.0023204948 0)
(0.99907134 0.0022729676 0)
(0.9982961 0.0022309552 0)
(0.99722368 0.0021934411 0)
(0.99578321 0.002153935 0)
(0.99390025 0.0021106265 0)
(0.99150486 0.0020620095 0)
(0.98851659 0.0020096722 0)
(0.98496416 0.0019512708 0)
(0.98064574 0.0018829146 0)
(0.97570943 0.0018032418 0)
(0.97023837 0.0017160671 0)
(0.9643237 0.001623875 0)
(0.95809715 0.0015304506 0)
(0.95169398 0.0014388722 0)
(0.94521219 0.0013518554 0)
(0.93873445 0.0012718574 0)
(0.93233414 0.0011976243 0)
(0.92608065 0.0011312799 0)
(0.91991503 0.0010705996 0)
(0.91387902 0.0010134198 0)
(0.90801279 0.00096066324 0)
(0.90233746 0.00091156355 0)
(0.89687355 0.00086402191 0)
(0.89161581 0.00081849381 0)
(0.88655345 0.00077764372 0)
(0.88167755 0.00074143674 0)
(0.87696312 0.00070782186 0)
(0.8723987 0.00067485337 0)
(0.86798507 0.00064294687 0)
(0.86370895 0.00061327818 0)
(0.85955095 0.00058495082 0)
(0.85549775 0.00055745429 0)
(0.85154424 0.00053124534 0)
(0.84768786 0.00050678706 0)
(0.84392382 0.00048349716 0)
(0.84024916 0.00046166409 0)
(0.83665681 0.00044165361 0)
(0.83313916 0.00042260751 0)
(0.82969392 0.00040377304 0)
(0.82632238 0.00038553127 0)
(0.82302024 0.00036858763 0)
(0.8197812 0.00035185256 0)
(0.8166079 0.00033588377 0)
(0.81348249 0.00032174894 0)
(0.81040279 0.00030807375 0)
(0.80737608 0.00029460455 0)
(0.80440401 0.00028213718 0)
(0.80148319 0.00026996107 0)
(0.79861453 0.00025792201 0)
(0.79579845 0.00024686026 0)
(0.79302369 0.00023636445 0)
(0.79028885 0.00022628022 0)
(0.78759559 0.00021699193 0)
(0.78494275 0.00020792784 0)
(0.78233161 0.00019909608 0)
(0.77976257 0.00019072727 0)
(0.77723116 0.00018271818 0)
(0.7747336 0.00017529096 0)
(0.77226882 0.00016814817 0)
(0.76983856 0.00016126006 0)
(0.76744223 0.00015473025 0)
(0.76507911 0.00014846195 0)
(0.76274327 0.00014255126 0)
(0.7604393 0.00013741409 0)
(0.75813873 0.00013148078 0)
(0.75592669 0.00012748857 0)
(0.7535726 0.00014920594 0)
(0.75160772 0.00019629484 0)
(0.74798015 0.00015016786 0)
(0.99681407 0.0021857722 0)
(0.9971349 0.0026677153 0)
(0.99757619 0.002910343 0)
(0.99794293 0.0029995229 0)
(0.99821095 0.0030549877 0)
(0.99844004 0.0030978299 0)
(0.99865505 0.003123522 0)
(0.99884965 0.0031379761 0)
(0.99902176 0.0031467211 0)
(0.99917589 0.0031464517 0)
(0.99931723 0.0031429286 0)
(0.99945029 0.0031360981 0)
(0.99957924 0.0031245182 0)
(0.99970492 0.0031061696 0)
(0.9998268 0.0030817743 0)
(0.99994488 0.0030523088 0)
(1.0000589 0.0030187633 0)
(1.0001681 0.0029815661 0)
(1.000273 0.0029428381 0)
(1.0003756 0.002902249 0)
(1.0004758 0.0028554076 0)
(1.0005692 0.0028026228 0)
(1.0006529 0.0027464836 0)
(1.0007264 0.0026881274 0)
(1.0007909 0.002631073 0)
(1.0008464 0.0025765323 0)
(1.0009047 0.0025211231 0)
(1.0009572 0.002465221 0)
(1.0009934 0.0024113363 0)
(1.0010164 0.0023611019 0)
(1.0010254 0.0023147194 0)
(1.0010198 0.002275028 0)
(1.0009974 0.0022449243 0)
(1.0009507 0.0022185328 0)
(1.0008639 0.002191852 0)
(1.0007142 0.0021655217 0)
(1.0004716 0.002140919 0)
(1.0000929 0.0021162231 0)
(0.99952843 0.0020949776 0)
(0.998675 0.0020790445 0)
(0.9974453 0.0020589779 0)
(0.99574766 0.0020308773 0)
(0.99348753 0.0019963019 0)
(0.99063257 0.0019563863 0)
(0.98713408 0.0019066054 0)
(0.98287568 0.0018443256 0)
(0.97799994 0.0017705518 0)
(0.97260827 0.001689101 0)
(0.96682001 0.0016023303 0)
(0.96079995 0.0015150957 0)
(0.95464896 0.0014318431 0)
(0.94845725 0.0013538738 0)
(0.94229704 0.0012798151 0)
(0.93624904 0.0012102402 0)
(0.93025898 0.0011457504 0)
(0.92434418 0.0010859968 0)
(0.9185577 0.0010300836 0)
(0.9129388 0.00097700781 0)
(0.90752187 0.00092573074 0)
(0.90230204 0.00087753577 0)
(0.89725191 0.00083343522 0)
(0.89234794 0.00079219613 0)
(0.88758206 0.00075278065 0)
(0.88295955 0.00071529017 0)
(0.87848146 0.00068039776 0)
(0.8741361 0.00064759292 0)
(0.86992897 0.00061699201 0)
(0.86584158 0.00058873013 0)
(0.86186395 0.00056191384 0)
(0.85799036 0.00053574653 0)
(0.85421608 0.00051070237 0)
(0.8505305 0.00048756036 0)
(0.84692566 0.00046491574 0)
(0.84340269 0.00044321495 0)
(0.83995895 0.0004238374 0)
(0.83658675 0.00040533229 0)
(0.8332843 0.00038724937 0)
(0.83004954 0.00037044626 0)
(0.82687773 0.00035411213 0)
(0.82376848 0.00033805401 0)
(0.82072102 0.00032339346 0)
(0.81771769 0.00030958555 0)
(0.81476119 0.00029621892 0)
(0.81185605 0.00028375951 0)
(0.80900052 0.00027163273 0)
(0.8061949 0.00025985134 0)
(0.80343899 0.00024873948 0)
(0.8007251 0.0002382023 0)
(0.79804961 0.00022839223 0)
(0.79541328 0.00021892841 0)
(0.79281809 0.00020979583 0)
(0.79026306 0.00020113691 0)
(0.78774648 0.0001928835 0)
(0.78526078 0.00018510091 0)
(0.78281124 0.00017832886 0)
(0.78037057 0.00017045738 0)
(0.77802225 0.00016526621 0)
(0.77553615 0.00018325974 0)
(0.77345461 0.0002311803 0)
(0.76963709 0.00017923595 0)
(0.99697173 0.0021164102 0)
(0.99724273 0.0025601732 0)
(0.99762798 0.0028099103 0)
(0.99796765 0.002922942 0)
(0.99822801 0.0029966856 0)
(0.998451 0.0030523378 0)
(0.99865961 0.0030803883 0)
(0.99884973 0.0030892806 0)
(0.99901915 0.0030865533 0)
(0.99917182 0.0030784921 0)
(0.99931261 0.0030674853 0)
(0.99944566 0.0030544289 0)
(0.99957425 0.0030427077 0)
(0.9996994 0.0030285156 0)
(0.99982072 0.0030116094 0)
(0.99993802 0.0029905399 0)
(1.0000508 0.0029655769 0)
(1.0001586 0.0029368737 0)
(1.0002617 0.0029059348 0)
(1.0003621 0.0028722067 0)
(1.0004598 0.0028316502 0)
(1.0005517 0.0027840415 0)
(1.0006352 0.0027319052 0)
(1.0007098 0.0026768031 0)
(1.000776 0.002621949 0)
(1.0008361 0.0025689534 0)
(1.0008918 0.0025156537 0)
(1.0009417 0.0024622582 0)
(1.0009847 0.0024103913 0)
(1.0010208 0.002361259 0)
(1.0010506 0.0023150967 0)
(1.0010754 0.002274539 0)
(1.0010966 0.0022409312 0)
(1.0011224 0.0022109272 0)
(1.0011485 0.0021824929 0)
(1.0011693 0.0021565102 0)
(1.0011839 0.0021339204 0)
(1.0011891 0.0021137996 0)
(1.0011823 0.0021013491 0)
(1.001159 0.0020954583 0)
(1.0011031 0.0020873743 0)
(1.0009862 0.0020768156 0)
(1.0007689 0.0020639696 0)
(1.0004012 0.0020496407 0)
(0.99980842 0.0020369942 0)
(0.99887699 0.0020239742 0)
(0.99750425 0.0020039683 0)
(0.9955891 0.0019753022 0)
(0.99304406 0.0019395016 0)
(0.98985308 0.0018953995 0)
(0.98589413 0.0018385952 0)
(0.98131598 0.0017696414 0)
(0.9762231 0.0016919722 0)
(0.97074667 0.0016071479 0)
(0.96503468 0.0015215563 0)
(0.95918114 0.0014416396 0)
(0.95326311 0.0013668395 0)
(0.94735099 0.0012946274 0)
(0.94153192 0.0012263345 0)
(0.93573721 0.0011635308 0)
(0.92998944 0.0011045869 0)
(0.92434021 0.0010475353 0)
(0.91883466 0.00099202106 0)
(0.91350434 0.00093942383 0)
(0.90833287 0.00089101495 0)
(0.9032992 0.00084538484 0)
(0.89840677 0.00080260363 0)
(0.89366296 0.0007630583 0)
(0.88907512 0.00072579464 0)
(0.88463128 0.00069006564 0)
(0.88031718 0.00065644418 0)
(0.87611708 0.00062549731 0)
(0.87202798 0.00059537369 0)
(0.8680498 0.00056664479 0)
(0.86419055 0.00054086407 0)
(0.86043549 0.00051629269 0)
(0.85677529 0.00049245514 0)
(0.85320476 0.0004703338 0)
(0.84971605 0.00044900184 0)
(0.84630543 0.00042821633 0)
(0.84296897 0.00040913852 0)
(0.83970114 0.00039118416 0)
(0.83650111 0.00037393008 0)
(0.83336599 0.00035784389 0)
(0.83029092 0.00034225062 0)
(0.82727504 0.00032713925 0)
(0.82431738 0.00031297869 0)
(0.82140543 0.00029963196 0)
(0.81853801 0.00028710605 0)
(0.81571845 0.00027496998 0)
(0.81294796 0.0002632639 0)
(0.81022475 0.00025218464 0)
(0.80754561 0.00024171069 0)
(0.80490104 0.0002318359 0)
(0.8022982 0.00022319394 0)
(0.79971084 0.00021314576 0)
(0.7972202 0.00020674417 0)
(0.79459669 0.00022110385 0)
(0.79239225 0.00027076577 0)
(0.78838286 0.00021183072 0)
(0.99711831 0.0020585173 0)
(0.99734902 0.0024663127 0)
(0.9976851 0.0027193042 0)
(0.99799703 0.0028478498 0)
(0.99824688 0.0029290538 0)
(0.99846255 0.0029884921 0)
(0.99866467 0.003022078 0)
(0.99885116 0.0030373815 0)
(0.99901906 0.0030435055 0)
(0.99917119 0.0030448912 0)
(0.99931203 0.0030435659 0)
(0.9994452 0.0030415619 0)
(0.99957327 0.0030360327 0)
(0.99969745 0.0030273861 0)
(0.9998178 0.003013229 0)
(0.9999341 0.0029939491 0)
(1.0000459 0.002969491 0)
(1.0001529 0.0029403853 0)
(1.0002554 0.0029080546 0)
(1.0003548 0.0028722828 0)
(1.0004513 0.0028300935 0)
(1.0005421 0.0027813193 0)
(1.000625 0.0027283803 0)
(1.0006992 0.0026730212 0)
(1.0007651 0.002617975 0)
(1.0008248 0.0025647763 0)
(1.0008797 0.0025117191 0)
(1.000929 0.0024586105 0)
(1.0009717 0.002406809 0)
(1.0010084 0.0023576597 0)
(1.0010394 0.0023117083 0)
(1.0010656 0.0022712531 0)
(1.0010898 0.0022374537 0)
(1.0011145 0.002207972 0)
(1.0011398 0.0021807892 0)
(1.0011641 0.0021559446 0)
(1.0011871 0.0021338435 0)
(1.0012083 0.0021137724 0)
(1.0012284 0.0020994568 0)
(1.0012508 0.0020906022 0)
(1.0012794 0.0020803442 0)
(1.0013132 0.002068891 0)
(1.0013387 0.0020577566 0)
(1.0013524 0.002048129 0)
(1.0013521 0.0020437298 0)
(1.0013279 0.002041592 0)
(1.0012548 0.0020365646 0)
(1.0010931 0.0020280643 0)
(1.0007866 0.0020166775 0)
(1.0002565 0.0020051905 0)
(0.99938066 0.001991288 0)
(0.99804938 0.0019695916 0)
(0.99615468 0.0019380718 0)
(0.99361865 0.0018971668 0)
(0.99031964 0.0018482673 0)
(0.98632899 0.0017879182 0)
(0.98177384 0.0017187602 0)
(0.97677125 0.0016417103 0)
(0.97145297 0.001559309 0)
(0.96593944 0.0014795905 0)
(0.96030352 0.0014058145 0)
(0.95461048 0.0013349437 0)
(0.94893266 0.0012655443 0)
(0.94330808 0.0012010901 0)
(0.93766491 0.001141415 0)
(0.93205638 0.0010828311 0)
(0.92654453 0.0010257325 0)
(0.92118585 0.00097224577 0)
(0.91597563 0.00092230557 0)
(0.91089967 0.00087476599 0)
(0.90595572 0.00083028614 0)
(0.90114759 0.00078916476 0)
(0.89648619 0.00074935854 0)
(0.89196623 0.00071149374 0)
(0.88758025 0.00067727171 0)
(0.88331889 0.00064484357 0)
(0.87918474 0.00061362817 0)
(0.87517303 0.00058480832 0)
(0.87126968 0.00055733107 0)
(0.86746676 0.00053080432 0)
(0.8637587 0.00050641823 0)
(0.8601521 0.00048344956 0)
(0.85664173 0.00046142767 0)
(0.85321612 0.00044094881 0)
(0.84986692 0.00042122695 0)
(0.8465915 0.00040221186 0)
(0.84338584 0.00038438375 0)
(0.84024557 0.00036760715 0)
(0.83716785 0.0003518997 0)
(0.83414962 0.00033673592 0)
(0.8311894 0.00032214155 0)
(0.82828435 0.00030836491 0)
(0.82542916 0.00029543832 0)
(0.82261245 0.00028321307 0)
(0.81984518 0.00027241807 0)
(0.81710118 0.00025991641 0)
(0.81445899 0.0002521283 0)
(0.81168903 0.00026289211 0)
(0.80935228 0.0003149268 0)
(0.80514525 0.00024779521 0)
(0.99725474 0.0020086571 0)
(0.99745273 0.0023823126 0)
(0.99774569 0.0026327359 0)
(0.99803019 0.0027720763 0)
(0.99826832 0.002860942 0)
(0.99847679 0.0029271228 0)
(0.99867268 0.0029698252 0)
(0.99885514 0.0029934775 0)
(0.99902079 0.0030059098 0)
(0.99917154 0.0030113864 0)
(0.99931141 0.0030123302 0)
(0.99944377 0.0030096941 0)
(0.99957088 0.0030038095 0)
(0.99969399 0.0029933547 0)
(0.9998134 0.0029784008 0)
(0.99992884 0.0029588023 0)
(1.0000399 0.0029346437 0)
(1.0001464 0.0029064739 0)
(1.0002486 0.0028753268 0)
(1.0003475 0.0028409965 0)
(1.0004432 0.0028010979 0)
(1.0005335 0.0027552116 0)
(1.0006161 0.0027052955 0)
(1.0006905 0.002653012 0)
(1.0007568 0.0026006271 0)
(1.0008168 0.0025495467 0)
(1.0008719 0.0024985208 0)
(1.0009214 0.0024473082 0)
(1.0009646 0.0023972182 0)
(1.0010016 0.0023496525 0)
(1.0010331 0.0023052599 0)
(1.00106 0.0022659365 0)
(1.0010846 0.0022327823 0)
(1.0011092 0.0022038666 0)
(1.0011342 0.0021771024 0)
(1.0011584 0.0021523326 0)
(1.0011816 0.002130127 0)
(1.0012035 0.002110132 0)
(1.0012247 0.0020954711 0)
(1.001249 0.002086262 0)
(1.001278 0.0020764126 0)
(1.0013087 0.0020656103 0)
(1.0013387 0.002054931 0)
(1.0013672 0.0020453381 0)
(1.0013959 0.0020396829 0)
(1.0014272 0.0020359064 0)
(1.0014629 0.0020294015 0)
(1.0015038 0.0020213056 0)
(1.0015304 0.0020132383 0)
(1.0015392 0.0020088734 0)
(1.0015221 0.0020059646 0)
(1.00145 0.0019989768 0)
(1.0012768 0.001987027 0)
(1.0009364 0.0019726711 0)
(1.0003152 0.0019581805 0)
(0.99929324 0.0019390249 0)
(0.99775502 0.0019117662 0)
(0.99561398 0.0018740055 0)
(0.99270336 0.0018268583 0)
(0.98903968 0.001770859 0)
(0.98479903 0.0017073041 0)
(0.98010581 0.0016358557 0)
(0.97508225 0.0015582721 0)
(0.96983231 0.001480994 0)
(0.96443452 0.0014089083 0)
(0.95894462 0.0013401049 0)
(0.95342302 0.0012723117 0)
(0.94794826 0.0012095203 0)
(0.94241964 0.001150555 0)
(0.93689011 0.001092159 0)
(0.93143136 0.001035383 0)
(0.92610321 0.0009821101 0)
(0.92090292 0.00093107614 0)
(0.91582229 0.0008825289 0)
(0.91086299 0.00083824919 0)
(0.90603728 0.00079606747 0)
(0.90136362 0.00075560247 0)
(0.89683425 0.00071846597 0)
(0.8924321 0.0006834022 0)
(0.88815425 0.00064972645 0)
(0.88400056 0.00061856713 0)
(0.87996913 0.00058912816 0)
(0.87605509 0.00056113005 0)
(0.87225062 0.00053521428 0)
(0.86854775 0.00051043427 0)
(0.86494072 0.00048672565 0)
(0.86142066 0.00046456147 0)
(0.8579922 0.00044369752 0)
(0.85465133 0.00042414338 0)
(0.8513871 0.00040537856 0)
(0.84819414 0.0003874143 0)
(0.84506782 0.00037047618 0)
(0.84200461 0.00035458892 0)
(0.83899872 0.00033959471 0)
(0.83605327 0.00032635362 0)
(0.8331398 0.00031113588 0)
(0.83033389 0.00030180112 0)
(0.8274052 0.00030889563 0)
(0.82492401 0.00036354823 0)
(0.8205114 0.00028724023 0)
(0.99738205 0.0019653434 0)
(0.9975533 0.0023072959 0)
(0.99780885 0.0025515305 0)
(0.99806711 0.0026989525 0)
(0.99829271 0.002795508 0)
(0.99849363 0.0028678905 0)
(0.99868294 0.0029175877 0)
(0.99886062 0.0029472252 0)
(0.9990234 0.0029639792 0)
(0.99917243 0.0029729158 0)
(0.9993112 0.0029767378 0)
(0.99944274 0.0029767551 0)
(0.99956907 0.0029733137 0)
(0.99969134 0.0029659164 0)
(0.99980988 0.0029540707 0)
(0.99992448 0.0029374894 0)
(1.0000348 0.002916257 0)
(1.0001407 0.0028907828 0)
(1.0002424 0.0028617996 0)
(1.0003406 0.0028291624 0)
(1.0004354 0.0027910367 0)
(1.000525 0.0027469611 0)
(1.0006073 0.0026986299 0)
(1.0006816 0.0026477566 0)
(1.0007482 0.0025963828 0)
(1.0008086 0.0025458871 0)
(1.0008638 0.0024954739 0)
(1.0009137 0.0024449417 0)
(1.0009573 0.0023954844 0)
(1.000995 0.0023484507 0)
(1.0010273 0.0023045426 0)
(1.001055 0.0022653767 0)
(1.0010803 0.0022319914 0)
(1.0011055 0.0022027898 0)
(1.0011308 0.0021758399 0)
(1.0011554 0.0021509618 0)
(1.0011789 0.0021287574 0)
(1.0012011 0.0021090174 0)
(1.0012227 0.0020942723 0)
(1.0012469 0.0020846799 0)
(1.0012752 0.0020748306 0)
(1.0013052 0.0020639938 0)
(1.001335 0.0020532091 0)
(1.0013638 0.0020434735 0)
(1.0013932 0.0020373327 0)
(1.0014262 0.0020330654 0)
(1.0014628 0.0020265426 0)
(1.0015001 0.0020185977 0)
(1.0015358 0.0020106757 0)
(1.0015711 0.0020054436 0)
(1.0016096 0.002000966 0)
(1.0016463 0.0019929024 0)
(1.0016952 0.0019819139 0)
(1.0017225 0.0019726811 0)
(1.0017258 0.0019665354 0)
(1.0016892 0.0019587147 0)
(1.001572 0.0019465496 0)
(1.0013139 0.0019317514 0)
(1.0008066 0.0019160109 0)
(0.99991636 0.0018981161 0)
(0.99852262 0.0018722636 0)
(0.99653367 0.0018362649 0)
(0.99378296 0.0017893419 0)
(0.99022106 0.0017325043 0)
(0.98609174 0.0016712448 0)
(0.98154573 0.0016032068 0)
(0.97669003 0.0015300115 0)
(0.97161304 0.0014571426 0)
(0.96638349 0.0013881897 0)
(0.96105048 0.001322044 0)
(0.95566972 0.0012571566 0)
(0.95031468 0.0011965972 0)
(0.94488898 0.0011380085 0)
(0.93944794 0.0010800492 0)
(0.93406436 0.0010251267 0)
(0.92879298 0.00097219087 0)
(0.92363436 0.0009215969 0)
(0.91858637 0.00087488826 0)
(0.9136571 0.00083062401 0)
(0.90886657 0.00078809714 0)
(0.90422045 0.00074871711 0)
(0.89970616 0.00071162406 0)
(0.89532101 0.00067641173 0)
(0.89106921 0.00064376787 0)
(0.88694561 0.0006127775 0)
(0.8829402 0.00058339035 0)
(0.87904346 0.00055586805 0)
(0.87525779 0.00052982262 0)
(0.87158066 0.00050550101 0)
(0.86800132 0.00048238195 0)
(0.86451309 0.00046038109 0)
(0.8611092 0.00043970398 0)
(0.85778683 0.00042033964 0)
(0.8545463 0.00040206249 0)
(0.85138243 0.00038589557 0)
(0.84826355 0.00036757595 0)
(0.84525984 0.0003563323 0)
(0.84214844 0.00035949357 0)
(0.8395084 0.00041649748 0)
(0.83488142 0.00033044614 0)
(0.99750119 0.0019272423 0)
(0.99765044 0.0022401773 0)
(0.99787375 0.0024758236 0)
(0.99810738 0.0026284905 0)
(0.99831982 0.0027315638 0)
(0.99851272 0.0028090259 0)
(0.9986952 0.0028644235 0)
(0.99886772 0.0028997584 0)
(0.99902731 0.0029214003 0)
(0.99917442 0.0029346034 0)
(0.9993119 0.0029420712 0)
(0.99944242 0.0029450458 0)
(0.99956778 0.0029439257 0)
(0.99968902 0.0029384168 0)
(0.99980649 0.0029280371 0)
(0.99992008 0.0029126721 0)
(1.0000295 0.0028925259 0)
(1.0001347 0.002868016 0)
(1.0002358 0.0028397667 0)
(1.0003333 0.0028077445 0)
(1.0004273 0.0027705876 0)
(1.0005161 0.0027278666 0)
(1.0005981 0.0026810295 0)
(1.0006724 0.00263175 0)
(1.0007393 0.0025818413 0)
(1.0008001 0.0025325754 0)
(1.0008556 0.002483463 0)
(1.0009057 0.0024343144 0)
(1.0009499 0.0023861692 0)
(1.0009882 0.0023403088 0)
(1.0010212 0.002297494 0)
(1.0010498 0.0022591294 0)
(1.001076 0.00222617 0)
(1.0011017 0.0021973118 0)
(1.0011274 0.0021707983 0)
(1.0011523 0.002146374 0)
(1.0011762 0.0021245726 0)
(1.001199 0.0021052908 0)
(1.0012212 0.0020905763 0)
(1.0012457 0.0020806262 0)
(1.0012739 0.0020707549 0)
(1.0013039 0.0020599841 0)
(1.0013336 0.00204934 0)
(1.0013626 0.0020398277 0)
(1.0013921 0.0020336322 0)
(1.0014246 0.0020292845 0)