/*--------------------------------*- C++ -*----------------------------------*\
  =========                 |
  \\      /  F ield         | OpenFOAM: The Open Source CFD Toolbox
   \\    /   O peration     | Website:  https://openfoam.org
    \\  /    A nd           | Version:  12
     \\/     M anipulation  |
\*---------------------------------------------------------------------------*/
FoamFile
{
    format      ascii;
    class       volScalarField;
    location    "800";
    object      epsilon;
}
// * * * * * * * * * * * * * * * * * * * * * * * * * * * * * * * * * * * * * //

dimensions      [0 2 -3 0 0 0 0];

internalField   nonuniform List<scalar> 
7480
(
0.0027053408
0.0047301345
0.0084300711
0.014737959
0.025060603
0.041251285
0.065442176
0.099647243
0.14514768
0.20175289
0.26724948
0.33755378
0.40739955
0.47144168
0.52529821
0.56648605
0.59321576
0.61192532
0.61130349
0.60607454
0.59461717
0.5788558
0.56058246
0.54129886
0.52222013
0.50431206
0.48832614
0.47480832
0.46410809
0.45633574
0.4512863
0.44841746
0.44692046
0.44591228
0.44467823
0.44282684
0.44029433
0.43723209
0.43385215
0.43031222
0.42668086
0.422966
0.41916556
0.41530056
0.41141451
0.40755302
0.40374573
0.40000309
0.39632519
0.39271094
0.38916094
0.38567526
0.3822536
0.37889443
0.37559579
0.3723561
0.36917397
0.36604759
0.3629751
0.35995574
0.3569879
0.3540693
0.35119802
0.34837264
0.34559186
0.3428546
0.34015975
0.33750613
0.33489265
0.33231825
0.32978183
0.32728239
0.32481902
0.32239075
0.31999664
0.31763584
0.31530754
0.31301094
0.31074526
0.30850977
0.30630375
0.30412649
0.30197732
0.29985557
0.29776058
0.29569172
0.29364835
0.29162982
0.28963551
0.28766464
0.28571671
0.2837905
0.28188619
0.2799998
0.27813652
0.27627704
0.27445751
0.27255965
0.27095568
0.26801503
8.4966263e-05
0.00017216616
0.00029193005
0.00047029789
0.00075257876
0.0012136299
0.001968407
0.0031739198
0.0050105564
0.0076388233
0.011143954
0.015570877
0.020868812
0.026778953
0.032940483
0.039028665
0.044673208
0.050115708
0.055004466
0.059806549
0.065111269
0.072013041
0.08070356
0.090113959
0.100335
0.11158227
0.12389731
0.13699004
0.15039328
0.1633924
0.1750155
0.18431423
0.19064701
0.19390624
0.19452601
0.19328646
0.19102903
0.18842348
0.18584481
0.18340431
0.18106841
0.17877335
0.17649282
0.17424581
0.17206844
0.16998431
0.16799569
0.16609143
0.16425771
0.16248502
0.16076761
0.15910068
0.15747945
0.15589981
0.15435853
0.1528528
0.15138006
0.14993814
0.14852541
0.14714101
0.14578338
0.14445091
0.14314245
0.14185729
0.14059473
0.13935414
0.13813492
0.13693646
0.13575819
0.13459958
0.13346013
0.13233937
0.13123685
0.13015214
0.12908483
0.12803452
0.12700081
0.1259833
0.12498163
0.12399541
0.12302428
0.12206789
0.12112588
0.12019792
0.11928365
0.11838275
0.11749489
0.11661973
0.11575696
0.11490623
0.11406723
0.11323959
0.11242301
0.11161692
0.11082119
0.11003414
0.10925842
0.10847497
0.10777996
0.10659014
2.0245532e-05
3.1314262e-05
4.5470892e-05
6.2839026e-05
8.4737534e-05
0.00011323718
0.00015106407
0.00020147392
0.00026796052
0.00035389668
0.00046222737
0.0005958902
0.00075769779
0.00094916604
0.0011696728
0.0014167294
0.0016842627
0.0019685869
0.0022636503
0.0025690193
0.0028922585
0.0032628712
0.0037230424
0.0043235134
0.0051332411
0.0062470073
0.0077756625
0.0099900435
0.013159436
0.017590311
0.024115764
0.032031872
0.041026493
0.050688343
0.0603505
0.069346506
0.077051289
0.083023293
0.087143936
0.089608714
0.090817723
0.091226614
0.091218534
0.09103081
0.090761941
0.090428122
0.090020924
0.089541563
0.089007782
0.088441799
0.087858776
0.087264755
0.086661067
0.086048742
0.085429696
0.084805935
0.084178929
0.083549702
0.082919081
0.082287807
0.081656653
0.081026284
0.080397299
0.079770286
0.0791458
0.07852435
0.077906406
0.077292375
0.076682612
0.076077443
0.075477165
0.074882055
0.074292347
0.073708254
0.073129969
0.072557654
0.071991438
0.071431425
0.070877698
0.070330319
0.06978933
0.069254758
0.068726609
0.068204874
0.067689533
0.067180551
0.066677884
0.066181479
0.06569127
0.065207191
0.064729147
0.064257076
0.063790801
0.063330363
0.062875239
0.062426011
0.061981653
0.06153697
0.061141906
0.060461626
1.4164393e-05
1.6589708e-05
2.0058332e-05
2.4301534e-05
2.9284702e-05
3.5121248e-05
4.2009315e-05
5.0189782e-05
5.9910237e-05
7.1394392e-05
8.4819107e-05
0.00010032313
0.00011801781
0.00013796666
0.00016015388
0.00018447643
0.00021070179
0.00023856511
0.00026773926
0.00029794276
0.00032899271
0.00036114183
0.00039503893
0.00043217653
0.00047499197
0.00052726499
0.00059445041
0.00068570067
0.00081622229
0.0010072505
0.0013118557
0.0017886173
0.0025234272
0.0036138523
0.005294747
0.0077185777
0.011266812
0.015922866
0.021315887
0.027066673
0.032756021
0.037981884
0.042411588
0.045878133
0.04840279
0.050153223
0.051359309
0.052226182
0.052884781
0.053394455
0.053774461
0.054035919
0.054195805
0.054274818
0.054290444
0.054254136
0.054173161
0.054053282
0.053899836
0.053717541
0.053510373
0.053281607
0.05303403
0.052770111
0.05249204
0.052201753
0.051900963
0.051591185
0.051273765
0.05094992
0.050620743
0.050287222
0.049950247
0.049610618
0.049269061
0.048926229
0.048582705
0.048239013
0.047895618
0.047552936
0.047211335
0.046871141
0.046532639
0.04619608
0.045861682
0.045529633
0.045200097
0.044873216
0.044549105
0.044227873
0.043909589
0.043594351
0.043282128
0.04297315
0.042667
0.042364648
0.042064764
0.041765406
0.04150068
0.041040561
1.3134526e-05
1.374132e-05
1.4799794e-05
1.624071e-05
1.8000602e-05
2.0051343e-05
2.2396538e-05
2.5060106e-05
2.8075378e-05
3.1476574e-05
3.5292766e-05
3.9545904e-05
4.4251503e-05
4.9418459e-05
5.5047197e-05
6.1128471e-05
6.7639985e-05
7.4549414e-05
8.1814511e-05
8.9388652e-05
9.7223697e-05
0.00010528745
0.00011356972
0.00012210646
0.00013099691
0.00014043659
0.00015073271
0.00016234956
0.00017605216
0.00019282823
0.00021462413
0.00024413741
0.00028547961
0.00034437776
0.00043216329
0.00056481496
0.00077667013
0.0011218912
0.0016668475
0.0025370298
0.00386097
0.0057888327
0.0084896348
0.01174399
0.015317549
0.018950667
0.02238323
0.025403297
0.027902207
0.029882021
0.031427697
0.03265322
0.03365283
0.034482653
0.035169726
0.035730327
0.036181102
0.036539739
0.03682156
0.037037906
0.037197261
0.037306744
0.0373727
0.037400654
0.037395266
0.03736051
0.03729986
0.037216373
0.037112736
0.03699133
0.036854264
0.036703427
0.036540506
0.03636701
0.036184296
0.035993585
0.035795977
0.035592458
0.03538392
0.03517116
0.034954895
0.034735769
0.03451436
0.034291183
0.034066701
0.033841326
0.03361543
0.033389341
0.033163353
0.032937735
0.032712711
0.032488514
0.032265263
0.032043288
0.031822366
0.031603461
0.0313856
0.031167555
0.030976222
0.030638834
1.2893955e-05
1.3041619e-05
1.3361127e-05
1.3872246e-05
1.4565853e-05
1.5424877e-05
1.6436287e-05
1.7594289e-05
1.8899147e-05
2.0354705e-05
2.1965986e-05
2.3737598e-05
2.5673023e-05
2.7774345e-05
3.0041979e-05
3.2474404e-05
3.5067724e-05
3.7815603e-05
4.0709118e-05
4.3737389e-05
4.6887965e-05
5.0148415e-05
5.350766e-05
5.695879e-05
6.0502127e-05
6.4150215e-05
6.792904e-05
7.1884139e-05
7.6093674e-05
8.0668166e-05
8.5782602e-05
9.1707381e-05
9.881879e-05
0.0001076182
0.00011888606
0.00013370062
0.00015386812
0.00018222704
0.00022297719
0.00028365411
0.00037619651
0.00052077952
0.00075737864
0.0011348014
0.0017518425
0.0026943727
0.00410553
0.0059862041
0.0082210753
0.010651768
0.013106827
0.015420675
0.017476585
0.019226209
0.02068588
0.02190711
0.022942607
0.023828407
0.024585228
0.025227606
0.025769739
0.026225592
0.026607105
0.026923725
0.027183185
0.027392243
0.027556867
0.02768221
0.027772723
0.027832308
0.027864414
0.02787209
0.027858039
0.027824664
0.027774114
0.027708313
0.027628986
0.027537685
0.027435802
0.027324591
0.027205178
0.027078577
0.026945702
0.026807373
0.026664329
0.026517237
0.026366696
0.026213247
0.026057374
0.025899523
0.025740081
0.025579426
0.025417829
0.025255716
0.025093066
0.024930777
0.024768309
0.024604569
0.024462027
0.024205622
1.27948e-05
1.2831952e-05
1.2922519e-05
1.3092136e-05
1.3355225e-05
1.3715586e-05
1.4171023e-05
1.4717626e-05
1.5352103e-05
1.6072471e-05
1.6877855e-05
1.7767989e-05
1.8742778e-05
1.980201e-05
2.0945176e-05
2.2171329e-05
2.3478995e-05
2.4866075e-05
2.6329743e-05
2.78665e-05
2.9472229e-05
3.1142338e-05
3.2871993e-05
3.4656527e-05
3.6492103e-05
3.8376147e-05
4.0311029e-05
4.2302569e-05
4.4361626e-05
4.65065e-05
4.876589e-05
5.1185121e-05
5.3829171e-05
5.6787016e-05
6.0177743e-05
6.4172355e-05
6.8980493e-05
7.4932067e-05
8.2472548e-05
9.2297887e-05
0.00010540556
0.00012325923
0.00014841999
0.00018467981
0.00023942773
0.00032336572
0.0004580738
0.00067616883
0.0010291217
0.0015933278
0.0024522647
0.0036583048
0.0051539361
0.0068442977
0.0086165723
0.010352717
0.011959229
0.013386122
0.014628175
0.015706641
0.016647317
0.01746917
0.018184872
0.018805241
0.019341176
0.019802913
0.020199159
0.020537217
0.020823488
0.021063682
0.02126283
0.021425342
0.021555122
0.021655644
0.02173
0.021780951
0.02181097
0.021822273
0.021816848
0.021796484
0.021762789
0.02171721
0.021661051
0.021595487
0.021521579
0.021440284
0.021352464
0.021258902
0.021160301
0.021057303
0.020950479
0.020840371
0.020727413
0.02061214
0.020494735
0.020376052
0.020255933
0.020133372
0.020027389
0.019831332
1.2708721e-05
1.2723045e-05
1.2751021e-05
1.2805211e-05
1.2898265e-05
1.3039806e-05
1.3235534e-05
1.3487928e-05
1.3797489e-05
1.4163791e-05
1.4586119e-05
1.5063742e-05
1.5595965e-05
1.6182092e-05
1.6821378e-05
1.7512971e-05
1.8255879e-05
1.9048929e-05
1.989072e-05
2.0779611e-05
2.1713734e-05
2.2690982e-05
2.3709041e-05
2.476548e-05
2.5857921e-05
2.6984125e-05
2.8142694e-05
2.9333317e-05
3.055704e-05
3.1816859e-05
3.3118294e-05
3.4470662e-05
3.5888074e-05
3.739087e-05
3.9006263e-05
4.0768773e-05
4.2744416e-05
4.5004388e-05
4.7636672e-05
5.0769699e-05
5.4574471e-05
5.9273936e-05
6.5188729e-05
7.2773638e-05
8.2791845e-05
9.6297128e-05
0.00011508674
0.00014196843
0.00018178715
0.00024276694
0.00033927259
0.00049531206
0.0007472113
0.0011527635
0.0017802473
0.0026560343
0.003750923
0.0050042365
0.006336008
0.0076618952
0.0089132015
0.010052334
0.011071561
0.011979296
0.012786719
0.013502646
0.014134544
0.014690106
0.015177111
0.015602655
0.01597296
0.016293605
0.016569644
0.016805617
0.01700558
0.017173174
0.017311671
0.017424011
0.017512839
0.017580535
0.017629244
0.017660901
0.01767725
0.017679867
0.017670174
0.017649458
0.017618881
0.017579496
0.017532255
0.017478024
0.017417582
0.017351651
0.017280848
0.017205839
0.017127006
0.017045208
0.0169606
0.01687235
0.016796392
0.016649628
1.2613511e-05
1.2623985e-05
1.26375e-05
1.2658112e-05
1.2691823e-05
1.274527e-05
1.2824526e-05
1.2934402e-05
1.3078263e-05
1.3258223e-05
1.3475464e-05
1.3730544e-05
1.402361e-05
1.4354538e-05
1.4723008e-05
1.5128546e-05
1.5570551e-05
1.6048301e-05
1.6560953e-05
1.710755e-05
1.7687024e-05
1.8298191e-05
1.8939747e-05
1.9610296e-05
2.0308401e-05
2.1032616e-05
2.1781639e-05
2.2554468e-05
2.3350543e-05
2.4169942e-05
2.5013571e-05
2.5883499e-05
2.678331e-05
2.7718583e-05
2.8697339e-05
2.972966e-05
3.0832504e-05
3.2028064e-05
3.3342872e-05
3.4811851e-05
3.6478861e-05
3.8402795e-05
4.0671703e-05
4.3384129e-05
4.6683466e-05
5.076104e-05
5.5898409e-05
6.2478547e-05
7.1115783e-05
8.2751232e-05
9.8895414e-05
0.0001219686
0.00015609847
0.0002083256
0.00029153812
0.00042507317
0.00064172898
0.00098665296
0.0015125261
0.00222335
0.0030956559
0.004085167
0.005130746
0.0061702071
0.0071569673
0.0080676403
0.0088968896
0.0096472826
0.010322807
0.010927619
0.011466584
0.011945109
0.012368502
0.012741689
0.013069254
0.013355451
0.013604183
0.013819008
0.014003166
0.014159603
0.014290993
0.014399762
0.014488111
0.014558035
0.014611342
0.014649674
0.014674516
0.014687219
0.014689007
0.014680991
0.014664179
0.014639498
0.014607761
0.014569786
0.01452616
0.014477789
0.014425083
0.014367503
0.014318012
0.014214429
1.2507036e-05
1.251695e-05
1.2527634e-05
1.2539935e-05
1.2555881e-05
1.2578447e-05
1.2611186e-05
1.2657792e-05
1.27217e-05
1.2805838e-05
1.2912535e-05
1.3043534e-05
1.320007e-05
1.3382951e-05
1.3592647e-05
1.3829349e-05
1.4093032e-05
1.4383492e-05
1.4700372e-05
1.5043191e-05
1.5411363e-05
1.5804208e-05
1.6220952e-05
1.6660742e-05
1.7122677e-05
1.7605819e-05
1.8109239e-05
1.8632085e-05
1.9173645e-05
1.9733442e-05
2.031131e-05
2.090751e-05
2.1522863e-05
2.2158917e-05
2.2818178e-05
2.350405e-05
2.422178e-05
2.4978933e-05
2.5785204e-05
2.6653108e-05
2.7598288e-05
2.864041e-05
2.9806909e-05
3.1130423e-05
3.2652597e-05
3.4424349e-05
3.6517757e-05
3.9038002e-05
4.2115266e-05
4.5935137e-05
5.076675e-05
5.6987983e-05
6.5187106e-05
7.628304e-05
9.182659e-05
0.00011421938
0.00014772524
0.00019941729
0.00028236067
0.00041424452
0.00062826474
0.00096637243
0.0014472266
0.0020696525
0.0028109092
0.0036302952
0.0044784713
0.0053116687
0.0061018291
0.0068363879
0.007511791
0.0081279219
0.008686132
0.0091890193
0.0096400405
0.010042931
0.010401409
0.010719092
0.010999441
0.011245709
0.011460923
0.011647882
0.011809166
0.011947141
0.012063974
0.012161647
0.012241966
0.012306583
0.012356999
0.012394586
0.01242059
0.012436157
0.01244231
0.012440038
0.012430131
0.012413583
0.012391018
0.01236229
0.012337413
0.012273719
1.2389964e-05
1.2399717e-05
1.2409858e-05
1.2420346e-05
1.243169e-05
1.2444898e-05
1.246147e-05
1.2483319e-05
1.2512622e-05
1.2551633e-05
1.2602526e-05
1.266727e-05
1.2747564e-05
1.2844808e-05
1.2960105e-05
1.3094279e-05
1.3247901e-05
1.3421325e-05
1.3614711e-05
1.3828053e-05
1.4061211e-05
1.4313925e-05
1.4585829e-05
1.487647e-05
1.5185323e-05
1.5511813e-05
1.5855333e-05
1.6215277e-05
1.659107e-05
1.698222e-05
1.7388354e-05
1.7809269e-05
1.8244986e-05
1.8695816e-05
1.9162462e-05
1.9646046e-05
2.0148331e-05
2.067201e-05
2.122082e-05
2.1799745e-05
2.2415188e-05
2.3075141e-05
2.3790174e-05
2.4573388e-05
2.5441057e-05
2.641256e-05
2.7512555e-05
2.8774836e-05
3.0240445e-05
3.1964041e-05
3.4013986e-05
3.6492941e-05
3.9545367e-05
4.3361758e-05
4.8235544e-05
5.4584322e-05
6.3063318e-05
7.4700063e-05
9.1255967e-05
0.00011548067
0.00015224282
0.00021053644
0.00030306188
0.00045199906
0.00068939291
0.0010371827
0.0015025234
0.0020750713
0.0027278635
0.0034229035
0.0041228714
0.0048008302
0.0054419119
0.0060393714
0.006590465
0.0070946113
0.0075528021
0.0079670545
0.0083398841
0.0086740164
0.0089722479
0.0092373446
0.0094719738
0.0096786691
0.0098598121
0.010017625
0.010154168
0.010271346
0.010370912
0.01045448
0.010523526
0.010579413
0.010623374
0.010656575
0.010680012
0.010694793
0.010701719
0.01070113
0.010700053
0.01067467
1.2263121e-05
1.227272e-05
1.2282663e-05
1.2292717e-05
1.2302952e-05
1.2313639e-05
1.2325278e-05
1.2338631e-05
1.2354726e-05
1.237481e-05
1.2400287e-05
1.243263e-05
1.2473307e-05
1.252371e-05
1.2585107e-05
1.2658606e-05
1.2745145e-05
1.2845478e-05
1.2960185e-05
1.3089682e-05
1.3234236e-05
1.3393976e-05
1.3568909e-05
1.3758938e-05
1.3963872e-05
1.418345e-05
1.4417352e-05
1.4665222e-05
1.4926685e-05
1.520138e-05
1.5488979e-05
1.5789214e-05
1.6101907e-05
1.6426993e-05
1.676457e-05
1.7114927e-05
1.7478617e-05
1.7856577e-05
1.8250234e-05
1.8661618e-05
1.9093465e-05
1.9549293e-05
2.0033686e-05
2.0552452e-05
2.1112857e-05
2.1723649e-05
2.2395448e-05
2.3141967e-05
2.397985e-05
2.4930344e-05
2.6019065e-05
2.7279377e-05
2.8758137e-05
3.0512869e-05
3.2621746e-05
3.5194928e-05
3.8401806e-05
4.2467096e-05
4.7734918e-05
5.4716953e-05
6.4197776e-05
7.7566547e-05
9.6966987e-05
0.00012605858
0.00017156965
0.00024343114
0.0003583711
0.00054198887
0.00081283921
0.0011807786
0.001641599
0.0021763401
0.0027550962
0.0033470596
0.0039286727
0.0044855228
0.005009829
0.0054975971
0.0059471766
0.0063585673
0.0067328281
0.0070716157
0.0073769176
0.0076508878
0.0078957308
0.0081136267
0.008306686
0.0084769219
0.0086262348
0.0087564053
0.0088690914
0.0089658353
0.0090480568
0.0091170906
0.0091741198
0.0092203805
0.0092568188
0.009284329
0.0093068771
0.0093193134
1.2127285e-05
1.2136716e-05
1.214649e-05
1.2156342e-05
1.2166241e-05
1.2176242e-05
1.2186484e-05
1.2197215e-05
1.2208822e-05
1.2221851e-05
1.2237e-05
1.2255107e-05
1.2277115e-05
1.2304032e-05
1.2336888e-05
1.2376695e-05
1.242441e-05
1.2480909e-05
1.2546966e-05
1.2623243e-05
1.2710284e-05
1.2808516e-05
1.2918251e-05
1.3039695e-05
1.3172953e-05
1.3318047e-05
1.3474924e-05
1.3643471e-05
1.3823531e-05
1.401492e-05
1.4217443e-05
1.4430909e-05
1.4655151e-05
1.4890037e-05
1.5135493e-05
1.5391526e-05
1.5658253e-05
1.5935954e-05
1.6225133e-05
1.6526588e-05
1.6841476e-05
1.7171366e-05
1.7518345e-05
1.7885113e-05
1.8275119e-05
1.8692613e-05
1.9142742e-05
1.9631932e-05
2.0167981e-05
2.0760577e-05
2.1421419e-05
2.2164623e-05
2.3008972e-05
2.3977578e-05
2.5099184e-05
2.6411992e-05
2.7969227e-05
2.9840264e-05
3.2119254e-05
3.4941459e-05
3.8511093e-05
4.3127764e-05
4.9238596e-05
5.7518598e-05
6.9123626e-05
8.5880474e-05
0.00011084788
0.00014970866
0.00021063699
0.00030801112
0.00046163473
0.00068797869
0.00099592175
0.001383481
0.0018354808
0.0023274831
0.0028342617
0.0033361315
0.0038203448
0.0042793508
0.0047088901
0.00510692
0.0054729413
0.0058074494
0.00611155
0.0063867185
0.0066346358
0.0068570763
0.0070558329
0.0072326697
0.0073892902
0.0075273208
0.0076482957
0.0077536692
0.0078447731
0.0079229587
0.0079892759
0.0080452205
0.0080915906
0.0081420297
1.1983223e-05
1.199248e-05
1.2002078e-05
1.2011753e-05
1.2021454e-05
1.2031184e-05
1.2040978e-05
1.2050903e-05
1.2061083e-05
1.2071713e-05
1.2083077e-05
1.2095557e-05
1.2109636e-05
1.2125891e-05
1.2144975e-05
1.2167599e-05
1.2194502e-05
1.2226433e-05
1.2264121e-05
1.2308256e-05
1.2359471e-05
1.2418332e-05
1.2485328e-05
1.2560862e-05
1.264526e-05
1.2738766e-05
1.2841552e-05
1.2953721e-05
1.307532e-05
1.3206351e-05
1.3346779e-05
1.3496546e-05
1.3655578e-05
1.3823797e-05
1.4001135e-05
1.4187541e-05
1.4383004e-05
1.4587576e-05
1.4801408e-05
1.5024785e-05
1.5258171e-05
1.5502249e-05
1.5757968e-05
1.6026601e-05
1.6309818e-05
1.6609745e-05
1.6929002e-05
1.7270843e-05
1.7639232e-05
1.8039036e-05
1.8476164e-05
1.8957605e-05
1.949215e-05
2.0090637e-05
2.0766117e-05
2.1535006e-05
2.2418721e-05
2.3444506e-05
2.4647628e-05
2.6074405e-05
2.7789702e-05
2.9883136e-05
3.2477478e-05
3.5754829e-05
3.9998907e-05
4.5620242e-05
5.3246074e-05
6.3942533e-05
7.936554e-05
0.00010238922
0.00013805716
0.00019363279
0.00028274172
0.00042072516
0.00062165714
0.00089294412
0.0012322078
0.0016256032
0.0020524251
0.0024920574
0.0029285004
0.0033510573
0.0037530417
0.0041305129
0.0044814688
0.0048052465
0.0051020627
0.0053727006
0.0056182998
0.0058402084
0.0060398822
0.0062188165
0.0063785012
0.0065203949
0.0066458893
0.0067563973
0.0068530079
0.0069378371
0.0070083673
0.0070973472
1.1831707e-05
1.1840788e-05
1.1850205e-05
1.18597e-05
1.1869218e-05
1.1878754e-05
1.1888315e-05
1.1897918e-05
1.1907597e-05
1.1917412e-05
1.1927458e-05
1.193788e-05
1.1948881e-05
1.1960732e-05
1.1973771e-05
1.1988402e-05
1.2005088e-05
1.2024339e-05
1.2046697e-05
1.207272e-05
1.2102969e-05
1.2137986e-05
1.2178286e-05
1.2224342e-05
1.2276581e-05
1.2335376e-05
1.2401044e-05
1.2473846e-05
1.2553991e-05
1.2641637e-05
1.2736903e-05
1.2839866e-05
1.2950575e-05
1.3069052e-05
1.3195301e-05
1.3329315e-05
1.3471087e-05
1.3620624e-05
1.3777968e-05
1.3943216e-05
1.4116545e-05
1.429824e-05
1.4488726e-05
1.4688595e-05
1.4898658e-05
1.5119979e-05
1.5353914e-05
1.5602165e-05
1.5866832e-05
1.6150498e-05
1.6456321e-05
1.678805e-05
1.715026e-05
1.7548544e-05
1.7989593e-05
1.8481542e-05
1.9034551e-05
1.9661252e-05
2.0377498e-05
2.1203152e-05
2.2164216e-05
2.3295267e-05
2.4640996e-05
2.6263031e-05
2.8249268e-05
3.0722128e-05
3.3845883e-05
3.7909911e-05
4.3312011e-05
5.0678935e-05
6.1060185e-05
7.604971e-05
9.8613284e-05
0.00013342151
0.00018799512
0.00027436079
0.00040575924
0.00059342207
0.00084270232
0.0011493776
0.00149995
0.0018765453
0.0022624117
0.0026448016
0.0030150446
0.0033675691
0.0036990421
0.0040077354
0.0042930282
0.0045550435
0.004794397
0.0050120183
0.0052090313
0.0053866627
0.0055461859
0.0056889522
0.0058159766
0.0059299688
0.0060249149
0.0061530196
1.1673513e-05
1.1682415e-05
1.1691649e-05
1.170096e-05
1.1710295e-05
1.1719645e-05
1.1729011e-05
1.17384e-05
1.1747821e-05
1.1757288e-05
1.1766829e-05
1.1776488e-05
1.1786337e-05
1.1796479e-05
1.180706e-05
1.1818272e-05
1.1830354e-05
1.1843594e-05
1.1858326e-05
1.187492e-05
1.1893779e-05
1.1915324e-05
1.1939983e-05
1.1968185e-05
1.2000346e-05
1.203686e-05
1.2078096e-05
1.212439e-05
1.2176041e-05
1.2233312e-05
1.229643e-05
1.2365585e-05
1.2440933e-05
1.2522599e-05
1.2610678e-05
1.2705241e-05
1.280634e-05
1.2914016e-05
1.3028311e-05
1.3149279e-05
1.3277004e-05
1.3411616e-05
1.3553309e-05
1.3702362e-05
1.3859167e-05
1.4024259e-05
1.4198338e-05
1.4382303e-05
1.4577287e-05
1.4784698e-05
1.5006273e-05
1.5244108e-05
1.550073e-05
1.5779217e-05
1.6083251e-05
1.6417243e-05
1.678656e-05
1.7197748e-05
1.7658846e-05
1.8179688e-05
1.8772567e-05
1.9453277e-05
2.0241399e-05
2.1163018e-05
2.2252418e-05
2.3556123e-05
2.5132772e-05
2.7073306e-05
2.9502446e-05
3.2593687e-05
3.6631357e-05
4.2028514e-05
4.9463297e-05
6.0006341e-05
7.5396193e-05
9.8692537e-05
0.00013457754
0.00019117807
0.00027916936
0.0004100211
0.00059244763
0.00082875766
0.0011124043
0.0014300897
0.0017664639
0.0021081244
0.002445104
0.0027705726
0.00308011
0.0033710793
0.0036421229
0.003892769
0.0041231586
0.004333833
0.0045256066
0.0046995254
0.0048563297
0.004999222
0.0051184785
0.005285977
1.1509413e-05
1.1518136e-05
1.1527185e-05
1.153631e-05
1.1545458e-05
1.155462e-05
1.1563797e-05
1.1572992e-05
1.1582207e-05
1.1591446e-05
1.1600715e-05
1.1610024e-05
1.1619392e-05
1.162885e-05
1.163845e-05
1.1648266e-05
1.1658401e-05
1.1668992e-05
1.1680211e-05
1.1692266e-05
1.1705398e-05
1.1719881e-05
1.1736014e-05
1.1754116e-05
1.177452e-05
1.1797562e-05
1.1823579e-05
1.1852902e-05
1.1885845e-05
1.1922708e-05
1.1963767e-05
1.2009275e-05
1.205946e-05
1.2114521e-05
1.2174631e-05
1.2239934e-05
1.2310551e-05
1.2386582e-05
1.2468112e-05
1.2555218e-05
1.264798e-05
1.2746487e-05
1.2850853e-05
1.2961227e-05
1.3077814e-05
1.320089e-05
1.3330823e-05
1.3468095e-05
1.3613321e-05
1.376728e-05
1.3930942e-05
1.41055e-05
1.4292397e-05
1.4493392e-05
1.4710597e-05
1.4946538e-05
1.520425e-05
1.5487388e-05
1.5800376e-05
1.6148556e-05
1.6538421e-05
1.6978082e-05
1.7477375e-05
1.8048894e-05
1.8708553e-05
1.9477184e-05
2.0380476e-05
2.1454171e-05
2.2746721e-05
2.4321409e-05
2.6271763e-05
2.8728532e-05
3.1885397e-05
3.6036927e-05
4.1650018e-05
4.9469075e-05
6.0653876e-05
7.720631e-05
0.00010236239
0.0001414575
0.0002026639
0.0002959325
0.00043072493
0.00061289824
0.00084119131
0.0011070497
0.0013977472
0.0017004391
0.0020046317
0.0023026776
0.0025893541
0.0028613081
0.0031165801
0.0033541931
0.0035738802
0.003775927
0.0039604432
0.0041308996
0.0042736036
0.0044799778
1.1340168e-05
1.1348714e-05
1.1357577e-05
1.1366515e-05
1.1375475e-05
1.1384449e-05
1.1393435e-05
1.1402437e-05
1.1411456e-05
1.1420493e-05
1.1429549e-05
1.1438622e-05
1.1447716e-05
1.1456836e-05
1.1465992e-05
1.1475208e-05
1.1484519e-05
1.1493978e-05
1.1503657e-05
1.1513656e-05
1.1524098e-05
1.1535134e-05
1.154694e-05
1.155972e-05
1.1573697e-05
1.1589116e-05
1.1606235e-05
1.1625324e-05
1.1646655e-05
1.1670505e-05
1.1697142e-05
1.172683e-05
1.1759817e-05
1.1796337e-05
1.1836604e-05
1.1880813e-05
1.1929135e-05
1.1981724e-05
1.2038712e-05
1.2100219e-05
1.2166352e-05
1.2237213e-05
1.2312906e-05
1.2393543e-05
1.2479259e-05
1.2570218e-05
1.2666631e-05
1.2768768e-05
1.2876975e-05
1.2991691e-05
1.3113468e-05
1.3242991e-05
1.3381102e-05
1.3528827e-05
1.3687408e-05
1.3858337e-05
1.4043403e-05
1.4244747e-05
1.4464943e-05
1.4707071e-05
1.4974829e-05
1.5272731e-05
1.5606194e-05
1.5981932e-05
1.6408228e-05
1.6895595e-05
1.7456859e-05
1.8108631e-05
1.8872827e-05
1.9777269e-05
2.0859934e-05
2.217197e-05
2.3784126e-05
2.5796428e-05
2.8356317e-05
3.1683629e-05
3.6101883e-05
4.2159971e-05
5.06975e-05
6.3102031e-05
8.1665371e-05
0.00011011116
0.00015456279
0.00022312359
0.00032469047
0.00046655952
0.00065089412
0.00087312677
0.0011234908
0.0013904742
0.0016637276
0.0019352268
0.0021992432
0.0024519107
0.0026908127
0.0029146733
0.0031223521
0.0033171579
0.0034810958
0.0037243561
1.1166525e-05
1.1174894e-05
1.1183573e-05
1.1192324e-05
1.1201097e-05
1.1209881e-05
1.1218677e-05
1.1227486e-05
1.123631e-05
1.124515e-05
1.1254004e-05
1.126287e-05
1.1271746e-05
1.128063e-05
1.1289518e-05
1.1298414e-05
1.1307324e-05
1.1316262e-05
1.1325253e-05
1.1334333e-05
1.1343555e-05
1.1352989e-05
1.1362725e-05
1.1372872e-05
1.1383561e-05
1.1394943e-05
1.140719e-05
1.1420489e-05
1.1435045e-05
1.1451072e-05
1.1468796e-05
1.1488444e-05
1.1510246e-05
1.1534428e-05
1.1561206e-05
1.1590791e-05
1.1623375e-05
1.165914e-05
1.1698252e-05
1.1740864e-05
1.1787114e-05
1.1837131e-05
1.1891035e-05
1.1948941e-05
1.201097e-05
1.207725e-05
1.2147928e-05
1.2223176e-05
1.2303209e-05
1.2388287e-05
1.2478738e-05
1.2574967e-05
1.2677472e-05
1.2786864e-05
1.2903887e-05
1.3029439e-05
1.3164601e-05
1.3310667e-05
1.3469185e-05
1.3642008e-05
1.3831342e-05
1.4039847e-05
1.4270695e-05
1.4527731e-05
1.4815623e-05
1.5140151e-05
1.550832e-05
1.5928835e-05
1.6412793e-05
1.6974059e-05
1.7630592e-05
1.8405767e-05
1.9330452e-05
2.044602e-05
2.1809726e-05
2.3502451e-05
2.5635865e-05
2.8382605e-05
3.1996729e-05
3.6866164e-05
4.3643765e-05
5.334183e-05
6.768021e-05
8.9384874e-05
0.00012307411
0.00017524187
0.00025376109
0.00036614066
0.00051645991
0.00070309341
0.00091899453
0.0011543096
0.0013993029
0.0016459494
0.0018882794
0.0021222349
0.0023444221
0.0025572408
0.0027379397
0.0030135969
1.0989208e-05
1.0997403e-05
1.1005899e-05
1.1014466e-05
1.1023052e-05
1.1031648e-05
1.1040254e-05
1.1048871e-05
1.1057501e-05
1.1066144e-05
1.10748e-05
1.1083466e-05
1.1092138e-05
1.1100812e-05
1.1109483e-05
1.1118147e-05
1.1126799e-05
1.1135439e-05
1.114407e-05
1.11527e-05
1.1161346e-05
1.1170033e-05
1.1178798e-05
1.1187692e-05
1.1196778e-05
1.1206138e-05
1.121587e-05
1.1226089e-05
1.1236927e-05
1.1248531e-05
1.1261064e-05
1.1274699e-05
1.1289618e-05
1.1306011e-05
1.1324067e-05
1.1343978e-05
1.136593e-05
1.1390103e-05
1.1416673e-05
1.1445805e-05
1.1477655e-05
1.1512369e-05
1.1550085e-05
1.1590934e-05
1.1635041e-05
1.168253e-05
1.1733529e-05
1.1788176e-05
1.1846622e-05
1.1909047e-05
1.1975661e-05
1.2046718e-05
1.2122526e-05
1.220346e-05
1.2289976e-05
1.2382625e-05
1.2482072e-05
1.2589115e-05
1.270471e-05
1.2829999e-05
1.296634e-05
1.3115361e-05
1.3278997e-05
1.3459564e-05
1.3659844e-05
1.3883216e-05
1.4133758e-05
1.4416416e-05
1.4737324e-05
1.5104038e-05
1.5526017e-05
1.6015224e-05
1.6586946e-05
1.726092e-05
1.8063156e-05
1.9028842e-05
2.0204519e-05
2.1656557e-05
2.347875e-05
2.5803945e-05
2.8838954e-05
3.2891644e-05
3.8450611e-05
4.6320333e-05
5.7819899e-05
7.5085662e-05
0.00010166282
0.00014277221
0.00020522475
0.0002961649
0.00042056041
0.00057874923
0.0007659008
0.00097381921
0.0011936173
0.0014177032
0.0016392872
0.0018587966
0.0020481455
0.0023476543
1.0808918e-05
1.0816941e-05
1.0825258e-05
1.0833643e-05
1.0842044e-05
1.0850454e-05
1.0858872e-05
1.0867298e-05
1.0875736e-05
1.0884185e-05
1.0892644e-05
1.0901111e-05
1.0909583e-05
1.0918056e-05
1.0926523e-05
1.0934979e-05
1.0943417e-05
1.0951832e-05
1.0960218e-05
1.0968573e-05
1.0976897e-05
1.0985195e-05
1.0993477e-05
1.100176e-05
1.101007e-05
1.1018443e-05
1.1026927e-05
1.1035584e-05
1.1044487e-05
1.1053727e-05
1.1063406e-05
1.1073641e-05
1.108456e-05
1.1096302e-05
1.1109015e-05
1.1122851e-05
1.1137967e-05
1.1154522e-05
1.1172674e-05
1.1192581e-05
1.1214395e-05
1.1238266e-05
1.1264336e-05
1.1292744e-05
1.1323621e-05
1.1357094e-05
1.1393291e-05
1.1432336e-05
1.1474363e-05
1.1519509e-05
1.1567933e-05
1.1619809e-05
1.1675346e-05
1.1734786e-05
1.1798421e-05
1.1866601e-05
1.1939744e-05
1.2018353e-05
1.2103029e-05
1.219449e-05
1.2293593e-05
1.2401358e-05
1.2518998e-05
1.2647957e-05
1.2789958e-05
1.2947067e-05
1.3121766e-05
1.3317027e-05
1.3536466e-05
1.3784476e-05
1.4066445e-05
1.4389029e-05
1.4760535e-05
1.5191394e-05
1.5694874e-05
1.6288297e-05
1.6993906e-05
1.7841596e-05
1.8872019e-05
2.013989e-05
2.1724268e-05
2.3737669e-05
2.634565e-05
2.9803833e-05
3.4512637e-05
4.1103552e-05
5.0641798e-05
6.4863561e-05
8.6587136e-05
0.00012010374
0.00017125847
0.00024660949
0.00035139553
0.00048716236
0.00065071089
0.00083551143
0.0010326381
0.0012402023
0.0014245581
0.0017330319
1.0626325e-05
1.0634179e-05
1.064232e-05
1.0650525e-05
1.0658746e-05
1.0666973e-05
1.0675205e-05
1.0683445e-05
1.0691693e-05
1.0699949e-05
1.0708214e-05
1.0716486e-05
1.0724761e-05
1.0733035e-05
1.0741303e-05
1.0749559e-05
1.0757796e-05
1.0766008e-05
1.0774186e-05
1.0782326e-05
1.079042e-05
1.0798465e-05
1.0806459e-05
1.0814405e-05
1.0822308e-05
1.0830179e-05
1.0838039e-05
1.0845913e-05
1.0853838e-05
1.0861863e-05
1.0870043e-05
1.0878451e-05
1.0887165e-05
1.0896277e-05
1.0905889e-05
1.0916109e-05
1.0927055e-05
1.093885e-05
1.0951622e-05
1.0965504e-05
1.0980628e-05
1.099713e-05
1.1015143e-05
1.1034799e-05
1.1056227e-05
1.1079553e-05
1.1104901e-05
1.1132393e-05
1.1162153e-05
1.1194303e-05
1.1228975e-05
1.1266309e-05
1.1306457e-05
1.1349594e-05
1.139592e-05
1.1445667e-05
1.1499111e-05
1.1556578e-05
1.1618455e-05
1.1685205e-05
1.1757377e-05
1.1835622e-05
1.1920719e-05
1.2013588e-05
1.2115323e-05
1.2227231e-05
1.2350869e-05
1.2488095e-05
1.2641137e-05
1.2812677e-05
1.3005958e-05
1.3224921e-05
1.3474395e-05
1.3760327e-05
1.4090096e-05
1.4473047e-05
1.4920931e-05
1.5448902e-05
1.6076846e-05
1.6830654e-05
1.7745591e-05
1.8869846e-05
2.0270369e-05
2.2043882e-05
2.4333562e-05
2.7352216e-05
3.1436526e-05
3.7122136e-05
4.5284063e-05
5.7361243e-05
7.5689971e-05
0.00010388412
0.00014699812
0.00021097934
0.00030095021
0.00041936519
0.00056304244
0.00073239358
0.00089114746
0.0011845788
1.0442063e-05
1.0449754e-05
1.0457722e-05
1.0465753e-05
1.0473796e-05
1.0481844e-05
1.0489895e-05
1.0497951e-05
1.0506013e-05
1.0514082e-05
1.0522156e-05
1.0530235e-05
1.0538316e-05
1.0546395e-05
1.0554468e-05
1.0562528e-05
1.0570569e-05
1.0578585e-05
1.0586568e-05
1.059451e-05
1.0602405e-05
1.0610245e-05
1.0618025e-05
1.062574e-05
1.0633387e-05
1.0640966e-05
1.0648481e-05
1.0655941e-05
1.066336e-05