/*--------------------------------*- C++ -*----------------------------------*\
  =========                 |
  \\      /  F ield         | OpenFOAM: The Open Source CFD Toolbox
   \\    /   O peration     | Website:  https://openfoam.org
    \\  /    A nd           | Version:  12
     \\/     M anipulation  |
\*---------------------------------------------------------------------------*/
FoamFile
{
    format      ascii;
    class       volScalarField;
    location    "800";
    object      p;
}
// * * * * * * * * * * * * * * * * * * * * * * * * * * * * * * * * * * * * * //

dimensions      [0 2 -2 0 0 0 0];

internalField   nonuniform List<scalar> 
7480
(
0.0060865505
0.0061177746
0.0060809263
0.0060694188
0.0060891798
0.0061037914
0.0061061968
0.0060725753
0.005999666
0.0059087383
0.0057913608
0.0056476195
0.0054828592
0.0053032088
0.0051128159
0.0049225309
0.0047305373
0.0045417252
0.0043587524
0.0041869501
0.0040233411
0.0038681359
0.0037248612
0.0035952689
0.0034792441
0.0033774382
0.0032903961
0.0032182306
0.0031602916
0.0031144725
0.0030791198
0.0030507773
0.0030240141
0.0029953412
0.0029629179
0.0029267177
0.0028886591
0.0028507651
0.0028130363
0.002774897
0.0027359887
0.0026963143
0.0026567676
0.0026174996
0.0025780378
0.0025384654
0.0024992628
0.0024606739
0.0024221689
0.0023835119
0.0023449441
0.0023067535
0.0022686864
0.0022304113
0.0021921972
0.0021541739
0.0021160375
0.0020776841
0.002039366
0.0020010269
0.0019623503
0.0019235617
0.0018846591
0.0018453755
0.0018058666
0.0017661351
0.0017259781
0.0016855204
0.0016447386
0.0016034663
0.0015617993
0.0015196932
0.0014770894
0.001433991
0.0013903514
0.0013461726
0.0013014194
0.0012560675
0.0012101064
0.0011635128
0.0011162752
0.0010683834
0.0010198304
0.00097061415
0.00092074079
0.00087022397
0.00081909511
0.00076739239
0.00071520914
0.00066260246
0.00060987372
0.00055693578
0.00050504001
0.00045263608
0.00040621067
0.00035387673
0.00033287365
0.00025635971
0.00053506355
-0.00043418154
0.0060070135
0.0060332595
0.0059974094
0.0060065039
0.0060367316
0.0060548141
0.0060469555
0.0060162845
0.0059679331
0.0058953079
0.0057947976
0.0056676005
0.0055181838
0.0053514377
0.0051735761
0.0049873401
0.0048004518
0.0046135837
0.0044301611
0.0042567178
0.0040912164
0.0039336652
0.0037865579
0.0036522996
0.0035318783
0.0034257532
0.0033342685
0.0032574653
0.0031944827
0.0031429529
0.0031015952
0.0030677387
0.0030364986
0.0030046935
0.0029706058
0.0029339356
0.0028961556
0.0028588076
0.0028214732
0.0027834087
0.0027443183
0.0027043505
0.002664508
0.0026249624
0.0025852314
0.0025453935
0.0025059224
0.0024670621
0.0024282886
0.0023893736
0.0023505575
0.0023121257
0.0022738224
0.0022353177
0.0021968838
0.0021586494
0.0021203092
0.0020817603
0.0020432561
0.0020047386
0.0019658904
0.0019269387
0.0018878804
0.0018484481
0.0018087979
0.0017689317
0.0017286461
0.0016880662
0.0016471679
0.0016057847
0.0015640123
0.0015218057
0.0014791063
0.001435917
0.0013921908
0.0013479297
0.0013030981
0.0012576716
0.0012116395
0.0011649782
0.0011176763
0.0010697232
0.0010211117
0.00097183983
0.00092191346
0.00087134614
0.00082016918
0.00076842063
0.00071619375
0.00066354551
0.00061077732
0.00055780177
0.00050587076
0.00045343276
0.00040697756
0.0003546129
0.00033356989
0.00025715613
0.00053591977
-0.00043350928
0.0059457985
0.0059841353
0.0059717194
0.0059858726
0.0060105381
0.0060210755
0.0060099221
0.0059813263
0.0059315058
0.0058526338
0.0057464343
0.0056150554
0.0054625378
0.0052939562
0.0051149686
0.0049291723
0.0047443454
0.0045605837
0.0043815859
0.004212912
0.0040535237
0.0039029067
0.0037626968
0.0036354056
0.0035223485
0.0034236759
0.0033395968
0.0032698417
0.0032133144
0.0031678141
0.0031303527
0.0030975742
0.0030657355
0.0030318336
0.0029945956
0.0029540057
0.0029119616
0.0028707455
0.0028304714
0.0027905206
0.0027504715
0.002710237
0.0026705379
0.0026312106
0.0025915457
0.0025515965
0.002511916
0.0024728155
0.0024338008
0.0023946614
0.0023556361
0.0023170037
0.0022785041
0.0022398111
0.0022012009
0.0021627986
0.0021242948
0.0020855876
0.0020469326
0.0020082692
0.0019692789
0.0019301918
0.0018910029
0.001851444
0.001811673
0.0017716904
0.0017312923
0.001690605
0.0016496033
0.0016081204
0.0015662527
0.0015239546
0.0014811674
0.001437894
0.0013940871
0.0013497488
0.0013048432
0.0012593457
0.0012132457
0.0011665193
0.0011191551
0.0010711423
0.0010224737
0.00097314708
0.00092316831
0.00087255082
0.00082132583
0.00076953132
0.00071726047
0.00066457015
0.00061176183
0.00055874778
0.00050678059
0.0004543071
0.00040782116
0.0003554216
0.0003343587
0.00025803072
0.00053681611
-0.0004328374
0.0058888389
0.0059337645
0.0059325592
0.0059451909
0.0059653208
0.0059739557
0.005963954
0.0059359127
0.0058860096
0.005810033
0.0057098094
0.0055864281
0.0054428568
0.0052834627
0.005113243
0.0049359276
0.0047579141
0.0045799373
0.0044054689
0.0042391133
0.0040809268
0.0039303633
0.0037890807
0.0036597036
0.0035435887
0.003441043
0.0033525167
0.0032780805
0.0032172085
0.0031685361
0.0031287384
0.0030947621
0.0030638918
0.0030327703
0.0029994725
0.0029636375
0.0029258606
0.0028869497
0.0028472489
0.0028066105
0.0027648009
0.0027220852
0.0026798592
0.0026385181
0.0025975606
0.0025569378
0.0025170638
0.0024780248
0.002439073
0.0023998931
0.0023607407
0.0023219422
0.0022832629
0.0022443908
0.0022056111
0.0021670426
0.0021283737
0.0020895077
0.0020507025
0.002011894
0.0019727618
0.0019335404
0.0018942219
0.0018545367
0.0018146452
0.0017745462
0.001734035
0.0016932393
0.0016521331
0.001610549
0.0015685844
0.0015261928
0.0014833156
0.0014399558
0.0013960658
0.0013516477
0.0013066654
0.0012610944
0.0012149237
0.0011681296
0.0011207004
0.0010726252
0.0010238968
0.00097451294
0.00092447924
0.0008738091
0.00082253366
0.00077069081
0.00071837368
0.00066563904
0.00061278835
0.00055973361
0.00050772789
0.00045521681
0.00040869701
0.00035626014
0.00033517795
0.00025879884
0.00053769432
-0.00043222787
0.0058339785
0.0058829705
0.0058908062
0.0059051317
0.0059240695
0.0059318904
0.0059217015
0.0058932555
0.0058440742
0.0057707473
0.0056737703
0.0055539768
0.0054141333
0.0052584027
0.0050915682
0.0049173796
0.0047415818
0.0045658317
0.0043933846
0.0042284748
0.0040718495
0.0039231753
0.0037839517
0.0036565725
0.0035423793
0.0034417267
0.0033549415
0.0032819997
0.0032222352
0.0031740342
0.0031340398
0.0030992638
0.0030669811
0.0030339297
0.0029985696
0.0029613152
0.0029228632
0.0028839309
0.0028454231
0.002807228
0.0027687112
0.002729548
0.0026897261
0.0026492938
0.0026083153
0.0025667392
0.0025253314
0.0024847723
0.002444658
0.0024047536
0.0023652675
0.0023264009
0.0022877275
0.002248819
0.0022099548
0.0021712723
0.0021324739
0.0020934771
0.0020545443
0.0020156059
0.0019763425
0.0019369965
0.0018975567
0.0018577517
0.0018177453
0.0017775343
0.0017369133
0.0016960123
0.0016548035
0.0016131192
0.0015710582
0.001528573
0.0014856052
0.0014421578
0.0013981831
0.0013536833
0.0013086221
0.0012629749
0.0012167309
0.0011698661
0.0011223688
0.0010742281
0.0010254367
0.0009759921
0.00092590008
0.00087517389
0.00082384458
0.00077194998
0.00071958317
0.00066680082
0.00061390435
0.00056080562
0.00050875782
0.00045620595
0.00040964782
0.00035717067
0.00033606107
0.000259589
0.00053859856
-0.00043150748
0.0057818479
0.005833373
0.0058487524
0.0058650438
0.0058826302
0.0058890222
0.0058782076
0.0058496456
0.0058012724
0.0057299263
0.0056356741
0.0055195615
0.0053841947
0.005233404
0.0050716419
0.004902568
0.0047313602
0.0045601103
0.0043918218
0.0042302352
0.0040763907
0.0039301535
0.0037929328
0.0036669292
0.0035535295
0.0034532052
0.0033662329
0.0032925727
0.003231617
0.0031818451
0.0031402148
0.0031039315
0.0030703956
0.0030365899
0.0030010599
0.0029639238
0.0029254634
0.0028862155
0.0028469828
0.0028076648
0.0027680253
0.0027281876
0.0026880301
0.0026480444
0.0026086541
0.0025695586
0.0025305443
0.0024914078
0.0024519188
0.0024119188
0.0023717163
0.0023319293
0.0022924429
0.0022529732
0.0022138168
0.0021750422
0.0021362145
0.0020971766
0.0020581821
0.0020191635
0.0019798077
0.0019403713
0.0019008371
0.0018609332
0.0018208303
0.0017805235
0.0017398063
0.0016988119
0.0016575112
0.0016157359
0.0015735865
0.0015310146
0.0014879621
0.0014444321
0.0014003767
0.0013557986
0.001310661
0.0012649397
0.0012186238
0.0011716893
0.0011241244
0.0010759183
0.0010270636
0.00097755789
0.00092740677
0.00087662351
0.00082523914
0.00077329142
0.00072087337
0.00066804164
0.00061509757
0.00056195295
0.0005098608
0.00045726613
0.0004106662
0.00035814666
0.00033700282
0.00026043706
0.00053950721
-0.00043062434
0.005732146
0.0057849137
0.0058062092
0.0058241506
0.0058404811
0.005845667
0.0058345046
0.0058061011
0.0057585605
0.0056891283
0.0055977283
0.0054854216
0.0053545525
0.0052086023
0.0050517044
0.0048874209
0.0047204554
0.004553162
0.0043883699
0.004229556
0.0040779369
0.0039336389
0.0037980687
0.0036732996
0.0035607068
0.0034608029
0.0033738727
0.0032998763
0.0032382577
0.0031875997
0.0031450433
0.0031078503
0.0030735048
0.0030391609
0.0030033015
0.0029658854
0.0029271846
0.0028877707
0.0028484105
0.0028090575
0.0027695163
0.0027297142
0.0026894349
0.0026491363
0.002609179
0.0025695381
0.0025300221
0.0024906125
0.0024516822
0.0024131315
0.002374696
0.0023361912
0.0022973832
0.0022580949
0.0022186336
0.0021793516
0.0021400254
0.0021006173
0.0020614293
0.0020223404
0.0019829463
0.0019434735
0.0019038908
0.0018639261
0.0018237617
0.0017833886
0.0017425994
0.0017015327
0.0016601583
0.0016183077
0.0015760841
0.0015334378
0.0014903115
0.0014467086
0.0014025811
0.0013579321
0.0013127248
0.0012669351
0.0012205521
0.001173552
0.0011259231
0.0010776545
0.0010287389
0.0009791739
0.00092896518
0.00087812596
0.00082668728
0.00077468688
0.00072221778
0.0006693366
0.00061634454
0.00056315352
0.00051101603
0.00045837772
0.00041173349
0.00035917045
0.00033798708
0.00026132325
0.00054038272
-0.0004295667
0.0056845143
0.0057374239
0.0057631348
0.0057824873
0.0057978518
0.0058021194
0.0057907755
0.0057626545
0.0057160342
0.0056485676
0.0055600506
0.0054514647
0.0053249338
0.0051836458
0.0050314489
0.004871798
0.0047089999
0.0045455848
0.0043842638
0.0042282749
0.0040790055
0.0039368155
0.0038030621
0.0036796903
0.003568048
0.0034686903
0.0033819178
0.0033077067
0.0032455116
0.0031939686
0.0031504111
0.0031121888
0.003076892
0.0030418418
0.0030055058
0.002967779
0.0029289186
0.0028894323
0.0028499986
0.0028105884
0.0027709887
0.0027311002
0.0026907777
0.0026504498
0.0026104602
0.002570776
0.002531161
0.0024916135
0.0024524394
0.0024135645
0.0023747675
0.0023359338
0.002297322
0.0022590098
0.0022207481
0.0021823495
0.0021435926
0.0021043805
0.0020650597
0.002025685
0.0019859949
0.0019463111
0.0019066255
0.0018666117
0.0018264191
0.0017860153
0.0017451872
0.0017040798
0.0016626598
0.0016207579
0.0015784809
0.0015357784
0.0014925943
0.0014489327
0.0014047455
0.0013600367
0.0013147696
0.0012689202
0.0012224779
0.001175419
0.001127732
0.0010794061
0.0010304341
0.00098081376
0.00093055073
0.00087965834
0.00082816766
0.00077611649
0.00072359782
0.00067066833
0.00061762907
0.00056439218
0.00051220925
0.00045952737
0.00041283702
0.00036023012
0.00033900234
0.00026223168
0.00054119447
-0.0004283134
0.0056386054
0.0056908297
0.0057196807
0.0057401991
0.0057548168
0.0057583473
0.0057469126
0.0057191824
0.0056735916
0.0056081309
0.0055224947
0.005417572
0.0052953013
0.0051586047
0.0050110573
0.0048559904
0.0046973725
0.0045378382
0.0043800104
0.0042269111
0.0040800587
0.0039400113
0.0038080887
0.0036861248
0.0035754419
0.0034766369
0.0033900248
0.0033155937
0.00325281
0.0032003708
0.0031557992
0.0031165561
0.0030803182
0.0030445552
0.0030077575
0.0029697494
0.0029307345
0.0028911471
0.0028515923
0.0028120607
0.0027723514
0.0027323839
0.0026920446
0.0026517132
0.0026117128
0.0025720047
0.0025323731
0.0024928223
0.0024536068
0.0024146467
0.002375733
0.0023367868
0.0022980483
0.0022595803
0.0022210304
0.0021823541
0.0021438127
0.0021053686
0.0020668388
0.0020280278
0.0019887498
0.0019491989
0.0019094448
0.0018692574
0.0018288954
0.0017883876
0.0017475066
0.0017063746
0.0016649341
0.0016230076
0.0015807044
0.0015379711
0.0014947513
0.0014510506
0.001406821
0.0013620677
0.0013167541
0.001270857
0.0012243661
0.001177258
0.0011295213
0.0010811457
0.001032124
0.00098245414
0.00093214194
0.00088120085
0.00082966205
0.00077756343
0.00072499801
0.00067202258
0.00061893798
0.00056565675
0.00051342922
0.00046070466
0.00041396702
0.00036131665
0.00034003972
0.00026315296
0.00054191427
-0.00042683482
0.0055941253
0.0056450725
0.0056759923
0.0056973889
0.0057113952
0.0057143132
0.0057028569
0.0056756085
0.0056311317
0.0055676981
0.0054849401
0.0053836499
0.005265594
0.0051334449
0.0049905149
0.0048399991
0.0046855721
0.0045299169
0.004375585
0.0042254113
0.0040810115
0.0039431179
0.0038130291
0.0036924818
0.0035827726
0.0034845339
0.0033980953
0.0033234564
0.0032601026
0.0032067954
0.0031612339
0.0031209914
0.0030838282
0.0030473558
0.0030100926
0.0029717898
0.002932597
0.0028928876
0.0028532032
0.0028135503
0.0027737433
0.0027337092
0.0026933468
0.002652994
0.0026129546
0.0025731954
0.0025335252
0.0024939494
0.0024547002
0.0024157102
0.0023767854
0.0023378445
0.0022990813
0.002260519
0.0022218508
0.0021830944
0.0021444837
0.0021059343
0.0020671402
0.0020281943
0.0019893008
0.0019502956
0.0019110101
0.0018712581
0.0018311526
0.0017907133
0.001749761
0.0017085198
0.0016669981
0.0016250261
0.0015827025
0.0015399556
0.001496722
0.0014530049
0.0014087548
0.0013639771
0.0013186348
0.0012727058
0.0012261804
0.0011790354
0.0011312603
0.0010828449
0.0010337824
0.00098407097
0.00093371667
0.00088273316
0.00083115176
0.00077901053
0.00072640256
0.00067338483
0.00062025794
0.000566935
0.00051466464
0.00046189922
0.00041511378
0.00036242109
0.00034109057
0.00026407837
0.0005425159
-0.00042509732
0.0055508293
0.005600084
0.0056321844
0.005654154
0.0056676311
0.0056700312
0.0056586039
0.0056319008
0.0055885928
0.0055271906
0.0054472957
0.0053496014
0.0052357108
0.0051080639
0.0049697212
0.0048237315
0.0046735095
0.0045217424
0.0043709198
0.004223715
0.0040818142
0.0039461021
0.0038178659
0.0036987564
0.0035900443
0.0034923929
0.0034061473
0.0033313204
0.0032674207
0.0032132745
0.0031667442
0.0031255169
0.0030874385
0.0030502541
0.0030125129
0.0029739001
0.0029345148
0.0028946743
0.0028548588
0.0028150845
0.0027751798
0.0027350742
0.0026946787
0.002654296
0.0026142106
0.0025743995
0.0025346915
0.002495087
0.0024557987
0.0024167688
0.0023778115
0.0023388436
0.0023000443
0.0022614435
0.0022227722
0.0021840239
0.0021453752
0.0021067274
0.002067842
0.0020288594
0.0019899472
0.0019507526
0.0019112574
0.0018716698
0.0018319114
0.0017918386
0.0017512657
0.0017103084
0.0016689195
0.0016269437
0.001584558
0.0015417547
0.0014984902
0.0014547594
0.0014105019
0.0013657176
0.0013203663
0.0012744243
0.0012278818
0.0011807159
0.0011329164
0.0010844738
0.0010353818
0.00098563892
0.00093525158
0.00088423375
0.000832617
0.0007804396
0.00072779478
0.00067473976
0.00062157486
0.00056821396
0.00051590361
0.00046310008
0.00041626709
0.00036353399
0.00034214582
0.000264998
0.00054297875
-0.00042306243
0.0055085136
0.0055557919
0.0055883502
0.0056105917
0.0056235825
0.0056255356
0.0056141722
0.0055880561
0.0055459507
0.0054865691
0.0054095045
0.0053153546
0.0052055691
0.0050823716
0.0049485833
0.0048070978
0.0046610966
0.0045132364
0.0043659484
0.0042217649
0.0040824203
0.0039489292
0.0038225743
0.0037049312
0.0035972452
0.0035002066
0.0034141771
0.0033391845
0.0032747641
0.0032198069
0.0031723287
0.0031301322
0.0030911496
0.0030532519
0.0030150223
0.0029760877
0.0029364983
0.0028965176
0.0028565663
0.0028166671
0.0027766606
0.0027364794
0.0026960461
0.0026556313
0.0026154997
0.002575637
0.0025358885
0.0024962513
0.0024569182
0.0024178387
0.0023788393
0.0023398411
0.002301008
0.0022623711
0.0022236809
0.0021849081
0.0021462172
0.0021075368
0.0020686581
0.0020296765
0.001990694
0.0019514127
0.0019118868
0.0018723027
0.0018324101
0.0017921563
0.0017516597
0.0017109135
0.0016697894
0.0016281433
0.0015860299
0.0015433679
0.0015001297
0.0014563703
0.0014120793
0.0013672777
0.0013219205
0.001275977
0.0012294329
0.0011822628
0.0011344554
0.0010860008
0.0010368931
0.00098713122
0.00093672203
0.00088567994
0.00083403685
0.00078183138
0.00072915692
0.00067607102
0.00062287373
0.00056947986
0.00051713341
0.00046429554
0.00041741606
0.0003646453
0.00034319587
0.00026590081
0.00054324786
-0.0004206868
0.0054670088
0.0055121241
0.005544564
0.0055667932
0.0055793087
0.0055808666
0.0055695911
0.0055440898
0.0055032065
0.0054458243
0.0053715438
0.0052808742
0.0051751222
0.0050563112
0.0049270357
0.0047900285
0.0046482586
0.0045043257
0.0043606017
0.004219495
0.0040827681
0.0039515449
0.0038271075
0.0037109661
0.0036043416
0.0035079473
0.0034221623
0.0033470311
0.0032821188
0.0032263818
0.0031779802
0.0031348331
0.0030949598
0.0030563499
0.0030176236
0.0029783568
0.0029385518
0.0028984209
0.0028583285
0.0028183004
0.0027781892
0.0027379297
0.002697455
0.0026570056
0.0026168267
0.0025769112
0.0025371199
0.0024974477
0.0024580681
0.0024189372
0.0023798942
0.0023408638
0.0023019927
0.0022633101
0.0022245839
0.0021857812
0.0021470575
0.0021083504
0.0020694597
0.0020304529
0.0019914261
0.0019521334
0.0019126193
0.0018729956
0.001833034
0.0017927496
0.0017522646
0.0017113986
0.0016701277
0.0016285218
0.0015865526
0.0015441128
0.0015011534
0.0014576325
0.0014134683
0.0013686992
0.001323331
0.0012773722
0.001230822
0.0011836525
0.001135848
0.0010873953
0.0010382865
0.0009885198
0.00093810199
0.00088704767
0.00083538914
0.00078316539
0.00073047009
0.00067736122
0.0006241385
0.00057071789
0.00051834041
0.00046547305
0.00041854901
0.00036574418
0.00034423038
0.00026677737
0.00054327302
-0.0004179325
0.0054261746
0.0054690128
0.0055008828
0.005522841
0.0055348677
0.0055360665
0.0055248953
0.0055000265
0.0054603749
0.0054049647
0.0053334137
0.0052461521
0.0051443533
0.0050298558
0.0049050409
0.004772478
0.0046349404
0.004494951
0.0043548192
0.0042168428
0.0040827962
0.0039538916
0.0038314137
0.0037168151
0.0036112931
0.0035155808
0.0034300748
0.0033548376
0.0032894672
0.0032329854
0.0031836891
0.0031396132
0.003098865
0.0030595463
0.0030203169
0.0029807081
0.0029406765
0.0029003859
0.0028601474
0.002819987
0.0027797684
0.0027394281
0.0026989079
0.002658421
0.0026181933
0.0025782238
0.0025383882
0.0024986792
0.0024592523
0.0024200695
0.0023809819
0.0023419172
0.0023030056
0.0022642746
0.0022255096
0.002186676
0.0021479156
0.0021091705
0.0020702503
0.0020312139
0.0019921575
0.0019528524
0.0019133255
0.0018736685
0.0018336864
0.0017934035
0.0017528976
0.0017119825
0.0016706881
0.001629071
0.0015869919
0.0015444677
0.0015015221
0.001458106
0.0014141524
0.0013696269
0.0013244504
0.0012785925
0.0012320719
0.001184902
0.0011370947
0.0010886441
0.0010395408
0.0009897799
0.00093936593
0.00088831225
0.00083665059
0.00078442002
0.00073171426
0.00067859181
0.00062535202
0.00057191221
0.00051950994
0.00046661903
0.00041965328
0.00036681886
0.00034523821
0.00026761493
0.00054301493
-0.0004147486
0.0053858951
0.0054263953
0.0054573491
0.0054788086
0.0054903157
0.0054911783
0.0054801214
0.0054558948
0.0054174768
0.0053640072
0.0052951268
0.0052111956
0.0051132636
0.005002999
0.0048825831
0.0047544222
0.0046211076
0.004485071
0.0043485552
0.004213758
0.0040824515
0.0039559176
0.0038354441
0.0037224333
0.0036180593
0.0035230715
0.0034378842
0.003362579
0.0032967889
0.0032396016
0.0031894429
0.0031444632
0.0031028584
0.0030628366
0.0030230994
0.0029831401
0.0029428718
0.0029024127
0.0028620233
0.0028217276
0.002781399
0.0027409754
0.0027004061
0.0026598787
0.0026196008
0.0025795765
0.0025396951
0.0024999474
0.0024604724
0.0024212371
0.0023821037
0.0023430028
0.0023040496
0.0022652697
0.0022264653
0.0021875991
0.0021487992
0.0021100123
0.0020710599
0.0020319928
0.001992901
0.001953569
0.0019140149
0.0018743292
0.001834333
0.0017940384
0.001753513
0.001712583
0.0016712776
0.001629644
0.0015875389
0.0015450052
0.001502008
0.0014584904
0.0014144893
0.001369981
0.0013249176
0.001279258
0.001232942
0.0011859189
0.0011381851
0.001089759
0.0010406621
0.00099090624
0.00094049969
0.00088945432
0.0008377998
0.00078557368
0.00073286873
0.00067974333
0.00062649616
0.00057304595
0.00052062635
0.00046771893
0.00042071526
0.00036785658
0.00034620732
0.00026839759
0.00054244009
-0.00041107183
0.005346075
0.0053842154
0.0054139941
0.0054347606
0.0054457067
0.0054462447
0.0054353068
0.0054117249
0.0053745356
0.0053229725
0.0052567008
0.0051760196
0.0050818646
0.0049757469
0.0048596611
0.0047358524
0.0046067418
0.0044746598
0.0043417781
0.0042102025
0.0040816916
0.0039575794
0.003839156
0.0037277797
0.0036246017
0.0035303846
0.0034455597
0.003370229
0.0033040619
0.0032462121
0.0031952273
0.0031493721
0.0031069313
0.0030662144
0.0030259668
0.0029856497
0.0029451358
0.0029045
0.0028639553
0.0028235216
0.0027830807
0.0027425716
0.0027019496
0.0026613792
0.0026210497
0.0025809698
0.0025410412
0.0025012534
0.0024617294
0.0024224408
0.0023832605
0.0023441221
0.0023051263
0.0022662969
0.0022274519
0.0021885515
0.0021497109
0.0021108815
0.0020718962
0.0020327967
0.001993666
0.0019543032
0.00191472
0.0018750024
0.0018349818
0.0017946629
0.0017541113
0.0017131665
0.0016718492
0.0016302019
0.0015880928
0.0015455442
0.001502529
0.0014590037
0.0014149798
0.0013703994
0.0013252612
0.00127957
0.0012332969
0.0011864061
0.0011388517
0.0010905885
0.0010415984
0.00099189414
0.00094150784
0.00089047277
0.00083882778
0.00078661166
0.00073391574
0.00068079709
0.00062755251
0.00057410157
0.00052167314
0.00046875729
0.00042172045
0.00036884362
0.00034712478
0.00026911105
0.00054151617
-0.00040684594
0.005306636
0.0053424241
0.0053708394
0.0053907528
0.0054010912
0.0054013074
0.0053904884
0.0053675479
0.0053315762
0.0052818827
0.0052181561
0.0051406426
0.0050501727
0.004948112
0.0048362818
0.0047167693
0.0045918352
0.0044637024
0.0043344668
0.0042061487
0.0040804834
0.0039588412
0.0038425132
0.0037328185
0.0036308858
0.0035374877
0.0034530722
0.003377762
0.0033112642
0.003252798
0.0032010268
0.0031543273
0.0031110737
0.0030696723
0.0030289134
0.0029882328
0.0029474652
0.0029066453
0.0028659414
0.0028253672
0.0027848122
0.0027442157
0.0027035378
0.0026629218
0.0026225398
0.0025824037
0.0025424267
0.0025025971
0.0024630235
0.0024236812
0.0023844531
0.0023452756
0.0023062364
0.0022673569
0.0022284702
0.0021895343
0.0021506522
0.0021117797
0.0020727602
0.002033627
0.0019944562
0.0019550617
0.0019154487
0.0018756967
0.0018356476
0.0017953016
0.0017547204
0.001713753
0.0016724144
0.0016307449
0.0015886212
0.0015460588
0.0015030365
0.0014595122
0.001415477
0.0013708833
0.0013257292
0.0012799928
0.0012336555
0.0011867157
0.0011391596
0.0010909693
0.0010421168
0.00099256694
0.00094230395
0.00089134238
0.00083973257
0.0007875336
0.00073484959
0.00068174194
0.00062850645
0.00057506291
0.00052263395
0.0004697182
0.00042265371
0.00036976543
0.00034797694
0.0002697393
0.00054017541
-0.00040200952
0.0052675139
0.0053009789
0.0053279003
0.005346833
0.0053565168
0.0053564072
0.0053457029
0.0053233951
0.0052886243
0.0052407607
0.0051795141
0.0051050847
0.0050182063
0.0049201102
0.0048124564
0.0046971788
0.0045763864
0.0044521904
0.0043266073
0.0042015758
0.0040788005
0.0039596737
0.0038454851
0.0037375185
0.0036368806
0.0035443513
0.0034603941
0.0033851532
0.0033183741
0.0032593405
0.0032068255
0.0031593161
0.0031152752
0.0030732019
0.0030319329
0.0029908845
0.0029498563
0.0029088456
0.0028679789
0.0028272624
0.0027865915
0.0027459059
0.0027051692
0.0026645055
0.00262407
0.0025838773
0.002543851
0.0025039783
0.0024643545
0.0024249581
0.0023856814
0.0023464635
0.0023073801
0.0022684501
0.0022295206
0.0021905481
0.0021516238
0.0021127074
0.0020736525
0.0020344845
0.0019952731
0.0019558458
0.0019162019
0.0018764143
0.0018363357
0.0017959616
0.0017553492
0.0017143562
0.0016729927
0.0016312969
0.0015891514
0.001546569
0.0015035299
0.0014599914
0.0014159443
0.0013713474
0.0013261916
0.0012804492
0.0012340984
0.0011871288
0.0011395256
0.0010912861
0.0010424083
0.00099288921
0.00094272194
0.00089189302
0.00084040795
0.00078829583
0.00073565945
0.00068257578
0.00062935381
0.0005759213
0.00052349662
0.00047058753
0.00042350034
0.00037060714
0.00034874974
0.0002702646
0.0005383588
-0.00039649687
0.0052286566
0.0052598443
0.0052851868
0.0053030417
0.0053120272
0.0053115828
0.0053009858
0.0052792978
0.0052457062
0.0051996301
0.005140797
0.0050693668
0.0049859851
0.0048917589
0.0047881983
0.0046770897
0.0045603975
0.0044401198
0.0043181898
0.0041964678
0.0040766212
0.0039600518
0.0038480448
0.003741852
0.0036425583
0.0035509482
0.0034675001
0.0033923795
0.0033253706
0.003265821
0.0032126079
0.0031643252
0.0031195248
0.0030767946
0.0030350188
0.0029935996
0.002952305
0.0029110975
0.0028700649
0.0028292043
0.0027884162
0.0027476401
0.0027068422
0.0026661288
0.002625639
0.0025853895
0.0025453131
0.0025053962
0.0024657218
0.002426271
0.0023869451
0.0023476857
0.0023085574
0.0022695766
0.0022306034
0.0021915931
0.0021526261
0.0021136651
0.0020745737
0.0020353701
0.0019961174
0.0019566564
0.0019169805
0.0018771565
0.0018370474
0.0017966443
0.0017559996
0.0017149797
0.0016735903
0.0016318666
0.0015896971
0.0015470915
0.0015040301
0.0014604711
0.001416406
0.001371795
0.0013266274
0.0012808778
0.001234524
0.0011875513
0.001139941
0.0010916827
0.0010427702
0.00099320798
0.00094300732
0.00089218339
0.00084076006
0.00078875488
0.00073623457
0.00068324233
0.00063007523
0.00057667159
0.00052425725
0.0004713581
0.00042425002
0.00037135582
0.00034942996
0.00027066841
0.00053601141
-0.00039024216
0.0051900219
0.0052189903
0.0052427056
0.0052594129
0.0052676623
0.0052668715
0.0052563717
0.0052352869
0.0052028484
0.0051585146
0.0051020272
0.0050335106
0.0049535296
0.0048630767
0.0047635226
0.0046565127
0.0045438733
0.0044274891
0.0043092075
0.0041908117
0.004073927
0.0039599535
0.0038501684
0.0037457938
0.0036478932
0.0035572532
0.003474366
0.0033994185
0.0033322336
0.0032722215
0.003218358
0.0031693413
0.0031238115
0.0030804416
0.0030381641
0.0029963725
0.0029548068
0.0029133974
0.0028721962
0.0028311902
0.0027902839
0.0027494161
0.0027085547
0.0026677898
0.0026272453
0.0025869388
0.0025468117
0.0025068498
0.0024671245
0.0024276192
0.0023882436
0.0023489418
0.0023097679
0.002270736
0.0022317183
0.0021926693
0.0021536589
0.0021146528
0.002075524
0.0020362839
0.0019969894
0.0019574936
0.0019177849
0.0018779239
0.0018377835
0.0017973505
0.0017566727
0.001715625
0.0016742087
0.0016324561
0.0015902616
0.0015476313
0.001504546
0.0014609648
0.0014168784
0.0013722478
0.001327062
0.0012812971
0.0012349311
0.0011879498
0.0011403347
0.0010920732
0.0010431566
0.00099358262
0.00094335698
0.00089249725
0.0008410398
0.00078902549
0.00073654202
0.0006836324
0.00063056669
0.00057725157
0.00052489003
0.00047202138
0.00042489837
0.00037200447
0.00035000876
0.00027093393
0.00053308204
-0.00038318418
0.0051515763
0.0051783929
0.0052004613
0.0052159751
0.005223458
0.0052223083
0.0052118936
0.0051913928
0.0051600774
0.0051174384
0.0050632276
0.004997538
0.0049208608
0.0048340829
0.0047384454
0.0046354597
0.00452682
0.0044142988
0.0042996551
0.0041845964
0.0040707012
0.0039593586
0.0038518335
0.0037493202
0.0036528609
0.0035632422
0.0034809686
0.0034062487
0.0033389432
0.003278524
0.0032240603
0.0031743512
0.0031281239
0.0030841337
0.0030413618
0.0029991979
0.0029573576
0.0029157419
0.0028743697
0.0028332172
0.0027921918
0.0027512314
0.0027103045
0.0026694867
0.002628887
0.0025885238
0.0025483456
0.0025083379
0.0024685615
0.0024290019
0.0023895762
0.002350231
0.0023110111
0.002271928
0.0022328651
0.0021937765
0.0021547221
0.0021156705
0.0020765033
0.002037226
0.0019978892
0.0019583577
0.0019186154
0.0018787169
0.0018385441
0.0017980804
0.001757369
0.0017162926
0.0016748486
0.0016330664
0.001590846
0.0015481901
0.00150508
0.0014614755
0.0014173663
0.0013727145
0.0013275084
0.0012817244
0.0012353409
0.001188344
0.0011407159
0.0010924448
0.0010435221
0.00099394426
0.00094371514
0.00089284741
0.0008413718
0.00078932834
0.00073681252
0.00068388602
0.00063083883
0.00057758495
0.00052530385
0.00047251484
0.00042541612
0.00037254121
0.00035048148
0.00027104884
0.00052953387
-0.00037527515
0.0051132933
0.0051380326
0.005158457
0.0051727521
0.0051794467
0.0051779258
0.0051675833
0.0051476449
0.0051174197
0.0050764254
0.0050244212
0.0049614713
0.0048880002
0.0048047973
0.0047129838
0.0046139438
0.0045092456
0.0044005508
0.0042895291
0.0041778124
0.0040669289
0.0039582481
0.003853019
0.0037524085
0.0036574379
0.0035688917
0.0034872854
0.0034128486
0.0033454797
0.0032847105
0.0032296988
0.0031793411
0.0031324505
0.0030878616
0.0030446045
0.0030020701
0.0029599528
0.0029181273
0.0028765822
0.0028352826
0.0027941375
0.0027530836
0.0027120897
0.0026712175
0.0026305625
0.0025901426
0.0025499132
0.0025098592
0.0024700318
0.002430418
0.0023909419
0.0023515527
0.0023122864
0.0022731519
0.0022340433
0.0021949142
0.0021558154
0.0021167178
0.0020775114
0.0020381961
0.0019988167
0.0019592486
0.001919472
0.0018795354
0.0018393296
0.0017988345
0.0017580887
0.0017169829
0.0016755105
0.0016336981
0.001591451
0.0015487687
0.0015056331
0.0014620045
0.0014178716
0.0013731976
0.00132797
0.0012821655
0.0012357627
0.0011887473
0.0011411022
0.0010928157
0.0010438797
0.00099429126
0.00094405484
0.00089318244
0.00084170297
0.00078965286
0.00073712262
0.00068417146
0.00063109312
0.00057781714
0.00052553669
0.00047278926
0.00042572741
0.00037290653
0.0003508191
0.00027098846
0.00052536322
-0.00036649713
0.0050751527
0.0050978943
0.0051166951
0.0051297636
0.0051356568
0.0051337545
0.0051234704
0.0051040716
0.0050749013
0.0050354998
0.004985631
0.004925333
0.0048549695
0.0047752405
0.0046871558
0.0045919793
0.0044911592
0.0043862487
0.0042788274
0.0041704518
0.0040625965
0.0039566044
0.0038537046
0.0037550369
0.0036616013
0.0035741785
0.0034932937
0.0034191969
0.0033518234
0.0032907628
0.0032352572
0.003184297
0.0031367793
0.0030916154
0.0030478847
0.0030049832
0.0029625879
0.00292055
0.0028788308
0.0028373835
0.0027961184
0.0027549706