/*--------------------------------*- C++ -*----------------------------------*\
  =========                 |
  \\      /  F ield         | OpenFOAM: The Open Source CFD Toolbox
   \\    /   O peration     | Website:  https://openfoam.org
    \\  /    A nd           | Version:  12
     \\/     M anipulation  |
\*---------------------------------------------------------------------------*/
FoamFile
{
    format      ascii;
    class       volVectorField;
    location    "800";
    object      U;
}
// * * * * * * * * * * * * * * * * * * * * * * * * * * * * * * * * * * * * * //

dimensions      [0 1 -1 0 0 0 0];

internalField   nonuniform List<vector> 
7480
(
(0.99631992 0.00030835952 0)
(0.99394066 0.00033612428 -5.3502366e-20)
(0.99091397 0.00050551521 0)
(0.98720329 0.00067907734 0)
(0.98272638 0.00086308494 0)
(0.9774141 0.00098881731 -1.7168199e-17)
(0.97116431 0.0010689966 -3.1718576e-19)
(0.96395388 0.0013001777 0)
(0.95572729 0.0015445217 0)
(0.946465 0.0017801845 0)
(0.93620151 0.0020003834 0)
(0.92501054 0.0021960921 0)
(0.91299772 0.0023584049 0)
(0.90029802 0.0024750764 0)
(0.88706073 0.002562184 0)
(0.87344165 0.0025648875 0)
(0.85961176 0.0025406187 0)
(0.84568525 0.0024684579 0)
(0.83184329 0.0023517569 0)
(0.81820181 0.0022027483 0)
(0.80488379 0.0020233903 0)
(0.79202454 0.0018176308 0)
(0.77978127 0.0015967196 0)
(0.76828258 0.0013715073 0)
(0.75763018 0.0011477632 0)
(0.74790416 0.00093151774 0)
(0.73915435 0.00072747063 0)
(0.73140211 0.00054234949 0)
(0.72463364 0.00038345897 0)
(0.71878052 0.0002571471 0)
(0.7137223 0.00016888831 0)
(0.70930596 0.00011831961 0)
(0.70536332 9.9168511e-05 0)
(0.70173681 0.00010166226 0)
(0.69830688 0.00011463836 0)
(0.69500008 0.00012869982 0)
(0.69178049 0.00013811862 0)
(0.68863507 0.00014092323 0)
(0.68555709 0.00013878276 0)
(0.68253526 0.00013476752 0)
(0.6795535 0.00013127867 0)
(0.67659679 0.00012916184 0)
(0.67365818 0.00012788425 0)
(0.67074099 0.0001265476 0)
(0.66785378 0.00012459513 0)
(0.6650038 0.00012191069 0)
(0.66219401 0.00011868618 0)
(0.65942448 0.00011517659 0)
(0.6566949 0.00011156524 0)
(0.65400549 0.00010790338 0)
(0.65135669 0.00010419954 0)
(0.64874897 0.00010046938 0)
(0.64618249 9.6768785e-05 0)
(0.64365667 9.3163094e-05 0)
(0.64117052 8.9660484e-05 0)
(0.63872351 8.6248859e-05 0)
(0.63631531 8.2941044e-05 0)
(0.63394505 7.9755994e-05 0)
(0.63161166 7.6679912e-05 0)
(0.62931466 7.3705182e-05 0)
(0.62705318 7.0857459e-05 0)
(0.62482594 6.8128504e-05 0)
(0.62263206 6.5507165e-05 0)
(0.62047068 6.2999196e-05 0)
(0.61834077 6.0591533e-05 0)
(0.61624159 5.8275691e-05 0)
(0.61417234 5.6057851e-05 0)
(0.61213206 5.3929314e-05 0)
(0.61012001 5.1884562e-05 0)
(0.60813538 4.9927014e-05 0)
(0.6061773 4.804913e-05 0)
(0.604245 4.6248289e-05 0)
(0.60233769 4.45222e-05 0)
(0.60045463 4.2866021e-05 0)
(0.59859508 4.1277477e-05 0)
(0.59675836 3.9752563e-05 0)
(0.59494379 3.8288916e-05 0)
(0.59315074 3.6884077e-05 0)
(0.59137856 3.5535232e-05 0)
(0.58962664 3.4240095e-05 0)
(0.5878944 3.2996235e-05 0)
(0.58618127 3.1801434e-05 0)
(0.58448669 3.0653604e-05 0)
(0.58281012 2.9550808e-05 0)
(0.58115104 2.8491233e-05 0)
(0.57950892 2.7473231e-05 0)
(0.57788326 2.6495234e-05 0)
(0.57627351 2.5556004e-05 0)
(0.57467919 2.4654252e-05 0)
(0.57309962 2.378972e-05 0)
(0.57153444 2.2960404e-05 0)
(0.56998233 2.2170342e-05 0)
(0.56844397 2.1412631e-05 0)
(0.56691428 2.0712741e-05 0)
(0.56540109 2.0024023e-05 0)
(0.56387837 1.9530412e-05 0)
(0.56239545 1.8328031e-05 -5.1271424e-21)
(0.56081127 3.1697646e-05 7.5626884e-20)
(0.55949981 1.8642806e-05 -2.4446227e-19)
(0.55704215 3.3263914e-05 -4.3061601e-18)
(0.9978153 0.00049212105 0)
(0.99771286 0.00072853024 0)
(0.99761343 0.00092925769 0)
(0.99745942 0.0010898235 -6.0003061e-19)
(0.99725178 0.0012395828 0)
(0.99699684 0.0013928054 0)
(0.99667842 0.0015762097 0)
(0.99625733 0.0017694895 0)
(0.99568415 0.0019223451 0)
(0.99490423 0.002046344 0)
(0.99385246 0.0021465854 0)
(0.99245556 0.0022211398 0)
(0.9906385 0.0022690872 0)
(0.98832878 0.0022937704 0)
(0.98546331 0.002291484 0)
(0.98198736 0.0022791851 0)
(0.9778648 0.0022524032 0)
(0.97305713 0.0022147479 0)
(0.96756329 0.0021695312 0)
(0.96137076 0.002120942 0)
(0.95448144 0.0020708809 0)
(0.94689012 0.0020125976 0)
(0.93863441 0.0019334428 0)
(0.92981568 0.0018350114 0)
(0.92053156 0.0017250301 0)
(0.91089635 0.0016043368 0)
(0.90105182 0.0014748298 0)
(0.89115164 0.0013372878 0)
(0.88136104 0.0011926899 0)
(0.87185516 0.001042577 0)
(0.86283293 0.00089539868 0)
(0.85445137 0.00076173823 0)
(0.84678155 0.00064694564 0)
(0.83980652 0.00055572539 0)
(0.83345138 0.00048963086 0)
(0.82760502 0.00044685365 0)
(0.82214925 0.00042254884 0)
(0.81698931 0.00040948877 0)
(0.812063 0.00040033562 0)
(0.80733526 0.00039031305 0)
(0.8027882 0.00037762981 0)
(0.79840932 0.00036245538 0)
(0.79418512 0.00034560181 0)
(0.79009956 0.00032827908 0)
(0.78613496 0.00031169406 0)
(0.78227455 0.00029646913 0)
(0.77850556 0.00028254203 0)
(0.77482115 0.00026955155 0)
(0.77121851 0.00025727873 0)
(0.76769521 0.00024559776 0)
(0.76424748 0.00023445783 0)
(0.76087101 0.00022381666 0)
(0.75756251 0.00021366825 0)
(0.75431948 0.00020402137 0)
(0.75113966 0.00019481824 0)
(0.74802104 0.00018601605 0)
(0.74496175 0.00017762654 0)
(0.74195966 0.00016965671 0)
(0.73901271 0.0001620618 0)
(0.73611916 0.00015481419 0)
(0.7332774 0.00014793514 0)
(0.73048561 0.00014138626 0)
(0.72774235 0.00013514274 0)
(0.72504619 0.00012921312 0)
(0.72239549 0.00012356586 0)
(0.7197889 0.00011818148 0)
(0.71722505 0.00011306493 0)
(0.71470248 0.00010819114 0)
(0.71221992 0.0001035454 0)
(0.70977613 9.9128344e-05 0)
(0.70736978 9.491987e-05 0)
(0.70499969 9.0911199e-05 0)
(0.70266468 8.7093491e-05 0)
(0.70036362 8.3454571e-05 0)
(0.6980954 7.9987219e-05 0)
(0.69585897 7.6680546e-05 0)
(0.69365332 7.3527044e-05 0)
(0.69147746 7.0519024e-05 0)
(0.68933045 6.7648574e-05 0)
(0.68721139 6.4909012e-05 0)
(0.68511938 6.2293531e-05 0)
(0.6830536 5.9795908e-05 0)
(0.68101321 5.7410289e-05 0)
(0.67899743 5.5131226e-05 0)
(0.67700549 5.2953631e-05 0)
(0.67503662 5.0872826e-05 0)
(0.6730901 4.8884437e-05 0)
(0.67116516 4.6984706e-05 0)
(0.6692611 4.5169903e-05 0)
(0.66737705 4.3437845e-05 0)
(0.66551245 4.1785258e-05 0)
(0.66366572 4.0215269e-05 0)
(0.66183739 3.8721274e-05 0)
(0.66002198 3.7330178e-05 0)
(0.65822744 3.6001588e-05 0)
(0.65642646 3.4907051e-05 0)
(0.65467023 3.384785e-05 5.1575042e-21)
(0.65280994 3.4991699e-05 0)
(0.65124694 3.0821594e-05 0)
(0.64838525 3.8130625e-05 0)
(0.99788484 0.00049572257 0)
(0.99784877 0.00069373462 0)
(0.99783954 0.00084611318 0)
(0.99781572 0.00098453277 0)
(0.99778429 0.0011374642 0)
(0.9977615 0.0013112339 0)
(0.99775283 0.0014968576 0)
(0.99775773 0.0016825909 0)
(0.99777965 0.0018725318 0)
(0.99782111 0.0020721461 0)
(0.99787934 0.0022756455 0)
(0.9979489 0.0024739391 0)
(0.9980218 0.0026599801 0)
(0.99808726 0.0028276746 0)
(0.99813325 0.0029744117 0)
(0.99814448 0.0030963682 0)
(0.99810355 0.0031923834 0)
(0.99799282 0.003261113 0)
(0.99778853 0.0033014122 0)
(0.99746286 0.0033136603 0)
(0.9969823 0.0032999105 0)
(0.99630831 0.0032592065 0)
(0.99534461 0.0031933359 0)
(0.99395882 0.0031040891 0)
(0.99203956 0.0029924151 0)
(0.98947242 0.0028611014 0)
(0.98613522 0.0027136509 0)
(0.98190931 0.002554867 0)
(0.97668786 0.0023914016 0)
(0.97039432 0.0022311531 0)
(0.96298594 0.0020654025 0)
(0.954612 0.0018923684 0)
(0.94549827 0.0017246966 0)
(0.93596923 0.0015639101 0)
(0.92637638 0.0014094355 0)
(0.91704665 0.001259386 0)
(0.90824499 0.0011169105 0)
(0.90013628 0.00099097912 0)
(0.89273769 0.00088744202 0)
(0.88596614 0.00080766718 0)
(0.87969771 0.00074984658 0)
(0.87380937 0.00070927819 0)
(0.86821127 0.00067889955 0)
(0.86285116 0.00065203634 0)
(0.85770248 0.00062468467 0)
(0.8527497 0.00059604324 0)
(0.84797852 0.00056675787 0)
(0.84337347 0.00053777629 0)
(0.83891815 0.00051009395 0)
(0.83459661 0.00048422674 0)
(0.83039534 0.00046015327 0)
(0.82630465 0.00043756291 0)
(0.8223182 0.00041624959 0)
(0.81843067 0.00039614578 0)
(0.81463635 0.00037712952 0)
(0.8109298 0.00035910144 0)
(0.80730651 0.00034203191 0)
(0.80376254 0.00032588393 0)
(0.80029434 0.00031055957 0)
(0.79689877 0.00029600394 0)
(0.79357282 0.00028223381 0)
(0.79031353 0.00026916914 0)
(0.78711846 0.00025675474 0)
(0.78398528 0.00024499045 0)
(0.78091157 0.00023381863 0)
(0.77789522 0.00022319918 0)
(0.77493421 0.00021312871 0)
(0.77202648 0.0002035605 0)
(0.7691702 0.00019446364 0)
(0.7663636 0.00018583055 0)
(0.76360491 0.00017762415 0)
(0.76089249 0.00016982408 0)
(0.75822475 0.00016241033 0)
(0.75560017 0.00015535882 0)
(0.75301728 0.00014865311 0)
(0.75047466 0.00014227167 0)
(0.74797095 0.00013619814 0)
(0.74550486 0.00013041627 0)
(0.74307514 0.00012490984 0)
(0.74068058 0.00011966473 0)
(0.73832003 0.00011466691 0)
(0.73599238 0.0001099035 0)
(0.73369654 0.00010536237 0)
(0.73143148 0.00010103222 0)
(0.7291962 9.6902518e-05 0)
(0.72698972 9.2963523e-05 0)
(0.72481107 8.9206229e-05 0)
(0.7226593 8.5622539e-05 0)
(0.7205335 8.2205183e-05 0)
(0.7184326 7.8948025e-05 0)
(0.71635585 7.5846908e-05 0)
(0.71430148 7.2899597e-05 0)
(0.71226984 7.0109514e-05 0)
(0.71025527 6.7483798e-05 0)
(0.70826549 6.5043161e-05 0)
(0.70627305 6.2872628e-05 0)
(0.70432897 6.103802e-05 3.5801256e-21)
(0.70228203 5.9607176e-05 0)
(0.70054955 5.9480228e-05 0)
(0.69741344 6.1040437e-05 -2.8327158e-20)
(0.99792178 0.00050903645 0)
(0.99788582 0.00069685444 0)
(0.99788116 0.00085733725 0)
(0.9978718 0.0010098426 0)
(0.99785972 0.0011708522 0)
(0.99785737 0.001342114 0)
(0.99787064 0.001518669 0)
(0.99790148 0.0017003885 0)
(0.99795352 0.0018873914 0)
(0.99802879 0.0020717938 0)
(0.99812654 0.0022458043 0)
(0.99824508 0.0024031628 0)
(0.99838113 0.0025396819 0)
(0.99852995 0.002652673 0)
(0.99868678 0.0027415734 0)
(0.99884631 0.002804312 0)
(0.99900377 0.0028448632 0)
(0.99915638 0.0028645916 0)
(0.99929951 0.0028648244 0)
(0.9994281 0.002851573 0)
(0.99953956 0.0028280098 0)
(0.99963133 0.0027960437 0)
(0.99969838 0.0027567612 0)
(0.99973271 0.0027120835 0)
(0.99972463 0.0026645524 0)
(0.99966204 0.0026161319 0)
(0.99952783 0.0025687812 0)
(0.99929925 0.0025240327 0)
(0.9989443 0.0024822976 0)
(0.99841414 0.0024423521 0)
(0.99762957 0.0024032093 0)
(0.99638802 0.002362015 0)
(0.99449928 0.0023128174 0)
(0.991762 0.0022513668 0)
(0.98799445 0.0021758833 0)
(0.98306971 0.0020905308 0)
(0.97692807 0.0019916568 0)
(0.96969961 0.001872967 0)
(0.96167907 0.001742074 0)
(0.95323278 0.0016068523 0)
(0.9447352 0.0014709472 0)
(0.93650503 0.0013380291 0)
(0.9287649 0.0012166556 0)
(0.92158411 0.0011130385 0)
(0.91491909 0.0010281151 0)
(0.90867266 0.00096068061 0)
(0.90274689 0.00090696644 0)
(0.89707494 0.00086138061 0)
(0.89162149 0.00081933717 0)
(0.88636938 0.00077865046 0)
(0.881306 0.00073897631 0)
(0.87641764 0.00070063293 0)
(0.87168925 0.00066420024 0)
(0.86710592 0.00063008342 0)
(0.86265469 0.00059818485 0)
(0.85832582 0.00056821895 0)
(0.85411202 0.00054002267 0)
(0.8500067 0.00051348452 0)
(0.84600341 0.00048843889 0)
(0.84209648 0.00046477243 0)
(0.83828088 0.00044245781 0)
(0.834552 0.00042135205 0)
(0.83090591 0.00040135896 0)
(0.82733893 0.00038245819 0)
(0.82384745 0.0003645548 0)
(0.82042839 0.00034757736 0)
(0.81707882 0.00033150515 0)
(0.81379587 0.00031626398 0)
(0.81057701 0.00030180046 0)
(0.80741981 0.00028809291 0)
(0.80432191 0.00027508333 0)
(0.80128112 0.00026273537 0)
(0.79829536 0.00025101418 0)
(0.79536264 0.00023988094 0)
(0.79248107 0.00022930697 0)
(0.78964881 0.00021925752 0)
(0.78686414 0.00020970478 0)
(0.78412538 0.0002006217 0)
(0.78143096 0.00019198169 0)
(0.77877935 0.00018376124 0)
(0.77616907 0.00017593739 0)
(0.77359874 0.00016848892 0)
(0.77106698 0.0001613959 0)
(0.76857251 0.00015463978 0)
(0.76611405 0.00014820329 0)
(0.76369039 0.00014207037 0)
(0.76130034 0.00013622632 0)
(0.75894272 0.00013065759 0)
(0.7566164 0.00012535254 0)
(0.7543201 0.00012029994 0)
(0.75205287 0.00011549499 0)
(0.74981279 0.00011092725 0)
(0.74759995 0.00010661496 0)
(0.74540864 0.00010253266 0)
(0.74324616 9.8793403e-05 0)
(0.74108538 9.5319563e-05 0)
(0.73897641 9.2655321e-05 2.8739036e-21)
(0.73676743 8.9686383e-05 0)
(0.73488869 9.3669007e-05 0)
(0.73151517 8.7625453e-05 2.2934825e-20)
(0.99796345 0.00052810429 0)
(0.99791938 0.00070416866 0)
(0.99790806 0.00086235762 0)
(0.99789868 0.0010126409 0)
(0.99789032 0.0011687192 0)
(0.99789259 0.001334026 0)
(0.99791076 0.0015062982 0)
(0.99794668 0.0016844255 0)
(0.99800312 0.0018656482 0)
(0.99808203 0.0020439205 0)
(0.99818332 0.0022149966 0)
(0.99830564 0.0023744347 0)
(0.99844609 0.0025181689 0)
(0.9986005 0.0026430925 0)
(0.99876482 0.0027478265 0)
(0.99893405 0.0028306912 0)
(0.99910392 0.0028938404 0)
(0.99927181 0.0029371416 0)
(0.9994342 0.0029613226 0)
(0.99958808 0.0029688537 0)
(0.99973223 0.0029618815 0)
(0.99986627 0.0029408654 0)
(0.99998841 0.0029063064 0)
(1.0000961 0.0028597382 0)
(1.0001879 0.0028037317 0)
(1.0002618 0.0027409596 0)
(1.0003158 0.0026737249 0)
(1.0003479 0.0026046469 0)
(1.0003563 0.0025367996 0)
(1.0003395 0.0024737104 0)
(1.000296 0.0024182032 0)
(1.0002192 0.0023719412 0)
(1.0000981 0.0023359038 0)
(0.99991339 0.0023094556 0)
(0.99963633 0.0022905175 0)
(0.9992175 0.0022741933 0)
(0.99858531 0.0022550924 0)
(0.99755277 0.002228968 0)
(0.99588807 0.0021911342 0)
(0.99337124 0.0021386278 0)
(0.98981814 0.0020724514 0)
(0.9851178 0.0019936355 0)
(0.97929703 0.0018957466 0)
(0.97260135 0.001781686 0)
(0.96535836 0.0016612893 0)
(0.95792218 0.0015383259 0)
(0.95060541 0.0014188575 0)
(0.94361099 0.0013105112 0)
(0.93700256 0.0012161973 0)
(0.93075204 0.0011363327 0)
(0.92479397 0.0010693331 0)
(0.91907189 0.0010114561 0)
(0.91355292 0.00095894744 0)
(0.90822136 0.00090954663 0)
(0.90306715 0.00086242535 0)
(0.89807965 0.00081749998 0)
(0.89324664 0.00077508476 0)
(0.88855566 0.00073533878 0)
(0.88399593 0.00069805624 0)
(0.87955927 0.00066299484 0)
(0.87523881 0.00063005567 0)
(0.87102799 0.00059902043 0)
(0.86692085 0.00056973513 0)
(0.86291198 0.00054213571 0)
(0.85899642 0.00051606699 0)
(0.8551699 0.00049141199 0)
(0.85142839 0.00046812142 0)
(0.84776804 0.00044608285 0)
(0.84418544 0.00042521051 0)
(0.84067742 0.00040546029 0)
(0.83724091 0.00038674683 0)
(0.8338731 0.00036901183 0)
(0.83057133 0.00035220042 0)
(0.8273331 0.00033625449 0)
(0.824156 0.000321129 0)
(0.82103778 0.00030677246 0)
(0.81797626 0.00029314232 0)
(0.81496941 0.00028019777 0)
(0.81201526 0.00026789917 0)
(0.80911193 0.00025621112 0)
(0.80625763 0.00024509948 0)
(0.80345065 0.00023453261 0)
(0.80068933 0.00022448088 0)
(0.79797209 0.00021491669 0)
(0.79529739 0.00020581438 0)
(0.79266377 0.00019715009 0)
(0.79006978 0.00018890198 0)
(0.787514 0.00018104977 0)
(0.78499511 0.00017357636 0)
(0.7825116 0.00016646422 0)
(0.7800623 0.00015970711 0)
(0.77764511 0.00015328465 0)
(0.7752599 0.00014723114 0)
(0.7729009 0.00014148299 0)
(0.77057497 0.00013625752 0)
(0.76825537 0.00013128037 0)
(0.76599127 0.00012770284 2.4881575e-21)
(0.76363042 0.00012273768 3.6738864e-20)
(0.7616158 0.00013184649 0)
(0.75802174 0.00011583121 0)
(0.99800913 0.00054856774 0)
(0.9979589 0.00071336547 0)
(0.99793923 0.00086707891 0)
(0.99792604 0.0010150387 0)
(0.99791725 0.0011686105 0)
(0.99792007 0.0013309258 0)
(0.99793887 0.0014999465 0)
(0.9979753 0.0016739273 0)
(0.99803172 0.0018503982 0)
(0.99810999 0.0020246739 0)
(0.99821005 0.0021924903 0)
(0.99833054 0.0023490515 0)
(0.99846874 0.0024900229 0)
(0.99862078 0.0026121935 0)
(0.99878276 0.0027139984 0)
(0.9989503 0.0027939406 0)
(0.99911943 0.0028534466 0)
(0.99928747 0.002892762 0)
(0.99945121 0.0029126412 0)
(0.99960782 0.0029161159 0)
(0.9997563 0.0029053944 0)
(0.99989613 0.0028814811 0)
(1.0000259 0.0028455636 0)
(1.0001436 0.0027996227 0)
(1.0002476 0.0027460396 0)
(1.0003372 0.0026870705 0)
(1.0004123 0.0026252813 0)
(1.0004726 0.0025632194 0)
(1.0005184 0.002503812 0)
(1.0005508 0.0024502418 0)
(1.0005716 0.0024037986 0)
(1.0005826 0.0023648659 0)
(1.000585 0.0023333771 0)
(1.000579 0.002307641 0)
(1.000563 0.0022850627 0)
(1.0005326 0.0022638698 0)
(1.0004824 0.0022436326 0)
(1.000401 0.0022244376 0)
(1.0002681 0.0022068368 0)
(1.0000556 0.0021911928 0)
(0.9997214 0.002176665 0)
(0.99920032 0.0021599573 0)
(0.99835585 0.0021380255 0)
(0.99696079 0.0021069126 0)
(0.99479899 0.0020625827 0)
(0.99168822 0.0020060039 0)
(0.98750846 0.0019333103 0)
(0.98233201 0.0018414207 0)
(0.97638467 0.0017380702 0)
(0.96996676 0.0016292673 0)
(0.9633917 0.0015199552 0)
(0.95690951 0.0014169159 0)
(0.95064762 0.0013237513 0)
(0.9446343 0.0012416049 0)
(0.93884446 0.001169972 0)
(0.93324548 0.0011064256 0)
(0.92781705 0.0010483285 0)
(0.92254997 0.00099397873 0)
(0.91743852 0.00094253393 0)
(0.9124758 0.00089381963 0)
(0.90765289 0.00084800975 0)
(0.90296065 0.00080497293 0)
(0.89839156 0.00076448903 0)
(0.89393934 0.00072642933 0)
(0.88959811 0.00069056973 0)
(0.88536245 0.00065674281 0)
(0.88122726 0.00062485984 0)
(0.87718781 0.00059475536 0)
(0.87323992 0.00056630051 0)
(0.86937968 0.00053942019 0)
(0.86560334 0.0005139935 0)
(0.86190748 0.00048993279 0)
(0.85828888 0.00046715687 0)
(0.8547445 0.00044558288 0)
(0.85127148 0.00042514458 0)
(0.84786708 0.00040576939 0)
(0.84452875 0.0003873963 0)
(0.84125404 0.00036996731 0)
(0.83804061 0.00035342671 0)
(0.83488625 0.00033772441 0)
(0.83178882 0.00032281252 0)
(0.82874629 0.00030864662 0)
(0.82575672 0.00029518522 0)
(0.82281824 0.00028238969 0)
(0.81992903 0.00027022412 0)
(0.81708737 0.00025865513 0)
(0.81429157 0.00024765221 0)
(0.81153999 0.00023718683 0)
(0.80883104 0.00022723516 0)
(0.80616302 0.00021777208 0)
(0.80353455 0.00020878888 0)
(0.80094335 0.00020025392 0)
(0.79838904 0.00019221743 0)
(0.79586578 0.00018457466 0)
(0.79338003 0.00017765287 0)
(0.79090542 0.0001709618 0)
(0.78849028 0.0001663306 0)
(0.78598165 0.00015884013 0)
(0.78383593 0.00017409019 5.3977091e-20)
(0.7800288 0.00014610918 0)
(0.99805558 0.00056991508 0)
(0.99800251 0.00072455263 0)
(0.99797647 0.00087337292 0)
(0.99795923 0.0010187455 0)
(0.99794863 0.001169536 0)
(0.99795022 0.0013282718 0)
(0.99796775 0.0014932125 0)
(0.99800284 0.0016626653 0)
(0.99805757 0.001834432 0)
(0.99813357 0.0020042999 0)
(0.99823082 0.0021679803 0)
(0.99834802 0.0023209549 0)
(0.99848264 0.0024591848 0)
(0.99863107 0.0025796198 0)
(0.99878955 0.0026806463 0)
(0.99895397 0.0027608958 0)
(0.99912052 0.0028213522 0)
(0.99928646 0.0028624435 0)
(0.99944876 0.0028849213 0)
(0.99960469 0.0028912258 0)
(0.99975315 0.0028836528 0)
(0.99989348 0.0028632428 0)
(1.0000243 0.0028309237 0)
(1.0001439 0.0027884499 0)
(1.000251 0.0027381008 0)
(1.0003449 0.0026821691 0)
(1.0004255 0.0026230674 0)
(1.0004928 0.0025633459 0)
(1.0005471 0.002505647 0)
(1.0005902 0.0024526502 0)
(1.0006243 0.0024059209 0)
(1.0006519 0.0023661339 0)
(1.0006753 0.0023335396 0)
(1.0006963 0.0023069068 0)
(1.0007156 0.0022842581 0)
(1.0007327 0.0022642626 0)
(1.0007463 0.0022458507 0)
(1.0007544 0.0022281477 0)
(1.0007544 0.0022110513 0)
(1.0007426 0.0021944466 0)
(1.0007144 0.0021778935 0)
(1.0006636 0.002161408 0)
(1.0005796 0.0021449405 0)
(1.0004399 0.0021283378 0)
(1.0002127 0.0021117876 0)
(0.99984879 0.0020943627 0)
(0.99927698 0.00207461 0)
(0.99832577 0.0020501294 0)
(0.99678979 0.0020166194 0)
(0.99447489 0.0019720519 0)
(0.99122566 0.0019135123 0)
(0.98701933 0.001837172 0)
(0.98200353 0.0017476137 0)
(0.97641714 0.0016510949 0)
(0.97054185 0.001552807 0)
(0.9646184 0.0014585154 0)
(0.95878935 0.001370954 0)
(0.95310763 0.0012916442 0)
(0.94757592 0.0012204474 0)
(0.94218375 0.0011557898 0)
(0.93692512 0.0010959672 0)
(0.93179899 0.0010397643 0)
(0.92680438 0.00098661477 0)
(0.92193755 0.00093649827 0)
(0.9171928 0.00088929394 0)
(0.91256474 0.00084482364 0)
(0.90804862 0.00080295832 0)
(0.9036399 0.00076347961 0)
(0.89933426 0.00072621922 0)
(0.8951275 0.00069106899 0)
(0.89101559 0.00065786561 0)
(0.88699482 0.00062648682 0)
(0.88306165 0.00059682028 0)
(0.87921269 0.0005687532 0)
(0.87544476 0.00054219315 0)
(0.8717548 0.0005170422 0)
(0.86813993 0.00049321702 0)
(0.8645974 0.00047063904 0)
(0.86112458 0.00044923333 0)
(0.85771894 0.00042893229 0)
(0.85437809 0.0004096717 0)
(0.8510997 0.00039139199 0)
(0.84788156 0.00037403756 0)
(0.84472155 0.0003575567 0)
(0.84161761 0.00034190137 0)
(0.83856775 0.00032702689 0)
(0.83557008 0.00031289242 0)
(0.8326227 0.0002994597 0)
(0.82972383 0.00028669671 0)
(0.82687157 0.00027456944 0)
(0.8240643 0.00026306562 0)
(0.82129958 0.00025214103 0)
(0.81857681 0.00024186136 0)
(0.81589006 0.00023207846 0)
(0.81324541 0.00022323305 0)
(0.81061681 0.00021460446 0)
(0.80805192 0.00020875346 0)
(0.80539666 0.00019835193 0)
(0.80312171 0.00022057621 5.0632735e-20)
(0.79910426 0.0001788435 0)
(0.99810124 0.00059152298 0)
(0.99804759 0.00073715857 0)
(0.99801758 0.00088105637 0)
(0.99799749 0.0010234549 0)
(0.99798528 0.0011710342 0)
(0.99798532 0.001325868 0)
(0.99800099 0.0014865392 0)
(0.99803396 0.0016514446 0)
(0.99808612 0.0018184753 0)
(0.99815896 0.0019837794 0)
(0.99825255 0.0021432714 0)
(0.99836567 0.0022927598 0)
(0.998496 0.0024284265 0)
(0.9986402 0.0025472906 0)
(0.99879462 0.0026476453 0)
(0.99895538 0.0027281674 0)
(0.99911879 0.0027894686 0)
(0.99928205 0.0028319785 0)
(0.99944223 0.0028563875 0)
(0.99959669 0.0028648111 0)
(0.99974416 0.0028593437 0)
(0.99988388 0.0028410549 0)
(1.0000145 0.0028109517 0)
(1.0001343 0.002770748 0)
(1.0002423 0.0027226593 0)
(1.0003377 0.0026689337 0)
(1.0004204 0.0026119117 0)
(1.0004904 0.0025540529 0)
(1.0005484 0.0024979566 0)
(1.0005959 0.0024462691 0)
(1.0006351 0.0024005899 0)
(1.0006687 0.0023616803 0)
(1.0006988 0.002329703 0)
(1.0007278 0.0023035171 0)
(1.0007568 0.0022813728 0)
(1.0007856 0.0022618076 0)
(1.0008139 0.0022436203 0)
(1.0008407 0.0022260372 0)
(1.0008649 0.002209056 0)
(1.000886 0.0021926791 0)
(1.0009029 0.0021768136 0)
(1.0009146 0.0021614311 0)
(1.0009194 0.0021460434 0)
(1.000914 0.0021304196 0)
(1.0008938 0.0021146451 0)
(1.0008523 0.002098821 0)
(1.0007816 0.0020829633 0)
(1.0006648 0.0020667083 0)
(1.0004724 0.0020498696 0)
(1.0001619 0.0020320952 0)
(0.99967028 0.0020125454 0)
(0.99886594 0.0019896817 0)
(0.9975614 0.001960058 0)
(0.99557334 0.0019211878 0)
(0.99274143 0.0018685766 0)
(0.98903654 0.0017995052 0)
(0.98456554 0.0017190576 0)
(0.9795321 0.0016318968 0)
(0.97418547 0.001543352 0)
(0.96873258 0.0014576139 0)
(0.96330127 0.0013767701 0)
(0.95794671 0.0013022411 0)
(0.95268467 0.0012338552 0)
(0.94751991 0.001170606 0)
(0.94245765 0.0011113572 0)
(0.93750294 0.0010553899 0)
(0.93265757 0.0010025198 0)
(0.92792024 0.00095259118 0)
(0.92328871 0.00090545485 0)
(0.91876048 0.00086098876 0)
(0.91433284 0.0008189971 0)
(0.91000285 0.00077933289 0)
(0.90576746 0.00074185754 0)
(0.90162362 0.00070642839 0)
(0.89756834 0.00067292589 0)
(0.89359865 0.0006412253 0)
(0.8897117 0.0006112189 0)
(0.88590467 0.0005828051 0)
(0.88217486 0.00055588744 0)
(0.87851963 0.00053037862 0)
(0.87493643 0.00050619589 0)
(0.87142279 0.0004832625 0)
(0.86797633 0.00046150684 0)
(0.86459475 0.00044086226 0)
(0.86127581 0.00042126686 0)
(0.85801735 0.00040266303 0)
(0.85481727 0.00038499804 0)
(0.8516735 0.00036822241 0)
(0.84858407 0.00035229458 0)
(0.8455469 0.00033717035 0)
(0.84256021 0.00032283271 0)
(0.83962136 0.00030922375 0)
(0.83672957 0.00029642376 0)
(0.83387885 0.00028423956 0)
(0.83107489 0.00027322761 0)
(0.82829192 0.00026242453 0)
(0.82557713 0.0002551735 0)
(0.82277492 0.00024149425 -1.504325e-20)
(0.82037103 0.00027146224 0)
(0.81614347 0.00021424899 -8.3229338e-21)
(0.99814573 0.00061309091 0)
(0.99809272 0.0007506582 0)
(0.99806047 0.00088962219 0)
(0.99803877 0.0010287721 0)
(0.99802573 0.001172952 0)
(0.99802473 0.001323825 0)
(0.99803876 0.0014802002 0)
(0.99806956 0.0016405347 0)
(0.99811892 0.0018027954 0)
(0.99818826 0.0019634873 0)
(0.99827773 0.0021187729 0)
(0.9983863 0.0022647295 0)
(0.99851184 0.0023977283 0)
(0.99865127 0.0025148645 0)
(0.99880115 0.0026143693 0)
(0.99895778 0.002694945 0)
(0.99911759 0.0027569057 0)
(0.99927776 0.0028006366 0)
(0.99943542 0.0028267708 0)
(0.999588 0.0028371569 0)
(0.99973408 0.0028337274 0)
(0.99987276 0.0028175965 0)
(1.0000027 0.0027898101 0)
(1.0001223 0.0027520235 0)
(1.0002305 0.0027063626 0)
(1.0003266 0.0026550139 0)
(1.0004104 0.0026002582 0)
(1.0004821 0.0025444979 0)
(1.0005421 0.0024902572 0)
(1.000592 0.0024400666 0)
(1.0006341 0.0023955143 0)
(1.0006708 0.0023573524 0)
(1.0007043 0.002325768 0)
(1.0007369 0.0022997719 0)
(1.0007698 0.0022777125 0)
(1.0008032 0.0022581794 0)
(1.0008367 0.00224007 0)
(1.0008699 0.0022226903 0)
(1.000902 0.0022060142 0)
(1.0009328 0.0021900436 0)
(1.000962 0.0021746601 0)
(1.0009895 0.002159701 0)
(1.0010146 0.002144708 0)
(1.0010365 0.0021295177 0)
(1.0010538 0.0021142468 0)
(1.0010651 0.0020990203 0)
(1.001069 0.0020837747 0)
(1.0010627 0.0020683439 0)
(1.0010415 0.0020528663 0)
(1.0009989 0.0020374748 0)
(1.0009261 0.0020221468 0)
(1.0008073 0.0020064541 0)
(1.0006129 0.0019898865 0)
(1.0002995 0.0019719585 0)
(0.99980455 0.0019523218 0)
(0.99899447 0.0019296085 0)
(0.99770076 0.0019005653 0)
(0.99575284 0.0018624251 0)
(0.99301333 0.0018101538 0)
(0.98948351 0.0017438562 0)
(0.98526633 0.0016685956 0)
(0.98055606 0.0015886322 0)
(0.97556741 0.001508182 0)
(0.97046844 0.0014296346 0)
(0.96535826 0.0013551997 0)
(0.96028293 0.0012857711 0)
(0.95526337 0.0012211188 0)
(0.95031368 0.001160409 0)
(0.94544527 0.0011029938 0)
(0.94066531 0.001048639 0)
(0.93597692 0.00099718269 0)
(0.93138114 0.00094850534 0)
(0.92687799 0.00090246889 0)
(0.92246674 0.00085892071 0)
(0.91814604 0.00081772963 0)
(0.91391414 0.00077875358 0)
(0.90976903 0.00074186595 0)
(0.90570856 0.00070694524 0)
(0.90173047 0.00067387495 0)
(0.89783245 0.00064254834 0)
(0.89401215 0.00061286381 0)
(0.89026725 0.00058472671 0)
(0.88659541 0.00055804855 0)
(0.88299435 0.00053274674 0)
(0.87946182 0.00050874441 0)
(0.8759956 0.00048596989 0)
(0.87259352 0.00046435742 0)
(0.86925341 0.00044384518 0)
(0.86597319 0.00042438089 0)
(0.86275067 0.00040590908 0)
(0.85958393 0.00038840693 0)
(0.85647023 0.00037180185 0)
(0.85340861 0.00035618787 0)
(0.85039302 0.00034132556 0)
(0.84742889 0.00032788859 0)
(0.84449063 0.00031466012 0)
(0.84162513 0.00030581497 1.0097292e-21)
(0.83867495 0.00028847572 0)
(0.83614159 0.0003269414 4.7982676e-20)
(0.83170281 0.00025251825 0)
(0.99818908 0.00063444628 0)
(0.99813739 0.00076472464 0)
(0.99810401 0.00089875952 0)
(0.99808152 0.0010344552 0)
(0.99806831 0.0011751334 0)
(0.99806688 0.0013220466 0)
(0.99807983 0.0014741411 0)
(0.99810887 0.0016299236 0)
(0.99815567 0.0017874441 0)
(0.9982216 0.0019435287 0)
(0.99830691 0.0020945867 0)
(0.99841075 0.0022369415 0)
(0.99853123 0.002367158 0)
(0.99866555 0.0024824262 0)
(0.9988105 0.0025809415 0)
(0.99896258 0.0026614194 0)
(0.99911838 0.0027239314 0)
(0.99927505 0.0027687943 0)
(0.99942982 0.0027965811 0)
(0.99958014 0.0028089016 0)
(0.99972449 0.00280753 0)
(0.99986184 0.0027935972 0)
(0.99999083 0.0027681649 0)
(1.0001099 0.0027328286 0)
(1.000218 0.0026896256 0)
(1.0003145 0.0026406809 0)
(1.0003991 0.0025882161 0)
(1.0004718 0.002534572 0)
(1.0005333 0.0024821857 0)
(1.0005851 0.0024334726 0)
(1.0006291 0.002390011 0)
(1.0006679 0.0023525725 0)
(1.0007035 0.0023213679 0)
(1.0007382 0.0022955297 0)
(1.0007732 0.0022735367 0)
(1.0008088 0.0022540623 0)
(1.0008449 0.0022360686 0)
(1.0008809 0.002218877 0)
(1.0009164 0.002202409 0)
(1.0009512 0.0021866467 0)
(1.0009854 0.0021714579 0)
(1.0010188 0.0021566773 0)
(1.0010512 0.0021419145 0)
(1.0010821 0.0021270219 0)
(1.001111 0.0021121106 0)
(1.0011374 0.0020973167 0)
(1.0011609 0.0020825752 0)
(1.0011806 0.0020677389 0)
(1.0011954 0.0020529137 0)
(1.0012037 0.0020381946 0)
(1.0012036 0.0020235053 0)
(1.0011922 0.0020086103 0)
(1.0011643 0.001993559 0)
(1.0011123 0.001978625 0)
(1.0010264 0.0019637011 0)
(1.0008871 0.0019482404 0)
(1.0006615 0.0019316912 0)
(1.0003017 0.0019135263 0)
(0.9997294 0.0018934623 0)
(0.99880077 0.0018696169 0)
(0.99736052 0.0018392738 0)
(0.99524863 0.0017974406 0)
(0.99239627 0.0017421169 0)
(0.98883125 0.0016769719 0)
(0.98468503 0.0016054243 0)
(0.98014703 0.0015310673 0)
(0.97539414 0.0014564953 0)
(0.97055026 0.0013841943 0)
(0.96568456 0.0013156401 0)
(0.96083356 0.0012511433 0)
(0.95602083 0.0011902575 0)
(0.95126399 0.001132524 0)
(0.94657492 0.0010777011 0)
(0.9419608 0.0010256676 0)
(0.93742582 0.00097633076 0)
(0.9329724 0.00092956257 0)
(0.92860172 0.00088524299 0)
(0.92431392 0.00084325039 0)
(0.9201085 0.00080346135 0)
(0.91598446 0.00076575842 0)
(0.91194048 0.00073002694 0)
(0.90797498 0.00069615806 0)
(0.9040862 0.00066404856 0)
(0.90027228 0.00063360117 0)
(0.89653126 0.00060472468 0)
(0.89286116 0.00057733357 0)
(0.88925994 0.00055134893 0)
(0.88572552 0.00052669627 0)
(0.88225587 0.00050331214 0)
(0.8788488 0.00048112924 0)
(0.87550236 0.00046011822 0)
(0.8722138 0.00044019126 0)
(0.86898206 0.00042145529 0)
(0.8658011 0.00040362397 0)
(0.8626761 0.00038748917 0)
(0.85958169 0.00037157117 0)
(0.85656462 0.00036092421 0)
(0.85346534 0.00033952753 0)
(0.85080172 0.00038725661 0)
(0.84615006 0.0002938566 0)
(0.99823145 0.00065547654 0)
(0.99818148 0.00077914714 0)
(0.99814771 0.00090829138 0)
(0.99812494 0.0010403531 0)
(0.99811191 0.0011774268 0)
(0.99811047 0.0013203724 0)
(0.99812282 0.001468216 0)
(0.99815057 0.0016195046 0)
(0.99819525 0.0017723615 0)
(0.99825814 0.0019238879 0)
(0.99833955 0.0020707336 0)
(0.99843879 0.0022094573 0)
(0.99855422 0.002336818 0)
(0.99868331 0.0024501115 0)
(0.99882311 0.0025475171 0)
(0.99897035 0.0026277577 0)
(0.99912178 0.0026907082 0)
(0.9992746 0.0027366028 0)
(0.99942611 0.0027659498 0)
(0.99957382 0.0027801449 0)
(0.99971611 0.0027808053 0)
(0.99985183 0.0027690573 0)
(0.99997961 0.0027459692 0)
(1.000098 0.002713079 0)
(1.0002058 0.0026723383 0)
(1.0003023 0.0026258075 0)
(1.0003874 0.0025756462 0)
(1.000461 0.0025241292 0)
(1.0005237 0.0024736078 0)
(1.0005769 0.0024263921 0)
(1.0006226 0.0023840468 0)
(1.000663 0.002347364 0)
(1.0007002 0.002316575 0)