/*--------------------------------*- C++ -*----------------------------------*\
  =========                 |
  \\      /  F ield         | OpenFOAM: The Open Source CFD Toolbox
   \\    /   O peration     | Website:  https://openfoam.org
    \\  /    A nd           | Version:  12
     \\/     M anipulation  |
\*---------------------------------------------------------------------------*/
FoamFile
{
    format      ascii;
    class       volVectorField;
    location    "800";
    object      wallShearStress;
}
// * * * * * * * * * * * * * * * * * * * * * * * * * * * * * * * * * * * * * //

dimensions      [0 2 -2 0 0 0 0];

internalField   uniform (0 0 0);

boundaryField
{
    inlet
    {
        type            calculated;
        value           uniform (0 0 0);
    }
    top
    {
        type            calculated;
        value           uniform (0 0 0);
    }
    outlet
    {
        type            calculated;
        value           uniform (0 0 0);
    }
    slipsurface
    {
        type            calculated;
        value           uniform (0 0 0);
    }
    bottom
    {
        type            calculated;
        value           nonuniform List<vector> 
100
(
(-0.00062229853 -3.5491989e-07 1.3503163e-21)
(-0.00072109175 -4.870614e-07 3.8814838e-23)
(-0.00084045196 -8.0062323e-07 0)
(-0.0009749837 -1.2085851e-06 8.1530838e-21)
(-0.0011227967 -1.7367e-06 4.6735302e-20)
(-0.0012815221 -2.2834756e-06 -4.643087e-20)
(-0.0014474504 -2.8368174e-06 4.7273449e-22)
(-0.0016155792 -3.796936e-06 1.375445e-19)
(-0.0017798177 -4.9239631e-06 0)
(-0.0019335561 -6.1430909e-06 3.9023815e-19)
(-0.002070387 -7.3918957e-06 0)
(-0.0021852305 -8.5916353e-06 -6.165569e-19)
(-0.002274834 -9.6598415e-06 0)
(-0.0023380195 -1.0507169e-05 1.1936403e-18)
(-0.0023754702 -1.1155256e-05 -2.0880753e-22)
(-0.0023897108 -1.1389959e-05 1.3785933e-18)
(-0.0023828929 -1.1411647e-05 0)
(-0.0023650716 -1.1184062e-05 0)
(-0.0023256802 -1.066722e-05 3.9292412e-19)
(-0.0022819526 -9.9956298e-06 3.6023325e-19)
(-0.0022326527 -9.1742932e-06 6.4874551e-19)
(-0.0021802617 -8.2325835e-06 0)
(-0.0021270736 -7.2270718e-06 -4.1152194e-19)
(-0.002074964 -6.2113821e-06 0)
(-0.0020254426 -5.2156197e-06 1.0264605e-19)
(-0.0019797264 -4.2670538e-06 0)
(-0.0019387556 -3.385185e-06 -0)
(-0.0019031999 -2.5940531e-06 0)
(-0.0018734344 -1.9187452e-06 -5.1982334e-21)
(-0.0018494236 -1.3804365e-06 -4.6029107e-20)
(-0.0018306263 -9.9596313e-07 0)
(-0.001816015 -7.6132059e-07 7.0272488e-20)
(-0.001804212 -6.5183693e-07 -6.032409e-20)
(-0.0017937884 -6.2991949e-07 0)
(-0.0017836187 -6.5268781e-07 0)
(-0.0017730727 -6.8398488e-07 9.8137621e-21)
(-0.0017619896 -7.0163033e-07 0)
(-0.0017505089 -6.9781716e-07 0)
(-0.0017388531 -6.782577e-07 0)
(-0.001727171 -6.5372626e-07 -0)
(-0.0017154981 -6.3239974e-07 -0)
(-0.0017038044 -6.1671839e-07 -0)
(-0.0016920689 -6.0423565e-07 -0)
(-0.0016803229 -5.9146486e-07 0)
(-0.001668637 -5.7648172e-07 -0)
(-0.0016570809 -5.591194e-07 -0)
(-0.0016456957 -5.4024994e-07 0)
(-0.0016344931 -5.2081362e-07 0)
(-0.0016234721 -5.0140532e-07 0)
(-0.0016126316 -4.8216505e-07 -0)
(-0.0016019732 -4.631059e-07 0)
(-0.0015914977 -4.4427663e-07 0)
(-0.0015812048 -4.2587269e-07 0)
(-0.001571091 -4.0811776e-07 -0)
(-0.0015611512 -3.9102103e-07 0)
(-0.0015513821 -3.7451432e-07 0)
(-0.0015417808 -3.5863161e-07 0)
(-0.0015323428 -3.4343345e-07 0)
(-0.0015230631 -3.2885338e-07 0)
(-0.0015139392 -3.1484975e-07 -0)
(-0.001504967 -3.0150531e-07 0)
(-0.0014961404 -2.8877995e-07 0)
(-0.0014874547 -2.7661818e-07 0)
(-0.001478906 -2.6502874e-07 0)
(-0.00147049 -2.5395695e-07 0)
(-0.0014622034 -2.4336198e-07 0)
(-0.0014540428 -2.332566e-07 0)
(-0.0014460043 -2.2360293e-07 0)
(-0.0014380847 -2.1437254e-07 -0)
(-0.0014302805 -2.0556932e-07 -0)
(-0.0014225883 -1.971609e-07 -0)
(-0.0014150047 -1.8913038e-07 0)
(-0.0014075269 -1.8146296e-07 0)
(-0.0014001516 -1.7413609e-07 0)
(-0.0013928758 -1.6713555e-07 0)
(-0.0013856968 -1.6044218e-07 0)
(-0.001378612 -1.5404241e-07 0)
(-0.0013716187 -1.4792293e-07 0)
(-0.0013647144 -1.4206974e-07 0)
(-0.0013578967 -1.3647029e-07 0)
(-0.0013511632 -1.3111221e-07 0)
(-0.0013445116 -1.259842e-07 0)
(-0.0013379398 -1.2107554e-07 0)
(-0.0013314456 -1.1637612e-07 0)
(-0.0013250269 -1.1187668e-07 -0)
(-0.0013186816 -1.0756858e-07 0)
(-0.0013124078 -1.0344389e-07 -0)
(-0.0013062033 -9.9495556e-08 -0)
(-0.0013000662 -9.5717512e-08 0)
(-0.0012939938 -9.2105271e-08 0)
(-0.0012879848 -8.8653957e-08 0)
(-0.0012820345 -8.5366538e-08 0)
(-0.0012761446 -8.2241585e-08 0)
(-0.0012702986 -7.9311361e-08 0)
(-0.0012645208 -7.6548783e-08 0)
(-0.001258728 -7.4275246e-08 -0)
(-0.001253077 -7.0392908e-08 1.1423819e-23)
(-0.0012471008 -1.085866e-07 -1.6817484e-22)
(-0.0012421123 -7.3484121e-08 5.4271616e-22)
(-0.0012328514 -1.0993031e-07 2.1454193e-20)
)
;
    }
    frontandback
    {
        type            empty;
    }
}


// ************************************************************************* //
