#      distance             U_x             U_y             U_z wallShearStr... wallShearStr... wallShearStr...               p         epsilon               k             nut
              0      0.99905915               0               0               0               0               0    0.0086319386   0.00075557337   4.7644978e-05   2.7040123e-07
   0.0021021021      0.99903192               0               0               0               0               0    0.0086661766   0.00075424658   4.7512017e-05   2.6936747e-07
   0.0042042042       0.9990047               0               0               0               0               0    0.0087004145    0.0007529198   4.7379055e-05    2.683337e-07
   0.0063063063      0.99897747               0               0               0               0               0    0.0087346525   0.00075159302   4.7246093e-05   2.6729994e-07
   0.0084084084      0.99895024               0               0               0               0               0    0.0087688905   0.00075026624   4.7113131e-05   2.6626617e-07
    0.010510511      0.99891922               0               0               0               0               0    0.0088075957   0.00074901793   4.6986898e-05   2.6528265e-07
    0.012612613      0.99888583               0               0               0               0               0    0.0088490754   0.00074781835   4.6864844e-05   2.6433032e-07
    0.014714715      0.99885245               0               0               0               0               0    0.0088905552   0.00074661877    4.674279e-05     2.63378e-07
    0.016816817      0.99881907               0               0               0               0               0    0.0089320349   0.00074541919   4.6620736e-05   2.6242568e-07
    0.018918919      0.99878569               0               0               0               0               0    0.0089735147    0.0007442196   4.6498682e-05   2.6147336e-07
    0.021021021      0.99875133               0               0               0               0               0    0.0090161201   0.00074303369   4.6377762e-05   2.6052934e-07
    0.023123123      0.99871037               0               0               0               0               0    0.0090662936   0.00074193966   4.6264467e-05   2.5964112e-07
    0.025225225      0.99866942               0               0               0               0               0     0.009116467   0.00074084563   4.6151173e-05    2.587529e-07
    0.027327327      0.99862847               0               0               0               0               0    0.0091666404    0.0007397516   4.6037878e-05   2.5786468e-07
    0.029429429      0.99858752               0               0               0               0               0    0.0092168139   0.00073865757   4.5924583e-05   2.5697646e-07
    0.031531532      0.99854417               0               0               0               0               0    0.0092696762   0.00073758665   4.5813124e-05   2.5610131e-07
    0.033633634      0.99849385               0               0               0               0               0    0.0093303921   0.00073658324   4.5707024e-05   2.5526432e-07
    0.035735736      0.99844352               0               0               0               0               0    0.0093911081   0.00073557983   4.5600924e-05   2.5442734e-07
    0.037837838       0.9983932               0               0               0               0               0     0.009451824   0.00073457643   4.5494824e-05   2.5359035e-07
     0.03993994      0.99834287               0               0               0               0               0      0.00951254   0.00073357302   4.5388725e-05   2.5275336e-07
    0.042042042      0.99828178               0               0               0               0               0    0.0095850681    0.0007326433   4.5288153e-05   2.5195431e-07
    0.044144144      0.99821968               0               0               0               0               0    0.0096587032   0.00073172049   4.5188099e-05   2.5115882e-07
    0.046246246      0.99815758               0               0               0               0               0    0.0097323383   0.00073079768   4.5088046e-05   2.5036332e-07
    0.048348348      0.99809493               0               0               0               0               0     0.009806565   0.00072987759   4.4988183e-05   2.4956907e-07
     0.05045045      0.99801797               0               0               0               0               0    0.0098963204   0.00072902902    4.489332e-05   2.4880746e-07
    0.052552553      0.99794101               0               0               0               0               0    0.0099860759   0.00072818044   4.4798457e-05   2.4804584e-07
    0.054654655      0.99786405               0               0               0               0               0     0.010075831   0.00072733187   4.4703595e-05   2.4728423e-07
    0.056756757      0.99777616               0               0               0               0               0     0.010176968   0.00072652277   4.4611301e-05   2.4653846e-07
    0.058858859      0.99767965               0               0               0               0               0     0.010287077   0.00072574479   4.4521034e-05   2.4580517e-07
    0.060960961      0.99758314               0               0               0               0               0     0.010397186   0.00072496681   4.4430766e-05   2.4507189e-07
    0.063063063      0.99747602               0               0               0               0               0     0.010518709   0.00072421882   4.4342211e-05   2.4434795e-07
    0.065165165      0.99735455               0               0               0               0               0     0.010655661   0.00072351136   4.4255973e-05   2.4363664e-07
    0.067267267      0.99723307               0               0               0               0               0     0.010792613    0.0007228039   4.4169734e-05   2.4292533e-07
    0.069369369      0.99708972               0               0               0               0               0     0.010950086   0.00072213391   4.4085974e-05   2.4222941e-07
    0.071471471      0.99693076               0               0               0               0               0     0.011122189   0.00072149063   4.4003982e-05   2.4154448e-07
    0.073573574      0.99677181               0               0               0               0               0     0.011294292   0.00072084735    4.392199e-05   2.4085954e-07
    0.075675676      0.99656911               0               0               0               0               0     0.011518759    0.0007203166   4.3841896e-05   2.4015917e-07
    0.077777778      0.99636592               0               0               0               0               0     0.011743821   0.00071978714   4.3761823e-05   2.3945863e-07
     0.07987988      0.99610368               0               0               0               0               0     0.012010074   0.00071917824    4.368786e-05   2.3885171e-07
    0.081981982      0.99580173               0               0               0               0               0     0.012304022   0.00071851593   4.3618005e-05   2.3830774e-07
    0.084084084      0.99546948               0               0               0               0               0     0.012654596   0.00071826037   4.3541127e-05   2.3755498e-07
    0.086186186      0.99508621               0               0               0               0               0     0.013100556   0.00071868996    4.345242e-05   2.3645051e-07
    0.088288288      0.99453438               0  -9.5303533e-22               0               0               0     0.013588901   0.00071796379   4.3380996e-05   2.3592166e-07
     0.09039039      0.99354081               0  -4.4035511e-21               0               0               0     0.014188321   0.00071420886   4.3354863e-05   2.3690124e-07
    0.092492492       0.9925957               0   1.3054308e-17               0               0               0     0.015131768   0.00079319021   4.3258966e-05   2.2710131e-07
    0.094594595      0.99177834               0   6.0556105e-17               0               0               0     0.016982366    0.0010903355   4.2979107e-05   1.8887731e-07
    0.096696697       0.9038769               0   9.2086197e-17  -0.00068375889  -3.1338349e-06               0     0.018407887       5.8446107   3.8968535e-05   1.4222047e-07
    0.098798799      0.64408056               0    9.208981e-17   -0.0027171865  -1.2453533e-05               0     0.018994349       23.222044   2.7593921e-05   7.8918093e-08
      0.1009009       0.3843289               0   7.1411921e-17   -0.0045453572  -1.7803834e-05  -1.6089281e-18     0.018221016       42.369132   1.6359704e-05   3.3146913e-08
       0.103003      0.12463683               0   2.3158693e-17   -0.0060998519  -1.7861604e-05  -5.3630937e-18     0.015634625       63.875759   5.3126825e-06   1.0750661e-08
     0.10510511               0               0               0   -0.0065361625  -1.3093624e-05   -5.819002e-18     0.013384209       75.524855   1.1131209e-08   1.6662397e-12
     0.10720721               0               0               0   -0.0059405481  -3.8721627e-06   -3.231087e-18     0.011443851       78.076848   1.1833351e-08   1.4366446e-12
     0.10930931               0               0               0   -0.0055809026   -1.219593e-07   -4.983598e-19     0.010385123       77.266719   1.1575776e-08   1.3019936e-12
     0.11141141               0               0               0   -0.0053811298  -7.8620417e-08   2.3324799e-18     0.009923715       74.178697   1.0667977e-08   1.2316687e-12
     0.11351351               0               0               0   -0.0052239655  -5.7710757e-08   1.6361955e-18    0.0095971283       71.359086   9.8744468e-09   1.1773593e-12
     0.11561562               0               0               0   -0.0050891301  -4.8555154e-08  -9.0848178e-19    0.0093411949       68.680135   9.1407999e-09   1.1314428e-12
     0.11771772               0               0               0   -0.0049784072  -4.2236024e-08  -1.0802042e-18    0.0091011157       66.438313   8.5535667e-09    1.094322e-12
     0.11981982               0               0               0    -0.004878042  -3.7135335e-08  -2.3259612e-19    0.0088678469       64.384264   8.0292272e-09   1.0609796e-12
     0.12192192               0               0               0   -0.0047909827   -3.357321e-08               0     0.008670028       62.596085   7.5905996e-09   1.0324436e-12
     0.12402402               0               0               0   -0.0047089557  -3.0592967e-08               0    0.0084856161       60.908458    7.184388e-09   1.0057255e-12
     0.12612613               0               0               0   -0.0046361097  -2.8203341e-08               0     0.008334147       59.414447   6.8374118e-09   9.8227599e-13
     0.12822823               0               0               0    -0.004566596  -2.6028086e-08               0    0.0081946349       57.990711   6.5119358e-09   9.6001292e-13
     0.13033033               0               0               0    -0.004504344  -2.4164625e-08               0    0.0080736138       56.723374   6.2312238e-09   9.4027962e-13
     0.13243243               0               0               0   -0.0044448718  -2.2420519e-08               0     0.007959671       55.515906   5.9676476e-09   9.2151472e-13
     0.13453453               0               0               0   -0.0043910287  -2.0921804e-08  -3.7499917e-19    0.0078537909       54.430046   5.7369699e-09   9.0467449e-13
     0.13663664               0               0               0   -0.0043396759  -1.9531646e-08  -9.1589101e-19    0.0077514774       53.397983    5.520846e-09    8.886857e-13
     0.13873874               0               0               0   -0.0042924777  -1.8325811e-08  -1.1087923e-18    0.0076559282       52.455623   5.3279307e-09   8.7409733e-13
     0.14084084               0               0               0   -0.0042475826  -1.7222152e-08  -1.1087924e-18    0.0075641285       51.562986   5.1478808e-09   8.6028525e-13
     0.14294294               0               0               0   -0.0042056705  -1.6238142e-08  -1.0440519e-18    0.0074791884        50.73439   4.9837701e-09   8.4746617e-13
     0.14504505               0               0               0   -0.0041659847  -1.5343433e-08  -9.3099189e-19    0.0073993682        49.95359   4.8315559e-09   8.3538824e-13
     0.14714715               0               0               0   -0.0041283796  -1.4522017e-08  -6.9468987e-19    0.0073247883       49.216899   4.6899234e-09   8.2399438e-13
     0.14924925               0               0               0   -0.0040930257  -1.3779908e-08  -3.2503444e-19    0.0072558787       48.527935    4.559741e-09    8.133407e-13
     0.15135135               0               0               0    -0.004059008  -1.3083631e-08  -6.2132117e-20     0.007189109       47.866945   4.4360452e-09   8.0312127e-13
     0.15345345               0               0               0   -0.0040273088  -1.2466883e-08   1.5526221e-20    0.0071260525       47.254499   4.3236053e-09   7.9365537e-13
     0.15555556               0               0               0   -0.0039963038  -1.1874165e-08  -6.8277825e-21    0.0070638808       46.656546   4.2144308e-09    7.844131e-13
     0.15765766               0               0               0   -0.0039676534  -1.1362946e-08  -3.6840458e-19    0.0070047102        46.10775   4.1163317e-09   7.7592932e-13
     0.15975976               0               0               0   -0.0039391717  -1.0856976e-08  -6.6730755e-19    0.0069459337       45.562459   4.0190023e-09   7.6749946e-13
     0.16186186               0               0               0   -0.0039130873  -1.0425591e-08  -7.5616691e-20    0.0068927573       45.066981   3.9326123e-09   7.5983576e-13
     0.16396396               0               0               0   -0.0038870029  -9.9942058e-09   5.1607416e-19     0.006839581       44.571503   3.8462223e-09   7.5217206e-13
     0.16606607               0               0               0   -0.0038628702    -9.61698e-09   5.8774879e-19    0.0067904739       44.116084   3.7684081e-09   7.4512678e-13
     0.16816817               0               0               0   -0.0038390064  -9.2472191e-09   5.8774885e-19    0.0067419276       43.666186    3.691776e-09   7.3816674e-13
     0.17027027               0               0               0   -0.0038164264  -8.9122047e-09    3.387646e-19    0.0066953466       43.242481   3.6206191e-09   7.3161037e-13
     0.17237237               0               0               0   -0.0037944898  -8.5946049e-09  -3.5007017e-20    0.0066497506       42.831903   3.5522063e-09   7.2525633e-13
     0.17447447               0               0               0   -0.0037732684  -8.2952608e-09  -2.4931749e-19    0.0066055954       42.435858   3.4867663e-09   7.1912572e-13
     0.17657658               0               0               0   -0.0037530084   -8.020452e-09  -2.4931752e-19    0.0065633768       42.059345   3.4253214e-09   7.1329539e-13
     0.17867868               0               0               0   -0.0037329837  -7.7512112e-09  -2.6184246e-19    0.0065216095       41.687578   3.3648274e-09    7.075381e-13
     0.18078078               0               0               0   -0.0037142008   -7.511345e-09  -3.4044424e-19    0.0064822236       41.340848   3.3093496e-09   7.0216614e-13
     0.18288288               0               0               0   -0.0036954179  -7.2714788e-09  -4.1904601e-19    0.0064428378       40.994117   3.2538717e-09   6.9679417e-13
     0.18498498               0               0               0   -0.0036777647  -7.0568686e-09  -2.8097413e-19      0.00640554       40.670032    3.202842e-09   6.9177057e-13
     0.18708709               0               0               0   -0.0036602904  -6.8462582e-09  -1.0858752e-19    0.0063685729       40.349532   3.1525168e-09   6.8680213e-13
     0.18918919               0               0               0   -0.0036434436  -6.6488999e-09   6.9158489e-20    0.0063327967       40.041535   3.1046014e-09     6.82026e-13
     0.19129129               0               0               0   -0.0036271369  -6.4629502e-09   2.5151834e-19    0.0062980459       39.744301   3.0587606e-09   6.7741543e-13
     0.19339339               0               0               0    -0.003611019  -6.2808073e-09   3.7065301e-19     0.006263632       39.450811   3.0136287e-09   6.7286242e-13
      0.1954955               0               0               0   -0.0035957584   -6.115943e-09    2.028129e-19    0.0062307476       39.174316   2.9717139e-09   6.6857069e-13
      0.1975976               0               0               0   -0.0035804978  -5.9510787e-09   3.4972782e-20    0.0061978633        38.89782   2.9297992e-09   6.6427895e-13
      0.1996997               0               0               0   -0.0035659831  -5.8002625e-09               0    0.0061664639        38.63603   2.8906212e-09   6.6021332e-13
      0.2018018               0               0               0   -0.0035516646  -5.6531441e-09               0    0.0061354555       38.378111   2.8521636e-09   6.5620719e-13
      0.2039039               0               0               0   -0.0035376623  -5.5116594e-09  -4.6857547e-20    0.0061050169       38.126385   2.8148389e-09   6.5229637e-13
     0.20600601               0               0               0   -0.0035241994  -5.3797897e-09  -1.7368292e-19    0.0060755507       37.885228    2.779448e-09   6.4854821e-13
     0.20810811               0               0               0   -0.0035107364  -5.2479199e-09   -3.005083e-19    0.0060460846       37.644071   2.7440571e-09   6.4480005e-13
     0.21021021               0               0               0   -0.0034979834  -5.1281355e-09  -3.1156582e-19    0.0060178343       37.416773   2.7111609e-09   6.4126485e-13
     0.21231231               0               0               0   -0.0034852983  -5.0095055e-09  -3.1156588e-19    0.0059897002       37.190798   2.6785031e-09      6.3775e-13
     0.21441441               0               0               0   -0.0034729125   -4.895557e-09  -2.5978519e-19    0.0059621974       36.970638   2.6468751e-09   6.3432451e-13
     0.21651652               0               0               0   -0.0034609395  -4.7880631e-09  -1.3661331e-19    0.0059355651       36.758494    2.616667e-09   6.3102221e-13
     0.21861862               0               0               0   -0.0034489666  -4.6805692e-09  -1.3441441e-20    0.0059089329       36.546351    2.586459e-09   6.2771991e-13
     0.22072072               0               0               0   -0.0034375789  -4.5820225e-09               0    0.0058833415       36.345491    2.558218e-09   6.2459137e-13
     0.22282282               0               0               0   -0.0034262629  -4.4845719e-09               0    0.0058578777       36.146013   2.5302179e-09   6.2148412e-13
     0.22492492               0               0               0   -0.0034151414  -4.3901115e-09               0    0.0058327435       35.950274   2.5028602e-09   6.1843436e-13
     0.22702703               0               0               0   -0.0034044278  -4.3019228e-09               0    0.0058083007       35.762377   2.4768496e-09    6.155052e-13
     0.22912913               0               0               0   -0.0033937143   -4.213734e-09               0    0.0057838578       35.574479   2.4508391e-09   6.1257604e-13
     0.23123123               0               0               0   -0.0033833972   -4.131218e-09  -6.3844766e-20    0.0057602603       35.394164   2.4261133e-09   6.0976354e-13
     0.23333333               0               0               0   -0.0033732382  -4.0509641e-09  -1.5315055e-19        0.005737       35.216872   2.4018998e-09   6.0699756e-13
     0.23543544               0               0               0   -0.0033631129  -3.9711729e-09  -2.3113811e-19    0.0057138022        35.04022   2.3777933e-09   6.0424145e-13
     0.23753754               0               0               0   -0.0033534683  -3.8979823e-09  -1.4761272e-19    0.0056914971       34.872698   2.3552122e-09   6.0162618e-13
     0.23963964               0               0               0   -0.0033438237  -3.8247917e-09  -6.4087336e-20    0.0056691921       34.705176   2.3326311e-09   5.9901092e-13
     0.24174174               0               0               0   -0.0033343566  -3.7540632e-09   2.0526705e-20    0.0056471702       34.541012   2.3106038e-09   5.9644743e-13
     0.24384384               0               0               0   -0.0033251879  -3.6874726e-09   1.0697044e-19    0.0056256241       34.382492   2.2895074e-09   5.9397098e-13
     0.24594595               0               0               0   -0.0033160191  -3.6208819e-09   1.9341418e-19    0.0056040781       34.223973    2.268411e-09   5.9149453e-13
     0.24804805               0               0               0     -0.00330713  -3.5579515e-09    1.735123e-19    0.0055830709       34.070732   2.2481744e-09   5.8909937e-13
     0.25015015               0               0               0    -0.003298401  -3.4971167e-09   9.2720353e-20    0.0055623723       33.920514   2.2284302e-09   5.8675075e-13
     0.25225225               0               0               0    -0.003289672   -3.436282e-09    1.192841e-20    0.0055416738       33.770296    2.208686e-09   5.8440213e-13
     0.25435435               0               0               0   -0.0032812929  -3.3796061e-09               0    0.0055217133       33.626643   2.1899975e-09    5.821548e-13
     0.25645646               0               0               0   -0.0032729743  -3.3236506e-09               0    0.0055018806       33.484127    2.171492e-09     5.79925e-13
     0.25855856               0               0               0   -0.0032646636  -3.2677881e-09   1.3267147e-21    0.0054820617       33.341759   2.1530099e-09   5.7769749e-13
     0.26066066               0               0               0   -0.0032567297  -3.2163495e-09   6.5746326e-20    0.0054628949        33.20642   2.1356438e-09    5.755786e-13
     0.26276276               0               0               0   -0.0032487958   -3.164911e-09   1.3016594e-19    0.0054437281        33.07108   2.1182777e-09   5.7345972e-13
     0.26486486               0               0               0   -0.0032409117  -3.1140605e-09   1.8564865e-19    0.0054246434       32.936668   2.1010569e-09   5.7135513e-13
     0.26696697               0               0               0   -0.0032333367  -3.0668606e-09   1.8564869e-19    0.0054060676       32.808007   2.0847388e-09   5.6933932e-13
     0.26906907               0               0               0   -0.0032257617  -3.0196607e-09   1.8564874e-19    0.0053874919       32.679347   2.0684206e-09   5.6732351e-13
     0.27117117               0               0               0   -0.0032182553  -2.9732074e-09   1.7292575e-19    0.0053690592       32.551962   2.0523001e-09   5.6532737e-13
     0.27327327               0               0               0   -0.0032110158  -2.9296533e-09   1.1079641e-19     0.005351182       32.429528   2.0369475e-09   5.6340762e-13
     0.27537538               0               0               0   -0.0032037763  -2.8860992e-09   4.8667059e-20    0.0053333048       32.307094   2.0215949e-09   5.6148786e-13
     0.27747748               0               0               0   -0.0031966054  -2.8432354e-09  -1.1547747e-20    0.0053155678       32.185925   2.0064361e-09   5.5958766e-13
     0.27957958               0               0               0   -0.0031896826  -2.8028671e-09  -6.4841362e-20     0.005298338        32.06933    1.991978e-09    5.577582e-13
     0.28168168               0               0               0   -0.0031827598  -2.7624988e-09  -1.1813498e-19    0.0052811082       31.952734   1.9775199e-09   5.5592873e-13
     0.28378378               0               0               0   -0.0031758885    -2.72266e-09  -1.6224864e-19    0.0052639639       31.837083   1.9632048e-09   5.5411389e-13
     0.28588589               0               0               0   -0.0031692646  -2.6853658e-09  -1.6224869e-19    0.0052472306       31.725972   1.9495771e-09   5.5236932e-13
     0.28798799               0               0               0   -0.0031626407  -2.6480717e-09  -1.6224873e-19    0.0052304973       31.614861   1.9359493e-09   5.5062475e-13
     0.29009009               0               0               0   -0.0031560362  -2.6109783e-09  -1.5869954e-19    0.0052137972       31.504105   1.9223748e-09   5.4888568e-13
     0.29219219               0               0               0   -0.0031496928  -2.5765844e-09   -1.074206e-19    0.0051975435       31.398131   1.9095165e-09   5.4722054e-13
     0.29429429               0               0               0   -0.0031433495  -2.5421904e-09  -5.6141656e-20    0.0051812897       31.292158   1.8966582e-09   5.4555541e-13
      0.2963964               0               0               0   -0.0031370061  -2.5077965e-09  -4.8627152e-21    0.0051650359       31.186184   1.8837998e-09   5.4389027e-13
      0.2984985               0               0               0   -0.0031309019  -2.4756727e-09               0    0.0051492892       31.084575   1.8715881e-09    5.422926e-13
      0.3006006               0               0               0   -0.0031248227  -2.4437867e-09               0    0.0051335956       30.983422   1.8594441e-09   5.4070201e-13
      0.3027027               0               0               0   -0.0031187435  -2.4119007e-09               0     0.005117902        30.88227   1.8473002e-09   5.3911141e-13
      0.3048048               0               0               0   -0.0031128342  -2.3815112e-09   2.8150995e-20    0.0051025601       30.784199   1.8356077e-09   5.3756858e-13
     0.30690691               0               0               0   -0.0031070058  -2.3518338e-09   6.9695752e-20    0.0050873855       30.687595   1.8241302e-09   5.3604848e-13
     0.30900901               0               0               0   -0.0031011773  -2.3221564e-09   1.1124051e-19    0.0050722109       30.590991   1.8126526e-09   5.3452838e-13
     0.31111111               0               0               0   -0.0030954403  -2.2932979e-09   1.2934249e-19    0.0050571915       30.496036   1.8014141e-09   5.3303388e-13
     0.31321321               0               0               0     -0.00308985  -2.2657539e-09   1.0981801e-19     0.005042421       30.403731   1.7905594e-09   5.3158048e-13
     0.31531532               0               0               0   -0.0030842596    -2.23821e-09   9.0293534e-20    0.0050276505       30.311425   1.7797047e-09   5.3012708e-13
     0.31741742               0               0               0   -0.0030786741  -2.2107095e-09   7.1116324e-20     0.005012888       30.219205   1.7688623e-09   5.2867502e-13
     0.31951952               0               0               0   -0.0030733086  -2.1852191e-09   6.7985888e-20    0.0049984916       30.130951   1.7585888e-09   5.2728443e-13
     0.32162162               0               0               0   -0.0030679432  -2.1597286e-09   6.4855453e-20    0.0049840953       30.042698   1.7483153e-09   5.2589385e-13
     0.32372372               0               0               0   -0.0030625778  -2.1342382e-09   6.1725017e-20     0.004969699       29.954445   1.7380417e-09   5.2450327e-13
     0.32582583               0               0               0   -0.0030573371  -2.1098084e-09    7.140478e-20    0.0049555583       29.868433   1.7280866e-09   5.2314741e-13
     0.32792793               0               0               0   -0.0030521843   -2.086126e-09   9.0112278e-20    0.0049415978       29.784001   1.7183557e-09   5.2181603e-13
     0.33003003               0               0               0   -0.0030470314  -2.0624436e-09   1.0881978e-19    0.0049276373       29.699569   1.7086248e-09   5.2048465e-13
     0.33213213               0               0               0   -0.0030418942  -2.0388811e-09   1.2337857e-19    0.0049137112       29.615415   1.6989331e-09    5.191576e-13
     0.33423423               0               0               0    -0.003036944  -2.0167541e-09   8.8235644e-20    0.0049001968       29.534605   1.6897112e-09   5.1788245e-13
     0.33633634               0               0               0   -0.0030319938  -1.9946271e-09   5.3092714e-20    0.0048866825       29.453794   1.6804893e-09   5.1660729e-13
     0.33843844               0               0               0   -0.0030270436  -1.9725001e-09   1.7949784e-20    0.0048731682       29.372984   1.6712674e-09   5.1533214e-13
     0.34054054               0               0               0   -0.0030221883  -1.9510993e-09  -2.2363325e-20    0.0048598256       29.293859   1.6622798e-09   5.1408321e-13
     0.34264264               0               0               0   -0.0030174319  -1.9304566e-09  -6.8074142e-20    0.0048466623       29.216493   1.6535368e-09   5.1286165e-13
     0.34474474               0               0               0   -0.0030126754  -1.9098139e-09  -1.1378496e-19    0.0048334989       29.139127   1.6447938e-09   5.1164009e-13
     0.34684685               0               0               0    -0.003007919  -1.8891712e-09  -1.5949578e-19    0.0048203356       29.061762   1.6360508e-09   5.1041852e-13
     0.34894895               0               0               0   -0.0030033137  -1.8697499e-09  -1.6773565e-19    0.0048074073       28.987075   1.6276765e-09   5.0923861e-13
     0.35105105               0               0               0   -0.0029987416   -1.850597e-09  -1.6773571e-19    0.0047945308       28.912977   1.6193833e-09   5.0806786e-13
     0.35315315               0               0               0   -0.0029941695  -1.8314442e-09  -1.6773578e-19    0.0047816542       28.838879   1.6110902e-09   5.0689711e-13