# Probe 0 (1.95 0 0)
# Probe 1 (1.95 1e-10 0)
# Probe 2 (1.95 1e-07 0)
# Time          0               1               2              
100             9.6289359e-05   9.6289359e-05   9.6289359e-05  
200             0.0002580355    0.0002580355    0.0002580355   
300             0.0002963676    0.0002963676    0.0002963676   
400             0.00030280046   0.00030280046   0.00030280046  
500             0.00030357438   0.00030357438   0.00030357438  
600             0.00030360965   0.00030360965   0.00030360965  
700             0.00030360028   0.00030360028   0.00030360028  
800             0.0003035975    0.0003035975    0.0003035975   
900             0.00030359708   0.00030359708   0.00030359708  
1000            0.000303597     0.000303597     0.000303597    
1100            0.00030359696   0.00030359696   0.00030359696  
1200            0.00030359694   0.00030359694   0.00030359694  
1300            0.00030359693   0.00030359693   0.00030359693  
1400            0.00030359691   0.00030359691   0.00030359691  
1500            0.00030359695   0.00030359695   0.00030359695  
1600            0.00030359699   0.00030359699   0.00030359699  
1700            0.00030359702   0.00030359702   0.00030359702  
1800            0.00030359704   0.00030359704   0.00030359704  
1900            0.00030359689   0.00030359689   0.00030359689  
2000            0.00030359738   0.00030359738   0.00030359738  
