#      distance             U_x             U_y             U_z wallShearStr... wallShearStr... wallShearStr...               p             nut         nuTilda
              0      0.99974218               0               0               0               0               0    0.0046957441   1.4765877e-06    2.002836e-06
   0.0021021021      0.99973459               0               0               0               0               0    0.0047137658   1.4766995e-06   2.0029209e-06
   0.0042042042        0.999727               0               0               0               0               0    0.0047317876   1.4768113e-06   2.0030057e-06
   0.0063063063      0.99971941               0               0               0               0               0    0.0047498093   1.4769231e-06   2.0030906e-06
   0.0084084084      0.99971182               0               0               0               0               0     0.004767831   1.4770349e-06   2.0031754e-06
    0.010510511      0.99970302               0               0               0               0               0    0.0047882526   1.4771604e-06   2.0032707e-06
    0.012612613      0.99969347               0               0               0               0               0    0.0048101647   1.4772944e-06   2.0033725e-06
    0.014714715      0.99968392               0               0               0               0               0    0.0048320768   1.4774285e-06   2.0034742e-06
    0.016816817      0.99967436               0               0               0               0               0     0.004853989   1.4775625e-06   2.0035759e-06
    0.018918919      0.99966481               0               0               0               0               0    0.0048759011   1.4776965e-06   2.0036777e-06
    0.021021021      0.99965493               0               0               0               0               0    0.0048984233   1.4778339e-06    2.003782e-06
    0.023123123      0.99964286               0               0               0               0               0    0.0049250471    1.477994e-06   2.0039035e-06
    0.025225225      0.99963079               0               0               0               0               0    0.0049516709   1.4781541e-06    2.004025e-06
    0.027327327      0.99961872               0               0               0               0               0    0.0049782946   1.4783142e-06   2.0041466e-06
    0.029429429      0.99960666               0               0               0               0               0    0.0050049184   1.4784743e-06   2.0042681e-06
    0.031531532      0.99959376               0               0               0               0               0    0.0050330135   1.4786423e-06   2.0043956e-06
    0.033633634      0.99957843               0               0               0               0               0    0.0050654064   1.4788331e-06   2.0045404e-06
    0.035735736      0.99956311               0               0               0               0               0    0.0050977992    1.479024e-06   2.0046853e-06
    0.037837838      0.99954779               0               0               0               0               0     0.005130192   1.4792148e-06   2.0048302e-06
     0.03993994      0.99953247               0               0               0               0               0    0.0051625848   1.4794057e-06    2.004975e-06
    0.042042042      0.99951324               0               0               0               0               0    0.0052015234   1.4796301e-06   2.0051454e-06
    0.044144144      0.99949365               0               0               0               0               0    0.0052410754   1.4798576e-06   2.0053181e-06
    0.046246246      0.99947407               0               0               0               0               0    0.0052806274   1.4800851e-06   2.0054908e-06
    0.048348348      0.99945427               0               0               0               0               0    0.0053205112   1.4803143e-06   2.0056647e-06
     0.05045045      0.99942901               0               0               0               0               0    0.0053691054   1.4805859e-06   2.0058709e-06
    0.052552553      0.99940374               0               0               0               0               0    0.0054176997   1.4808574e-06    2.006077e-06
    0.054654655      0.99937848               0               0               0               0               0    0.0054662939    1.481129e-06   2.0062832e-06
    0.056756757      0.99934886               0               0               0               0               0    0.0055214065   1.4814309e-06   2.0065124e-06
    0.058858859      0.99931581               0               0               0               0               0    0.0055816581   1.4817567e-06   2.0067597e-06
    0.060960961      0.99928275               0               0               0               0               0    0.0056419096   1.4820825e-06   2.0070071e-06
    0.063063063      0.99924514               0               0               0               0               0     0.005708768   1.4824365e-06   2.0072758e-06
    0.065165165      0.99920138               0               0               0               0               0    0.0057845587   1.4828287e-06   2.0075735e-06
    0.067267267      0.99915762               0               0               0               0               0    0.0058603494   1.4832208e-06   2.0078712e-06
    0.069369369      0.99910416               0               0               0               0               0    0.0059485621   1.4836648e-06   2.0082082e-06
    0.071471471      0.99904378               0               0               0               0               0    0.0060456315   1.4841459e-06   2.0085734e-06
    0.073573574      0.99898339               0               0               0               0               0    0.0061427009   1.4846269e-06   2.0089386e-06
    0.075675676      0.99890096               0               0               0               0               0    0.0062711932   1.4852124e-06   2.0093831e-06
    0.077777778      0.99881828               0               0               0               0               0    0.0064000424   1.4857991e-06   2.0098284e-06
     0.07987988      0.99870567               0               0               0               0               0    0.0065568359   1.4864947e-06   2.0103566e-06
    0.081981982      0.99857296               0               0               0               0               0    0.0067324169   1.4872635e-06   2.0109403e-06
    0.084084084      0.99842073               0               0               0               0               0     0.006943234    1.488097e-06   2.0115731e-06
    0.086186186      0.99823565               0               0               0               0               0    0.0072134058   1.4890394e-06   2.0122886e-06
    0.088288288      0.99794973               0  -1.8372847e-22               0               0               0    0.0075177076   1.4901462e-06   2.0131289e-06
     0.09039039      0.99739958               0  -8.4892729e-22               0               0               0    0.0079114486   1.4916838e-06    2.014296e-06
    0.092492492      0.99690224               0   1.9888217e-17               0               0               0    0.0085408642   1.4935411e-06   2.0157061e-06
    0.094594595      0.99654415               0   9.2223707e-17               0               0               0    0.0097917202    1.496241e-06   2.0177568e-06
    0.096696697      0.90851741               0   1.4023595e-16  -0.00050401215  -3.1036259e-06               0     0.010666666   1.3662859e-06   1.8413792e-06
    0.098798799      0.64744185               0   1.4023664e-16   -0.0020028917  -1.2333486e-05               0     0.010799603    9.744833e-07   1.3128027e-06
      0.1009009      0.38636856               0    1.087457e-16   -0.0031833337  -1.7650941e-05  -2.0913095e-18    0.0099134932   5.8204407e-07   7.8378508e-07
       0.103003      0.12529828               0   3.5265938e-17    -0.003939192  -1.7751858e-05  -6.9710316e-18    0.0076686544   1.8875594e-07   2.5417939e-07
     0.10510511               0               0               0   -0.0038777637  -1.3052129e-05  -9.3830472e-18    0.0058867854   7.8679872e-13               0
     0.10720721               0               0               0   -0.0030620957  -3.9220869e-06    -9.51772e-18    0.0045321719   5.4122571e-13               0
     0.10930931               0               0               0   -0.0026704381  -1.7832344e-07  -6.8634239e-18    0.0040418147   4.2700097e-13               0
     0.11141141               0               0               0   -0.0025660543  -8.3849753e-08  -2.3195571e-18    0.0041370049   4.0176677e-13               0
     0.11351351               0               0               0    -0.002502738  -3.9476626e-08  -6.7024223e-19    0.0042694062   3.8669732e-13               0
     0.11561562               0               0               0   -0.0024609433  -2.1358746e-08  -5.3782022e-19    0.0044213079   3.7695472e-13               0
     0.11771772               0               0               0   -0.0024277262  -1.4594502e-08  -3.2153929e-19     0.004478178   3.6928794e-13               0
     0.11981982               0               0               0   -0.0023981938  -1.2707344e-08  -6.9235791e-20     0.004494226   3.6251287e-13               0
     0.12192192               0               0               0   -0.0023719018  -1.1576485e-08               0    0.0044742221    3.565302e-13               0
     0.12402402               0               0               0   -0.0023468352  -1.0731656e-08               0    0.0044405834   3.5084721e-13               0
     0.12612613               0               0               0   -0.0023240336  -1.0050135e-08               0    0.0044050552   3.4571546e-13               0
     0.12822823               0               0               0    -0.002302054   -9.427888e-09               0    0.0043688413   3.4078379e-13               0
     0.13033033               0               0               0   -0.0022818953  -8.8908239e-09               0    0.0043345335   3.3629019e-13               0
     0.13243243               0               0               0   -0.0022624336  -8.3863683e-09               0    0.0043009555   3.3196428e-13               0
     0.13453453               0               0               0   -0.0022444037  -7.9481734e-09  -1.2649078e-19    0.0042674398   3.2797956e-13               0
     0.13663664               0               0               0   -0.0022270073  -7.5392911e-09  -3.0893873e-19    0.0042339517   3.2414578e-13               0
     0.13873874               0               0               0   -0.0022106969  -7.1786788e-09  -3.7400618e-19    0.0042006303   3.2056887e-13               0
     0.14084084               0               0               0   -0.0021949886  -6.8448241e-09  -3.7400621e-19    0.0041674015   3.1713435e-13               0
     0.14294294               0               0               0   -0.0021800866  -6.5425432e-09  -3.5698511e-19    0.0041349229   3.1388924e-13               0
     0.14504505               0               0               0   -0.0021657865  -6.2638276e-09   -3.272602e-19    0.0041030042   3.1078549e-13               0
     0.14714715               0               0               0   -0.0021520643  -6.0049306e-09  -2.4664369e-19    0.0040719787   3.0781651e-13               0
     0.14924925               0               0               0   -0.0021389674  -5.7674782e-09  -1.1096019e-19    0.0040419196   3.0499335e-13               0
     0.15135135               0               0               0   -0.0021262525  -5.5419073e-09  -1.6894573e-20    0.0040125461   3.0225865e-13               0
     0.15345345               0               0               0   -0.0021142006  -5.3369537e-09   4.9533457e-21    0.0039843625   2.9967744e-13               0
     0.15555556               0               0               0   -0.0021023575  -5.1380404e-09  -8.3929148e-21    0.0039565652   2.9714423e-13               0
     0.15765766               0               0               0   -0.0020912223  -4.9596144e-09  -1.4111112e-19    0.0039300782   2.9477381e-13               0
     0.15975976               0               0               0   -0.0020801403  -4.7826349e-09  -2.5025983e-19     0.003903694   2.9241557e-13               0
     0.16186186               0               0               0   -0.0020698155  -4.6262089e-09  -2.4486473e-20    0.0038787722   2.9023028e-13               0
     0.16396396               0               0               0   -0.0020594907   -4.469783e-09   2.0128689e-19    0.0038538503   2.8804498e-13               0
     0.16606607               0               0               0   -0.0020497998  -4.3295943e-09     2.28636e-19    0.0038302119   2.8600358e-13               0
     0.16816817               0               0               0   -0.0020401962  -4.1916437e-09   2.2863603e-19    0.0038067505   2.8398202e-13               0
     0.17027027               0               0               0   -0.0020310226  -4.0641596e-09   1.3096514e-19    0.0037841994   2.8205748e-13               0
     0.17237237               0               0               0   -0.0020220645  -3.9419212e-09  -1.5657012e-20    0.0037621045   2.8018158e-13               0
     0.17447447               0               0               0   -0.0020133539  -3.8254471e-09  -9.9726162e-20    0.0037405355   2.7836123e-13               0
     0.17657658               0               0               0    -0.002004976    -3.71672e-09  -9.9726174e-20    0.0037196732   2.7661553e-13               0
     0.17867868               0               0               0   -0.0019966815  -3.6098493e-09  -1.0499821e-19    0.0036989924   2.7488844e-13               0
     0.18078078               0               0               0   -0.0019888272  -3.5127722e-09   -1.380835e-19    0.0036792692   2.7325958e-13               0
     0.18288288               0               0               0   -0.0019809728  -3.4156951e-09  -1.7116879e-19     0.003659546   2.7163072e-13               0
     0.18498498               0               0               0    -0.001973528  -3.3273268e-09   -1.142948e-19    0.0036407203   2.7009281e-13               0
     0.18708709               0               0               0   -0.0019661481  -3.2403376e-09  -4.3173906e-20    0.0036220367    2.685693e-13               0
     0.18918919               0               0               0       -0.001959  -3.1580579e-09   2.9787434e-20    0.0036038592   2.6709702e-13               0
     0.19129129               0               0               0   -0.0019520515  -3.0798325e-09    1.043332e-19    0.0035861173   2.6566885e-13               0
     0.19339339               0               0               0   -0.0019451742  -3.0029784e-09   1.5291891e-19     0.003568539   2.6425632e-13               0
      0.1954955               0               0               0   -0.0019386197  -2.9323491e-09   8.3673749e-20    0.0035517027   2.6291481e-13               0
      0.1975976               0               0               0   -0.0019320653  -2.8617197e-09   1.4428588e-20    0.0035348663    2.615733e-13               0
      0.1996997               0               0               0   -0.0019257968  -2.7964132e-09               0    0.0035186478   2.6029441e-13               0
      0.2018018               0               0               0   -0.0019196037  -2.7325078e-09               0    0.0035025919   2.5903201e-13               0
      0.2039039               0               0               0   -0.0019135332  -2.6708019e-09  -1.9890906e-20    0.0034868038   2.5779632e-13               0
     0.20600601               0               0               0   -0.0019076718  -2.6128497e-09  -7.3727945e-20    0.0034714727   2.5660621e-13               0
     0.20810811               0               0               0   -0.0019018103  -2.5548974e-09  -1.2756498e-19    0.0034561416   2.5541611e-13               0
     0.21021021               0               0               0   -0.0018962281  -2.5016817e-09  -1.3225887e-19    0.0034414738   2.5428659e-13               0
     0.21231231               0               0               0   -0.0018906724  -2.4489183e-09  -1.3225889e-19    0.0034268694   2.5316286e-13               0
     0.21441441               0               0               0   -0.0018852358  -2.3981131e-09  -1.1027813e-19     0.003412523   2.5206484e-13               0
     0.21651652               0               0               0   -0.0018799631  -2.3500077e-09  -5.7991993e-20    0.0033985323   2.5100227e-13               0
     0.21861862               0               0               0   -0.0018746905  -2.3019023e-09  -5.7058562e-21    0.0033845415   2.4993971e-13               0
     0.22072072               0               0               0   -0.0018696511  -2.2575456e-09               0    0.0033710489   2.4892736e-13               0
     0.22282282               0               0               0   -0.0018646402  -2.2136482e-09               0    0.0033576172   2.4792117e-13               0
     0.22492492               0               0               0   -0.0018597078   -2.170944e-09               0    0.0033443706    2.469318e-13               0
     0.22702703               0               0               0   -0.0018549399  -2.1307423e-09               0    0.0033315121   2.4597771e-13               0
     0.22912913               0               0               0    -0.001850172  -2.0905406e-09               0    0.0033186537   2.4502363e-13               0
     0.23123123               0               0               0    -0.001845566  -2.0527004e-09   -2.781562e-20    0.0033061638   2.4410414e-13               0
     0.23333333               0               0               0   -0.0018410246  -2.0158018e-09  -6.6723989e-20    0.0032938209   2.4319845e-13               0
     0.23543544               0               0               0    -0.001836497  -1.9791025e-09  -1.0069113e-19    0.0032815066    2.422957e-13               0
     0.23753754               0               0               0   -0.0018321668   -1.945247e-09  -6.4146202e-20    0.0032696016   2.4143498e-13               0
     0.23963964               0               0               0   -0.0018278366  -1.9113915e-09   -2.760127e-20    0.0032576966   2.4057426e-13               0
     0.24174174               0               0               0   -0.0018235798  -1.8785543e-09   9.3601636e-21    0.0032459569   2.3972913e-13               0
     0.24384384               0               0               0   -0.0018194465  -1.8474285e-09   4.7021608e-20    0.0032344949    2.389102e-13               0
     0.24594595               0               0               0   -0.0018153133  -1.8163027e-09   8.4683052e-20    0.0032230329   2.3809127e-13               0
     0.24804805               0               0               0   -0.0018112973  -1.7867022e-09   7.5916981e-20     0.003211857   2.3729715e-13               0
     0.25015015               0               0               0   -0.0018073486  -1.7579752e-09   4.0568014e-20    0.0032008448   2.3651723e-13               0
     0.25225225               0               0               0   -0.0018033998  -1.7292481e-09   5.2190474e-21    0.0031898326   2.3573732e-13               0
     0.25435435               0               0               0   -0.0017995989  -1.7024013e-09               0    0.0031791372   2.3498856e-13               0
     0.25645646               0               0               0   -0.0017958236  -1.6758802e-09               0    0.0031684966    2.342452e-13               0
     0.25855856               0               0               0   -0.0017920517  -1.6494016e-09   5.8856498e-22    0.0031578627   2.3350255e-13               0
     0.26066066               0               0               0   -0.0017884392  -1.6249435e-09   2.9166772e-20    0.0031475489   2.3279338e-13               0
     0.26276276               0               0               0   -0.0017848267  -1.6004854e-09   5.7744979e-20    0.0031372351   2.3208421e-13               0
     0.26486486               0               0               0   -0.0017812354  -1.5762828e-09   8.2358545e-20    0.0031269707   2.3137948e-13               0
     0.26696697               0               0               0   -0.0017777757  -1.5536665e-09   8.2358564e-20    0.0031170131   2.3070231e-13               0
     0.26906907               0               0               0    -0.001774316  -1.5310503e-09   8.2358584e-20    0.0031070554   2.3002515e-13               0
     0.27117117               0               0               0   -0.0017708859  -1.5087672e-09   7.6714339e-20    0.0030971701   2.2935416e-13               0
     0.27327327               0               0               0   -0.0017675705  -1.4877779e-09   4.9152153e-20    0.0030875657   2.2870711e-13               0
     0.27537538               0               0               0   -0.0017642551  -1.4667887e-09   2.1589967e-20    0.0030779613   2.2806006e-13               0
     0.27747748               0               0               0   -0.0017609692  -1.4461283e-09  -5.1675626e-21    0.0030684193   2.2741917e-13               0
     0.27957958               0               0               0   -0.0017577904   -1.426657e-09  -2.9016206e-20    0.0030591029   2.2680053e-13               0
     0.28168168               0               0               0   -0.0017546115  -1.4071857e-09   -5.286485e-20    0.0030497866   2.2618189e-13               0
     0.28378378               0               0               0   -0.0017514548  -1.3879625e-09  -7.2605509e-20    0.0030405138   2.2556785e-13               0
     0.28588589               0               0               0   -0.0017484048  -1.3699315e-09  -7.2605529e-20      0.00303145   2.2497595e-13               0
     0.28798799               0               0               0   -0.0017453548  -1.3519005e-09  -7.2605548e-20    0.0030223863   2.2438405e-13               0
     0.29009009               0               0               0   -0.0017423132  -1.3339591e-09  -7.1017302e-20    0.0030133421   2.2379389e-13               0
     0.29219219               0               0               0   -0.0017393849  -1.3172217e-09  -4.8070215e-20    0.0030045612   2.2322716e-13               0
     0.29429429               0               0               0   -0.0017364565  -1.3004842e-09  -2.5123129e-20    0.0029957804   2.2266042e-13               0
      0.2963964               0               0               0   -0.0017335281  -1.2837468e-09  -2.1760423e-21    0.0029869995   2.2209369e-13               0
      0.2984985               0               0               0   -0.0017307043  -1.2680411e-09               0    0.0029784818   2.2154852e-13               0
      0.3006006               0               0               0   -0.0017278914  -1.2524435e-09               0    0.0029699917    2.210056e-13               0
      0.3027027               0               0               0   -0.0017250786  -1.2368459e-09               0    0.0029615015   2.2046269e-13               0
      0.3048048               0               0               0   -0.0017223402  -1.2219724e-09    1.272607e-20    0.0029531688   2.1993509e-13               0
     0.30690691               0               0               0   -0.0017196372  -1.2074433e-09   3.1506987e-20     0.002944911   2.1941478e-13               0
     0.30900901               0               0               0   -0.0017169342  -1.1929142e-09   5.0287903e-20    0.0029366533   2.1889447e-13               0
     0.31111111               0               0               0   -0.0017142713   -1.178778e-09   5.8463088e-20    0.0029284728   2.1838238e-13               0
     0.31321321               0               0               0   -0.0017116727  -1.1652724e-09   4.9615715e-20    0.0029204164   2.1788347e-13               0
     0.31531532               0               0               0    -0.001709074  -1.1517668e-09   4.0768342e-20    0.0029123601   2.1738456e-13               0
     0.31741742               0               0               0   -0.0017064775  -1.1382811e-09   3.2079994e-20    0.0029043084   2.1688608e-13               0
     0.31951952               0               0               0   -0.0017039779  -1.1257113e-09   3.0740007e-20    0.0028964726   2.1640742e-13               0
     0.32162162               0               0               0   -0.0017014783  -1.1131416e-09   2.9400021e-20    0.0028886369   2.1592877e-13               0
     0.32372372               0               0               0   -0.0016989786  -1.1005719e-09   2.8060035e-20    0.0028808012   2.1545011e-13               0
     0.32582583               0               0               0   -0.0016965343   -1.088491e-09   3.2478819e-20     0.002873102   2.1498274e-13               0
     0.32792793               0               0               0    -0.001694129  -1.0767546e-09   4.0955985e-20     0.002865499   2.1452332e-13               0
     0.33003003               0               0               0   -0.0016917237  -1.0650183e-09    4.943315e-20     0.002857896    2.140639e-13               0
     0.33213213               0               0               0   -0.0016893253  -1.0533408e-09   5.6027737e-20    0.0028503091   2.1360589e-13               0
     0.33423423               0               0               0   -0.0016870101   -1.042369e-09   4.0068898e-20    0.0028429138    2.131648e-13               0
     0.33633634               0               0               0   -0.0016846949  -1.0313971e-09   2.4110058e-20    0.0028355185   2.1272371e-13               0
     0.33843844               0               0               0   -0.0016823797  -1.0204253e-09   8.1512188e-21    0.0028281232   2.1228263e-13               0
     0.34054054               0               0               0   -0.0016801066  -1.0098111e-09   -1.022055e-20    0.0028208121   2.1185009e-13               0
     0.34264264               0               0               0   -0.0016778775  -9.9957014e-10  -3.1111437e-20    0.0028135891   2.1142647e-13               0
     0.34474474               0               0               0   -0.0016756484   -9.893292e-10  -5.2002325e-20     0.002806366   2.1100286e-13               0
     0.34684685               0               0               0   -0.0016734194  -9.7908826e-10  -7.2893212e-20    0.0027991429   2.1057924e-13               0
     0.34894895               0               0               0   -0.0016712576   -9.694166e-10  -7.6659021e-20    0.0027920558   2.1016925e-13               0
     0.35105105               0               0               0   -0.0016691107  -9.5987014e-10   -7.665905e-20    0.0027849985   2.0976225e-13               0
     0.35315315               0               0               0   -0.0016669637  -9.5032367e-10   -7.665908e-20    0.0027779412   2.0935526e-13               0
     0.35525526               0               0               0   -0.0016648219  -9.4081793e-10  -7.4563067e-20    0.0027708961   2.0894929e-13               0
     0.35735736               0               0               0   -0.0016627533  -9.3189878e-10  -4.2276245e-20    0.0027640255   2.0855811e-13               0
     0.35945946               0               0               0   -0.0016606847  -9.2297963e-10   -9.989423e-21    0.0027571549   2.0816694e-13               0
     0.36156156               0               0               0   -0.0016586161  -9.1406048e-10   2.2297399e-20    0.0027502844   2.0777576e-13               0
     0.36366366               0               0               0   -0.0016565642  -9.0526492e-10   4.7451258e-20    0.0027434561   2.0738793e-13               0
     0.36576577               0               0               0   -0.0016545707  -8.9690518e-10   4.7451278e-20    0.0027367768   2.0701188e-13               0
     0.36786787               0               0               0   -0.0016525773  -8.8854545e-10   4.7451298e-20    0.0027300976   2.0663583e-13               0
     0.36996997               0               0               0   -0.0016505838  -8.8018571e-10   4.7451318e-20    0.0027234184   2.0625978e-13               0
     0.37207207               0               0               0   -0.0016486109  -8.7197661e-10   4.4115034e-20    0.0027167821   2.0588785e-13               0
     0.37417417               0               0               0   -0.0016466897  -8.6414787e-10   3.2354505e-20     0.002710254    2.055263e-13               0
     0.37627628               0               0               0   -0.0016447684  -8.5631912e-10   2.0593976e-20    0.0027037259   2.0516475e-13               0
     0.37837838               0               0               0   -0.0016428472  -8.4849038e-10   8.8334466e-21    0.0026971979    2.048032e-13               0
     0.38048048               0               0               0   -0.0016409432  -8.4078967e-10    -1.27866e-21    0.0026907029    2.044451e-13               0
     0.38258258               0               0               0   -0.0016390912  -8.3347535e-10  -6.4161024e-21     0.002684308   2.0409741e-13               0
     0.38468468               0               0               0   -0.0016372392  -8.2616102e-10  -1.1553545e-20     0.002677913   2.0374972e-13               0
     0.38678679               0               0               0   -0.0016353872   -8.188467e-10  -1.6690987e-20    0.0026715181   2.0340203e-13               0
     0.38888889               0               0               0   -0.0016335426  -8.1158593e-10  -2.1793949e-20    0.0026651395   2.0305582e-13               0