#      distance             U_x             U_y             U_z wallShearStr... wallShearStr... wallShearStr...               p             nut         nuTilda
  3.0219182e-06     0.018870534   2.6775262e-09  -3.5438007e-23               0               0               0   0.00023967545   3.1907861e-12   4.3852163e-08
  5.0865428e-06     0.031765837   6.7928333e-09  -1.5080471e-23               0               0               0   0.00023967566   1.5815226e-11   7.3813659e-08
  7.2269684e-06     0.045132703   1.3376893e-08  -3.8838844e-23               0               0               0   0.00023967589   5.4034552e-11   1.0487098e-07
  9.4750924e-06     0.059167278   2.2798698e-08  -5.8252035e-23               0               0               0   0.00023967611   1.4715349e-10   1.3748495e-07
  1.1864417e-05     0.074072091   3.5579427e-08  -2.4662862e-23               0               0               0   0.00023967635   3.4608694e-10   1.7213894e-07
  1.4430548e-05     0.090055733   5.2469497e-08   8.0546869e-23               0               0               0   0.00023967661   7.3697669e-10   2.0934577e-07
  1.7211727e-05      0.10732984   7.4456674e-08   1.3130504e-22               0               0               0   0.00023967689   1.4633155e-09   2.4965528e-07
  2.0249401e-05      0.12610118   1.0279985e-07    2.774534e-23               0               0               0   0.00023967721   2.7612298e-09    2.936627e-07
  2.3588836e-05      0.14655556    1.390698e-07   -3.552632e-23               0               0               0   0.00023967756   5.0147758e-09   3.4201887e-07
  2.7279799e-05      0.16882858   1.8517512e-07   -1.776316e-23               0               0               0   0.00023967798   8.8408519e-09   3.9544345e-07
  3.1377293e-05      0.19295864   2.4334743e-07               0               0               0               0   0.00023967849   1.5216116e-08   4.5474313e-07
  3.5942381e-05      0.21882101   3.1605074e-07   8.7394656e-23               0               0               0   0.00023967913   2.5659316e-08   5.2083621e-07
  4.1043091e-05      0.24605486    4.057818e-07   1.3107796e-22               0               0               0   0.00023967996   4.2476224e-08   5.9478088e-07
  4.6755437e-05      0.27401804   5.1477016e-07   1.5247461e-22               0               0               0   0.00023968111   6.9047614e-08    6.777946e-07
  5.3164546e-05      0.30182428    6.446862e-07    1.631695e-22               0               0               0   0.00023968272   1.1007366e-07   7.7124247e-07
  6.0365928e-05       0.3284992   7.9656712e-07  -2.2921627e-22               0               0               0   0.00023968501   1.7158507e-07   8.7658517e-07
    6.84669e-05      0.35321606   9.7112811e-07  -4.9739065e-22               0               0               0   0.00023968826   2.6047854e-07     9.95326e-07
  7.7588184e-05      0.37549245   1.1693771e-06  -2.6185558e-22               0               0               0   0.00023969276   3.8347042e-07   1.1290263e-06
   8.786571e-05      0.39524294   1.3932143e-06   4.5289816e-23               0               0               0   0.00023969878   5.4569861e-07   1.2794066e-06
  9.9452634e-05      0.41268854   1.6457468e-06   2.4654133e-22               0               0               0   0.00023970652   7.4953704e-07   1.4484711e-06
  0.00011252163      0.42820871   1.9313056e-06   6.7916194e-23               0               0               0   0.00023971605    9.942489e-07   1.6385905e-06
  0.00012726745      0.44221679   2.2553314e-06  -1.0788903e-22               0               0               0   0.00023972736   1.2767577e-06   1.8525349e-06
  0.00014390985      0.45508792   2.6242748e-06   -2.261311e-23               0               0               0    0.0002397404   1.5932231e-06   2.0934818e-06
  0.00016269684      0.46713097   3.0455743e-06   6.0019229e-23               0               0               0   0.00023975513   1.9407068e-06   2.3650252e-06
  0.00018390838      0.47858601   3.5277157e-06   4.4310646e-22               0               0               0   0.00023977157   2.3182977e-06   2.6711946e-06
  0.00020786057      0.48963294   4.0803575e-06    5.445694e-22               0               0               0   0.00023978988   2.7274935e-06   3.0164885e-06
  0.00023491035      0.50040339   4.7145075e-06   1.6148217e-22               0               0               0   0.00023981027   3.1720182e-06   3.4059198e-06
  0.00026546084        0.510992   5.4427383e-06               0               0               0               0   0.00023983309   3.6573902e-06   3.8450692e-06
   0.0002999673        0.521466   6.2794414e-06               0               0               0               0   0.00023985873   4.1904855e-06   4.3401436e-06
  0.00033894396      0.53187271   7.2411223e-06   -1.728505e-22               0               0               0   0.00023988768   4.7792113e-06   4.8980356e-06
  0.00038297165      0.54224529   8.3467454e-06    -3.45701e-22               0               0               0   0.00023992049   5.4323102e-06     5.52638e-06
  0.00043270649      0.55260701   9.6181392e-06    6.972909e-22               0               0               0   0.00023995781    6.159266e-06   6.2336027e-06
  0.00048888965      0.56297436   1.1080475e-05    1.378708e-21               0               0               0   0.00024000033   6.9702735e-06   7.0289572e-06
  0.00055235838      0.57335937    1.276284e-05   5.0856663e-22               0               0               0   0.00024004888   7.8762323e-06    7.922542e-06
   0.0006240585      0.58377124   1.4698919e-05               0               0               0               0   0.00024010437   8.8887385e-06    8.925289e-06
  0.00070505852      0.59421769    1.692782e-05   2.4300622e-22               0               0               0   0.00024016784   1.0020047e-05   1.0048912e-05
  0.00079656552      0.60470578   1.9495078e-05   4.8601245e-22               0               0               0   0.00024024045   1.1282984e-05   1.1305803e-05
  0.00089994316      0.61524277   2.2453876e-05   2.4300623e-22               0               0               0   0.00024032354   1.2690796e-05    1.270886e-05
    0.001016732      0.62583661   2.5866544e-05               0               0               0               0   0.00024041861   1.4256907e-05   1.4271233e-05
   0.0011486725      0.63649648   2.9806409e-05   9.9765091e-22               0               0               0   0.00024052737   1.5994582e-05    1.600597e-05
   0.0012977308      0.64723325   3.4360066e-05  -7.7879092e-22               0               0               0   0.00024065172   1.7916481e-05   1.7925558e-05
   0.0014661282       0.6580598   3.9630188e-05   -3.442102e-21               0               0               0   0.00024079379   2.0034094e-05   2.0041353e-05
   0.0016563743      0.66899139   4.5738984e-05  -2.7984594e-21               0               0               0   0.00024095593   2.2357086e-05   2.2362912e-05
   0.0018713042      0.68004595   5.2832443e-05  -1.7371268e-21               0               0               0   0.00024114072   2.4892538e-05   2.4897236e-05
   0.0021141207      0.69124428   6.1085522e-05  -6.0432761e-22               0               0               0   0.00024135091   2.7644142e-05   2.7647949e-05
   0.0023884425      0.70261023   7.0708457e-05  -4.5721823e-22               0               0               0    0.0002415894    3.061133e-05   3.0614432e-05
   0.0026983575      0.71417076   8.1954405e-05   1.1575224e-21               0               0               0   0.00024185912    3.378837e-05   3.3790914e-05
   0.0030484842      0.72595597   9.5128652e-05  -2.4105476e-21               0               0               0   0.00024216291   3.7163384e-05   3.7165485e-05
   0.0034440402      0.73799901   0.00011059966  -5.8134249e-21               0               0               0   0.00024250327    4.071723e-05   4.0718978e-05
   0.0038909203      0.75033594   0.00012881218  -1.7881367e-21               0               0               0   0.00024288204   4.4422161e-05   4.4423628e-05
    0.004395784       0.7630055   0.00015030259   3.8211307e-21               0               0               0    0.0002432999   4.8240163e-05   4.8241406e-05
   0.0049661549      0.77604874   0.00017571694  -4.5782656e-21               0               0               0   0.00024375585   5.2120861e-05   5.2121925e-05
   0.0056105328      0.78950854   0.00020583488  -1.5065191e-20               0               0               0   0.00024424686   5.5998937e-05   5.5999857e-05
   0.0063385204      0.80342873   0.00024160455   5.6366829e-21               0               0               0    0.0002447673   5.9790984e-05    5.979179e-05
   0.0071609664      0.81785285   0.00028417066   2.0500327e-20               0               0               0   0.00024530162   6.3391782e-05   6.3392499e-05
   0.0080901272      0.83282192   0.00033468419   4.8450502e-20               0               0               0   0.00024582447   6.6669928e-05   6.6670574e-05
   0.0091398493        0.848371   0.00039476862   6.1388014e-20               0               0               0   0.00024630493   6.9462783e-05   6.9463378e-05
    0.010325776       0.8645234    0.0004664023   2.6031552e-20               0               0               0   0.00024669575   7.1570692e-05   7.1571252e-05
     0.01166558      0.88128154   0.00055140219   4.8961952e-21               0               0               0   0.00024692985   7.2750421e-05   7.2750962e-05
    0.013179228      0.89861188   0.00065177291   1.6338632e-20               0               0               0   0.00024691502   7.2707949e-05   7.2708491e-05
    0.014889277      0.91642046   0.00076948648   1.4001234e-20               0               0               0   0.00024652069   7.1090973e-05   7.1091541e-05
    0.016821209      0.93451194   0.00090583736   4.1401351e-20               0               0               0   0.00024557339   6.7481922e-05   6.7482555e-05
    0.019003816      0.95252005    0.0010603061     6.49506e-20               0               0               0   0.00024385046   6.1392443e-05    6.139322e-05
    0.021469624      0.96978657     0.001228519   3.3310088e-20               0               0               0    0.0002411052   5.2252835e-05   5.2253956e-05
    0.024255377      0.98518882    0.0014015832   1.3663538e-20               0               0               0   0.00023720636   3.9216787e-05   3.9219248e-05
    0.027402591      0.99663247    0.0015389083   1.5652621e-21               0               0               0   0.00023165316   2.2478991e-05   2.2508594e-05
    0.030958166       1.0023401    0.0016010287               0               0               0               0   0.00022439809   8.1885534e-06   8.3818898e-06
    0.034975088       1.0037607    0.0016103213               0               0               0               0   0.00021677591     2.23183e-06    2.663131e-06
    0.039513219       1.0038566     0.001601649   1.9774945e-20               0               0               0   0.00020954496   1.4438559e-06   1.9780495e-06
    0.044640187       1.0038585    0.0015912138   2.8087256e-20               0               0               0   0.00020237213   1.4375774e-06   1.9732861e-06
    0.050432395       1.0038641     0.001580973   6.7402071e-21               0               0               0    0.0001950802   1.4457146e-06   1.9794434e-06
    0.056976161       1.0038689     0.001568814  -1.5720681e-21               0               0               0   0.00018774519   1.4521555e-06   1.9843193e-06
    0.064369002       1.0038712    0.0015561531               0               0               0               0    0.0001804989   1.4572696e-06   1.9881926e-06
    0.072721087       1.0038694    0.0015417925               0               0               0               0   0.00017347492   1.4614536e-06   1.9913626e-06
    0.082156882       1.0038646    0.0015267282               0               0               0               0   0.00016677253   1.4648859e-06   1.9939638e-06
    0.092817002       1.0038572     0.001510385               0               0               0               0   0.00016047944   1.4684642e-06   1.9966764e-06
