/*--------------------------------*- C++ -*----------------------------------*\
  =========                 |
  \\      /  F ield         | OpenFOAM: The Open Source CFD Toolbox
   \\    /   O peration     | Website:  https://openfoam.org
    \\  /    A nd           | Version:  12
     \\/     M anipulation  |
\*---------------------------------------------------------------------------*/
FoamFile
{
    format      ascii;
    class       surfaceScalarField;
    location    "700";
    object      phi;
}
// * * * * * * * * * * * * * * * * * * * * * * * * * * * * * * * * * * * * * //

dimensions      [0 3 -1 0 0 0 0];

internalField   nonuniform List<scalar> 
5870
(
-3.79187750301e-07
1.61328522821e-06
-1.45383763999e-06
4.40734193721e-06
-3.06654771912e-06
6.56184039187e-06
-5.08128155549e-06
8.18222457717e-06
-7.38655013476e-06
9.36376112723e-06
-9.88353872171e-06
1.0178523234e-05
-1.24795706789e-05
1.06824612585e-05
-1.50850523985e-05
1.09203575109e-05
-1.76130863996e-05
1.09297466293e-05
-1.9981025239e-05
1.07439201146e-05
-2.21131552125e-05
1.03939593469e-05
-2.39436922619e-05
9.90981437738e-06
-2.54193968846e-05
9.32057343265e-06
-2.6501337055e-05
8.65416225984e-06
-2.71655812125e-05
7.93674180781e-06
-2.74028303055e-05
7.19204296803e-06
-2.72171592445e-05
6.44081118031e-06
-2.66241258151e-05
5.70045727594e-06
-2.56485259939e-05
4.98494339745e-06
-2.43220480736e-05
4.30488403912e-06
-2.26810244023e-05
3.66781432968e-06
-2.07644170114e-05
3.07856762945e-06
-1.86121137571e-05
2.53970703214e-06
-1.62635624923e-05
2.05196513116e-06
-1.37567348792e-05
1.61465901002e-06
-1.1127388411e-05
1.22605992043e-06
-8.40858299995e-06
8.83707693083e-07
-5.63040451302e-06
5.84667578944e-07
-2.81984811766e-06
3.2573161339e-07
1.02751482725e-07
-2.12896567571e-07
1.826181796e-06
-7.03341560925e-07
4.89778692981e-06
-1.4143029672e-06
7.27280179802e-06
-2.30030351065e-06
9.06822512101e-06
-3.30079264978e-06
1.03642502666e-05
-4.34777340504e-06
1.12255039905e-05
-5.37140600033e-06
1.17060938544e-05
-6.30564258704e-06
1.18545940984e-05
-7.09364310235e-06
1.17177471447e-05
-7.69218361898e-06
1.13424606299e-05
-8.07437276508e-06
1.07761484949e-05
-8.23036992086e-06
1.00658115301e-05
-8.16622056058e-06
9.25642407552e-06
-7.90124464865e-06
8.38918634563e-06
-7.46457126201e-06
7.50006842094e-06
-6.89141414595e-06
6.61888585201e-06
-6.21957365796e-06
5.76897069197e-06
-5.48648915372e-06
4.96737277171e-06
-4.72700110243e-06
4.22545534763e-06
-3.97184631898e-06
3.54972925553e-06
-3.2468163651e-06
2.94278437507e-06
-2.57245837804e-06
2.40420964264e-06
-1.96418104373e-06
1.93142969815e-06
-1.43263522382e-06
1.52041931093e-06
-9.84258410661e-07
1.16628219685e-06
-6.21896585574e-07
8.6369809535e-07
-3.45440905596e-07
6.07252013144e-07
-1.52437491912e-07
3.91664165267e-07
-3.86461917388e-08
2.1194031323e-07
6.41052909835e-08
-1.730348251e-07
1.99921662128e-06
-6.86878058271e-07
5.41163016239e-06
-1.42800907444e-06
8.01393281408e-06
-2.28210247977e-06
9.92231852664e-06
-3.1518885374e-06
1.12340363245e-05
-3.95549961105e-06
1.20291150652e-05
-4.62847730363e-06
1.23790715474e-05
-5.12635581396e-06
1.23524726092e-05
-5.42599329507e-06
1.20173846258e-05
-5.52473862346e-06
1.14412059574e-05
-5.43739923545e-06
1.06888091081e-05
-5.19162829032e-06
9.82004058316e-06
-4.82265718238e-06
8.88745296933e-06
-4.36827741199e-06
7.93480657403e-06
-3.86473208577e-06
6.9965230946e-06
-3.34384925469e-06
6.09800302094e-06
-2.83144825907e-06
5.25656969619e-06
-2.34683946613e-06
4.48276397877e-06
-1.90313171893e-06
3.78174760101e-06
-1.50804350094e-06
3.15464103749e-06
-1.16495261175e-06
2.59969348562e-06
-8.73984849155e-07
2.11324188013e-06
-6.33012040647e-07
1.69045688975e-06
-4.38490319699e-07
1.32589758988e-06
-2.86115065046e-07
1.01390694219e-06
-1.71298929302e-07
7.48881959608e-07
-8.94962533369e-08
5.2544933719e-07
-3.64042955666e-08
3.38572207497e-07
-8.07216197846e-09
1.83608179645e-07
5.60331290047e-08
-1.09335933549e-07
2.10855255494e-06
-3.64528601867e-07
5.66682283037e-06
-7.05828839612e-07
8.35523305179e-06
-1.07688372833e-06
1.02933734156e-05
-1.42373467608e-06
1.15808872723e-05
-1.70304123255e-06
1.23084216222e-05
-1.88689400492e-06
1.256292432e-05
-1.96438491435e-06
1.24299635189e-05
-1.94008278975e-06
1.19930825013e-05
-1.83019734e-06
1.13313205073e-05
-1.65764324039e-06
1.05162550089e-05
-1.4472233055e-06
9.60962064772e-06
-1.2218155736e-06
8.66204523794e-06
-9.99973753049e-07
7.71296475317e-06
-7.94921352847e-07
6.79147069438e-06
-6.14642952296e-07
5.9177246204e-06
-4.62668976367e-07
5.10459572024e-06
-3.39173420161e-07
4.35926842257e-06
-2.42097655665e-07
3.68467183661e-06
-1.6812567381e-07
3.08066905563e-06
-1.13433693905e-07
2.54500150569e-06
-7.42058708245e-08
2.07401405706e-06
-4.69471254352e-08
1.66319814437e-06
-2.86401315798e-08
1.30759059601e-06
-1.67943489925e-08
1.00206115961e-06
-9.42789471239e-09
7.4151550533e-07
-5.01313417691e-09
5.21034576655e-07
-2.40718202548e-09
3.35966255347e-07
-7.80472438141e-10
1.81981470059e-07
5.52526565665e-08
-8.89974438889e-08
2.19754999892e-06
-3.31785249411e-07
5.9096106356e-06
-6.58611409558e-07
8.68205921189e-06
-1.00270325969e-06
1.06374652658e-05
-1.31211479706e-06
1.18902988098e-05
-1.55262807386e-06
1.25489348994e-05
-1.70790286378e-06
1.27181991101e-05
-1.77687594824e-06
1.24989366035e-05
-1.76935538081e-06
1.19855619339e-05
-1.701116486e-06
1.12630816122e-05
-1.58963534595e-06
1.04047738692e-05
-1.45110431195e-06
9.47108961321e-06
-1.29884338193e-06
8.50978430838e-06
-1.142848893e-06
7.55697026392e-06
-9.90067302255e-07
6.63868910361e-06
-8.45003128871e-07
5.77266044702e-06
-7.10381717367e-07
4.9699743087e-06
-5.87714957105e-07
4.2366016623e-06
-4.7771834399e-07
3.57467522364e-06
-3.80587911323e-07
2.98353862295e-06
-2.96171116555e-07
2.46058471085e-06
-2.24069049361e-07
2.00191198989e-06
-1.63699904802e-07
1.60282899984e-06
-1.14343465012e-07
1.2582341562e-06
-7.5177456622e-08
9.62895151216e-07
-4.53104872841e-08
7.11648535992e-07
-2.38127160877e-08
4.99536805462e-07
-9.74381032342e-09
3.21897349582e-07
-2.17735195658e-09
1.74415011692e-07
5.30753046097e-08
-6.20094748404e-08
2.25955947383e-06
-2.11748246192e-07
6.05934940676e-06
-4.02169411382e-07
8.87248037705e-06
-5.91609268542e-07
1.08269051231e-05
-7.49214343791e-07
1.20479038851e-05
-8.57765809615e-07
1.26574863655e-05
-9.12540399102e-07
1.27729736997e-05
-9.17973834122e-07
1.25043700386e-05
-8.83704226557e-07
1.19512923263e-05
-8.21143935058e-07
1.12005213206e-05
-7.41133058116e-07
1.03247629924e-05
-6.52708033847e-07
9.38266458869e-06
-5.62719845685e-07
8.41979612044e-06
-4.75958537951e-07
7.47020895605e-06
-3.95500537594e-07
6.55823110324e-06
-3.23100928082e-07
5.70026083751e-06
-2.595455931e-07
4.9064189737e-06
-2.04937222646e-07
4.18199329185e-06
-1.58917447632e-07
3.52865544867e-06
-1.20836237898e-07
2.94545741321e-06
-8.98796350586e-08
2.42962810799e-06
-6.51643419396e-08
1.97719669678e-06
-4.58054448815e-08
1.58347010279e-06
-3.09622340955e-08
1.24339094541e-06
-1.986645057e-08
9.51799367691e-07
-1.18369201613e-08
7.03619005582e-07
-6.28416788183e-09
4.93984053184e-07
-2.70813466844e-09
3.18321316369e-07
-6.91549392113e-10
1.72398426416e-07
5.23837552174e-08
-4.85749739413e-08
2.30813444782e-06
-1.73964647685e-07
6.18473908034e-06
-3.3521533376e-07
9.03373106309e-06
-4.96254089252e-07
1.09879438786e-05
-6.32354178921e-07
1.21840039748e-05
-7.30627064297e-07
1.2755759251e-05
-7.87831922599e-07
1.28301785581e-05
-8.07136866132e-07
1.25236749822e-05
-7.95050145588e-07
1.19392056058e-05
-7.59136271158e-07
1.1164607446e-05
-7.06625677144e-07
1.02722523985e-05
-6.43743490699e-07
9.31978240201e-06
-5.75503783417e-07
8.35155641337e-06
-5.0575343049e-07
7.40045860297e-06
-4.37323098258e-07
6.48980077099e-06
-3.72206957369e-07
5.63514469662e-06
-3.11734364249e-07
4.84594638056e-06
-2.56719349343e-07
4.12697827694e-06
-2.07584537518e-07
3.47952063691e-06
-1.6446084276e-07
2.90233371844e-06
-1.27266137958e-07
2.39243340316e-06
-9.57666078374e-08
1.94569716666e-06
-6.96243162628e-08
1.55732781122e-06
-4.84340127148e-08
1.22220064185e-06
-3.17515863509e-08
9.35116941326e-07
-1.91159907053e-08
6.90983409938e-07
-1.00659831342e-08
4.84934045614e-07
-4.15267457044e-09
3.12408007806e-07
-9.48655853394e-10
1.69194407699e-07
5.14350993636e-08
-3.5264215222e-08
2.34339866308e-06
-1.21710212289e-07
6.27118507729e-06
-2.3024439353e-07
9.14226524431e-06
-3.36258337289e-07
1.10939578224e-05
-4.2332827769e-07
1.22710739152e-05
-4.83477381398e-07
1.28159083548e-05
-5.15315512182e-07
1.28620166889e-05
-5.21618625694e-07
1.25299780958e-05
-5.07222505415e-07
1.19248094855e-05
-4.77542222008e-07
1.11349271625e-05
-4.37693021276e-07
1.02324031979e-05
-3.92058089241e-07
9.27414746983e-06
-3.44140829521e-07
8.30363915378e-06
-2.96578205401e-07
7.35289597876e-06
-2.51234709387e-07
6.44445727497e-06
-2.09328896901e-07
5.59323888413e-06
-1.71565307204e-07
4.80818279085e-06
-1.38257299399e-07
4.09367026913e-06
-1.09433916756e-07
3.4506972543e-06
-8.49283927541e-08
2.87782819444e-06
-6.44485142334e-08
2.37195352463e-06
-4.7630471539e-08
1.92887912397e-06
-3.40784906156e-08
1.5437758303e-06
-2.339274451e-08
1.21151489573e-06
-1.51879643461e-08
9.26912161162e-07
-9.10493387193e-09
6.84900379464e-07
-4.81673796671e-09
4.80645849709e-07
-2.03129762049e-09
3.09622567459e-07
-4.91394710414e-10
1.67654504789e-07
5.09437046531e-08
-2.70627693879e-08
2.37046143249e-06
-9.55099329844e-08
6.3396322408e-06
-1.82365790864e-07
9.22912110217e-06
-2.68071757629e-07
1.11796637892e-05
-3.39715828121e-07
1.23427179857e-05
-3.90906431289e-07
1.28670989581e-05
-4.2024649762e-07
1.28913567553e-05
-4.29515040038e-07
1.25392466382e-05
-4.2212620747e-07
1.19174206529e-05
-4.02040263809e-07
1.11148412188e-05
-3.73094898288e-07
1.02034578324e-05
-3.38654224364e-07
9.23970679578e-06
-3.01469996795e-07
8.26645492632e-06
-2.6367084818e-07
7.31509683007e-06
-2.26819906828e-07
6.40760633361e-06
-1.92001910488e-07
5.55842088779e-06
-1.59916441801e-07
4.77609732216e-06
-1.30964697368e-07
4.0647185247e-06
-1.05324182402e-07
3.42505673937e-06
-8.30098862606e-08
2.85551389829e-06
-6.39227078637e-08
2.35286634622e-06
-4.7886869863e-08
1.91284328598e-06
-3.4678304011e-08
1.53056726446e-06
-2.40458642337e-08
1.20088245595e-06
-1.57269471716e-08
9.18593244099e-07
-9.45879425562e-09
6.78632226547e-07
-4.98647359653e-09
4.76173529051e-07
-2.06831521963e-09
3.06704409082e-07
-4.79400077047e-10
1.66065589646e-07
5.04643045764e-08
-2.01605187691e-08
2.39062195128e-06
-7.00768434607e-08
6.38954856543e-06
-1.32922306363e-07
9.29196656507e-06
-1.94534274014e-07
1.12412757569e-05
-2.45553659154e-07
1.23937373709e-05
-2.81394174824e-07
1.29029394739e-05
-3.01134812379e-07
1.29110973929e-05
-3.06189580368e-07
1.25443014063e-05
-2.99172877716e-07
1.19104039503e-05
-2.83089761874e-07
1.10987581029e-05
-2.60833974247e-07
1.01812020449e-05
-2.34923309896e-07
9.21379613135e-06
-2.07396088712e-07
8.23892770522e-06
-1.79805595094e-07
7.28750633641e-06
-1.5326688664e-07
6.38106762515e-06
-1.28526144152e-07
5.53368014531e-06
-1.06034736739e-07
4.75360591474e-06
-8.60184181248e-08
4.04470220609e-06
-6.85372756864e-08
3.40757559695e-06
-5.35351075908e-08
2.8405117302e-06
-4.08785528195e-08
2.34020979144e-06
-3.03870922613e-08
1.90235182542e-06
-2.18553359506e-08
1.52203550815e-06
-1.50690376365e-08
1.19409615763e-06
-9.81616540465e-09
9.13340371868e-07
-5.89418247898e-09
6.74710243623e-07
-3.11449961642e-09
4.73393846189e-07
-1.30487383379e-09
3.048947833e-07
-3.10359264909e-10
1.65071075077e-07
5.01539453115e-08
-1.544964332e-08
2.40607159462e-06
-5.42648152382e-08
6.4283637373e-06
-1.03439083436e-07
9.34114083326e-06
-1.51939352877e-07
1.12897760264e-05
-1.92456108592e-07
1.24342541266e-05
-2.21347517405e-07
1.29318308827e-05
-2.37797639601e-07
1.29275475151e-05
-2.42806823573e-07
1.25493105903e-05
-2.38324569811e-07
1.19059216965e-05
-2.26625443779e-07
1.10870589768e-05
-2.0991894967e-07
1.01644955508e-05
-1.90141859153e-07
9.19401904077e-06
-1.68875182738e-07
8.21766102886e-06
-1.4733713385e-07
7.26596828748e-06
-1.26416706757e-07
6.36014719806e-06
-1.06724693224e-07
5.51398813178e-06
-8.86483275614e-08
4.73552954907e-06
-7.24022102038e-08
4.02845608873e-06
-5.80722487237e-08
3.39324563549e-06
-4.56517412181e-08
2.82809122269e-06
-3.50699851021e-08
2.32962803531e-06
-2.6214357172e-08
1.89349619749e-06
-1.89469750384e-08
1.51476812602e-06
-1.31170085657e-08
1.18826619116e-06
-8.56957793657e-09
9.08792941239e-07
-5.1520166299e-09
6.71292682316e-07
-2.71812560815e-09
4.70959955167e-07
-1.13091335947e-09
3.03307571051e-07
-2.64208149656e-10
1.64204369868e-07
4.98897371618e-08
-1.17085381759e-08
2.41778013281e-06
-4.08612499326e-08
6.45751644902e-06
-7.76858329977e-08
9.37796541633e-06
-1.13917837736e-07
1.13260080311e-05
-1.44068049668e-07
1.24644043386e-05
-1.65410187255e-07
1.29531730204e-05
-1.77354734101e-07
1.2939492062e-05
-1.80686181342e-07
1.25526420375e-05
-1.76904327595e-07
1.19021398428e-05
-1.67749444492e-07
1.10779040937e-05
-1.54905773506e-07
1.01516518799e-05
-1.39844273614e-07
9.17895754083e-06
-1.23760359293e-07
8.20157711459e-06
-1.07569428613e-07
7.24977735677e-06
-9.19332430901e-08
6.34451101253e-06
-7.72995859533e-08
5.49935447464e-06
-6.3944740776e-08
4.72217470389e-06
-5.20131951692e-08
4.01652454312e-06
-4.15520328924e-08
3.38278447323e-06
-3.25392655747e-08
2.81907845537e-06
-2.49063144664e-08
2.3219950842e-06
-1.85553055281e-08
1.88714518856e-06
-1.33720009707e-08
1.50958482147e-06
-9.23519271104e-09
1.1841293829e-06
-6.02330796262e-09
9.05581056492e-07
-3.61887063855e-09
6.68888244992e-07
-1.91134967892e-09
4.69252434208e-07
-7.98820202912e-10
3.02195041575e-07
-1.88770627556e-10
1.63594320293e-07
4.9700966534e-08
-8.99492802307e-09
2.42677506084e-06
-3.15350427748e-08
6.48005656375e-06
-6.00860282634e-08
9.4065164018e-06
-8.82518433817e-08
1.13541738463e-05
-1.11778953037e-07
1.24879314482e-05
-1.28540565102e-07
1.29699346325e-05
-1.38056641699e-07
1.29490081386e-05
-1.40909113103e-07
1.25554945089e-05
-1.3823603702e-07
1.18994667667e-05
-1.31366299784e-07
1.10710343564e-05
-1.21590974222e-07
1.01418765543e-05
-1.10041553157e-07
9.16740811971e-06
-9.76411973762e-08
8.18917675884e-06
-8.51004811175e-08
7.23723664048e-06
-7.29369408257e-08
6.33234747223e-06
-6.15048968505e-08
5.48792243066e-06
-5.10274849333e-08
4.71169729196e-06
-4.16265899803e-08
4.00712364817e-06
-3.33487471606e-08
3.37450663041e-06
-2.61864626622e-08
2.81191617087e-06
-2.00951441612e-08
2.31590376569e-06
-1.50061692559e-08
1.88205621365e-06
-1.08367280042e-08
1.50541538021e-06
-7.49706266411e-09
1.18078971755e-06
-4.89565913341e-09
9.02979652961e-07
-2.94285704755e-09
6.66935442905e-07
-1.55325845501e-09
4.67862835616e-07
-6.47237328579e-10
3.01289020448e-07
-1.51786485709e-10
1.63098869449e-07
4.95491800483e-08
-6.88061835674e-09
2.4336556792e-06
-2.40550148827e-08
6.49723096025e-06
-4.57806005443e-08
9.42824198746e-06
-6.71894997483e-08
1.13755827455e-05
-8.50418801526e-08
1.25057838286e-05
-9.77207140285e-08
1.29826134664e-05
-1.04866799921e-07
1.29561542245e-05
-1.06931870581e-07
1.25575595796e-05
-1.04791579779e-07
1.18973264759e-05
-9.94659821806e-08
1.10657087588e-05
-9.19446485912e-08
1.01343552208e-05
-8.30936139025e-08
9.15855708498e-06
-7.36182185508e-08
8.17970136351e-06
-6.40600124625e-08
7.22767843437e-06
-5.48118928794e-08
6.32309935264e-06
-4.61411329566e-08
5.47925167074e-06
-3.82141338181e-08
4.70377029282e-06
-3.11195942182e-08
4.00002910857e-06
-2.48885968617e-08
3.36827563307e-06
-1.95111675067e-08
2.80653874151e-06
-1.49494300501e-08
2.31134202823e-06
-1.11477469834e-08
1.87825453059e-06
-8.04032680251e-09
1.50230796003e-06
-5.55677886739e-09
1.17830616962e-06
-3.62605021909e-09
9.01048924313e-07
-2.17911532169e-09
6.65488508008e-07
-1.15072376286e-09
4.66834444057e-07
-4.80450085942e-10
3.00618746771e-07
-1.13237010691e-10
1.62731656374e-07
4.94359430375e-08
-5.29644441375e-09
2.43895212362e-06
-1.85528730447e-08
6.51048738885e-06
-3.53415146009e-08
9.445030629e-06
-5.19035763993e-08
1.13921448073e-05
-6.57366482531e-08
1.25196169004e-05
-7.55884304726e-08
1.29924652486e-05
-8.11757330921e-08
1.29617415271e-05
-8.28408407233e-08
1.25592246872e-05
-8.12538633107e-08
1.18957394984e-05
-7.71976113738e-08
1.10616525069e-05
-7.14328405372e-08
1.01285904499e-05
-6.46263977265e-08
9.15175064214e-06
-5.73223712853e-08
8.17239733709e-06
-4.99394772772e-08
7.22029554034e-06
-4.27825076143e-08
6.31594238297e-06
-3.60598741792e-08
5.4725290373e-06
-2.99024950066e-08
4.69761291365e-06
-2.43814752924e-08
3.99450808885e-06
-1.95234307683e-08
3.36341758855e-06
-1.53231180984e-08
2.80233842884e-06
-1.17534735392e-08
2.30777238367e-06
-8.77336366476e-09
1.87527442071e-06
-6.33341921978e-09
1.49986801559e-06
-4.38031869105e-09
1.17635306909e-06
-2.85985014782e-09
8.99528455769e-07
-1.71902972171e-09
6.64347687582e-07
-9.0750429038e-10
4.66022918625e-07
-3.78419930194e-10
3.00089662411e-07
-8.88984789009e-11
1.62442134922e-07
4.93470445589e-08
-4.07043955467e-09
2.44302256318e-06
-1.42408847725e-08
6.52065783406e-06
-2.7113526265e-08
9.45790327049e-06
-3.98060752456e-08
1.14048373563e-05
-5.03992660451e-08
1.25302100913e-05
-5.7933490308e-08
1.29999994729e-05
-6.21932731045e-08
1.29660013099e-05
-6.3443316641e-08
1.25604747308e-05
-6.2199804804e-08
1.18944959866e-05
-5.9065114518e-08
1.10585178166e-05
-5.46242919817e-08
1.01241496274e-05
-4.93898691525e-08
9.1465162193e-06
-4.37797273904e-08
8.16678719535e-06
-3.81151241416e-08
7.21463093709e-06
-3.2629530904e-08
6.31045678974e-06
-2.74821646456e-08
5.46738167105e-06
-2.27725603774e-08
4.69290330938e-06
-1.85542247565e-08
3.99028975323e-06
-1.48464795419e-08
3.35970984334e-06
-1.16442304684e-08
2.79913617977e-06
-8.92573339837e-09
2.30505388659e-06
-6.65858720983e-09
1.87300727453e-06
-4.80423713419e-09
1.49801366552e-06
-3.32127114226e-09
1.17487010309e-06
-2.16776446873e-09
8.98374949095e-07
-1.30288965439e-09
6.63482812769e-07
-6.87970641016e-10
4.65407999612e-07
-2.87123754907e-10
2.99688815527e-07
-6.75975520699e-11
1.62222608719e-07
4.9279447007e-08
-3.13738036218e-09
2.44615994355e-06
-1.09856522967e-08
6.52850610598e-06
-2.09239312391e-08
9.46784154944e-06
-3.07276927469e-08
1.14146411178e-05
-3.8915566242e-08
1.25383979648e-05
-4.47460810329e-08
1.30058299877e-05
-4.80514905965e-08
1.29693067195e-05
-4.90344188507e-08
1.2561457659e-05
-4.80916759169e-08
1.18935532437e-05
-4.56868906585e-08
1.10561130313e-05
-4.22706986694e-08
1.01207334354e-05
-3.82381590696e-08
9.14248367969e-06
-3.39116318172e-08
8.16246066811e-06
-2.95391964448e-08
7.21025850171e-06
-2.53014086846e-08
6.30621900198e-06
-2.1321679829e-08
5.46340194219e-06
-1.76774629106e-08
4.68925909246e-06
-1.44107345848e-08
3.98702302491e-06
-1.15370866649e-08
3.35683619542e-06
-9.05322498093e-09
2.79665231809e-06
-6.94293249034e-09
2.3029435941e-06
-5.18167431932e-09
1.87124601636e-06
-3.74006336586e-09
1.49657205456e-06
-2.58640334035e-09
1.17371644307e-06
-1.68850423511e-09
8.97477049992e-07
-1.01493591681e-09
6.6280924445e-07
-5.35855519918e-10
4.64928919216e-07
-2.2351716775e-10
2.99376477174e-07
-5.25489954038e-11
1.62051640547e-07
4.92268980115e-08
-2.41693187896e-09
2.44857687543e-06
-8.45850764826e-09
6.53454768175e-06
-1.61069463477e-08
9.47548998815e-06
-2.36502018499e-08
1.14221843733e-05
-2.99481096093e-08
1.25446958725e-05
-3.44302232391e-08
1.30103121013e-05
-3.69678897317e-08
1.2971844386e-05
-3.77176233547e-08
1.25622073927e-05
-3.69853992896e-08
1.18928210196e-05
-3.51285533588e-08
1.10542561854e-05
-3.24943153271e-08
1.01180991974e-05
-2.93870185118e-08
9.13937638287e-06
-2.60549197381e-08
8.15912856935e-06
-2.26889897654e-08
7.20689257173e-06
-1.94281270352e-08
6.30295813925e-06
-1.63671642211e-08
5.46034097938e-06
-1.35654989291e-08
4.68645742717e-06
-1.10551841065e-08
3.98451271009e-06
-8.84794813383e-09
3.35462895945e-06
-6.94098710176e-09
2.79474535706e-06
-5.32157139911e-09
2.3013241784e-06
-3.97060246698e-09
1.86989504743e-06
-2.86528769591e-09
1.49546673979e-06
-1.98110069191e-09
1.17283225606e-06
-1.2931777897e-09
8.96789127091e-07
-7.77279288992e-10
6.62293345949e-07
-4.10420880695e-10
4.64562060809e-07
-1.71259678563e-10
2.99137315971e-07
-4.03009947468e-11
1.61920681863e-07
4.9186597017e-08
-1.86452786436e-09
2.45044140329e-06
-6.52760996545e-09
6.53921076385e-06
-1.24321395501e-08
9.48139451772e-06
-1.82566226325e-08
1.14280088564e-05
-2.31209733564e-08
1.25495602232e-05
-2.65846683208e-08
1.30137757963e-05
-2.85480382951e-08
1.29738077559e-05
-2.91314627264e-08
1.25627908171e-05
-2.85707049719e-08
1.18922602619e-05
-2.71412460095e-08
1.10528267264e-05
-2.51108652119e-08
1.01160688166e-05
-2.27143339259e-08
9.13697985156e-06
-2.0143232914e-08
8.15655746834e-06
-1.75450034153e-08
7.20429434222e-06
-1.50269541189e-08
6.30044008995e-06
-1.26624238602e-08
5.45797644912e-06
-1.04974270467e-08
4.68429243035e-06
-8.55688350624e-09
3.98257216654e-06
-6.85002414182e-09
3.35292210009e-06
-5.37485124104e-09
2.79327018415e-06
-4.12168625381e-09
2.30007101341e-06
-3.07591003887e-09
1.86884927121e-06
-2.22002508228e-09
1.49461085484e-06
-1.53516842961e-09
1.17214739941e-06
-1.00219128303e-09
8.96256149943e-07
-6.02403874617e-10
6.6189355854e-07
-3.18066513068e-10
4.64277723447e-07
-1.32691457496e-10
2.98951940915e-07
-3.12063703025e-11
1.61819196776e-07
4.91553906466e-08
-1.43821230138e-09
2.4518796156e-06
-5.03396103974e-09
6.54280651258e-06
-9.58648678584e-09
9.48594704346e-06
-1.40768741814e-08
1.14324992437e-05
-1.78265348373e-08
1.25533098839e-05
-2.04958676092e-08
1.30164451291e-05
-2.20081395527e-08
1.29753200279e-05
-2.2456309328e-08
1.25632389869e-05
-2.20223003139e-08
1.18918262528e-05
-2.09186423788e-08
1.10517230684e-05
-1.93519012681e-08
1.01145020755e-05
-1.75031630541e-08
9.13513111333e-06
-1.55201826676e-08
8.15457448796e-06
-1.3516653767e-08
7.20229081331e-06
-1.15753011721e-08
6.29849873735e-06
-9.75263659125e-09
5.45615378453e-06
-8.0840874721e-09
4.68262388123e-06
-6.58880600524e-09
3.98107688507e-06
-5.27384274583e-09
3.35160713683e-06
-4.13759088581e-09
2.79213393229e-06
-3.17252607837e-09
2.2991059486e-06
-2.36732251508e-09
1.86804406765e-06
-1.70844496231e-09
1.49395197728e-06
-1.18131613634e-09
1.17162027058e-06
-7.71148996828e-10
8.95845982803e-07
-4.63520218247e-10
6.61585929761e-07
-2.44747489287e-10
4.64058950717e-07
-1.02120721063e-10
2.98809314148e-07
-2.40264738413e-11
1.61741102528e-07
4.91313641726e-08
-1.11013628793e-09
2.45298975188e-06
-3.88624610517e-09
6.54558262239e-06
-7.40135306454e-09
9.48946215041e-06
-1.08687819879e-08
1.14359666727e-05
-1.37646115853e-08
1.25562057135e-05
-1.58265933007e-08
1.30185071108e-05
-1.69953893025e-08
1.29764888238e-05
-1.73426567881e-08
1.25635862543e-05
-1.70087436208e-08
1.18914923397e-05
-1.61576470075e-08
1.10508719718e-05
-1.49487858494e-08
1.01132932143e-05
-1.35219347009e-08
9.13370426217e-06
-1.19911595206e-08
8.15304371277e-06
-1.04442497348e-08
7.20074390352e-06
-8.94510098881e-09
6.2969995886e-06
-7.53738206173e-09
5.4547460656e-06
-6.24849021737e-09
4.68133498938e-06
-5.09326002986e-09
3.97992165488e-06
-4.07718227802e-09
3.35059105908e-06
-3.19906037251e-09
2.79125581038e-06
-2.45312367015e-09
2.2983600119e-06
-1.83065992618e-09
1.8674216039e-06
-1.32124387961e-09
1.49344256124e-06
-9.13638558131e-10
1.17121266526e-06
-5.96438334563e-10
8.95528782578e-07
-3.5851248702e-10
6.61348003913e-07
-1.89297470311e-10
4.63889735701e-07
-7.89764668825e-11
2.98698993144e-07
-1.85764473938e-11
1.61680702508e-07
4.91127877252e-08
-8.56914710257e-10
2.45384666659e-06
-2.99950406753e-09
6.54772521173e-06
-5.71231822444e-09
9.49217496456e-06
-8.3882327022e-09
1.14386425871e-05
-1.06229031612e-08
1.25584403839e-05
-1.22139512202e-08
1.30200981588e-05
-1.3115610577e-08
1.29773904832e-05
-1.33832174136e-08
1.25638538612e-05
-1.31251201713e-08
1.18912342424e-05
-1.24679148079e-08
1.10502147665e-05
-1.15346580672e-08
1.01123599576e-05
-1.04332393834e-08
9.13260284349e-06
-9.25170057147e-09
8.15186217397e-06
-8.05779769924e-09
7.19955000064e-06
-6.90084050819e-09
6.29584263141e-06
-5.81452320793e-09
5.4536597483e-06
-4.81997815225e-09
4.68034044432e-06
-3.92863948719e-09
3.97903031622e-06
-3.14472873532e-09
3.34980714833e-06
-2.4673062404e-09
2.79057838789e-06
-1.89190325038e-09
2.29778460891e-06
-1.41178262598e-09
1.86694148328e-06
-1.01888756045e-09
1.49304966617e-06
-7.04537409361e-10
1.17089831511e-06
-4.5992398145e-10
8.9528416915e-07
-2.76453668002e-10
6.611645336e-07
-1.45972698681e-10
4.63759254732e-07
-6.09053279988e-11
2.98613925772e-07
-1.43283529419e-11
1.61634125534e-07
4.90984593723e-08
-6.61683855155e-10
2.45450835045e-06
-2.31628158271e-09
6.54937980946e-06
-4.41131283973e-09
9.49426999582e-06
-6.47792721405e-09
1.14407092015e-05
-8.20387023189e-09
1.25601663269e-05
-9.43284201648e-09
1.30213271306e-05
-1.01294744428e-08
1.29780871156e-05
-1.03364700839e-08
1.25640608568e-05
-1.01374708673e-08
1.18910352432e-05
-9.63021542882e-09
1.1049707511e-05
-8.90971654051e-09
1.01116394587e-05
-8.05928175993e-09
9.1317524087e-06
-7.14689839772e-09
8.15094979061e-06
-6.22489396646e-09
7.19862799621e-06
-5.33135527253e-09
6.29494909271e-06
-4.49231310455e-09
5.45282070613e-06
-3.72409917988e-09
4.6795722304e-06
-3.03555648276e-09
3.97834177352e-06
-2.42995781506e-09
3.34920154966e-06
-1.90658930127e-09
2.79005501937e-06
-1.46201023282e-09
2.29734002984e-06
-1.09102634667e-09
1.86657049939e-06
-7.87422311798e-10
1.49274606213e-06
-5.44499122619e-10
1.17065539192e-06
-3.55457496282e-10
8.95095127523e-07
-2.13662296861e-10
6.610227384e-07
-1.12816754613e-10
4.63658409189e-07
-4.70694586804e-11
2.98548178476e-07
-1.10721716358e-11
1.61598128247e-07
4.90873872005e-08
-5.10957567587e-10
2.45501930802e-06
-1.78857712758e-09
6.55065742902e-06
-3.4062510132e-09
9.49588766971e-06
-5.00195816077e-09
1.14423049087e-05
-6.33459179888e-09
1.25614989606e-05
-7.28346906385e-09
1.30222760079e-05
-7.82128713903e-09
1.29786249337e-05
-7.98102634391e-09
1.2564220596e-05
-7.82727798389e-09
1.18908814948e-05
-7.43551721799e-09
1.10493157503e-05
-6.87911326936e-09
1.01110830548e-05
-6.22239590249e-09
9.13109569134e-06
-5.51786400566e-09
8.15024525872e-06
-4.80592336001e-09
7.19791605557e-06
-4.11598242841e-09
6.29425915178e-06
-3.46813936602e-09
5.45217286308e-06
-2.87500216907e-09
4.6789790932e-06
-2.34339564282e-09
3.977810167e-06
-1.87584316146e-09
3.34873399718e-06
-1.47178967777e-09
2.78965096589e-06
-1.12857480059e-09
2.29699681496e-06
-8.42184527302e-10
1.86628410912e-06
-6.07816989115e-10
1.4925116946e-06
-4.20297465385e-10
1.1704678724e-06
-2.74374432143e-10
8.9494920449e-07
-1.64923703796e-10
6.60913287672e-07
-8.70828839724e-11
4.6358056837e-07
-3.63338859499e-11
2.98497429479e-07
-8.54748563931e-12
1.61570341846e-07
4.90788397148e-08
-3.94637313077e-10
2.45541394533e-06
-1.38144469826e-09
6.55164423641e-06
-2.63092476749e-09
9.49713714978e-06
-3.86345947846e-09
1.14435374434e-05
-4.89282250091e-09
1.25625283236e-05
-5.62579704922e-09
1.30230089824e-05
-6.04128804665e-09
1.29790404247e-05
-6.16476037035e-09
1.25643440684e-05
-6.04609477729e-09
1.18907628292e-05
-5.74357993794e-09
1.10490132354e-05
-5.31388000712e-09
1.01106533548e-05
-4.80667942997e-09
9.13058849076e-06
-4.26252670771e-09
8.14970110599e-06
-3.71263148555e-09
7.19736616035e-06
-3.17971049726e-09
6.29372623079e-06
-2.6792902019e-09
5.45167244278e-06
-2.2211122297e-09
4.67852091523e-06
-1.81045154654e-09
3.97739950631e-06
-1.44926065741e-09
3.34837280629e-06
-1.13711405148e-09
2.78933881928e-06
-8.71959668028e-10
2.29673166058e-06
-6.50699421687e-10
1.86606284887e-06
-4.69626167937e-10
1.49233062134e-06
-3.2474425133e-10
1.17032299048e-06
-2.11998215329e-10
8.94836458453e-07
-1.27430541719e-10
6.60828719998e-07
-6.72855659868e-11
4.63520423394e-07
-2.80732963042e-11
2.98458217209e-07
-6.60388954523e-12
1.6154887244e-07
4.90722358249e-08
-3.04811531832e-10
2.45571875687e-06
-1.06698696017e-09
6.55240641184e-06
-2.03203371789e-09
9.49810219653e-06
-2.98398699737e-09
1.14444893966e-05
-3.77901349729e-09
1.25633233501e-05
-4.34511739952e-09
1.30235750863e-05
-4.66600717446e-09
1.29793613145e-05
-4.76135236901e-09
1.25644394135e-05
-4.66968023099e-09
1.18906711571e-05
-4.43601177823e-09
1.1048779567e-05
-4.10411314387e-09
1.01103214562e-05
-3.71235943524e-09
9.13019673704e-06
-3.29206930522e-09
8.14928081586e-06
-2.86734819411e-09
7.19694143923e-06
-2.45574166831e-09
6.29331462426e-06
-2.0692415269e-09
5.45128594263e-06
-1.71537133955e-09
4.67816704504e-06
-1.39820459637e-09
3.97708233957e-06
-1.11924851833e-09
3.34809385021e-06
-8.78173596744e-10
2.78909774436e-06
-6.73394047214e-10
2.29652688103e-06
-5.02516268432e-10
1.86589197109e-06
-3.62676352506e-10
1.49219078143e-06
-2.50787704244e-10
1.17021110183e-06
-1.63717683201e-10
8.94749388432e-07
-9.84094364096e-11
6.6076341175e-07
-5.19621364526e-11
4.63473976093e-07
-2.16802560129e-11
2.98427935329e-07
-5.1001754871e-12
1.61532292359e-07
4.90671356492e-08
-2.35454449717e-10
2.45595421131e-06
-8.24214129367e-10
6.55299517151e-06
-1.56969216112e-09
9.49884767456e-06
-2.30506174383e-09
1.14452247662e-05
-2.91921561535e-09
1.2563937504e-05
-3.35653797644e-09
1.30240124087e-05
-3.60444213726e-09
1.29796092186e-05
-3.67811985615e-09
1.25645130912e-05
-3.60733000092e-09
1.18906003672e-05
-3.42684809878e-09
1.1048599085e-05
-3.17048091876e-09
1.0110065089e-05
-2.86787146222e-09
9.12989412758e-06
-2.5432123907e-09
8.14895615678e-06
-2.21512482439e-09
7.19661335166e-06
-1.89716290773e-09
6.29299666234e-06
-1.5985908653e-09
5.45098737059e-06
-1.32522144667e-09
4.67789367562e-06
-1.08020234356e-09
3.97683732046e-06
-8.64698821428e-10
3.34787834669e-06
-6.78457236384e-10
2.78891150277e-06
-5.20253366841e-10
2.29636867716e-06
-3.88238838795e-10
1.86575995656e-06
-2.80201817546e-10
1.49208274441e-06
-1.93758313338e-10
1.17012465832e-06
-1.26488630091e-10
8.94682118748e-07
-7.60315028495e-11
6.60712954622e-07
-4.01461003896e-11
4.63438090691e-07
-1.6750109143e-11
2.98404539338e-07
-3.94030514266e-12
1.61519482554e-07
4.9063195344e-08
-1.81885222391e-10