/*--------------------------------*- C++ -*----------------------------------*\
  =========                 |
  \\      /  F ield         | OpenFOAM: The Open Source CFD Toolbox
   \\    /   O peration     | Website:  https://openfoam.org
    \\  /    A nd           | Version:  12
     \\/     M anipulation  |
\*---------------------------------------------------------------------------*/
FoamFile
{
    format      ascii;
    class       volVectorField;
    location    "700";
    object      U;
}
// * * * * * * * * * * * * * * * * * * * * * * * * * * * * * * * * * * * * * //

dimensions      [0 1 -1 0 0 0 0];

internalField   nonuniform List<vector> 
3000
(
(1.15245022825 -0.0099657266895 -1.25145314807e-10)
(1.1531843931 -0.0254593816205 -1.71540163631e-10)
(1.15521493869 -0.0400104132726 -1.51008729454e-10)
(1.15799850263 -0.0540946049174 -1.2671714511e-10)
(1.16102965217 -0.0671659932753 -1.07136190439e-10)
(1.16374798762 -0.0791823805374 -9.22462259987e-11)
(1.1655079644 -0.090119600918 -8.09777378803e-11)
(1.16556702701 -0.0999052700137 -7.22292544852e-11)
(1.16310911788 -0.108434895289 -6.507506379e-11)
(1.15729346337 -0.115593397327 -5.92887013788e-11)
(1.14731465183 -0.121273039665 -5.40970859005e-11)
(1.13246101276 -0.12538830861 -4.95057445171e-11)
(1.11216139123 -0.127886760907 -4.52535752414e-11)
(1.08601471329 -0.128755068518 -4.12043724615e-11)
(1.05380110814 -0.1280203573 -3.76849750364e-11)
(1.01547676629 -0.125747601575 -3.41049516567e-11)
(0.971156692849 -0.122034181234 -3.07464658523e-11)
(0.921090107872 -0.117002783038 -2.75137078997e-11)
(0.86563282051 -0.110793709833 -2.41741997738e-11)
(0.805219919109 -0.103557434519 -2.10835812258e-11)
(0.74034096986 -0.0954479726284 -1.85458574826e-11)
(0.671518868513 -0.0866173895767 -1.60394404789e-11)
(0.599292677441 -0.0772115154904 -1.34540238653e-11)
(0.524204237 -0.0673667917988 -1.12429742926e-11)
(0.446788042933 -0.057208438774 -9.20532008558e-12)
(0.367563781669 -0.0468507278639 -7.21161731155e-12)
(0.28703092407 -0.0363978212632 -5.34587752535e-12)
(0.205664734875 -0.025932841631 -3.64401321107e-12)
(0.123912980745 -0.0154879035796 -2.07129883915e-12)
(0.0421933805568 -0.00507603815878 -6.82402351586e-13)
(1.43177242725 -0.00537614417413 -1.236663973e-10)
(1.43345702737 -0.0129893777945 -2.20157159555e-10)
(1.436613237 -0.0188406786069 -2.28277547996e-10)
(1.44000298986 -0.0247405357688 -2.11539433212e-10)
(1.44220239704 -0.0302873636664 -1.89664916349e-10)
(1.44162317259 -0.0352246141729 -1.68723557018e-10)
(1.43660007046 -0.0393589259707 -1.50377448872e-10)
(1.42552380945 -0.0425383375016 -1.34556690143e-10)
(1.40699647029 -0.0446607480369 -1.20803721422e-10)
(1.37997485154 -0.0456837094949 -1.08819838714e-10)
(1.34387229028 -0.0456265504704 -9.80090178199e-11)
(1.2986027087 -0.0445653247458 -8.82719739078e-11)
(1.24456512043 -0.0426222396799 -7.93055609892e-11)
(1.18257830389 -0.0399517625752 -7.10582756557e-11)
(1.11378194841 -0.0367257597291 -6.35166668879e-11)
(1.03952231691 -0.0331196724759 -5.64683566077e-11)
(0.961238538847 -0.0293010884157 -4.99512489316e-11)
(0.880361627902 -0.0254213672885 -4.3928184548e-11)
(0.798233644267 -0.0216103901441 -3.8317768095e-11)
(0.716050098127 -0.017974090798 -3.31972766981e-11)
(0.634825273665 -0.0145942076124 -2.85720363739e-11)
(0.555377825223 -0.011529630214 -2.43087182302e-11)
(0.478332701748 -0.00881876217653 -2.03785596751e-11)
(0.404135002896 -0.00648241377438 -1.68160545836e-11)
(0.333071529359 -0.00452679782452 -1.35571069819e-11)
(0.265296339517 -0.00294626925554 -1.05714905261e-11)
(0.200857370076 -0.00172607906053 -7.84243608332e-12)
(0.139721933889 -0.000846912497168 -5.35021900405e-12)
(0.0817995352414 -0.000290979619388 -3.07115511654e-12)
(0.0269611717853 -2.43553782637e-05 -9.87195341534e-13)
(1.55140256877 -0.0045190181778 -1.16127125924e-10)
(1.55105663338 -0.0119696980448 -2.25338490899e-10)
(1.54926982993 -0.0188790972513 -2.54605998728e-10)
(1.54435396958 -0.0248838665887 -2.50130528677e-10)
(1.53429242858 -0.0295706849509 -2.32362697539e-10)
(1.51708290802 -0.0329008040294 -2.10597913347e-10)
(1.49102275519 -0.0349014741105 -1.8888514548e-10)
(1.45494389861 -0.0356418802492 -1.68693286257e-10)
(1.40836587607 -0.0352424320794 -1.50358197312e-10)
(1.35154406136 -0.0338712849871 -1.33989569054e-10)
(1.28541268586 -0.0317299081404 -1.19200709211e-10)
(1.21144418348 -0.0290341408475 -1.05959707709e-10)
(1.13145971468 -0.0259952981121 -9.39824319396e-11)
(1.04742841826 -0.0228045351176 -8.32023632425e-11)
(0.961286911947 -0.0196222695558 -7.34944383207e-11)
(0.874799585458 -0.0165730515939 -6.46919293478e-11)
(0.789468216365 -0.0137452032355 -5.67420936678e-11)
(0.706489304271 -0.0111939671769 -4.95510671511e-11)
(0.626750787749 -0.00894676271498 -4.30201866792e-11)
(0.550856702946 -0.00700930427181 -3.71277788133e-11)
(0.479168208923 -0.00537164643388 -3.18158383403e-11)
(0.411851190128 -0.00401355954333 -2.69877988494e-11)
(0.348923302179 -0.00290893817891 -2.25959654743e-11)
(0.290296042327 -0.00202916359994 -1.86137098411e-11)
(0.235809712272 -0.00134546934215 -1.49880005213e-11)
(0.185260798084 -0.000830447571866 -1.16819301882e-11)
(0.138422324267 -0.000459047702426 -8.66569862188e-12)
(0.0950582654446 -0.000209634210717 -5.91172507655e-12)
(0.0549332709481 -6.44443617265e-05 -3.39405520883e-12)
(0.0178188688211 -1.77571337054e-06 -1.09065321508e-12)
(1.67590468967 -0.0028054196011 -9.20099144018e-11)
(1.67253281981 -0.00678341669702 -1.9119744772e-10)
(1.66442873051 -0.00968513000995 -2.29905535517e-10)
(1.65008776791 -0.0120666850044 -2.37069591871e-10)
(1.62768952478 -0.0137120895769 -2.28071836985e-10)
(1.5957569054 -0.0145696490681 -2.11567363766e-10)
(1.55347620734 -0.0146752521983 -1.92431950584e-10)
(1.50083666428 -0.0141286890592 -1.73087106927e-10)
(1.43860578981 -0.0130733935605 -1.54682363329e-10)
(1.36817412021 -0.0116730542751 -1.37710676399e-10)
(1.29132419586 -0.0100887783108 -1.22228355863e-10)
(1.20998425883 -0.00846129779381 -1.08275315256e-10)
(1.12601621218 -0.00690031784136 -9.57183993848e-11)
(1.04106668536 -0.00548096511922 -8.4462413567e-11)
(0.956488190563 -0.00424585841483 -7.43740799727e-11)
(0.873320796909 -0.0032106992093 -6.53171769142e-11)
(0.792316182676 -0.00237134543729 -5.71844201556e-11)
(0.713984650256 -0.00171080736084 -4.98690804536e-11)
(0.638649160438 -0.00120521106464 -4.32782295933e-11)
(0.566495830761 -0.000828319442016 -3.73362523214e-11)
(0.497615534096 -0.000554592062382 -3.19693093461e-11)
(0.432035131783 -0.000360991400193 -2.71085712281e-11)
(0.369739232105 -0.000227834500906 -2.26992733972e-11)
(0.310684425401 -0.000138991841203 -1.86941202317e-11)
(0.254808137596 -8.16893034446e-05 -1.5051134597e-11)
(0.202033967144 -4.60982142967e-05 -1.1731496411e-11)
(0.152274919609 -2.4820808767e-05 -8.70325502306e-12)
(0.105435504139 -1.23805669177e-05 -5.93766706441e-12)
(0.0614132874073 -5.02140843337e-06 -3.40927236985e-12)
(0.0201002234099 -1.33494030706e-06 -1.09556403985e-12)
(1.74792776265 -0.00234417101914 -7.85376768104e-11)
(1.74084249515 -0.00598075187237 -1.66402082024e-10)
(1.72511101367 -0.0089489865488 -2.05981246225e-10)
(1.70013643162 -0.0112419521262 -2.18187587688e-10)
(1.66495726442 -0.0126838488656 -2.14525803194e-10)
(1.61910610937 -0.0133268646801 -2.02351794541e-10)
(1.56285000022 -0.0132964594214 -1.862735097e-10)
(1.49717181196 -0.0127468555094 -1.68934735051e-10)
(1.42359454894 -0.0118375730362 -1.51782584743e-10)
(1.34393867836 -0.0107147462902 -1.35588714547e-10)
(1.26008742477 -0.00949855143804 -1.20606295292e-10)
(1.17380716758 -0.00827815665581 -1.06989251118e-10)
(1.08663946496 -0.00711292049072 -9.46669188567e-11)
(0.999857772222 -0.0060374041865 -8.3589605343e-11)
(0.914470022655 -0.00506782324295 -7.36440971119e-11)
(0.831246599563 -0.00420822139471 -6.47039813693e-11)
(0.750757653229 -0.00345544809526 -5.66702852312e-11)
(0.673409965593 -0.00280267767858 -4.94369535671e-11)
(0.599478930671 -0.0022416168534 -4.29113335738e-11)
(0.529134679978 -0.00176372360768 -3.702476299e-11)
(0.462463057744 -0.00136077832675 -3.1707322516e-11)
(0.399482623394 -0.00102508511096 -2.68903516555e-11)
(0.340158726695 -0.000749495260554 -2.25168200143e-11)
(0.28441537923 -0.000527366299792 -1.8546095136e-11)
(0.232145351919 -0.000352508903823 -1.49318355443e-11)
(0.183218735975 -0.000219140766584 -1.16386472749e-11)
(0.137490109942 -0.000121894893818 -8.63428906296e-12)
(0.0948044260962 -5.59832191248e-05 -5.89058051318e-12)
(0.0550017343963 -1.73141632631e-05 -3.38218390916e-12)
(0.0179208779325 -5.42331952526e-07 -1.08686646256e-12)
(1.81040728216 -0.0016126979101 -6.3531363517e-11)
(1.79984044446 -0.00394800136483 -1.39075690911e-10)
(1.77739623382 -0.00559988390865 -1.76925391746e-10)
(1.74370712177 -0.00676866220639 -1.91749521126e-10)
(1.6988675331 -0.00737970240976 -1.92182623407e-10)
(1.64339386919 -0.00749713670953 -1.84136469869e-10)
(1.57836548997 -0.00723070270505 -1.71635970157e-10)
(1.50531639211 -0.00669954554752 -1.57198891956e-10)
(1.42602987218 -0.00601291307053 -1.4233136052e-10)
(1.34233134091 -0.00525953643949 -1.27901697948e-10)
(1.25593063197 -0.00450407447993 -1.14307331676e-10)
(1.16832858587 -0.00378877714114 -1.0176675764e-10)
(1.08077949429 -0.00313784180253 -9.0307408226e-11)
(0.994291788916 -0.00256239478168 -7.99190993734e-11)
(0.909649837909 -0.00206489354854 -7.05299903e-11)
(0.827444434855 -0.00164249355669 -6.20538885599e-11)
(0.748104658476 -0.0012893882618 -5.44017038194e-11)
(0.671927523597 -0.000998333449655 -4.74986657103e-11)
(0.599104037869 -0.000761600091912 -4.12567779335e-11)
(0.529741360267 -0.000571555080391 -3.5615699945e-11)
(0.463881225181 -0.000421006756237 -3.05096708859e-11)
(0.401514984607 -0.000303400359074 -2.58793281774e-11)
(0.342595697371 -0.000212914400171 -2.16749483561e-11)
(0.287047718659 -0.000144489500576 -1.78537516888e-11)
(0.234774233992 -9.38101869565e-05 -1.43755634671e-11)
(0.18566314656 -5.72524367408e-05 -1.12052325639e-11)
(0.139591673591 -3.18102420165e-05 -8.31365880843e-12)
(0.0964299453659 -1.50417096308e-05 -5.67187590953e-12)
(0.0560438393674 -5.09176317476e-06 -3.25665156672e-12)
(0.0182972247182 -5.66355520667e-07 -1.04651621715e-12)
(1.85301617457 -0.0012791305779 -5.28203007909e-11)
(1.83937953947 -0.003198747007 -1.17481478199e-10)
(1.81111624889 -0.00463366782262 -1.52102312141e-10)
(1.77013604943 -0.00565016745131 -1.67522189765e-10)
(1.7175351895 -0.00619676276509 -1.70315281632e-10)
(1.65461180259 -0.00634363279498 -1.65223950231e-10)
(1.58296538753 -0.0061889240601 -1.55644578731e-10)
(1.50439036154 -0.00582802944098 -1.43820461759e-10)
(1.42071935689 -0.00534199487397 -1.31173878039e-10)
(1.33368895923 -0.00479360892539 -1.18578858217e-10)
(1.24485324053 -0.00422787867075 -1.06486191912e-10)
(1.15554337384 -0.00367487780854 -9.51673840299e-11)
(1.0668607251 -0.00315328724931 -8.47067824885e-11)
(0.979689917268 -0.00267364487275 -7.51362883422e-11)
(0.894721620448 -0.00224093308605 -6.64266924002e-11)
(0.812478620188 -0.00185648245225 -5.8521228782e-11)
(0.733341621216 -0.00151930919421 -5.13591677125e-11)
(0.657573072444 -0.00122702919888 -4.48737403974e-11)
(0.58533833348 -0.000976470613513 -3.90006050969e-11)
(0.51672404692 -0.000764077177807 -3.36820727678e-11)
(0.451753848028 -0.000586168489071 -2.88631559568e-11)
(0.39040165834 -0.000439103975472 -2.44875077433e-11)
(0.332602844119 -0.000319383342809 -2.05114880372e-11)
(0.27826351413 -0.000223705652235 -1.68966399832e-11)
(0.227268208197 -0.000149000011156 -1.3605772922e-11)
(0.179486201258 -9.24358228796e-05 -1.06059041566e-11)
(0.134776622472 -5.14349574038e-05 -7.86856942065e-12)
(0.0929925661796 -2.37350664694e-05 -5.36833065835e-12)
(0.0539843521934 -7.44764371754e-06 -3.08238475392e-12)
(0.0176020750967 -3.2942977881e-07 -9.90522156328e-13)
(1.88686414222 -0.000923019922264 -4.31194373501e-11)
(1.87081410693 -0.0022695799078 -9.80173867253e-11)
(1.83808754689 -0.00321489156147 -1.29204962692e-10)
(1.79168400113 -0.00385898780884 -1.44452590902e-10)
(1.73349552411 -0.00417718845351 -1.48753288333e-10)
(1.66537413973 -0.00422483303275 -1.45914175635e-10)
(1.58923818872 -0.00407361775235 -1.38760573121e-10)
(1.50700887686 -0.00379058101388 -1.29244029894e-10)
(1.42051459768 -0.0034311057403 -1.1867370452e-10)
(1.33141446965 -0.0030373672915 -1.07854962907e-10)
(1.2411544531 -0.00263935147501 -9.72887338372e-11)
(1.15095244093 -0.00225700383221 -8.7253022928e-11)
(1.06180367446 -0.00190257014417 -7.78826491231e-11)
(0.974498278036 -0.00158267185492 -6.92262415326e-11)
(0.889644801759 -0.00129997995714 -6.12980212516e-11)
(0.807695723852 -0.00105449920986 -5.40693505842e-11)
(0.728972433 -0.000844523698117 -4.74957079101e-11)
(0.653688291589 -0.000667331246917 -4.15267511398e-11)
(0.581969098546 -0.000519676359249 -3.61092927812e-11)
(0.513870731579 -0.00039813046677 -3.11960459048e-11)
(0.449394032311 -0.000299308127647 -2.67382022123e-11)
(0.388497158163 -0.000220009319658 -2.26896491361e-11)
(0.331105702306 -0.000157301191137 -1.90091408247e-11)
(0.27712090506 -0.000108557139692 -1.56610767801e-11)
(0.226426268463 -7.14660669067e-05 -1.26115273401e-11)
(0.178892855721 -4.4020489459e-05 -9.83174195582e-12)
(0.134383519211 -2.44954197475e-05 -7.29406088289e-12)
(0.0927562608603 -1.14461425201e-05 -4.97648134841e-12)
(0.0538668922629 -3.73247096477e-06 -2.85746762327e-12)
(0.0175711290281 -2.9207420709e-07 -9.18302132707e-13)
(1.91127593686 -0.000711826769763 -3.5634022688e-11)
(1.89335118498 -0.00176769782853 -8.21793723461e-11)
(1.85717118114 -0.00253337108056 -1.09871749722e-10)
(1.80660296551 -0.00306347965155 -1.2432777708e-10)
(1.74414679956 -0.00333801462095 -1.29381179476e-10)
(1.67205409875 -0.0034005107773 -1.28074432185e-10)
(1.5924601594 -0.00330594389415 -1.22751217623e-10)
(1.50736750205 -0.00310503350696 -1.15091373236e-10)
(1.41859925171 -0.0028396914959 -1.06240845835e-10)
(1.32776220672 -0.00254219551593 -9.7007555314e-11)
(1.23622984057 -0.00223594594067 -8.78202784885e-11)
(1.1451435471 -0.00193693582085 -7.89909212769e-11)
(1.05542679586 -0.00165537407279 -7.06636639455e-11)
(0.9678068003 -0.00139716968871 -6.29251626436e-11)
(0.882839453225 -0.00116516677119 -5.57978798649e-11)
(0.800934617206 -0.000960113815294 -4.92688826951e-11)
(0.722380000451 -0.000781392086002 -4.33129724927e-11)
(0.647362696321 -0.000627543350213 -3.78920650141e-11)
(0.575988036038 -0.000496639747564 -3.2963295454e-11)
(0.508295751589 -0.000386534791273 -2.84867774175e-11)
(0.444273633411 -0.000295028049083 -2.44215633273e-11)
(0.38386895045 -0.000219969087102 -2.07265464806e-11)
(0.326997922168 -0.000159319895072 -1.73659520734e-11)
(0.273553520909 -0.000111189510207 -1.43081577152e-11)
(0.223411857331 -7.38495509287e-05 -1.15228775779e-11)
(0.176437371569 -4.57361856913e-05 -8.98268689959e-12)
(0.132487023258 -2.54501248345e-05 -6.66453444408e-12)
(0.0914136458487 -1.1780292276e-05 -4.5469832555e-12)
(0.0530686068296 -3.73202914982e-06 -2.61084761388e-12)
(0.0173038939904 -1.97106549325e-07 -8.3909937886e-13)
(1.93016028803 -0.000528712753071 -2.93193780352e-11)
(1.91083004248 -0.0013039459183 -6.86963000659e-11)
(1.87207502395 -0.00185306589042 -9.30761528347e-11)
(1.81841830883 -0.0022290790798 -1.06508838606e-10)
(1.7528119715 -0.00241865440335 -1.11879220343e-10)
(1.67779942768 -0.00245387553577 -1.11629915997e-10)
(1.59567387698 -0.0023751335123 -1.07706063354e-10)
(1.508498362 -0.00221979226699 -1.01547708797e-10)
(1.41809422545 -0.0020188117056 -9.41782941748e-11)
(1.32603140358 -0.00179606363439 -8.63005698377e-11)
(1.23363004717 -0.00156882319852 -7.83574649772e-11)
(1.14197338586 -0.00134881932752 -7.06415099862e-11)
(1.05192853203 -0.00114342985477 -6.33108464525e-11)
(0.964171536704 -0.000956792169324 -5.64572548027e-11)
(0.879213708453 -0.000790735671031 -5.01187569709e-11)
(0.797427144817 -0.000645517320376 -4.42887993219e-11)
(0.71906826221 -0.000520376822146 -3.89594670851e-11)
(0.644298731757 -0.000413941287679 -3.40974453207e-11)
(0.573203645736 -0.000324511208427 -2.96747029418e-11)
(0.505806992354 -0.000250256342433 -2.56515396593e-11)
(0.442084654806 -0.000189345091084 -2.19956458243e-11)
(0.381975212774 -0.000140025868949 -1.86688162937e-11)
(0.325388841013 -0.00010067457777 -1.56426778153e-11)
(0.272214588487 -6.98186492826e-05 -1.28882596865e-11)
(0.222326296374 -4.61448386814e-05 -1.0379336091e-11)
(0.175587382383 -2.84955032152e-05 -8.09149723959e-12)
(0.131854686869 -1.58608759931e-05 -6.00341723096e-12)
(0.0909815456 -7.38463001277e-06 -4.09593160673e-12)
(0.0528202270973 -2.38065576059e-06 -2.35183278516e-12)
(0.0172238485785 -1.61991795698e-07 -7.55758955896e-13)
(1.94422567196 -0.000405976532733 -2.42977249752e-11)
(1.92382929523 -0.00100589989445 -5.76269200679e-11)
(1.88311640862 -0.00143808070864 -7.89544221836e-11)
(1.82710557021 -0.00173709627952 -9.11680433233e-11)
(1.75908960622 -0.00189168717197 -9.65055501662e-11)
(1.6818328367 -0.00192621801986 -9.69209278821e-11)
(1.59774937627 -0.00187155551564 -9.40264370201e-11)
(1.50895015405 -0.00175634197031 -8.90510188367e-11)
(1.41725696916 -0.00160441129637 -8.28896611336e-11)
(1.32421302301 -0.00143423279921 -7.61913647706e-11)
(1.23109882798 -0.00125925114238 -6.93493801677e-11)
(1.13895428986 -0.00108866774874 -6.26390948873e-11)
(1.04860491866 -0.000928345845818 -5.62246867813e-11)
(0.960689651014 -0.000781657920773 -5.01952335546e-11)
(0.875688230079 -0.000650199176876 -4.45965663903e-11)
(0.793946777552 -0.000534350188753 -3.94368465771e-11)
(0.715700815232 -0.000433700487451 -3.47081883643e-11)
(0.641095451595 -0.000347355899034 -3.03894606927e-11)
(0.57020274791 -0.000274154468961 -2.64530912533e-11)
(0.50303644952 -0.000212813520214 -2.28709399929e-11)
(0.439564350662 -0.00016202650917 -1.96131200812e-11)
(0.379718587378 -0.000120524270524 -1.66492590901e-11)
(0.32340414752 -8.71116276564e-05 -1.39519694489e-11)
(0.270505864144 -6.06872880457e-05 -1.14964585002e-11)
(0.220894129052 -4.02521858498e-05 -9.25916207843e-12)
(0.174429532654 -2.49095940219e-05 -7.21827326761e-12)
(0.13096660735 -1.38633846695e-05 -5.35559204923e-12)
(0.0903568248786 -6.42875597448e-06 -3.65398619321e-12)
(0.0524509752129 -2.04756059255e-06 -2.0981143253e-12)
(0.0171010342579 -1.17619039918e-07 -6.74332853592e-13)
(1.95505542805 -0.000307250182944 -2.01388967124e-11)
(1.93385449382 -0.000759083476786 -4.8330916806e-11)
(1.89166436149 -0.00108155459609 -6.69024902583e-11)
(1.83387676666 -0.00130380592705 -7.78688650443e-11)
(1.76404184823 -0.00141750412823 -8.29890814665e-11)
(1.68509178264 -0.00144095160935 -8.38127553655e-11)
(1.5995333806 -0.0013974286423 -8.16849418344e-11)
(1.50951483782 -0.00130860185826 -7.76561662276e-11)
(1.41685887104 -0.00119251983848 -7.2509416993e-11)
(1.32308857036 -0.00106316123753 -6.68075841638e-11)
(1.22945421445 -0.000930681977886 -6.09235473335e-11)
(1.13696238916 -0.000802007455376 -5.51124728805e-11)
(1.04640630105 -0.000681521786756 -4.95285794193e-11)
(0.958395693526 -0.000571713561718 -4.42605775704e-11)
(0.873385059509 -0.000473719452716 -3.93594045706e-11)
(0.791699322291 -0.000387753181216 -3.48261698024e-11)
(0.713556593605 -0.000313429077103 -3.06642638059e-11)
(0.63908793607 -0.000249997652639 -2.68564050439e-11)
(0.568354261231 -0.000196511887481 -2.33853220818e-11)
(0.501360606839 -0.00015194105194 -2.02215470827e-11)
(0.438068086693 -0.000115245942764 -1.73428419259e-11)
(0.378403815747 -8.54264027586e-05 -1.47224303193e-11)
(0.322269100178 -6.15493801686e-05 -1.23372678039e-11)
(0.269546156419 -4.27635987406e-05 -1.01661524282e-11)
(0.220103592706 -2.83049370979e-05 -8.18692712281e-12)
(0.173800855734 -1.74952011782e-05 -6.3823279137e-12)
(0.130491815825 -9.7388496198e-06 -4.7356883617e-12)
(0.0900276370691 -4.52808495478e-06 -3.23106580075e-12)
(0.0522590558828 -1.45344659761e-06 -1.85525355136e-12)
(0.0170381711357 -9.3256827628e-08 -5.96185031801e-13)
(1.96327005085 -0.000236244714567 -1.67537948094e-11)
(1.94145485484 -0.00058484532171 -4.06098061512e-11)
(1.89813489489 -0.000835507495972 -5.66562260022e-11)
(1.83898594466 -0.00100905812947 -6.64539064823e-11)
(1.76775462595 -0.00109880275603 -7.12299930352e-11)
(1.68750182587 -0.00111874724179 -7.22744057393e-11)
(1.6008057815 -0.00108676689322 -7.07096688135e-11)
(1.50984364426 -0.00101951621745 -6.74319917448e-11)
(1.41643914098 -0.000930887040483 -6.31214221203e-11)
(1.32210019151 -0.000831657704562 -5.82735544763e-11)
(1.22805414491 -0.000729678218383 -5.32251129354e-11)
(1.13528235109 -0.000630321111688 -4.82082539676e-11)
(1.0445536635 -0.00053700800493 -4.33638017978e-11)
(0.956455981808 -0.000451703806798 -3.87789713682e-11)
(0.871425096428 -0.000375333149646 -3.44972743503e-11)
(0.789770417168 -0.000308109097311 -3.05370587413e-11)
(0.711697470756 -0.000249780954866 -2.68956022212e-11)
(0.637327268186 -0.000199814448314 -2.35612577562e-11)
(0.566712776364 -0.000157518661108 -2.05190589454e-11)
(0.49985279406 -0.000122132759759 -1.7746511844e-11)
(0.436703552071 -9.28832886509e-05 -1.52225787406e-11)
(0.37718834868 -6.90204742586e-05 -1.2923335464e-11)
(0.321205508144 -4.98399137433e-05 -1.08301619475e-11)
(0.268634919087 -3.4694281648e-05 -8.92389154299e-12)
(0.219343377284 -2.29981144312e-05 -7.18727217957e-12)
(0.173188926435 -1.42276565488e-05 -5.60327473944e-12)
(0.130024362387 -7.91943150948e-06 -4.15739209135e-12)
(0.0897000407834 -3.67581299037e-06 -2.83647561638e-12)
(0.0520661066071 -1.17380406331e-06 -1.62867405017e-12)
(0.0169742451196 -7.0019519954e-08 -5.23371876854e-13)
(1.96959592384 -0.000180608032961 -1.39563119963e-11)
(1.9473117653 -0.00044654746546 -3.41531175703e-11)
(1.90312925298 -0.000636984194109 -4.79896865823e-11)
(1.84294092033 -0.000768603080117 -5.66570180628e-11)
(1.77064354489 -0.000836345311086 -6.10224339728e-11)
(1.68939656862 -0.000850894536784 -6.21622091447e-11)
(1.60183302723 -0.000825899153094 -6.10116015848e-11)
(1.51015235678 -0.000774085208084 -5.83345198234e-11)
(1.41617914379 -0.000706069495365 -5.47188752765e-11)
(1.32140974047 -0.000630086807744 -5.05993108257e-11)
(1.22705393645 -0.000552130171868 -4.62753687668e-11)
(1.13407368936 -0.000476295600381 -4.19552850737e-11)
(1.04321905513 -0.000405185117344 -3.77679039765e-11)
(0.955060971022 -0.000340285085956 -3.37936697931e-11)
(0.870020592464 -0.000282285093632 -3.00746423928e-11)
(0.788395081228 -0.000231329820029 -2.66305421472e-11)
(0.710379937327 -0.000187209142581 -2.3460325653e-11)
(0.636088102622 -0.000149496607662 -2.05554053544e-11)
(0.565566142624 -0.000117647205526 -1.79037197522e-11)
(0.498807843781 -9.10643305646e-05 -1.54860792581e-11)
(0.435765562889 -6.91440932012e-05 -1.32841663013e-11)
(0.376359645271 -5.13033876694e-05 -1.12786855589e-11)
(0.320486199354 -3.69965747656e-05 -9.45232735938e-12)
(0.268023481893 -2.57243421497e-05 -7.78872936163e-12)
(0.218837114819 -1.70371310444e-05 -6.27313198269e-12)
(0.172784323619 -1.05346896646e-05 -4.89065632089e-12)
(0.12971735917 -5.86448693525e-06 -3.62868507385e-12)
(0.0894862398202 -2.7252072884e-06 -2.47576309598e-12)
(0.0519409292534 -8.73215281923e-07 -1.42156001852e-12)
(0.0169330471233 -5.46444790605e-08 -4.56816360915e-13)
(1.97443803264 -0.000139078671583 -1.16570479629e-11)
(1.95179373134 -0.000344163851716 -2.8764245578e-11)
(1.90694839793 -0.000491484017208 -4.07254445752e-11)
(1.84596089811 -0.000593494549897 -4.82625357046e-11)
(1.77284331507 -0.0006462352034 -5.21791005811e-11)
(1.69083082473 -0.000657920600585 -5.33335733859e-11)
(1.60259861182 -0.00063905403418 -5.247488702e-11)
(1.51036329154 -0.000599430898048 -5.02963539064e-11)
(1.41595017012 -0.000547226877416 -4.72600373184e-11)
(1.32084677204 -0.000488788250362 -4.37602340247e-11)
(1.22624946147 -0.000428738858709 -4.00659808725e-11)
(1.13310537736 -0.000370244245738 -3.63570508388e-11)
(1.04215023841 -0.000315320857936 -3.27499817023e-11)
(0.953942084554 -0.000265126547077 -2.93178159925e-11)
(0.868890991002 -0.000220205566836 -2.6101514589e-11)
(0.787284893546 -0.000180682130372 -2.31191307386e-11)
(0.709311778564 -0.000146406488537 -2.03713358102e-11)
(0.635078566344 -0.000117061281948 -1.78520621161e-11)
(0.564627053151 -9.2236582949e-05 -1.55494800438e-11)
(0.497947281018 -7.14812536441e-05 -1.3448655301e-11)
(0.434988686657 -5.4336932299e-05 -1.15375690264e-11)
(0.37566935091 -4.03595965083e-05 -9.79634368581e-12)
(0.319883635649 -2.91324492993e-05 -8.21068170038e-12)
(0.267508458965 -2.02728611283e-05 -6.76639756025e-12)
(0.21840842524 -1.34351828434e-05 -5.45004636007e-12)
(0.172439995577 -8.31061033393e-06 -4.24889199119e-12)
(0.129454856564 -4.62624600362e-06 -3.15249052069e-12)
(0.0893026208073 -2.14821636854e-06 -2.15085755232e-12)
(0.0518329721097 -6.86815035634e-07 -1.23500016716e-12)
(0.0168973502179 -4.16537429649e-08 -3.96865226258e-13)
(1.9781696818 -0.000106858719057 -9.73928753476e-12)
(1.95524878508 -0.000264286197083 -2.42183667596e-11)
(1.90989444944 -0.00037716429079 -3.44506737122e-11)
(1.84829330814 -0.000455261859046 -4.10680937084e-11)
(1.7745460221 -0.000495554959386 -4.45644439897e-11)
(1.69194595768 -0.000504351225536 -4.56770134814e-11)
(1.60320069501 -0.000489716270387 -4.50564802441e-11)
(1.51054006385 -0.000459173483743 -4.32525211112e-11)
(1.41578993828 -0.000419002285264 -4.07018269329e-11)
(1.32043106934 -0.000374076284773 -3.77327085242e-11)
(1.22564950375 -0.000327945257675 -3.4577190614e-11)
(1.13238097554 -0.000283038080998 -3.1397733683e-11)
(1.04135014729 -0.000240900344003 -2.82978799008e-11)
(0.953105086802 -0.000202417600671 -2.53431526827e-11)
(0.868047273267 -0.000168003674611 -2.25690865362e-11)
(0.786457457117 -0.00013774947276 -1.99952944879e-11)
(0.708517749842 -0.000111535357285 -1.7621823548e-11)
(0.634330348076 -8.91130253333e-05 -1.54444560374e-11)
(0.563933300877 -7.01633432834e-05 -1.3454496622e-11)
(0.497313712019 -5.43359709626e-05 -1.16392162538e-11)
(0.434418739141 -4.12756039607e-05 -9.98532313211e-12)
(0.375164714649 -3.06386222259e-05 -8.47824107501e-12)
(0.31944467507 -2.21030186585e-05 -7.10560671798e-12)
(0.267134547855 -1.53737119879e-05 -5.85507678319e-12)
(0.218098209708 -1.01846510957e-05 -4.7158800761e-12)
(0.172191599344 -6.29862896238e-06 -3.67664131413e-12)
(0.129266040257 -3.50643728699e-06 -2.72794560857e-12)
(0.0891709048088 -1.62906890774e-06 -1.86121321835e-12)
(0.0517557306912 -5.21608693437e-07 -1.06869155062e-12)
(0.0168718831595 -3.22949167981e-08 -3.43422245702e-13)
(1.98103873853 -8.23776297519e-05 -8.1443344227e-12)
(1.95790485268 -0.000203813402829 -2.038573253e-11)
(1.91215847603 -0.000291000043489 -2.92056474515e-11)
(1.850084611 -0.00035136992725 -3.49123323876e-11)
(1.77585211882 -0.000382576406565 -3.80147924646e-11)
(1.69279917038 -0.000389479508722 -3.90620593367e-11)
(1.60365829318 -0.000378295287403 -3.86064502434e-11)
(1.51066949996 -0.000354822030359 -3.71181879241e-11)
(1.41565911339 -0.000323900101009 -3.4971802533e-11)
(1.32010268291 -0.000289287416481 -3.24515411991e-11)
(1.22517832764 -0.000253722448449 -2.97593483191e-11)
(1.13181302136 -0.000219080334625 -2.70379091885e-11)
(1.04072294146 -0.00018655574069 -2.43788141021e-11)
(0.952448512867 -0.000156834724467 -2.18402070385e-11)
(0.867384638658 -0.000130239727405 -1.94539265911e-11)
(0.785806584257 -0.000106844170043 -1.72386629277e-11)
(0.707891986341 -8.65589817666e-05 -1.51943309568e-11)
(0.633739449844 -6.91956392233e-05 -1.33179189708e-11)
(0.563384176342 -5.45106804451e-05 -1.16035596555e-11)
(0.496811034021 -4.22361959459e-05 -1.00392192475e-11)
(0.433965439577 -3.21000238811e-05 -8.6136869664e-12)
(0.37476237973 -2.38385727192e-05 -7.31371506968e-12)
(0.319093858751 -1.72044872055e-05 -6.12976103505e-12)
(0.266835019189 -1.19707765754e-05 -5.05062758042e-12)
(0.217849147524 -7.93248330393e-06 -4.06828385471e-12)
(0.171991745269 -4.90659466463e-06 -3.17168797924e-12)
(0.129113818929 -2.73146469008e-06 -2.35326457231e-12)
(0.089064518276 -1.26862224374e-06 -1.60557015492e-12)
(0.0516932324819 -4.05813732503e-07 -9.21901897433e-13)
(0.0168512363025 -2.47896458419e-08 -2.9625126307e-13)
(1.98325146551 -6.34543185111e-05 -6.81738877663e-12)
(1.95995355081 -0.000156956864531 -1.71763143449e-11)
(1.91390526952 -0.00022403461812 -2.47053445375e-11)
(1.85146739242 -0.000270464052082 -2.96622755367e-11)
(1.77686130877 -0.000294442629704 -3.23829759617e-11)
(1.69345969724 -0.000299713228536 -3.33419835935e-11)
(1.6040142996 -0.000291062916537 -3.30012355916e-11)
(1.51077297269 -0.00027295722443 -3.17761265285e-11)
(1.41556238658 -0.000249123861153 -2.99704350142e-11)
(1.31985408593 -0.00022245668549 -2.78357835866e-11)
(1.2248200834 -0.000195064222189 -2.55431997519e-11)
(1.13138060109 -0.000168389923976 -2.32221759523e-11)
(1.0402452714 -0.000143353034246 -2.09489801637e-11)
(0.951948617265 -0.000120480972347 -1.87755438203e-11)
(0.866880456138 -0.000100021021641 -1.67276777281e-11)
(0.785311804491 -8.20286137939e-05 -1.48259966052e-11)
(0.707416826651 -6.64340073085e-05 -1.30702155245e-11)
(0.633291336507 -5.30908819964e-05 -1.14581981674e-11)
(0.562968321366 -4.18106696523e-05 -9.98336786809e-12)
(0.496430911886 -3.23860815829e-05 -8.6373076988e-12)
(0.433623174783 -2.46066974206e-05 -7.41043256813e-12)
(0.374459058088 -1.82688632921e-05 -6.29271405968e-12)
(0.318829775201 -1.31816045771e-05 -5.27455258347e-12)
(0.26660987375 -9.16980126317e-06 -4.34690156089e-12)
(0.217662199379 -6.07545958354e-06 -3.50173820153e-12)
(0.171841933373 -3.75762362247e-06 -2.72975145636e-12)
(0.128999856012 -2.09189896982e-06 -2.02543972867e-12)
(0.0889849638158 -9.71796890706e-07 -1.38192695995e-12)
(0.0516465491017 -3.11063421498e-07 -7.93494214018e-13)
(0.0168358331355 -1.91716181871e-08 -2.54988565308e-13)
(1.98495653269 -4.89550943586e-05 -5.70698473506e-12)
(1.96153213623 -0.000121111329444 -1.44589687558e-11)
(1.91525103468 -0.000172904732407 -2.08737046814e-11)
(1.85253242133 -0.000208766948984 -2.51696639893e-11)
(1.77763818817 -0.000227303351462 -2.75525442708e-11)
(1.69396762075 -0.000231400992452 -2.84263907071e-11)