/*--------------------------------*- C++ -*----------------------------------*\
  =========                 |
  \\      /  F ield         | OpenFOAM: The Open Source CFD Toolbox
   \\    /   O peration     | Website:  https://openfoam.org
    \\  /    A nd           | Version:  12
     \\/     M anipulation  |
\*---------------------------------------------------------------------------*/
FoamFile
{
    format      ascii;
    class       volScalarField;
    location    "1900";
    object      epsilon;
}
// * * * * * * * * * * * * * * * * * * * * * * * * * * * * * * * * * * * * * //

dimensions      [0 2 -3 0 0 0 0];

internalField   nonuniform List<scalar> 
7480
(
0.0027602796
0.0048169962
0.0085705989
0.014960909
0.025402995
0.041755965
0.066150893
0.10058856
0.1463238
0.20312528
0.26874065
0.33905993
0.40881232
0.47267095
0.52628837
0.5672157
0.59371614
0.61213187
0.61143755
0.60608662
0.59454694
0.57873689
0.56044082
0.54115393
0.52208599
0.50419846
0.48823934
0.47475161
0.46408228
0.4563391
0.45131465
0.44846485
0.44698028
0.44597885
0.44474789
0.44289794
0.44036659
0.43730578
0.43392755
0.43038946
0.42676003
0.42304719
0.41924887
0.41538595
0.41150181
0.40764196
0.40383605
0.40009458
0.3964177
0.39280432
0.38925504
0.38576996
0.38234882
0.37899011
0.37569187
0.37245251
0.36927068
0.36614457
0.36307235
0.36005325
0.35708567
0.3541673
0.35129625
0.34847111
0.34569055
0.34295351
0.3402589
0.33760555
0.33499235
0.33241825
0.32988214
0.32738299
0.32491991
0.32249189
0.32009802
0.31773743
0.31540931
0.31311288
0.31084737
0.30861203
0.30640614
0.30422899
0.30207989
0.29995818
0.29786319
0.29579427
0.29375078
0.29173206
0.2897375
0.28776628
0.28581796
0.28389118
0.28198629
0.28009902
0.2782346
0.27637444
0.27454996
0.27265007
0.27105344
0.26811005
8.3301396e-05
0.00017285202
0.00029524588
0.00047721007
0.00076473924
0.0012335517
0.0019995828
0.003220565
0.0050768683
0.0077278313
0.011255557
0.015705146
0.021019565
0.026936887
0.033096401
0.039174317
0.044806509
0.050230604
0.055107595
0.059904152
0.065211114
0.072132252
0.080823334
0.090234216
0.10045821
0.11170967
0.12402788
0.13712006
0.15051896
0.16350855
0.17511717
0.18439856
0.19071387
0.19395873
0.19456896
0.19332454
0.1910656
0.18846026
0.18588225
0.18344232
0.18110688
0.17881224
0.17653216
0.17428554
0.17210845
0.17002446
0.16803588
0.16613159
0.16429781
0.16252507
0.1608076
0.15914063
0.15751937
0.15593973
0.15439844
0.15289271
0.15141998
0.14997809
0.14856542
0.14718109
0.14582353
0.14449113
0.14318275
0.14189766
0.14063518
0.13939468
0.13817555
0.13697719
0.13579904
0.13464054
0.13350121
0.13238057
0.13127814
0.13019351
0.12912628
0.12807603
0.12704238
0.12602494
0.12502332
0.12403716
0.12306608
0.12210973
0.12116776
0.12023981
0.11932554
0.11842461
0.1175367
0.11666148
0.11579862
0.11494777
0.11410861
0.1132808
0.112464
0.11165767
0.11086155
0.11007427
0.10929761
0.1085133
0.10781655
0.10662988
1.6219587e-05
2.8247691e-05
4.3029052e-05
6.0939525e-05
8.3443794e-05
0.00011269253
0.00015146708
0.00020306711
0.00027101774
0.00035871154
0.00046908001
0.00060505689
0.00076939599
0.00096350642
0.0011866395
0.0014361681
0.0017059344
0.0019921699
0.0022888516
0.0025956393
0.0029201935
0.0032924469
0.0037544336
0.0043569323
0.0051689898
0.006285599
0.0078177924
0.010038157
0.013214744
0.017656547
0.024190251
0.032111595
0.041107515
0.050765799
0.060419394
0.069403702
0.077095926
0.08305706
0.087170384
0.089631707
0.090840183
0.091249953
0.091242855
0.091055561
0.090786581
0.090452421
0.090044927
0.089565406
0.089031537
0.088465451
0.087882279
0.087288092
0.086684259
0.086071822
0.085452691
0.084828867
0.084201821
0.08357258
0.08294197
0.082310728
0.081679622
0.081049309
0.080420385
0.079793438
0.079169023
0.078547657
0.077929806
0.077315878
0.076706225
0.076101167
0.075500996
0.074905984
0.074316363
0.073732346
0.073154128
0.072581873
0.072015715
0.07145576
0.070902092
0.070354773
0.069813843
0.069279324
0.06875122
0.068229521
0.067714203
0.067205232
0.066702564
0.066206145
0.065715909
0.065231792
0.064753694
0.064281559
0.063815194
0.063354662
0.0628994
0.062450026
0.062005533
0.0615604
0.061164067
0.060484695
9.0226247e-06
1.215841e-05
1.6152697e-05
2.0765062e-05
2.6036658e-05
3.2134641e-05
3.9288031e-05
4.7754398e-05
5.778974e-05
6.9621868e-05
8.3428779e-05
9.9350537e-05
0.0001174991
0.00013793661
0.00016064264
0.00018550864
0.00021229523
0.00024073094
0.00027048403
0.00030127016
0.00033290672
0.00036566051
0.00040019616
0.00043803525
0.0004816437
0.00053486232
0.00060317455
0.00069583396
0.00082813884
0.0010215003
0.0013291612
0.0018097602
0.0025491334
0.0036445965
0.0053311894
0.0077605697
0.011315366
0.015973627
0.02136436
0.027108539
0.032788694
0.038004794
0.042426408
0.045888069
0.048411145
0.050162268
0.051369895
0.052238081
0.052897388
0.053407325
0.05378747
0.054049126
0.054209272
0.054288525
0.054304329
0.054268155
0.05418731
0.054067571
0.053914271
0.053732121
0.053525097
0.053296471
0.053049032
0.05278525
0.052507318
0.052217175
0.051916533
0.051606906
0.051289638
0.05096594
0.050636902
0.05030351
0.04996665
0.049627124
0.049285659
0.048942911
0.048599468
0.048255854
0.047912537
0.047569933
0.047228408
0.046888285
0.046549847
0.046213344
0.045878991
0.045546979
0.045217469
0.044890605
0.044566503
0.044245273
0.04392698
0.043611728
0.043299476
0.04299047
0.042684277
0.042381847
0.042082007
0.041782482
0.04151678
0.041057006
7.4565918e-06
8.5249687e-06
1.0034146e-05
1.1838191e-05
1.3878686e-05
1.6152938e-05
1.8687226e-05
2.1521025e-05
2.4697243e-05
2.8255683e-05
3.2228535e-05
3.6639724e-05
4.1506288e-05
4.6838319e-05
5.2636941e-05
5.8893233e-05
6.5584848e-05
7.267921e-05
8.0133861e-05
8.7902014e-05
9.593566e-05
0.00010420386
0.00011269862
0.00012146
0.0001305928
0.00014030259
0.00015090612
0.00016288315
0.00017702106
0.00019432912
0.00021681217
0.0002472019
0.00028967478
0.00035001637
0.00043966597
0.00057468922
0.00078964189
0.0011387159
0.0016880649
0.0025631044
0.0038914359
0.0058233753
0.008525254
0.011776947
0.015344339
0.018969419
0.022394063
0.025408234
0.027904127
0.029883491
0.031430196
0.032657075
0.033657733
0.03448823
0.035175813
0.035736933
0.036188253
0.036547402
0.036829666
0.037046402
0.037206115
0.037315933
0.0373822
0.037410447
0.037405337
0.037370848
0.037310456
0.037227216
0.037123816
0.037002632
0.036865773
0.036715126
0.036552378
0.036379038
0.036196465
0.036005885
0.035808398
0.035604998
0.035396572
0.035183921
0.034967761
0.034748734
0.034527415
0.034304319
0.034079908
0.033854595
0.033628751
0.033402706
0.033176755
0.032951168
0.032726166
0.032501989
0.032278747
0.032056782
0.031835865
0.031616936
0.031399161
0.0311811
0.030989025
0.030651815
6.9996412e-06
7.3865726e-06
8.01943e-06
8.8438318e-06
9.8145637e-06
1.0907701e-05
1.2116055e-05
1.34425e-05
1.489491e-05
1.6482795e-05
1.8215121e-05
2.0099236e-05
2.2140649e-05
2.4343048e-05
2.670814e-05
2.9235449e-05
3.1921913e-05
3.4761855e-05
3.7746934e-05
4.0866758e-05
4.4109393e-05
4.7463028e-05
5.0917393e-05
5.446673e-05
5.8112932e-05
6.1870777e-05
6.5769904e-05
6.9858895e-05
7.4221512e-05
7.8973486e-05
8.4301613e-05
9.0485902e-05
9.7918142e-05
0.00010711322
0.00011888124
0.00013431482
0.0001552667
0.00018463202
0.00022666497
0.00028900887
0.00038368717
0.00053101491
0.00077104437
0.0011523946
0.001773619
0.0027197285
0.0041338513
0.0060138156
0.0082444852
0.010668761
0.013116785
0.015424763
0.017477034
0.019225328
0.020685243
0.021907331
0.022943679
0.023830162
0.0245876
0.025230611
0.025773382
0.02622983
0.026611884
0.026929003
0.027188934
0.027398435
0.027563473
0.027689203
0.027780076
0.027839996
0.02787241
0.027880368
0.027866574
0.027833433
0.027783098
0.027717494
0.027638352
0.027547224
0.027445505
0.027334449
0.027215182
0.027088717
0.026955967
0.026817752
0.026674811
0.026527811
0.026377352
0.026223976
0.026068168
0.025910375
0.025750984
0.025590377
0.02542882
0.025266745
0.025104133
0.024941862
0.024779491
0.024615812
0.024472718
0.024216437
6.8429454e-06
6.9803031e-06
7.2441613e-06
7.6311113e-06
8.1227808e-06
8.7014242e-06
9.3553731e-06
1.0078883e-05
1.0870358e-05
1.1730591e-05
1.2661445e-05
1.3664991e-05
1.4743053e-05
1.5897013e-05
1.7127713e-05
1.8435358e-05
1.9819463e-05
2.1278783e-05
2.2811242e-05
2.4413997e-05
2.6083539e-05
2.7815867e-05
2.960675e-05
3.14522e-05
3.3349151e-05
3.5296141e-05
3.729605e-05
3.9356828e-05
4.149131e-05
4.3719848e-05
4.607432e-05
4.8603697e-05
5.1377816e-05
5.4490047e-05
5.8068194e-05
6.2287786e-05
6.7369666e-05
7.3655256e-05
8.1608865e-05
9.1941548e-05
0.00010567907
0.00012432254
0.00015048577
0.00018802682
0.00024444263
0.00033051394
0.00046800523
0.00068944124
0.0010462352
0.0016138671
0.0024756633
0.0036816018
0.0051740823
0.0068592164
0.0086255436
0.010356541
0.011959649
0.01338501
0.014626853
0.015705701
0.016646887
0.017469257
0.018185517
0.018806494
0.019343046
0.019805375
0.020202179
0.020540766
0.020827534
0.021068191
0.021267765
0.021430671
0.021560814
0.021661669
0.021736332
0.021787567
0.02181785
0.021829398
0.021824203
0.021804054
0.021770558
0.021725163
0.021669174
0.021603766
0.021530001
0.021448834
0.021361132
0.021267676
0.021169171
0.021066261
0.020959518
0.020849486
0.020736596
0.020621389
0.020504048
0.020385419
0.020265405
0.020142944
0.020036558
0.019840621
6.7755497e-06
6.8226728e-06
6.927269e-06
7.1021758e-06
7.3476965e-06
7.6575429e-06
8.0243021e-06
8.4420809e-06
8.907088e-06
9.4172971e-06
9.9718812e-06
1.0570694e-05
1.12139e-05
1.1901739e-05
1.2634398e-05
1.3411915e-05
1.4234132e-05
1.5100649e-05
1.6010779e-05
1.6963536e-05
1.7957657e-05
1.8991609e-05
2.0063627e-05
2.117183e-05
2.2314407e-05
2.3489772e-05
2.4697141e-05
2.5937056e-05
2.7211579e-05
2.8524836e-05
2.9883739e-05
3.1299299e-05
3.2787773e-05
3.4371725e-05
3.6081566e-05
3.7954763e-05
4.0060185e-05
4.2472916e-05
4.5287644e-05
4.8636262e-05
5.2698039e-05
5.7704044e-05
6.3990444e-05
7.2023945e-05
8.2597757e-05
9.6789653e-05
0.00011645303
0.00014445259
0.00018572153
0.00024856746
0.00034750596
0.00050649856
0.00076186212
0.001170544
0.0018005932
0.0026761545
0.0037681559
0.00501689
0.0063436139
0.0076652356
0.0089137309
0.010051504
0.011070356
0.011978182
0.012785882
0.013502198
0.014134577
0.014690674
0.015178224
0.015604298
0.015975114
0.016296245
0.016572744
0.016809147
0.017009513
0.017177483
0.017316331
0.017428998
0.017518131
0.01758611
0.017635083
0.017666983
0.017683556
0.017686379
0.017676875
0.017656332
0.017625913
0.017586673
0.017539566
0.017485458
0.017425128
0.017359303
0.017288599
0.017213684
0.017134941
0.017053229
0.016968737
0.016880612
0.016804362
0.016657737
6.733403e-06
6.7496653e-06
6.7889977e-06
6.8632869e-06
6.9795833e-06
7.1396441e-06
7.3418556e-06
7.5833341e-06
7.8612466e-06
8.1733582e-06
8.5181146e-06
8.8945177e-06
9.3019522e-06
9.7400334e-06
1.0208498e-05
1.070712e-05
1.1235661e-05
1.1793835e-05
1.2381263e-05
1.2997466e-05
1.3641854e-05
1.4313714e-05
1.5012208e-05
1.5736398e-05
1.6485308e-05
1.7257975e-05
1.8053593e-05
1.8871713e-05
1.9712401e-05
2.0576436e-05
2.1465529e-05
2.2382681e-05
2.3332611e-05
2.4322157e-05
2.5360894e-05
2.6460582e-05
2.7640154e-05
2.8923694e-05
3.0340458e-05
3.1927512e-05
3.3732182e-05
3.5813894e-05
3.8267755e-05
4.1195222e-05
4.4746059e-05
4.9122343e-05
5.4616082e-05
6.1626869e-05
7.0790449e-05
8.3081504e-05
0.00010005567
0.00012419007
0.00015970143
0.0002137043
0.00029923394
0.00043555045
0.00065532399
0.0010031504
0.0015302723
0.0022402545
0.0031096218
0.0040950654
0.0051365474
0.0061727385
0.0071574321
0.0080670898
0.0088959764
0.0096463413
0.010322032
0.01092715
0.011466516
0.011945487
0.01236934
0.012742989
0.013071008
0.013357644
0.013606797
0.01382202
0.014006554
0.014163342
0.01429506
0.014404134
0.014492766
0.014562952
0.014616501
0.014655055
0.014680103
0.014692995
0.014694957
0.014687103
0.014670441
0.0146459
0.014614293
0.014576444
0.014532934
0.014484681
0.014432107
0.014374669
0.014324972
0.014221561
6.6956697e-06
6.7022174e-06
6.7170108e-06
6.7469749e-06
6.7986889e-06
6.8766718e-06
6.9830276e-06
7.1180185e-06
7.2808822e-06
7.4704825e-06
7.6856907e-06
7.9255467e-06
8.1892894e-06
8.4763289e-06
8.7862026e-06
9.118528e-06
9.4729716e-06
9.8492175e-06
1.0246942e-05
1.0665798e-05
1.1105406e-05
1.1565342e-05
1.2045122e-05
1.2544209e-05
1.3062031e-05
1.3598005e-05
1.4151575e-05
1.4722287e-05
1.5309868e-05
1.5914323e-05
1.6536022e-05
1.7175825e-05
1.7835246e-05
1.851662e-05
1.9223366e-05
1.9959895e-05
2.0732674e-05
2.1550537e-05
2.2424672e-05
2.3369016e-05
2.4401009e-05
2.5541354e-05
2.6819944e-05
2.8271516e-05
2.9939025e-05
3.1879034e-05
3.4163695e-05
3.6904299e-05
4.023998e-05
4.4362212e-05
4.9554154e-05
5.621111e-05
6.4947003e-05
7.670994e-05
9.3102745e-05
0.00011658884
0.00015151131
0.00020504456
0.00029028747
0.00042482623
0.00064158764
0.00098206428
0.0014631857
0.0020838336
0.0028219607
0.0036377292
0.0044826319
0.0053134475
0.0061021853
0.0068360212
0.0075111201
0.0081272074
0.00868556
0.0091887176
0.0096400846
0.010043362
0.010402246
0.01072034
0.011001093
0.011247754
0.011463343
0.011650658
0.011812277
0.011950567
0.012067694
0.012165639
0.012246213
0.012311065
0.0123617
0.012399491
0.012425685
0.01244143
0.012447748
0.012445634
0.012435873
0.012419476
0.012397062
0.012368496
0.012343479
0.012279995
6.656079e-06
6.6598399e-06
6.6662681e-06
6.6784977e-06
6.7005697e-06
6.7364391e-06
6.7892137e-06
6.8608687e-06
6.9523574e-06
7.0639062e-06
7.1953182e-06
7.3462003e-06
7.5161002e-06
7.7045747e-06
7.9112165e-06
8.1356558e-06
8.3775569e-06
8.6366072e-06
8.9125049e-06
9.2049512e-06
9.5136453e-06
9.8382731e-06
1.0178498e-05
1.0533958e-05
1.0904278e-05
1.1289067e-05
1.1687945e-05
1.2100559e-05
1.2526629e-05
1.296599e-05
1.3418637e-05
1.3884775e-05
1.4364886e-05
1.4859803e-05
1.5370824e-05
1.589973e-05
1.6449059e-05
1.7022366e-05
1.7624358e-05
1.8261021e-05
1.8939899e-05
1.9669936e-05
2.0462964e-05
2.1333484e-05
2.2298605e-05
2.3379898e-05
2.4603249e-05
2.6003664e-05
2.7626923e-05
2.9528761e-05
3.1782595e-05
3.4495268e-05
3.7819206e-05
4.1955763e-05
4.7211762e-05
5.4028239e-05
6.3084143e-05
7.5446353e-05
9.2929771e-05
0.0001183473
0.00015664364
0.00021693767
0.00031183216
0.00046336939
0.00070315299
0.0010517078
0.001516045
0.0020862257
0.0027359517
0.0034279707
0.0041255487
0.0048019287
0.0054420915
0.0060390696
0.0065899747
0.0070941432
0.0075525014
0.0079670128
0.0083401568
0.008674635
0.0089732267
0.0092386855
0.0094736708
0.0096807108
0.0098621839
0.01002031
0.010157149
0.010274606
0.010374434
0.010458247
0.010527524
0.010583627
0.010627789
0.010661184
0.010684799
0.010699763
0.010706864
0.010706458
0.010705293
0.010680162
6.6129947e-06
6.6160195e-06
6.6198629e-06
6.6256839e-06
6.6354343e-06
6.6515552e-06
6.6765518e-06
6.7126185e-06
6.7614293e-06
6.8241035e-06
6.9012864e-06
6.9932741e-06
7.1001303e-06
7.2217781e-06
7.3580611e-06
7.5087803e-06
7.6737168e-06
7.8526419e-06
8.0453214e-06
8.2515173e-06
8.4709898e-06
8.703493e-06
8.9487708e-06
9.2065555e-06
9.4765713e-06
9.7585376e-06
1.0052175e-05
1.0357216e-05
1.0673424e-05
1.1000617e-05
1.1338686e-05
1.1687622e-05
1.2047545e-05
1.2418737e-05
1.2801691e-05
1.3197141e-05
1.3606152e-05
1.4030246e-05
1.4471517e-05
1.4932711e-05
1.5417361e-05
1.5929756e-05
1.6475328e-05
1.7060851e-05
1.7694357e-05
1.8385674e-05
1.914647e-05
1.9991135e-05
2.0938286e-05
2.2010324e-05
2.3234199e-05
2.4646494e-05
2.6295592e-05
2.8243319e-05
3.0574072e-05
3.3401086e-05
3.6905539e-05
4.1324135e-05
4.7018234e-05
5.4525167e-05
6.4657982e-05
7.8861323e-05
9.9334063e-05
0.00012980416
0.00017710769
0.00025108985
0.00036848874
0.00055405665
0.00082582014
0.0011931999
0.0016521952
0.0021843622
0.0027604451
0.0033501948
0.0039302564
0.0044861288
0.005009869
0.0054973657
0.0059468886
0.0063583719
0.0067328236
0.0070718652
0.0073774594
0.0076517426
0.0078969067
0.0081151233
0.0083084971
0.0084790377
0.008628643
0.0087590926
0.0088720437
0.0089690391
0.0090514973
0.0091207577
0.0091779968
0.0092244732
0.0092611137
0.00928883
0.0093113345
0.0093240659
6.5661216e-06
6.568949e-06
6.5720544e-06
6.5757736e-06
6.5808922e-06
6.5886198e-06
6.6004733e-06
6.6180878e-06
6.6430214e-06
6.6766144e-06
6.7199232e-06
6.7737191e-06
6.838523e-06
6.9146565e-06
7.0022912e-06
7.1014894e-06
7.212237e-06
7.3344656e-06
7.4680682e-06
7.6129106e-06
7.76884e-06
7.9356881e-06
8.1132725e-06
8.3013988e-06
8.4998641e-06
8.7084603e-06
8.9269782e-06
9.155213e-06
9.3929742e-06
9.6400974e-06
9.8964562e-06
1.0161974e-05
1.0436638e-05
1.0720515e-05
1.1013774e-05
1.1316704e-05
1.1629757e-05
1.1953602e-05
1.2289198e-05
1.2637847e-05
1.3001276e-05
1.3381646e-05
1.3781674e-05
1.4204764e-05
1.4655024e-05
1.5137431e-05
1.5657911e-05
1.6223498e-05
1.6842968e-05
1.7526942e-05
1.8287792e-05
1.9141194e-05
2.0106994e-05
2.1209689e-05
2.2481249e-05
2.3961018e-05
2.5706568e-05
2.7792208e-05
3.0318698e-05
3.3426243e-05
3.7333067e-05
4.235595e-05
4.8963101e-05
5.7862312e-05
7.0256406e-05
8.8016959e-05
0.00011428502
0.00015478198
0.00021764086
0.00031726108
0.00047266683
0.00069987597
0.0010073859
0.0013933887
0.0018431105
0.0023327332
0.0028375233
0.0033379597
0.0038212267
0.0042796547
0.0047088912
0.0051068215
0.0054728869
0.0058075376
0.0061118467
0.0063872656
0.0066354581
0.0068581862
0.0070572343
0.0072343604
0.007391264
0.007529569
0.0076508068
0.0077564348
0.0078477767
0.0079262078
0.0079927531
0.0080489283
0.0080952922
0.008146069
6.515506e-06
6.5182573e-06
6.5211484e-06
6.5242251e-06
6.5277546e-06
6.5322433e-06
6.5384453e-06
6.5473216e-06
6.5599549e-06
6.5774475e-06
6.6008333e-06
6.631018e-06
6.6687504e-06
6.7146197e-06
6.7690681e-06
6.8324106e-06
6.9048575e-06
6.9865346e-06
7.0775002e-06
7.1777599e-06
7.2872794e-06
7.4059921e-06
7.5338048e-06
7.6706034e-06
7.8162583e-06
7.9706286e-06
8.1335667e-06
8.3049232e-06
8.4845526e-06
8.6723211e-06
8.8681139e-06
9.0718411e-06
9.2834459e-06
9.502912e-06
9.7302728e-06
9.9656251e-06
1.0209147e-05
1.0461128e-05
1.0722005e-05
1.0992405e-05
1.1273184e-05
1.1565457e-05
1.1870643e-05
1.2190536e-05
1.252734e-05
1.2883736e-05
1.3262947e-05
1.3668767e-05
1.4105796e-05
1.4579599e-05
1.5096634e-05
1.5664719e-05
1.6293448e-05
1.6994368e-05
1.7782037e-05
1.8673785e-05
1.9692743e-05
2.086854e-05
2.2238943e-05
2.3853366e-05
2.5781324e-05
2.8119049e-05
3.0998231e-05
3.4608051e-05
3.9252473e-05
4.5361787e-05
5.3593481e-05
6.5060039e-05
8.1455189e-05
0.00010573504
0.00014296697
0.00020036886
0.00029156794
0.00043112066
0.00063267945
0.00090350786
0.0012413142
0.0016326435
0.0020573565
0.0024952339
0.0029303897
0.0033520735
0.0037535113
0.0041306864
0.0044815319
0.0048053326
0.0051022653
0.0053730837
0.0056189054
0.0058410625
0.0060409988
0.0062202019
0.0063801543
0.0065223149
0.0066480637
0.0067588386
0.0068556982
0.0069407798
0.0070113353
0.0071006921
6.4612683e-06
6.4639649e-06
6.466771e-06
6.4696448e-06
6.4726589e-06
6.4759967e-06
6.4799788e-06
6.4850787e-06
6.4919116e-06
6.5011977e-06
6.5137113e-06
6.5302284e-06
6.5514823e-06
6.5781326e-06
6.6107488e-06
6.6498042e-06
6.6956793e-06
6.7486686e-06
6.8089902e-06
6.8767965e-06
6.952185e-06
7.0352064e-06
7.1258721e-06
7.2241611e-06
7.3300266e-06
7.4434022e-06
7.5642062e-06
7.6923473e-06
7.8277296e-06
7.9702584e-06
8.1198455e-06
8.2764135e-06
8.4399002e-06
8.6102635e-06
8.7874853e-06
8.9715795e-06
9.162602e-06
9.3606662e-06
9.5659644e-06
9.7787916e-06
9.9995723e-06
1.0228883e-05
1.0467479e-05
1.0716327e-05
1.0976643e-05
1.1249925e-05
1.1537994e-05
1.1843012e-05
1.2167567e-05
1.2514774e-05
1.2888275e-05
1.3292374e-05
1.3732242e-05
1.4213997e-05
1.4745136e-05
1.5334485e-05
1.599308e-05
1.6734797e-05
1.7576637e-05
1.8540344e-05
1.9653762e-05
2.0954283e-05
2.2490835e-05
2.4328328e-05
2.6561723e-05
2.9322068e-05
3.2785884e-05
3.7253466e-05
4.3146733e-05
5.1124554e-05
6.2280662e-05
7.8244681e-05
0.00010206935
0.00013840405
0.00019485089
0.00028297292
0.00041567264
0.00060372118
0.00085238833
0.0011575755
0.0015062328
0.0018809723
0.0022653241
0.0026465994
0.0030160794
0.0033681245
0.0036993377
0.0040079352
0.0042932512
0.0045553742
0.0047948938
0.0050127204
0.005209962
0.0053878399
0.0055476094
0.0056906452
0.0058179264
0.0059321839
0.0060271772
0.0061556898
6.4035438e-06
6.4061878e-06
6.4089356e-06
6.4117229e-06
6.4145592e-06
6.4175022e-06
6.4206714e-06
6.4242684e-06
6.4285912e-06
6.434035e-06
6.4410786e-06
6.4502609e-06
6.4621514e-06
6.4773211e-06
6.4963178e-06
6.5196466e-06
6.5477589e-06
6.5810455e-06
6.6198352e-06
6.6643966e-06
6.7149428e-06
6.7716359e-06
6.834592e-06
6.9038873e-06
6.9795644e-06
7.0616373e-06
7.1500972e-06
7.2449175e-06
7.3460586e-06
7.4534735e-06
7.567112e-06
7.6869241e-06
7.8128642e-06
7.9448933e-06
8.0829824e-06
8.2271163e-06
8.3773007e-06
8.5335702e-06
8.696001e-06
8.8647257e-06
9.0399493e-06
9.2219664e-06
9.4111768e-06
9.6081079e-06
9.8134379e-06
1.0028018e-05
1.0252901e-05
1.0489353e-05
1.0738894e-05
1.1003349e-05
1.1284871e-05
1.1585983e-05
1.1909682e-05
1.2259478e-05
1.2639582e-05
1.3054929e-05
1.3511452e-05
1.4016438e-05
1.4578612e-05
1.5208859e-05
1.5920509e-05
1.6730665e-05
1.7661158e-05
1.873952e-05
2.0003316e-05
2.1502916e-05
2.3302007e-05
2.549735e-05
2.8222345e-05
3.1664081e-05
3.6118321e-05
4.202292e-05
5.0092837e-05
6.1436265e-05
7.7849237e-05
0.00010242132
0.00013982836
0.00019813764
0.000287683
0.00041948368
0.00060202108
0.00083749758
0.0011196213
0.0014355484
0.0017703137
0.0021106923
0.0024467344
0.0027715651
0.0030807072
0.0033714691
0.0036424456
0.0038931278
0.0041236257
0.0043344636
0.004526428
0.0047005827
0.0048576242
0.0050007751
0.0051200837
0.0052880047
6.3424746e-06
6.3450658e-06
6.3477591e-06
6.3504863e-06
6.3532389e-06
6.356032e-06
6.3589054e-06
6.3619349e-06
6.3652464e-06
6.3690274e-06
6.3735311e-06
6.3790746e-06
6.3860289e-06
6.3948041e-06
6.4058321e-06
6.4195486e-06
6.4363781e-06
6.4567209e-06
6.4809436e-06
6.509374e-06
6.5422976e-06
6.5799574e-06
6.6225542e-06
6.6702492e-06
6.7231674e-06
6.7814018e-06
6.8450171e-06
6.9140544e-06
6.9885356e-06
7.0684674e-06
7.1538459e-06
7.2446597e-06
7.3408927e-06
7.442527e-06
7.5495447e-06
7.6619312e-06
7.779679e-06
7.9027939e-06
8.0313017e-06
8.1652583e-06
8.3047591e-06
8.4499511e-06
8.6010437e-06
8.7583228e-06
8.9221672e-06
9.0930637e-06
9.2716257e-06
9.4586067e-06
9.6549188e-06
9.8616628e-06
1.0080148e-05
1.0311915e-05
1.0558781e-05
1.0822873e-05
1.1106705e-05
1.1413218e-05
1.174587e-05
1.2108823e-05
1.250699e-05
1.2946352e-05
1.3434083e-05
1.3979036e-05
1.4592258e-05
1.5287219e-05
1.6081519e-05
1.6997829e-05
1.8064292e-05
1.9319652e-05
2.0816153e-05
2.2622783e-05
2.4839172e-05
2.7605334e-05
3.1130966e-05
3.5721317e-05
4.1875304e-05
5.036811e-05
6.2398447e-05
8.0015691e-05
0.00010645961
0.00014710832
0.0002098927
0.00030439833
0.00043980512
0.00062171921
0.00084894397
0.0011132711
0.001402384
0.0017037062
0.0020068357
0.0023041161
0.0025902816
0.0028619293
0.0031170513
0.0033546364
0.0035743744
0.003776558
0.0039612417
0.0041319126
0.0042746438
0.004481422
6.2782098e-06
6.2807482e-06
6.283387e-06
6.2860586e-06
6.2887501e-06
6.291464e-06
6.2942122e-06
6.2970205e-06
6.299936e-06
6.3030369e-06
6.3064398e-06
6.3103066e-06
6.3148457e-06
6.3203096e-06
6.3269887e-06
6.3352015e-06
6.3452841e-06
6.3575785e-06
6.3724221e-06
6.3901392e-06
6.4110331e-06
6.4353819e-06
6.4634341e-06
6.4954071e-06
6.531488e-06
6.5718336e-06
6.616573e-06
6.6658098e-06
6.7196252e-06
6.7780811e-06
6.8412235e-06
6.9090851e-06
6.9816878e-06
7.0590453e-06
7.1411643e-06
7.2280475e-06
7.3196963e-06
7.4161145e-06
7.5173138e-06
7.6233193e-06
7.7341765e-06
7.8499586e-06
7.970775e-06
8.0967802e-06
8.2281849e-06
8.3652678e-06
8.5083876e-06
8.6579942e-06
8.8146412e-06
8.9790033e-06
9.1518911e-06
9.3342666e-06
9.5272664e-06
9.732223e-06
9.9507025e-06
1.0184534e-05
1.0435851e-05
1.0707177e-05
1.1001469e-05
1.1322252e-05
1.1673707e-05
1.2060851e-05
1.2489816e-05
1.2967932e-05
1.350442e-05
1.4110798e-05
1.4801273e-05
1.5594044e-05
1.651297e-05
1.7588569e-05
1.8862017e-05
2.0388475e-05
2.2245606e-05
2.4539567e-05
2.7429866e-05
3.1152103e-05
3.6045511e-05
4.2684717e-05
5.1941413e-05
6.5253556e-05
8.493908e-05
0.00011477376
0.0001607254
0.0002306313
0.00033312079
0.00047517125
0.00065886257
0.0008798462
0.0011287339
0.001394332
0.0016664474
0.0019370887
0.0022005014
0.0024527827
0.0026914596
0.0029152488
0.0031229399
0.00331785
0.00348174
0.0037253312
6.2109057e-06
6.2133915e-06
6.2159756e-06
6.2185919e-06
6.2212267e-06
6.223879e-06
6.2265523e-06
6.2292548e-06
6.2320024e-06
6.2348238e-06
6.2377663e-06
6.2409024e-06
6.2443343e-06
6.2481977e-06
6.2526625e-06
6.2579309e-06
6.2642332e-06
6.2718215e-06
6.2809626e-06
6.2919305e-06
6.3049988e-06
6.3204342e-06
6.3384908e-06
6.3594058e-06
6.3833963e-06
6.410658e-06
6.4413644e-06
6.4756666e-06
6.5136947e-06
6.5555591e-06
6.6013525e-06
6.6511515e-06
6.7050186e-06
6.7630034e-06
6.8251448e-06
6.8914721e-06
6.9620076e-06
7.0367694e-06
7.1157752e-06
7.1990458e-06
7.2866102e-06
7.3785104e-06
7.4748074e-06
7.5755872e-06
7.6809692e-06
7.7911141e-06
7.9062326e-06
8.0265944e-06
8.1525373e-06
8.2844782e-06
8.4229245e-06
8.5684845e-06
8.721882e-06
8.8839703e-06
9.0557522e-06
9.2384003e-06
9.4332786e-06
9.6419872e-06
9.8663887e-06
1.0108675e-05
1.0371424e-05
1.0657675e-05
1.0971074e-05
1.1315927e-05
1.1697492e-05
1.2122186e-05
1.2597842e-05
1.3134098e-05
1.3743171e-05
1.444037e-05
1.5245381e-05
1.618367e-05
1.7289331e-05
1.860699e-05
2.0199219e-05
2.2154086e-05
2.4591404e-05
2.7695736e-05
3.1737175e-05
3.7127805e-05
4.4537726e-05
5.5032719e-05
7.0352605e-05
9.3302758e-05
0.00012839099
0.00018191465
0.00026151622
0.00037438516
0.00052442015
0.00071009358
0.00092467432
0.0011586426
0.0014024656
0.0016481961
0.0018898496
0.0021233682
0.0023452808
0.0025579874
0.0027384824
0.0030143034
6.1407255e-06
6.1431589e-06
6.1456883e-06
6.1482491e-06
6.1508275e-06
6.1534218e-06
6.1560333e-06
6.1586645e-06
6.1613204e-06
6.1640103e-06
6.166751e-06
6.1695708e-06
6.1725135e-06
6.1756433e-06
6.1790474e-06
6.1828386e-06
6.1871555e-06
6.1921615e-06
6.1980414e-06
6.2049979e-06
6.2132462e-06
6.2230093e-06
6.2345118e-06
6.2479758e-06
6.2636161e-06
6.2816373e-06
6.3022309e-06
6.3255736e-06
6.3518262e-06
6.3811336e-06
6.4136248e-06
6.4494133e-06
6.4885979e-06
6.5312631e-06
6.5774808e-06
6.6273103e-06
6.6808007e-06
6.7379929e-06
6.7989214e-06
6.863618e-06
6.9321144e-06
7.0044462e-06
7.0806564e-06
7.1608004e-06
7.2449513e-06
7.3332062e-06
7.4256924e-06
7.522574e-06
7.6240591e-06
7.7304077e-06
7.8419401e-06
7.9590442e-06
8.0821861e-06
8.2119196e-06
8.3488983e-06
8.4938891e-06
8.6477859e-06
8.8116332e-06
8.9866447e-06
9.1742367e-06
9.3760643e-06
9.5940601e-06
9.8305089e-06
1.0088086e-05
1.0369989e-05
1.0680049e-05
1.1022883e-05
1.1404051e-05
1.1830396e-05
1.2310332e-05
1.2854322e-05
1.3475578e-05
1.4190986e-05
1.502222e-05
1.5997862e-05
1.7156546e-05
1.8549066e-05
2.0247471e-05
2.2353034e-05
2.500982e-05
2.8436004e-05
3.296209e-05
3.9101604e-05
4.7684523e-05
6.0066297e-05
7.8444254e-05
0.00010630479
0.00014875107
0.00021237127
0.00030400483
0.00042839014
0.00058587345
0.0007718706
0.00097851438
0.0011971402
0.0014202912
0.0016411603
0.0018601969
0.0020490694
0.0023484278
6.0678386e-06
6.07022e-06
6.0726947e-06
6.0751997e-06
6.0777215e-06
6.0802584e-06
6.0828107e-06
6.0853796e-06
6.0879667e-06
6.0905747e-06
6.0932083e-06
6.095877e-06
6.0985969e-06
6.1013941e-06
6.104308e-06
6.107394e-06
6.1107258e-06
6.1143971e-06
6.1185215e-06
6.1232319e-06
6.1286785e-06
6.1350261e-06
6.1424506e-06
6.1511351e-06
6.1612667e-06
6.1730324e-06
6.1866163e-06
6.2021966e-06
6.2199432e-06
6.2400166e-06
6.2625661e-06
6.2877292e-06
6.3156311e-06
6.3463843e-06
6.3800886e-06
6.4168314e-06
6.4566886e-06
6.4997257e-06
6.5459994e-06
6.5955596e-06
6.6484514e-06
6.7047176e-06
6.7644014e-06
6.8275498e-06
6.8942175e-06
6.9644711e-06
7.0383941e-06
7.1160918e-06
7.1976967e-06
7.2833745e-06
7.37333e-06
7.467814e-06
7.5671293e-06
7.6716393e-06
7.7817753e-06
7.8980457e-06
8.021046e-06
8.1514721e-06
8.2901332e-06
8.43797e-06
8.5960779e-06
8.7657289e-06
8.9484118e-06
9.1458599e-06
9.3601136e-06
9.5935841e-06
9.8491423e-06
1.0130197e-05
1.0440852e-05
1.0786072e-05
1.1171888e-05
1.1605747e-05
1.2096843e-05
1.2656853e-05
1.3300364e-05
1.404663e-05
1.4920142e-05
1.5953704e-05
1.7191738e-05
1.8694303e-05
2.0546563e-05
2.287085e-05
2.5845866e-05
2.9742901e-05
3.4984269e-05
4.2240554e-05
5.2601205e-05
6.7832349e-05
9.0741261e-05
0.00012554096
0.00017788661
0.00025405327
0.00035902595
0.00049429805
0.00065684692
0.00084046987
0.0010364564
0.0012430909
0.0014265826
0.0017343977
5.9924193e-06
5.9947489e-06
5.9971691e-06
5.9996183e-06
6.0020835e-06
6.0045627e-06
6.0070562e-06
6.0095649e-06
6.0120894e-06
6.0146302e-06
6.0171884e-06
6.0197659e-06
6.0223675e-06
6.0250018e-06
6.0276838e-06
6.0304371e-06
6.0332962e-06
6.0363087e-06
6.0395365e-06
6.0430575e-06
6.0469653e-06
6.0513689e-06
6.0563914e-06
6.0621679e-06
6.0688439e-06
6.0765719e-06
6.0855097e-06
6.0958167e-06
6.1076523e-06
6.121173e-06
6.1365309e-06
6.1538716e-06
6.1733328e-06
6.1950432e-06
6.2191214e-06
6.2456758e-06
6.2748039e-06
6.3065933e-06
6.341122e-06
6.3784598e-06
6.4186691e-06
6.4618067e-06
6.5079258e-06
6.5570775e-06
6.6093143e-06
6.664693e-06
6.7232779e-06
6.7851446e-06
6.8503846e-06
6.9191091e-06
6.9914542e-06
7.0675857e-06
7.1477044e-06
7.2320517e-06
7.3209158e-06
7.414638e-06
7.51362e-06
7.6183322e-06
7.7293232e-06
7.8472302e-06
7.9727943e-06
8.1068738e-06
8.2504676e-06
8.4047338e-06
8.5710231e-06
8.7509149e-06
8.9462699e-06
9.1592764e-06
9.3925284e-06
9.6491192e-06
9.932743e-06
1.0247882e-05
1.0599937e-05
1.0995648e-05
1.1443175e-05
1.1953065e-05
1.2538308e-05
1.3215714e-05
1.4007219e-05
1.4941452e-05
1.6056973e-05
1.7406664e-05
1.9063932e-05
2.1133712e-05
2.3769989e-05
2.7203703e-05
3.1791584e-05
3.8096479e-05
4.7023133e-05
6.0036792e-05
7.9476582e-05
0.00010889893
0.00015319785
0.00021806366
0.00030835366
0.00042644256
0.00056926347
0.00073753443
0.00089512439
0.0011872609
5.914646e-06
5.9169241e-06
5.91929e-06
5.9216835e-06
5.924092e-06
5.9265135e-06
5.9289483e-06
5.9313971e-06
5.9338604e-06
5.9363381e-06
5.9388303e-06
5.9413365e-06
5.9438572e-06
5.9463941e-06
5.9489513e-06
5.9515369e-06
5.9541646e-06
5.9568554e-06
5.9596391e-06
5.9625562e-06
5.965659e-06
5.9690121e-06
5.9726931e-06
5.9767918e-06
5.9814101e-06