/*--------------------------------*- C++ -*----------------------------------*\
  =========                 |
  \\      /  F ield         | OpenFOAM: The Open Source CFD Toolbox
   \\    /   O peration     | Website:  https://openfoam.org
    \\  /    A nd           | Version:  12
     \\/     M anipulation  |
\*---------------------------------------------------------------------------*/
FoamFile
{
    format      ascii;
    class       volScalarField;
    location    "1900";
    object      nut;
}
// * * * * * * * * * * * * * * * * * * * * * * * * * * * * * * * * * * * * * //

dimensions      [0 2 -1 0 0 0 0];

internalField   nonuniform List<scalar> 
7480
(
1.2620488e-06
1.5194394e-06
1.8411729e-06
2.2168849e-06
2.6447528e-06
3.1212551e-06
3.6386027e-06
4.1841308e-06
4.7408955e-06
5.2886285e-06
5.8058511e-06
6.2735494e-06
6.6772183e-06
7.0082084e-06
7.263765e-06
7.4473734e-06
7.5615917e-06
7.638976e-06
7.6360862e-06
7.6137446e-06
7.565113e-06
7.4974528e-06
7.4175974e-06
7.331513e-06
7.2443711e-06
7.1606732e-06
7.084311e-06
7.0184659e-06
6.9654908e-06
6.9265341e-06
6.9010192e-06
6.8864634e-06
6.8788562e-06
6.8737153e-06
6.8673854e-06
6.8578504e-06
6.8447603e-06
6.8288651e-06
6.811235e-06
6.7926724e-06
6.7735245e-06
6.753824e-06
6.7335502e-06
6.7128056e-06
6.6918169e-06
6.6708284e-06
6.6500029e-06
6.6294022e-06
6.6090315e-06
6.5888895e-06
6.5689843e-06
6.549321e-06
6.529903e-06
6.5107263e-06
6.4917842e-06
6.4730722e-06
6.4545864e-06
6.4363207e-06
6.4182683e-06
6.4004286e-06
6.3827958e-06
6.3653599e-06
6.348113e-06
6.3310499e-06
6.3141658e-06
6.2974573e-06
6.2809207e-06
6.2645518e-06
6.2483466e-06
6.2323011e-06
6.2164113e-06
6.2006733e-06
6.1850838e-06
6.1696389e-06
6.1543351e-06
6.1391692e-06
6.1241382e-06
6.1092391e-06
6.0944691e-06
6.0798252e-06
6.0653048e-06
6.0509051e-06
6.0366234e-06
6.0224571e-06
6.0084035e-06
5.9944599e-06
5.9806238e-06
5.9668922e-06
5.9532626e-06
5.9397309e-06
5.9262955e-06
5.9129485e-06
5.8996936e-06
5.8865024e-06
5.8734125e-06
5.8602942e-06
5.8473701e-06
5.8338508e-06
5.822441e-06
5.8012888e-06
2.4034307e-05
1.1999112e-05
7.4139726e-06
4.9464669e-06
3.4231315e-06
2.4431111e-06
1.819311e-06
1.4397615e-06
1.2279484e-06
1.1347131e-06
1.1324139e-06
1.1934554e-06
1.2977491e-06
1.4350772e-06
1.5972861e-06
1.777505e-06
1.972015e-06
2.1783427e-06
2.4021765e-06
2.6527882e-06
2.9463657e-06
3.3168633e-06
3.7871091e-06
4.3246908e-06
4.9273332e-06
5.599355e-06
6.3387843e-06
7.1453683e-06
8.0046488e-06
8.8826678e-06
9.7355915e-06
1.0519397e-05
1.1198208e-05
1.1759242e-05
1.2215652e-05
1.2593961e-05
1.2921073e-05
1.3214984e-05
1.3481842e-05
1.3720036e-05
1.3927149e-05
1.4104585e-05
1.4258153e-05
1.4395226e-05
1.4521392e-05
1.4639277e-05
1.4749253e-05
1.485104e-05
1.4945078e-05
1.5032428e-05
1.5114064e-05
1.5190552e-05
1.5262106e-05
1.5328922e-05
1.5391316e-05
1.5449614e-05
1.5504037e-05
1.5554745e-05
1.5601953e-05
1.5645955e-05
1.5686772e-05
1.5724482e-05
1.5759221e-05
1.5791128e-05
1.5820345e-05
1.5847004e-05
1.5871211e-05
1.5893077e-05
1.5912705e-05
1.5930186e-05
1.5945615e-05
1.5959082e-05
1.5970667e-05
1.5980457e-05
1.5988539e-05
1.5994993e-05
1.5999897e-05
1.6003322e-05
1.6005336e-05
1.6006008e-05
1.6005399e-05
1.600357e-05
1.6000578e-05
1.5996479e-05
1.5991325e-05
1.5985167e-05
1.5978051e-05
1.5970026e-05
1.5961134e-05
1.5951415e-05
1.5940911e-05
1.5929674e-05
1.5917717e-05
1.5905134e-05
1.589183e-05
1.5878133e-05
1.5863494e-05
1.5848719e-05
1.5835266e-05
1.5805506e-05
0.00012140044
6.9990156e-05
4.6215185e-05
3.28738e-05
2.4222458e-05
1.8124319e-05
1.3648735e-05
1.0321642e-05
7.8533586e-06
6.0336935e-06
4.6986335e-06
3.7148412e-06
2.9831748e-06
2.4352962e-06
2.0233974e-06
1.7124321e-06
1.4783956e-06
1.3013169e-06
1.1689223e-06
1.0719218e-06
1.0036146e-06
9.6215794e-07
9.4072324e-07
9.8057424e-07
1.0928686e-06
1.28218e-06
1.5616292e-06
1.9212089e-06
2.3783218e-06
2.9794801e-06
3.8114476e-06
4.8490843e-06
6.0403188e-06
7.3308999e-06
8.6724372e-06
9.9938661e-06
1.1226366e-05
1.2325107e-05
1.3277662e-05
1.4100478e-05
1.4826342e-05
1.548793e-05
1.6106281e-05
1.6687909e-05
1.7230486e-05
1.7730802e-05
1.8190151e-05
1.8614699e-05
1.9011471e-05
1.9385246e-05
1.9738065e-05
2.0070783e-05
2.0384566e-05
2.0681152e-05
2.0962242e-05
2.1229056e-05
2.1482425e-05
2.1723108e-05
2.1951838e-05
2.2169141e-05
2.2375736e-05
2.2572222e-05
2.2759123e-05
2.2936907e-05
2.3105998e-05
2.3266784e-05
2.3419619e-05
2.3564834e-05
2.3702738e-05
2.3833618e-05
2.395775e-05
2.4075398e-05
2.4186813e-05
2.4292236e-05
2.4391902e-05
2.4486039e-05
2.4574864e-05
2.4658585e-05
2.4737404e-05
2.4811514e-05
2.4881099e-05
2.4946338e-05
2.5007401e-05
2.5064453e-05
2.511765e-05
2.5167147e-05
2.521309e-05
2.5255622e-05
2.5294879e-05
2.5331011e-05
2.5364133e-05
2.5394386e-05
2.5421843e-05
2.5446734e-05
2.5468928e-05
2.5489149e-05
2.5506096e-05
2.5523426e-05
2.5533879e-05
2.5548698e-05
0.00021782162
0.00016178093
0.00012192767
9.499134e-05
7.5891338e-05
6.1605392e-05
5.0485019e-05
4.1611459e-05
3.4442984e-05
2.8628117e-05
2.3911789e-05
2.0085901e-05
1.6976196e-05
1.4441634e-05
1.2370484e-05
1.0672633e-05
9.2775129e-06
8.1257781e-06
7.1704468e-06
6.3723014e-06
5.6988681e-06
5.1211514e-06
4.6139375e-06
4.1591138e-06
3.7427679e-06
3.3577681e-06
2.9971693e-06
2.6569421e-06
2.3428716e-06
2.0686704e-06
1.8498272e-06
1.7149845e-06
1.7673541e-06
2.0397942e-06
2.4938836e-06
3.1657537e-06
4.1360992e-06
5.416164e-06
6.8865019e-06
8.4653111e-06
1.0069182e-05
1.1607949e-05
1.3020301e-05
1.428466e-05
1.5415628e-05
1.6447416e-05
1.7413051e-05
1.8331084e-05
1.9204669e-05
2.0030036e-05
2.080547e-05
2.1534672e-05
2.2224233e-05
2.2879668e-05
2.3503864e-05
2.4098238e-05
2.4664352e-05
2.5204274e-05
2.5719987e-05
2.6212928e-05
2.6684276e-05
2.7135183e-05
2.756677e-05
2.7980035e-05
2.8375848e-05
2.8755005e-05
2.9118235e-05
2.946621e-05
2.9799549e-05
3.0118825e-05
3.042458e-05
3.0717326e-05
3.0997544e-05
3.1265695e-05
3.1522218e-05
3.1767533e-05
3.2002047e-05
3.2226147e-05
3.2440206e-05
3.2644585e-05
3.2839627e-05
3.3025664e-05
3.3203015e-05
3.3371989e-05
3.3532882e-05
3.3685984e-05
3.3831571e-05
3.3969916e-05
3.4101277e-05
3.4225921e-05
3.4344086e-05
3.4456033e-05
3.4561938e-05
3.4662166e-05
3.4756619e-05
3.4846357e-05
3.4929301e-05
3.5012733e-05
3.5075509e-05
3.5183786e-05
0.0002634623
0.00023047848
0.00019587032
0.00016608641
0.00014173189
0.00012183377
0.0001053572
9.1516868e-05
7.9765101e-05
6.9722066e-05
6.1114204e-05
5.3728422e-05
4.7386809e-05
4.1937277e-05
3.7250268e-05
3.3215173e-05
2.9737883e-05
2.6736556e-05
2.4140313e-05
2.1888523e-05
1.9928888e-05
1.8214309e-05
1.6703083e-05
1.5357632e-05
1.4144746e-05
1.3033925e-05
1.1997377e-05
1.1009933e-05
1.0044269e-05
9.0873481e-06
8.1066281e-06
7.1251948e-06
6.1397922e-06
5.2182455e-06
4.3799694e-06
3.6691556e-06
3.1176914e-06
2.7491485e-06
2.7266771e-06
3.0060662e-06
3.5829414e-06
4.5094325e-06
5.831277e-06
7.4035642e-06
9.1269892e-06
1.0895827e-05
1.2611262e-05
1.4212412e-05
1.5683372e-05
1.7042857e-05
1.832203e-05
1.9544307e-05
2.071754e-05
2.1839466e-05
2.2907549e-05
2.3924097e-05
2.4894658e-05
2.5824136e-05
2.6715237e-05
2.7569531e-05
2.8388807e-05
2.917519e-05
2.9930609e-05
3.0656613e-05
3.1354556e-05
3.2025739e-05
3.2671367e-05
3.3292518e-05
3.3890173e-05
3.4465248e-05
3.5018601e-05
3.555103e-05
3.6063285e-05
3.6556073e-05
3.7030064e-05
3.7485899e-05
3.7924189e-05
3.834552e-05
3.8750454e-05
3.9139531e-05
3.9513269e-05
3.9872167e-05
4.0216707e-05
4.0547353e-05
4.0864558e-05
4.1168756e-05
4.1460372e-05
4.1739817e-05
4.2007492e-05
4.2263794e-05
4.2509095e-05
4.274379e-05
4.2968176e-05
4.318276e-05
4.3387499e-05
4.3583818e-05
4.376865e-05
4.395412e-05
4.4098936e-05
4.4352889e-05
0.00028063386
0.0002659148
0.00024492575
0.00022210049
0.00020014425
0.00018009716
0.00016214195
0.000146141
0.00013187926
0.00011915153
0.00010778422
9.7631949e-05
8.8568609e-05
8.0481429e-05
7.3268155e-05
6.6835536e-05
6.1100653e-05
5.5988035e-05
5.1428851e-05
4.7360571e-05
4.3726629e-05
4.0475145e-05
3.7558574e-05
3.4932662e-05
3.2556196e-05
3.0389983e-05
2.8397692e-05
2.6545316e-05
2.4798239e-05
2.3130183e-05
2.1505841e-05
1.9894993e-05
1.826803e-05
1.6620412e-05
1.4926144e-05
1.322709e-05
1.1505516e-05
9.8034035e-06
8.2086264e-06
6.7804728e-06
5.5751328e-06
4.6501871e-06
4.0051157e-06
3.8232968e-06
4.03007e-06
4.6342858e-06
5.6974937e-06
7.1606401e-06
8.8751436e-06
1.0735431e-05
1.2622317e-05
1.4449012e-05
1.6174596e-05
1.7800099e-05
1.9347751e-05
2.08378e-05
2.2277429e-05
2.3664419e-05
2.4996446e-05
2.6275548e-05
2.7506162e-05
2.8691838e-05
2.9834559e-05
3.0935904e-05
3.1997765e-05
3.302208e-05
3.4010495e-05
3.4964424e-05
3.5885207e-05
3.677412e-05
3.7632333e-05
3.8460926e-05
3.9260917e-05
4.0033261e-05
4.0778858e-05
4.1498563e-05
4.2193193e-05
4.2863526e-05
4.3510307e-05
4.413425e-05
4.4736043e-05
4.5316346e-05
4.5875799e-05
4.641502e-05
4.6934608e-05
4.7435146e-05
4.79172e-05
4.8381323e-05
4.8828051e-05
4.9257918e-05
4.9671427e-05
5.0069108e-05
5.0451383e-05
5.0818904e-05
5.1171679e-05
5.1511548e-05
5.1834208e-05
5.2157903e-05
5.2415062e-05
5.2867448e-05
0.00028706821
0.00028137486
0.00027108759
0.00025730997
0.00024170907
0.00022561192
0.00020981703
0.0001947272
0.00018051477
0.00016723483
0.00015488801
0.00014345062
0.00013288724
0.00012315553
0.00011420915
0.00010599913
9.8475958e-05
9.1590441e-05
8.5294352e-05
7.9540812e-05
7.4284687e-05
6.9482802e-05
6.509401e-05
6.1078946e-05
5.7399806e-05
5.4020438e-05
5.0903664e-05
4.801271e-05
4.5313177e-05
4.2773136e-05
4.0359154e-05
3.8036831e-05
3.5768686e-05
3.3526502e-05
3.1280607e-05
2.9012717e-05
2.6708163e-05
2.4351364e-05
2.1944101e-05
1.9506747e-05
1.7061481e-05
1.4675497e-05
1.2383131e-05
1.0296695e-05
8.4628922e-06
6.9692191e-06
5.8412691e-06
5.1775717e-06
5.0588795e-06
5.4109932e-06
6.283161e-06
7.6492025e-06
9.343516e-06
1.1254882e-05
1.3254079e-05
1.5239994e-05
1.7158343e-05
1.8999388e-05
2.0776616e-05
2.2502857e-05
2.4180329e-05
2.5805426e-05
2.7376481e-05
2.8895586e-05
3.0365799e-05
3.1789117e-05
3.316684e-05
3.4500433e-05
3.5791544e-05
3.7041688e-05
3.8252199e-05
3.9424345e-05
4.0559349e-05
4.1658355e-05
4.272244e-05
4.3752633e-05
4.4749914e-05
4.5715221e-05
4.6649448e-05
4.7553457e-05
4.8428073e-05
4.9274097e-05
5.0092301e-05
5.0883433e-05
5.1648223e-05
5.238738e-05
5.3101595e-05
5.3791546e-05
5.4457892e-05
5.5101289e-05
5.5722361e-05
5.6321761e-05
5.6900027e-05
5.7457947e-05
5.7995571e-05
5.8515196e-05
5.9011042e-05
5.9508648e-05
5.9908538e-05
6.0611672e-05
0.00028994663
0.00028788827
0.00028348579
0.00027645121
0.00026716412
0.00025630679
0.00024454542
0.00023239524
0.00022021092
0.00020822307
0.00019657839
0.00018536968
0.00017465492
0.00016446845
0.0001548277
0.00014573756
0.00013719347
0.00012918391
0.00012169224
0.00011469796
0.00010817779
0.00010210664
9.6458345e-05
9.1205953e-05
8.6321928e-05
8.1778578e-05
7.7547216e-05
7.3598067e-05
6.9901225e-05
6.6427257e-05
6.3146542e-05
6.0028829e-05
5.704192e-05
5.4155003e-05
5.1337238e-05
4.8564705e-05
4.5790559e-05
4.2988064e-05
4.014151e-05
3.7238673e-05
3.4271714e-05
3.1238769e-05
2.8181763e-05
2.5096834e-05
2.202516e-05
1.9035017e-05
1.6169821e-05
1.3515086e-05
1.117265e-05
9.2119864e-06
7.6964267e-06
6.7015729e-06
6.3564823e-06
6.5653768e-06
7.3833526e-06
8.7323256e-06
1.0462982e-05
1.244858e-05
1.4554817e-05
1.6676028e-05
1.8756873e-05
2.0785627e-05
2.2768536e-05
2.4708849e-05
2.6602838e-05
2.8446139e-05
3.0237948e-05
3.1979691e-05
3.3672659e-05
3.5317641e-05
3.6915564e-05
3.8467611e-05
3.9974951e-05
4.1438673e-05
4.2859857e-05
4.4239569e-05
4.5578839e-05
4.6878662e-05
4.8140003e-05
4.9363795e-05
5.0550943e-05
5.1702327e-05
5.2818803e-05
5.3901208e-05
5.4950357e-05
5.596705e-05
5.6952069e-05
5.7906186e-05
5.8830153e-05
5.9724722e-05
6.0590613e-05
6.142858e-05
6.2239256e-05
6.3023548e-05
6.3781528e-05
6.4515976e-05
6.5219425e-05
6.5925735e-05
6.6498439e-05
6.7503743e-05
0.00029179269
0.00029102901
0.00028927975
0.00028608462
0.00028125475
0.00027488753
0.00026725494
0.00025868222
0.00024947247
0.00023987739
0.00023009481
0.00022027688
0.00021054
0.00020097304
0.0001916434
0.00018260146
0.0001738837
0.00016551541
0.00015751267
0.00014988407
0.00014263191
0.00013575355
0.00012924242
0.00012308869
0.00011727973
0.00011180075
0.00010663481
0.00010176284
9.7163976e-05
9.2816072e-05
8.8695973e-05
8.4779534e-05
8.104104e-05
7.7454148e-05
7.399144e-05
7.0628792e-05
6.7333456e-05
6.4073894e-05
6.082383e-05
5.7561083e-05
5.4265873e-05
5.0921186e-05
4.7505816e-05
4.401981e-05
4.044936e-05
3.6853287e-05
3.319767e-05
2.9546677e-05
2.5948623e-05
2.245163e-05
1.9118919e-05
1.6033339e-05
1.3314054e-05
1.1041604e-05
9.2722132e-06
8.1552755e-06
7.7337656e-06
7.96715e-06
8.8878177e-06
1.0329227e-05
1.2181394e-05
1.4295988e-05
1.653183e-05
1.8791736e-05
2.1031923e-05
2.3242388e-05
2.5421036e-05
2.7562132e-05
2.9658883e-05
3.1707716e-05
3.3707902e-05
3.5659371e-05
3.7562014e-05
3.941604e-05
4.1222016e-05
4.2980629e-05
4.469261e-05
4.6358747e-05
4.7979864e-05
4.9556795e-05
5.1090379e-05
5.2581459e-05
5.4030872e-05
5.5439453e-05
5.6808029e-05
5.8137422e-05
5.9428447e-05
6.0681914e-05
6.1898622e-05
6.3079374e-05
6.4224948e-05
6.5336158e-05
6.6413704e-05
6.7458578e-05
6.8470848e-05
6.9453782e-05
7.0398049e-05
7.13467e-05
7.2121691e-05
7.3479381e-05
0.00029347489
0.00029312487
0.00029241281
0.00029104531
0.0002887616
0.0002854167
0.00028099882
0.00027559789
0.00026935934
0.00026244619
0.00025501634
0.00024721211
0.00023915733
0.00023095784
0.00022270308
0.00021446807
0.00020631503
0.00019829493
0.00019044892
0.00018280952
0.00017540163
0.00016824364
0.00016134833
0.00015472361
0.00014837309
0.00014229663
0.00013649075
0.0001309488
0.00012566126
0.00012061606
0.000115799
0.0001111941
0.0001067835
0.00010254788
9.8466258e-05
9.451814e-05
9.0679794e-05
8.6925105e-05
8.3228232e-05
7.9564927e-05
7.5912301e-05
7.2250218e-05
6.8554726e-05
6.4810695e-05
6.0999075e-05
5.7130827e-05
5.319706e-05
4.9165122e-05
4.5095197e-05
4.0956479e-05
3.6800234e-05
3.2673606e-05
2.8628075e-05
2.4729776e-05
2.1032162e-05
1.7655349e-05
1.4707446e-05
1.2293909e-05
1.0466633e-05
9.4698444e-06
9.1751311e-06
9.6520559e-06
1.0790185e-05
1.2462866e-05
1.452543e-05
1.6815878e-05
1.9205417e-05
2.1621202e-05
2.4033878e-05
2.6431236e-05
2.8802572e-05
3.1137862e-05
3.3430749e-05
3.5678169e-05
3.7878348e-05
4.0030028e-05
4.2132553e-05
4.4185758e-05
4.6189738e-05
4.8144768e-05
5.0051268e-05
5.1909763e-05
5.3720846e-05
5.5485166e-05
5.7203407e-05
5.8876285e-05
6.0504537e-05
6.2088916e-05
6.3630186e-05
6.5129128e-05
6.6586514e-05
6.8003162e-05
6.9379788e-05
7.0717421e-05
7.2016084e-05
7.3279523e-05
7.449638e-05
7.5719638e-05
7.6725502e-05
7.8484322e-05
0.0002952648
0.00029503271
0.00029467991
0.00029406917
0.00029302734
0.00029139242
0.0002890513
0.00028595482
0.00028211216
0.00027757477
0.00027241915
0.00026673321
0.0002606073
0.00025412904
0.00024738051
0.00024043696
0.00023336629
0.00022622891
0.00021907795
0.00021195949
0.00020491298
0.00019797168
0.00019116324
0.00018451012
0.00017802999
0.00017173616
0.00016563792
0.0001597408
0.00015404681
0.00014855467
0.00014326018
0.00013815665
0.00013323499
0.00012848409
0.00012389077
0.00011944079
0.0001151179
0.00011090332
0.00010677654
0.00010271647
9.8701768e-05
9.4712404e-05
9.0726558e-05
8.6724802e-05
8.268687e-05
7.8602852e-05
7.4464747e-05
7.0248666e-05
6.5963761e-05
6.160192e-05
5.716014e-05
5.2675298e-05
4.8108145e-05
4.351797e-05
3.893202e-05
3.4399461e-05
2.9990985e-05
2.5788976e-05
2.1849588e-05
1.8347898e-05
1.5375341e-05
1.3003326e-05
1.14582e-05
1.0725034e-05
1.0829665e-05
1.1698774e-05
1.3210263e-05
1.5219299e-05
1.7547619e-05
2.0044566e-05
2.2615764e-05
2.5214816e-05
2.7818199e-05
3.0408649e-05
3.297232e-05
3.5500069e-05
3.7986459e-05
4.0427875e-05
4.2821775e-05
4.5166539e-05
4.7461214e-05
4.9705271e-05
5.1898497e-05
5.404092e-05
5.6132741e-05
5.8174293e-05
6.0166012e-05
6.2108412e-05
6.4002069e-05
6.5847611e-05
6.7645697e-05
6.939705e-05
7.1102322e-05
7.2762505e-05
7.4377518e-05
7.5951544e-05
7.7471051e-05
7.8999575e-05
8.026373e-05
8.247066e-05
0.00029723937
0.00029703627
0.00029679407
0.00029646086
0.00029595042
0.00029515628
0.0002939724
0.00029231199
0.00029011855
0.00028736797
0.00028406456
0.00028023428
0.00027591794
0.00027116545
0.00026603152
0.00026057257
0.0002548446
0.0002489017
0.00024279509
0.00023657244
0.00023027741
0.00022394953
0.0002176241
0.00021133226
0.00020510104
0.00019895344
0.00019290863
0.00018698207
0.00018118564
0.00017552773
0.00017001356
0.00016464542
0.0001594229
0.00015434323
0.00014940128
0.00014459011
0.00013990077
0.00013532199
0.00013084016
0.00012643991
0.00012210448
0.00011781681
0.00011355864
0.00010931169
0.00010505695
0.00010077856
9.6464374e-05
9.2096263e-05
8.7665391e-05
8.3162182e-05
7.8577636e-05
7.3921297e-05
6.9177617e-05
6.4348446e-05
5.9465354e-05
5.4520059e-05
4.9529374e-05
4.4535671e-05
3.9570735e-05
3.4715286e-05
3.0064606e-05
2.5667881e-05
2.168571e-05
1.8248997e-05
1.5445469e-05
1.3491996e-05
1.2421789e-05
1.2257407e-05
1.2932484e-05
1.4344855e-05
1.6338402e-05
1.8720728e-05
2.1327769e-05
2.4051591e-05
2.6832968e-05
2.9638095e-05
3.2443057e-05
3.5230178e-05
3.7987675e-05
4.0707886e-05
4.3385475e-05
4.6016683e-05
4.8598954e-05
5.1130563e-05
5.3610374e-05
5.603769e-05
5.8412146e-05
6.0733623e-05
6.3002194e-05
6.5218085e-05
6.7381629e-05
6.9493286e-05
7.1553502e-05
7.3563106e-05
7.5521814e-05
7.7434169e-05
7.9284307e-05
8.1146841e-05
8.269521e-05
8.5395108e-05
0.00029941873
0.00029922091
0.0002990084
0.00029876569
0.00029845737
0.00029802916
0.00029741353
0.00029653918
0.00029534083
0.00029376657
0.00029178156
0.00028936851
0.00028652588
0.00028326519
0.00027960803
0.00027558337
0.00027122521
0.00026657067
0.00026165845
0.0002565276
0.00025121657
0.00024576244
0.00024020043
0.00023456348
0.00022888197
0.00022318347
0.00021749264
0.00021183117
0.00020621768
0.00020066773
0.00019519389
0.00018980591
0.00018451085
0.00017931332
0.00017421557
0.0001692177
0.00016431774
0.00015951148
0.00015479229
0.00015015133
0.00014557776
0.00014105936
0.00013658249
0.00013213249
0.00012769355
0.00012325012
0.00011878857
0.00011429337
0.00010975134
0.00010515039
0.00010047848
9.5732015e-05
9.0900817e-05
8.5977171e-05
8.096862e-05
7.5873343e-05
7.0689344e-05
6.5427075e-05
6.0100048e-05
5.4748981e-05
4.9380175e-05
4.4030893e-05
3.8774978e-05
3.3713618e-05
2.8923085e-05
2.4557915e-05
2.0762988e-05
1.7635599e-05
1.5417314e-05
1.4127296e-05
1.3812184e-05
1.4397099e-05
1.5803885e-05
1.7848159e-05
2.032589e-05
2.3066444e-05
2.5955522e-05
2.8925853e-05
3.1935821e-05
3.4956167e-05
3.7966166e-05
4.0951836e-05
4.3903615e-05
4.6814706e-05
4.9680284e-05
5.249694e-05
5.5262265e-05
5.7974578e-05
6.0632743e-05
6.3236035e-05
6.5784038e-05
6.8276607e-05
7.0713707e-05
7.3095781e-05
7.5422164e-05
7.7697613e-05
7.9903736e-05
8.2126655e-05
8.3983233e-05
8.7218334e-05
0.00030180877
0.00030161082
0.00030140462
0.00030118776
0.00030094794
0.00030066195
0.00030029525
0.00029980417
0.00029914015
0.00029825492
0.00029710511
0.00029565559
0.00029388115
0.00029176688
0.00028930759
0.00028650672
0.000283375
0.00027992903
0.00027618996
0.00027218232
0.0002679329
0.00026346983
0.0002588218
0.00025401741
0.00024908463
0.00024405027
0.00023893969
0.00023377645
0.00022858207
0.00022337589
0.00021817492
0.00021299384
0.00020784506
0.00020273878
0.00019768306
0.00019268394
0.0001877454
0.00018286935
0.00017805545
0.00017330108
0.00016860144
0.00016394983
0.0001593378
0.00015475538
0.00015019106
0.00014563232
0.00014106688
0.00013648159
0.00013186349
0.00012720008
0.00012247872
0.00011769045
0.00011282528
0.00010787283
0.00010282889
9.7690007e-05
9.2450969e-05
8.7111705e-05
8.1660681e-05
7.6146269e-05
7.0528907e-05
6.4847278e-05
5.9124976e-05
5.3400125e-05
4.7690768e-05
4.2076873e-05
3.6664077e-05
3.1539556e-05
2.6880788e-05
2.282273e-05
1.9487393e-05
1.714915e-05
1.5775006e-05
1.5429906e-05
1.6066707e-05
1.7572183e-05
1.9742898e-05
2.2368107e-05
2.5276554e-05
2.8353184e-05
3.1526728e-05
3.4750505e-05
3.7991794e-05
4.1227882e-05
4.4443189e-05
4.7626746e-05
5.0770689e-05
5.3869362e-05
5.6918673e-05
5.9915662e-05
6.2858198e-05
6.5744794e-05
6.8574374e-05
7.1346546e-05
7.4059916e-05
7.6719184e-05
7.9303129e-05
8.1909705e-05
8.4095915e-05
8.7905091e-05
0.00030441265
0.00030421363
0.00030400783
0.00030379692
0.00030357744
0.00030334078
0.00030307187
0.00030274858
0.00030234227
0.00030181972
0.00030114576
0.00030028605
0.0002992095
0.00029789003
0.00029630764
0.00029444879
0.00029230638
0.00028987928
0.0002871718
0.00028419286
0.00028095533
0.00027747518
0.00027377079
0.00026986227
0.00026577085
0.00026151828
0.00025712637
0.00025261653
0.00024800937
0.00024332444
0.00023857994
0.00023379254
0.00022897736
0.00022414784
0.00021931578
0.0002144913
0.00020968279
0.00020489685
0.00020013816
0.00019540932
0.00019071087
0.00018604136
0.00018139745
0.00017677402
0.00017216423
0.00016755967
0.00016295113
0.0001583284
0.00015368067
0.00014899684
0.0001442653
0.00013947576
0.00013461806
0.00012968151
0.00012465759
0.00011953958
0.00011432016
0.00010899454
0.00010355124
9.8006593e-05
9.2346361e-05
8.6575001e-05
8.0702303e-05
7.4744374e-05
6.8715111e-05
6.2635413e-05
5.656799e-05
5.052406e-05
4.4591207e-05
3.887774e-05
3.3478304e-05
2.8618139e-05
2.4392431e-05
2.1008932e-05
1.86412e-05
1.7335741e-05
1.7114202e-05
1.7944422e-05
1.9658847e-05
2.2037692e-05
2.4868268e-05
2.7984957e-05
3.1276814e-05
3.4672094e-05
3.8122044e-05
4.1592659e-05
4.5060396e-05
4.850878e-05
5.1926027e-05
5.5303616e-05
5.8635333e-05
6.1916631e-05
6.5144115e-05
6.8315605e-05
7.1428243e-05
7.4486126e-05
7.7464686e-05
8.0473856e-05
8.300756e-05
8.7425117e-05
0.00030723344
0.00030703329
0.00030682663
0.00030661625
0.0003064016
0.00030617987
0.00030594526
0.00030568803
0.00030539387
0.00030504387
0.00030461532
0.0003040829
0.00030342035
0.000302602
0.00030160421
0.00030040647
0.00029899211
0.00029734874
0.00029546836
0.00029334728
0.00029098588
0.00028838821
0.00028556155
0.00028251596
0.00027926378
0.00027581912
0.00027219739
0.00026841481
0.00026448806
0.00026043383
0.00025626852
0.00025200799
0.00024766734
0.00024326077
0.00023880149
0.00023430158
0.00022977193
0.00022522206
0.00022066002
0.0002160922
0.00021152325
0.00020695601
0.00020239154
0.00019782916
0.00019326642
0.00018869914
0.00018412182
0.00017952768
0.00017490891
0.00017025687
0.00016556207
0.00016081509
0.00015600647
0.00015112624
0.00014616497
0.00014111427
0.00013596576
0.00013071236
0.00012534324
0.00011985947
0.00011425357
0.00010852222
0.00010266486
9.6676047e-05
9.058427e-05
8.4367522e-05
7.80693e-05
7.1694537e-05
6.5273851e-05
5.8867691e-05
5.2512686e-05
4.6304561e-05
4.0335337e-05
3.4753156e-05
2.9756233e-05
2.5484748e-05
2.2202127e-05
1.995989e-05
1.8866184e-05
1.8945707e-05
2.0097719e-05
2.2119931e-05
2.4779792e-05
2.7868898e-05
3.1232652e-05
3.4767366e-05
3.8403517e-05
4.2093026e-05
4.5802451e-05
4.950842e-05
5.3194296e-05
5.6848067e-05
6.0460915e-05
6.402664e-05
6.7539287e-05
7.1001164e-05
7.4383336e-05
7.7807535e-05
8.0701351e-05
8.5755014e-05
0.00031027447
0.00031007323
0.0003098655
0.00030965435
0.00030944008
0.00030922185
0.00030899763
0.00030876357
0.00030851336
0.0003082377
0.00030792406
0.00030755694
0.00030711834
0.00030658866
0.00030594764
0.00030517533
0.000304253
0.0003031639
0.00030189376
0.00030043123
0.00029876805
0.00029689909
0.0002948223
0.00029253854
0.0002900513
0.00028736645
0.00028449187
0.0002814371
0.00027821299
0.00027483132
0.0002713045
0.00026764528
0.0002638665
0.00025998084
0.00025600075
0.00025193818
0.00024780451
0.00024361033
0.00023936527
0.00023507784
0.00023075526
0.00022640335
0.00022202645
0.00021762734
0.00021320725
0.00020876575
0.0002043009
0.00019980941
0.00019528667
0.00019072697
0.0001861235
0.00018146882
0.00017675504
0.00017197366
0.00016711593
0.0001621734
0.00015713755
0.00015200051
0.00014675232
0.00014138778
0.00013589984
0.00013028201
0.00012452953
0.00011863517
0.00011260795
0.00010642911
0.00010012907
9.369378e-05
8.7139205e-05
8.0493688e-05
7.3775733e-05
6.7028827e-05
6.0300746e-05
5.367083e-05
4.7214489e-05
4.1048029e-05
3.5377029e-05
3.035431e-05
2.621474e-05
2.3116204e-05
2.1179871e-05
2.0494835e-05
2.1030065e-05
2.2620368e-05
2.5034538e-05
2.803537e-05
3.1427498e-05
3.5071642e-05
3.8873291e-05
4.2767491e-05
4.6709054e-05
5.0666401e-05
5.4617108e-05
5.8545326e-05
6.2438048e-05
6.6293035e-05
7.0074814e-05
7.391597e-05
7.7174283e-05
8.2881681e-05
0.0003135393
0.00031333698
0.00031312816
0.00031291597
0.00031270093
0.0003124828
0.00031226086
0.00031203368
0.00031179872
0.00031155186
0.00031128703
0.00031099594
0.00031066804
0.00031029068
0.00030984951
0.00030932903
0.00030871316
0.00030798594
0.00030713209
0.00030613756
0.00030498998
0.00030367894
0.00030219624
0.000300536
0.00029869468
0.000296671
0.00029446582
0.00029208197
0.00028952398
0.00028679791
0.00028391101
0.00028087153
0.00027768848
0.00027437141
0.00027093022
0.00026737502
0.00026371589
0.00025996275
0.00025612514
0.00025221201
0.00024823157
0.00024419112
0.0002400969
0.000235954
0.00023176622
0.00022753598
0.00022326434
0.00021895099
0.00021459432
0.0002101915
0.00020573847
0.00020123023
0.00019666098
0.00019202412
0.00018731243
0.00018251844
0.00017763433
0.00017265243
0.00016756381
0.00016236118
0.00015703705
0.00015158379
0.00014599465
0.00014026111
0.00013438283
0.00012834771
0.0001221637
0.00011582309
0.00010932571
0.00010268433
9.5905033e-05
8.9009698e-05
8.2015552e-05
7.4966329e-05
6.7899925e-05
6.0869908e-05
5.3995266e-05
4.7346177e-05
4.1091851e-05
3.540864e-05
3.0522306e-05
2.6642266e-05
2.3915818e-05
2.2490034e-05
2.2395189e-05
2.3513916e-05
2.5631985e-05
2.8497734e-05
3.1882135e-05
3.5610338e-05
3.9560181e-05
4.3647476e-05
4.7813654e-05
5.2018091e-05
5.6230496e-05
6.0437187e-05
6.4591086e-05
6.883282e-05
7.2446181e-05
7.8808414e-05
0.00031703162
0.00031682822
0.0003166183
0.00031640503
0.00031618895
0.00031597
0.00031574786
0.00031552197
0.00031529132
0.00031505421
0.00031480795
0.00031454857
0.00031427058
0.00031396684
0.00031362854
0.00031324537
0.00031280572
0.00031229709
0.00031170645
0.00031102072
0.00031022715
0.00030931377
0.0003082697
0.0003070854
0.00030575294
0.00030426608
0.00030262033
0.000300813
0.00029884307
0.00029671112
0.00029441921
0.0002919707
0.00028937009
0.0002866229
0.00028373546
0.00028071479
0.00027756841
0.0002743042
0.00027093017
0.00026745428
0.00026388428
0.00026022752
0.00025649079
0.00025268014
0.00024880076
0.00024485684
0.00024085148
0.00023678661
0.00023266302
0.0002284803
0.00022423691
0.0002199302
0.00021555659
0.00021111154
0.00020658973
0.00020198519
0.00019729139
0.00019250154
0.00018760795
0.00018260319
0.00017747975
0.00017222985
0.00016684602
0.0001613195
0.00015564544
0.00014981396
0.00014382298
0.00013766617
0.00013133929
0.00012484143
0.00011816916
0.00011134099
0.00010434817
9.7223376e-05
8.9976402e-05
8.2633948e-05
7.5255434e-05
6.788401e-05
6.0603597e-05
5.3525112e-05
4.6770071e-05
4.0517575e-05
3.4977689e-05
3.0386222e-05
2.6937334e-05
2.4820964e-05
2.4115351e-05
2.4754879e-05
2.6552646e-05
2.9254485e-05
3.2606199e-05
3.6400227e-05
4.0485959e-05
4.4758801e-05
4.9144146e-05
5.3598757e-05
5.8051332e-05
6.264278e-05
6.6576796e-05
7.3565991e-05
0.00032075528
0.00032055078
0.00032033975
0.00032012536
0.00031990818
0.00031968818
0.00031946515
0.00031923881
0.00031900869
0.00031877408
0.00031853384
0.0003182862
0.00031802854
0.00031775725
0.00031746751
0.00031715327
0.00031680719
0.00031642079
0.00031598455
0.00031548822
0.00031492103
0.00031427207
0.00031353052
0.00031268604
0.00031172895
0.00031065054
0.00030944319
0.00030810055
0.00030661756
0.00030499053
0.00030321713
0.00030129632
0.00029922829
0.00029701443
0.00029465717
0.00029215992
0.00028952695
0.00028676322
0.00028387425
0.00028086595
0.00027774448
0.00027451604
0.00027118674
0.0002677624
0.00026424843
0.00026064964
0.00025697013
0.00025321314
0.00024938102
0.00024547516
0.0002414959
0.00023744261
0.00023331366
0.00022910651
0.00022481767
0.0002204429
0.00021597722
0.0002114151
0.00020675024
0.00020197598
0.00019708538
0.00019207111
0.00018692576
0.00018164097
0.00017620999
0.00017062387
0.00016487645
0.00015896067
0.00015286963
0.00014659813
0.00014014054
0.00013349992
0.00012666005
0.00011966054
0.00011247072
0.00010512207
9.7632042e-05
9.002696e-05
8.2346629e-05
7.4652032e-05
6.7011422e-05
5.9524118e-05
5.2323922e-05
4.5570505e-05
3.9460103e-05
3.4231912e-05
3.0132754e-05
2.7383701e-05
2.6107037e-05
2.6285562e-05
2.7763605e-05
3.0292413e-05
3.3600213e-05
3.7451434e-05
4.1666298e-05
4.6127538e-05
5.0708035e-05
5.5528038e-05
5.9699973e-05
6.7233757e-05
0.00032471422
0.00032450861
0.00032429643
0.00032408091
0.0003238626
0.00032364148
0.00032341738
0.00032319008
0.00032295931
0.0003227247
0.00032248573
0.00032224162
0.00032199117
0.0003217327
0.00032146381
0.00032118129
0.00032088098
0.00032055777
0.00032020553
0.0003198172
0.00031938488
0.00031890003
0.00031835361
0.00031773636
0.00031703899
0.00031625244
0.00031536808
0.00031437786
0.00031327456
0.0003120518
0.00031070422
0.00030922747
0.00030761832
0.00030587456
0.0003039951
0.00030197986
0.00029982971
0.00029754647
0.00029513271
0.0002925917
0.00028992727
0.00028714364
0.00028424533
0.00028123699
0.00027812323
0.00027490846
0.00027159676
0.00026819176
0.00026469647
0.00026111324
0.00025744363
0.00025368839
0.0002498474
0.0002459197
0.00024190346
0.000237796
0.0002335939
0.00022929301
0.00022488846
0.00022037474
0.00021574587
0.00021099534
0.00020611635
0.00020110124
0.00019594282
0.00019063281
0.00018516367
0.00017952764
0.00017371675
0.00016772367
0.00016154048
0.00015516427
0.00014858293
0.00014180817
0.00013481659
0.00012764554
0.00012026613
0.00011270709
0.00010498218
9.7121479e-05
8.9161772e-05
8.1154646e-05
7.3174207e-05
6.5313992e-05
5.7693715e-05
5.0472366e-05
4.3848006e-05
3.8065455e-05
3.3393767e-05
3.0080345e-05
2.8288579e-05
2.804517e-05
2.9225802e-05
3.1591932e-05
3.4858159e-05
3.877449e-05
4.3095306e-05
4.7869198e-05
5.2096335e-05
5.9981793e-05
0.00032891253
0.00032870577
0.00032849242
0.00032827573
0.00032805626
0.00032783399
0.00032760877
0.00032738037
0.0003271486
0.00032691319
0.00032667385
0.00032643018