/*--------------------------------*- C++ -*----------------------------------*\
  =========                 |
  \\      /  F ield         | OpenFOAM: The Open Source CFD Toolbox
   \\    /   O peration     | Website:  https://openfoam.org
    \\  /    A nd           | Version:  12
     \\/     M anipulation  |
\*---------------------------------------------------------------------------*/
FoamFile
{
    format      ascii;
    class       volScalarField;
    location    "1900";
    object      p;
}
// * * * * * * * * * * * * * * * * * * * * * * * * * * * * * * * * * * * * * //

dimensions      [0 2 -2 0 0 0 0];

internalField   nonuniform List<scalar> 
7480
(
0.0060437312
0.0060764033
0.0060415754
0.0060315433
0.0060521047
0.0060672163
0.0060702156
0.0060382455
0.0059669459
0.005877066
0.0057605982
0.0056176802
0.0054535649
0.005274382
0.0050841038
0.0048941678
0.0047019636
0.0045129259
0.0043294915
0.0041575437
0.003993172
0.0038373139
0.0036934325
0.0035631805
0.0034464848
0.0033440192
0.0032563514
0.0031836142
0.0031251687
0.003078916
0.0030431973
0.0030145591
0.0029875665
0.002958713
0.0029261554
0.0028898602
0.0028517386
0.002813792
0.0027760098
0.0027378274
0.0026988838
0.002659187
0.0026196221
0.0025803322
0.0025408504
0.002501261
0.0024620514
0.0024234589
0.0023849492
0.0023462947
0.0023077442
0.0022695774
0.0022315337
0.002193292
0.0021551287
0.0021171653
0.0020790906
0.002040818
0.0020025925
0.0019643529
0.0019257927
0.0018871433
0.0018483933
0.0018092703
0.0017699527
0.0017304322
0.0016905042
0.0016503
0.0016097934
0.0015688359
0.0015275083
0.0014857683
0.0014435807
0.0014009326
0.0013577795
0.001314137
0.0012699708
0.0012252577
0.0011799888
0.0011341535
0.0010877425
0.0010407499
0.00099317472
0.00094502086
0.00089630142
0.00084703621
0.00079726709
0.00074703559
0.0006964577
0.00064557561
0.00059476359
0.00054383168
0.0004943051
0.00044419199
0.0004008894
0.00035141666
0.00033413634
0.00025138045
0.00055828252
-0.00046957112
0.005964356
0.0059919208
0.0059582257
0.0059688761
0.005999602
0.0060184761
0.0060120454
0.0059828693
0.0059357986
0.0058641465
0.0057645138
0.0056380944
0.0054892728
0.0053229071
0.005145316
0.0049590295
0.0047719745
0.0045848666
0.0044009223
0.0042273369
0.0040610867
0.0039028594
0.0037551203
0.003620205
0.0034991129
0.0033923229
0.0033002064
0.0032228261
0.003159329
0.0031073614
0.0030656393
0.0030314908
0.0030000276
0.00296805
0.0029338351
0.0028970739
0.0028592326
0.0028218318
0.0027844428
0.0027463341
0.0027072083
0.0026672184
0.0026273579
0.0025877907
0.0025480402
0.0025081857
0.0024687082
0.0024298446
0.0023910668
0.0023521544
0.0023133559
0.0022749482
0.0022366684
0.0021981974
0.0021598144
0.00212164
0.0020833616
0.0020448937
0.0020064821
0.0019680641
0.0019293325
0.00189052
0.0018516143
0.0018123426
0.0017728839
0.0017332287
0.001693172
0.0016528456
0.0016122226
0.0015711542
0.001529721
0.0014878806
0.0014455975
0.0014028585
0.0013596188
0.0013158941
0.0012716495
0.0012268618
0.0011815219
0.001135619
0.0010891436
0.0010420897
0.00099445611
0.00094624663
0.00089747419
0.00084815851
0.00079834132
0.00074806403
0.00069744253
0.00064651893
0.00059566751
0.00054469802
0.00049513626
0.00044498921
0.00040165677
0.00035215421
0.00033483351
0.00025218278
0.0005591384
-0.00046890265
0.0059022443
0.0059418779
0.0059323263
0.005948266
0.0059732995
0.0059846394
0.0059747846
0.0059474634
0.0058989028
0.0058211185
0.0057158816
0.0055853285
0.0054334405
0.0052652868
0.0050865644
0.0049007279
0.004715821
0.0045318232
0.0043524081
0.0041834174
0.0040233821
0.0038721006
0.0037312477
0.0036033083
0.0034895843
0.003390251
0.003305542
0.0032352088
0.0031781693
0.0031322232
0.003094386
0.0030613111
0.0030292455
0.0029951681
0.0029578026
0.0029171232
0.0028750227
0.0028337625
0.0027934424
0.0027534528
0.0027133694
0.0026731114
0.0026333914
0.0025940394
0.0025543529
0.0025143865
0.0024746997
0.0024355962
0.0023965772
0.0023574408
0.0023184334
0.0022798253
0.0022413495
0.0022026901
0.0021641311
0.0021257889
0.0020873469
0.0020487209
0.0020101585
0.0019715947
0.001932721
0.0018937731
0.0018547368
0.0018153386
0.001775759
0.0017359874
0.0016958183
0.0016553845
0.0016146581
0.00157349
0.0015319616
0.0014900296
0.0014476588
0.0014048357
0.0013615153
0.0013177133
0.0012733947
0.0012285361
0.0011831283
0.0011371603
0.0010906226
0.001043509
0.0009958183
0.00094755411
0.0008987293
0.00084936347
0.00079949828
0.00074917504
0.00069850961
0.00064754395
0.00059665246
0.00054564449
0.00049604663
0.00044586413
0.00040250102
0.00035296405
0.00033562431
0.00025305678
0.00056003771
-0.00046824522
0.0058449301
0.0058907244
0.0058929194
0.0059074722
0.0059279715
0.0059374122
0.005928735
0.0059020764
0.005853542
0.0057787403
0.0056795297
0.0055569953
0.0054140644
0.0052550879
0.0050851039
0.0049077593
0.0047296429
0.0045513814
0.0043765593
0.0042096544
0.0040509044
0.0038996642
0.0037577069
0.0036276635
0.0035108674
0.0034076485
0.0033184817
0.0032434607
0.0031820763
0.0031329559
0.003092779
0.0030585108
0.0030274203
0.0029961271
0.0029627014
0.0029267762
0.0028889332
0.0028499632
0.0028102091
0.0027695286
0.002727685
0.0026849507
0.0026427127
0.0026013555
0.0025603805
0.0025197399
0.0024798568
0.0024408108
0.0024018513
0.0023626725
0.0023235377
0.0022847635
0.0022461077
0.0022072694
0.0021685411
0.0021300328
0.0020914258
0.0020526411
0.0020139287
0.0019752197
0.0019362042
0.001897122
0.0018579562
0.0018184316
0.0017787316
0.0017388436
0.0016985613
0.0016580192
0.0016171882
0.001575919
0.0015342936
0.0014922681
0.0014498073
0.0014068978
0.0013634942
0.0013196125
0.0012752172
0.0012302851
0.0011848066
0.0011387709
0.0010921682
0.0010449923
0.00099724181
0.00094892032
0.00090004058
0.00085062211
0.00080070649
0.00075033493
0.00069962325
0.00064861329
0.00059767946
0.00054663081
0.00049699451
0.00044677438
0.00040337758
0.0003538031
0.00033644602
0.0002538221
0.00056092195
-0.00046765601
0.005789971
0.0058389808
0.005850249
0.0058667453
0.0058861593
0.0058947826
0.0058859409
0.0058589347
0.0058111518
0.0057390449
0.005643146
0.0055242635
0.0053851219
0.0052298547
0.0050632939
0.0048891187
0.0047132296
0.0045372218
0.004364441
0.0041989077
0.0040418221
0.003892491
0.0037525886
0.0036245454
0.0035096748
0.0034083502
0.0033209253
0.0032473959
0.003187114
0.0031384633
0.0030980863
0.003063017
0.0030305162
0.002997296
0.0029618128
0.002924476
0.0028859583
0.0028469622
0.0028084001
0.0027701599
0.0027316053
0.0026924136
0.0026525656
0.0026121097
0.0025711133
0.0025295238
0.0024881165
0.0024475624
0.0024074485
0.002367547
0.0023280765
0.0022892303
0.0022505765
0.0022116995
0.0021728859
0.0021342632
0.0020955265
0.002056611
0.002017771
0.0019789321
0.0019397854
0.0019005789
0.0018612917
0.0018216472
0.0017818324
0.0017418324
0.0017014404
0.0016607928
0.0016198592
0.0015784899
0.001536768
0.0014946489
0.0014520975
0.0014091003
0.001365612
0.0013216485
0.0012771743
0.0012321661
0.0011866143
0.0011405078
0.001093837
0.0010465956
0.00099878206
0.00095039992
0.00090146187
0.00085198735
0.00080201787
0.00075159457
0.00070083323
0.00064977556
0.000598796
0.00054770335
0.00049802504
0.00044776399
0.00040432916
0.00035471348
0.0003373319
0.00025461421
0.00056183493
-0.00046696072
0.0057377001
0.005788706
0.0058072416
0.0058258965
0.0058441112
0.0058512833
0.0058417566
0.0058145941
0.0057675879
0.0056974741
0.0056043531
0.0054892146
0.0053546157
0.0052043564
0.0050429311
0.0048739298
0.0047026781
0.0045312017
0.0043626816
0.0042003881
0.0040461557
0.0038992887
0.0037614036
0.0036347513
0.0035206902
0.0034197112
0.0033321182
0.003257886
0.0031964225
0.0031462158
0.0031042218
0.0030676586
0.0030339158
0.0029999481
0.0029642978
0.0029270782
0.0028885505
0.0028492416
0.0028099618
0.0027706074
0.0027309406
0.0026910793
0.0026508936
0.0026108817
0.0025714688
0.0025323537
0.0024933236
0.0024541754
0.0024146841
0.0023746899
0.0023345126
0.0022947588
0.0022553016
0.0022158664
0.0021767597
0.0021380418
0.002099272
0.0020603135
0.0020214107
0.0019824911
0.0019432518
0.0019039547
0.001864573
0.0018248295
0.0017849184
0.0017448226
0.0017043343
0.0016635934
0.0016225678
0.0015811074
0.0015392971
0.0014970912
0.0014544551
0.0014113753
0.0013678062
0.0013237644
0.0012792139
0.0012341315
0.0011885078
0.0011423316
0.0010955932
0.0010482864
0.0010004096
0.00095196624
0.00090296909
0.00085343751
0.00080341296
0.00075293654
0.00070212398
0.00065101693
0.00059998978
0.00054885122
0.00049912864
0.0004488246
0.00040534834
0.00035568864
0.00033827683
0.00025546608
0.00056275456
-0.00046610765
0.0056878934
0.0057400053
0.0057640484
0.0057842953
0.0058013078
0.0058071814
0.0057971645
0.0057700453
0.0057237784
0.0056555297
0.0055652622
0.0054539674
0.005323938
0.0051786195
0.0050221715
0.0048580832
0.004691191
0.0045237792
0.0043588219
0.0041994406
0.0040474812
0.0039026134
0.0037664271
0.0036410476
0.003527823
0.0034272843
0.0033397459
0.0032651836
0.0032030536
0.0031519616
0.0031090476
0.0030715718
0.0030370194
0.0030025195
0.002966544
0.0029290472
0.0028902833
0.002850812
0.0028114043
0.0027720114
0.002732437
0.0026926051
0.0026522964
0.0026119773
0.0025720064
0.0025323579
0.0024928279
0.0024534029
0.0024144685
0.0023759189
0.0023374911
0.0022990011
0.0022602181
0.0022209663
0.002181564
0.0021423512
0.0021030917
0.002063766
0.0020246684
0.0019856751
0.001946395
0.0019070601
0.001867629
0.001827824
0.0017878514
0.0017476891
0.0017071288
0.0016663156
0.0016252161
0.0015836805
0.0015417958
0.0014995154
0.0014568055
0.0014136527
0.0013700115
0.0013258988
0.0012812785
0.0012361276
0.0011904368
0.001144195
0.0010973926
0.0010500232
0.0010020855
0.00095358289
0.00090452811
0.00085494056
0.00080486169
0.0007543326
0.00070346897
0.00065231247
0.00060123736
0.00055005236
0.00050028448
0.00044993653
0.00040641644
0.00035671079
0.00033926474
0.00025635723
0.0005636434
-0.00046508531
0.0056401589
0.0056925143
0.0057205938
0.0057420571
0.0057581014
0.0057629524
0.0057525861
0.0057255918
0.0056800996
0.0056137051
0.005526257
0.0054186671
0.0052930059
0.0051524196
0.0050007676
0.0048414276
0.0046788208
0.0045154017
0.0043539995
0.0041975955
0.0040480417
0.0039053702
0.003771072
0.0036471492
0.003534927
0.0034349776
0.0033476326
0.0032728855
0.0032102046
0.0031582497
0.0031143511
0.0030758538
0.0030403594
0.0030051677
0.0029687251
0.0029309234
0.0028920005
0.0028524588
0.0028129832
0.0027735367
0.0027339071
0.0026939931
0.0026536455
0.0026132988
0.0025732947
0.002533598
0.0024939655
0.0024544058
0.0024152356
0.0023763726
0.0023375865
0.0022987663
0.0022601795
0.0022218998
0.0021836781
0.0021453296
0.0021066371
0.0020675112
0.0020282917
0.001989022
0.0019494514
0.0019099075
0.0018703724
0.0018305156
0.0017905129
0.001750319
0.001709719
0.0016688647
0.0016277193
0.0015861324
0.0015441941
0.0015018573
0.0014590897
0.001415878
0.001372177
0.0013280045
0.0012833243
0.0012381137
0.0011923635
0.0011460629
0.0010992023
0.0010517756
0.0010037815
0.00095522349
0.00090611438
0.00085647363
0.00080634275
0.00075576286
0.00070484966
0.00065364484
0.0006025225
0.00055129158
0.00050147831
0.00045108643
0.00040752078
0.00035776796
0.00034028416
0.00025727196
0.0005644711
-0.0004638728
0.0055941684
0.0056460192
0.0056769309
0.0056993431
0.0057146372
0.0057186744
0.0057080577
0.0056812825
0.0056366492
0.0055721101
0.0054874241
0.0053834213
0.0052619898
0.0051260103
0.0049790598
0.0048243902
0.0046660645
0.0045066377
0.004348829
0.0041954639
0.0040484119
0.0039079927
0.0037756202
0.0036531883
0.003542
0.003442667
0.0033555361
0.0032806137
0.0032173808
0.0031645574
0.0031196638
0.0030801607
0.0030437367
0.0030078387
0.0029709381
0.0029328589
0.002893782
0.0028541422
0.0028145538
0.002774991
0.0027352549
0.0026952654
0.0026549034
0.0026145552
0.0025745424
0.0025348235
0.0024951786
0.0024556198
0.0024164091
0.0023774578
0.002338553
0.0022996234
0.0022609165
0.0022224909
0.0021839816
0.0021453538
0.0021068793
0.0020685095
0.0020300635
0.001991349
0.0019521888
0.0019127839
0.0018731899
0.0018331668
0.0017929978
0.0017526998
0.001712045
0.0016711641
0.001629997
0.0015883849
0.0015464198
0.0015040517
0.0014612485
0.0014179975
0.0013742539
0.0013300369
0.0012853102
0.0012400518
0.0011942529
0.001147903
0.0011009927
0.0010535162
0.0010054723
0.00095686474
0.00090770642
0.00085801693
0.0008078379
0.00075721053
0.00070625055
0.00065499975
0.00060383206
0.00055255673
0.00050269887
0.00045226387
0.00040865158
0.00035885101
0.00034132628
0.00025820107
0.00056520976
-0.00046244082
0.0055496344
0.0056003976
0.0056331336
0.0056562211
0.0056709127
0.0056743024
0.005663539
0.0056370936
0.0055934146
0.0055307475
0.0054487962
0.0053483111
0.0052310166
0.0050995497
0.0049572207
0.0048071471
0.0046530795
0.0044976206
0.0043433969
0.0041930907
0.0040485824
0.003910426
0.0037799884
0.0036590647
0.0035489342
0.0034502415
0.0033633479
0.0032882714
0.0032245119
0.003170854
0.0031249944
0.0030845104
0.0030471741
0.003010574
0.002973214
0.0029348459
0.0028955971
0.0028558405
0.0028161266
0.0027764456
0.0027366147
0.002696562
0.0026561802
0.0026158142
0.0025757657
0.0025359986
0.0024963193
0.0024567394
0.0024174977
0.0023785186
0.0023396055
0.002300684
0.0022619539
0.0022234324
0.0021848045
0.0021461016
0.0021075649
0.002069092
0.0020303819
0.0019915365
0.0019527604
0.0019138839
0.0018747408
0.0018351526
0.0017952438
0.0017550214
0.0017143026
0.0016733158
0.0016320679
0.0015904096
0.0015484225
0.0015060397
0.0014632221
0.0014199542
0.0013761898
0.0013319481
0.0012871926
0.0012419022
0.0011960686
0.0011496818
0.001102733
0.0010552166
0.0010071318
0.00095848261
0.00090928212
0.00085955015
0.00080932846
0.00075865844
0.00070765587
0.00065636273
0.0006051527
0.00055383556
0.00050393487
0.00045345845
0.00040979913
0.00035995092
0.00034238251
0.00025913598
0.00056583214
-0.00046075618
0.0055063107
0.0055555535
0.0055892731
0.0056127487
0.005626925
0.0056297984
0.0056189833
0.0055929697
0.0055503342
0.005489567
0.0054103418
0.0053133285
0.0052000982
0.0050730641
0.0049352856
0.0047897401
0.0046399032
0.0044883856
0.004337732
0.004190499
0.0040485677
0.003912688
0.0037841976
0.003664801
0.0035557528
0.0034577251
0.0033710933
0.0032958882
0.0032316322
0.0031771739
0.0031303743
0.0030889269
0.0030506899
0.0030133872
0.0029755565
0.0029368846
0.0028974498
0.0028575675
0.0028177269
0.002777929
0.0027380042
0.0026978844
0.0026574733
0.0026170812
0.0025769905
0.0025371753
0.0024974616
0.0024578565
0.0024185791
0.002379564
0.0023406219
0.0023016759
0.0022629124
0.0022243547
0.0021857269
0.0021470345
0.0021084596
0.0020698883
0.0020310902
0.0019922139
0.0019534255
0.0019143563
0.0018750018
0.0018355841
0.0017960088
0.0017561368
0.0017157974
0.0016750968
0.0016339849
0.0015923281
0.0015502826
0.0015078445
0.0014649958
0.0014217133
0.0013779404
0.0013336916
0.0012889266
0.0012436229
0.0011977719
0.001151364
0.0011043907
0.001056847
0.0010087326
0.00096005179
0.00091081817
0.00086105181
0.0008107947
0.00076008845
0.00070904895
0.00065771845
0.00060647035
0.00055511513
0.00050517442
0.00045465922
0.00041095322
0.00036105814
0.00034344386
0.00026006702
0.00056631338
-0.00045878146
0.0054639906
0.0055114023
0.0055454177
0.0055689983
0.0055826974
0.0055851471
0.0055743528
0.0055488519
0.0055073336
0.0054484924
0.0053719874
0.0052784082
0.0051691821
0.0050465146
0.0049132293
0.0047721586
0.0046265326
0.0044789401
0.0043318506
0.0041877089
0.0040483896
0.0039148053
0.0037882756
0.0036704237
0.0035624797
0.0034651389
0.0033787908
0.0033034801
0.0032387545
0.0031835261
0.0031358094
0.0030934153
0.0030542896
0.0030162837
0.0029779719
0.0029389847
0.0028993522
0.0028593354
0.0028193643
0.0027794467
0.0027394248
0.0026992339
0.0026587893
0.0026183692
0.0025782363
0.0025383733
0.0024986229
0.0024589887
0.00241967
0.0023806086
0.002341628
0.0023026552
0.0022638611
0.0022252711
0.0021866283
0.0021479139
0.0021092982
0.0020706969
0.0020319084
0.001993035
0.0019541757
0.0019150209
0.0018756425
0.0018362344
0.0017965197
0.0017564662
0.0017162031
0.0016757057
0.0016348535
0.0015935227
0.0015517502
0.0015094547
0.0014666363
0.0014233284
0.0013795232
0.0013352566
0.0012904851
0.0012451792
0.0011993259
0.0011529133
0.0011059317
0.0010583758
0.0010102455
0.00096154559
0.00091229001
0.00086249927
0.00081221572
0.0007614813
0.00071041208
0.00065905062
0.00060777002
0.00055638168
0.00050640481
0.00045585449
0.00041210299
0.00036216253
0.00034450082
0.00026098352
0.00056660523
-0.00045647485
0.0054225016
0.0054678678
0.0055016278
0.0055250478
0.005538271
0.0055403557
0.0055296308
0.0055046996
0.0054643519
0.0054074512
0.0053336536
0.0052434705
0.0051381934
0.0050198348
0.0048909951
0.0047543578
0.0046129312
0.0044692579
0.0043257359
0.0041847093
0.0040480403
0.0039167747
0.0037922219
0.0036759335
0.0035691158
0.0034724839
0.0033864412
0.0033110475
0.0032458786
0.0031899098
0.0031413002
0.0030979778
0.0030579768
0.0030192686
0.0029804674
0.0029411539
0.0029013121
0.0028611511
0.0028210443
0.0027810032
0.0027408813
0.0027006168
0.0026601353
0.002619685
0.0025795092
0.0025395974
0.0024998085
0.0024601431
0.0024207814
0.0023816719
0.0023426512
0.0023036494
0.0022648204
0.002226188
0.0021875125
0.0021487712
0.0021101261
0.0020715018
0.0020327045
0.0019938086
0.0019549065
0.0019157424
0.0018763787
0.0018369312
0.0017971493
0.0017570709
0.0017168176
0.0016761988
0.0016352071
0.0015939117
0.0015522758
0.0015101996
0.0014676573
0.0014245869
0.0013809108
0.0013366796
0.0012918994
0.0012465791
0.0012007195
0.001154307
0.0011073276
0.001059773
0.0010116411
0.00096293613
0.00091367169
0.00086386856
0.00081356941
0.0007628166
0.00071172641
0.00066034186
0.00060903569
0.00055762042
0.00050761244
0.00045703169
0.00041323674
0.00036325316
0.00034554314
0.00026187548
0.00056666222
-0.00045379658
0.0053816999
0.0054248806
0.0054579531
0.0054809724
0.0054936959
0.005495449
0.0054848228
0.0054604975
0.0054213526
0.0053663921
0.005295277
0.005208445
0.0051070596
0.0049929529
0.0048685143
0.0047362752
0.0045990408
0.0044592886
0.0043193453
0.0041814634
0.0040474872
0.0039185698
0.0037960159
0.003681314
0.0035756479
0.0034797494
0.0033940362
0.0033185842
0.0032529999
0.0031963219
0.0031468456
0.0031026153
0.0030617535
0.0030223457
0.0029830479
0.0029433978
0.0029033352
0.0028630199
0.0028227721
0.0027826039
0.0027423791
0.0027020385
0.0026615162
0.0026210329
0.0025808128
0.0025408512
0.0025010222
0.0024613238
0.0024219186
0.0023827606
0.0023436988
0.002304666
0.0022657995
0.0022271217
0.0021884104
0.0021496411
0.0021109623
0.0020723033
0.0020334794
0.0019945568
0.0019556282
0.0019164554
0.0018770817
0.0018376032
0.0017978035
0.0017577279
0.0017174548
0.0016767911
0.0016357804
0.0015944677
0.0015527204
0.001510569
0.0014680343
0.0014250608
0.0013815957
0.0013376068
0.0012930165
0.0012477982
0.0012019709
0.0011555601
0.0011085786
0.001061026
0.001012899
0.00096419919
0.00091493809
0.00086513521
0.00081483268
0.00076407281
0.00071297199
0.0006615737
0.00061025028
0.00055881556
0.00050878267
0.00045817728
0.00041434186
0.00036431815
0.00034655978
0.00026273034
0.0005664452
-0.00045069674
0.0053414659
0.0053823784
0.0054144318
0.0054368405
0.0054490252
0.0054504621
0.0054399501
0.0054162503
0.0053783229
0.0053252884
0.0052568181
0.0051732823
0.0050757241
0.0049658074
0.0048457225
0.0047178468
0.0045847975
0.0044489718
0.0043126237
0.0041779206
0.0040466837
0.0039201504
0.0037996235
0.0036865368
0.0035820523
0.0034869162
0.0034015604
0.0033260784
0.0032601096
0.003202756
0.0031524416
0.0031073257
0.0030656193
0.0030255164
0.0029857163
0.00294572
0.0029054254
0.0028649463
0.002824552
0.0027842531
0.0027439225
0.002703503
0.0026629358
0.0026224164
0.0025821505
0.0025421382
0.0025022675
0.0024625345
0.0024230847
0.0023838776
0.0023447735
0.0023057078
0.0022668026
0.0022280788
0.0021893311
0.0021505321
0.0021118164
0.0020731185
0.0020342649
0.0019953141
0.0019563532
0.0019171566
0.0018777584
0.0018382541
0.0017984436
0.0017583589
0.0017180693
0.0016773945
0.0016363736
0.0015950451
0.001553277
0.0015111209
0.0014685253
0.0014254502
0.001381939
0.0013379646
0.0012934891
0.0012484664
0.0012028397
0.0011565746
0.0011096686
0.001062143
0.001014024
0.00096532956
0.00091607553
0.00086628043
0.00081598451
0.00076522867
0.0007141283
0.00066272678
0.00061139573
0.0005599503
0.00050989991
0.00045927674
0.00041540479
0.00036534464
0.00034753883
0.00026353306
0.00056591735
-0.00044711612
0.0053017009
0.0053403057
0.0053710923
0.0053927126
0.0054043116
0.0054054353
0.0053950429
0.0053719762
0.0053352675
0.0052841337
0.0052182596
0.0051379549
0.0050441508
0.0049383545
0.0048225691
0.0046990181
0.0045701428
0.0044382485
0.0043055138
0.0041740254
0.0040455765
0.0039214682
0.0038030025
0.0036915651
0.0035882976
0.0034939578
0.0034089921
0.0033335128
0.0032671941
0.0032092015
0.0031580805
0.003112104
0.0030695714
0.0030287798
0.0029884733
0.0029481223
0.0029075856
0.0028669334
0.0028263872
0.002785954
0.0027455146
0.0027050133
0.0026643973
0.0026238387
0.0025835252
0.0025434612
0.0025035473
0.0024637778
0.0024242826
0.0023850256
0.0023458779
0.0023067778
0.0022678329
0.0022290624
0.0021902769
0.0021514464
0.0021126924
0.0020739549
0.0020350707
0.0019960898
0.0019570926
0.0019178678
0.001878443
0.0018389092
0.0017990773
0.0017589711
0.0017186583
0.0016779715
0.001636941
0.0015956019
0.0015538349
0.001511665
0.001469051
0.0014259727
0.0013824363
0.0013383869
0.0012938375
0.0012487839
0.0012032031
0.0011570675
0.0011103362
0.0010629708
0.001014959
0.00096631833
0.00091708652
0.00086730257
0.00081701615
0.00076626988
0.00071517801
0.00066378274
0.00061245385
0.00056100722
0.00051094775
0.00046031466
0.00041641108
0.00036631884
0.00034846748
0.00026426927
0.00056504067
-0.00044299903
0.0052623239
0.005298614
0.0053279554
0.005348641
0.0053596049
0.0053604098
0.0053501357
0.0053277009
0.0052922022
0.0052429358
0.0051796012
0.0051024546
0.0050123233
0.0049105695
0.0047990211
0.0046797494
0.0045550299
0.0044270677
0.0042979628
0.0041697241
0.004044112
0.0039224725
0.0038061065
0.0036963575
0.0035943471
0.0035008426
0.0034163047
0.0033408655
0.0032742358
0.0032156442
0.0031637517
0.0031169424
0.0030736043
0.0030321328
0.0029913178
0.0029506049
0.0029098167
0.0028689827
0.0028282794
0.0027877085
0.0027471576
0.0027065716
0.0026659028
0.0026253019
0.0025849393
0.0025448225
0.0025048638
0.002465056
0.0024255142
0.0023862066
0.0023470143
0.0023078781
0.0022688924
0.0022300745
0.00219125
0.0021523865
0.0021135934
0.0020748152
0.0020358992
0.0019968866
0.0019578516
0.0019185976
0.0018791451
0.001839579
0.0017997212
0.0017595902
0.0017192504
0.0016785434
0.0016374941
0.0015961363
0.0015543573
0.0015121753
0.0014695579
0.0014264827
0.0013829401
0.00133888
0.0012943078
0.0012492074
0.0012035678
0.0011573857
0.0011106537
0.0010633596
0.0010154811
0.00096699107
0.00091788138
0.00086817221
0.00081792291
0.00076719503
0.00071611534
0.00066473076
0.00061341041
0.00056197049
0.00051191007
0.00046127526
0.00041734572
0.00036722613
0.00034933227
0.000264923
0.00056375283
-0.0004382854
0.0052232687
0.0052572614
0.0052850353
0.0053046709
0.0053149517
0.0053154265
0.0053052641
0.0052834536
0.0052491488
0.0052017108
0.0051408538
0.0050667862
0.0049802404
0.004882444
0.0047750618
0.0046600161
0.0045394258
0.0044153901
0.0042899271
0.0041649696
0.0040422402
0.0039231142
0.0038088893
0.0037008712
0.0036001617
0.0035075359
0.0034234682
0.0033481114
0.0032812137
0.0032220669
0.0031694416
0.0031218307
0.0030777102
0.0030355698
0.0029942464
0.002953166
0.0029121181
0.0028710944
0.0028302294
0.0027895176
0.0027488525
0.0027081792
0.002667454
0.0026268077
0.0025863943
0.0025462237
0.0025062186
0.0024663707
0.0024267815
0.0023874225
0.0023481844
0.0023090105
0.002269983
0.002231117
0.0021922523
0.0021533544
0.0021145211
0.0020757014
0.0020367521
0.0019977066
0.0019586331
0.0019193485
0.001879867
0.0018402671
0.001800382
0.0017602251
0.0017198562
0.0016791256
0.0016380537
0.0015966724
0.0015548736
0.0015126741
0.0014700433
0.0014269565
0.0013834049
0.0013393439
0.0012947718
0.0012496676
0.0012040152
0.0011578031
0.0011110253
0.0010636837
0.0010157819
0.00096732242
0.00091830528
0.00086872472
0.00081859779
0.00076795696
0.00071692647
0.00066556719
0.00061426084
0.00056283158
0.00051277505
0.00046214471
0.00041819426
0.00036805164
0.00035011932
0.00026547666
0.00056199728
-0.00043291185
0.0051844818
0.0052162129
0.0052423418
0.0052608401
0.0052703943
0.0052705247
0.0052604639
0.0052392647
0.0052061319
0.0051604794
0.0051020344
0.0050309632
0.0049479109
0.0048539813
0.0047506873
0.0046398068
0.0045233105
0.004403188
0.004281373
0.0041597227
0.0040399181
0.0039233489
0.0038113072
0.0037050642
0.0036057026
0.0035140024
0.0034304513
0.0033552234
0.003288105
0.0032284505
0.0031751345
0.0031267561
0.0030818793
0.0030390838
0.002997254
0.0029558021
0.0029144877
0.0028732674
0.0028322363
0.0027913809
0.0027505994
0.0027098363
0.0026690514
0.0026283569
0.0025878911
0.0025476658
0.0025076129
0.0024677232
0.0024280856
0.0023886745
0.0023493895
0.0023101765
0.0022711062
0.0022321914
0.0021932852
0.0021543516
0.0021154773
0.0020766152
0.0020376312
0.0019985517
0.0019594388
0.0019201224
0.0018806106
0.001840976
0.0018010624
0.0017608783
0.0017204791
0.0016797234
0.0016386272
0.0015972204
0.0015553995
0.0015131788
0.0014705285
0.0014274236
0.0013838563
0.0013397839
0.0012952035
0.0012500952
0.0012044414
0.0011582278
0.0011114439
0.001064084
0.0010161486
0.0009676475
0.00091859909
0.0008690244
0.0008189572
0.00076841954
0.00071750206
0.00066623338
0.00061498288
0.00056358352
0.00051353809
0.00046291577
0.00041894664
0.00036878258
0.00035081578
0.00026591196
0.0005597206
-0.00042681551
0.0051459199
0.0051754391
0.0051998816
0.0052171809
0.0052259715
0.0052257418
0.0052157697
0.005195165
0.0051631777
0.0051192645
0.0050631636
0.0049950037
0.0049153502
0.0048251926
0.0047259029
0.0046191201
0.0045066743
0.0043904441
0.0042722762
0.004153953
0.0040371094
0.0039231377
0.0038133208
0.0037088979
0.0036109322
0.003520207
0.0034372224
0.0033621735
0.0032948853
0.0032347738
0.0031808127
0.0031317045
0.0030860999
0.0030426656
0.003000334
0.0029585086
0.002916922
0.0028754992
0.0028342983
0.0027932972
0.0027523973
0.0027115425
0.0026706947
0.0026299495
0.00258943
0.0025491491
0.0025090472
0.0024691142
0.0024294273
0.0023899635
0.0023506307
0.0023113771
0.0022722629
0.0022332988
0.0021943499
0.0021553793
0.0021164632
0.0020775578
0.0020385379
0.0019994234
0.0019602702
0.0019209207
0.0018813777
0.0018417074
0.0018017642
0.0017615516
0.001721121
0.001680339
0.0016392175
0.0015977838
0.0015559395
0.0015136959
0.0014710239
0.0014278988
0.0013843122
0.0013402227
0.0012956268
0.0012505058
0.0012048425
0.0011586231
0.0011118368
0.0010644758
0.0010165374
0.00096802525
0.00091895303
0.00086934406
0.00081924466
0.00076869899
0.00071781724
0.00066662795
0.00061547555
0.0005641629
0.00051417089
0.00046357799
0.00041959769
0.00036941165
0.00035141311
0.00026621223
0.00055687382
-0.00041993885
0.0051075487
0.0051349165
0.0051576588
0.0051737199
0.005181718
0.0051811126
0.0051712149
0.0051511849
0.0051203127
0.0050780899
0.0050242634
0.0049589283
0.0048825769
0.0047960935
0.0047007196
0.0045979614
0.0044895153
0.004377149
0.0042626206
0.0041476374
0.0040337853
0.0039224479
0.0038148956
0.0037123371
0.003615816
0.0035261166
0.0034437504
0.0033689337
0.0033015298
0.0032410153
0.0031864578
0.0031366602
0.0030903592
0.0030463049
0.0030034786
0.0029612792
0.0029194166
0.0028777863
0.0028364128
0.0027952642
0.0027542444
0.0027132963
0.002672383
0.0026315848
0.0025910105
0.0025506734
0.0025105215
0.0024705438
0.0024308069
0.0023912899
0.0023519085
0.002312613
0.002273454
0.0022344399
0.0021954474
0.0021564386
0.0021174797
0.0020785303
0.0020394733
0.0020003227
0.0019611285
0.0019217449
0.0018821694
0.0018424626
0.0018024886
0.0017622466
0.0017217836
0.0016809743
0.0016398263
0.0015983647
0.0015564958
0.0015142279
0.0014715332
0.0014283864
0.0013847788
0.0013406701
0.001296056
0.0012509181
0.0012052397
0.0011590073
0.0011122108
0.0010648428
0.0010169008
0.00096838716
0.00091931287
0.00086969671
0.00081958023
0.00076900687
0.00071809464
0.00066688976
0.00061575545
0.00056450103
0.00051458643
0.00046406869
0.00042011614
0.00036992503
0.00035190584
0.00026636462
0.00055342283
-0.00041223851
0.0050693412
0.005094626
0.0051156765
0.0051304798
0.0051376648
0.0051366699
0.0051268314
0.0051073537
0.0050775633
0.0050369799
0.0049853568
0.0049227589
0.0048496117
0.0047667026
0.0046751522
0.0045763407
0.0044718371
0.0043632993
0.004252396
0.0041407592
0.0040299224
0.003921252
0.0038160014
0.0037153502
0.003620322
0.0035317
0.003450006
0.0033754769
0.0033080138
0.0032471527
0.0031920505
0.0031416068
0.0030946433
0.0030499906
0.0030066787
0.0029641072
0.002921966
0.0028801245
0.0028385762
0.0027972789
0.0027561383
0.0027150956
0.0026741147
0.0026332615
0.0025926315
0.0025522379
0.0025120352
0.0024720118
0.0024322243
0.0023926538
0.002353223
0.0023138844
0.0022746798
0.0022356153
0.0021965782
0.00215753
0.0021185276
0.0020795333
0.0020404383
0.0020012504
0.0019620146
0.0019225956
0.0018829868
0.0018432427
0.0018032369
0.0017629645
0.0017224683
0.0016816305
0.001640455
0.0015989647
0.00155707
0.001514777
0.0014720582
0.0014288886
0.0013852588
0.0013411296
0.0012964958
0.0012513393
0.0012056434
0.0011593949
0.0011125835
0.0010652026
0.00101725
0.00096872847
0.00091964936
0.00087003078
0.00081991224
0.00076933349
0.00071840793
0.00066717962
0.00061601589
0.00056474035
0.00051482673
0.00046434555
0.00042043075
0.00037026388
0.00035226355
0.000266343
0.00054936481
-0.00040370205
0.0050312767
0.0050545531
0.0050739372
0.0050874794
0.0050938393
0.0050924434
0.005082649
0.0050637
0.0050349555
0.0049959586
0.0049464669
0.0048865178
0.0048164761
0.0047370398
0.0046492178
0.0045542708
0.0044536467
0.0043488959
0.0042415968
0.004133306
0.0040255023
0.0039195267
0.0038166121
0.0037179092
0.0036244212
0.0035369283
0.0034559611
0.0033817766
0.003314313
0.0032531639
0.003197571
0.0031465273
0.0030989377
0.0030537104
0.0030099248
0.0029669847
0.002924564
0.0028825088
0.0028407842
0.0027993378
0.0027580758
0.0027169378
0.0026758873
0.0026349778