/*--------------------------------*- C++ -*----------------------------------*\
  =========                 |
  \\      /  F ield         | OpenFOAM: The Open Source CFD Toolbox
   \\    /   O peration     | Website:  https://openfoam.org
    \\  /    A nd           | Version:  12
     \\/     M anipulation  |
\*---------------------------------------------------------------------------*/
FoamFile
{
    format      ascii;
    class       volVectorField;
    location    "1900";
    object      U;
}
// * * * * * * * * * * * * * * * * * * * * * * * * * * * * * * * * * * * * * //

dimensions      [0 1 -1 0 0 0 0];

internalField   nonuniform List<vector> 
7480
(
(0.99633843 0.00031442065 0)
(0.99395174 0.0003425848 -1.3117733e-20)
(0.99091249 0.00051199972 0)
(0.98718705 0.00068550151 0)
(0.98269429 0.00086871332 0)
(0.97736409 0.0009995492 -1.5979175e-17)
(0.97109675 0.0010815471 -2.9409505e-19)
(0.96386715 0.0013115381 0)
(0.95562171 0.0015546466 0)
(0.94634206 0.0017891333 0)
(0.93606344 0.0020081172 0)
(0.9248602 0.0022025212 0)
(0.91283838 0.0023635134 0)
(0.90013332 0.0024785081 0)
(0.88689394 0.0025658163 0)
(0.87327598 0.0025654581 0)
(0.85944991 0.002540325 0)
(0.84553025 0.0024672829 0)
(0.83169638 0.0023500028 0)
(0.81806453 0.002200491 0)
(0.80475764 0.0020206441 0)
(0.79191091 0.0018145585 0)
(0.77968125 0.0015935851 0)
(0.76819688 0.0013683939 0)
(0.75755916 0.0011447613 0)
(0.74784783 0.0009286682 0)
(0.73911224 0.00072485546 0)
(0.73137352 0.00054004724 0)
(0.72461743 0.00038150943 0)
(0.71877514 0.00025559228 0)
(0.71372601 0.00016772458 0)
(0.70931701 0.0001175057 0)
(0.70538012 9.8632722e-05 0)
(0.70175813 0.0001013162 0)
(0.69833189 0.00011439969 0)
(0.69502825 0.00012851291 0)
(0.69181147 0.00013795476 0)
(0.6886686 0.00014077545 0)
(0.68559296 0.00013865237 0)
(0.68257332 0.00013465447 0)
(0.67959366 0.00013117903 0)
(0.67663903 0.00012906898 0)
(0.67370245 0.00012779455 0)
(0.6707872 0.0001264621 0)
(0.66790181 0.00012451598 0)
(0.66505349 0.00012183924 0)
(0.66224522 0.00011862149 0)
(0.6594771 0.00011511749 0)
(0.65674884 0.00011151159 0)
(0.65406062 0.00010785539 0)
(0.65141291 0.00010415675 0)
(0.64880618 0.00010043101 0)
(0.64624062 9.67345e-05 0)
(0.64371564 9.313255e-05 0)
(0.64123025 8.9632969e-05 0)
(0.63878395 8.622379e-05 0)
(0.63637642 8.2918644e-05 0)
(0.63400677 7.9735383e-05 0)
(0.63167396 7.6660542e-05 0)
(0.62937752 7.3687174e-05 0)
(0.62711656 7.084082e-05 0)
(0.62488982 6.8112709e-05 0)
(0.62269643 6.5491917e-05 0)
(0.62053551 6.2985068e-05 0)
(0.61840605 6.0577986e-05 0)
(0.61630731 5.8262546e-05 0)
(0.6142385 5.6044982e-05 0)
(0.61219866 5.3916516e-05 0)
(0.61018706 5.1872252e-05 0)
(0.60820287 4.9914694e-05 0)
(0.60624524 4.8036965e-05 0)
(0.60431338 4.6236888e-05 0)
(0.6024065 4.4511226e-05 0)
(0.60052385 4.2855584e-05 0)
(0.59866471 4.1267816e-05 0)
(0.59682837 3.974364e-05 0)
(0.59501417 3.8280635e-05 0)
(0.59322146 3.6876316e-05 0)
(0.59144961 3.55281e-05 0)
(0.589698 3.4233518e-05 0)
(0.58796605 3.2990221e-05 0)
(0.58625319 3.179602e-05 0)
(0.58455885 3.064886e-05 0)
(0.58288249 2.9546823e-05 0)
(0.58122358 2.8488083e-05 0)
(0.57958159 2.7471003e-05 0)
(0.577956 2.6493952e-05 0)
(0.57634627 2.5555808e-05 0)
(0.57475191 2.4655036e-05 0)
(0.5731722 2.3791949e-05 0)
(0.57160685 2.2963384e-05 0)
(0.57005438 2.2176084e-05 0)
(0.56851568 2.1417633e-05 0)
(0.5669853 2.0726169e-05 0)
(0.56547115 2.0029688e-05 0)
(0.56394811 1.9565538e-05 0)
(0.56245893 1.8314107e-05 -1.2073272e-20)
(0.56087518 3.2026391e-05 8.3834086e-20)
(0.55957311 1.827283e-05 -2.550392e-19)
(0.5571126 3.3732173e-05 -4.27395e-18)
(0.99784585 0.00049205937 0)
(0.99774456 0.00072933161 0)
(0.99764399 0.00093127849 0)
(0.99748859 0.00109163 -5.3169083e-19)
(0.99727959 0.0012415478 0)
(0.9970225 0.0013949701 0)
(0.99670089 0.0015770461 0)
(0.99627576 0.0017692719 0)
(0.99569782 0.0019219447 0)
(0.99491242 0.0020459199 0)
(0.99385434 0.0021460404 0)
(0.99245041 0.0022204426 0)
(0.99062588 0.0022682199 0)
(0.98830846 0.0022929163 0)
(0.9854354 0.0022901167 0)
(0.98195231 0.0022781894 0)
(0.97782311 0.0022515773 0)
(0.97300992 0.0022140764 0)
(0.96751122 0.0021687461 0)
(0.96131479 0.0021205379 0)
(0.95442287 0.0020706557 0)
(0.94682965 0.0020122769 0)
(0.9385739 0.0019329295 0)
(0.92975655 0.0018344454 0)
(0.92047518 0.0017243995 0)
(0.91084403 0.0016036627 0)
(0.90100491 0.0014741077 0)
(0.89111124 0.0013365137 0)
(0.8813281 0.0011918708 0)
(0.87183061 0.0010417711 0)
(0.86281742 0.00089466578 0)
(0.85444501 0.00076107489 0)
(0.8467839 0.00064636982 0)
(0.83981672 0.00055525219 0)
(0.83346834 0.00048925294 0)
(0.82762764 0.00044654854 0)
(0.82217664 0.00042228292 0)
(0.81702087 0.00040922593 0)
(0.81209836 0.00040005501 0)
(0.80737417 0.00039001502 0)
(0.80283041 0.00037733031 0)
(0.79845454 0.00036217051 0)
(0.79423303 0.00034534346 0)
(0.79014988 0.00032805346 0)
(0.78618748 0.00031149987 0)
(0.7823291 0.00029630138 0)
(0.77856201 0.00028239363 0)
(0.77487939 0.00026941882 0)
(0.77127838 0.00025716127 0)
(0.76775657 0.00024549467 0)
(0.76431019 0.00023436622 0)
(0.76093498 0.00022373417 0)
(0.75762764 0.00021359443 0)
(0.75438568 0.00020395573 0)
(0.75120684 0.0001947594 0)
(0.74808912 0.00018596281 0)
(0.74503066 0.00017757916 0)
(0.74202935 0.00016961342 0)
(0.73908313 0.0001620218 0)
(0.73619027 0.00015477762 0)
(0.73334915 0.00014790178 0)
(0.73055798 0.00014135502 0)
(0.7278153 0.00013511313 0)
(0.7251197 0.00012918614 0)
(0.72246954 0.00012354027 0)
(0.71986347 0.00011815702 0)
(0.71730013 0.00011304137 0)
(0.71477806 0.0001081681 0)
(0.71229601 0.0001035236 0)
(0.70985271 9.9106759e-05 0)
(0.70744686 9.4898859e-05 0)
(0.70507725 9.0891718e-05 0)
(0.70274271 8.707478e-05 0)
(0.70044211 8.3436895e-05 0)
(0.69817434 7.997096e-05 0)
(0.69593833 7.6665591e-05 0)
(0.69373307 7.3513254e-05 0)
(0.69155759 7.0506226e-05 0)
(0.68941094 6.7636976e-05 0)
(0.68729221 6.4898474e-05 0)
(0.68520051 6.2284078e-05 0)
(0.68313501 5.9787591e-05 0)
(0.68109487 5.7403205e-05 0)
(0.6790793 5.5125504e-05 0)
(0.67708752 5.2949384e-05 0)
(0.67511877 5.087019e-05 0)
(0.67317231 4.8883461e-05 0)
(0.67124736 4.6985615e-05 0)
(0.66934323 4.5172554e-05 0)
(0.667459 4.3442966e-05 0)
(0.66559417 4.1791833e-05 0)
(0.66374701 4.0226494e-05 0)
(0.66191824 3.8731529e-05 0)
(0.66010205 3.7354908e-05 0)
(0.65830635 3.6012487e-05 0)
(0.65650507 3.4970914e-05 0)
(0.65474195 3.385333e-05 1.224949e-20)
(0.65288187 3.5170923e-05 0)
(0.65132667 3.0158834e-05 0)
(0.64846574 3.8961951e-05 0)
(0.99791564 0.00049613197 0)
(0.99788477 0.00069625874 0)
(0.99787681 0.00085014823 0)
(0.99785378 0.0009895696 0)
(0.99782339 0.0011433711 0)
(0.99780113 0.0013175799 0)
(0.99779246 0.0015034347 0)
(0.99779706 0.0016895269 0)
(0.99781847 0.0018797315 0)
(0.99785927 0.0020791678 0)
(0.99791667 0.0022820797 0)
(0.99798524 0.002479536 0)
(0.99805703 0.0026646 0)
(0.9981212 0.0028312023 0)
(0.99816581 0.0029769102 0)
(0.9981755 0.0030979068 0)
(0.99813277 0.0031928963 0)
(0.99802007 0.0032604513 0)
(0.99781352 0.0033008948 0)
(0.99748532 0.0033113295 0)
(0.99700203 0.00329723 0)
(0.99632508 0.0032560341 0)
(0.99535726 0.0031898086 0)
(0.99396694 0.0031002936 0)
(0.992043 0.0029884549 0)
(0.98947129 0.0028570929 0)
(0.98612976 0.0027097113 0)
(0.98190009 0.0025511063 0)
(0.97667576 0.0023879353 0)
(0.97038032 0.0022279433 0)
(0.96297204 0.0020624536 0)
(0.95460004 0.0018897759 0)
(0.94549025 0.0017224515 0)
(0.93596713 0.0015619766 0)
(0.92638161 0.0014077837 0)
(0.91705986 0.0012579855 0)
(0.90826622 0.0011157682 0)
(0.90016487 0.00099010773 0)
(0.89277246 0.00088679891 0)
(0.88600583 0.00080718345 0)
(0.87974127 0.0007494551 0)
(0.8738561 0.00070892037 0)
(0.86826082 0.00067853754 0)
(0.86290338 0.00065165997 0)
(0.85775726 0.00062430742 0)
(0.85280684 0.00059568881 0)
(0.84803779 0.00056643985 0)
(0.84343464 0.00053749859 0)
(0.83898102 0.00050985546 0)
(0.83466107 0.0004840221 0)
(0.83046128 0.00045997373 0)
(0.82637199 0.00043740283 0)
(0.82238684 0.000416108 0)
(0.81850049 0.00039602112 0)
(0.81470724 0.0003770183 0)
(0.8110017 0.00035900093 0)
(0.80737934 0.00034194212 0)
(0.80383625 0.00032580198 0)
(0.80036887 0.00031048414 0)
(0.79697407 0.00029593509 0)
(0.79364885 0.00028217103 0)
(0.79039023 0.00026911069 0)
(0.7871958 0.00025669975 0)
(0.78406324 0.00024494026 0)
(0.78099011 0.00023377127 0)
(0.77797433 0.00022315414 0)
(0.77501387 0.00021308551 0)
(0.77210668 0.00020351857 0)
(0.76925093 0.00019442401 0)
(0.76644486 0.00018579169 0)
(0.76368668 0.00017758655 0)
(0.76097475 0.00016978918 0)
(0.75830749 0.000162377 0)
(0.75568338 0.00015532741 0)
(0.75310094 0.00014862417 0)
(0.75055875 0.00014224506 0)
(0.74805544 0.00013617362 0)
(0.74558974 0.00013039357 0)
(0.74316037 0.00012488928 0)
(0.74076614 0.00011964612 0)
(0.7384059 0.0001146503 0)
(0.73607851 0.00010988897 0)
(0.73378291 0.00010535008 0)
(0.73151805 0.00010102236 0)
(0.72928291 9.6895292e-05 0)
(0.72707652 9.2959139e-05 0)
(0.7248979 8.9204808e-05 0)
(0.72274609 8.5624392e-05 0)
(0.72062018 8.2210229e-05 0)
(0.71851905 7.8957196e-05 0)
(0.71644202 7.5859112e-05 0)
(0.71438717 7.2919075e-05 0)
(0.71235501 7.0128917e-05 0)
(0.7103396 6.7525841e-05 0)
(0.70834854 6.5064346e-05 0)
(0.70635573 6.2985885e-05 0)
(0.7044046 6.1072039e-05 8.561539e-21)
(0.7023576 5.9787273e-05 0)
(0.70063198 5.8559798e-05 0)
(0.69749792 6.2163779e-05 -2.5577589e-20)
(0.99794684 0.00050816804 0)
(0.99791996 0.00069800458 0)
(0.99791873 0.00085971496 0)
(0.99791171 0.001012922 0)
(0.99790209 0.0011742987 0)
(0.99790166 0.001345828 0)
(0.99791625 0.0015227003 0)
(0.99794803 0.0017045659 0)
(0.99800074 0.0018914467 0)
(0.99807651 0.0020755162 0)
(0.99817461 0.0022490875 0)
(0.99829334 0.0024060028 0)
(0.9984295 0.0025421109 0)
(0.99857835 0.002654692 0)
(0.99873524 0.0027432783 0)
(0.99889481 0.0028057193 0)
(0.99905222 0.0028460245 0)
(0.99920475 0.0028657042 0)
(0.99934764 0.0028655597 0)
(0.99947593 0.002852705 0)
(0.99958696 0.0028291933 0)
(0.99967812 0.0027971417 0)
(0.99974432 0.0027577619 0)
(0.99977745 0.0027129709 0)
(0.99976775 0.0026652915 0)
(0.99970302 0.0026166797 0)
(0.99956607 0.0025690991 0)
(0.99933412 0.0025240951 0)
(0.99897511 0.0024820756 0)
(0.99844033 0.0024418566 0)
(0.99765009 0.0024024545 0)
(0.99640252 0.0023610103 0)
(0.99450792 0.0023115923 0)
(0.99176553 0.0022499815 0)
(0.9879944 0.0021744086 0)
(0.98306838 0.0020890423 0)
(0.97692822 0.00199014 0)
(0.9697044 0.001871424 0)
(0.96169117 0.0017405898 0)
(0.95325382 0.0016054942 0)
(0.94476554 0.0014697625 0)
(0.93654399 0.001337072 0)
(0.92881096 0.0012159578 0)
(0.92163542 0.001112561 0)
(0.91497406 0.0010277758 0)
(0.90873024 0.00096039959 0)
(0.90280663 0.00090668224 0)
(0.89713675 0.00086106559 0)
(0.89168536 0.00081899902 0)
(0.8864352 0.00077831936 0)
(0.88137357 0.00073867328 0)
(0.87648675 0.00070036551 0)
(0.87175974 0.00066396958 0)
(0.86717767 0.00062988473 0)
(0.86272764 0.00059800957 0)
(0.85839989 0.0005680617 0)
(0.85418715 0.00053988328 0)
(0.8500828 0.00051335853 0)
(0.84608042 0.00048832365 0)
(0.84217435 0.00046466739 0)
(0.83835956 0.00044236213 0)
(0.83463143 0.00042126338 0)
(0.83098605 0.00040127596 0)
(0.82741974 0.00038238234 0)
(0.82392891 0.00036448338 0)
(0.82051046 0.00034750962 0)
(0.81716149 0.00033144042 0)
(0.81387913 0.00031620152 0)
(0.81066083 0.00030174162 0)
(0.80750418 0.00028803566 0)
(0.80440682 0.00027502826 0)
(0.80136654 0.00026268432 0)
(0.79838127 0.00025096567 0)
(0.79544902 0.00023983531 0)
(0.7925679 0.00022926491 0)
(0.78973607 0.00021921886 0)
(0.7869518 0.0002096692 0)
(0.78421343 0.00020058884 0)
(0.78151937 0.00019195199 0)
(0.77886808 0.0001837345 0)
(0.7762581 0.00017591368 0)
(0.77368803 0.00016846834 0)
(0.77115649 0.00016137869 0)
(0.76866219 0.0001546262 0)
(0.76620386 0.0001481936 0)
(0.76378027 0.00014206487 0)
(0.76139023 0.00013622521 0)
(0.75903253 0.00013066126 0)
(0.75670606 0.00012536103 0)
(0.7544095 0.00012031432 0)
(0.75214195 0.00011551429 0)
(0.74990134 0.00011095648 0)
(0.74768793 0.00010664557 0)
(0.74549573 0.00010259413 0)
(0.7433319 9.8827413e-05 0)
(0.74117066 9.5488206e-05 0)
(0.73905466 9.2727492e-05 6.8773437e-21)
(0.7368454 8.993957e-05 0)
(0.7349728 9.2534021e-05 0)
(0.73160175 8.8954363e-05 2.0742611e-20)
(0.99797918 0.00052458593 0)
(0.9979456 0.00070303346 0)
(0.99794025 0.00086312624 0)
(0.99793534 0.0010148822 0)
(0.99793122 0.0011719805 0)
(0.99793694 0.0013380288 0)
(0.99795771 0.0015108081 0)
(0.99799564 0.0016891206 0)
(0.99805366 0.00187033 0)
(0.99813381 0.0020484659 0)
(0.99823596 0.0022192297 0)
(0.9983588 0.0023781794 0)
(0.99849951 0.0025212831 0)
(0.99865397 0.0026454867 0)
(0.99881816 0.0027494737 0)
(0.99898714 0.0028315596 0)
(0.99915668 0.0028939872 0)
(0.99932418 0.002936512 0)
(0.99948625 0.0029606455 0)
(0.99963978 0.0029670411 0)
(0.99978348 0.0029598226 0)
(0.99991707 0.002938452 0)
(1.0000387 0.0029036256 0)
(1.0001458 0.0028568874 0)
(1.0002368 0.0028008043 0)
(1.0003099 0.0027380611 0)
(1.0003628 0.0026709572 0)
(1.0003936 0.0026020798 0)
(1.0004005 0.0025345065 0)
(1.0003817 0.0024717214 0)
(1.0003359 0.0024165033 0)
(1.0002563 0.0023704907 0)
(1.0001317 0.0023346227 0)
(0.99994286 0.0023082456 0)
(0.99966081 0.0022892794 0)
(0.99923613 0.0022728331 0)
(0.99859728 0.0022535766 0)
(0.99755758 0.0022273283 0)
(0.99588631 0.0021894208 0)
(0.99336477 0.0021368949 0)
(0.98981002 0.0020707702 0)
(0.98511195 0.0019919932 0)
(0.97929792 0.001894138 0)
(0.97261254 0.0017801829 0)
(0.96538165 0.0016599672 0)
(0.95795742 0.001537233 0)
(0.95065101 0.0014180564 0)
(0.94366432 0.0013100015 0)
(0.93706109 0.001215884 0)
(0.93081397 0.001136112 0)
(0.92485837 0.0010691207 0)
(0.91913849 0.0010112075 0)
(0.91362164 0.00095866471 0)
(0.90829205 0.00090926041 0)
(0.90313958 0.0008621579 0)
(0.89815359 0.0008172601 0)
(0.89332193 0.00077487576 0)
(0.88863219 0.00073515361 0)
(0.88407362 0.00069788926 0)
(0.87963805 0.0006628446 0)
(0.87531858 0.00062992049 0)
(0.87110867 0.00059889649 0)
(0.86700238 0.00056961995 0)
(0.86299431 0.00054203057 0)
(0.85907952 0.00051596829 0)
(0.85525372 0.00049131867 0)
(0.85151291 0.0004680326 0)
(0.84785323 0.00044599761 0)
(0.84427128 0.00042513054 0)
(0.84076387 0.0004053831 0)
(0.83732794 0.00038667308 0)
(0.83396069 0.00036894368 0)
(0.83065944 0.000352136 0)
(0.82742171 0.00033619407 0)
(0.82424509 0.00032107336 0)
(0.8211273 0.00030672136 0)
(0.81806621 0.00029309535 0)
(0.81505975 0.00028015449 0)
(0.81210597 0.00026786013 0)
(0.80920298 0.00025617616 0)
(0.80634898 0.0002450687 0)
(0.80354226 0.00023450616 0)
(0.80078116 0.00022445902 0)
(0.79806408 0.00021489976 0)
(0.7953895 0.00020580271 0)
(0.79275592 0.00019714403 0)
(0.79016192 0.00018890183 0)
(0.78760605 0.00018105598 0)
(0.78508698 0.00017358911 0)
(0.78260319 0.0001664847 0)
(0.78015353 0.00015973453 0)
(0.77773578 0.0001533247 0)
(0.77534997 0.00014727434 0)
(0.77299003 0.00014156519 0)
(0.7706627 0.00013630615 0)
(0.76834259 0.00013150686 0)
(0.76607149 0.00012781986 5.9532085e-21)
(0.76371023 0.00012300427 4.0775478e-20)
(0.76170115 0.0001305157 0)
(0.75810974 0.00011732803 0)
(0.99801676 0.00054328736 0)
(0.99797511 0.00070997986 0)
(0.99796217 0.00086585406 0)
(0.99795507 0.001015809 0)
(0.99795223 0.0011707422 0)
(0.99796011 0.0013339278 0)
(0.99798291 0.0015035196 0)
(0.99802256 0.0016778189 0)
(0.99808159 0.0018544232 0)
(0.99816188 0.0020286446 0)
(0.99826339 0.0021961792 0)
(0.99838478 0.0023522897 0)
(0.99852342 0.0024927251 0)
(0.9986755 0.0026143311 0)
(0.99883722 0.0027155945 0)
(0.99900427 0.0027950332 0)
(0.99917274 0.002854104 0)
(0.99933994 0.0028930416 0)
(0.99950289 0.0029127219 0)
(0.99965868 0.0029160436 0)
(0.99980622 0.0029051876 0)
(0.99994517 0.0028811445 0)
(1.000074 0.0028451502 0)
(1.0001908 0.0027991627 0)
(1.0002938 0.002745547 0)
(1.0003825 0.0026865631 0)
(1.0004566 0.0026247742 0)
(1.0005158 0.0025627315 0)
(1.0005604 0.0025033254 0)
(1.0005915 0.0024497554 0)
(1.0006109 0.0024033385 0)
(1.0006204 0.0023644151 0)
(1.000621 0.0023329083 0)
(1.000613 0.0023071283 0)
(1.0005948 0.0022845062 0)
(1.0005618 0.0022632926 0)
(1.0005085 0.0022430422 0)
(1.0004237 0.0022238045 0)
(1.0002866 0.0022061039 0)
(1.0000691 0.0021903052 0)
(0.99972876 0.0021755591 0)
(0.99920057 0.0021586156 0)
(0.99834819 0.0021364905 0)
(0.9969459 0.0021052551 0)
(0.99477935 0.002060878 0)
(0.99166801 0.0020043309 0)
(0.98749292 0.0019316405 0)
(0.9823268 0.0018397863 0)
(0.97639345 0.0017366077 0)
(0.96999062 0.0016280496 0)
(0.96342941 0.0015190609 0)
(0.95695803 0.0014163508 0)
(0.95070367 0.0013234144 0)
(0.94469532 0.0012413832 0)
(0.93890906 0.0011697705 0)
(0.93331309 0.0011061942 0)
(0.92788739 0.0010480682 0)
(0.92262271 0.00099371362 0)
(0.91751332 0.00094228443 0)
(0.91255237 0.00089359726 0)
(0.90773101 0.00084781414 0)
(0.90304015 0.00080479678 0)
(0.89847233 0.00076432758 0)
(0.89402128 0.00072628369 0)
(0.88968113 0.00069043484 0)
(0.88544646 0.00065661663 0)
(0.88131221 0.00062474088 0)
(0.87727363 0.00059464229 0)
(0.87332656 0.00056619518 0)
(0.86946707 0.00053931955 0)
(0.86569144 0.00051389813 0)
(0.86199624 0.00048984511 0)
(0.85837825 0.00046707452 0)
(0.85483445 0.00044550595 0)
(0.85136197 0.00042507385 0)
(0.84795808 0.00040570456 0)
(0.84462022 0.0003873368 0)
(0.84134595 0.00036991264 0)
(0.83813293 0.00035337754 0)
(0.83497894 0.0003376806 0)
(0.83188184 0.0003227742 0)
(0.82883959 0.00030861399 0)
(0.82585026 0.00029515859 0)
(0.82291195 0.00028236942 0)
(0.82002286 0.00027021061 0)
(0.81718125 0.00025864878 0)
(0.81438543 0.00024765338 0)
(0.81163374 0.00023719604 0)
(0.80892461 0.00022725274 0)
(0.8062563 0.00021779931 0)
(0.80362746 0.00020882523 0)
(0.80103567 0.00020030565 0)
(0.79848073 0.00019227429 0)
(0.79595652 0.00018467874 0)
(0.79346934 0.00017771757 0)
(0.79099416 0.00017124826 0)
(0.78857208 0.00016649568 0)
(0.78606296 0.00015912287 0)
(0.78392231 0.00017257761 5.6302918e-20)
(0.78011785 0.00014775648 0)
(0.99805825 0.00056360413 0)
(0.99801047 0.00071934552 0)
(0.99798967 0.00087003372 0)
(0.99797847 0.0010175807 0)
(0.99797455 0.0011700198 0)
(0.99798232 0.0013298913 0)
(0.9980051 0.0014956658 0)
(0.99804461 0.0016657009 0)
(0.99810304 0.0018378133 0)
(0.99818201 0.0020077921 0)
(0.99828148 0.0021713565 0)
(0.99840017 0.0023240419 0)
(0.99853562 0.0024618705 0)
(0.99868432 0.0025818346 0)
(0.99884259 0.002682366 0)
(0.99900644 0.0027621185 0)
(0.99917214 0.0028221095 0)
(0.999337 0.0028627501 0)
(0.99949815 0.002885 0)
(0.99965289 0.0028909148 0)
(0.99980005 0.0028831048 0)
(0.99993914 0.0028624761 0)
(1.0000687 0.0028299655 0)
(1.000187 0.0027873494 0)
(1.0002929 0.0027369062 0)
(1.0003857 0.0026809324 0)
(1.0004651 0.002621839 0)
(1.0005312 0.0025621704 0)
(1.0005843 0.0025045689 0)
(1.0006262 0.0024516885 0)
(1.0006591 0.002405081 0)
(1.0006855 0.002365396 0)
(1.0007075 0.0023328858 0)
(1.0007272 0.0023063409 0)
(1.0007451 0.0022837481 0)
(1.0007606 0.002263766 0)
(1.0007724 0.0022453322 0)
(1.0007788 0.0022275813 0)
(1.0007766 0.0022104215 0)
(1.0007625 0.0021937575 0)
(1.0007316 0.0021771694 0)
(1.0006776 0.00216066 0)
(1.0005899 0.002144148 0)
(1.0004456 0.0021274501 0)
(1.0002127 0.0021107454 0)
(0.99984191 0.0020931091 0)
(0.99926207 0.0020731496 0)
(0.99830235 0.002048512 0)
(0.99675961 0.0020148983 0)
(0.99444199 0.001970311 0)
(0.99119578 0.0019117345 0)
(0.98699954 0.0018354109 0)
(0.98199888 0.0017460399 0)
(0.97642974 0.0016497896 0)
(0.97057081 0.0015518585 0)
(0.96466047 0.0014579156 0)
(0.95884081 0.0013705833 0)
(0.95316561 0.001291382 0)
(0.94763875 0.0012202013 0)
(0.94225059 0.0011555284 0)
(0.93699541 0.0010956991 0)
(0.93187221 0.0010395039 0)
(0.92688011 0.00098637241 0)
(0.92201543 0.00093628182 0)
(0.91727257 0.00088909802 0)
(0.9126462 0.00084464418 0)
(0.90813159 0.00080279291 0)
(0.90372423 0.00076332589 0)
(0.89941982 0.00072607823 0)
(0.89521416 0.00069093646 0)
(0.89110326 0.00065774175 0)
(0.8870834 0.0006263739 0)
(0.88315105 0.00059671517 0)
(0.87930286 0.00056865562 0)
(0.87553563 0.00054210379 0)
(0.87184632 0.00051696055 0)
(0.86823205 0.00049314233 0)
(0.86469008 0.00047057066 0)
(0.86121776 0.00044917206 0)
(0.85781258 0.000428878 0)
(0.85447212 0.00040962453 0)
(0.85119407 0.00039135214 0)
(0.84797622 0.00037400536 0)
(0.84481642 0.00035753254 0)
(0.84171263 0.00034188566 0)
(0.83866285 0.00032702005 0)
(0.83566518 0.00031289489 0)
(0.83271771 0.00029947203 0)
(0.82981867 0.00028671937 0)
(0.82696611 0.00027460381 0)
(0.82415848 0.00026311141 0)
(0.82139317 0.00025220511 0)
(0.81866976 0.00024193272 0)
(0.81598205 0.0002322054 0)
(0.81333597 0.000223315 0)
(0.81070675 0.00021495292 0)
(0.80813499 0.00020896898 0)
(0.80547921 0.00019865379 0)
(0.80320895 0.00021888899 5.2814622e-20)
(0.79919413 0.0001806329 0)
(0.99810146 0.00058488344 0)
(0.99805036 0.00073091121 0)
(0.99802321 0.0008760597 0)
(0.99800758 0.0010204198 0)
(0.99800134 0.001169722 0)
(0.99800763 0.0013258738 0)
(0.99802909 0.0014876018 0)
(0.99806729 0.0016533295 0)
(0.99812407 0.0018209363 0)
(0.99820082 0.0019865687 0)
(0.9982975 0.0021461576 0)
(0.99841289 0.0022955449 0)
(0.99854471 0.0024309616 0)
(0.99868966 0.0025494718 0)
(0.99884422 0.0026494184 0)
(0.99900461 0.0027295054 0)
(0.99916724 0.0027903875 0)
(0.99932941 0.0028324844 0)
(0.99948833 0.0028566649 0)
(0.99964142 0.0028647209 0)
(0.99978741 0.0028590348 0)
(0.99992566 0.002840546 0)
(1.0000548 0.0028102715 0)
(1.0001731 0.0027699474 0)
(1.0002796 0.0027217841 0)
(1.0003737 0.0026680297 0)
(1.0004551 0.0026110237 0)
(1.0005238 0.0025532211 0)
(1.0005806 0.0024972131 0)
(1.0006269 0.0024456279 0)
(1.0006651 0.0024000566 0)
(1.0006975 0.0023612497 0)
(1.0007266 0.002329344 0)
(1.0007545 0.0023031906 0)
(1.0007823 0.0022810511 0)
(1.00081 0.0022614725 0)
(1.000837 0.0022432396 0)
(1.0008625 0.0022256146 0)
(1.0008854 0.0022086161 0)
(1.0009049 0.0021922144 0)
(1.0009202 0.0021763185 0)
(1.0009301 0.002160892 0)
(1.000933 0.0021454479 0)
(1.0009254 0.0021297636 0)
(1.0009025 0.0021139286 0)
(1.0008579 0.0020980534 0)
(1.0007836 0.0020821381 0)
(1.0006622 0.0020657883 0)
(1.0004641 0.0020488067 0)
(1.0001465 0.00203084 0)
(0.99964663 0.0020110934 0)
(0.99883307 0.0019880577 0)
(0.99752089 0.0019582934 0)
(0.99552941 0.001919366 0)
(0.99270045 0.001866681 0)
(0.98900644 0.0017976269 0)
(0.98455199 0.0017174032 0)
(0.97953742 0.0016305859 0)
(0.97420844 0.0015424348 0)
(0.96876965 0.0014570028 0)
(0.96334866 0.0013763552 0)
(0.95800168 0.0013019152 0)
(0.95274559 0.0012335496 0)
(0.94758576 0.0011703019 0)
(0.94252765 0.0011110621 0)
(0.93757642 0.0010551151 0)
(0.93273398 0.0010022702 0)
(0.92799918 0.00095236566 0)
(0.92336982 0.00090525289 0)
(0.9188435 0.00086080377 0)
(0.91441753 0.00081882812 0)
(0.91008902 0.0007791812 0)
(0.90585494 0.00074171844 0)
(0.90171228 0.00070630081 0)
(0.89765805 0.00067281002 0)
(0.89368933 0.00064112012 0)
(0.88980324 0.00061112328 0)
(0.885997 0.00058271814 0)
(0.88226789 0.00055580995 0)
(0.87861329 0.00053031037 0)
(0.87503063 0.00050613698 0)
(0.87151747 0.00048321305 0)
(0.8680714 0.00046146713 0)
(0.86469013 0.00044083264 0)
(0.86137142 0.00042124771 0)
(0.8581131 0.00040265476 0)
(0.85491308 0.00038500111 0)
(0.85176927 0.00036823739 0)
(0.84867972 0.00035232207 0)
(0.84564229 0.00033721179 0)
(0.84265525 0.00032288806 0)
(0.83971584 0.00030930046 0)
(0.83682343 0.0002965101 0)
(0.83397175 0.00028439008 0)
(0.83116638 0.00027332768 0)
(0.82838278 0.00026283683 0)
(0.82566118 0.00025544131 0)
(0.82285844 0.00024181646 -1.6702302e-20)
(0.82045896 0.00026960384 0)
(0.81623396 0.00021617737 -7.557761e-21)
(0.99814493 0.00060651518 0)
(0.9980928 0.00074404248 0)
(0.99806142 0.00088366647 0)
(0.99804213 0.0010243374 0)
(0.99803338 0.001170056 0)
(0.99803756 0.001322224 0)
(0.99805697 0.0014797349 0)
(0.99809306 0.0016410488 0)
(0.99814743 0.0018040877 0)
(0.9982213 0.001965326 0)
(0.99831461 0.0021209338 0)
(0.99842623 0.0022670049 0)
(0.99855401 0.0023999476 0)
(0.99869489 0.0025168979 0)
(0.99884551 0.0026161336 0)
(0.99900224 0.0026963821 0)
(0.99916163 0.0027580074 0)
(0.99932095 0.0028013886 0)
(0.99947749 0.0028273037 0)
(0.99962875 0.0028373665 0)
(0.99977334 0.0028337189 0)
(0.99991049 0.0028173863 0)
(1.0000389 0.00278942 0)
(1.0001569 0.0027514976 0)
(1.0002635 0.0027057427 0)
(1.0003581 0.0026543428 0)
(1.0004405 0.0025995794 0)
(1.0005108 0.0025438511 0)
(1.0005696 0.0024896744 0)
(1.0006185 0.0024395656 0)
(1.0006595 0.0023951048 0)
(1.0006952 0.0023570272 0)
(1.0007278 0.0023255027 0)
(1.0007595 0.0022995426 0)
(1.0007914 0.0022774977 0)
(1.0008239 0.0022579605 0)
(1.0008565 0.0022398341 0)
(1.0008886 0.0022224271 0)
(1.0009196 0.0022057126 0)
(1.0009493 0.0021897008 0)
(1.0009774 0.0021742781 0)
(1.0010036 0.0021592756 0)
(1.0010274 0.00214424 0)
(1.0010477 0.0021290113 0)
(1.0010634 0.0021136986 0)
(1.001073 0.0020984282 0)
(1.0010748 0.0020831381 0)
(1.0010662 0.0020676565 0)
(1.0010424 0.0020521175 0)
(1.0009964 0.0020366608 0)
(1.0009197 0.0020212572 0)
(1.0007959 0.0020054565 0)
(1.0005953 0.0019887402 0)
(1.0002745 0.0019706209 0)
(0.99977057 0.0019507974 0)
(0.99895082 0.0019279147 0)
(0.99764958 0.0018987296 0)
(0.99569905 0.0018604374 0)
(0.99296499 0.0018080942 0)
(0.98944846 0.0017419515 0)
(0.98524978 0.0016669727 0)
(0.98055942 0.001587401 0)
(0.97558849 0.001507329 0)
(0.97050347 0.0014290357 0)
(0.96540381 0.0013547442 0)
(0.96033658 0.0012853813 0)
(0.95532357 0.0012207523 0)
(0.95037932 0.001160064 0)
(0.94551545 0.0011026819 0)
(0.94073924 0.0010483582 0)
(0.93605403 0.00099693177 0)
(0.93146099 0.00094828417 0)
(0.92696019 0.00090227036 0)
(0.922551 0.00085874219 0)
(0.9182321 0.00081757002 0)
(0.91400178 0.0007786106 0)
(0.90985807 0.0007417375 0)
(0.90579885 0.00070682976 0)
(0.90182186 0.00067377293 0)
(0.8979248 0.00064245921 0)
(0.89410534 0.00061278735 0)
(0.89036115 0.00058466282 0)
(0.88668992 0.00055799729 0)
(0.88308936 0.0005327083 0)
(0.87955722 0.00050871906 0)
(0.87609129 0.00048595793 0)
(0.87268938 0.00046435927 0)
(0.86934934 0.00044386137 0)
(0.86606908 0.00042441208 0)
(0.86284638 0.00040595677 0)
(0.85967935 0.0003884713 0)
(0.85656515 0.00037189094 0)
(0.85350295 0.00035628918 0)
(0.85048646 0.00034149995 0)
(0.84752095 0.0003280072 0)
(0.84458207 0.00031513784 0)
(0.84170985 0.00030613641 2.431258e-21)
(0.83875916 0.00028881944 0)
(0.83623001 0.00032491454 5.0052147e-20)
(0.8317937 0.00025458665 0)
(0.99818791 0.00062810782 0)
(0.99813627 0.0007581502 0)
(0.99810255 0.0008924367 0)
(0.99808084 0.0010291978 0)
(0.99807008 0.0011710973 0)
(0.99807221 0.001319118 0)
(0.99808934 0.0014722694 0)
(0.99812292 0.0016290571 0)
(0.99817442 0.0017874627 0)
(0.99824492 0.0019442517 0)
(0.99833441 0.0020958252 0)
(0.99844184 0.0022385046 0)
(0.99856523 0.0023688728 0)
(0.99870171 0.0024841471 0)
(0.99884809 0.0025825612 0)
(0.99900092 0.0026628487 0)
(0.99915685 0.0027251346 0)
(0.99931314 0.0027697312 0)
(0.99946715 0.0027973319 0)
(0.99961642 0.0028093776 0)
(0.99975948 0.0028077969 0)
(0.99989542 0.0027936665 0)
(1.0000229 0.0027680496 0)
(1.0001404 0.0027325654 0)
(1.000247 0.0026892522 0)
(1.0003419 0.0026402366 0)
(1.0004251 0.0025877424 0)
(1.0004965 0.0025341078 0)
(1.0005568 0.0024817643 0)
(1.0006074 0.0024331149 0)
(1.0006505 0.0023897287 0)
(1.0006883 0.0023523617 0)
(1.0007231 0.00232121 0)
(1.0007571 0.0022954044 0)
(1.0007913 0.0022734239 0)
(1.0008262 0.0022539445 0)
(1.0008614 0.0022359283 0)
(1.0008966 0.0022187055 0)
(1.0009313 0.0022022039 0)
(1.0009652 0.0021864066 0)
(1.0009984 0.0021711847 0)
(1.0010308 0.0021563679 0)
(1.0010622 0.0021415684 0)
(1.001092 0.00212664 0)
(1.0011197 0.0021116925 0)
(1.0011448 0.0020968622 0)
(1.0011668 0.0020820785 0)
(1.001185 0.002067197 0)
(1.0011981 0.0020523262 0)
(1.0012045 0.0020375634 0)
(1.0012022 0.0020228192 0)
(1.0011883 0.0020078608 0)
(1.0011574 0.0019927444 0)
(1.0011017 0.0019777342 0)
(1.0010113 0.0019627145 0)
(1.0008663 0.0019471223 0)
(1.0006336 0.0019304054 0)
(1.0002654 0.0019120642 0)
(0.99968293 0.0018918155 0)
(0.99874483 0.0018677801 0)
(0.9972987 0.0018372994 0)
(0.99518745 0.001795318 0)
(0.99234473 0.0017399905 0)
(0.98879649 0.0016751047 0)
(0.98467072 0.0016039516 0)
(0.98015262 0.0015299915 0)
(0.97541653 0.0014557037 0)
(0.9705858 0.001383586 0)
(0.9657303 0.001315145 0)
(0.96088745 0.0012507085 0)
(0.95608146 0.0011898643 0)
(0.9513302 0.0011321756 0)
(0.94664577 0.0010773924 0)
(0.94203556 0.0010253949 0)
(0.93750391 0.00097609133 0)
(0.93305335 0.0009293521 0)
(0.92868513 0.00088505735 0)
(0.92439947 0.0008430864 0)
(0.92019589 0.0008033184 0)
(0.91607345 0.00076563487 0)
(0.91203084 0.00072992174 0)
(0.90806652 0.0006960704 0)
(0.90417874 0.00066397796 0)
(0.90036565 0.0006335474 0)
(0.89662533 0.00060468768 0)
(0.89295576 0.00057731338 0)
(0.88935494 0.00055134579 0)
(0.88582078 0.00052671057 0)
(0.88235126 0.00050334451 0)
(0.87894415 0.00048118116 0)
(0.87559757 0.00046019002 0)
(0.87230862 0.00044029155 0)
(0.86907639 0.00042157076 0)
(0.8658946 0.00040382188 0)
(0.86276831 0.00038762614 0)
(0.85967332 0.00037211539 0)
(0.85664964 0.00036130002 0)
(0.85354988 0.00033989416 0)
(0.85089034 0.00038505932 0)
(0.8462411 0.00029606959 0)
(0.99823016 0.00064943305 0)
(0.99817988 0.00077280859 0)
(0.99814523 0.00090197708 0)
(0.99812223 0.0010347489 0)
(0.99811022 0.001172731 0)
(0.99811079 0.0013165386 0)
(0.99812587 0.0014652594 0)
(0.99815694 0.0016174566 0)
(0.99820541 0.0017711871 0)
(0.99827231 0.0019234778 0)
(0.99835768 0.0020709574 0)
(0.99846061 0.0022101659 0)
(0.99857929 0.0023378595 0)
(0.99871106 0.0024513433 0)
(0.9988529 0.0025488228 0)
(0.99900153 0.0026290277 0)
(0.99915374 0.0026918833 0)
(0.99930678 0.0027376191 0)
(0.99945805 0.0027668418 0)
(0.99960515 0.0027808271 0)
(0.99974651 0.0027813098 0)
(0.9998811 0.0027693845 0)
(1.0000076 0.0027461204 0)
(1.0001245 0.0027130804 0)
(1.0002309 0.00267222 0)
(1.000326 0.0026256026 0)
(1.0004097 0.0025753915 0)
(1.000482 0.002523861 0)
(1.0005436 0.0024733587 0)
(1.0005957 0.0024261849 0)
(1.0006404 0.0023838945 0)
(1.00068 0.0023472663 0)
(1.0007165 0.0023165186 0)
(1.000752 0.0022908913 0)