/*--------------------------------*- C++ -*----------------------------------*\
  =========                 |
  \\      /  F ield         | OpenFOAM: The Open Source CFD Toolbox
   \\    /   O peration     | Website:  https://openfoam.org
    \\  /    A nd           | Version:  12
     \\/     M anipulation  |
\*---------------------------------------------------------------------------*/
FoamFile
{
    format      ascii;
    class       volScalarField;
    location    "1000";
    object      nut;
}
// * * * * * * * * * * * * * * * * * * * * * * * * * * * * * * * * * * * * * //

dimensions      [0 2 -1 0 0 0 0];

internalField   nonuniform List<scalar> 
13056
(
1.4727186e-06
1.4727825e-06
1.4730177e-06
1.473433e-06
1.4739842e-06
1.4746422e-06
1.4753884e-06
1.476208e-06
1.4770893e-06
1.4780227e-06
1.479001e-06
1.4800194e-06
1.4810749e-06
1.4821666e-06
1.4832964e-06
1.4844679e-06
1.4856915e-06
1.4869742e-06
1.4883495e-06
1.489821e-06
1.4914541e-06
1.4934737e-06
1.4948677e-06
1.4993837e-06
2.8176417e-13
8.1412188e-14
6.5810477e-14
6.0854515e-14
5.7803423e-14
5.5323714e-14
5.318803e-14
5.1319363e-14
4.966552e-14
4.8184287e-14
4.6844474e-14
4.5623413e-14
4.4503794e-14
4.3471765e-14
4.2515978e-14
4.1627104e-14
4.0797353e-14
4.0020152e-14
3.9289829e-14
3.8601522e-14
3.795104e-14
3.7334699e-14
3.6749376e-14
3.6192276e-14
3.566088e-14
3.5153064e-14
3.4666892e-14
3.420057e-14
3.3752563e-14
3.3321511e-14
3.2906116e-14
3.2505201e-14
3.211778e-14
3.1742931e-14
3.1379743e-14
3.1027415e-14
3.0685271e-14
3.0352667e-14
3.002895e-14
2.9713532e-14
2.9405939e-14
2.9105707e-14
2.8812357e-14
2.852545e-14
2.8244613e-14
2.7969511e-14
2.7699803e-14
2.7435142e-14
2.7175215e-14
2.6919776e-14
2.6668576e-14
2.6421345e-14
2.6177827e-14
2.5937801e-14
2.570108e-14
2.5467468e-14
2.523675e-14
2.5008722e-14
2.4783223e-14
2.4560102e-14
2.4339191e-14
2.412031e-14
2.3903287e-14
2.3688001e-14
2.3474318e-14
2.3262081e-14
2.3051132e-14
2.2841328e-14
2.2632556e-14
2.242469e-14
2.2217574e-14
2.201105e-14
2.1805005e-14
2.1599322e-14
2.1393845e-14
2.1188414e-14
2.0982886e-14
2.0777138e-14
2.0571019e-14
2.036435e-14
2.0156968e-14
1.9948733e-14
1.9739469e-14
1.9528965e-14
1.9317036e-14
1.9103503e-14
1.8888138e-14
1.8670672e-14
1.8450943e-14
1.8233454e-14
1.8025008e-14
1.7827438e-14
1.7639846e-14
1.7461392e-14
1.7291319e-14
1.7128982e-14
1.6973801e-14
1.6825222e-14
1.6682747e-14
1.6545954e-14
1.641446e-14
1.6287897e-14
1.6165918e-14
1.6048185e-14
1.5934431e-14
1.5824273e-14
1.5717637e-14
1.5613283e-14
1.5512888e-14
1.5408862e-14
1.5318777e-14
1.5169048e-14
1.4727186e-06
1.4727825e-06
1.4730176e-06
1.473433e-06
1.4739841e-06
1.4746422e-06
1.4753883e-06
1.4762081e-06
1.4770894e-06
1.4780228e-06
1.4790012e-06
1.4800196e-06
1.4810751e-06
1.4821668e-06
1.4832966e-06
1.4844681e-06
1.4856917e-06
1.4869744e-06
1.4883496e-06
1.489821e-06
1.491454e-06
1.4934735e-06
1.4948667e-06
1.4993923e-06
2.0746652e-11
6.7131158e-12
5.4336535e-12
5.0248327e-12
4.7730774e-12
4.5685757e-12
4.3924405e-12
4.2382942e-12
4.1018379e-12
3.9796043e-12
3.869029e-12
3.7682454e-12
3.6758275e-12
3.590634e-12
3.5117298e-12
3.438346e-12
3.3698405e-12
3.3056711e-12
3.2453704e-12
3.188537e-12
3.1348255e-12
3.0839319e-12
3.0355985e-12
2.9895946e-12
2.9457127e-12
2.9037773e-12
2.8636285e-12
2.8251185e-12
2.7881206e-12
2.7525223e-12
2.7182167e-12
2.6851067e-12
2.6531108e-12
2.6221527e-12
2.5921576e-12
2.5630592e-12
2.5348015e-12
2.5073316e-12
2.4805954e-12
2.4545446e-12
2.4291399e-12
2.4043429e-12
2.3801142e-12
2.3564176e-12
2.3332222e-12
2.3105002e-12
2.2882238e-12
2.2663641e-12
2.2448953e-12
2.2237971e-12
2.2030489e-12
2.1826285e-12
2.1625147e-12
2.1426892e-12
2.1231366e-12
2.1038408e-12
2.084784e-12
2.0659493e-12
2.0473234e-12
2.0288938e-12
2.0106468e-12
1.9925674e-12
1.9746414e-12
1.9568588e-12
1.9392085e-12
1.9216777e-12
1.9042532e-12
1.8869233e-12
1.8696785e-12
1.8525086e-12
1.8354005e-12
1.8183413e-12
1.8013216e-12
1.7843317e-12
1.767359e-12
1.7503899e-12
1.7334128e-12
1.7164174e-12
1.6993914e-12
1.6823199e-12
1.6651895e-12
1.6479885e-12
1.6307025e-12
1.6133141e-12
1.5958079e-12
1.5781692e-12
1.560379e-12
1.5424154e-12
1.5242647e-12
1.5062991e-12
1.4890804e-12
1.4727601e-12
1.457264e-12
1.4425227e-12
1.4284737e-12
1.4150637e-12
1.4022448e-12
1.3899714e-12
1.378202e-12
1.3669021e-12
1.3560398e-12
1.345585e-12
1.3355088e-12
1.3257832e-12
1.3163865e-12
1.3072868e-12
1.2984779e-12
1.2898578e-12
1.2815646e-12
1.2729725e-12
1.2655308e-12
1.253162e-12
1.4727184e-06
1.4727823e-06
1.4730174e-06
1.4734327e-06
1.4739838e-06
1.474642e-06
1.4753882e-06
1.476208e-06
1.4770895e-06
1.478023e-06
1.4790015e-06
1.48002e-06
1.4810756e-06
1.4821674e-06
1.4832972e-06
1.4844687e-06
1.4856922e-06
1.4869747e-06
1.4883497e-06
1.4898208e-06
1.4914531e-06
1.4934722e-06
1.4948631e-06
1.4993956e-06
1.5022175e-10
5.3675216e-11
4.3552617e-11
4.0281055e-11
3.8266762e-11
3.663155e-11
3.522292e-11
3.398961e-11
3.2897364e-11
3.1918664e-11
3.1033115e-11
3.022584e-11
2.9485463e-11
2.8802872e-11
2.8170602e-11
2.7582512e-11
2.7033471e-11
2.6519145e-11
2.6035795e-11
2.5580212e-11
2.5149631e-11
2.4741622e-11
2.435412e-11
2.3985281e-11
2.3633443e-11
2.32972e-11
2.2975272e-11
2.2666478e-11
2.2369799e-11
2.2084337e-11
2.1809235e-11
2.1543715e-11
2.1287124e-11
2.1038851e-11
2.0798296e-11
2.0564929e-11
2.0338302e-11
2.0117988e-11
1.9903557e-11
1.9694619e-11
1.949086e-11
1.9291973e-11
1.9097643e-11
1.8907578e-11
1.872153e-11
1.8539279e-11
1.8360598e-11
1.8185259e-11
1.8013055e-11
1.7843821e-11
1.7677392e-11
1.7513592e-11
1.735225e-11
1.7193219e-11
1.7036376e-11
1.6881592e-11
1.6728724e-11
1.6577636e-11
1.6428222e-11
1.6280383e-11
1.6134006e-11
1.5988973e-11
1.5845171e-11
1.5702517e-11
1.5560924e-11
1.5420289e-11
1.5280506e-11
1.514148e-11
1.5003137e-11
1.4865393e-11
1.4728145e-11
1.4591288e-11
1.4454748e-11
1.4318446e-11
1.418228e-11
1.4046143e-11
1.3909942e-11
1.3773593e-11
1.3636997e-11
1.3500036e-11
1.3362601e-11
1.32246e-11
1.3085916e-11
1.2946409e-11
1.2805957e-11
1.2664441e-11
1.2521709e-11
1.2377585e-11
1.2231959e-11
1.2087817e-11
1.1949667e-11
1.1818725e-11
1.1694395e-11
1.1576121e-11
1.1463401e-11
1.1355807e-11
1.1252955e-11
1.115448e-11
1.1060049e-11
1.0969384e-11
1.0882231e-11
1.0798346e-11
1.0717499e-11
1.0639465e-11
1.056407e-11
1.0491058e-11
1.0420381e-11
1.0351219e-11
1.0284678e-11
1.0215752e-11
1.0156044e-11
1.0056797e-11
1.4727182e-06
1.472782e-06
1.4730169e-06
1.4734322e-06
1.4739834e-06
1.4746416e-06
1.475388e-06
1.476208e-06
1.4770896e-06
1.4780234e-06
1.4790021e-06
1.4800207e-06
1.4810764e-06
1.4821682e-06
1.4832981e-06
1.4844695e-06
1.4856928e-06
1.4869751e-06
1.4883496e-06
1.4898202e-06
1.4914514e-06
1.4934698e-06
1.4948567e-06
1.4993932e-06
5.5070759e-10
2.173424e-10
1.7703391e-10
1.6377321e-10
1.5561266e-10
1.4899173e-10
1.4328592e-10
1.3828677e-10
1.3385648e-10
1.2988488e-10
1.2629002e-10
1.23012e-10
1.2000491e-10
1.1723195e-10
1.1466298e-10
1.1227315e-10
1.1004172e-10
1.0795114e-10
1.0598627e-10
1.0413411e-10
1.0238344e-10
1.0072443e-10
9.9148699e-11
9.7648763e-11
9.6217886e-11
9.4850357e-11
9.3540987e-11
9.228498e-11
9.1078203e-11
8.9917003e-11
8.8797907e-11
8.7717758e-11
8.6673892e-11
8.5663835e-11
8.4685156e-11
8.3735693e-11
8.2813623e-11
8.1917219e-11
8.1044731e-11
8.0194581e-11
7.936548e-11
7.8556186e-11
7.7765419e-11
7.6991996e-11
7.6234907e-11
7.549325e-11
7.4766113e-11
7.4052566e-11
7.3351762e-11
7.2663036e-11
7.1985716e-11
7.1319084e-11
7.066245e-11
7.0015213e-11
6.937687e-11
6.8746896e-11
6.8124716e-11
6.7509775e-11
6.690164e-11
6.6299903e-11
6.5704114e-11
6.511379e-11
6.4528468e-11
6.3947813e-11
6.3371471e-11
6.279902e-11
6.2230033e-11
6.1664125e-11
6.1100987e-11
6.0540283e-11
5.9981593e-11
5.9424491e-11
5.8868671e-11
5.8313815e-11
5.775951e-11
5.7205318e-11
5.6650856e-11
5.6095789e-11
5.5539713e-11
5.4982144e-11
5.4422643e-11
5.386083e-11
5.3296232e-11
5.2728279e-11
5.2156474e-11
5.158033e-11
5.0999233e-11
5.0412461e-11
4.9819571e-11
4.9232715e-11
4.8670251e-11
4.8137128e-11
4.7630924e-11
4.7149371e-11
4.6690429e-11
4.6252355e-11
4.5833587e-11
4.5432636e-11
4.5048149e-11
4.4678993e-11
4.4324134e-11
4.3982582e-11
4.3653399e-11
4.333567e-11
4.3028682e-11
4.27314e-11
4.2443621e-11
4.2162025e-11
4.1891089e-11
4.1610512e-11
4.1367396e-11
4.0963265e-11
1.4727179e-06
1.4727816e-06
1.4730163e-06
1.4734314e-06
1.4739827e-06
1.474641e-06
1.4753876e-06
1.4762079e-06
1.4770898e-06
1.4780238e-06
1.4790027e-06
1.4800216e-06
1.4810775e-06
1.4821694e-06
1.4832992e-06
1.4844705e-06
1.4856937e-06
1.4869755e-06
1.4883494e-06
1.4898192e-06
1.4914488e-06
1.4934662e-06
1.4948471e-06
1.4993851e-06
1.4549722e-09
6.3601782e-10
5.2096753e-10
4.8214929e-10
4.5826847e-10
4.3890001e-10
4.2219551e-10
4.0754418e-10
3.945476e-10
3.8288839e-10
3.7232965e-10
3.6269746e-10
3.5385826e-10
3.457048e-10
3.3814917e-10
3.3111889e-10
3.2455332e-10
3.1840112e-10
3.1261798e-10
3.0716583e-10
3.0201184e-10
2.9712715e-10
2.9248718e-10
2.8806999e-10
2.8385584e-10
2.7982793e-10
2.7597105e-10
2.7227111e-10
2.6871597e-10
2.6529489e-10
2.6199768e-10
2.5881507e-10
2.557392e-10
2.5276281e-10
2.4987878e-10
2.4708073e-10
2.4436329e-10
2.4172138e-10
2.3914988e-10
2.3664414e-10
2.3420035e-10
2.3181486e-10
2.2948392e-10
2.2720404e-10
2.2497225e-10
2.2278588e-10
2.2064227e-10
2.1853867e-10
2.1647259e-10
2.1444206e-10
2.1244512e-10
2.1047964e-10
2.085436e-10
2.0663524e-10
2.0475305e-10
2.028955e-10
2.010609e-10
1.9924761e-10
1.9745436e-10
1.9567993e-10
1.9392302e-10
1.9218219e-10
1.9045609e-10
1.8874372e-10
1.8704403e-10
1.853558e-10
1.8367775e-10
1.8200876e-10
1.8034791e-10
1.7869421e-10
1.7704643e-10
1.7540331e-10
1.7376394e-10
1.7212739e-10
1.7049244e-10
1.688578e-10
1.6722234e-10
1.6558507e-10
1.639448e-10
1.623001e-10
1.6064969e-10
1.5899242e-10
1.5732691e-10
1.5565149e-10
1.5396468e-10
1.5226504e-10
1.5055077e-10
1.4881973e-10
1.4707062e-10
1.4533927e-10
1.4367987e-10
1.4210701e-10
1.4061355e-10
1.391928e-10
1.3783875e-10
1.3654625e-10
1.353107e-10
1.341277e-10
1.3299327e-10
1.3190407e-10
1.3085704e-10
1.2984927e-10
1.2887798e-10
1.2794049e-10
1.2703469e-10
1.2615752e-10
1.2530839e-10
1.2447754e-10
1.236781e-10
1.2285045e-10
1.221331e-10
1.2094054e-10
1.4727174e-06
1.472781e-06
1.4730154e-06
1.4734304e-06
1.4739817e-06
1.4746403e-06
1.4753871e-06
1.4762077e-06
1.47709e-06
1.4780243e-06
1.4790036e-06
1.4800227e-06
1.4810788e-06
1.4821708e-06
1.4833006e-06
1.4844718e-06
1.4856946e-06
1.4869759e-06
1.4883489e-06
1.4898176e-06
1.491445e-06
1.493461e-06
1.494834e-06
1.4993707e-06
3.171338e-09
1.54143e-09
1.2726713e-09
1.178782e-09
1.1209651e-09
1.0740646e-09
1.0335584e-09
9.9797374e-10
9.6636411e-10
9.3797791e-10
9.12251e-10
8.8876712e-10
8.6720536e-10
8.4730757e-10
8.2886179e-10
8.1169303e-10
7.9565463e-10
7.8062227e-10
7.6648858e-10
7.5316116e-10
7.4056032e-10
7.2861599e-10
7.1726835e-10
7.0646413e-10
6.9615528e-10
6.8630088e-10
6.7686387e-10
6.6781005e-10
6.5910973e-10
6.5073674e-10
6.426663e-10
6.3487579e-10
6.27346e-10
6.2005924e-10
6.1299814e-10
6.0614717e-10
5.9949315e-10
5.9302373e-10
5.8672641e-10
5.8058983e-10
5.7460465e-10
5.6876197e-10
5.6305267e-10
5.5746821e-10
5.520013e-10
5.4664543e-10
5.4139408e-10
5.3624059e-10
5.3117884e-10
5.2620401e-10
5.2131127e-10
5.1649549e-10
5.1175169e-10
5.0707554e-10
5.0246339e-10
4.9791147e-10
4.9341566e-10
4.8897197e-10
4.8457724e-10
4.8022852e-10
4.7592261e-10
4.7165601e-10
4.674254e-10
4.6322832e-10
4.5906222e-10
4.549241e-10
4.5081086e-10
4.4671971e-10
4.426484e-10
4.3859453e-10
4.3455507e-10
4.3052696e-10
4.2650794e-10
4.2249573e-10
4.1848735e-10
4.1447966e-10
4.1046986e-10
4.0645553e-10
4.0243374e-10
3.9840103e-10
3.9435419e-10
3.9029046e-10
3.8620644e-10
3.8209801e-10
3.7796156e-10
3.7379356e-10
3.6958957e-10
3.6534438e-10
3.6105476e-10
3.5680861e-10
3.5273882e-10
3.488812e-10
3.4521824e-10
3.4173356e-10
3.3841239e-10
3.3524216e-10
3.3221155e-10
3.2930981e-10
3.2652716e-10
3.2385541e-10
3.2128707e-10
3.18815e-10
3.1643241e-10
3.141327e-10
3.1191069e-10
3.0975893e-10
3.0767592e-10
3.0563786e-10
3.0367673e-10
3.0164702e-10
2.9988729e-10
2.9696142e-10
1.4727169e-06
1.4727802e-06
1.4730143e-06
1.4734291e-06
1.4739804e-06
1.4746392e-06
1.4753864e-06
1.4762074e-06
1.4770901e-06
1.4780249e-06
1.4790046e-06
1.480024e-06
1.4810803e-06
1.4821725e-06
1.4833023e-06
1.4844732e-06
1.4856956e-06
1.4869762e-06
1.4883481e-06
1.4898154e-06
1.49144e-06
1.4934541e-06
1.494817e-06
1.4993496e-06
6.0878707e-09
3.3035057e-09
2.7582704e-09
2.5585065e-09
2.4349703e-09
2.3346337e-09
2.2477714e-09
2.1712769e-09
2.1031892e-09
2.041952e-09
1.9863878e-09
1.9356215e-09
1.8889747e-09
1.8458999e-09
1.8059464e-09
1.7687415e-09
1.7339718e-09
1.7013713e-09
1.6707099e-09
1.6417894e-09
1.6144384e-09
1.5885063e-09
1.5638645e-09
1.5403981e-09
1.5180037e-09
1.4965929e-09
1.4760858e-09
1.4564087e-09
1.4374973e-09
1.4192951e-09
1.4017486e-09
1.3848089e-09
1.3684344e-09
1.3525868e-09
1.3372286e-09
1.3223261e-09
1.3078508e-09
1.2937759e-09
1.2800744e-09
1.2667218e-09
1.2536975e-09
1.2409825e-09
1.228557e-09
1.2164024e-09
1.204503e-09
1.1928445e-09
1.1814129e-09
1.1701938e-09
1.1591738e-09
1.1483424e-09
1.1376892e-09
1.1272031e-09
1.1168733e-09
1.1066903e-09
1.0966462e-09
1.0867328e-09
1.0769412e-09
1.0672627e-09
1.0576905e-09
1.0482181e-09
1.0388385e-09
1.0295442e-09
1.020328e-09
1.0111844e-09
1.002108e-09
9.9309224e-10
9.8413035e-10
9.7521627e-10
9.6634509e-10
9.5751158e-10
9.4870918e-10
9.3993121e-10
9.3117274e-10
9.2242879e-10
9.1369292e-10
9.0495826e-10
8.9621869e-10
8.8746894e-10
8.7870265e-10
8.6991226e-10
8.6109077e-10
8.5223217e-10
8.4332903e-10
8.343724e-10
8.2535437e-10
8.1626722e-10
8.0710133e-10
7.978453e-10
7.8849204e-10
7.7923325e-10
7.7035872e-10
7.619466e-10
7.539587e-10
7.4635937e-10
7.3911646e-10
7.322025e-10
7.2559289e-10
7.1926419e-10
7.1319512e-10
7.0736777e-10
7.0176587e-10
6.9637384e-10
6.9117689e-10
6.8616065e-10
6.8131383e-10
6.7662021e-10
6.7207649e-10
6.6763101e-10
6.6335304e-10
6.58927e-10
6.5508843e-10
6.4870499e-10
1.4727162e-06
1.4727793e-06
1.4730129e-06
1.4734275e-06
1.4739789e-06
1.4746379e-06
1.4753855e-06
1.476207e-06
1.4770902e-06
1.4780255e-06
1.4790056e-06
1.4800255e-06
1.4810821e-06
1.4821744e-06
1.4833041e-06
1.4844748e-06
1.4856965e-06
1.4869763e-06
1.4883467e-06
1.4898123e-06
1.4914334e-06
1.4934453e-06
1.4947955e-06
1.4993211e-06
1.066907e-08
6.4844743e-09
5.5003949e-09
5.1149936e-09
4.8741441e-09
4.6778839e-09
4.5073026e-09
4.3565226e-09
4.2219094e-09
4.1005666e-09
3.9902756e-09
3.8893701e-09
3.7965483e-09
3.7107526e-09
3.6311098e-09
3.5568945e-09
3.4874955e-09
3.4223917e-09
3.3611316e-09
3.3033253e-09
3.2486356e-09
3.1967658e-09
3.1474611e-09
3.1004952e-09
3.0556633e-09
3.01279e-09
2.9717172e-09
2.9322988e-09
2.894407e-09
2.8579294e-09
2.8227601e-09
2.7888017e-09
2.7559712e-09
2.7241926e-09
2.6933914e-09
2.6635004e-09
2.6344626e-09
2.6062246e-09
2.578733e-09
2.5519384e-09
2.5258001e-09
2.5002799e-09
2.4753384e-09
2.4509387e-09
2.427049e-09
2.4036411e-09
2.3806867e-09
2.3581573e-09
2.3360262e-09
2.3142721e-09
2.2928744e-09
2.2718108e-09
2.2510597e-09
2.2306022e-09
2.2104223e-09
2.1905038e-09
2.1708289e-09
2.1513801e-09
2.1321435e-09
2.1131064e-09
2.0942548e-09
2.0755736e-09
2.0570483e-09
2.038668e-09
2.0204217e-09
2.0022962e-09
1.9842782e-09
1.9663554e-09
1.9485179e-09
1.9307552e-09
1.9130542e-09
1.8954014e-09
1.8777869e-09
1.8602007e-09
1.84263e-09
1.8250608e-09
1.8074808e-09
1.7898795e-09
1.7722441e-09
1.7545593e-09
1.7368111e-09
1.7189873e-09
1.7010731e-09
1.6830504e-09
1.6649031e-09
1.6466159e-09
1.6281694e-09
1.6095405e-09
1.5907149e-09
1.5720785e-09
1.5542148e-09
1.537281e-09
1.5212005e-09
1.5059016e-09
1.4913196e-09
1.4773994e-09
1.4640915e-09
1.4513487e-09
1.4391283e-09
1.4273942e-09
1.4161138e-09
1.4052557e-09
1.3947901e-09
1.3846883e-09
1.3749273e-09
1.3654748e-09
1.356324e-09
1.3473714e-09
1.3387555e-09
1.3298446e-09
1.3221138e-09
1.3092547e-09
1.4727153e-06
1.4727782e-06
1.4730112e-06
1.4734255e-06
1.4739769e-06
1.4746362e-06
1.4753843e-06
1.4762063e-06
1.4770901e-06
1.4780261e-06
1.4790068e-06
1.4800271e-06
1.481084e-06
1.4821764e-06
1.483306e-06
1.4844763e-06
1.4856974e-06
1.486976e-06
1.4883447e-06
1.4898081e-06
1.4914249e-06
1.493434e-06
1.4947687e-06
1.4992845e-06
1.7439428e-08
1.1886482e-08
1.0307224e-08
9.6256062e-09
9.190325e-09
8.8331272e-09
8.5205924e-09
8.2427422e-09
7.9935561e-09
7.7681691e-09
7.5627776e-09
7.3744778e-09
7.2009699e-09
7.0403684e-09
6.8911059e-09
6.7518731e-09
6.6215606e-09
6.4992179e-09
6.3840192e-09
6.2752485e-09
6.1722856e-09
6.0745832e-09
5.9816702e-09
5.8931282e-09
5.8085779e-09
5.7276928e-09
5.6501797e-09
5.5757668e-09
5.5042158e-09
5.4353172e-09
5.3688737e-09
5.3047035e-09
5.2426509e-09
5.182574e-09
5.124334e-09
5.067805e-09
5.0128794e-09
4.9594579e-09
4.9074403e-09
4.856734e-09
4.8072624e-09
4.7589535e-09
4.7117341e-09
4.6655346e-09
4.620295e-09
4.5759621e-09
4.5324834e-09
4.4898048e-09
4.4478762e-09
4.4066574e-09
4.3661095e-09
4.3261909e-09
4.2868608e-09
4.2480835e-09
4.2098286e-09
4.1720657e-09
4.1347615e-09
4.0978828e-09
4.0614034e-09
4.025299e-09
3.9895435e-09
3.9541086e-09
3.9189665e-09
3.8840966e-09
3.849478e-09
3.8150864e-09
3.780896e-09
3.7468837e-09
3.7130306e-09
3.6793171e-09
3.6457183e-09
3.6122086e-09
3.5787692e-09
3.5453811e-09
3.51202e-09
3.4786595e-09
3.4452762e-09
3.41185e-09
3.3783566e-09
3.3447672e-09
3.311055e-09
3.2771969e-09
3.2431644e-09
3.2089236e-09
3.1744437e-09
3.1396954e-09
3.1046419e-09
3.0692393e-09
3.0334604e-09
2.9980384e-09
2.9640825e-09
2.9318923e-09
2.9013222e-09
2.8722362e-09
2.8445117e-09
2.8180439e-09
2.7927389e-09
2.7685074e-09
2.7452682e-09
2.7229528e-09
2.7014992e-09
2.6808479e-09
2.6609426e-09
2.6417282e-09
2.6231617e-09
2.6051814e-09
2.5877744e-09
2.5707452e-09
2.5543548e-09
2.5374101e-09
2.5227041e-09
2.4982349e-09
1.4727142e-06
1.4727768e-06
1.4730091e-06
1.473423e-06
1.4739744e-06
1.4746341e-06
1.4753827e-06
1.4762054e-06
1.4770899e-06
1.4780265e-06
1.4790079e-06
1.4800287e-06
1.4810859e-06
1.4821785e-06
1.483308e-06
1.4844778e-06
1.4856979e-06
1.4869752e-06
1.4883417e-06
1.4898025e-06
1.4914141e-06
1.4934198e-06
1.4947357e-06
1.499239e-06
2.6951526e-08
2.0559084e-08
1.8370017e-08
1.7271373e-08
1.6540126e-08
1.5931631e-08
1.5393223e-08
1.4910199e-08
1.4473973e-08
1.407734e-08
1.3714452e-08
1.3380714e-08
1.3072404e-08
1.2786416e-08
1.2520141e-08
1.2271376e-08
1.2038241e-08
1.1819111e-08
1.1612565e-08
1.1417367e-08
1.1232441e-08
1.1056835e-08
1.0889726e-08
1.0730382e-08
1.0578139e-08
1.0432421e-08
1.0292713e-08
1.0158534e-08
1.0029464e-08
9.905131e-09
9.7851866e-09
9.6693082e-09
9.5572185e-09
9.4486654e-09
9.3434029e-09
9.2412061e-09
9.1418828e-09
9.045256e-09
8.9511478e-09
8.8593925e-09
8.7698521e-09
8.6823987e-09
8.5969014e-09
8.5132357e-09
8.4312936e-09
8.3509799e-09
8.2722004e-09
8.1948588e-09
8.1188647e-09
8.0441454e-09
7.9706313e-09
7.898248e-09
7.8269224e-09
7.7565895e-09
7.6871949e-09
7.6186839e-09
7.5509966e-09
7.4840734e-09
7.4178666e-09
7.3523325e-09
7.2874242e-09
7.2230906e-09
7.1592815e-09
7.0959594e-09
7.0330869e-09
6.9706197e-09
6.9085116e-09
6.8467206e-09
6.7852122e-09
6.7239509e-09
6.6628921e-09
6.6019892e-09
6.5412077e-09
6.4805132e-09
6.4198618e-09
6.3592057e-09
6.2985022e-09
6.2377144e-09
6.1767985e-09
6.1157022e-09
6.0543765e-09
5.992779e-09
5.9308584e-09
5.8685526e-09
5.8058057e-09
5.7425639e-09
5.6787601e-09
5.6143148e-09
5.5491775e-09
5.4846834e-09
5.4228527e-09
5.3642318e-09
5.3085561e-09
5.2555789e-09
5.2050776e-09
5.1568616e-09
5.1107606e-09
5.0666123e-09
5.024269e-09
4.9836063e-09
4.9445116e-09
4.9068767e-09
4.8705993e-09
4.8355795e-09
4.8017388e-09
4.7689652e-09
4.7372352e-09
4.7061949e-09
4.6763158e-09
4.6454389e-09
4.6186316e-09
4.5740087e-09
1.472713e-06
1.4727752e-06
1.4730066e-06
1.47342e-06
1.4739714e-06
1.4746314e-06
1.4753806e-06
1.4762041e-06
1.4770894e-06
1.4780268e-06
1.4790089e-06
1.4800303e-06
1.4810879e-06
1.4821805e-06
1.4833097e-06
1.4844789e-06
1.485698e-06
1.4869736e-06
1.4883374e-06
1.489795e-06
1.4914005e-06
1.4934022e-06
1.4946957e-06
1.4991835e-06
3.9733057e-08
3.3735182e-08
3.1329229e-08
2.9759227e-08
2.8629638e-08
2.7664186e-08
2.679347e-08
2.6000816e-08
2.5277057e-08
2.4613582e-08
2.4002765e-08
2.3438262e-08
2.2914698e-08
2.2427443e-08
2.1972522e-08
2.1546522e-08
2.1146483e-08
2.0769814e-08
2.0414229e-08
2.0077722e-08
1.9758533e-08
1.9455102e-08
1.9166066e-08
1.8890214e-08
1.8626441e-08
1.8373782e-08
1.8131375e-08
1.7898417e-08
1.7674195e-08
1.7458082e-08
1.7249491e-08
1.7047876e-08
1.6852762e-08
1.6663724e-08
1.6480344e-08
1.6302238e-08
1.6129076e-08
1.5960557e-08
1.5796378e-08
1.5636255e-08
1.547995e-08
1.5327243e-08
1.5177912e-08
1.5031743e-08
1.4888548e-08
1.4748164e-08
1.461043e-08
1.447518e-08
1.4342256e-08
1.4211535e-08
1.4082894e-08
1.3956208e-08
1.3831349e-08
1.3708204e-08
1.3586679e-08
1.3466679e-08
1.3348102e-08
1.3230844e-08
1.311482e-08
1.2999956e-08
1.288617e-08
1.2773374e-08
1.2661481e-08
1.2550424e-08
1.2440138e-08
1.2330546e-08
1.2221569e-08
1.2113133e-08
1.2005176e-08
1.1897637e-08
1.1790439e-08
1.16835e-08
1.1576759e-08
1.1470156e-08
1.1363613e-08
1.1257048e-08
1.1150385e-08
1.1043559e-08
1.0936494e-08
1.0829097e-08
1.0721282e-08
1.0612974e-08
1.0504084e-08
1.0394501e-08
1.0284127e-08
1.0172868e-08
1.0060604e-08
9.9471957e-09
9.8325535e-09
9.7190272e-09
9.6101745e-09
9.5069591e-09
9.4089176e-09
9.3156172e-09
9.2266673e-09
9.1417335e-09
9.0605169e-09
8.9827332e-09
8.9081229e-09
8.8364675e-09
8.7675691e-09
8.7012383e-09
8.6372951e-09
8.5755643e-09
8.5159077e-09
8.4581291e-09
8.4021867e-09
8.3474615e-09
8.2947766e-09
8.2403562e-09
8.1930907e-09
8.1143711e-09
1.4727115e-06
1.4727732e-06
1.4730037e-06
1.4734165e-06
1.4739678e-06
1.4746282e-06
1.475378e-06
1.4762023e-06
1.4770885e-06
1.4780268e-06
1.4790096e-06
1.4800316e-06
1.4810895e-06
1.4821822e-06
1.4833111e-06
1.4844796e-06
1.4856972e-06
1.4869708e-06
1.4883315e-06
1.4897853e-06
1.4913835e-06
1.4933803e-06
1.4946472e-06
1.4991168e-06
5.6209552e-08
5.2685633e-08
5.1235694e-08
4.9383529e-08
4.7827427e-08
4.642705e-08
4.5121413e-08
4.3903874e-08
4.2772393e-08
4.1721536e-08
4.0744478e-08
3.9834512e-08
3.8985271e-08
3.8190862e-08
3.744598e-08
3.6745918e-08
3.6086472e-08
3.5463871e-08
3.487473e-08
3.4316029e-08
3.3785097e-08
3.3279537e-08
3.279724e-08
3.2336319e-08
3.1895039e-08
3.1471875e-08
3.1065461e-08
3.0674518e-08
3.0297904e-08
2.9934612e-08
2.9583699e-08
2.924428e-08
2.8915587e-08
2.8596929e-08
2.8287627e-08
2.7987054e-08
2.769467e-08
2.7409982e-08
2.7132496e-08
2.6861743e-08
2.6597331e-08
2.6338899e-08
2.6086082e-08
2.5838524e-08
2.5595915e-08
2.5357985e-08
2.5124466e-08
2.4895086e-08
2.4669582e-08
2.4447744e-08
2.4229374e-08
2.401426e-08
2.3802191e-08
2.3592976e-08
2.3386459e-08
2.3182481e-08
2.2980872e-08
2.2781457e-08
2.2584094e-08
2.2388657e-08
2.2195012e-08
2.2003008e-08
2.1812498e-08
2.1623371e-08
2.1435516e-08
2.1248807e-08
2.1063105e-08
2.0878287e-08
2.0694249e-08
2.0510887e-08
2.032807e-08
2.014566e-08
1.9963551e-08
1.9781641e-08
1.9599802e-08
1.941789e-08
1.9235776e-08
1.9053348e-08
1.8870478e-08
1.8687007e-08
1.8502788e-08
1.8317692e-08
1.8131566e-08
1.7944221e-08
1.7755488e-08
1.7565204e-08
1.7373167e-08
1.7179135e-08
1.6982954e-08
1.6788645e-08
1.6602301e-08
1.6425576e-08
1.6257681e-08
1.609788e-08
1.5945507e-08
1.5799993e-08
1.5660828e-08
1.5527528e-08
1.539965e-08
1.5276822e-08
1.5158706e-08
1.5044979e-08
1.4935334e-08
1.4829473e-08
1.4727159e-08
1.4628058e-08
1.4532097e-08
1.4438226e-08
1.4347839e-08
1.4254518e-08
1.4173436e-08
1.4038301e-08
1.4727098e-06
1.472771e-06
1.4730002e-06
1.4734122e-06
1.4739634e-06
1.4746242e-06
1.4753747e-06
1.4761998e-06
1.477087e-06
1.4780262e-06
1.4790099e-06
1.4800325e-06
1.4810908e-06
1.4821834e-06
1.4833119e-06
1.4844793e-06
1.4856952e-06
1.4869663e-06
1.4883233e-06
1.4897726e-06
1.4913622e-06
1.4933535e-06
1.4945888e-06
1.4990376e-06
7.6617671e-08
7.8496981e-08
8.0333482e-08
7.8919999e-08
7.7141164e-08
7.5359071e-08
7.3593476e-08
7.1878198e-08
7.0237318e-08
6.8680845e-08
6.7210558e-08
6.5824289e-08
6.4517721e-08
6.3285585e-08
6.2122455e-08
6.102308e-08
5.9982444e-08
5.899581e-08
5.8058759e-08
5.716724e-08
5.6317595e-08
5.5506476e-08
5.4730894e-08
5.3988144e-08
5.3275704e-08
5.2591333e-08
5.1933012e-08
5.1298835e-08
5.0687084e-08
5.0096239e-08
4.9524869e-08
4.8971624e-08
4.8435322e-08
4.79149e-08
4.7409316e-08
4.6917593e-08
4.6438887e-08
4.5972434e-08
4.5517462e-08
4.5073235e-08
4.4639131e-08
4.4214585e-08
4.3799023e-08
4.3391881e-08
4.2992666e-08
4.2600946e-08
4.22163e-08
4.1838292e-08
4.1466504e-08
4.1100596e-08
4.0740253e-08
4.0385138e-08
4.0034909e-08
3.9689261e-08
3.9347938e-08
3.9010688e-08
3.8677234e-08
3.8347296e-08
3.8020641e-08
3.7697065e-08
3.7376349e-08
3.7058252e-08
3.6742532e-08
3.6429004e-08
3.6117492e-08
3.5807787e-08
3.5499665e-08
3.5192919e-08
3.488738e-08
3.4582878e-08
3.4279198e-08
3.397611e-08
3.367344e-08
3.3371019e-08
3.3068634e-08
3.2766049e-08
3.2463048e-08
3.2159445e-08
3.1855025e-08
3.1549527e-08
3.1242703e-08
3.0934338e-08
3.0624175e-08
3.0311902e-08
2.9997234e-08
2.9679896e-08
2.935955e-08
2.9035794e-08
2.8708363e-08
2.8383969e-08
2.8072793e-08
2.777761e-08
2.749711e-08
2.7230075e-08
2.69754e-08
2.6732139e-08
2.6499449e-08
2.6276525e-08
2.6062632e-08
2.5857152e-08
2.5659522e-08
2.5469209e-08
2.52857e-08
2.5108499e-08
2.4937213e-08
2.4771287e-08
2.46106e-08
2.4453409e-08
2.4302024e-08
2.4145799e-08
2.401001e-08
2.3783498e-08
1.4727078e-06
1.4727683e-06
1.4729961e-06
1.4734072e-06
1.4739582e-06
1.4746192e-06
1.4753705e-06
1.4761965e-06
1.4770847e-06
1.4780249e-06
1.4790094e-06
1.4800327e-06
1.4810912e-06
1.4821838e-06
1.4833115e-06
1.4844777e-06
1.4856915e-06
1.4869597e-06
1.4883122e-06
1.4897562e-06
1.4913357e-06
1.4933205e-06
1.4945188e-06
1.4989445e-06
1.0092335e-07
1.1181014e-07
1.2066886e-07
1.2126484e-07
1.1993128e-07
1.1812444e-07
1.1608895e-07
1.1395643e-07
1.1181232e-07
1.097061e-07
1.076647e-07
1.0570175e-07
1.0382258e-07
1.020278e-07
1.0031557e-07
9.8682781e-08
9.7125508e-08
9.5639376e-08
9.4219865e-08
9.2862542e-08
9.1563214e-08
9.0317888e-08
8.9122884e-08
8.7974798e-08
8.6870368e-08
8.5806638e-08
8.4780919e-08
8.3790628e-08
8.2833395e-08
8.1907117e-08
8.1009799e-08
8.0139527e-08
7.9294611e-08
7.8473537e-08
7.7674808e-08
7.6896998e-08
7.6138871e-08
7.5399315e-08
7.4677199e-08
7.3971426e-08
7.3281068e-08
7.260529e-08
7.1943236e-08
7.1294059e-08
7.065701e-08
7.0031439e-08
6.9416712e-08
6.881217e-08
6.8217173e-08
6.7631197e-08
6.7053764e-08
6.648436e-08
6.5922461e-08
6.5367591e-08
6.4819355e-08
6.4277366e-08
6.3741197e-08
6.321041e-08
6.2684639e-08
6.2163566e-08
6.1646851e-08
6.1134119e-08
6.0624987e-08
6.0119159e-08
5.9616361e-08
5.9116263e-08
5.8618513e-08
5.8122778e-08
5.7628788e-08
5.7136272e-08
5.6644891e-08
5.6154276e-08
5.5664142e-08
5.5174221e-08
5.4684172e-08
5.4193611e-08
5.370219e-08
5.3209607e-08
5.2715514e-08
5.2219489e-08
5.1721126e-08
5.1220074e-08
5.0715915e-08
5.0208141e-08
4.9696282e-08
4.9179889e-08
4.865841e-08
4.8131184e-08
4.7597774e-08
4.7069114e-08
4.6561813e-08
4.6080419e-08
4.5622825e-08
4.5187062e-08
4.4771349e-08
4.4374158e-08
4.3994125e-08
4.3629952e-08
4.3280449e-08
4.2944613e-08
4.2621538e-08
4.2310356e-08
4.2010242e-08
4.1720389e-08
4.1440159e-08
4.1168653e-08
4.0905676e-08
4.0648406e-08
4.0400579e-08
4.0144953e-08
3.9922679e-08
3.9551485e-08
1.4727054e-06
1.4727652e-06
1.4729913e-06
1.4734013e-06
1.4739519e-06
1.4746132e-06
1.4753651e-06
1.4761921e-06
1.4770813e-06
1.4780226e-06
1.4790079e-06
1.4800317e-06
1.4810905e-06
1.4821827e-06
1.4833096e-06
1.4844741e-06
1.4856854e-06
1.4869501e-06
1.4882973e-06
1.4897351e-06
1.491303e-06
1.4932801e-06
1.4944352e-06
1.4988358e-06
1.287601e-07
1.525873e-07
1.7362092e-07
1.7886753e-07
1.7933981e-07
1.7836244e-07
1.7663513e-07
1.7447472e-07
1.7207939e-07
1.6957463e-07
1.6703925e-07
1.64522e-07
1.6205173e-07
1.5964503e-07
1.5731131e-07
1.5505541e-07
1.528789e-07
1.5078113e-07
1.4876005e-07
1.4681282e-07
1.4493627e-07
1.4312696e-07
1.4138147e-07
1.3969642e-07
1.3806837e-07
1.3649407e-07
1.3497051e-07
1.3349467e-07
1.3206371e-07
1.3067507e-07
1.2932631e-07
1.2801499e-07
1.2673896e-07
1.2549627e-07
1.2428498e-07
1.2310318e-07
1.2194924e-07
1.2082165e-07
1.1971891e-07
1.186395e-07
1.1758215e-07
1.165457e-07
1.1552898e-07
1.145308e-07
1.1355009e-07
1.1258595e-07
1.1163748e-07
1.1070375e-07
1.0978383e-07
1.0887696e-07
1.0798247e-07
1.0709961e-07
1.0622762e-07
1.0536581e-07
1.0451359e-07
1.0367039e-07
1.028356e-07
1.0200857e-07
1.0118873e-07
1.0037563e-07
9.9568759e-08
9.8767556e-08
9.7971441e-08
9.7179965e-08
9.6392713e-08
9.5609193e-08
9.4828864e-08
9.4051214e-08
9.3275828e-08
9.2502293e-08
9.1730086e-08
9.0958638e-08
9.0187499e-08
8.9416254e-08
8.8644374e-08
8.7871261e-08
8.7096362e-08
8.6319201e-08
8.5539234e-08
8.4755795e-08
8.3968237e-08
8.3176e-08
8.2378426e-08
8.1574703e-08
8.0764079e-08
7.9945835e-08
7.9119092e-08
7.8282788e-08
7.7436216e-08
7.6596728e-08
7.579074e-08
7.5025536e-08
7.4297823e-08
7.3604525e-08
7.294285e-08
7.2310402e-08
7.1705044e-08
7.1124741e-08
7.0567624e-08
7.0032114e-08
6.9516789e-08
6.9020285e-08
6.8541303e-08
6.8078569e-08
6.7631079e-08
6.7197416e-08
6.6777275e-08
6.6366205e-08
6.5970094e-08
6.5561723e-08
6.5206472e-08
6.4612399e-08
1.4727027e-06
1.4727616e-06
1.4729858e-06
1.4733942e-06
1.4739443e-06
1.4746058e-06
1.4753583e-06
1.4761862e-06
1.4770765e-06
1.4780188e-06
1.4790049e-06
1.4800292e-06
1.4810881e-06
1.4821798e-06
1.4833054e-06
1.4844679e-06
1.4856761e-06
1.4869365e-06
1.4882776e-06
1.4897079e-06
1.4912624e-06
1.4932307e-06
1.4943355e-06
1.4987095e-06
1.5939837e-07
1.999862e-07
2.3947635e-07
2.5314462e-07
2.5760392e-07
2.5893461e-07
2.5861307e-07
2.572587e-07
2.5524571e-07
2.5282063e-07
2.5014872e-07
2.4734004e-07
2.4446657e-07
2.4157588e-07
2.3870036e-07
2.358622e-07
2.330759e-07
2.3035044e-07
2.2769094e-07
2.2510003e-07
2.2257866e-07
2.2012653e-07
2.1774252e-07
2.1542503e-07
2.1317186e-07
2.109806e-07
2.0884888e-07
2.0677406e-07
2.0475346e-07
2.0278463e-07
2.0086512e-07
1.9899236e-07
1.97164e-07
1.9537796e-07
1.9363205e-07
1.9192405e-07
1.9025204e-07
1.8861429e-07
1.8700898e-07
1.8543426e-07
1.8388852e-07
1.8237038e-07
1.8087836e-07
1.7941094e-07
1.7796675e-07
1.7654461e-07
1.751434e-07
1.7376188e-07