/*--------------------------------*- C++ -*----------------------------------*\
  =========                 |
  \\      /  F ield         | OpenFOAM: The Open Source CFD Toolbox
   \\    /   O peration     | Website:  https://openfoam.org
    \\  /    A nd           | Version:  12
     \\/     M anipulation  |
\*---------------------------------------------------------------------------*/
FoamFile
{
    format      ascii;
    class       volScalarField;
    location    "1000";
    object      nut;
}
// * * * * * * * * * * * * * * * * * * * * * * * * * * * * * * * * * * * * * //

dimensions      [0 2 -1 0 0 0 0];

internalField   nonuniform List<scalar> 
7480
(
1.0945624e-06
7.3140508e-07
5.7275245e-07
5.3713843e-07
5.6292137e-07
6.3755574e-07
7.6938704e-07
9.7482813e-07
1.2759644e-06
1.6964584e-06
2.2558861e-06
2.9702208e-06
3.8448155e-06
4.8390839e-06
5.8326195e-06
6.6687787e-06
7.2498951e-06
7.5707859e-06
7.7056786e-06
7.6739513e-06
7.5850151e-06
7.4556973e-06
7.3081431e-06
7.1659647e-06
7.0578024e-06
6.9896702e-06
6.9532779e-06
6.9376634e-06
6.9351233e-06
6.9413566e-06
6.9525718e-06
6.9651687e-06
6.9772293e-06
6.9556333e-06
6.9189293e-06
6.8825095e-06
6.8508247e-06
6.8247079e-06
6.8030969e-06
6.7841673e-06
6.7663551e-06
6.7488492e-06
6.7314524e-06
6.7146282e-06
6.7011549e-06
6.6984874e-06
6.7348552e-06
6.8771531e-06
7.2284482e-06
7.8070207e-06
8.3397659e-06
8.6827237e-06
8.9492847e-06
9.1464788e-06
9.2774027e-06
9.3600249e-06
9.4139658e-06
9.4530302e-06
9.4834878e-06
9.5089619e-06
9.53101e-06
9.5503946e-06
9.5677452e-06
9.5836847e-06
9.5985886e-06
9.6127889e-06
9.6266771e-06
9.640475e-06
9.654274e-06
9.6681667e-06
9.6822774e-06
9.6967407e-06
9.7116848e-06
9.727229e-06
9.7434877e-06
9.7605719e-06
9.778589e-06
9.7976435e-06
9.8178324e-06
9.8392418e-06
9.8619457e-06
9.8859889e-06
9.9112928e-06
9.9368838e-06
9.9510641e-06
9.7039846e-06
4.2981329e-06
4.0041097e-06
4.0299389e-06
4.0472784e-06
4.0577556e-06
4.0657746e-06
4.0712353e-06
4.0746627e-06
4.0765895e-06
4.0774122e-06
4.0773637e-06
4.0766808e-06
4.0754219e-06
4.0712812e-06
1.4046359e-06
1.3374264e-06
1.2638734e-06
1.1906893e-06
1.1201498e-06
1.0540758e-06
9.9190963e-07
9.4344259e-07
8.9593301e-07
9.1109534e-07
9.5981381e-07
1.0520084e-06
1.2024092e-06
1.4328634e-06
1.763424e-06
2.1994032e-06
2.7503799e-06
3.3846513e-06
4.0859274e-06
4.8523214e-06
5.6789906e-06
6.468359e-06
7.1935459e-06
7.8591485e-06
8.4627596e-06
9.0048673e-06
9.4895007e-06
9.923325e-06
1.0318239e-05
1.0686212e-05
1.103055e-05
1.1351216e-05
1.164456e-05
1.1904878e-05
1.21352e-05
1.2344824e-05
1.2543666e-05
1.2745939e-05
1.2956693e-05
1.317481e-05
1.3397142e-05
1.3621166e-05
1.3844856e-05
1.4065852e-05
1.428523e-05
1.4486092e-05
1.4678779e-05
1.4891996e-05
1.5170881e-05
1.5543087e-05
1.5949876e-05
1.631959e-05
1.6637997e-05
1.6904302e-05
1.7128333e-05
1.7320862e-05
1.749083e-05
1.7646174e-05
1.7792609e-05
1.7934136e-05
1.8071012e-05
1.8202879e-05
1.8329992e-05
1.8453178e-05
1.8572667e-05
1.8689016e-05
1.880324e-05
1.8915763e-05
1.9026612e-05
1.9135873e-05
1.924376e-05
1.9350537e-05
1.9456467e-05
1.9561792e-05
1.9666743e-05
1.9771544e-05
1.9876406e-05
1.9981532e-05
2.0087112e-05
2.0193309e-05
2.0300266e-05
2.0408071e-05
2.0516561e-05
2.0623858e-05
2.0707892e-05
2.0527886e-05
1.7373046e-05
1.5971919e-05
1.491807e-05
1.426204e-05
1.3827333e-05
1.3533085e-05
1.332569e-05
1.3175663e-05
1.3064626e-05
1.2980825e-05
1.2916205e-05
1.2865661e-05
1.2825094e-05
1.279166e-05
1.4372479e-06
1.4137603e-06
1.3876668e-06
1.3602795e-06
1.3319744e-06
1.3022043e-06
1.2707083e-06
1.2374315e-06
1.2023268e-06
1.1677798e-06
1.1349735e-06
1.1052921e-06
1.0805651e-06
1.062616e-06
1.0457266e-06
1.047897e-06
1.0641928e-06
1.1231086e-06
1.2359352e-06
1.4151721e-06
1.6775912e-06
2.0395221e-06
2.5035766e-06
3.0895622e-06
3.7667231e-06
4.5284009e-06
5.3880007e-06
6.2955912e-06
7.2132912e-06
8.1131486e-06
8.9721963e-06
9.7717557e-06
1.0486563e-05
1.1132492e-05
1.1739295e-05
1.2325918e-05
1.2895073e-05
1.3445835e-05
1.3973091e-05
1.4480091e-05
1.4970817e-05
1.5449007e-05
1.5915245e-05
1.6367885e-05
1.6807357e-05
1.7230929e-05
1.7637121e-05
1.8029294e-05
1.8426697e-05
1.8840828e-05
1.9265508e-05
1.9688689e-05
2.0093507e-05
2.0476023e-05
2.0838626e-05
2.1182444e-05
2.150812e-05
2.1820198e-05
2.2124293e-05
2.2423863e-05
2.271589e-05
2.299923e-05
2.3274111e-05
2.3541561e-05
2.380112e-05
2.4053817e-05
2.4301236e-05
2.4543547e-05
2.4780499e-05
2.5012101e-05
2.5238562e-05
2.5460147e-05
2.5677115e-05
2.5889701e-05
2.6098129e-05
2.6302617e-05
2.6503376e-05
2.6700615e-05
2.6894536e-05
2.7085328e-05
2.7273175e-05
2.7458228e-05
2.7640454e-05
2.7818746e-05
2.7979419e-05
2.7998807e-05
2.6868291e-05
2.6273688e-05
2.5821121e-05
2.5545176e-05
2.5377933e-05
2.528321e-05
2.5232119e-05
2.5207459e-05
2.5198566e-05
2.5199425e-05
2.5204333e-05
2.5215348e-05
2.5215617e-05
2.5249667e-05
1.4469114e-06
1.4351215e-06
1.4222496e-06
1.4087733e-06
1.3947982e-06
1.3803272e-06
1.3653593e-06
1.349752e-06
1.3334636e-06
1.3162905e-06
1.2981492e-06
1.2789433e-06
1.2586681e-06
1.2376376e-06
1.2166715e-06
1.1962463e-06
1.1765947e-06
1.1585552e-06
1.1439549e-06
1.1336093e-06
1.1279663e-06
1.1324459e-06
1.1485646e-06
1.1903444e-06
1.2807055e-06
1.433706e-06
1.669646e-06
2.0086804e-06
2.4653257e-06
3.0658911e-06
3.8050827e-06
4.6621742e-06
5.6365457e-06
6.6745937e-06
7.7293214e-06
8.7667943e-06
9.7648895e-06
1.0712948e-05
1.1611173e-05
1.2465968e-05
1.3286126e-05
1.4080679e-05
1.4845395e-05
1.5580121e-05
1.6301886e-05
1.7012705e-05
1.7701206e-05
1.8364969e-05
1.9009914e-05
1.9640798e-05
2.0259749e-05
2.0866044e-05
2.1458813e-05
2.2036261e-05
2.2596173e-05
2.3137057e-05
2.3658493e-05
2.416986e-05
2.4675205e-05
2.5175417e-05
2.5660801e-05
2.6132928e-05
2.6592919e-05
2.7042083e-05
2.7478441e-05
2.7905039e-05
2.8323613e-05
2.8733336e-05
2.9133817e-05
2.9525189e-05
2.9907709e-05
3.0281629e-05
3.0647174e-05
3.100454e-05
3.1353906e-05
3.1695438e-05
3.2029291e-05
3.235561e-05
3.2674536e-05
3.2986199e-05
3.3290729e-05
3.3588243e-05
3.3878757e-05
3.4161972e-05
3.4432377e-05
3.4648912e-05
3.4505221e-05
3.4473158e-05
3.4462199e-05
3.4502641e-05
3.4582954e-05
3.4693742e-05
3.4823054e-05
3.4962005e-05
3.5104361e-05
3.5247286e-05
3.5385241e-05
3.5527967e-05
3.5634017e-05
3.5847027e-05
1.4516932e-06
1.4446836e-06
1.4371142e-06
1.4292092e-06
1.4210143e-06
1.4125325e-06
1.4037586e-06
1.3946824e-06
1.385294e-06
1.3755705e-06
1.3654818e-06
1.3549888e-06
1.3440489e-06
1.3326101e-06
1.3206896e-06
1.3082543e-06
1.2953235e-06
1.2817666e-06
1.267538e-06
1.2529395e-06
1.2384433e-06
1.2243186e-06
1.2108228e-06
1.1986123e-06
1.1896902e-06
1.1813306e-06
1.1825197e-06
1.1897898e-06
1.2121544e-06
1.2554079e-06
1.3517067e-06
1.5225731e-06
1.7952545e-06
2.1967596e-06
2.7459632e-06
3.4836505e-06
4.3690446e-06
5.391196e-06
6.5264193e-06
7.7173949e-06
8.9187239e-06
1.0096845e-05
1.1232378e-05
1.2319768e-05
1.3365101e-05
1.4379788e-05
1.5369976e-05
1.6334633e-05
1.727228e-05
1.818353e-05
1.9071152e-05
1.9932701e-05
2.0779717e-05
2.1606146e-05
2.2412168e-05
2.3197902e-05
2.396293e-05
2.4710521e-05
2.5443817e-05
2.6165366e-05
2.6872285e-05
2.7563877e-05
2.8240217e-05
2.8902454e-05
2.9545044e-05
3.0178418e-05
3.0801298e-05
3.1410684e-05
3.2007105e-05
3.2591089e-05
3.3162989e-05
3.3723079e-05
3.4271599e-05
3.4808761e-05
3.5334755e-05
3.5849756e-05
3.6353916e-05
3.684738e-05
3.733028e-05
3.7802737e-05
3.826487e-05
3.8716793e-05
3.9158553e-05
3.9590223e-05
4.000997e-05
4.0407565e-05
4.0701252e-05
4.1005305e-05
4.1293415e-05
4.1580832e-05
4.1873e-05
4.2172203e-05
4.2475675e-05
4.2779566e-05
4.3080145e-05
4.3376346e-05
4.3661835e-05
4.3953533e-05
4.4181953e-05
4.4608928e-05
1.4547107e-06
1.4501294e-06
1.4452136e-06
1.4400867e-06
1.4347732e-06
1.4292732e-06
1.4235814e-06
1.4176913e-06
1.4115969e-06
1.4052913e-06
1.3987687e-06
1.3920225e-06
1.3850468e-06
1.377834e-06
1.3703748e-06
1.362656e-06
1.3546646e-06
1.3463805e-06
1.3377721e-06
1.3288088e-06
1.3194817e-06
1.3097543e-06
1.299683e-06
1.2889257e-06
1.2777887e-06
1.266491e-06
1.2554024e-06
1.24475e-06
1.234756e-06
1.2269321e-06
1.2186421e-06
1.2188742e-06
1.2236498e-06
1.2400274e-06
1.2768055e-06
1.351759e-06
1.5022321e-06
1.7592329e-06
2.1591156e-06
2.7280931e-06
3.5242105e-06
4.5019937e-06
5.6471678e-06
6.9258614e-06
8.271903e-06
9.6313708e-06
1.0966874e-05
1.2261229e-05
1.3513608e-05
1.4730554e-05
1.5918201e-05
1.7077777e-05
1.8209669e-05
1.931528e-05
2.0395929e-05
2.1452912e-05
2.2486206e-05
2.3496341e-05
2.4485352e-05
2.5456003e-05
2.6408747e-05
2.7343324e-05
2.8259578e-05
2.9158335e-05
3.0037072e-05
3.089971e-05
3.1747339e-05
3.2579269e-05
3.339541e-05
3.419606e-05
3.498157e-05
3.5752253e-05
3.6508391e-05
3.7250241e-05
3.7978033e-05
3.8691975e-05
3.9392254e-05
4.0079043e-05
4.0752498e-05
4.1412761e-05
4.2059971e-05
4.2694255e-05
4.3315696e-05
4.3924495e-05
4.4520223e-05
4.5101911e-05
4.5653428e-05
4.6195644e-05
4.6714963e-05
4.7215448e-05
4.7704171e-05
4.8186996e-05
4.866557e-05
4.9139043e-05
4.9605211e-05
5.0064136e-05
5.0508273e-05
5.0961562e-05
5.1324184e-05
5.1990235e-05
1.4569028e-06
1.4537073e-06
1.4502972e-06
1.4467458e-06
1.4430672e-06
1.4392609e-06
1.4353232e-06
1.4312492e-06
1.4270342e-06
1.4226732e-06
1.4181615e-06
1.4134946e-06
1.4086689e-06
1.4036812e-06
1.3985285e-06
1.3932073e-06
1.3877133e-06
1.3820408e-06
1.3761824e-06
1.3701289e-06
1.3638691e-06
1.3573879e-06
1.3506744e-06
1.3437038e-06
1.3364469e-06
1.3288981e-06
1.3210308e-06
1.312845e-06
1.3043086e-06
1.2954177e-06
1.2861539e-06
1.2770077e-06
1.2681985e-06
1.2598983e-06
1.2534834e-06
1.2469776e-06
1.2476015e-06
1.2530026e-06
1.2706684e-06
1.3109772e-06
1.3917124e-06
1.5610308e-06
1.8599321e-06
2.3324991e-06
3.0240611e-06
3.9747057e-06
5.1386183e-06
6.4960459e-06
7.9723465e-06
9.4961891e-06
1.1011876e-05
1.248954e-05
1.3924246e-05
1.5323607e-05
1.6694732e-05
1.8039528e-05
1.9356973e-05
2.0646835e-05
2.1910735e-05
2.3150961e-05
2.4368737e-05
2.5564594e-05
2.6738899e-05
2.7892407e-05
2.9024332e-05
3.0135586e-05
3.1227554e-05
3.2300736e-05
3.3355253e-05
3.4391341e-05
3.5409334e-05
3.6409569e-05
3.7392371e-05
3.8358046e-05
3.9306871e-05
4.02391e-05
4.1154965e-05
4.2054677e-05
4.2938429e-05
4.38064e-05
4.4658755e-05
4.5495649e-05
4.6317197e-05
4.7123628e-05
4.7915006e-05
4.8692295e-05
4.9456239e-05
5.0207867e-05
5.0937544e-05
5.1643334e-05
5.232962e-05
5.3002209e-05
5.3664558e-05
5.4317669e-05
5.4960444e-05
5.5593872e-05
5.6209109e-05
5.6837216e-05
5.7346132e-05
5.8274508e-05
1.4586387e-06
1.456304e-06
1.4538238e-06
1.4512441e-06
1.4485735e-06
1.4458114e-06
1.442955e-06
1.4400011e-06
1.4369462e-06
1.4337868e-06
1.4305194e-06
1.4271406e-06
1.4236474e-06
1.420037e-06
1.4163068e-06
1.4124539e-06
1.4084754e-06
1.4043674e-06
1.4001253e-06
1.3957444e-06
1.3912192e-06
1.3865439e-06
1.3817124e-06
1.3767189e-06
1.3715561e-06
1.366216e-06
1.3606882e-06
1.354961e-06
1.3490226e-06
1.3428514e-06
1.3364387e-06
1.3297551e-06
1.3227978e-06
1.3155475e-06
1.3079815e-06
1.3001076e-06
1.2923677e-06
1.2849397e-06
1.2782419e-06
1.2732759e-06
1.2696073e-06
1.2717278e-06
1.2809301e-06
1.307412e-06
1.3640392e-06
1.4882318e-06
1.7338427e-06
2.1603957e-06
2.8180014e-06
3.7902356e-06
5.0211284e-06
6.4837288e-06
8.102264e-06
9.7867928e-06
1.1468813e-05
1.3114626e-05
1.4720485e-05
1.6294481e-05
1.7842021e-05
1.9363451e-05
2.0858254e-05
2.2327502e-05
2.3772568e-05
2.5194145e-05
2.6591937e-05
2.7966154e-05
2.9317712e-05
3.0647315e-05
3.1955356e-05
3.3242185e-05
3.4508146e-05
3.5753567e-05
3.6978796e-05
3.8184168e-05
3.936999e-05
4.0536553e-05
4.1684126e-05
4.2812956e-05
4.392327e-05
4.5015283e-05
4.608919e-05
4.7145171e-05
4.8183371e-05
4.9204012e-05
5.0207318e-05
5.119414e-05
5.2168191e-05
5.3128649e-05
5.4068874e-05
5.4984562e-05
5.587705e-05
5.675065e-05
5.7609171e-05
5.8454705e-05
5.9287037e-05
6.0108042e-05
6.0907624e-05
6.1724169e-05
6.2391775e-05
6.3604661e-05
1.4601078e-06
1.4583417e-06
1.4564726e-06
1.4545306e-06
1.452521e-06
1.4504433e-06
1.4482955e-06
1.4460751e-06
1.4437798e-06
1.4414069e-06
1.4389538e-06
1.4364181e-06
1.4337974e-06
1.4310895e-06
1.4282923e-06
1.4254035e-06
1.4224207e-06
1.419341e-06
1.4161607e-06
1.4128763e-06
1.4094837e-06
1.4059788e-06
1.4023573e-06
1.398615e-06
1.3947477e-06
1.3907507e-06
1.3866196e-06
1.3823495e-06
1.3779353e-06
1.3733709e-06
1.3686506e-06
1.3637654e-06
1.3587048e-06
1.3534582e-06
1.3480055e-06
1.3423388e-06
1.3364277e-06
1.330298e-06
1.3237982e-06
1.3170647e-06
1.3102456e-06
1.3036464e-06
1.2973981e-06
1.2925136e-06
1.2881575e-06
1.289305e-06
1.2958882e-06
1.3168887e-06
1.3667901e-06
1.4754334e-06
1.7130981e-06
2.1507757e-06
2.852944e-06
3.918575e-06
5.2853438e-06
6.9170119e-06
8.7129818e-06
1.0569679e-05
1.2414805e-05
1.4221151e-05
1.599203e-05
1.7736761e-05
1.9457971e-05
2.1154145e-05
2.2824657e-05
2.4470178e-05
2.6091214e-05
2.768796e-05
2.9260813e-05
3.0810232e-05
3.233649e-05
3.3839834e-05
3.5320579e-05
3.677903e-05
3.8215467e-05
3.9630178e-05
4.1023435e-05
4.2395492e-05
4.3746593e-05
4.5076968e-05
4.6386828e-05
4.7676364e-05
4.8945743e-05
5.0195164e-05
5.1424895e-05
5.2635293e-05
5.382962e-05
5.5008341e-05
5.6167516e-05
5.7302574e-05
5.8412632e-05
5.9500141e-05
6.0568431e-05
6.1620087e-05
6.2655563e-05
6.3677595e-05
6.4674922e-05
6.5693473e-05
6.6532146e-05
6.8050767e-05
1.461419e-06
1.4600465e-06
1.4585984e-06
1.4570949e-06
1.4555398e-06
1.4539325e-06
1.4522715e-06
1.4505549e-06
1.4487808e-06
1.4469474e-06
1.4450527e-06
1.4430949e-06
1.441072e-06
1.4389824e-06
1.4368244e-06
1.4345961e-06
1.4322957e-06
1.4299209e-06
1.4274689e-06
1.4249371e-06
1.4223223e-06
1.4196215e-06
1.4168314e-06
1.4139487e-06
1.41097e-06
1.4078919e-06
1.4047109e-06
1.4014234e-06
1.3980258e-06
1.3945142e-06
1.3908848e-06
1.3871333e-06
1.3832551e-06
1.3792454e-06
1.3750984e-06
1.3708089e-06
1.3663682e-06
1.361769e-06
1.3569956e-06
1.35203e-06
1.3468648e-06
1.3414865e-06
1.3358898e-06
1.3300288e-06
1.3239505e-06
1.3180352e-06
1.3124028e-06
1.307912e-06
1.3040001e-06
1.3051033e-06
1.3117108e-06
1.3332742e-06
1.3867756e-06
1.5090806e-06
1.7851305e-06
2.3003323e-06
3.1482588e-06
4.4035061e-06
5.9998965e-06
7.8663171e-06
9.8711666e-06
1.1904302e-05
1.3908334e-05
1.5875016e-05
1.7814398e-05
1.9731394e-05
2.1624357e-05
2.3492065e-05
2.5335204e-05
2.7154164e-05
2.8948729e-05
3.0718928e-05
3.2464969e-05
3.4186959e-05
3.5885035e-05
3.75594e-05
3.9210242e-05
4.0837754e-05
4.2442143e-05
4.4023608e-05
4.5582334e-05
4.7118489e-05
4.8632235e-05
5.012373e-05
5.1593225e-05
5.3040631e-05
5.4468259e-05
5.5877681e-05
5.7267081e-05
5.8632656e-05
5.9972289e-05
6.1286748e-05
6.2578445e-05
6.3849978e-05
6.5102222e-05
6.6338702e-05
6.754706e-05
6.8780954e-05
6.9802924e-05
7.1647729e-05
1.4626329e-06
1.4615428e-06
1.4603956e-06
1.4592055e-06
1.4579748e-06
1.4567032e-06
1.4553893e-06
1.4540318e-06
1.4526293e-06
1.4511802e-06
1.4496831e-06
1.4481365e-06
1.446539e-06
1.4448892e-06
1.4431857e-06
1.4414271e-06
1.4396118e-06
1.437738e-06
1.4358037e-06
1.4338068e-06
1.4317449e-06
1.4296156e-06
1.4274163e-06
1.4251447e-06
1.4227979e-06
1.4203734e-06
1.4178684e-06
1.4152801e-06
1.4126057e-06
1.409842e-06
1.406986e-06
1.4040343e-06
1.4009836e-06
1.3978303e-06
1.3945706e-06
1.391201e-06
1.3877176e-06
1.3841161e-06
1.3803926e-06
1.3765419e-06
1.3725579e-06
1.3684321e-06
1.3641565e-06
1.3597141e-06
1.3550949e-06
1.3502804e-06
1.345271e-06
1.3400082e-06
1.3345424e-06
1.329229e-06
1.3242266e-06
1.3202683e-06
1.3175697e-06
1.3194861e-06
1.3285944e-06
1.3572474e-06
1.4277131e-06
1.601691e-06
1.9845434e-06
2.6707406e-06
3.8264754e-06
5.3906915e-06
7.3093115e-06
9.4452843e-06
1.1654815e-05
1.3849689e-05
1.6008059e-05
1.8139263e-05
2.0249858e-05
2.2338133e-05
2.4402223e-05
2.6442353e-05
2.8458485e-05
3.0450112e-05
3.2417072e-05
3.4359343e-05
3.6276844e-05
3.8169581e-05
4.0037619e-05
4.1881023e-05
4.3699868e-05
4.5494228e-05
4.7264204e-05
4.9009877e-05
5.0731417e-05
5.2428362e-05
5.4102281e-05
5.5755274e-05
5.7386938e-05
5.8994582e-05
6.0575673e-05
6.2129704e-05
6.3658027e-05
6.5162883e-05
6.6645305e-05
6.8109469e-05
6.9541957e-05
7.1004287e-05
7.2221626e-05
7.4412479e-05
1.4637728e-06
1.4628916e-06
1.4619663e-06
1.4610069e-06
1.460015e-06
1.4589903e-06
1.4579319e-06
1.4568385e-06
1.4557091e-06
1.4545424e-06
1.4533374e-06
1.4520928e-06
1.4508076e-06
1.4494805e-06
1.4481105e-06
1.4466963e-06
1.4452368e-06
1.4437305e-06
1.4421757e-06
1.4405709e-06
1.4389141e-06
1.4372035e-06
1.4354371e-06
1.4336129e-06
1.4317289e-06
1.4297828e-06
1.4277727e-06
1.4256961e-06
1.4235509e-06
1.4213347e-06
1.419045e-06
1.4166791e-06
1.4142343e-06
1.4117078e-06
1.4090967e-06
1.4063979e-06
1.4036085e-06
1.4007253e-06
1.3977451e-06
1.3946647e-06
1.3914806e-06
1.388189e-06
1.3847859e-06
1.3812666e-06
1.3776263e-06
1.3738569e-06
1.3699514e-06
1.3658935e-06
1.3616727e-06
1.3572712e-06
1.3526929e-06
1.3478692e-06
1.3429417e-06
1.3381176e-06
1.3340512e-06
1.3297817e-06
1.3300684e-06
1.334312e-06
1.3504478e-06
1.3975002e-06
1.513195e-06
1.8113395e-06
2.41057e-06
3.4668201e-06
5.0331639e-06
7.0283326e-06
9.3110884e-06
1.1703638e-05
1.4090967e-05
1.6441837e-05
1.8766178e-05
2.1071345e-05
2.3355247e-05
2.5615863e-05
2.7853148e-05
3.00666e-05
3.2255493e-05
3.4419499e-05
3.655835e-05
3.8671783e-05
4.0759618e-05
4.2821711e-05
4.4857999e-05
4.6868406e-05
4.8852936e-05
5.0810749e-05
5.2742949e-05
5.4651775e-05
5.6537567e-05
5.8398681e-05
6.0232695e-05
6.2038301e-05
6.3815849e-05
6.5566989e-05
6.7292647e-05
6.8997475e-05
7.0666976e-05
7.2370606e-05
7.3795263e-05
7.6351567e-05
1.4648391e-06
1.4641163e-06
1.4633588e-06
1.4625737e-06
1.4617624e-06
1.4609243e-06
1.4600586e-06
1.4591646e-06
1.4582413e-06
1.4572878e-06
1.456303e-06
1.4552861e-06
1.4542362e-06
1.4531523e-06
1.4520335e-06
1.4508787e-06
1.4496871e-06
1.4484574e-06
1.4471883e-06
1.4458785e-06
1.4445266e-06
1.4431309e-06
1.44169e-06
1.4402022e-06
1.4386659e-06
1.4370793e-06
1.4354408e-06
1.4337485e-06
1.4320007e-06
1.4301954e-06
1.4283305e-06
1.4264041e-06
1.4244139e-06
1.4223576e-06
1.420233e-06
1.4180375e-06
1.4157688e-06
1.4134244e-06
1.4110015e-06
1.4084976e-06
1.4059098e-06
1.4032351e-06
1.4004706e-06
1.3976129e-06
1.3946588e-06
1.3916047e-06
1.3884468e-06
1.3851807e-06
1.381802e-06
1.3783031e-06
1.3746773e-06
1.3709089e-06
1.3669881e-06
1.3629008e-06
1.3586275e-06
1.3540681e-06
1.3496125e-06
1.3454041e-06
1.3419808e-06
1.3399726e-06
1.3421481e-06
1.3528215e-06
1.3875083e-06
1.4792552e-06
1.7310672e-06
2.2873935e-06
3.3192111e-06
4.9422746e-06
7.0610866e-06
9.516917e-06
1.2101033e-05
1.4680958e-05
1.7224583e-05
1.9744022e-05
2.2245642e-05
2.4726558e-05
2.7185036e-05
2.9620748e-05
3.2032714e-05
3.4420027e-05
3.6782073e-05
3.9118283e-05
4.142827e-05
4.3711662e-05
4.5968149e-05
4.8196429e-05
5.0397308e-05
5.2572969e-05
5.472395e-05
5.6849354e-05
5.8947116e-05
6.1015534e-05
6.3054135e-05
6.5063867e-05
6.7045334e-05
6.900345e-05
7.0922581e-05
7.2880145e-05
7.4523909e-05
7.7464666e-05
1.4658275e-06
1.4652274e-06
1.4645995e-06
1.4639491e-06
1.463277e-06
1.4625829e-06
1.4618661e-06
1.4611259e-06
1.4603615e-06
1.4595722e-06
1.4587573e-06
1.4579158e-06
1.4570472e-06
1.4561505e-06
1.4552251e-06
1.4542701e-06
1.4532847e-06
1.4522678e-06
1.4512186e-06
1.4501358e-06
1.4490182e-06
1.4478647e-06
1.446674e-06
1.4454448e-06
1.4441756e-06
1.4428652e-06
1.4415121e-06
1.4401149e-06
1.438672e-06
1.437182e-06
1.4356431e-06
1.4340537e-06
1.432412e-06
1.4307161e-06
1.4289642e-06
1.4271544e-06
1.4252845e-06
1.4233526e-06
1.4213566e-06
1.4192942e-06
1.4171631e-06
1.414961e-06
1.4126853e-06
1.4103334e-06
1.4079025e-06
1.4053897e-06
1.4027922e-06
1.4001068e-06
1.3973305e-06
1.3944598e-06
1.3914914e-06
1.3884214e-06
1.3852452e-06
1.3819567e-06
1.3785443e-06
1.3749974e-06
1.3712938e-06
1.3674429e-06
1.3633649e-06
1.3592113e-06
1.3551972e-06
1.3518377e-06
1.3492175e-06
1.3506513e-06
1.3590297e-06
1.3882699e-06
1.4708563e-06
1.7106944e-06
2.275349e-06
3.367383e-06
5.1229044e-06
7.4325559e-06
1.0099525e-05
1.2886825e-05
1.5660436e-05
1.8398839e-05
2.1116822e-05
2.3817829e-05
2.6498417e-05
2.9157219e-05
3.179326e-05
3.4405212e-05
3.6992185e-05
3.9553303e-05
4.2087704e-05
4.4593448e-05
4.7071075e-05
4.9522605e-05
5.1948348e-05
5.434775e-05
5.6719089e-05
5.9060541e-05
6.1371031e-05
6.3650794e-05
6.5899947e-05
6.8123451e-05
7.0304436e-05
7.2528234e-05
7.4402651e-05
7.7747562e-05
1.4667385e-06
1.466235e-06
1.465709e-06
1.4651644e-06
1.4646017e-06
1.4640207e-06
1.4634207e-06
1.4628012e-06
1.4621616e-06
1.4615012e-06
1.4608195e-06
1.4601157e-06
1.4593892e-06
1.4586394e-06
1.4578656e-06
1.4570671e-06
1.4562432e-06
1.4553932e-06
1.4545162e-06
1.4536112e-06
1.4526772e-06
1.4517134e-06
1.4507185e-06
1.4496917e-06
1.4486316e-06
1.4475372e-06
1.4464074e-06
1.4452409e-06
1.4440365e-06
1.4427929e-06
1.4415087e-06
1.4401826e-06
1.4388131e-06
1.4373987e-06
1.4359379e-06
1.4344289e-06
1.4328703e-06
1.4312602e-06
1.4295971e-06
1.4278789e-06
1.4261039e-06
1.4242701e-06
1.4223753e-06
1.4204176e-06
1.4183945e-06
1.4163037e-06
1.4141428e-06
1.4119093e-06
1.4096004e-06
1.4072136e-06
1.404746e-06
1.4021951e-06
1.399558e-06
1.3968315e-06
1.394012e-06
1.391096e-06
1.3880769e-06
1.3849487e-06
1.3816971e-06
1.3783088e-06
1.3747839e-06
1.3710501e-06
1.3671771e-06
1.3634105e-06
1.360225e-06
1.3575697e-06
1.358806e-06
1.3666867e-06
1.3954314e-06
1.4805891e-06
1.7431937e-06
2.374294e-06
3.6322831e-06
5.6143803e-06
8.1915971e-06
1.1104005e-05
1.4100551e-05
1.706912e-05
2.000678e-05
2.292732e-05
2.5830247e-05
2.8712888e-05
3.1574272e-05
3.4412729e-05
3.7226526e-05
4.0012858e-05
4.2771891e-05
4.5505383e-05
4.8213073e-05
5.08943e-05
5.3547468e-05
5.6170722e-05
5.8762574e-05
6.132259e-05
6.3850295e-05
6.6350489e-05
6.8804935e-05
7.1306784e-05
7.3423029e-05
7.7191201e-05
1.4675761e-06
1.4671498e-06
1.4667052e-06
1.4662449e-06
1.4657695e-06
1.4652786e-06
1.4647718e-06
1.4642485e-06
1.4637083e-06
1.4631506e-06
1.4625749e-06
1.4619807e-06
1.4613674e-06
1.4607344e-06
1.4600813e-06
1.4594074e-06
1.4587121e-06
1.4579948e-06
1.4572548e-06
1.4564912e-06
1.4557033e-06
1.4548903e-06
1.4540512e-06
1.4531852e-06
1.4522913e-06
1.4513686e-06
1.4504161e-06
1.4494329e-06
1.4484178e-06
1.4473699e-06
1.4462879e-06
1.4451708e-06
1.4440173e-06
1.4428262e-06
1.4415961e-06
1.4403258e-06
1.4390138e-06
1.4376588e-06
1.4362594e-06
1.4348139e-06
1.4333209e-06
1.4317786e-06
1.4301855e-06
1.4285396e-06
1.4268392e-06
1.4250822e-06
1.4232667e-06
1.4213905e-06
1.4194515e-06
1.4174475e-06
1.415376e-06
1.413235e-06
1.4110219e-06
1.4087342e-06
1.4063692e-06
1.4039239e-06
1.4013955e-06
1.3987806e-06
1.3960761e-06
1.3932769e-06
1.3903783e-06
1.3873672e-06
1.3842311e-06
1.3809661e-06
1.377507e-06
1.3738945e-06
1.3703847e-06
1.3674023e-06
1.3650708e-06
1.3665211e-06
1.3755195e-06
1.4093083e-06
1.5107453e-06
1.8419994e-06
2.6142026e-06
4.1924832e-06
6.5112155e-06
9.4133399e-06
1.2581363e-05
1.5779636e-05
1.8942529e-05
2.2083889e-05
2.5210795e-05
2.8319666e-05
3.14082e-05
3.44728e-05
3.7513039e-05
4.0530338e-05
4.352357e-05
4.6491494e-05
4.9432276e-05
5.2343944e-05
5.5224678e-05
5.8073434e-05
6.0889074e-05
6.3676042e-05
6.6414584e-05
6.9205519e-05
7.1574221e-05
7.5782885e-05
1.4683487e-06
1.467985e-06
1.4676061e-06
1.467214e-06
1.466809e-06
1.4663909e-06
1.4659592e-06
1.4655136e-06
1.4650536e-06
1.4645787e-06
1.4640886e-06
1.4635828e-06
1.4630607e-06
1.462522e-06
1.4619662e-06
1.4613928e-06
1.4608011e-06
1.4601908e-06
1.4595612e-06
1.4589116e-06
1.4582413e-06
1.4575498e-06
1.4568361e-06
1.4560997e-06
1.4553396e-06
1.4545551e-06
1.4537455e-06
1.4529097e-06
1.452047e-06
1.4511565e-06
1.4502372e-06
1.4492882e-06
1.4483083e-06
1.4472967e-06
1.4462521e-06
1.4451736e-06
1.4440598e-06
1.4429097e-06
1.441722e-06
1.4404955e-06
1.4392288e-06
1.4379206e-06
1.4365694e-06
1.4351738e-06
1.4337321e-06
1.4322428e-06
1.4307042e-06
1.4291144e-06
1.4274718e-06
1.4257744e-06
1.4240202e-06
1.4222075e-06
1.4203342e-06
1.4183981e-06
1.4163969e-06
1.4143281e-06
1.4121893e-06
1.4099779e-06
1.4076913e-06
1.4053269e-06
1.4028818e-06
1.4003529e-06
1.3977361e-06
1.395027e-06
1.3922133e-06
1.3892826e-06
1.386231e-06
1.3829928e-06
1.3796189e-06
1.376369e-06
1.3735967e-06
1.3719855e-06
1.3741568e-06
1.3864745e-06
1.4310458e-06
1.5743311e-06
2.0410822e-06
3.1029677e-06
5.0857336e-06
7.8539847e-06
1.1124248e-05
1.4545849e-05
1.7946564e-05
2.1315139e-05
2.4667931e-05
2.8002332e-05
3.1317334e-05
3.4614608e-05
3.7891932e-05
4.1147078e-05
4.437756e-05
4.7581059e-05
5.0755384e-05
5.389888e-05
5.7009681e-05
6.0091691e-05
6.3123469e-05
6.6213306e-05
6.8844146e-05
7.3509841e-05
1.4690686e-06
1.4687561e-06
1.4684308e-06
1.4680943e-06
1.4677468e-06
1.467388e-06
1.4670177e-06
1.4666354e-06
1.4662408e-06
1.4658335e-06
1.4654132e-06
1.4649794e-06
1.4645318e-06
1.4640699e-06
1.4635934e-06
1.4631018e-06
1.4625946e-06
1.4620715e-06
1.4615318e-06
1.4609751e-06
1.4604007e-06
1.4598081e-06
1.4591966e-06
1.4585657e-06
1.4579146e-06
1.4572426e-06
1.4565492e-06
1.4558335e-06
1.4550948e-06
1.4543324e-06
1.4535454e-06
1.4527331e-06
1.4518945e-06
1.4510288e-06
1.4501351e-06
1.4492124e-06
1.4482597e-06
1.4472761e-06
1.4462605e-06
1.4452118e-06
1.4441289e-06
1.4430107e-06
1.441856e-06
1.4406634e-06
1.4394318e-06
1.4381596e-06
1.4368455e-06
1.435488e-06
1.4340856e-06
1.4326367e-06
1.4311397e-06
1.429593e-06
1.4279949e-06
1.4263435e-06
1.424637e-06
1.4228732e-06
1.4210501e-06
1.4191655e-06
1.4172171e-06
1.4152028e-06
1.41312e-06
1.4109665e-06
1.4087396e-06
1.4064367e-06
1.4040549e-06
1.4015906e-06
1.3990393e-06
1.3963895e-06
1.393628e-06
1.3907535e-06
1.3876951e-06
1.3845132e-06
1.381707e-06
1.3783952e-06
1.3785764e-06
1.3824468e-06
1.4020487e-06
1.4682116e-06
1.7159205e-06
2.4148983e-06
3.9807034e-06
6.5101381e-06
9.787522e-06
1.3398138e-05
1.7040203e-05
2.0639716e-05
2.421843e-05
2.7786497e-05
3.1340413e-05
3.4877521e-05
3.8394614e-05
4.1888833e-05
4.5357486e-05
4.8798214e-05
5.220833e-05
5.5591015e-05
5.8922944e-05
6.2319658e-05
6.522083e-05
7.0358393e-05
1.4697476e-06
1.4694773e-06
1.4691963e-06
1.4689056e-06
1.4686055e-06
1.4682956e-06
1.4679758e-06
1.4676457e-06
1.467305e-06
1.4669534e-06
1.4665905e-06
1.4662161e-06
1.4658297e-06
1.4654311e-06
1.4650198e-06
1.4645955e-06
1.4641579e-06
1.4637065e-06
1.4632408e-06
1.4627605e-06
1.462265e-06
1.4617538e-06
1.4612263e-06
1.4606822e-06
1.4601207e-06
1.4595413e-06
1.4589434e-06
1.4583263e-06
1.4576896e-06
1.4570324e-06
1.4563542e-06
1.4556542e-06
1.4549316e-06
1.4541858e-06
1.453416e-06
1.4526212e-06
1.4518008e-06
1.4509538e-06
1.4500794e-06
1.4491767e-06
1.4482446e-06
1.4472823e-06
1.4462887e-06
1.4452626e-06
1.4442031e-06
1.4431089e-06
1.4419788e-06
1.4408116e-06
1.439606e-06
1.4383607e-06
1.4370742e-06
1.4357452e-06
1.4343723e-06
1.4329539e-06
1.4314884e-06
1.4299741e-06
1.4284091e-06
1.4267917e-06
1.4251199e-06
1.4233919e-06
1.4216055e-06
1.4197588e-06
1.4178495e-06
1.4158753e-06
1.413834e-06
1.4117231e-06
1.4095401e-06
1.4072824e-06
1.4049464e-06
1.4025272e-06
1.4000161e-06
1.3973864e-06
1.3946855e-06
1.3916941e-06
1.3887514e-06
1.3861469e-06
1.3837931e-06
1.3848364e-06
1.3930532e-06
1.4277686e-06
1.5490845e-06
2.0036352e-06
3.145066e-06
5.4015029e-06
8.6048509e-06
1.2356209e-05
1.6234862e-05
2.0081121e-05
2.3901501e-05
2.7710143e-05
3.1504823e-05
3.5282951e-05
3.9041457e-05
4.2777177e-05
4.648654e-05
5.0171834e-05
5.3807645e-05
5.7516523e-05
6.0694002e-05
6.6315652e-05
1.4703957e-06
1.4701606e-06
1.4699163e-06
1.4696638e-06
1.4694031e-06
1.4691339e-06
1.4688561e-06
1.4685694e-06
1.4682734e-06
1.4679681e-06
1.4676529e-06
1.4673278e-06
1.4669923e-06
1.4666461e-06
1.4662891e-06
1.4659208e-06
1.4655408e-06
1.465149e-06
1.4647448e-06
1.4643279e-06
1.4638979e-06
1.4634542e-06
1.4629966e-06
1.4625244e-06
1.4620373e-06
1.4615346e-06
1.461016e-06
1.4604809e-06
1.4599286e-06
1.4593588e-06
1.4587707e-06
1.4581638e-06
1.4575375e-06
1.456891e-06
1.4562238e-06
1.4555351e-06
1.4548243e-06
1.4540905e-06
1.453333e-06
1.4525511e-06
1.4517439e-06
1.4509106e-06
1.4500503e-06
1.4491621e-06
1.448245e-06
1.4472981e-06
1.4463202e-06
1.4453104e-06
1.4442675e-06
1.4431904e-06
1.4420779e-06
1.4409288e-06
1.4397419e-06
1.438516e-06
1.4372495e-06
1.4359411e-06
1.4345892e-06
1.4331922e-06
1.4317486e-06
1.4302567e-06
1.4287148e-06
1.4271211e-06
1.4254737e-06
1.4237707e-06
1.4220101e-06
1.4201898e-06
1.4183077e-06
1.4163615e-06
1.4143489e-06
1.4122675e-06
1.4101151e-06
1.4078871e-06
1.4055797e-06
1.4031831e-06
1.4006721e-06
1.3980599e-06
1.3952481e-06
1.3925426e-06
1.3901822e-06
1.3893683e-06
1.3924426e-06
1.410655e-06
1.4786799e-06
1.7573902e-06
2.5829797e-06
4.5652509e-06
7.6292978e-06
1.1471108e-05
1.5576584e-05
1.9672872e-05
2.3737062e-05
2.778879e-05
3.1827622e-05
3.5850573e-05
3.9853816e-05
4.3838776e-05
4.7777852e-05
5.1800402e-05
5.5257023e-05
6.137112e-05
1.4710212e-06
1.4708157e-06
1.4706023e-06
1.4703817e-06
1.470154e-06
1.4699189e-06
1.4696763e-06
1.4694259e-06
1.4691675e-06
1.4689008e-06
1.4686257e-06
1.4683418e-06
1.4680489e-06
1.4677468e-06
1.4674351e-06
1.4671136e-06
1.466782e-06
1.46644e-06
1.4660873e-06
1.4657235e-06
1.4653483e-06
1.4649612e-06
1.4645619e-06
1.46415e-06
1.4637251e-06
1.4632867e-06
1.4628344e-06
1.4623677e-06
1.4618862e-06
1.4613893e-06
1.4608767e-06
1.4603476e-06
1.4598017e-06
1.4592383e-06
1.4586569e-06
1.4580568e-06
1.4574375e-06
1.4567982e-06
1.4561384e-06
1.4554575e-06
1.4547545e-06
1.4540289e-06
1.4532799e-06
1.4525067e-06
1.4517085e-06
1.4508844e-06
1.4500335e-06
1.4491549e-06
1.4482476e-06
1.4473108e-06
1.4463433e-06
1.4453441e-06
1.4443123e-06
1.4432466e-06
1.4421459e-06
1.4410089e-06
1.4398343e-06
1.4386208e-06
1.437367e-06
1.4360716e-06
1.4347329e-06
1.4333496e-06
1.4319199e-06
1.4304424e-06
1.4289151e-06
1.4273364e-06
1.4257044e-06
1.4240171e-06
1.4222726e-06
1.4204688e-06
1.4186034e-06
1.4166746e-06
1.4146794e-06
1.4126166e-06
1.4104809e-06
1.4082675e-06
1.4059603e-06
1.4035626e-06
1.4009764e-06
1.3983584e-06
1.395996e-06
1.393915e-06
1.3951301e-06
1.404649e-06
1.4464676e-06
1.6096446e-06
2.2394296e-06
3.8621675e-06
6.7929068e-06
1.0724796e-05
1.5065286e-05
1.9424695e-05
2.3741431e-05
2.8041856e-05
3.2329202e-05
3.6605535e-05
4.0841953e-05
4.5174753e-05
4.8909144e-05
5.5518616e-05
1.4716315e-06
1.4714509e-06
1.4712636e-06
1.47107e-06
1.4708701e-06
1.4706638e-06
1.4704509e-06
1.4702312e-06
1.4700045e-06
1.4697705e-06