/*--------------------------------*- C++ -*----------------------------------*\
  =========                 |
  \\      /  F ield         | OpenFOAM: The Open Source CFD Toolbox
   \\    /   O peration     | Website:  https://openfoam.org
    \\  /    A nd           | Version:  12
     \\/     M anipulation  |
\*---------------------------------------------------------------------------*/
FoamFile
{
    format      ascii;
    class       volScalarField;
    location    "1000";
    object      nuTilda;
}
// * * * * * * * * * * * * * * * * * * * * * * * * * * * * * * * * * * * * * //

dimensions      [0 2 -1 0 0 0 0];

internalField   nonuniform List<scalar> 
13056
(
1.9998999e-06
1.9999483e-06
2.0001266e-06
2.0004416e-06
2.0008595e-06
2.0013586e-06
2.0019245e-06
2.0025463e-06
2.0032148e-06
2.0039228e-06
2.0046651e-06
2.0054377e-06
2.0062385e-06
2.0070669e-06
2.0079242e-06
2.0088133e-06
2.0097419e-06
2.0107154e-06
2.0117593e-06
2.0128763e-06
2.0141159e-06
2.0156493e-06
2.016707e-06
2.020135e-06
2.9970104e-08
2.1972966e-08
2.0834836e-08
2.0430997e-08
2.0169947e-08
1.995006e-08
1.9754674e-08
1.9578829e-08
1.9419147e-08
1.9272709e-08
1.9137315e-08
1.9011367e-08
1.8893642e-08
1.8783142e-08
1.8679036e-08
1.8580632e-08
1.848734e-08
1.8398656e-08
1.8314137e-08
1.8233395e-08
1.8156091e-08
1.8081922e-08
1.8010631e-08
1.7941981e-08
1.7875757e-08
1.7811776e-08
1.7749869e-08
1.7689875e-08
1.7631657e-08
1.7575092e-08
1.752006e-08
1.746645e-08
1.7414171e-08
1.7363137e-08
1.7313257e-08
1.7264453e-08
1.7216661e-08
1.7169816e-08
1.7123852e-08
1.7078707e-08
1.7034335e-08
1.6990688e-08
1.6947714e-08
1.6905365e-08
1.6863601e-08
1.6822388e-08
1.6781686e-08
1.6741456e-08
1.6701661e-08
1.6662274e-08
1.6623267e-08
1.6584606e-08
1.6546259e-08
1.6508199e-08
1.6470404e-08
1.6432849e-08
1.6395504e-08
1.6358342e-08
1.6321342e-08
1.6284482e-08
1.6247739e-08
1.6211087e-08
1.6174498e-08
1.6137955e-08
1.6101438e-08
1.6064919e-08
1.6028374e-08
1.5991778e-08
1.595511e-08
1.5918349e-08
1.5881465e-08
1.5844429e-08
1.5807218e-08
1.5769809e-08
1.5732169e-08
1.5694266e-08
1.5656068e-08
1.5617547e-08
1.5578669e-08
1.5539392e-08
1.5499679e-08
1.5459492e-08
1.5418789e-08
1.5377516e-08
1.5335626e-08
1.5293069e-08
1.5249783e-08
1.5205698e-08
1.5160762e-08
1.5115887e-08
1.5072499e-08
1.5031026e-08
1.4991327e-08
1.4953267e-08
1.4916723e-08
1.4881588e-08
1.4847767e-08
1.4815168e-08
1.4783704e-08
1.4753305e-08
1.4723906e-08
1.4695441e-08
1.466785e-08
1.4641071e-08
1.4615057e-08
1.4589732e-08
1.4565091e-08
1.4540855e-08
1.4517423e-08
1.4493024e-08
1.4471795e-08
1.4436302e-08
1.9998998e-06
1.9999483e-06
2.0001265e-06
2.0004415e-06
2.0008595e-06
2.0013586e-06
2.0019245e-06
2.0025463e-06
2.0032148e-06
2.0039229e-06
2.0046652e-06
2.0054379e-06
2.0062387e-06
2.0070671e-06
2.0079244e-06
2.0088135e-06
2.0097421e-06
2.0107156e-06
2.0117594e-06
2.0128763e-06
2.0141158e-06
2.0156492e-06
2.0167063e-06
2.0201415e-06
8.7796758e-08
6.621524e-08
6.28056e-08
6.1589303e-08
6.0802887e-08
6.0140846e-08
5.9552579e-08
5.9023055e-08
5.8542108e-08
5.8100992e-08
5.7693106e-08
5.7313652e-08
5.6958947e-08
5.6625994e-08
5.6312294e-08
5.6015761e-08
5.5734625e-08
5.546737e-08
5.5212656e-08
5.496932e-08
5.4736341e-08
5.4512806e-08
5.4297941e-08
5.4091034e-08
5.3891434e-08
5.3698594e-08
5.3512001e-08
5.3331173e-08
5.3155695e-08
5.29852e-08
5.2819323e-08
5.2657732e-08
5.2500152e-08
5.2346321e-08
5.219597e-08
5.2048862e-08
5.19048e-08
5.1763596e-08
5.1625044e-08
5.1488963e-08
5.1355209e-08
5.122364e-08
5.1094099e-08
5.0966443e-08
5.0840551e-08
5.0716315e-08
5.0593622e-08
5.0472351e-08
5.0352392e-08
5.0233662e-08
5.0116075e-08
4.9999532e-08
4.9883937e-08
4.9769206e-08
4.9655273e-08
4.9542062e-08
4.9429486e-08
4.9317461e-08
4.9205922e-08
4.9094808e-08
4.8984046e-08
4.8873555e-08
4.8763257e-08
4.8653097e-08
4.8543011e-08
4.8432925e-08
4.8322757e-08
4.8212435e-08
4.8101897e-08
4.7991077e-08
4.7879888e-08
4.7768239e-08
4.7656064e-08
4.7543289e-08
4.7429821e-08
4.7315558e-08
4.7200406e-08
4.7084281e-08
4.6967077e-08
4.6848673e-08
4.6728951e-08
4.6607804e-08
4.6485098e-08
4.6360676e-08
4.6234393e-08
4.6106097e-08
4.5975606e-08
4.5842706e-08
4.5707238e-08
4.5571954e-08
4.5441154e-08
4.5316127e-08
4.5196449e-08
4.5081711e-08
4.4971541e-08
4.486562e-08
4.4763663e-08
4.4665387e-08
4.4570534e-08
4.447889e-08
4.439026e-08
4.4304449e-08
4.4221271e-08
4.414054e-08
4.4062116e-08
4.398577e-08
4.3911484e-08
4.3838422e-08
4.3767784e-08
4.3694238e-08
4.3630239e-08
4.3523237e-08
1.9998997e-06
1.9999481e-06
2.0001264e-06
2.0004413e-06
2.0008593e-06
2.0013584e-06
2.0019244e-06
2.0025463e-06
2.0032149e-06
2.0039231e-06
2.0046654e-06
2.0054382e-06
2.0062391e-06
2.0070675e-06
2.0079249e-06
2.0088139e-06
2.0097424e-06
2.0107158e-06
2.0117595e-06
2.0128761e-06
2.0141152e-06
2.0156482e-06
2.0167035e-06
2.0201439e-06
1.4404969e-07
1.1135551e-07
1.0568523e-07
1.0364144e-07
1.0232037e-07
1.0120902e-07
1.0022143e-07
9.9332146e-08
9.8524142e-08
9.7782866e-08
9.7097309e-08
9.6459449e-08
9.5863118e-08
9.5303299e-08
9.4775805e-08
9.4277141e-08
9.380434e-08
9.3354856e-08
9.2926446e-08
9.2517152e-08
9.2125265e-08
9.1749251e-08
9.1387807e-08
9.1039743e-08
9.0703961e-08
9.0379542e-08
9.0065628e-08
8.9761406e-08
8.9466179e-08
8.917933e-08
8.8900247e-08
8.8628372e-08
8.836324e-08
8.8104413e-08
8.7851439e-08
8.7603918e-08
8.736152e-08
8.7123927e-08
8.6890797e-08
8.6661821e-08
8.6436759e-08
8.621537e-08
8.5997395e-08
8.5782588e-08
8.5570749e-08
8.5361695e-08
8.5155237e-08
8.4951169e-08
8.4749308e-08
8.4549515e-08
8.4351643e-08
8.4155528e-08
8.3961006e-08
8.3767939e-08
8.3576213e-08
8.33857e-08
8.3196256e-08
8.3007738e-08
8.2820039e-08
8.2633052e-08
8.2446657e-08
8.2260718e-08
8.2075104e-08
8.188972e-08
8.1704462e-08
8.1519201e-08
8.1333803e-08
8.1148145e-08
8.0962123e-08
8.0775626e-08
8.0588507e-08
8.0400614e-08
8.0211835e-08
8.0022046e-08
7.9831089e-08
7.9638795e-08
7.9445004e-08
7.9249574e-08
7.9052329e-08
7.8853064e-08
7.8651581e-08
7.8447697e-08
7.824119e-08
7.8031796e-08
7.7819267e-08
7.7603352e-08
7.7383743e-08
7.7160077e-08
7.6932089e-08
7.6704411e-08
7.6484278e-08
7.6273862e-08
7.6072447e-08
7.5879347e-08
7.5693932e-08
7.5515671e-08
7.5344078e-08
7.5178681e-08
7.5019044e-08
7.486481e-08
7.4715645e-08
7.4571227e-08
7.443124e-08
7.4295371e-08
7.4163385e-08
7.4034895e-08
7.3909874e-08
7.3786916e-08
7.3668035e-08
7.3544284e-08
7.3436575e-08
7.3256486e-08
1.9998996e-06
1.9999479e-06
2.000126e-06
2.0004409e-06
2.0008589e-06
2.0013581e-06
2.0019243e-06
2.0025462e-06
2.003215e-06
2.0039234e-06
2.0046658e-06
2.0054387e-06
2.0062397e-06
2.0070682e-06
2.0079255e-06
2.0088145e-06
2.0097429e-06
2.0107161e-06
2.0117594e-06
2.0128757e-06
2.0141139e-06
2.0156464e-06
2.0166986e-06
2.0201422e-06
1.9940973e-07
1.5799796e-07
1.5009224e-07
1.4719654e-07
1.453261e-07
1.4375376e-07
1.4235618e-07
1.4109698e-07
1.3995225e-07
1.3890163e-07
1.3792972e-07
1.3702523e-07
1.3617947e-07
1.3538537e-07
1.3463702e-07
1.3392949e-07
1.3325859e-07
1.3262073e-07
1.3201273e-07
1.3143181e-07
1.3087558e-07
1.3034184e-07
1.2982876e-07
1.2933465e-07
1.2885796e-07
1.2839739e-07
1.2795171e-07
1.2751979e-07
1.2710062e-07
1.2669333e-07
1.2629707e-07
1.2591103e-07
1.2553456e-07
1.2516703e-07
1.2480781e-07
1.2445632e-07
1.2411211e-07
1.2377471e-07
1.2344364e-07
1.2311848e-07
1.2279886e-07
1.2248446e-07
1.221749e-07
1.2186984e-07
1.2156899e-07
1.212721e-07
1.2097888e-07
1.2068906e-07
1.2040237e-07
1.2011862e-07
1.1983759e-07
1.1955905e-07
1.1928278e-07
1.1900857e-07
1.1873626e-07
1.1846568e-07
1.1819661e-07
1.1792886e-07
1.1766226e-07
1.1739668e-07
1.1713193e-07
1.1686784e-07
1.166042e-07
1.1634089e-07
1.1607775e-07
1.1581461e-07
1.1555128e-07
1.1528757e-07
1.1502335e-07
1.1475845e-07
1.1449266e-07
1.1422578e-07
1.1395763e-07
1.1368805e-07
1.1341681e-07
1.1314367e-07
1.128684e-07
1.1259081e-07
1.1231063e-07
1.1202758e-07
1.1174139e-07
1.1145178e-07
1.1115844e-07
1.10861e-07
1.1055911e-07
1.1025241e-07
1.0994046e-07
1.0962274e-07
1.0929889e-07
1.0897547e-07
1.0866278e-07
1.0836388e-07
1.0807777e-07
1.0780347e-07
1.0754008e-07
1.0728686e-07
1.0704311e-07
1.0680816e-07
1.0658139e-07
1.063623e-07
1.0615041e-07
1.0594526e-07
1.057464e-07
1.055534e-07
1.0536591e-07
1.0518339e-07
1.0500579e-07
1.0483114e-07
1.0466227e-07
1.0448652e-07
1.0433352e-07
1.0407769e-07
1.9998993e-06
1.9999476e-06
2.0001255e-06
2.0004403e-06
2.0008584e-06
2.0013577e-06
2.001924e-06
2.0025462e-06
2.0032151e-06
2.0039237e-06
2.0046664e-06
2.0054394e-06
2.0062405e-06
2.007069e-06
2.0079264e-06
2.0088153e-06
2.0097435e-06
2.0107164e-06
2.0117592e-06
2.0128749e-06
2.0141119e-06
2.0156436e-06
2.0166914e-06
2.020136e-06
2.5442056e-07
2.0673679e-07
1.9665576e-07
1.9287821e-07
1.9043976e-07
1.8839125e-07
1.8656943e-07
1.8492658e-07
1.8343186e-07
1.8205926e-07
1.8078895e-07
1.7960638e-07
1.785003e-07
1.7746154e-07
1.7648244e-07
1.7555659e-07
1.7467857e-07
1.7384367e-07
1.7304777e-07
1.7228726e-07
1.71559e-07
1.7086014e-07
1.7018829e-07
1.6954124e-07
1.6891697e-07
1.6831377e-07
1.6773005e-07
1.6716432e-07
1.6661528e-07
1.6608179e-07
1.6556271e-07
1.6505702e-07
1.6456384e-07
1.6408237e-07
1.6361176e-07
1.6315129e-07
1.6270032e-07
1.6225828e-07
1.6182453e-07
1.613985e-07
1.6097973e-07
1.6056779e-07
1.6016218e-07
1.5976247e-07
1.5936827e-07
1.5897924e-07
1.5859503e-07
1.5821527e-07
1.578396e-07
1.5746778e-07
1.5709952e-07
1.5673452e-07
1.5637249e-07
1.5601316e-07
1.5565632e-07
1.5530173e-07
1.5494912e-07
1.5459824e-07
1.5424887e-07
1.5390083e-07
1.5355388e-07
1.5320778e-07
1.5286228e-07
1.525172e-07
1.5217235e-07
1.5182749e-07
1.5148238e-07
1.5113678e-07
1.5079049e-07
1.5044332e-07
1.5009499e-07
1.4974521e-07
1.4939378e-07
1.4904047e-07
1.4868498e-07
1.48327e-07
1.4796623e-07
1.476024e-07
1.4723519e-07
1.4686422e-07
1.4648912e-07
1.4610954e-07
1.4572508e-07
1.4533524e-07
1.4493956e-07
1.4453757e-07
1.441287e-07
1.4371228e-07
1.432878e-07
1.428639e-07
1.4245405e-07
1.4206228e-07
1.4168728e-07
1.4132775e-07
1.4098253e-07
1.4065062e-07
1.4033113e-07
1.4002318e-07
1.3972595e-07
1.3943877e-07
1.3916104e-07
1.3889214e-07
1.386315e-07
1.3837852e-07
1.3813277e-07
1.3789354e-07
1.3766076e-07
1.3743185e-07
1.3721051e-07
1.3698022e-07
1.3677968e-07
1.3644434e-07
1.999899e-06
1.9999471e-06
2.0001249e-06
2.0004396e-06
2.0008576e-06
2.0013571e-06
2.0019236e-06
2.002546e-06
2.0032153e-06
2.0039241e-06
2.004667e-06
2.0054402e-06
2.0062415e-06
2.0070701e-06
2.0079274e-06
2.0088162e-06
2.0097442e-06
2.0107167e-06
2.0117589e-06
2.0128737e-06
2.014109e-06
2.0156397e-06
2.0166814e-06
2.0201251e-06
3.0948868e-07
2.5813516e-07
2.4601307e-07
2.4132707e-07
2.3830108e-07
2.3575963e-07
2.3349711e-07
2.3145419e-07
2.2959334e-07
2.2788309e-07
2.2629935e-07
2.2482428e-07
2.2344408e-07
2.2214746e-07
2.2092498e-07
2.1976872e-07
2.1867197e-07
2.176289e-07
2.1663441e-07
2.1568402e-07
2.1477381e-07
2.1390028e-07
2.1306041e-07
2.1225148e-07
2.1147097e-07
2.1071675e-07
2.0998684e-07
2.0927939e-07
2.0859278e-07
2.0792556e-07
2.0727636e-07
2.0664386e-07
2.0602699e-07
2.0542474e-07
2.0483607e-07
2.0426005e-07
2.0369591e-07
2.0314291e-07
2.0260027e-07
2.0206728e-07
2.0154337e-07
2.0102797e-07
2.0052051e-07
2.000204e-07
1.9952718e-07
1.9904041e-07
1.9855968e-07
1.980845e-07
1.9761444e-07
1.9714917e-07
1.9668837e-07
1.9623164e-07
1.9577861e-07
1.9532896e-07
1.9488241e-07
1.9443868e-07
1.9399743e-07
1.9355833e-07
1.9312112e-07
1.9268556e-07
1.9225137e-07
1.9181823e-07
1.9138585e-07
1.9095399e-07
1.9052241e-07
1.9009082e-07
1.896589e-07
1.8922637e-07
1.8879298e-07
1.8835847e-07
1.8792251e-07
1.8748475e-07
1.8704491e-07
1.8660271e-07
1.8615778e-07
1.8570973e-07
1.8525818e-07
1.8480281e-07
1.843432e-07
1.8387889e-07
1.8340939e-07
1.8293429e-07
1.8245308e-07
1.8196513e-07
1.8146987e-07
1.8096671e-07
1.8045494e-07
1.7993371e-07
1.794024e-07
1.788718e-07
1.7835879e-07
1.7786841e-07
1.77399e-07
1.7694897e-07
1.7651685e-07
1.761014e-07
1.7570148e-07
1.75316e-07
1.7494395e-07
1.7458448e-07
1.7423683e-07
1.7390024e-07
1.7357398e-07
1.7325731e-07
1.729497e-07
1.7265024e-07
1.7235886e-07
1.7207234e-07
1.7179528e-07
1.7150712e-07
1.712561e-07
1.708363e-07
1.9998985e-06
1.9999466e-06
2.000124e-06
2.0004386e-06
2.0008567e-06
2.0013563e-06
2.0019231e-06
2.0025458e-06
2.0032154e-06
2.0039245e-06
2.0046677e-06
2.0054412e-06
2.0062427e-06
2.0070714e-06
2.0079287e-06
2.0088173e-06
2.009745e-06
2.0107169e-06
2.0117582e-06
2.012872e-06
2.0141052e-06
2.0156344e-06
2.0166685e-06
2.020109e-06
3.6488746e-07
3.1268918e-07
2.9880105e-07
2.9320019e-07
2.8957183e-07
2.8652272e-07
2.8380333e-07
2.8134298e-07
2.7909817e-07
2.7703253e-07
2.7511794e-07
2.733335e-07
2.7166287e-07
2.7009266e-07
2.6861164e-07
2.6721039e-07
2.6588087e-07
2.6461612e-07
2.6341002e-07
2.6225718e-07
2.611529e-07
2.6009295e-07
2.5907372e-07
2.5809192e-07
2.5714451e-07
2.5622892e-07
2.5534278e-07
2.5448383e-07
2.536501e-07
2.5283989e-07
2.5205149e-07
2.5128334e-07
2.5053412e-07
2.4980262e-07
2.4908759e-07
2.4838789e-07
2.477026e-07
2.4703081e-07
2.4637159e-07
2.4572407e-07
2.4508755e-07
2.4446136e-07
2.4384478e-07
2.4323714e-07
2.4263784e-07
2.4204638e-07
2.4146222e-07
2.4088481e-07
2.4031361e-07
2.3974822e-07
2.3918824e-07
2.386332e-07
2.3808265e-07
2.375362e-07
2.3699351e-07
2.3645423e-07
2.3591796e-07
2.353843e-07
2.3485293e-07
2.3432355e-07
2.3379583e-07
2.3326939e-07
2.3274385e-07
2.3221895e-07
2.3169438e-07
2.3116979e-07
2.306448e-07
2.3011906e-07
2.2959227e-07
2.2906412e-07
2.2853419e-07
2.2800207e-07
2.2746741e-07
2.2692989e-07
2.2638904e-07
2.258444e-07
2.252955e-07
2.2474194e-07
2.2418324e-07
2.236188e-07
2.2304806e-07
2.2247051e-07
2.2188552e-07
2.2129234e-07
2.2069027e-07
2.2007859e-07
2.1945643e-07
2.1882277e-07
2.1817686e-07
2.175318e-07
2.1690811e-07
2.1631195e-07
2.1574128e-07
2.1519416e-07
2.1466881e-07
2.1416372e-07
2.1367752e-07
2.1320887e-07
2.1275654e-07
2.1231951e-07
2.1189685e-07
2.1148763e-07
2.1109097e-07
2.1070598e-07
2.1033199e-07
2.0996792e-07
2.0961367e-07
2.0926535e-07
2.0892851e-07
2.085783e-07
2.0827315e-07
2.0776271e-07
1.999898e-06
1.9999459e-06
2.000123e-06
2.0004373e-06
2.0008555e-06
2.0013553e-06
2.0019223e-06
2.0025454e-06
2.0032154e-06
2.0039249e-06
2.0046685e-06
2.0054423e-06
2.006244e-06
2.0070728e-06
2.0079301e-06
2.0088185e-06
2.0097457e-06
2.010717e-06
2.0117572e-06
2.0128696e-06
2.0141001e-06
2.0156277e-06
2.0166521e-06
2.0200874e-06
4.2076154e-07
3.7076635e-07
3.5563691e-07
3.4916411e-07
3.4493385e-07
3.4137093e-07
3.3818324e-07
3.3529037e-07
3.3264438e-07
3.3020515e-07
3.2794126e-07
3.2582905e-07
3.2384988e-07
3.2198837e-07
3.2023159e-07
3.1856862e-07
3.1699013e-07
3.1548801e-07
3.1405509e-07
3.1268507e-07
3.1137245e-07
3.1011226e-07
3.0890025e-07
3.0773255e-07
3.0660559e-07
3.0551633e-07
3.0446196e-07
3.0343983e-07
3.0244762e-07
3.0148328e-07
3.0054484e-07
2.9963043e-07
2.9873849e-07
2.9786757e-07
2.9701621e-07
2.9618306e-07
2.9536701e-07
2.94567e-07
2.9378192e-07
2.9301074e-07
2.9225262e-07
2.9150678e-07
2.9077236e-07
2.9004856e-07
2.8933467e-07
2.8863009e-07
2.8793419e-07
2.8724631e-07
2.8656581e-07
2.8589221e-07
2.8522503e-07
2.8456374e-07
2.8390778e-07
2.8325668e-07
2.8261005e-07
2.8196747e-07
2.8132847e-07
2.8069256e-07
2.8005937e-07
2.7942854e-07
2.7879968e-07
2.7817234e-07
2.7754606e-07
2.7692052e-07
2.7629538e-07
2.756702e-07
2.7504454e-07
2.7441797e-07
2.7379014e-07
2.7316069e-07
2.7252911e-07
2.7189491e-07
2.7125768e-07
2.7061702e-07
2.699724e-07
2.6932324e-07
2.6866901e-07
2.6800922e-07
2.6734328e-07
2.6667051e-07
2.6599022e-07
2.653018e-07
2.6460451e-07
2.6389745e-07
2.6317978e-07
2.6245066e-07
2.6170904e-07
2.6095371e-07
2.6018376e-07
2.5941482e-07
2.5867136e-07
2.5796069e-07
2.5728042e-07
2.5662821e-07
2.5600195e-07
2.5539984e-07
2.5482024e-07
2.5426157e-07
2.5372235e-07
2.5320137e-07
2.526975e-07
2.5220967e-07
2.5173681e-07
2.5127786e-07
2.5083202e-07
2.5039801e-07
2.4997572e-07
2.4956051e-07
2.4915897e-07
2.4874165e-07
2.483779e-07
2.4776932e-07
1.9998973e-06
1.999945e-06
2.0001217e-06
2.0004358e-06
2.000854e-06
2.001354e-06
2.0019214e-06
2.0025449e-06
2.0032154e-06
2.0039254e-06
2.0046694e-06
2.0054435e-06
2.0062454e-06
2.0070743e-06
2.0079315e-06
2.0088196e-06
2.0097463e-06
2.0107167e-06
2.0117556e-06
2.0128664e-06
2.0140937e-06
2.0156191e-06
2.0166318e-06
2.0200596e-06
4.7713539e-07
4.3251867e-07
4.1707899e-07
4.0987671e-07
4.0507966e-07
4.0101717e-07
3.9736261e-07
3.940301e-07
3.9097049e-07
3.8814215e-07
3.8551173e-07
3.8305364e-07
3.8074745e-07
3.7857608e-07
3.7652508e-07
3.7458221e-07
3.727369e-07
3.7097994e-07
3.6930316e-07
3.6769936e-07
3.6616219e-07
3.6468598e-07
3.6326581e-07
3.6189722e-07
3.605761e-07
3.5929891e-07
3.580624e-07
3.5686352e-07
3.5569956e-07
3.5456814e-07
3.5346696e-07
3.5239385e-07
3.5134701e-07
3.5032474e-07
3.4932533e-07
3.4834722e-07
3.4738911e-07
3.4644975e-07
3.4552787e-07
3.4462225e-07
3.4373192e-07
3.4285596e-07
3.4199336e-07
3.4114319e-07
3.4030463e-07
3.3947697e-07
3.3865946e-07
3.3785134e-07
3.3705187e-07
3.3626047e-07
3.3547659e-07
3.346996e-07
3.3392885e-07
3.331638e-07
3.3240396e-07
3.3164887e-07
3.3089797e-07
3.3015068e-07
3.2940657e-07
3.2866521e-07
3.2792615e-07
3.2718886e-07
3.2645281e-07
3.2571762e-07
3.2498286e-07
3.2424806e-07
3.2351268e-07
3.2277622e-07
3.2203827e-07
3.2129839e-07
3.2055601e-07
3.1981053e-07
3.1906148e-07
3.1830839e-07
3.1755063e-07
3.1678753e-07
3.1601846e-07
3.1524283e-07
3.1445998e-07
3.1366908e-07
3.1286933e-07
3.1206002e-07
3.1124027e-07
3.1040903e-07
3.0956531e-07
3.087081e-07
3.078362e-07
3.0694818e-07
3.0604295e-07
3.051389e-07
3.042648e-07
3.0342926e-07
3.0262943e-07
3.0186261e-07
3.0112629e-07
3.0041835e-07
2.9973689e-07
2.9908002e-07
2.9844602e-07
2.9783346e-07
2.9724103e-07
2.9666744e-07
2.9611146e-07
2.9557184e-07
2.9504763e-07
2.9453734e-07
2.9404081e-07
2.9355266e-07
2.9308054e-07
2.9259008e-07
2.9216245e-07
2.9144678e-07
1.9998966e-06
1.999944e-06
2.0001201e-06
2.0004339e-06
2.0008521e-06
2.0013524e-06
2.0019202e-06
2.0025442e-06
2.0032152e-06
2.0039257e-06
2.0046702e-06
2.0054447e-06
2.0062469e-06
2.0070759e-06
2.0079329e-06
2.0088207e-06
2.0097467e-06
2.0107161e-06
2.0117533e-06
2.0128621e-06
2.0140854e-06
2.0156083e-06
2.0166067e-06
2.0200249e-06
5.3393128e-07
4.9779013e-07
4.8355784e-07
4.7594961e-07
4.7068972e-07
4.6618306e-07
4.6209038e-07
4.5832947e-07
4.5485623e-07
4.5163167e-07
4.4862313e-07
4.4580476e-07
4.4315533e-07
4.4065677e-07
4.3829359e-07
4.3605251e-07
4.3392199e-07
4.3189186e-07
4.2995303e-07
4.2809747e-07
4.2631807e-07
4.2460845e-07
4.2296305e-07
4.2137683e-07
4.1984514e-07
4.1836394e-07
4.1692954e-07
4.1553846e-07
4.141876e-07
4.1287424e-07
4.1159575e-07
4.1034967e-07
4.0913387e-07
4.0794645e-07
4.0678544e-07
4.0564904e-07
4.0453573e-07
4.0344411e-07
4.023727e-07
4.0132009e-07
4.0028516e-07
3.9926684e-07
3.98264e-07
3.9727554e-07
3.963005e-07
3.9533807e-07
3.943874e-07
3.934476e-07
3.9251781e-07
3.9159736e-07
3.9068561e-07
3.8978183e-07
3.8888528e-07
3.8799531e-07
3.8711139e-07
3.8623295e-07
3.8535935e-07
3.8448993e-07
3.8362418e-07
3.8276161e-07
3.8190169e-07
3.810438e-07
3.8018734e-07
3.7933184e-07
3.7847684e-07
3.7762176e-07
3.7676599e-07
3.7590895e-07
3.7505016e-07
3.741891e-07
3.7332511e-07
3.7245751e-07
3.7158574e-07
3.7070924e-07
3.6982729e-07
3.6893912e-07
3.6804399e-07
3.6714121e-07
3.6623e-07
3.6530942e-07
3.6437853e-07
3.634365e-07
3.6248229e-07
3.6151471e-07
3.6053258e-07
3.5953475e-07
3.585198e-07
3.5748607e-07
3.564323e-07
3.553799e-07
3.5436235e-07
3.5338967e-07
3.5245857e-07
3.5156588e-07
3.507087e-07
3.4988456e-07
3.4909122e-07
3.4832652e-07
3.4758844e-07
3.4687531e-07
3.4618562e-07
3.4551786e-07
3.448706e-07
3.4424238e-07
3.4363211e-07
3.4303805e-07
3.4246002e-07
3.4189177e-07
3.4134216e-07
3.4077146e-07
3.402737e-07
3.3944037e-07
1.9998956e-06
1.9999427e-06
2.0001182e-06
2.0004317e-06
2.0008498e-06
2.0013504e-06
2.0019186e-06
2.0025432e-06
2.0032148e-06
2.0039259e-06
2.0046709e-06
2.0054459e-06
2.0062483e-06
2.0070774e-06
2.0079343e-06
2.0088215e-06
2.0097467e-06
2.0107148e-06
2.01175e-06
2.0128564e-06
2.0140751e-06
2.0155948e-06
2.0165763e-06
2.0199827e-06
5.9096355e-07
5.6611863e-07
5.5527597e-07
5.4787953e-07
5.4238524e-07
5.375661e-07
5.331163e-07
5.289751e-07
5.2511457e-07
5.2150573e-07
5.1812141e-07
5.1493856e-07
5.1193717e-07
5.0909951e-07
5.0641002e-07
5.0385509e-07
5.0142265e-07
4.9910195e-07
4.9688326e-07
4.9475788e-07
4.9271809e-07
4.907569e-07
4.8886818e-07
4.8704639e-07
4.8528635e-07
4.8358356e-07
4.8193392e-07
4.8033353e-07
4.7877889e-07
4.7726695e-07
4.7579476e-07
4.7435953e-07
4.7295887e-07
4.7159059e-07
4.7025251e-07
4.6894255e-07
4.67659e-07
4.6640025e-07
4.6516464e-07
4.6395056e-07
4.627567e-07
4.6158188e-07
4.6042479e-07
4.5928418e-07
4.5815896e-07
4.5704819e-07
4.559509e-07
4.5486606e-07
4.5379271e-07
4.5273006e-07
4.5167739e-07
4.5063386e-07
4.4959862e-07
4.4857093e-07
4.4755015e-07
4.4653566e-07
4.4552671e-07
4.4452256e-07
4.4352259e-07
4.4252625e-07
4.4153293e-07
4.4054194e-07
4.3955255e-07
4.3856425e-07
4.3757649e-07
4.3658861e-07
4.3559991e-07
4.3460971e-07
4.3361746e-07
4.3262256e-07
4.3162427e-07
4.3062177e-07
4.2961443e-07
4.2860161e-07
4.2758248e-07
4.2655613e-07
4.2552172e-07
4.2447845e-07
4.2342543e-07
4.2236156e-07
4.2128576e-07
4.2019707e-07
4.1909429e-07
4.1797604e-07
4.1684097e-07
4.1568773e-07
4.145147e-07
4.1331995e-07
4.1210203e-07
4.1088567e-07
4.0970959e-07
4.0858536e-07
4.0750919e-07
4.064774e-07
4.0548665e-07
4.0453407e-07
4.0361711e-07
4.0273323e-07
4.0188013e-07
4.0105587e-07
4.0025869e-07
3.9948686e-07
3.9873872e-07
3.980126e-07
3.9730723e-07
3.966206e-07
3.959525e-07
3.9529577e-07
3.9466053e-07
3.9400125e-07
3.9342605e-07
3.9246264e-07
1.9998945e-06
1.9999413e-06
2.000116e-06
2.000429e-06
2.0008471e-06
2.0013479e-06
2.0019166e-06
2.0025418e-06
2.0032141e-06
2.0039259e-06
2.0046715e-06
2.0054469e-06
2.0062496e-06
2.0070787e-06
2.0079353e-06
2.008822e-06
2.0097461e-06
2.0107127e-06
2.0117455e-06
2.012849e-06
2.0140621e-06
2.0155782e-06
2.0165394e-06
2.0199321e-06
6.4792002e-07
6.3681757e-07
6.3210167e-07
6.2594225e-07
6.2064332e-07
6.1577206e-07
6.1113804e-07
6.0673229e-07
6.0256133e-07
5.9861837e-07
5.9488985e-07
5.9136091e-07
5.8801638e-07
5.8484142e-07
5.8182217e-07
5.7894603e-07
5.7620142e-07
5.735777e-07
5.7106503e-07
5.6865448e-07
5.6633804e-07
5.6410836e-07
5.6195893e-07
5.5988385e-07
5.5787756e-07
5.5593515e-07
5.5405219e-07
5.522244e-07
5.5044797e-07
5.4871951e-07
5.4703579e-07
5.4539371e-07
5.4379061e-07
5.4222406e-07
5.4069163e-07
5.39191e-07
5.3772025e-07
5.3627757e-07
5.348611e-07
5.3346905e-07
5.3209993e-07
5.3075239e-07
5.2942499e-07
5.2811629e-07
5.2682507e-07
5.2555025e-07
5.2429074e-07
5.2304541e-07
5.2181311e-07
5.2059299e-07
5.1938419e-07
5.1818578e-07
5.1699681e-07
5.158164e-07
5.1464385e-07
5.1347843e-07
5.123193e-07
5.1116562e-07
5.1001667e-07
5.0887183e-07
5.0773039e-07
5.0659157e-07
5.0545456e-07
5.0431872e-07
5.0318346e-07
5.0204802e-07
5.009116e-07
4.9977341e-07
4.9863282e-07
4.9748915e-07
4.9634155e-07
4.9518908e-07
4.9403101e-07
4.9286661e-07
4.9169492e-07
4.9051492e-07
4.8932561e-07
4.8812611e-07
4.8691536e-07
4.8569211e-07
4.8445513e-07
4.832033e-07
4.8193526e-07
4.8064941e-07
4.7934421e-07
4.780181e-07
4.7666921e-07
4.7529534e-07
4.738948e-07
4.7249606e-07
4.7114361e-07
4.6985081e-07
4.6861324e-07
4.6742672e-07
4.6628739e-07
4.6519196e-07
4.6413747e-07
4.6312104e-07
4.6214e-07
4.6119213e-07
4.6027539e-07
4.5938782e-07
4.5852749e-07
4.5769248e-07
4.5688134e-07
4.5609176e-07
4.553235e-07
4.5456839e-07
4.5383795e-07
4.5308028e-07
4.5241904e-07
4.5131086e-07
1.9998932e-06
1.9999395e-06
2.0001133e-06
2.0004258e-06
2.0008438e-06
2.0013449e-06
2.0019141e-06
2.00254e-06
2.0032129e-06
2.0039254e-06
2.0046717e-06
2.0054475e-06
2.0062505e-06
2.0070795e-06
2.0079358e-06
2.0088217e-06
2.0097445e-06
2.0107093e-06
2.0117392e-06
2.0128393e-06
2.0140459e-06
2.0155578e-06
2.016495e-06
2.0198719e-06
7.0437055e-07
7.0903602e-07
7.1352425e-07
7.1007605e-07
7.0567802e-07
7.0120402e-07
6.9670158e-07
6.9225804e-07
6.879405e-07
6.8378226e-07
6.7979586e-07
6.7598326e-07
6.7234009e-07
6.6885861e-07
6.6552988e-07
6.6234465e-07
6.5929359e-07
6.5636754e-07
6.535576e-07
6.5085544e-07
6.4825336e-07
6.4574419e-07
6.4332145e-07
6.4097918e-07
6.3871171e-07
6.3651394e-07
6.3438126e-07
6.323092e-07
6.3029369e-07
6.2833113e-07
6.2641807e-07
6.2455116e-07
6.2272752e-07
6.2094453e-07
6.1919955e-07
6.1749004e-07
6.1581385e-07
6.1416905e-07
6.1255358e-07
6.1096545e-07
6.09403e-07
6.0786475e-07
6.0634909e-07
6.0485445e-07
6.0337942e-07
6.0192281e-07
6.0048343e-07
5.9905997e-07
5.9765119e-07
5.9625608e-07
5.9487371e-07
5.9350304e-07
5.9214297e-07
5.9079254e-07
5.8945092e-07
5.8811732e-07
5.8679079e-07
5.8547035e-07
5.8415521e-07
5.8284465e-07
5.8153788e-07
5.8023401e-07
5.7893211e-07
5.7763147e-07
5.7633139e-07
5.7503104e-07
5.7372948e-07
5.7242583e-07
5.7111936e-07
5.698093e-07
5.6849467e-07
5.6717442e-07
5.6584769e-07
5.6451364e-07
5.6317122e-07
5.6181921e-07
5.6045651e-07
5.5908207e-07
5.5769472e-07
5.5629301e-07
5.5487554e-07
5.53441e-07
5.5198788e-07
5.5051431e-07
5.4901854e-07
5.4749879e-07
5.4595292e-07
5.443784e-07
5.4277331e-07
5.4117025e-07
5.3962025e-07
5.381386e-07
5.3672025e-07
5.353604e-07
5.3405464e-07
5.3279919e-07
5.3159067e-07
5.3042576e-07
5.2930142e-07
5.282151e-07
5.2716446e-07
5.2614725e-07
5.2516128e-07
5.2420434e-07
5.2327475e-07
5.223699e-07
5.2148949e-07
5.2062425e-07
5.1978722e-07
5.1891951e-07
5.1816204e-07
5.1689166e-07
1.9998916e-06
1.9999375e-06
2.0001102e-06
2.000422e-06
2.0008398e-06
2.0013411e-06
2.0019109e-06
2.0025374e-06
2.0032112e-06
2.0039244e-06
2.0046713e-06
2.0054476e-06
2.0062508e-06
2.0070798e-06
2.0079355e-06
2.0088205e-06
2.0097417e-06
2.0107042e-06
2.0117307e-06
2.0128268e-06
2.0140258e-06
2.0155326e-06
2.0164419e-06
2.0198012e-06
7.5978019e-07
7.8179566e-07
7.9872587e-07
7.9983643e-07
7.9734677e-07
7.9394568e-07
7.9007478e-07
7.8597323e-07
7.8180018e-07
7.7765123e-07
7.7358141e-07
7.6962137e-07
7.6578611e-07
7.6208137e-07
7.5850787e-07
7.5506345e-07
7.5174396e-07
7.4854391e-07
7.4545713e-07
7.4247728e-07
7.3959814e-07
7.3681362e-07
7.3411801e-07
7.3150594e-07
7.2897208e-07
7.265116e-07
7.2412005e-07
7.2179302e-07
7.1952643e-07
7.1731668e-07
7.1516027e-07
7.1305376e-07
7.1099413e-07
7.0897868e-07
7.0700464e-07
7.0506935e-07
7.031705e-07
7.0130603e-07
6.9947378e-07
6.9767158e-07
6.9589763e-07
6.9415033e-07
6.9242798e-07
6.9072882e-07
6.8905133e-07
6.873942e-07
6.8575612e-07
6.8413568e-07
6.8253148e-07
6.8094241e-07
6.7936744e-07
6.7780542e-07
6.7625515e-07
6.7471553e-07
6.7318565e-07
6.7166461e-07
6.7015137e-07
6.6864483e-07
6.671441e-07
6.6564835e-07
6.6415672e-07
6.6266821e-07
6.6118176e-07
6.5969655e-07
6.5821182e-07
6.5672662e-07
6.5523989e-07
6.5375063e-07
6.52258e-07
6.5076113e-07
6.4925894e-07
6.477502e-07
6.4623394e-07
6.4470921e-07
6.4317481e-07
6.4162938e-07
6.4007161e-07
6.3850034e-07
6.3691423e-07
6.3531164e-07
6.3369095e-07
6.3205068e-07
6.3038909e-07
6.2870408e-07
6.2699362e-07
6.2525568e-07
6.2348783e-07
6.2168718e-07
6.1985152e-07
6.1801815e-07
6.1624544e-07
6.1455088e-07
6.1292871e-07
6.1137344e-07
6.0988003e-07
6.0844415e-07
6.0706193e-07
6.0572962e-07
6.044437e-07
6.0320125e-07
6.0199963e-07
6.0083625e-07
5.997086e-07
5.9861418e-07
5.9755105e-07
5.9651623e-07
5.9550938e-07
5.9452001e-07
5.9356282e-07
5.9257122e-07
5.917054e-07
5.9025198e-07
1.9998899e-06
1.9999352e-06
2.0001066e-06
2.0004174e-06
2.000835e-06
2.0013365e-06
2.0019068e-06
2.0025341e-06
2.0032086e-06
2.0039226e-06
2.0046701e-06
2.0054469e-06
2.0062502e-06
2.0070789e-06
2.007934e-06
2.0088177e-06
2.009737e-06
2.0106968e-06
2.0117194e-06
2.0128107e-06
2.0140008e-06
2.0155019e-06
2.0163783e-06
2.0197185e-06
8.1352071e-07
8.5401642e-07
8.8669931e-07
8.9448295e-07
8.9517707e-07
8.9373951e-07
8.9118764e-07
8.8797536e-07
8.8438644e-07
8.8060209e-07
8.7673783e-07
8.7286682e-07
8.6903379e-07
8.6526588e-07
8.6157976e-07
8.5798536e-07
8.5448764e-07
8.51088e-07
8.4778558e-07
8.445781e-07
8.4146256e-07
8.3843539e-07
8.3549283e-07
8.3263108e-07
8.2984602e-07
8.2713372e-07
8.2449047e-07
8.2191248e-07
8.1939605e-07
8.1693792e-07
8.1453485e-07
8.1218358e-07
8.0988118e-07
8.0762506e-07
8.0541252e-07
8.0324086e-07
8.0110778e-07
7.9901121e-07
7.9694894e-07
7.9491874e-07
7.9291874e-07
7.9094729e-07
7.890026e-07
7.8708285e-07
7.8518639e-07
7.8331185e-07
7.8145784e-07
7.7962286e-07
7.778054e-07
7.7600423e-07
7.7421828e-07
7.7244629e-07
7.7068696e-07
7.6893908e-07
7.6720165e-07
7.6547369e-07
7.6375406e-07
7.6204156e-07
7.6033517e-07
7.5863399e-07
7.5693707e-07
7.5524329e-07
7.5355148e-07
7.5186071e-07
7.5017012e-07
7.4847867e-07
7.4678517e-07
7.4508849e-07
7.4338766e-07
7.4168173e-07
7.3996946e-07
7.382495e-07
7.3652071e-07
7.3478202e-07
7.3303208e-07
7.3126935e-07
7.2949234e-07
7.2769973e-07
7.2589e-07
7.2406128e-07
7.2221174e-07
7.2033969e-07
7.1844314e-07
7.165197e-07
7.1456706e-07
7.1258292e-07
7.1056449e-07
7.0850849e-07
7.064124e-07
7.043188e-07
7.0229437e-07
7.0035912e-07
6.9850648e-07
6.9673019e-07
6.9502451e-07
6.933845e-07
6.9180575e-07
6.9028397e-07
6.8881517e-07
6.8739601e-07
6.8602348e-07
6.8469461e-07
6.8340656e-07
6.8215646e-07
6.809421e-07
6.7976012e-07
6.7861009e-07
6.7748018e-07
6.7638693e-07
6.7525521e-07
6.7426683e-07
6.7260588e-07
1.9998878e-06
1.9999325e-06
2.0001024e-06
2.0004121e-06
2.0008292e-06
2.0013309e-06
2.0019017e-06
2.0025296e-06
2.0032049e-06
2.0039197e-06
2.0046678e-06
2.0054449e-06
2.0062483e-06
2.0070766e-06
2.0079308e-06
2.0088129e-06
2.0097299e-06
2.0106865e-06
2.0117043e-06
2.01279e-06
2.0139699e-06
2.0154643e-06
2.0163025e-06
2.0196226e-06
8.6487713e-07
9.2454815e-07
9.7630707e-07
9.9312563e-07
9.9850817e-07
1.0001049e-06
9.9971949e-07
9.980933e-07
9.9566798e-07
9.9273275e-07
9.8948148e-07
9.860439e-07
9.8250549e-07
9.7892338e-07
9.7533722e-07
9.7177479e-07
9.6825489e-07
9.6478969e-07
9.6138682e-07
9.5805078e-07
9.5478404e-07
9.5158744e-07
9.4846079e-07
9.4540318e-07
9.4241289e-07
9.3948787e-07
9.3662601e-07
9.3382481e-07
9.3108162e-07
9.2839404e-07
9.2575958e-07
9.2317554e-07
9.2063945e-07
9.1814913e-07
9.157022e-07
9.1329621e-07
9.1092902e-07
9.0859876e-07
9.0630335e-07
9.0404064e-07
9.0180877e-07
8.9960618e-07
8.9743112e-07
8.9528176e-07
8.9315643e-07
8.9105372e-07