/*--------------------------------*- C++ -*----------------------------------*\
  =========                 |
  \\      /  F ield         | OpenFOAM: The Open Source CFD Toolbox
   \\    /   O peration     | Website:  https://openfoam.org
    \\  /    A nd           | Version:  12
     \\/     M anipulation  |
\*---------------------------------------------------------------------------*/
FoamFile
{
    format      ascii;
    class       surfaceScalarField;
    location    "1000";
    object      phi;
}
// * * * * * * * * * * * * * * * * * * * * * * * * * * * * * * * * * * * * * //

dimensions      [0 3 -1 0 0 0 0];

internalField   nonuniform List<scalar> 
14782
(
0.00078635959
7.1540061e-06
-0.0007935136
0.0007767074
9.6521933e-06
0.00076587388
1.0833521e-05
0.00075456143
1.131245e-05
0.00074277758
1.1783844e-05
0.00073057187
1.220571e-05
0.00071798327
1.2588604e-05
0.00070505918
1.2924087e-05
0.0006918719
1.3187279e-05
0.00067854522
1.3326686e-05
0.00066526927
1.3275941e-05
0.00065230675
1.2962526e-05
0.00063999356
1.2313185e-05
0.00062868501
1.1308554e-05
0.0006186516
1.0033407e-05
0.00061000314
8.6484574e-06
0.00060266931
7.3338369e-06
0.00059651612
6.1531856e-06
0.00059128887
5.2272567e-06
0.00058673344
4.5554271e-06
0.00058278282
3.9506203e-06
0.00057922034
3.5624771e-06
0.0005758912
3.3291411e-06
0.00057272401
3.1671897e-06
0.00056966282
3.0611879e-06
0.0005666884
2.9744271e-06
0.00056379235
2.8960433e-06
0.00056097835
2.8139979e-06
0.00055824936
2.7289923e-06
0.00055561113
2.6382336e-06
0.0005530623
2.5488226e-06
0.00055059138
2.4709276e-06
0.00054816725
2.4241266e-06
0.00054574845
2.4188041e-06
0.00054331412
2.4343286e-06
0.00054086966
2.4444546e-06
0.00053843687
2.432796e-06
0.00053604441
2.392459e-06
0.00053371773
2.3266766e-06
0.00053147166
2.2460726e-06
0.00052931047
2.161194e-06
0.00052723225
2.0782157e-06
0.0005252303
2.0019483e-06
0.00052329568
1.9346247e-06
0.00052140452
1.8911557e-06
0.00051950593
1.8985889e-06
0.000517515
1.9909311e-06
0.00051529309
2.2219097e-06
0.00051267762
2.6154663e-06
0.00050967238
3.0052483e-06
0.00050654785
3.1245237e-06
0.00050360735
2.940499e-06
0.00050098496
2.6223898e-06
0.00049866659
2.3183697e-06
0.00049657014
2.096449e-06
0.00049461723
1.9529163e-06
0.0004927449
1.8723268e-06
0.00049092773
1.8171691e-06
0.00048916459
1.7631421e-06
0.00048744691
1.7176805e-06
0.00048576652
1.6803889e-06
0.00048411447
1.6520502e-06
0.00048248384
1.630629e-06
0.00048086968
1.6141633e-06
0.0004792678
1.6018757e-06
0.00047767564
1.5921653e-06
0.00047609214
1.5834928e-06
0.00047451625
1.575894e-06
0.00047294644
1.5698123e-06
0.00047138124
1.5651973e-06
0.00046981917
1.56207e-06
0.00046825888
1.5602906e-06
0.00046669931
1.5595663e-06
0.00046513927
1.5600409e-06
0.00046357764
1.5616332e-06
0.00046201341
1.5642247e-06
0.0004604454
1.5680108e-06
0.0004588726
1.572801e-06
0.00045729414
1.5784674e-06
0.00045570886
1.5852736e-06
0.00045411652
1.5923406e-06
0.00045251744
1.5990793e-06
0.00045091611
1.6013328e-06
0.00044937088
1.5452307e-06
0.00044844276
9.2812221e-07
0.00045247542
-4.0326604e-06
0.00045898104
-6.5056204e-06
0.00046251369
-3.5326521e-06
0.00046434392
-1.8302335e-06
0.00046491795
-5.7402064e-07
0.0004648247
9.324068e-08
0.00046435893
4.6577685e-07
0.00046367754
6.8139137e-07
0.00046286338
8.1415358e-07
0.00046196338
9.0000062e-07
0.00046100705
9.5633282e-07
0.00045999909
1.0079562e-06
0.00045892878
1.0703098e-06
0.00045782693
1.1018542e-06
1.3410342e-06
0.0008249799
6.7727455e-06
-0.00082459864
0.0008253774
9.2546906e-06
0.00082558769
1.0623231e-05
0.00082568181
1.1218327e-05
0.00082565391
1.1811743e-05
0.0008255003
1.2359328e-05
0.00082521452
1.2874374e-05
0.00082477461
1.3364001e-05
0.00082412512
1.3836771e-05
0.00082317107
1.4280736e-05
0.000821788
1.4659009e-05
0.00081980687
1.4943661e-05
0.00081702679
1.5093256e-05
0.00081325087
1.5084479e-05
0.00080835706
1.4927217e-05
0.00080234827
1.4657247e-05
0.0007953367
1.4345413e-05
0.00078749316
1.3996725e-05
0.00077904261
1.3677806e-05
0.00077020417
1.3393862e-05
0.00076120359
1.2951204e-05
0.0007523067
1.2459369e-05
0.00074370322
1.1932616e-05
0.00073551329
1.1357125e-05
0.00072781202
1.0762458e-05
0.00072062952
1.0156925e-05
0.00071396764
9.557924e-06
0.000707797
8.9846378e-06
0.00070206048
8.4655051e-06
0.00069669001
8.0087054e-06
0.00069161915
7.6196892e-06
0.00068678585
7.3042242e-06
0.00068215194
7.0580363e-06
0.00067770614
6.8646055e-06
0.00067343909
6.701381e-06
0.00066933847
6.545074e-06
0.00066538756
6.3837037e-06
0.00066156685
6.213164e-06
0.00065786012
6.0334071e-06
0.00065425727
5.8489201e-06
0.0006507535
5.6649644e-06
0.00064734717
5.4845527e-06
0.0006440365
5.3126178e-06
0.00064081945
5.15167e-06
0.00063769862
5.0119866e-06
0.00063468627
4.9109374e-06
0.00063180998
4.8672286e-06
0.0006291253
4.9065824e-06
0.00062669932
5.041448e-06
0.00062449467
5.2099007e-06
0.0006223312
5.2879887e-06
0.00062005327
5.2184305e-06
0.00061763043
5.0452312e-06
0.00061511295
4.8358461e-06
0.0006125686
4.640799e-06
0.00061004046
4.4810628e-06
0.00060754551
4.3672691e-06
0.00060508923
4.2734509e-06
0.0006026759
4.1764733e-06
0.0006003082
4.08538e-06
0.00059798587
4.0027246e-06
0.0005957068
3.9311167e-06
0.00059346882
3.8686092e-06
0.00059126973
3.8132568e-06
0.00058910695
3.7646476e-06
0.00058697875
3.7203689e-06
0.00058488423
3.6780156e-06
0.00058282232
3.637798e-06
0.00058079173
3.6004032e-06
0.00057879125
3.5656819e-06
0.00057681964
3.5336753e-06
0.00057487576
3.5041762e-06
0.00057295865
3.4766765e-06
0.00057106731
3.4513751e-06
0.00056920084
3.4281057e-06
0.00056735843
3.4066346e-06
0.00056553917
3.3872677e-06
0.00056374229
3.3696847e-06
0.00056196705
3.35371e-06
0.00056021248
3.3398376e-06
0.00055847814
3.3266874e-06
0.00055676346
3.3137579e-06
0.00055506638
3.298407e-06
0.00055337936
3.2322495e-06
0.00055163565
2.6718326e-06
0.00054885994
-1.2569487e-06
0.00054619979
-3.8454715e-06
0.00054485485
-2.1877047e-06
0.00054372892
-7.0430892e-07
0.00054259819
5.5670858e-07
0.00054136832
1.3231162e-06
0.00054005696
1.7771386e-06
0.00053869643
2.0419146e-06
0.00053731074
2.1998458e-06
0.00053591047
2.3002729e-06
0.0005345087
2.3581008e-06
0.00053307879
2.437872e-06
0.00053166185
2.4872468e-06
0.00053001266
2.7510389e-06
2.7422852e-06
0.00085269514
6.499168e-06
-0.00085242157
0.00085309937
8.8504637e-06
0.00085347222
1.0250383e-05
0.00085376218
1.0928361e-05
0.00085402543
1.15485e-05
0.00085425015
1.2134601e-05
0.0008544481
1.2676424e-05
0.00085463012
1.3181981e-05
0.00085480255
1.3664343e-05
0.00085496395
1.4119336e-05
0.00085511432
1.4508641e-05
0.0008552419
1.4816086e-05
0.00085533072
1.5004434e-05
0.0008553549
1.5060293e-05
0.00085528191
1.5000207e-05
0.0008550697
1.4869457e-05
0.00085467135
1.474377e-05
0.00085402259
1.4645478e-05
0.00085305099
1.4649412e-05
0.00085167106
1.4773793e-05
0.00084972216
1.4900103e-05
0.00084709071
1.509082e-05
0.0008437153
1.5308021e-05
0.00083956492
1.5507506e-05
0.00083465331
1.5674069e-05
0.0008290259
1.5784337e-05
0.00082279936
1.5784463e-05
0.00081614924
1.563475e-05
0.00080924866
1.5366091e-05
0.00080226464
1.4992725e-05
0.00079534587
1.4538455e-05
0.00078860951
1.4040591e-05
0.00078213595
1.3531597e-05
0.00077596287
1.3037682e-05
0.00077008804
1.2576213e-05
0.00076448496
1.2148155e-05
0.00075911574
1.1752916e-05
0.00075394246
1.1386447e-05
0.00074893684
1.1039029e-05
0.00074408087
1.0704888e-05
0.00073936404
1.0381793e-05
0.00073477888
1.0069712e-05
0.00073031762
9.7738838e-06
0.00072597508
9.4942063e-06
0.00072175478
9.2322925e-06
0.00071766834
8.9973705e-06
0.00071373202
8.8035494e-06
0.00070997039
8.6682118e-06
0.00070640995
8.6018921e-06
0.00070304293
8.5769141e-06
0.00069980887
8.5220532e-06
0.00069663461
8.3926887e-06
0.00069347381
8.2060345e-06
0.00069031255
7.9971085e-06
0.00068716079
7.7925519e-06
0.0006840352
7.606653e-06
0.00068094984
7.4526289e-06
0.0006779137
7.3095944e-06
0.00067493162
7.1585544e-06
0.00067200543
7.0115665e-06
0.00066913501
6.8731442e-06
0.00066631985
6.7462839e-06
0.00066355938
6.629078e-06
0.00066085234
6.5202932e-06
0.00065819672
6.4202741e-06
0.00065559118
6.3259011e-06
0.00065303471
6.2344929e-06
0.00065052569
6.1468138e-06
0.00064806253
6.0635607e-06
0.0006456439
5.9843108e-06
0.00064326849
5.9090868e-06
0.00064093501
5.8376576e-06
0.00063864233
5.7693549e-06
0.00063638929
5.7044165e-06
0.00063417481
5.6425911e-06
0.00063199791
5.5835276e-06
0.00062985757
5.5276118e-06
0.00062775284
5.4744114e-06
0.00062568284
5.4237118e-06
0.00062364647
5.3762057e-06
0.00062164303
5.3301331e-06
0.00061967157
5.2852126e-06
0.00061772858
5.2414032e-06
0.00061579505
5.1657748e-06
0.0006137293
4.7375814e-06
0.00061061506
1.8572886e-06
0.00060723239
-4.6279726e-07
0.00060479488
2.4980896e-07
0.00060277783
1.3127373e-06
0.00060097268
2.361863e-06
0.00059922355
3.0722437e-06
0.00059748529
3.5153952e-06
0.00059575075
3.776452e-06
0.00059402453
3.9260685e-06
0.0005923064
4.0184e-06
0.00059060501
4.0594913e-06
0.00058888403
4.1588548e-06
0.00058720602
4.1652543e-06
0.00058520902
4.7480419e-06
4.2975409e-06
0.00088128052
6.2962535e-06
-0.0008810776
0.00088165815
8.4728327e-06
0.00088203218
9.8763449e-06
0.00088232614
1.0634409e-05
0.00088259678
1.1277861e-05
0.00088283551
1.1895872e-05
0.00088304951
1.2462422e-05
0.0008832494
1.2982088e-05
0.00088344321
1.3470534e-05
0.00088363188
1.3930662e-05
0.00088381829
1.4322232e-05
0.00088399709
1.4637289e-05
0.00088416244
1.4839078e-05
0.00088430456
1.4918174e-05
0.00088441695
1.4887818e-05
0.00088449594
1.479047e-05
0.00088454666
1.4693048e-05
0.00088457075
1.4621387e-05
0.00088457417
1.4645999e-05
0.00088456589
1.4782069e-05
0.0008845264
1.4939595e-05
0.00088444499
1.5172226e-05
0.00088429697
1.5456048e-05
0.00088404248
1.5761993e-05
0.00088362656
1.6089984e-05
0.00088298148
1.6429419e-05
0.00088199514
1.6770808e-05
0.00088052775
1.710214e-05
0.00087846981
1.7424031e-05
0.00087573745
1.7725079e-05
0.00087228443
1.7991474e-05
0.00086810922
1.8215804e-05
0.00086328694
1.8353883e-05
0.00085795662
1.8367997e-05
0.00085226981
1.8263021e-05
0.00084637892
1.8039051e-05
0.00084041999
1.7711838e-05
0.00083449988
1.7306556e-05
0.00082868852
1.6850394e-05
0.00082301711
1.6376297e-05
0.00081748815
1.5910754e-05
0.0008120907
1.5467157e-05
0.00080681313
1.5051462e-05
0.00080164945
1.4657884e-05
0.00079660037
1.4281368e-05
0.00079167317
1.3924569e-05
0.00078687902
1.3597706e-05
0.00078223032
1.3316906e-05
0.00077773697
1.3095243e-05
0.00077339851
1.2915372e-05
0.00076919799
1.2722583e-05
0.00076510999
1.2480688e-05
0.00076111178
1.2204243e-05
0.00075718606
1.1922825e-05
0.00075332412
1.1654493e-05
0.00074952519
1.1405586e-05
0.00074579286
1.1184954e-05
0.0007421293
1.0973156e-05
0.00073853455
1.0753308e-05
0.00073500884
1.0537274e-05
0.00073155224
1.0329743e-05
0.00072816426
1.0134266e-05
0.00072484414
9.9491987e-06
0.00072159047
9.773964e-06
0.0007184013
9.6094395e-06
0.00071527535
9.4518566e-06
0.00071221105
9.2987852e-06
0.00070920626
9.1516111e-06
0.0007062591
9.0107147e-06
0.00070336807
8.8753471e-06
0.00070053162
8.7455379e-06
0.00069774821
8.6210607e-06
0.00069501646
8.5011117e-06
0.00069233491
8.3859665e-06
0.00068970221
8.2752901e-06
0.00068711712
8.1686098e-06
0.00068457836
8.0663746e-06
0.00068208474
7.9680377e-06
0.00067963511
7.8733326e-06
0.0006772282
7.7831197e-06
0.00067486307
7.6952688e-06
0.00067253861
7.6096721e-06
0.00067025156
7.5284478e-06
0.00066798732
7.4300203e-06
0.00066565898
7.0659217e-06
0.00066279338
4.7228823e-06
0.00065971129
2.6192939e-06
0.00065705765
2.9034532e-06
0.00065469903
3.6713541e-06
0.00065253673
4.524159e-06
0.00065046108
5.1478991e-06
0.00064842306
5.5534165e-06
0.00064640573
5.7937794e-06
0.00064440756
5.9242386e-06
0.00064242518
6.0007768e-06
0.00064046682
6.0178471e-06
0.00063849179
6.1338895e-06
0.00063657934
6.0777071e-06
0.00063427685
7.0505332e-06
6.019386e-06
0.00091084151
6.1334579e-06
-0.00091067871
0.0009111826
8.1317375e-06
0.00091153228
9.5266691e-06
0.00091181583
1.0350854e-05
0.0009120747
1.101899e-05
0.00091231052
1.1660051e-05
0.00091252574
1.2247208e-05
0.00091272851
1.2779317e-05
0.00091292631
1.3272733e-05
0.00091312001
1.3736965e-05
0.00091331173
1.4130508e-05
0.00091349657
1.4452453e-05
0.00091366907
1.466657e-05
0.00091382115
1.4766099e-05
0.00091394602
1.4762949e-05
0.00091404026
1.4696233e-05
0.0009141092
1.46241e-05
0.00091415616
1.4574433e-05
0.00091419081
1.461135e-05
0.00091422572
1.4747151e-05
0.00091425404
1.4911285e-05
0.00091428174
1.5144517e-05
0.00091431063
1.542716e-05
0.00091433852
1.5734101e-05
0.00091436331
1.6065198e-05
0.00091438134
1.6411391e-05
0.00091438567
1.6766477e-05
0.0009143635
1.7124304e-05
0.00091429648
1.749105e-05
0.00091415387
1.7867693e-05
0.00091388868
1.8256664e-05
0.00091343957
1.8664912e-05
0.00091270385
1.9089609e-05
0.0009115499
1.9521945e-05
0.00090986249
1.995043e-05
0.00090755064
2.0350903e-05
0.00090456121
2.0701266e-05
0.00090089711
2.0970655e-05
0.00089663431
2.1113192e-05
0.0008918978
2.1112808e-05
0.00088682564
2.0982915e-05
0.00088155124
2.0741552e-05
0.00087618713
2.0415582e-05
0.00087081155
2.0033457e-05
0.0008654659
1.9627019e-05
0.00086016859
1.9221882e-05
0.00085493097
1.8835322e-05
0.00084976683
1.8481047e-05
0.00084469258
1.8169496e-05
0.00083972077
1.7887176e-05
0.00083485474
1.7588612e-05
0.00083009028
1.7245154e-05
0.00082542106
1.6873463e-05
0.00082084067
1.6503217e-05
0.00081634419
1.6150974e-05
0.00081192962
1.5820154e-05
0.00080759727
1.5517306e-05
0.00080334519
1.5225235e-05
0.00079917047
1.4928023e-05
0.00079507282
1.4634924e-05
0.00079105288
1.4349684e-05
0.00078711048
1.4076665e-05
0.00078324489
1.3814791e-05
0.00077945513
1.3563727e-05
0.00077573981
1.332476e-05
0.0007720972
1.3094462e-05
0.00076852551
1.2870474e-05
0.00076502295
1.2654177e-05
0.00076158776
1.2445898e-05
0.00075821839
1.2244721e-05
0.00075491321
1.2050716e-05
0.0007516706
1.1863671e-05
0.00074848905
1.1682663e-05
0.00074536699
1.1508025e-05
0.00074230293
1.1339355e-05
0.00073929547
1.117607e-05
0.00073634315
1.1018688e-05
0.00073344464
1.0866551e-05
0.00073059863
1.071934e-05
0.00072780368
1.0578073e-05
0.00072505871
1.0440244e-05
0.00072236251
1.0305871e-05
0.00071971229
1.0178668e-05
0.0007170982
1.0044103e-05
0.00071447651
9.6876195e-06
0.00071161678
7.5826053e-06
0.00070863686
5.599211e-06
0.00070585374
5.6865817e-06
0.00070325911
6.2659804e-06
0.00070081612
6.9671522e-06
0.0006984589
7.5051093e-06
0.0006961477
7.8646212e-06
0.00069386447
8.0770127e-06
0.00069160538
8.1833284e-06
0.00068936583
8.2403199e-06
0.0006871546
8.2290804e-06
0.00068492801
8.3604828e-06
0.00068278082
8.2248906e-06
0.00068017563
9.6557283e-06
7.9194351e-06
0.00094139062
6.0020792e-06
-0.00094125924
0.00094169105
7.8313113e-06
0.00094201732
9.2003963e-06
0.00094229575
1.0072426e-05
0.00094254998
1.0764756e-05
0.00094278751
1.1422528e-05
0.00094300724
1.2027477e-05
0.00094321423
1.2572325e-05
0.00094341465
1.3072309e-05
0.00094361156
1.3540063e-05
0.00094380374
1.3938326e-05
0.00094398922
1.4266975e-05
0.00094416184
1.4493944e-05
0.00094431432
1.4613624e-05
0.00094444045
1.4636817e-05
0.00094453763
1.4599055e-05
0.00094461018
1.4551542e-05
0.00094466107
1.4523548e-05
0.00094469988
1.457254e-05
0.00094473802
1.470901e-05
0.00094477099
1.4878319e-05
0.00094480427
1.5111233e-05
0.00094484006
1.5391368e-05
0.00094487724
1.5696921e-05
0.00094491558
1.6026861e-05
0.00094495474
1.6372225e-05
0.00094499392
1.6727296e-05
0.00094503144
1.7086791e-05
0.00094506714
1.7455349e-05
0.00094509991
1.7834918e-05
0.00094512818
1.8228395e-05
0.00094515
1.8643089e-05
0.00094515994
1.9079669e-05
0.00094514713
1.9534757e-05
0.00094509208
2.0005478e-05
0.00094496028
2.0482703e-05
0.00094470017
2.0961384e-05
0.00094423158
2.1439244e-05
0.00094343519
2.1909583e-05
0.00094218025
2.2367746e-05
0.00094035757
2.2805596e-05
0.0009378918
2.3207316e-05
0.00093476529
2.3542099e-05
0.00093103577
2.3762974e-05
0.0009268126
2.3850184e-05
0.00092222295
2.3811535e-05
0.00091739121
2.3667058e-05
0.00091242218
2.3450079e-05
0.00090739057
2.3201112e-05
0.00090234
2.2937739e-05
0.00089729253
2.2636082e-05
0.00089226165
2.2276041e-05
0.00088726066
2.187445e-05
0.00088230255
2.1461325e-05
0.0008773972
2.1056326e-05
0.00087255131
2.0666046e-05
0.00086777036
2.0298252e-05
0.00086305713
1.9938461e-05
0.00085841259
1.9572566e-05
0.00085383838
1.9209136e-05
0.00084933645
1.8851608e-05
0.00084490847
1.8504655e-05
0.00084055559
1.8167669e-05
0.00083627878
1.7840529e-05
0.00083207837
1.752517e-05
0.00082795333
1.7219502e-05
0.00082390258
1.6921225e-05
0.00081992543
1.6631327e-05
0.00081602091
1.6350417e-05
0.000812188
1.6077636e-05
0.00080842549
1.581322e-05
0.00080473212
1.5557047e-05
0.00080110664
1.5308143e-05
0.0007975477
1.5066962e-05
0.00079405396
1.4833091e-05
0.00079062415
1.4605886e-05
0.00078725687
1.4385971e-05
0.00078395081
1.4172609e-05
0.00078070469
1.3965455e-05
0.00077751706
1.3765701e-05
0.00077438683
1.3570475e-05
0.0007713128
1.33799e-05
0.00076829261
1.3198866e-05
0.00076531968
1.3017027e-05
0.00076237465
1.263265e-05
0.00075934114
1.0616113e-05
0.00075625789
8.6824683e-06
0.00075328203
8.6624401e-06
0.00075043298
9.1150235e-06
0.00074770261
9.6975252e-06
0.00074505412
1.0153596e-05
0.00074245787
1.0460871e-05
0.00073989685
1.0638041e-05
0.00073736565
1.0714525e-05
0.00073485837
1.0747599e-05
0.00073238396
1.0703492e-05
0.00072989578
1.0848664e-05
0.00072750344
1.061723e-05
0.0007245865
1.2572661e-05
1.0011289e-05
0.00097295811
5.8947573e-06
-0.00097285078
0.00097322214
7.5672756e-06
0.00097352716
8.8953801e-06
0.00097379983
9.7997545e-06
0.00097404923
1.0515355e-05
0.00097428557
1.1186186e-05
0.00097450707
1.1805973e-05
0.0009747164
1.2362999e-05
0.00097491814
1.2870565e-05
0.00097511806
1.3340148e-05
0.00097531104
1.3745347e-05
0.00097549803
1.4079982e-05
0.00097567199
1.4319981e-05
0.00097582636
1.4459257e-05
0.00097595527
1.4507906e-05
0.00097605631
1.4498014e-05
0.00097613307
1.4474788e-05
0.00097618852
1.4468092e-05
0.00097623189
1.4529175e-05
0.00097627314
1.4667757e-05
0.00097630931
1.484215e-05
0.0009763453
1.5075243e-05
0.00097638324
1.5353431e-05
0.00097642234
1.5657817e-05
0.00097646272
1.5986482e-05
0.00097650409
1.633086e-05
0.00097654587
1.6685512e-05
0.00097658693
1.7045733e-05
0.0009766272
1.741508e-05
0.00097666619
1.7795923e-05
0.00097670371
1.8190875e-05
0.00097674063
1.8606169e-05
0.00097677744
1.9042859e-05
0.00097681407
1.9498128e-05
0.00097685049
1.9969057e-05
0.00097688533
2.0447862e-05
0.00097691629
2.0930429e-05
0.00097693892
2.1416608e-05
0.00097694378
2.190473e-05
0.00097691371
2.2397819e-05
0.00097681796
2.2901338e-05
0.00097660724
2.3418041e-05
0.0009762004
2.3948934e-05
0.00097547548
2.4487897e-05
0.00097429794
2.5027724e-05
0.00097255474
2.5554732e-05
0.00097016996
2.6051841e-05
0.00096714401
2.6476035e-05
0.00096355541
2.6789704e-05
0.00095951684
2.6976316e-05
0.00095515015
2.700277e-05
0.00095056326
2.6862931e-05
0.0009458364
2.6601309e-05
0.00094102008
2.6277644e-05
0.00093614504
2.5931364e-05
0.00093123491
2.5576179e-05
0.00092631267
2.5220489e-05
0.0009213978
2.4853333e-05
0.00091650431
2.446605e-05
0.00091164256
2.4070886e-05
0.00090682081
2.3673358e-05
0.00090204638
2.327909e-05
0.00089732563
2.2888414e-05
0.00089266383
2.2502336e-05
0.00088806499
2.2124002e-05
0.00088353163
2.1752868e-05
0.00087906537
2.1387488e-05
0.00087466757
2.1029118e-05
0.00087033922
2.0678773e-05
0.00086608097
2.0335887e-05
0.00086189303
2.0001153e-05
0.00085777531
1.9674773e-05
0.00085372755
1.9355903e-05
0.00084974923
1.9045282e-05
0.0008458397
1.8742619e-05
0.00084199827
1.844732e-05
0.00083822402
1.8160221e-05
0.00083451604
1.7880585e-05
0.00083087339
1.7608109e-05
0.00082729486
1.7344225e-05
0.00082377961
1.7085728e-05
0.00082032663
1.6832879e-05
0.00081693401
1.6591488e-05
0.00081359731
1.6353723e-05
0.0008103095
1.5920462e-05
0.00080700621
1.3919404e-05
0.00080369799
1.1990689e-05
0.00080046733
1.1893101e-05
0.00079733191
1.2250445e-05
0.00079429494
1.2734497e-05
0.00079133739
1.3111144e-05
0.00078843843
1.3359828e-05
0.00078558294
1.3493525e-05
0.00078276444
1.353303e-05
0.00077997551
1.353653e-05
0.00077722484
1.3454161e-05
0.00077446255
1.3610955e-05
0.00077181265
1.326713e-05
0.000768572
1.5813308e-05
1.2308088e-05
0.001005578
5.8048602e-06
-0.0010054881
0.0010058105
7.3347696e-06
0.0010060941
8.6117512e-06
0.0010063587
9.5351156e-06
0.0010066029
1.0271217e-05
0.001006837
1.0952095e-05
0.0010070597
1.1583233e-05
0.0010072715
1.2151204e-05
0.0010074761
1.2665957e-05
0.001007678
1.3138263e-05
0.0010078732
1.3550124e-05
0.0010080618
1.3891415e-05
0.0010082374
1.4144344e-05
0.0010083939
1.4302748e-05
0.0010085258
1.4376006e-05
0.0010086309
1.4392986e-05
0.0010087119
1.4393719e-05
0.001008772
1.4408016e-05
0.0010088197
1.4481452e-05
0.0010088639
1.4623579e-05
0.0010089029
1.4803172e-05
0.0010089411
1.5037008e-05
0.0010089808
1.5313783e-05
0.0010090214
1.561723e-05
0.0010090631
1.5944726e-05
0.0010091057
1.6288233e-05
0.0010091487
1.6642573e-05
0.0010091909
1.700354e-05
0.0010092322
1.737371e-05
0.0010092726
1.7755579e-05
0.0010093119
1.8151592e-05
0.0010093509
1.8567128e-05
0.0010093903
1.9003487e-05
0.0010094304
1.9458018e-05
0.0010094715
1.992791e-05
0.001009513
2.0406438e-05
0.001009554
2.0889431e-05
0.0010095942
2.1376412e-05
0.0010096328
2.1866106e-05
0.0010096692
2.2361443e-05
0.0010097027
2.2867838e-05
0.0010097318
2.3388913e-05
0.0010097526
2.39281e-05
0.0010097554
2.4485097e-05
0.0010097209
2.5062271e-05
0.0010096122
2.5663442e-05
0.0010093709
2.6293058e-05
0.001008893
2.6953948e-05
0.0010080383
2.7644475e-05
0.0010066764
2.8338214e-05
0.0010047049
2.8974272e-05
0.0010020902
2.9477583e-05
0.00099888399
2.9807533e-05
0.00099518801
2.9973621e-05
0.00099112094
2.9998436e-05
0.00098679086
2.9906261e-05
0.00098227846
2.9732885e-05
0.00097763491
2.9496879e-05
0.00097289392
2.9207046e-05
0.00096808408
2.8880725e-05
0.00096323172
2.8525714e-05
0.00095835916
2.8151651e-05
0.000953484
2.7763571e-05
0.00094862031
2.7366029e-05
0.00094377996
2.6964356e-05
0.00093897278
2.656005e-05
0.00093420647
2.6153796e-05
0.00092948712
2.5748468e-05
0.00092481977
2.5346125e-05
0.00092020865
2.4947006e-05
0.000915657
2.4552799e-05
0.00091116729
2.4164479e-05
0.0009067415
2.3781695e-05
0.00090238097
2.3405814e-05
0.00089808666
2.3036934e-05
0.00089385923
2.2674748e-05
0.00088969894
2.232051e-05
0.00088560588
2.1973646e-05
0.00088157994
2.1634044e-05
0.00087762066
2.1303509e-05
0.00087372779
2.0978596e-05
0.00086990088
2.065979e-05
0.00086613864
2.0353725e-05
0.00086243822
2.0054152e-05
0.00085879854
1.9560134e-05
0.00085517914
1.753881e-05
0.00085158219
1.5587636e-05
0.00084805617
1.541912e-05
0.00084461074
1.5695876e-05
0.00084125197
1.6093262e-05
0.00083797115
1.6391962e-05
0.00083475466
1.6576322e-05
0.00083158991
1.6658279e-05
0.00082846998
1.6652955e-05
0.00082538614
1.6620373e-05
0.00082234659
1.6493704e-05
0.00081929799
1.6659564e-05
0.00081637847
1.6186646e-05
0.00081280171
1.9390067e-05
1.4821901e-05
0.0010392849
5.7274455e-06
-0.0010392075
0.0010394902
7.1294679e-06
0.0010397526
8.3493524e-06
0.001040008
9.2797573e-06
0.0010402471
1.0032091e-05
0.0010404786
1.0720551e-05
0.0010407019
1.1359939e-05
0.0010409157
1.1937381e-05
0.0010411226
1.2459121e-05
0.0010413258
1.2935018e-05
0.0010415229
1.3353042e-05
0.0010417126
1.3701723e-05
0.0010418896
1.3967346e-05
0.001042048
1.4144327e-05
0.0010421827
1.4241292e-05
0.0010422916
1.4284123e-05
0.0010423769
1.4308376e-05
0.0010424417
1.434327e-05
0.0010424939
1.4429282e-05
0.0010425413
1.4576107e-05
0.0010425836
1.4760943e-05
0.0010426246
1.4995952e-05
0.0010426666
1.5271776e-05
0.0010427093
1.5574517e-05
0.001042753
1.5901025e-05
0.0010427974
1.6243835e-05
0.001042842
1.6597997e-05
0.0010428858
1.6959729e-05
0.0010429287
1.7330822e-05
0.0010429705
1.7713755e-05
0.0010430113
1.8110846e-05
0.0010430517
1.8526735e-05
0.0010430923
1.8962864e-05
0.0010431334
1.9416865e-05
0.0010431755
1.9885901e-05
0.0010432179
2.036398e-05
0.0010432604
2.0846985e-05
0.0010433025
2.1334264e-05
0.0010433438
2.1824805e-05
0.0010433841
2.2321184e-05
0.0010434232
2.2828668e-05
0.0010434611
2.335105e-05
0.0010434978
2.3891377e-05
0.0010435332
2.44497e-05
0.0010435669
2.5028637e-05
0.0010435979
2.5632374e-05
0.0010436245
2.6266516e-05
0.0010436407
2.6937721e-05
0.0010436332
2.7651943e-05
0.0010435725
2.8398933e-05
0.0010434035
2.9143276e-05
0.0010430251
2.9856029e-05
0.0010422941
3.0538451e-05
0.0010410687
3.1199059e-05
0.0010392379
3.1829236e-05
0.0010367678
3.2376403e-05
0.0010337118
3.2788826e-05
0.0010301695
3.3039242e-05
0.0010262544
3.3122125e-05
0.001022066
3.3069076e-05
0.0010176748
3.2916966e-05
0.0010131268
3.2699662e-05
0.0010084576
3.2432777e-05
0.0010036996
3.2123957e-05
0.00099888188
3.1782103e-05
0.00099402791
3.1414016e-05
0.00098915646
3.1025246e-05
0.00098428302
3.0621914e-05
0.00097942072
3.0208424e-05
0.00097458056
2.9787159e-05
0.0009697715
2.9361866e-05
0.00096500092
2.8935061e-05
0.00096027503
2.8507581e-05
0.00095559878
2.8082061e-05
0.00095097622
2.7659499e-05
0.00094641066
2.7240303e-05
0.00094190464
2.6826532e-05
0.0009374602
2.6418088e-05
0.00093307892
2.6015322e-05
0.00092876177
2.562066e-05
0.00092450977
2.5230597e-05
0.00092032354
2.4846022e-05
0.00091620283
2.4474436e-05
0.00091214628
2.4110694e-05
0.00090815594
2.3550481e-05
0.00090420263
2.1492115e-05
0.00090028757
1.9502701e-05
0.00089644451
1.9262182e-05
0.00089267594
1.9464445e-05
0.00088898705
1.9782152e-05
0.00088537465
2.000436e-05
0.00088183074
2.0120226e-05
0.00087834568
2.0143338e-05
0.00087491296
2.0085678e-05
0.00087152295
2.0010385e-05
0.00086818346
1.9833192e-05
0.00086483756
2.0005466e-05
0.00086163746
1.938675e-05
0.00085771276
2.3314767e-05
1.756372e-05
0.0010741149
5.6590768e-06
-0.0010740465
0.001074297
6.9473563e-06
0.0010745391
8.107316e-06
0.0010747843
9.0344908e-06
0.0010750183
9.7981148e-06
0.0010752468
1.0492061e-05
0.0010754697
1.1137043e-05
0.0010756848
1.1722271e-05
0.0010758933
1.22506e-05
0.0010760978
1.2730531e-05
0.0010762965
1.3154341e-05
0.0010764874
1.3510841e-05
0.0010766658
1.3788909e-05
0.0010768263
1.3983887e-05
0.0010769639
1.410367e-05
0.0010770766
1.4171378e-05
0.0010771663
1.4218674e-05
0.0010772358
1.4273759e-05
0.0010772925
1.4372584e-05
0.0010773435
1.4525131e-05
0.0010773891
1.4715351e-05
0.001077433
1.4952013e-05
0.0010774774
1.5227402e-05
0.0010775222
1.5529723e-05
0.0010775678
1.5855465e-05
0.0010776139
1.6197742e-05
0.00107766
1.6551831e-05
0.0010777055
1.6914307e-05
0.0010777499
1.7286354e-05
0.0010777933
1.7670338e-05
0.0010778357
1.8068475e-05
0.0010778777
1.8484765e-05
0.0010779198
1.8920714e-05
0.0010779625
1.937424e-05
0.0010780058
1.9842525e-05
0.0010780496
2.03202e-05
0.0010780933
2.0803263e-05
0.0010781367
2.1290907e-05
0.0010781791
2.1782369e-05
0.0010782204
2.2279929e-05
0.0010782606
2.2788479e-05
0.0010782999
2.3311773e-05
0.0010783385
2.3852726e-05
0.0010783765
2.4411659e-05
0.0010784142
2.4991024e-05
0.0010784514
2.5595174e-05
0.0010784881
2.6229812e-05
0.0010785247
2.6901067e-05
0.0010785625
2.7614112e-05
0.001078602
2.835944e-05
0.0010786401
2.9105167e-05
0.0010786686
2.9827528e-05
0.0010786721
3.0535e-05
0.0010786194
3.1251767e-05
0.0010784548
3.1993818e-05
0.001078071
3.2760197e-05
0.0010773169
3.3542938e-05
0.001076046
3.4310113e-05
0.0010741558
3.501238e-05
0.0010716335
3.5591399e-05
0.0010685487
3.6001741e-05
0.0010650068
3.624159e-05
0.0010611149
3.632461e-05
0.0010569571
3.6281745e-05
0.0010525905
3.6148781e-05
0.0010480573
3.5947195e-05
0.0010433952
3.5687326e-05
0.0010386379
3.5379166e-05
0.0010338135
3.5032863e-05
0.0010289447
3.4655993e-05
0.0010240506
3.4255982e-05
0.0010191475
3.3838163e-05
0.0010142491
3.3405946e-05
0.0010093668
3.2964391e-05
0.00100451
3.2516258e-05
0.00099968685
3.2063448e-05
0.00099490387
3.1609517e-05
0.00099016657
3.1155386e-05
0.00098547954
3.0702348e-05
0.00098084631
3.0253887e-05
0.00097627015
2.9806763e-05
0.00097175359
2.9362583e-05
0.00096729811
2.8929914e-05
0.00096290428
2.8504525e-05
0.00095857621
2.7878546e-05
0.00095429066
2.5777668e-05
0.00095005044
2.3742922e-05
0.00094588399
2.3428631e-05
0.00094178923
2.3559206e-05
0.00093776927
2.3802113e-05
0.00093382352
2.3950106e-05
0.00092994816
2.3995589e-05
0.00092613661
2.3954889e-05
0.00092238353
2.3838759e-05
0.00091867907
2.3714846e-05
0.00091503094
2.3481318e-05
0.00091137873
2.365768e-05
0.00090788873
2.2876747e-05
0.00090360566
2.7597838e-05
2.0543362e-05
0.0011101054
5.5973597e-06
-0.0011100437
0.001110268
6.7848082e-06
0.0011104909
7.8843749e-06
0.0011107255
8.7999399e-06
0.0011109539
9.5696759e-06
0.0011111789
1.0267043e-05
0.0011114007
1.0915299e-05
0.0011116165
1.150648e-05
0.0011118263
1.2040756e-05
0.0011120319
1.2524926e-05
0.0011122319
1.2954307e-05
0.001112424
1.3318823e-05
0.0011126037
1.3609121e-05
0.0011127661
1.3821516e-05
0.0011129066
1.3963236e-05
0.0011130231
1.4054872e-05
0.001113117
1.4124682e-05
0.0011131913
1.4199526e-05
0.0011132525
1.4311379e-05
0.0011133071
1.447054e-05
0.0011133561
1.4666332e-05
0.001113403
1.4905109e-05
0.0011134499
1.5180553e-05
0.0011134968
1.5482724e-05
0.0011135444
1.5807911e-05
0.0011135923
1.6149804e-05
0.0011136403
1.6503917e-05
0.0011136874
1.6867133e-05
0.0011137336
1.7240166e-05
0.0011137787
1.7625205e-05
0.0011138229
1.8024369e-05
0.0011138665
1.8441112e-05
0.0011139103
1.8876936e-05
0.0011139545
1.9330035e-05
0.0011139994
1.9797647e-05
0.0011140446
2.0274946e-05
0.0011140898
2.0758089e-05
0.0011141346
2.1246132e-05
0.0011141784
2.1738519e-05
0.0011142211
2.2237281e-05
0.0011142626
2.2746948e-05
0.0011143032
2.3271201e-05
0.001114343
2.3812852e-05
0.0011143822
2.4372498e-05
0.0011144208
2.4952467e-05
0.001114459
2.5556989e-05
0.0011144971
2.6191626e-05
0.001114536
2.6862238e-05
0.001114577
2.7573066e-05
0.0011146215
2.831494e-05
0.0011146678
2.9058839e-05
0.0011147131
2.9782266e-05
0.0011147557
3.0492379e-05
0.0011147951
3.1212401e-05
0.0011148301
3.195882e-05
0.0011148549
3.273537e-05
0.0011148531
3.3544766e-05
0.0011147867
3.4376544e-05
0.0011145806
3.5218436e-05
0.0011141035
3.6068463e-05
0.0011131926
3.6912713e-05
0.0011117065
3.7727606e-05
0.0011095817
3.8449444e-05
0.0011068517
3.9011744e-05