/*--------------------------------*- C++ -*----------------------------------*\
  =========                 |
  \\      /  F ield         | OpenFOAM: The Open Source CFD Toolbox
   \\    /   O peration     | Website:  https://openfoam.org
    \\  /    A nd           | Version:  12
     \\/     M anipulation  |
\*---------------------------------------------------------------------------*/
FoamFile
{
    format      ascii;
    class       volVectorField;
    location    "1000";
    object      U;
}
// * * * * * * * * * * * * * * * * * * * * * * * * * * * * * * * * * * * * * //

dimensions      [0 1 -1 0 0 0 0];

internalField   nonuniform List<vector> 
13056
(
(1 2.1851964e-10 8.7514133e-25)
(0.99998357 7.2253886e-10 0)
(0.99995016 1.1923439e-09 0)
(0.99990995 1.5646667e-09 0)
(0.99986482 1.9840952e-09 0)
(0.99981451 2.4961067e-09 0)
(0.99975887 3.1137649e-09 0)
(0.99969781 3.8604713e-09 0)
(0.99963105 4.7742898e-09 0)
(0.99955805 5.9036979e-09 0)
(0.99947807 7.3091132e-09 0)
(0.99939013 9.0707309e-09 0)
(0.99929295 1.1298034e-08 0)
(0.99918481 1.4152922e-08 0)
(0.99906319 1.7854808e-08 0)
(0.99892484 2.2821339e-08 0)
(0.99876379 2.944764e-08 0)
(0.99857447 3.951137e-08 0)
(0.99833483 5.2425757e-08 0)
(0.99804903 8.1202832e-08 0)
(0.99758044 1.0828181e-07 0)
(0.99709407 3.1643351e-07 0)
(0.99494669 2.4912538e-07 -2.6113266e-21)
(0.9950345 0.00011941232 2.7996288e-16)
(0.028602809 0.00012501937 0)
(0.014436804 4.6895471e-07 -9.8676922e-20)
(0.012914682 1.9024068e-07 1.6277965e-17)
(0.01241599 1.9992537e-08 2.233628e-21)
(0.012099549 1.4183672e-08 0)
(0.011834817 1.2058339e-08 0)
(0.011601864 1.0578263e-08 0)
(0.011394442 9.3686145e-09 0)
(0.011208004 8.3823422e-09 0)
(0.011038556 7.5754995e-09 0)
(0.010883142 6.8991117e-09 0)
(0.010739639 6.3192588e-09 0)
(0.01060643 5.8151166e-09 0)
(0.010482208 5.3731811e-09 0)
(0.010365887 4.9828695e-09 0)
(0.010256567 4.6356598e-09 0)
(0.010153489 4.3248788e-09 0)
(0.010056009 4.0453934e-09 0)
(0.0099635641 3.7932064e-09 0)
(0.0098756656 3.5644764e-09 0)
(0.0097918898 3.3565209e-09 0)
(0.0097118583 3.166496e-09 0)
(0.0096352532 2.9921312e-09 0)
(0.0095617829 2.8321765e-09 0)
(0.0094911811 2.6846126e-09 0)
(0.0094232282 2.5479849e-09 0)
(0.009357717 2.4216617e-09 0)
(0.0092944526 2.304399e-09 0)
(0.0092332712 2.195029e-09 0)
(0.0091740267 2.0930482e-09 0)
(0.009116574 1.997995e-09 0)
(0.0090607824 1.9088714e-09 0)
(0.0090065457 1.8250595e-09 0)
(0.0089537605 1.7464627e-09 0)
(0.0089023212 1.6726695e-09 0)
(0.0088521371 1.6029682e-09 0)
(0.0088031338 1.5369945e-09 0)
(0.0087552372 1.4747466e-09 0)
(0.0087083687 1.4159985e-09 0)
(0.0086624597 1.3601977e-09 0)
(0.0086174573 1.307064e-09 0)
(0.0085733065 1.2566558e-09 0)
(0.0085299483 1.2088237e-09 0)
(0.0084873292 1.1632582e-09 0)
(0.0084454056 1.1196864e-09 0)
(0.0084041374 1.0780611e-09 0)
(0.0083634823 1.0383683e-09 0)
(0.0083233955 1.0005019e-09 0)
(0.0082838379 9.6417155e-10 0)
(0.0082447806 9.2924866e-10 0)
(0.0082061916 8.9579788e-10 0)
(0.0081680348 8.6376163e-10 0)
(0.0081302767 8.330074e-10 0)
(0.0080928887 8.0336125e-10 0)
(0.0080558471 7.747817e-10 0)
(0.0080191254 7.4730178e-10 0)
(0.0079826932 7.208961e-10 0)
(0.007946522 6.9542083e-10 0)
(0.0079105906 6.7076564e-10 0)
(0.007874878 6.4695213e-10 0)
(0.0078393594 6.2398667e-10 0)
(0.0078040082 6.0184688e-10 0)
(0.0077687987 5.8040215e-10 0)
(0.0077337137 5.5958698e-10 0)
(0.0076987328 5.3945055e-10 0)
(0.0076638311 5.1998893e-10 0)
(0.0076289831 5.0115416e-10 0)
(0.0075941664 4.8285921e-10 0)
(0.0075593627 4.6507703e-10 0)
(0.0075245509 4.4784438e-10 0)
(0.0074897039 4.3117023e-10 0)
(0.0074547945 4.1496811e-10 0)
(0.0074198035 3.9918323e-10 0)
(0.0073847093 3.8385358e-10 0)
(0.0073494834 3.6899186e-10 0)
(0.0073140959 3.5455783e-10 0)
(0.0072785203 3.4049403e-10 0)
(0.0072427323 3.2679724e-10 0)
(0.007206702 3.1349431e-10 0)
(0.007170394 3.0056491e-10 0)
(0.0071337755 2.8795544e-10 0)
(0.0070968171 2.7566105e-10 0)
(0.0070594815 2.637108e-10 0)
(0.0070217246 2.5207922e-10 0)
(0.0069835067 2.4072426e-10 0)
(0.0069447873 2.2965425e-10 0)
(0.0069055161 2.1889152e-10 0)
(0.0068656342 2.0837501e-10 0)
(0.0068251014 1.9816939e-10 0)
(0.0067847442 1.8852695e-10 0)
(0.0067458385 1.7957077e-10 0)
(0.0067087547 1.7128893e-10 0)
(0.0066733535 1.6365154e-10 0)
(0.0066395017 1.5661508e-10 0)
(0.0066070785 1.5010568e-10 0)
(0.0065759813 1.440582e-10 0)
(0.006546117 1.38445e-10 0)
(0.0065173953 1.3324052e-10 0)
(0.0064897338 1.2839083e-10 0)
(0.0064630644 1.2385054e-10 0)
(0.0064373241 1.1960525e-10 0)
(0.0064124514 1.1564385e-10 0)
(0.0063883877 1.1195922e-10 0)
(0.0063650747 1.0851647e-10 0)
(0.0063424683 1.0534317e-10 0)
(0.0063204982 1.023583e-10 0)
(0.0062991573 9.9971683e-11 0)
(0.0062781951 9.7374537e-11 0)
(0.006257969 9.7538995e-11 0)
(0.0062368969 3.5123721e-10 0)
(0.0062186305 1.1303036e-10 1.5772327e-22)
(0.0061881621 2.7563917e-10 0)
(1 6.590207e-10 0)
(0.99998356 2.1795163e-09 0)
(0.99995012 3.5973496e-09 0)
(0.99990985 4.7211554e-09 0)
(0.99986466 5.9868968e-09 0)
(0.99981427 7.5318455e-09 0)
(0.99975855 9.3954731e-09 0)
(0.99969741 1.1648369e-08 0)
(0.99963056 1.4405326e-08 0)
(0.99955746 1.7812545e-08 0)
(0.99947738 2.2052231e-08 0)
(0.99938933 2.7366227e-08 0)
(0.99929204 3.4084684e-08 0)
(0.99918378 4.2695805e-08 0)
(0.99906204 5.3861196e-08 0)
(0.99892356 6.8840233e-08 0)
(0.99876236 8.8824208e-08 0)
(0.99857289 1.1917343e-07 0)
(0.9983331 1.5811763e-07 0)
(0.99804712 2.448922e-07 0)
(0.99757831 3.2653645e-07 0)
(0.99709175 9.5416626e-07 0)
(0.99494379 7.5120628e-07 9.5659341e-21)
(0.99503088 0.00035991161 -2.9270329e-21)
(0.083778986 0.00036792899 0)
(0.043525919 8.1952917e-06 0)
(0.038936391 1.071665e-06 2.2932911e-20)
(0.037433921 4.213115e-07 0)
(0.036478706 2.9794915e-07 -1.9536303e-21)
(0.035680263 2.5284588e-07 0)
(0.03497792 2.2163714e-07 0)
(0.034352596 1.9632328e-07 0)
(0.033790515 1.7565621e-07 0)
(0.033279659 1.5873058e-07 0)
(0.032811122 1.4454541e-07 0)
(0.032378499 1.3239062e-07 0)
(0.031976912 1.2182806e-07 0)
(0.031602417 1.1256887e-07 0)
(0.031251741 1.0439098e-07 0)
(0.03092217 9.7116047e-08 0)
(0.030611418 9.0604583e-08 0)
(0.030317543 8.4749782e-08 0)
(0.030038845 7.9465521e-08 0)
(0.029773853 7.4674575e-08 0)
(0.02952129 7.0317166e-08 0)
(0.029280015 6.6336112e-08 0)
(0.029049068 6.2684405e-08 0)
(0.028827573 5.9332108e-08 0)
(0.028614725 5.624089e-08 0)
(0.028409862 5.3379633e-08 0)
(0.02821236 5.0732367e-08 0)
(0.028021632 4.8275565e-08 0)
(0.027837183 4.598494e-08 0)
(0.027658573 4.3848666e-08 0)
(0.027485365 4.1856501e-08 0)
(0.027317165 3.9989641e-08 0)
(0.027153652 3.8234517e-08 0)
(0.026994515 3.6587623e-08 0)
(0.026839436 3.5041133e-08 0)
(0.02668814 3.3581194e-08 0)
(0.026540405 3.2199584e-08 0)
(0.026396005 3.0895304e-08 0)
(0.026254706 2.9664029e-08 0)
(0.026116299 2.8495206e-08 0)
(0.025980625 2.738259e-08 0)
(0.025847518 2.6326339e-08 0)
(0.0257168 2.5324022e-08 0)
(0.025588311 2.4369355e-08 0)
(0.025461919 2.3456859e-08 0)
(0.025337503 2.2584881e-08 0)
(0.025214934 2.1753231e-08 0)
(0.025094079 2.0959657e-08 0)
(0.02497482 2.0198685e-08 0)
(0.024857069 1.946735e-08 0)
(0.024740729 1.8766436e-08 0)
(0.024625693 1.8095185e-08 0)
(0.024511858 1.7450784e-08 0)
(0.024399139 1.6829874e-08 0)
(0.024287465 1.6231244e-08 0)
(0.024176754 1.5655494e-08 0)
(0.024066917 1.5102158e-08 0)
(0.023957867 1.4568457e-08 0)
(0.023849539 1.4052114e-08 0)
(0.023741871 1.3553211e-08 0)
(0.023634788 1.3072072e-08 0)
(0.023528209 1.260812e-08 0)
(0.023422058 1.2158915e-08 0)
(0.023316282 1.172298e-08 0)
(0.02321082 1.1301076e-08 0)
(0.023105596 1.0893327e-08 0)
(0.023000535 1.049869e-08 0)
(0.022895567 1.0115487e-08 0)
(0.022790639 9.743009e-09 0)
(0.022685687 9.3819748e-09 0)
(0.022580628 9.0325766e-09 0)
(0.022475381 8.69317e-09 0)
(0.022369888 8.3625652e-09 0)
(0.022264084 8.0413934e-09 0)
(0.022157883 7.7300149e-09 0)
(0.022051195 7.4276132e-09 0)
(0.021943939 7.1330263e-09 0)
(0.021836043 6.8461045e-09 0)
(0.021727417 6.5673867e-09 0)
(0.021617953 6.2965064e-09 0)
(0.021507553 6.0323729e-09 0)
(0.021396128 5.7748321e-09 0)
(0.021283567 5.524453e-09 0)
(0.021169735 5.2807749e-09 0)
(0.021054512 5.042921e-09 0)
(0.020937779 4.8110119e-09 0)
(0.020819381 4.5855201e-09 0)
(0.020699142 4.3652031e-09 0)
(0.020576941 4.1514514e-09 0)
(0.020455269 3.9494534e-09 0)
(0.020337973 3.7618039e-09 0)
(0.020226171 3.5883118e-09 0)
(0.02011944 3.4283138e-09 0)
(0.020017382 3.280895e-09 0)
(0.01991963 3.144532e-09 0)
(0.019825876 3.0178523e-09 0)
(0.019735839 2.9002555e-09 0)
(0.019649246 2.7912106e-09 0)
(0.019565851 2.6896123e-09 0)
(0.019485446 2.5945052e-09 0)
(0.019407842 2.5055597e-09 0)
(0.019332854 2.4225611e-09 0)
(0.019260305 2.3453499e-09 0)
(0.01919002 2.2732069e-09 0)
(0.019121865 2.2067237e-09 0)
(0.019055629 2.1440893e-09 0)
(0.01899129 2.0941351e-09 0)
(0.018928095 2.0390864e-09 0)
(0.018867117 2.0441182e-09 0)
(0.018803603 1.9774873e-09 0)
(0.018748532 2.4048838e-09 -2.4225378e-22)
(0.018656673 1.5422598e-09 3.7104226e-23)
(1 1.1095822e-09 0)
(0.99998355 3.6702911e-09 0)
(0.99995007 6.0589501e-09 0)
(0.99990975 7.9525156e-09 0)
(0.99986448 1.0084863e-08 0)
(0.99981401 1.2687291e-08 0)
(0.9997582 1.582637e-08 0)
(0.99969697 1.9620973e-08 0)
(0.99963002 2.4264371e-08 0)
(0.99955681 3.0002718e-08 0)
(0.99947661 3.7142787e-08 0)
(0.99938845 4.6091741e-08 0)
(0.99929103 5.7405402e-08 0)
(0.99918264 7.190566e-08 0)
(0.99906076 9.0706284e-08 0)
(0.99892214 1.1592739e-07 0)
(0.99876079 1.4957423e-07 0)
(0.99857115 2.006706e-07 0)
(0.99833117 2.6623505e-07 0)
(0.998045 4.1231711e-07 0)
(0.99757595 5.4975758e-07 0)
(0.99708919 1.6062707e-06 0)
(0.99494065 1.2650942e-06 -5.0045648e-21)
(0.99502698 0.00058825531 9.7436619e-55)
(0.13775504 0.00060812142 -8.2380931e-54)
(0.073264032 2.2864105e-05 0)
(0.065536922 3.0617578e-06 -1.2121861e-20)
(0.063008406 1.2237297e-06 0)
(0.061399062 8.6562924e-07 0)
(0.060054823 7.3416639e-07 0)
(0.058872732 6.4343975e-07 0)
(0.057820324 5.6995183e-07 0)
(0.056874325 5.0995832e-07 0)
(0.05601454 4.608153e-07 0)
(0.055225989 4.1962856e-07 0)
(0.054497887 3.8433959e-07 0)
(0.05382202 3.5367568e-07 0)
(0.053191746 3.26796e-07 0)
(0.052601558 3.0305525e-07 0)
(0.052046887 2.8193576e-07 0)
(0.051523888 2.6303277e-07 0)
(0.051029292 2.4603629e-07 0)
(0.050560237 2.3069578e-07 0)
(0.050114249 2.1678777e-07 0)
(0.049689178 2.0413787e-07 0)
(0.049283104 1.9258075e-07 0)
(0.048894413 1.8198002e-07 0)
(0.048521626 1.7224777e-07 0)
(0.048163394 1.6327386e-07 0)
(0.047818599 1.549678e-07 0)
(0.047486192 1.4728238e-07 0)
(0.047165186 1.4015002e-07 0)
(0.046854748 1.3350041e-07 0)
(0.046554136 1.272987e-07 0)
(0.046262616 1.21515e-07 0)
(0.045979525 1.1609543e-07 0)
(0.045704321 1.1100041e-07 0)
(0.04543648 1.0621921e-07 0)
(0.04517547 1.0172939e-07 0)
(0.044920829 9.7491147e-08 0)
(0.044672178 9.3480395e-08 0)
(0.044429141 8.9693851e-08 0)
(0.044191322 8.6119121e-08 0)
(0.043958372 8.2725969e-08 0)
(0.04373002 7.9496111e-08 0)
(0.043505989 7.6429632e-08 0)
(0.043285979 7.3519662e-08 0)
(0.043069721 7.0748121e-08 0)
(0.04285699 6.8099151e-08 0)
(0.042647585 6.556773e-08 0)
(0.04244129 6.3153283e-08 0)
(0.04223788 6.0849324e-08 0)
(0.042037154 5.8640173e-08 0)
(0.041838967 5.6517117e-08 0)
(0.041643154 5.448223e-08 0)
(0.041449536 5.2533432e-08 0)
(0.04125794 5.0662608e-08 0)
(0.041068222 4.8860078e-08 0)
(0.040880262 4.7122214e-08 0)
(0.040693924 4.5450699e-08 0)
(0.040509055 4.3844218e-08 0)
(0.040325511 4.2294807e-08 0)
(0.040143184 4.0795847e-08 0)
(0.039961965 3.9347459e-08 0)
(0.039781732 3.7950613e-08 0)
(0.039602347 3.6603641e-08 0)
(0.039423682 3.5299547e-08 0)
(0.039245648 3.4034009e-08 0)
(0.039068142 3.280914e-08 0)
(0.038891038 3.1625351e-08 0)
(0.038714207 3.0479637e-08 0)
(0.038537534 2.9367158e-08 0)
(0.038360926 2.8285817e-08 0)
(0.038184277 2.7237663e-08 0)
(0.03800745 2.6223269e-08 0)
(0.037830306 2.5237921e-08 0)
(0.037652748 2.4278148e-08 0)
(0.037474665 2.3345725e-08 0)
(0.037295915 2.2441722e-08 0)
(0.037116344 2.1563791e-08 0)
(0.036935818 2.0708569e-08 0)
(0.036754215 1.9875591e-08 0)
(0.036571382 1.9066411e-08 0)
(0.036387139 1.8279989e-08 0)
(0.036201321 1.7513172e-08 0)
(0.036013778 1.676549e-08 0)
(0.03582432 1.6038583e-08 0)
(0.035632725 1.5331138e-08 0)
(0.03543879 1.4640612e-08 0)
(0.03524231 1.3967336e-08 0)
(0.035043029 1.3312682e-08 0)
(0.03484065 1.2673061e-08 0)
(0.034634968 1.2052512e-08 0)
(0.034430176 1.1466071e-08 0)
(0.03423275 1.0921278e-08 0)
(0.034044569 1.0417598e-08 0)
(0.033864926 9.9530914e-09 0)
(0.033693146 9.5251027e-09 0)
(0.033528615 9.1292153e-09 0)
(0.033370812 8.7614429e-09 0)
(0.033219266 8.4200337e-09 0)
(0.033073518 8.1034485e-09 0)
(0.03293315 7.8084872e-09 0)
(0.032797817 7.5323745e-09 0)
(0.032667198 7.2741439e-09 0)
(0.032540982 7.0331758e-09 0)
(0.032418871 6.8090054e-09 0)
(0.032300571 6.5995503e-09 0)
(0.032185856 6.4065234e-09 0)
(0.032074371 6.2246525e-09 0)
(0.03196608 6.0795785e-09 0)
(0.031859718 5.9196233e-09 0)
(0.031757083 5.9340926e-09 0)
(0.031650201 5.6475113e-09 0)
(0.031557508 6.9892972e-09 0)
(0.031402894 4.3951792e-09 0)
(1 1.5769734e-09 1.8750518e-24)
(0.99998354 5.2174443e-09 0)
(0.99995002 8.6146533e-09 0)
(0.99990963 1.1308147e-08 0)
(0.99986428 1.4340703e-08 0)
(0.99981372 1.8041333e-08 0)
(0.99975781 2.2504826e-08 0)
(0.99969647 2.7900166e-08 0)
(0.99962941 3.4502035e-08 0)
(0.99955609 4.2660276e-08 0)
(0.99947576 5.2810878e-08 0)
(0.99938747 6.5532487e-08 0)
(0.99928991 8.1614982e-08 0)
(0.99918137 1.0222633e-07 0)
(0.99905934 1.2894922e-07 0)
(0.99892056 1.6479643e-07 0)
(0.99875904 2.1261709e-07 0)
(0.99856922 2.8523435e-07 0)
(0.99832904 3.7840924e-07 0)
(0.99804265 5.8599928e-07 0)
(0.99757332 7.8129657e-07 0)
(0.99708634 2.2825281e-06 0)
(0.99493721 1.7982489e-06 0)
(0.99502271 0.00080967577 -5.0788646e-55)
(0.19121461 0.00085080685 4.278346e-54)
(0.1040777 4.561333e-05 0)
(0.093106393 6.3123722e-06 0)
(0.089512788 2.5216287e-06 0)
(0.087224545 1.7838512e-06 0)
(0.085314724 1.5122802e-06 0)
(0.083635781 1.325216e-06 0)
(0.082141098 1.1738607e-06 0)
(0.080797489 1.0503116e-06 0)
(0.079576322 9.4909092e-07 0)
(0.078456336 8.6425639e-07 0)
(0.077422211 7.9157373e-07 0)
(0.076462267 7.2842054e-07 0)
(0.075567075 6.7306177e-07 0)
(0.074728809 6.241673e-07 0)
(0.073940984 5.8067116e-07 0)
(0.073198141 5.4174005e-07 0)
(0.072495634 5.0673564e-07 0)
(0.071829402 4.7514131e-07 0)
(0.071195928 4.4649762e-07 0)
(0.07059216 4.2044447e-07 0)
(0.070015374 3.9664216e-07 0)
(0.069463273 3.7480993e-07 0)
(0.068933761 3.5476537e-07 0)
(0.068424922 3.3628314e-07 0)
(0.067935166 3.191768e-07 0)
(0.067463004 3.0334781e-07 0)
(0.067007035 2.8865806e-07 0)
(0.066566075 2.7496305e-07 0)
(0.066139069 2.6219018e-07 0)
(0.065724978 2.5027775e-07 0)
(0.065322858 2.3911578e-07 0)
(0.06493194 2.2862251e-07 0)
(0.06455148 2.1877502e-07 0)
(0.064180722 2.0952746e-07 0)
(0.06381901 2.007985e-07 0)
(0.063465805 1.9253824e-07 0)
(0.063120573 1.8473931e-07 0)
(0.062782753 1.7737644e-07 0)
(0.062451849 1.7038796e-07 0)
(0.062127475 1.6373596e-07 0)
(0.061809237 1.574201e-07 0)
(0.061496712 1.5142645e-07 0)
(0.061189515 1.4571807e-07 0)
(0.060887329 1.4026235e-07 0)
(0.060589865 1.3504862e-07 0)
(0.060296818 1.3007564e-07 0)
(0.060007869 1.2533016e-07 0)
(0.059722734 1.2078018e-07 0)
(0.059441202 1.1640761e-07 0)
(0.059163044 1.1221641e-07 0)
(0.058888003 1.0820247e-07 0)
(0.058615834 1.0434918e-07 0)
(0.058346333 1.0063669e-07 0)
(0.058079326 9.7057361e-08 0)
(0.057814624 9.3614574e-08 0)
(0.05755201 9.0305678e-08 0)
(0.057291276 8.7114419e-08 0)
(0.05703227 8.4027161e-08 0)
(0.056774839 8.1043984e-08 0)
(0.056518806 7.8166907e-08 0)
(0.05626398 7.5392524e-08 0)
(0.056010176 7.2706551e-08 0)
(0.055757267 7.0100034e-08 0)
(0.055505107 6.757719e-08 0)
(0.055253518 6.5138928e-08 0)
(0.055002316 6.2779102e-08 0)
(0.054751339 6.0487791e-08 0)
(0.054500454 5.8260611e-08 0)
(0.05424951 5.6101731e-08 0)
(0.053998312 5.4012354e-08 0)
(0.053746665 5.198286e-08 0)
(0.053494428 5.0006075e-08 0)
(0.053241446 4.8085569e-08 0)
(0.052987514 4.6223577e-08 0)
(0.052732418 4.4415302e-08 0)
(0.052475964 4.2653831e-08 0)
(0.052217978 4.0938163e-08 0)
(0.051958245 3.9271482e-08 0)
(0.05169651 3.7651681e-08 0)
(0.051432537 3.6072284e-08 0)
(0.051166111 3.4532294e-08 0)
(0.050896966 3.3035067e-08 0)
(0.050624784 3.1577937e-08 0)
(0.050349277 3.0155671e-08 0)
(0.050070154 2.876892e-08 0)
(0.049787053 2.7420511e-08 0)
(0.04949955 2.6103079e-08 0)
(0.049207353 2.482495e-08 0)
(0.04891642 2.3617049e-08 0)
(0.048635951 2.2494919e-08 0)
(0.048368616 2.1457481e-08 0)
(0.04811341 2.0500742e-08 0)
(0.047869374 1.9619187e-08 0)
(0.047635635 1.8803772e-08 0)
(0.047411456 1.804627e-08 0)
(0.047196164 1.7343059e-08 0)
(0.046989109 1.6690971e-08 0)
(0.046789697 1.6083431e-08 0)
(0.046597437 1.5514718e-08 0)
(0.046411874 1.4982828e-08 0)
(0.046232567 1.4486489e-08 0)
(0.046059091 1.4024743e-08 0)
(0.045891029 1.3593307e-08 0)
(0.045728061 1.31957e-08 0)
(0.045569682 1.2821054e-08 0)
(0.04541584 1.2522135e-08 0)
(0.045264743 1.2192529e-08 0)
(0.045118938 1.222197e-08 0)
(0.044967127 1.164156e-08 0)
(0.044835441 1.4403835e-08 0)
(0.044615788 9.0503284e-09 0)
(1 2.0682059e-09 0)
(0.99998353 6.8442946e-09 0)
(0.99994996 1.1303156e-08 0)
(0.9999095 1.4838994e-08 0)
(0.99986406 1.8819086e-08 0)
(0.9998134 2.3675327e-08 0)
(0.99975738 2.9532293e-08 0)
(0.99969592 3.6611663e-08 0)
(0.99962873 4.527368e-08 0)
(0.99955527 5.5977168e-08 0)
(0.99947481 6.9293921e-08 0)
(0.99938637 8.5982796e-08 0)
(0.99928866 1.0707962e-07 0)
(0.99917996 1.3411602e-07 0)
(0.99905776 1.6916733e-07 0)
(0.99891879 2.1618428e-07 0)
(0.99875708 2.789024e-07 0)
(0.99856706 3.7413682e-07 0)
(0.99832665 4.9632574e-07 0)
(0.99804003 7.6854417e-07 0)
(0.9975704 1.0246175e-06 0)
(0.99708317 2.9930363e-06 0)
(0.99493342 2.3586628e-06 0)
(0.99501806 0.0010272971 0)
(0.24467799 0.0010956103 0)
(0.13639606 7.6437846e-05 0)
(0.12203717 1.0949656e-05 0)
(0.11732196 4.375211e-06 4.4255409e-21)
(0.11432099 3.094674e-06 0)
(0.11181851 2.6224388e-06 0)
(0.10961923 2.2977515e-06 0)
(0.10766138 2.0353241e-06 0)
(0.10590131 1.8211375e-06 0)
(0.10430161 1.6456307e-06 0)
(0.10283443 1.4985318e-06 0)
(0.10147972 1.3725093e-06 0)
(0.10022217 1.2630147e-06 0)
(0.099049418 1.1670349e-06 0)
(0.097951225 1.0822618e-06 0)
(0.096919097 1.0068476e-06 0)
(0.095945883 9.3934828e-07 0)
(0.095025503 8.7865706e-07 0)
(0.094152633 8.2387762e-07 0)
(0.093322672 7.7421434e-07 0)
(0.09253162 7.2904172e-07 0)
(0.091775911 6.8777194e-07 0)
(0.091052536 6.4991829e-07 0)
(0.09035875 6.1516273e-07 0)
(0.089692044 5.831167e-07 0)
(0.089050334 5.5345677e-07 0)
(0.088431671 5.2601034e-07 0)
(0.08783422 5.0053934e-07 0)
(0.087256431 4.7679385e-07 0)
(0.08669692 4.5464672e-07 0)
(0.086154328 4.3399074e-07 0)
(0.085627419 4.1463671e-07 0)
(0.085115182 3.9644253e-07 0)
(0.084616645 3.7936721e-07 0)
(0.084130819 3.6333181e-07 0)
(0.083656844 3.4819636e-07 0)
(0.083194012 3.3387378e-07 0)
(0.082741625 3.2035044e-07 0)
(0.082298948 3.075829e-07 0)
(0.081865332 2.9546513e-07 0)
(0.081440269 2.8393108e-07 0)
(0.081023244 2.7297929e-07 0)
(0.080613704 2.6258599e-07 0)
(0.080211145 2.5268759e-07 0)
(0.079815149 2.4322759e-07 0)
(0.079425339 2.3418704e-07 0)
(0.079041315 2.2556364e-07 0)
(0.07866266 2.1733464e-07 0)
(0.078289002 2.0944498e-07 0)
(0.077920063 2.0186306e-07 0)
(0.077555543 1.9459534e-07 0)
(0.077195106 1.8763485e-07 0)
(0.076838433 1.8095301e-07 0)
(0.076485254 1.7451552e-07 0)
(0.076135342 1.6830893e-07 0)
(0.075788448 1.6233889e-07 0)
(0.07544429 1.5660093e-07 0)
(0.075102595 1.5106712e-07 0)
(0.074763162 1.4571377e-07 0)
(0.074425792 1.4054078e-07 0)
(0.074090253 1.3555166e-07 0)
(0.073756294 1.3074058e-07 0)
(0.073423674 1.2608295e-07 0)
(0.073092225 1.2156317e-07 0)
(0.072761756 1.1718834e-07 0)
(0.072432034 1.1296012e-07 0)
(0.072102819 1.0886794e-07 0)
(0.071773898 1.0489466e-07 0)
(0.071445096 1.0103259e-07 0)
(0.071116214 9.7288861e-08 0)
(0.070786999 9.3665606e-08 0)
(0.070457195 9.0146279e-08 0)
(0.070126616 8.6718401e-08 0)
(0.069795058 8.3388034e-08 0)
(0.069462255 8.0159094e-08 0)
(0.069127925 7.7023334e-08 0)
(0.068791814 7.396878e-08 0)
(0.068453694 7.0993629e-08 0)
(0.068113284 6.8103379e-08 0)
(0.067770248 6.5294428e-08 0)
(0.067424277 6.2555581e-08 0)
(0.067075091 5.9885057e-08 0)
(0.066722339 5.7288648e-08 0)
(0.066365605 5.4761784e-08 0)
(0.066004513 5.22954e-08 0)
(0.065638681 4.9890581e-08 0)
(0.065267632 4.755223e-08 0)
(0.064890813 4.5267617e-08 0)
(0.06450784 4.3051185e-08 0)
(0.064126523 4.0956503e-08 0)
(0.063758918 3.9010536e-08 0)
(0.063408527 3.7211456e-08 0)
(0.063074033 3.5552316e-08 0)
(0.062754177 3.4023552e-08 0)
(0.062447818 3.2609493e-08 0)
(0.062153987 3.1295868e-08 0)
(0.061871804 3.0076377e-08 0)
(0.061600416 2.8945533e-08 0)
(0.061339046 2.7891951e-08 0)
(0.061087049 2.6905709e-08 0)
(0.06084383 2.598331e-08 0)
(0.06060881 2.5122553e-08 0)
(0.060381433 2.4321775e-08 0)
(0.060161152 2.3573565e-08 0)
(0.059947547 2.2883999e-08 0)
(0.059739959 2.2234236e-08 0)
(0.059538315 2.1715647e-08 0)
(0.059340278 2.1143907e-08 0)
(0.059149168 2.1194101e-08 0)
(0.058950226 2.0196121e-08 0)
(0.058777621 2.4987075e-08 -3.1185525e-22)
(0.058489712 1.5691606e-08 4.7765735e-23)
(1 2.5906727e-09 0)
(0.99998351 8.5755034e-09 0)
(0.99994989 1.4165489e-08 0)
(0.99990935 1.8599153e-08 0)
(0.99986381 2.3588706e-08 0)
(0.99981304 2.9675695e-08 0)
(0.9997569 3.7016525e-08 0)
(0.9996953 4.5888952e-08 0)
(0.99962797 5.6744224e-08 0)
(0.99955436 7.0157072e-08 0)
(0.99947374 8.684373e-08 0)
(0.99938513 1.077547e-07 0)
(0.99928725 1.3418735e-07 0)
(0.99917837 1.6805997e-07 0)
(0.99905598 2.1197169e-07 0)
(0.99891681 2.7087048e-07 0)
(0.99875489 3.4943406e-07 0)
(0.99856464 4.6872193e-07 0)
(0.99832398 6.21764e-07 0)
(0.99803709 9.6269963e-07 0)
(0.99756712 1.283374e-06 0)
(0.99707961 3.7484158e-06 0)
(0.99492924 2.9547895e-06 0)
(0.99501299 0.0012427519 0)
(0.29849256 0.001346108 0)
(0.17063504 0.00011614894 0)
(0.15271672 1.7228201e-05 0)
(0.14680579 6.8920545e-06 0)
(0.14305024 4.8726478e-06 0)
(0.13992168 4.1272181e-06 0)
(0.13717306 3.6157542e-06 0)
(0.13472618 3.2028273e-06 0)
(0.13252629 2.8658591e-06 0)
(0.13052673 2.5896949e-06 0)
(0.12869276 2.3582208e-06 0)
(0.12699932 2.1599195e-06 0)
(0.12542727 1.9876319e-06 0)
(0.12396117 1.8366096e-06 0)
(0.12258823 1.7032183e-06 0)
(0.12129784 1.5845514e-06 0)
(0.12008107 1.4783378e-06 0)
(0.11893032 1.3828363e-06 0)
(0.11783893 1.296636e-06 0)
(0.11680117 1.2184861e-06 -6.2132291e-33)
(0.11581204 1.1474009e-06 0)
(0.11486708 1.0824573e-06 0)
(0.11396252 1.0228895e-06 0)
(0.11309495 9.6819459e-07 0)
(0.11226122 9.1776424e-07 0)
(0.11145874 8.7108937e-07 0)
(0.11068506 8.2789578e-07 0)
(0.1099379 7.8781088e-07 0)
(0.10921531 7.5044245e-07 0)
(0.10851557 7.155884e-07 0)
(0.10783697 6.8307978e-07 0)
(0.10717798 6.5262107e-07 0)
(0.10653733 6.2398816e-07 0)
(0.10591381 5.9711466e-07 0)
(0.10530617 5.718772e-07 0)
(0.10471335 5.4805708e-07 0)
(0.10413446 5.2551652e-07 0)
(0.10356863 5.0423266e-07 0)
(0.10301493 4.8413776e-07 0)
(0.10247256 4.6506636e-07 0)
(0.10194088 4.4691401e-07 0)
(0.10141925 4.2967713e-07 0)
(0.10090698 4.1331879e-07 0)
(0.10040343 3.9773972e-07 0)
(0.099908092 3.8285107e-07 0)
(0.099420481 3.686223e-07 0)
(0.098940104 3.5504957e-07 0)
(0.09846644 3.4209742e-07 0)
(0.097999021 3.2967987e-07 0)
(0.0975375 3.1774683e-07 0)
(0.097081503 3.0630779e-07 0)
(0.096630609 2.9535207e-07 0)
(0.096184421 2.8483505e-07 0)
(0.095742599 2.7470293e-07 0)
(0.09530486 2.6493415e-07 0)
(0.094870892 2.5553738e-07 0)
(0.094440344 2.4650573e-07 0)
(0.094012874 2.377956e-07 0)
(0.09358823 2.2936971e-07 0)
(0.093166162 2.212275e-07 0)
(0.092746383 2.1337451e-07 0)
(0.092328576 2.0580167e-07 0)
(0.091912441 1.9847059e-07 0)
(0.091497768 1.9135654e-07 0)
(0.091084318 1.8447043e-07 0)
(0.090671799 1.7781498e-07 0)
(0.090259912 1.7137369e-07 0)
(0.089848389 1.6511968e-07 0)
(0.08943701 1.590407e-07 0)
(0.08902553 1.5314783e-07 0)
(0.08861363 1.4744452e-07 0)
(0.088200989 1.4190491e-07 0)
(0.087787375 1.3650931e-07 0)
(0.087372534 1.3126707e-07 0)
(0.086956131 1.261844e-07 0)
(0.086537815 1.2124845e-07 0)
(0.086117267 1.1644037e-07 0)
(0.085694203 1.1175724e-07 0)
(0.085268269 1.0720767e-07 0)
(0.084839047 1.0278607e-07 0)
(0.084406149 9.8474868e-08 0)
(0.083969225 9.4271186e-08 0)
(0.083527835 9.0184101e-08 0)
(0.083081461 8.62065e-08 0)
(0.082629629 8.2324128e-08 0)
(0.082171861 7.8538624e-08 0)
(0.081707564 7.4857707e-08 0)
(0.081236042 7.1261407e-08 0)
(0.080756815 6.7772465e-08 0)
(0.080279656 6.4475114e-08 0)
(0.079819653 6.1411823e-08 0)
(0.079381188 5.8579773e-08 0)
(0.078962611 5.5967993e-08 0)
(0.078562351 5.3561456e-08 0)
(0.078178978 5.1335482e-08 0)
(0.077811279 4.9267612e-08 0)
(0.077458155 4.7347898e-08 0)
(0.077118538 4.5567713e-08 0)
(0.076791457 4.3909169e-08 0)
(0.076476103 4.2356637e-08 0)
(0.076171732 4.0904585e-08 0)
(0.075877621 3.9549549e-08 0)
(0.075593074 3.8288917e-08 0)
(0.075317406 3.7111043e-08 0)
(0.075050093 3.602545e-08 0)
(0.074790308 3.50025e-08 0)
(0.074537964 3.4185768e-08 0)
(0.074290139 3.3285581e-08 0)
(0.074050975 3.3362979e-08 0)
(0.07380206 3.179163e-08 0)
(0.073586049 3.9344375e-08 0)
(0.073225733 2.4692744e-08 -2.7235244e-23)
(1 3.152257e-09 0)
(0.9999835 1.043744e-08 0)
(0.99994982 1.7245624e-08 0)
(0.99990918 2.2646676e-08 0)
(0.99986353 2.8723314e-08 0)
(0.99981263 3.6135218e-08 0)
(0.99975635 4.5073187e-08 0)
(0.99969461 5.5875294e-08 0)
(0.99962711 6.9090603e-08 0)
(0.99955333 8.5418437e-08 0)
(0.99947253 1.0573028e-07 0)
(0.99938374 1.311826e-07 0)
(0.99928566 1.6335381e-07 0)
(0.99917658 2.045777e-07 0)
(0.99905397 2.5801619e-07 0)
(0.99891458 3.2968879e-07 0)
(0.99875242 4.2528516e-07 0)
(0.99856191 5.704253e-07 0)
(0.99832097 7.5662379e-07 0)
(0.99803378 1.1713969e-06 0)
(0.99756343 1.5614697e-06 0)
(0.99707562 4.5599594e-06 0)
(0.9949246 3.5956292e-06 0)
(0.99500744 0.0014568869 0)
(0.35280957 0.0016041691 0)
(0.2071769 0.00016613176 0)
(0.18550703 2.5508046e-05 0)
(0.17831272 1.0222687e-05 -1.1620876e-20)
(0.17375492 7.2210662e-06 6.5820166e-21)
(0.16996261 6.113302e-06 0)
(0.1666319 5.3550394e-06 0)
(0.16366671 4.7436022e-06 0)
(0.16100045 4.2447247e-06 0)
(0.15857674 3.8357844e-06 0)
(0.1563536 3.4929982e-06 0)
(0.15430064 3.1993428e-06 0)
(0.1523947 2.9442157e-06 0)
(0.15061709 2.7205758e-06 0)
(0.14895231 2.5230381e-06 0)
(0.14738753 2.3472999e-06 0)
(0.14591194 2.1900012e-06 0)
(0.14451633 2.0485638e-06 0)
(0.14319265 1.9208978e-06 0)
(0.14193394 1.8051531e-06 6.6698646e-33)
(0.14073415 1.6998681e-06 0)
(0.13958789 1.6036785e-06 0)
(0.1384906 1.5154502e-06 0)
(0.13743813 1.4344354e-06 0)
(0.13642667 1.3597374e-06 0)
(0.13545308 1.2906023e-06 0)
(0.13451441 1.2266202e-06 0)
(0.13360787 1.1672424e-06 0)
(0.13273113 1.1118894e-06 0)
(0.13188207 1.0602592e-06 0)
(0.13105865 1.0121012e-06 0)
(0.130259 9.6698093e-07 0)
(0.12948157 9.245658e-07 0)
(0.12872491 8.8475463e-07 0)
(0.12798751 8.4736604e-07 0)
(0.12726808 8.1207842e-07 0)
(0.12656552 7.786866e-07 0)
(0.12587879 7.4715463e-07 0)
(0.12520679 7.1738311e-07 0)
(0.12454851 6.8912909e-07 0)
(0.1239032 6.6223701e-07 0)
(0.12327006 6.3669974e-07 0)
(0.12264827 6.1246325e-07 0)
(0.12203707 5.8938178e-07 0)
(0.1214358 5.6732372e-07 0)
(0.12084391 5.4624284e-07 0)
(0.12026079 5.2613302e-07 0)
(0.11968581 5.0694237e-07 0)
(0.11911839 4.8854447e-07 0)
(0.11855813 4.7086458e-07 0)
(0.11800456 4.5391581e-07 0)
(0.11745718 4.3768268e-07 0)
(0.1169155 4.2209972e-07 0)
(0.11637911 4.0708741e-07 0)
(0.11584767 3.9261335e-07 0)
(0.1153208 3.786899e-07 0)
(0.11479807 3.6530718e-07 0)
(0.11427907 3.5240116e-07 0)
(0.11376349 3.3991651e-07 0)
(0.11325103 3.2785189e-07 0)
(0.11274135 3.1621544e-07 0)
(0.11223405 3.04994e-07 0)
(0.11172877 2.9413105e-07 0)
(0.11122526 2.835898e-07 0)
(0.11072323 2.7338593e-07 0)
(0.11022231 2.6352364e-07 0)
(0.10972216 2.5397873e-07 0)
(0.10922245 2.4471148e-07 0)
(0.1087229 2.3570356e-07 0)
(0.10822322 2.2697116e-07 0)
(0.10772302 2.1851949e-07 0)
(0.10722192 2.1031058e-07 0)
(0.10671963 2.0231513e-07 0)
(0.10621584 1.9454672e-07 0)
(0.10571014 1.8701463e-07 0)
(0.10520212 1.7969999e-07 0)
(0.10469138 1.7257493e-07 0)
(0.10417757 1.6563494e-07 0)
(0.10366027 1.5889272e-07 0)
(0.10313897 1.5234014e-07 0)
(0.1026132 1.4595122e-07 0)
(0.10208253 1.3972157e-07 0)
(0.10154642 1.3366459e-07 0)
(0.10100426 1.2776986e-07 0)
(0.10045546 1.2201628e-07 0)
(0.099899438 1.1640618e-07 0)
(0.099335479 1.10951e-07 0)
(0.098762736 1.0562124e-07 0)
(0.098180624 1.0045062e-07 0)
(0.097601014 9.5563838e-08 0)
(0.097042237 9.1023861e-08 0)
(0.096509614 8.6826613e-08 0)
(0.096001144 8.29558e-08 0)
(0.095514917 7.9389121e-08 0)
(0.0950492 7.6090065e-08 0)
(0.094602517 7.3025329e-08 0)
(0.094173536 7.0180125e-08 0)
(0.093760959 6.7541681e-08 0)
(0.093363607 6.5083541e-08 0)
(0.092980497 6.2782526e-08 0)
(0.092610728 6.0630397e-08 0)
(0.092253419 5.8622024e-08 0)
(0.091907728 5.6753543e-08 0)
(0.091572821 5.5007723e-08 0)
(0.091248062 5.3398614e-08 0)
(0.090932449 5.1882336e-08 0)
(0.090625873 5.0671243e-08 0)
(0.090324797 4.9336889e-08 0)
(0.090034231 4.944892e-08 0)
(0.089731881 4.711765e-08 -4.2053194e-23)
(0.089469437 5.8326723e-08 0)
(0.089031658 3.6590087e-08 0)
(1 3.7614546e-09 0)
(0.99998348 1.2458598e-08 0)
(0.99994974 2.0591192e-08 0)
(0.99990899 2.704453e-08 0)
(0.99986321 3.4302942e-08 0)
(0.99981217 4.3154583e-08 0)
(0.99975573 5.3827783e-08 0)
(0.99969382 6.6726098e-08 0)
(0.99962614 8.2504703e-08 0)
(0.99955218 1.0199808e-07 0)
(0.99947118 1.2624611e-07 0)
(0.99938217 1.5662868e-07 0)
(0.99928388 1.9502898e-07 0)
(0.99917456 2.4423141e-07 0)
(0.99905171 3.0800806e-07 0)
(0.99891207 3.9354041e-07 0)
(0.99874963 5.0761495e-07 0)
(0.99855884 6.8079676e-07 0)
(0.99831758 9.0295482e-07 0)
(0.99803006 1.3977957e-06 0)
(0.99755928 1.8631019e-06 0)
(0.99707112 5.4398154e-06 0)
(0.99491945 4.2908736e-06 0)
(0.99500135 0.0016700393 -1.3400781e-54)
(0.40755811 0.0018712654 1.0646628e-53)
(0.24632958 0.00022746324 -5.9516213e-19)
(0.22070849 3.6248374e-05 0)
(0.21213705 1.4561024e-05 -1.3568763e-20)
(0.20672784 1.0272069e-05 0)
(0.20223365 8.6913191e-06 0)