/*--------------------------------*- C++ -*----------------------------------*\
  =========                 |
  \\      /  F ield         | OpenFOAM: The Open Source CFD Toolbox
   \\    /   O peration     | Website:  https://openfoam.org
    \\  /    A nd           | Version:  12
     \\/     M anipulation  |
\*---------------------------------------------------------------------------*/
FoamFile
{
    format      ascii;
    class       volScalarField;
    location    "2000";
    object      k;
}
// * * * * * * * * * * * * * * * * * * * * * * * * * * * * * * * * * * * * * //

dimensions      [0 2 -2 0 0 0 0];

internalField   nonuniform List<scalar> 
66675
(
0.048317028
0.055494458
0.065336819
0.071507035
0.075302801
0.077771281
0.079477422
0.080718152
0.081657156
0.082391347
0.082981598
0.083471155
0.083882709
0.084261975
0.084435523
0.084525518
0.084589177
0.084649512
0.084715403
0.084792669
0.084879631
0.084989088
0.085098364
0.085197766
0.085288733
0.085370808
0.085448226
0.085515164
0.085584328
0.08563648
0.085703262
0.085741611
0.085874649
0.08671066
0.074798659
0.048316468
0.055489631
0.065330112
0.071500525
0.075296768
0.07776568
0.079472167
0.080713167
0.081652382
0.082386741
0.082977128
0.083466794
0.083878439
0.084257711
0.084431197
0.084521171
0.084584828
0.084645161
0.084711046
0.084788297
0.084875241
0.084984652
0.085093917
0.085193306
0.085284249
0.085366329
0.08544368
0.085510736
0.085579606
0.085632325
0.085698346
0.085736909
0.085855673
0.087247662
0.080095933
0.048314367
0.055472481
0.065307645
0.071479184
0.075277225
0.077747668
0.079455338
0.080697247
0.081637167
0.082372083
0.082962918
0.08345294
0.083864877
0.084244056
0.084417482
0.08450749
0.084571203
0.084631578
0.084697478
0.084774714
0.084861631
0.084970948
0.085080193
0.085179558
0.08527045
0.085352538
0.085429752
0.085497047
0.085565334
0.085619186
0.085683584
0.085723319
0.085816336
0.086924287
0.084373369
0.048310688
0.055442579
0.065268676
0.071442246
0.075243442
0.077716552
0.079426283
0.080669768
0.081610912
0.082346792
0.082938401
0.083429041
0.083841482
0.084220457
0.084393814
0.08448391
0.084547738
0.084608195
0.084674131
0.084751349
0.084838227
0.084947393
0.085056605
0.085155928
0.085246738
0.085328836
0.085405839
0.085473477
0.085540944
0.085596379
0.085658158
0.085701958
0.085769745
0.086358753
0.086345952
0.048305403
0.055399519
0.065212443
0.071388915
0.075194651
0.077671607
0.079384308
0.080630069
0.081572979
0.082310253
0.082902978
0.08339451
0.08380768
0.084186273
0.084359563
0.084449813
0.084513823
0.084574407
0.084640399
0.084717594
0.084804416
0.084913364
0.085022529
0.085121792
0.085212485
0.085294591
0.085371318
0.085439365
0.0855059
0.085563074
0.085621713
0.085672961
0.085720951
0.085932576
0.087019596
0.048298488
0.055342922
0.065138166
0.071318359
0.075130047
0.077612066
0.079328686
0.080577452
0.081522698
0.082261812
0.082856016
0.083348727
0.083762865
0.084140829
0.084314062
0.084404546
0.084468814
0.084529575
0.084595644
0.084672808
0.084759554
0.084868208
0.084977306
0.085076488
0.085167028
0.085249133
0.085325533
0.085393996
0.085459663
0.085518262
0.085574789
0.085630309
0.085672217
0.085767469
0.086298076
0.048289933
0.055272442
0.06504505
0.071229716
0.075048786
0.077537124
0.079258649
0.080511182
0.081459356
0.082200782
0.082796842
0.083291036
0.083706393
0.084083423
0.084256617
0.084347427
0.084412037
0.084473027
0.084539192
0.084616313
0.084702958
0.08481123
0.084920238
0.085019313
0.085109663
0.085191749
0.085267795
0.085336612
0.085401628
0.085461032
0.08551716
0.085572195
0.085620517
0.085674334
0.085846544
0.048279733
0.055187774
0.064932284
0.071122092
0.074949986
0.077445933
0.079173385
0.080430479
0.081382203
0.082126435
0.082724748
0.083220742
0.083637585
0.084013317
0.084186499
0.084277738
0.084342779
0.084404052
0.084470333
0.084547392
0.084633907
0.084741697
0.084850589
0.084949525
0.085039649
0.085121683
0.085197375
0.085266424
0.085331065
0.085390732
0.085447399
0.085500809
0.085554635
0.085599034
0.085667346
0.048267896
0.055088662
0.064799048
0.070994559
0.074832723
0.077337605
0.079072042
0.080334523
0.081290447
0.082037999
0.082638982
0.083137109
0.083555722
0.083929737
0.084102941
0.084194727
0.084260294
0.084321904
0.084388316
0.084465292
0.084551641
0.084658835
0.084767581
0.084866343
0.084956202
0.08503814
0.085113499
0.085182631
0.085247125
0.085306803
0.085363957
0.085417178
0.085470526
0.08552134
0.085564326
0.048254442
0.054974908
0.064644517
0.070846161
0.074696034
0.077211204
0.078953722
0.080222449
0.08118325
0.081934661
0.082538749
0.08303936
0.083460041
0.083831879
0.084005148
0.084097605
0.084163798
0.084225799
0.084292355
0.084369217
0.084455357
0.084561829
0.084670394
0.08476894
0.0848585
0.084940282
0.085015345
0.085084416
0.085148886
0.085208547
0.085265885
0.085319558
0.085372156
0.085423741
0.085471062
0.0482394
0.054846379
0.064467863
0.070675915
0.074538917
0.077065754
0.07881748
0.080093345
0.081059729
0.081815563
0.082423212
0.082926672
0.08334974
0.083718903
0.083892288
0.083985551
0.08405247
0.084114914
0.08418162
0.084258332
0.084344212
0.084449824
0.084558166
0.084656448
0.084745674
0.08482723
0.084902034
0.084970935
0.085035399
0.085095092
0.085152425
0.08520647
0.085258893
0.085309737
0.085358531
0.048222815
0.054703021
0.064268263
0.070482811
0.074360327
0.076900229
0.078662324
0.079946251
0.080918951
0.081679796
0.082291484
0.082798178
0.083223966
0.08358994
0.083763498
0.083857706
0.083925453
0.083988386
0.084055243
0.084131759
0.084217321
0.084321918
0.084429992
0.084527956
0.084616815
0.084698069
0.084772632
0.0848413
0.084905706
0.084965458
0.085022703
0.085076916
0.085129204
0.085179482
0.085227745
0.048204742
0.054544872
0.064044906
0.070265817
0.074159183
0.076713559
0.078487214
0.079780158
0.080759937
0.081526405
0.08214263
0.082652958
0.083081822
0.083444089
0.083617882
0.083713179
0.083781851
0.083845313
0.083912313
0.083988578
0.084073752
0.084177168
0.084284924
0.084382506
0.084470964
0.08455184
0.084626157
0.084694565
0.084758829
0.084818618
0.084875719
0.084929926
0.084981932
0.085031697
0.085079066
0.048185253
0.054372069
0.063796998
0.070023884
0.073934364
0.076504629
0.078291058
0.079594004
0.080581654
0.081354382
0.081975663
0.082490044
0.082922357
0.083280415
0.083454512
0.083551039
0.083620727
0.08368475
0.083751876
0.083827825
0.083912531
0.084014588
0.084121967
0.084219098
0.084307118
0.084387547
0.084461578
0.084529718
0.084593755
0.084653515
0.084710406
0.084764448
0.084816028
0.084865164
0.084911596
0.048164431
0.054184867
0.063523778
0.069755954
0.073684717
0.076272277
0.078072715
0.079386676
0.080383014
0.081162665
0.081789543
0.082308415
0.082744572
0.083097948
0.083272422
0.08337032
0.083441107
0.083505712
0.083572936
0.083648493
0.083732639
0.083833148
0.083940085
0.084036688
0.084124223
0.084204147
0.084277827
0.084345687
0.08440942
0.084469054
0.084525651
0.084579374
0.0846304
0.084678769
0.08472421
0.048142374
0.053983654
0.063224521
0.069460963
0.073409056
0.076015295
0.077830995
0.079157007
0.080162878
0.080950137
0.081583174
0.082106992
0.082547408
0.082895687
0.083070615
0.083170016
0.083241975
0.083307172
0.083374452
0.083449529
0.083533011
0.083631779
0.083738196
0.083834185
0.08392118
0.084000549
0.084073799
0.084141344
0.084204706
0.084264098
0.084320304
0.084373554
0.0844239
0.084471389
0.084515762
0.048119195
0.053768963
0.062898558
0.069137852
0.073106168
0.075732435
0.077564654
0.078903777
0.079920049
0.080715625
0.081355406
0.081884644
0.082329752
0.082672589
0.082848054
0.082949084
0.083022274
0.083088058
0.083155342
0.083229841
0.08331254
0.083409369
0.08351517
0.083610454
0.08369684
0.083775609
0.083848345
0.083915516
0.083978439
0.084037466
0.08409317
0.084145802
0.084195344
0.084241857
0.084285089
0.048095018
0.053541488
0.062545283
0.068785579
0.07277482
0.075422408
0.077272403
0.078625711
0.079653274
0.080457899
0.081105026
0.081640175
0.082090433
0.082427577
0.082603664
0.082706439
0.082780906
0.082847257
0.082914478
0.082988291
0.083070074
0.083164769
0.083269834
0.083364312
0.083450008
0.083528131
0.083600274
0.083666989
0.083729396
0.08378793
0.083843016
0.083894894
0.083943517
0.083988966
0.084030994
0.048069981
0.053302106
0.062164176
0.068403133
0.072413763
0.075083891
0.076952903
0.078321482
0.079361244
0.080175668
0.080830766
0.081372335
0.081828217
0.082159531
0.082336333
0.082440954
0.08251673
0.082583615
0.082650694
0.0827237
0.082804419
0.082896797
0.083000961
0.083094528
0.083179443
0.083256868
0.083328343
0.083394506
0.08345631
0.083514223
0.083568569
0.083619568
0.083667166
0.083711469
0.083752235
0.048044234
0.053051888
0.061754817
0.067989548
0.072021749
0.074715529
0.076604774
0.077989711
0.079042595
0.079867587
0.080531296
0.081079808
0.08154181
0.081867287
0.082044904
0.082151463
0.082228562
0.082295934
0.082362777
0.08243485
0.082514341
0.082604237
0.082707266
0.082799815
0.08288386
0.082960526
0.083031258
0.08309677
0.083157874
0.083215037
0.083268524
0.083318527
0.083365003
0.083408085
0.083447532
0.048017938
0.052792115
0.061316906
0.067543924
0.071597535
0.074315947
0.076226594
0.07762897
0.078695907
0.079532248
0.080205225
0.080761221
0.081229854
0.081549638
0.081728179
0.081836751
0.081915177
0.081982973
0.082049479
0.082120484
0.082198567
0.082285847
0.082387394
0.082478832
0.082561927
0.082637765
0.082707684
0.082772439
0.08283274
0.082889032
0.082941541
0.082990441
0.083035709
0.083077499
0.083115572
0.047991261
0.052524077
0.060850504
0.067065452
0.071139904
0.073883755
0.075816909
0.077237787
0.078319708
0.07916819
0.079851104
0.080415135
0.080890929
0.081205325
0.081384915
0.081495564
0.081575305
0.081643455
0.08170951
0.081779308
0.081855792
0.081940361
0.082039896
0.082130184
0.082212272
0.082287212
0.082356243
0.082420138
0.082479529
0.082534831
0.082586252
0.082633952
0.082677931
0.082718362
0.082755004
0.047964378
0.05224914
0.060355997
0.06655344
0.070647679
0.073417564
0.075374242
0.076814649
0.077912478
0.078773898
0.079467428
0.080040056
0.080523551
0.080833041
0.081013821
0.081126601
0.081207635
0.081276059
0.081341545
0.081409997
0.081484679
0.081566481
0.081663183
0.081752438
0.08183349
0.081907462
0.081975526
0.082038456
0.082096831
0.082151032
0.082201261
0.082247671
0.08229029
0.082329294
0.08236445
0.047937471
0.051968805
0.059834087
0.066007345
0.070119751
0.072916001
0.074897098
0.076358014
0.077472657
0.078347806
0.079052633
0.079634428
0.080126175
0.080431427
0.08061356
0.080728514
0.080810814
0.08087943
0.080944227
0.081011194
0.081083868
0.081162873
0.081255799
0.081344174
0.081424159
0.081497088
0.081564098
0.081625961
0.081683211
0.081736208
0.081785149
0.081830188
0.081871378
0.08190889
0.081942499
0.047910722
0.051684693
0.059285832
0.065426814
0.0695551
0.072377725
0.074383987
0.075866315
0.076998646
0.077888304
0.07860511
0.079196642
0.079697198
0.079999069
0.080182749
0.080299916
0.080383451
0.080452175
0.080516166
0.080581515
0.08065198
0.080728151
0.080816631
0.080904019
0.08098285
0.08105464
0.081120504
0.081181194
0.081237217
0.08128891
0.081336476
0.081380069
0.081419764
0.081455716
0.081487718
0.04788431
0.051398535
0.058712697
0.064811723
0.068952833
0.071801456
0.073833431
0.075337982
0.076488824
0.077393748
0.078123203
0.078725041
0.079234962
0.079534496
0.079719953
0.079839372
0.079924115
0.079992872
0.080055948
0.080119557
0.080187624
0.080260896
0.080344534
0.080430587
0.080508107
0.080578646
0.080643262
0.080702677
0.080757373
0.080807672
0.080853782
0.080895859
0.080933992
0.080968315
0.080998648
0.047858413
0.051112148
0.058116596
0.064162227
0.068312218
0.071185997
0.073243995
0.074771448
0.075941559
0.076862468
0.077605224
0.078217926
0.078737762
0.079036184
0.079223694
0.079345411
0.079431341
0.079500069
0.079562135
0.079623897
0.079689404
0.079759671
0.079838334
0.079922377
0.079998414
0.080067593
0.080130864
0.080188908
0.080242185
0.080291007
0.080335587
0.08037608
0.080412586
0.080445207
0.080473811
0.0478332
0.050827419
0.057499943
0.063478816
0.067632731
0.070530278
0.07261431
0.074165181
0.075355224
0.076292784
0.077049462
0.077673567
0.078203853
0.078502553
0.078692448
0.078816522
0.078903636
0.078972291
0.079033276
0.079093104
0.079155919
0.079223046
0.07929683
0.079377617
0.079452178
0.079519935
0.079581779
0.079638366
0.079690141
0.079737413
0.079780394
0.079819238
0.079854048
0.079884888
0.079911747
0.047808827
0.050546272
0.056865685
0.062762377
0.066914112
0.06983339
0.071943104
0.073517703
0.074728219
0.075683023
0.076454198
0.077090216
0.077631465
0.077931975
0.07812465
0.078251167
0.078339482
0.078408049
0.078467907
0.078525744
0.078585773
0.078649614
0.078718757
0.07879452
0.078867826
0.078934119
0.078994464
0.079049516
0.079099715
0.079145366
0.079186684
0.079223815
0.079256854
0.079285849
0.079311255
0.047785436
0.050270634
0.056217335
0.062014256
0.066156422
0.069094641
0.071229249
0.072827627
0.074059002
0.075031545
0.075817728
0.076466127
0.077018816
0.077322774
0.077518702
0.077647781
0.077737347
0.077805843
0.077864567
0.077920386
0.077977581
0.078038011
0.078102717
0.078172773
0.078243948
0.078308608
0.078367365
0.078420808
0.078469362
0.078513328
0.078552917
0.078588266
0.078619461
0.078646718
0.078671768
0.04776315
0.050002406
0.055558989
0.061236326
0.065360115
0.068313611
0.070471805
0.072093698
0.073346119
0.074336767
0.075138388
0.075799576
0.076364133
0.076673243
0.076872974
0.077004786
0.077095692
0.07716418
0.077221803
0.07727562
0.077329979
0.077386923
0.077447315
0.077511728
0.077578585
0.077641764
0.0776989
0.07775067
0.077797512
0.077839729
0.077877522
0.077911015
0.077940379
0.077966894
0.077991664
0.047742069
0.049743417
0.054895327
0.060431062
0.064526117
0.067490229
0.06967008
0.071314838
0.072588249
0.073597208
0.074414583
0.075088891
0.075665681
0.075981651
0.076185826
0.076320606
0.076412991
0.076481581
0.076538186
0.076590065
0.076641638
0.076695087
0.076751243
0.076810338
0.076871533
0.076932126
0.076987496
0.0770375
0.077082555
0.077122953
0.077158878
0.077190462
0.077218557
0.077244774
0.077269335
0.047722264
0.049495388
0.054231587
0.059601602
0.063655916
0.066624846
0.068823701
0.070490214
0.071784254
0.072811525
0.073644832
0.074332489
0.074921794
0.075246271
0.075455615
0.075593677
0.075687745
0.075756605
0.075812333
0.075862389
0.07591128
0.075961299
0.076013312
0.076067395
0.076122904
0.07617834
0.076231429
0.076279595
0.076322794
0.076361307
0.076395295
0.076425131
0.076452815
0.076478768
0.076503152
0.047703779
0.04925989
0.053573517
0.058751812
0.06275165
0.065718332
0.067932697
0.069619301
0.070933243
0.071978576
0.072827816
0.073528921
0.074130919
0.074465412
0.074680725
0.074822474
0.074918501
0.074987867
0.075042921
0.075091331
0.075137703
0.075184432
0.075232447
0.075281797
0.075331923
0.075381788
0.075430037
0.075475146
0.075516429
0.075553009
0.075585052
0.07561417
0.075641367
0.075667023
0.075691209
0.047686617
0.049038312
0.052927292
0.057886325
0.061816215
0.064772181
0.066997592
0.068701973
0.070034648
0.071097485
0.071962436
0.072676927
0.073291666
0.073637459
0.073859595
0.074005538
0.074103885
0.074174069
0.074228721
0.074275729
0.074319809
0.074363458
0.07440769
0.074452602
0.074497721
0.074542243
0.074585213
0.074625633
0.074662807
0.074696226
0.074726547
0.074754892
0.074781602
0.074806967
0.074830947
0.047670744
0.048831825
0.052299389
0.05701057
0.060853363
0.063788622
0.066019517
0.067738601
0.069088312
0.07016772
0.071047892
0.071775503
0.072402873
0.072760941
0.072990768
0.07314151
0.073242634
0.073314029
0.073368632
0.073414551
0.073456636
0.073497489
0.073538227
0.073579036
0.073619555
0.073659144
0.073697069
0.073732603
0.073765192
0.073794887
0.073822925
0.073849504
0.073874896
0.073899294
0.073922526
0.047656074
0.048641364
0.051696434
0.056130753
0.059867798
0.062770745
0.065000332
0.066730167
0.068094595
0.069189196
0.070083769
0.070823986
0.071463685
0.071834614
0.072072958
0.072229185
0.07233364
0.07240673
0.072461716
0.07250694
0.072547397
0.072585812
0.072623417
0.072660514
0.072696872
0.072731996
0.072765308
0.072796264
0.072824611
0.072851429
0.072877055
0.072901689
0.072925567
0.072948804
0.072971101
0.047642464
0.048467619
0.051125005
0.0552538
0.058865264
0.061722627
0.06394276
0.065678399
0.067054499
0.068162383
0.069070142
0.069822153
0.070473641
0.070857567
0.071105141
0.071267586
0.071376009
0.071451366
0.071507254
0.071552256
0.07159153
0.071627937
0.07166284
0.071696675
0.071729348
0.071760504
0.0717897
0.071816627
0.071841918
0.071866247
0.071889759
0.071912674
0.071935208
0.071957402
0.071978841
0.047629693
0.048311045
0.050591397
0.054387242
0.057852607
0.060649451
0.062850532
0.064585909
0.065969806
0.067088441
0.068007703
0.068770335
0.06943279
0.069829366
0.070086683
0.070256059
0.070369148
0.07044742
0.07050481
0.070550144
0.070588754
0.070623654
0.070656351
0.070687427
0.070716929
0.070744641
0.070770277
0.070794137
0.070817172
0.070839506
0.070861337
0.070882909
0.070904419
0.070925829
0.070946618
0.047617562
0.048171773
0.050101375
0.053539013
0.056837807
0.059557622
0.061728535
0.063456358
0.064843235
0.065969374
0.066897905
0.067669561
0.068341816
0.068750221
0.069017502
0.069194425
0.069312879
0.069394765
0.069454322
0.06950061
0.069539146
0.069573105
0.069604152
0.069633018
0.069659897
0.069684726
0.069707531
0.069729472
0.069750761
0.069771582
0.069792181
0.069812817
0.069833655
0.069854579
0.069874966
0.047606185
0.048049297
0.049658957
0.052718204
0.055829958
0.058454843
0.060582943
0.062294612
0.063678607
0.06480819
0.06574312
0.066521709
0.067202186
0.067621184
0.067898285
0.068083165
0.068207613
0.068293811
0.068356232
0.068404145
0.068443248
0.068476885
0.068506882
0.068534127
0.068558963
0.068581569
0.068602798
0.06862334
0.068643384
0.068663169
0.068682977
0.068703077
0.068723593
0.068744327
0.068764559
0.047595672
0.047942852
0.049264802
0.051936249
0.054839174
0.057350147
0.059421343
0.061106903
0.062481028
0.06360909
0.064546825
0.06532969
0.066016316
0.066444368
0.066730726
0.066923672
0.067054578
0.067145711
0.067211674
0.067261892
0.067302228
0.06733619
0.067365766
0.067392003
0.067415423
0.067436771
0.067457165
0.067476882
0.067496199
0.067515423
0.067534875
0.067554824
0.067575351
0.067596172
0.067616483
0.047586126
0.047851453
0.048918501
0.051203943
0.053876343
0.056253858
0.058252802
0.059900966
0.061257052
0.062377647
0.063313794
0.064097644
0.064787755
0.065223189
0.065517804
0.065718535
0.065856103
0.065952636
0.06602273
0.06607589
0.066118106
0.066153036
0.066182823
0.066208676
0.066231426
0.066252559
0.066272647
0.066292051
0.066311122
0.06633023
0.066349732
0.066369889
0.06639073
0.066411889
0.066432487
0.047577647
0.047773923
0.048618624
0.050530865
0.052952762
0.055177446
0.057087874
0.058686136
0.060014838
0.061120993
0.062050287
0.062831138
0.063521378
0.063962632
0.064264054
0.064471849
0.064615944
0.064718102
0.064792754
0.064849383
0.064894056
0.064930549
0.064961146
0.064987262
0.065010421
0.065031889
0.065052185
0.065071756
0.065091033
0.065110439
0.065130362
0.065151049
0.065172471
0.065194184
0.065215249
0.047570338
0.047708927
0.048362822
0.049924812
0.052079626
0.054133267
0.055938509
0.057473376
0.058764246
0.059847966
0.060764238
0.061537371
0.062223584
0.06266953
0.062975823
0.063189509
0.063339621
0.063447329
0.063526733
0.063587187
0.063634765
0.06367332
0.063705267
0.063732384
0.063756687
0.063779015
0.0638
0.063820185
0.063840076
0.063860154
0.063880826
0.06390232
0.063924546
0.063946988
0.06396866
0.047564308
0.047654996
0.048147986
0.049391337
0.051267396
0.053134146
0.054817826
0.056275197
0.057516874
0.058569209
0.059465393
0.060225347
0.060902485
0.061352986
0.061661591
0.061879528
0.062034748
0.06214758
0.062231641
0.062296042
0.062346786
0.062387755
0.062421524
0.062450495
0.062476322
0.062499907
0.062521971
0.062543137
0.062563984
0.062585042
0.062606731
0.062629247
0.062652441
0.062675735
0.062698107
0.047559691
0.047610528
0.047970442
0.048933438
0.050525081
0.052192831
0.05373973
0.055105444
0.056285961
0.057297178
0.058165391
0.058905995
0.059568071
0.060025267
0.060332367
0.060552269
0.060711223
0.060828355
0.06091664
0.060984825
0.061038757
0.061082305
0.061118364
0.061149549
0.061177212
0.061202355
0.061225786
0.061248208
0.061270267
0.061292531
0.06131542
0.061339096
0.061363351
0.061387552
0.06141066
0.047556668
0.047573745
0.047826215
0.048551453
0.049859482
0.051321316
0.052718347
0.053978891
0.055086146
0.056046013
0.056877724
0.057592192
0.058232352
0.058701558
0.059001107
0.059220065
0.059380961
0.059501194
0.059592934
0.059664444
0.05972133
0.05976745
0.059806131
0.059839584
0.0598692
0.059896045
0.059920998
0.059944832
0.059968247
0.059991839
0.060016016
0.060040898
0.060066219
0.060091305
0.060115117
0.047555506
0.047542581
0.047711381
0.048241341
0.049276532
0.050530123
0.05176729
0.052910652
0.05393302
0.054831229
0.055617542
0.056298628
0.056909535
0.057390869
0.057680112
0.057895883
0.058056998
0.058179014
0.05827325
0.058347415
0.058406825
0.058455463
0.058496637
0.058532276
0.058563809
0.058592354
0.058618852
0.058644132
0.058668934
0.058693867
0.058719315
0.058745349
0.058771655
0.058797527
0.058821942
0.047556165
0.047515812
0.047621639
0.047994632
0.048781197
0.049827497
0.050898786
0.051915372
0.052842457
0.053669185
0.054401252
0.055041493
0.055616086
0.056097532
0.056380637
0.056592725
0.05675294
0.056875622
0.056971401
0.057047473
0.057108902
0.057159863
0.057203186
0.057240761
0.057274028
0.057304141
0.057332083
0.057358728
0.05738484
0.057411021
0.057437623
0.057464664
0.057491785
0.057518268
0.057543118
0.047558094
0.047493708
0.047552108
0.047802218
0.04837374
0.049218516
0.050122736
0.051006278
0.05182973
0.052576307
0.053245859
0.053837926
0.054369928
0.054835359
0.055118136
0.055325614
0.055483826
0.055606083
0.055702407
0.055779569
0.055842539
0.055895285
0.055940302
0.055979439
0.056014135
0.056045563
0.05607474
0.056102564
0.056129805
0.056157044
0.056184588
0.056212404
0.056240096
0.056266945
0.056292005
0.04756075
0.047476514
0.047498331
0.047655053
0.048050206
0.048704417
0.049445846
0.050194143
0.050908461
0.051568091
0.052168061
0.052705233
0.053189283
0.053625022
0.053914603
0.054112883
0.054266803
0.054387108
0.054482679
0.054559922
0.054623743
0.054677517
0.054723596
0.054763766
0.054799444
0.054831812
0.054861898
0.054890606
0.054918694
0.054946703
0.054974888
0.055003165
0.055031112
0.055058025
0.055083018
0.047563637
0.047464517
0.047455946
0.047544894
0.047803338
0.048282251
0.048870997
0.049486331
0.050089501
0.050657949
0.051183115
0.051659839
0.052091672
0.052486906
0.052784048
0.05297254
0.053119457
0.053235928
0.053329204
0.053405363
0.053468907
0.053522762
0.053569105
0.05360963
0.053645717
0.053678531
0.053709094
0.053738295
0.053766853
0.053795258
0.053823703
0.053852057
0.053879885
0.053906509
0.053931118
0.047566359
0.047457615
0.047421692
0.047464177
0.047621011
0.047947851
0.048397022
0.048886058
0.049379921
0.049856036
0.050303592
0.050716062
0.051092699
0.051440417
0.051729386
0.05192007
0.05205777
0.052168221
0.052257797
0.052331666
0.052393671
0.052446519
0.052492203
0.052532304
0.052568134
0.052600822
0.052631355
0.052660578
0.052689158
0.052717514
0.052745776
0.052773773
0.052801066
0.052827019
0.052850901
0.047568663
0.047454467
0.047395798
0.04740471
0.047489167
0.047694494
0.048018636
0.04839202
0.048782267
0.049168241
0.049538186
0.049884832
0.050204814
0.050501984
0.050763476
0.050959988
0.051094444
0.051197192
0.051281747
0.051352085
0.051411518
0.051462422
0.051506596
0.0515455
0.051580375
0.051612303
0.051642228
0.051670937
0.051699023
0.051726831
0.051754426
0.051781604
0.05180793
0.051832823
0.051855636
0.047570433
0.047453778
0.047378503
0.047359136
0.047396174
0.047511749
0.047726581
0.047998505
0.048294262
0.048595541
0.048890786
0.049172568
0.049436222
0.049682676
0.049906546
0.050093122
0.05023151
0.050332829
0.050411436
0.050476809
0.050532802
0.050581003
0.050622917
0.050659897
0.050693143
0.050723713
0.050752492
0.05078019
0.050807312
0.050834118
0.050860612
0.05088656
0.050911547
0.050935046
0.050956502
0.047571662
0.047454474
0.04736831
0.047325165
0.047330698
0.04738506
0.047510504
0.047696088
0.047909048
0.048133867
0.048360024
0.048580429
0.048790037
0.048987718
0.049170806
0.049332185
0.04946525
0.049568712
0.049648368
0.049712081
0.049764774
0.049809514
0.049848272
0.049882516
0.049913454
0.049942187
0.049969465
0.049995848
0.050021717
0.050047235
0.050072343
0.050096791
0.050120187
0.050142071
0.050161977
0.047572416
0.047455772
0.047363018
0.047302855
0.047282239
0.04729922
0.047359859
0.047472428
0.047615939
0.047774558
0.047939419
0.048104144
0.048263892
0.048416409
0.048559747
0.048690304
0.048804328
0.048900224
0.048979598
0.049043953
0.049096587
0.049140887
0.049179065
0.049212651
0.049242794
0.049270478
0.04929656
0.04932165
0.049346116
0.049370099
0.049393532
0.049416184
0.049437716
0.049457744
0.04947589
0.047572801
0.04745716
0.047360815
0.047289571
0.047248475
0.047239719
0.047259987
0.047314478
0.047401622
0.047505346
0.047618132
0.047734517
0.047850162
0.047962435
0.04806949
0.048169175
0.048259304
0.048338591
0.048407289
0.048466013
0.048516087
0.048559076
0.048596382
0.048629191
0.048658493
0.048685098
0.04870981
0.04873325
0.04875581
0.048777662
0.048798793
0.048819046
0.048838171
0.048855879
0.048871886
0.047572934
0.047458353
0.047360358
0.047282338
0.047227676
0.047197742
0.047193867
0.047210558
0.047251284
0.047311695
0.047382229
0.047458517
0.047536847
0.047614706
0.047690286
0.047762001
0.047828423
0.047888578
0.047942329
0.047989777
0.048031407
0.048067918
0.048100073
0.048128625
0.048154286
0.048177704
0.048199448
0.048219965
0.048239557
0.048258374
0.048276426
0.048293612
0.04830976
0.048324663
0.048338115
0.047572919
0.047459235
0.047360728
0.047278887
0.047215686
0.047171827
0.047147948
0.047143357
0.047153207
0.047178373
0.047216218
0.047260792
0.047308957
0.047358653
0.047408177
0.047456196
0.047501634
0.047543719
0.047582206
0.047616971
0.047648129
0.047675956
0.047700826
0.047723164
0.04774341
0.047761991
0.047779293
0.047795621
0.04781119
0.047826104
0.047840372
0.047853923
0.047866632
0.04787835
0.047888927
0.04757284
0.047459806
0.047361356
0.047277589
0.047209331
0.04715674
0.047119866
0.047098347
0.047089948
0.047093159
0.047104595
0.047125293
0.047150123
0.047177863
0.047206806
0.047235806
0.047264002
0.047290745
0.047315747
0.047338796
0.04735984
0.047378944
0.047396261
0.047412003
0.047426412
0.047439743
0.04745223
0.047464065
0.04747538
0.04748624
0.04749664
0.047506526
0.047515804
0.047524366
0.047532104
0.047572749
0.047460124
0.047361943
0.047277365
0.047206328
0.047148548
0.047103638
0.04707119
0.047049763
0.047037936
0.047034551
0.047037207
0.047044107
0.047055793
0.04706921
0.047083655
0.047098495
0.047113136
0.047127263
0.047140628
0.047153101
0.047164642
0.047175279
0.047185092
0.047194194
0.047202716
0.047210783
0.0472185
0.047225938
0.047233125
0.047240046
0.047246654
0.047252878
0.047258639
0.047263858
0.047572676
0.047460271
0.047362373
0.047277564
0.04720514
0.047144459
0.047094835
0.047055685
0.047025968
0.047004461
0.046990172
0.046981691
0.046977388
0.046977558
0.046979314
0.046983032
0.046988151
0.046993837
0.046999791
0.047005746
0.047011561
0.047017143
0.047022449
0.047027479
0.047032264
0.047036851
0.047041292
0.04704563
0.047049891
0.047054075
0.04705816
0.047062104
0.047065852
0.047069343
0.04707252
0.047572629
0.04746032
0.047362637
0.047277844
0.047204813
0.04714262
0.04709038
0.04704733
0.04701258
0.046985086
0.046963924
0.046948117
0.046936446
0.046928514
0.046923114
0.046919735
0.046917916
0.046917283
0.046917424
0.046917943
0.046918904
0.04692012
0.046921488
0.04692296
0.046924514
0.046926145
0.046927856
0.046929648
0.046931514
0.046933438
0.046935392
0.046937336
0.046939225
0.046941015
0.04694266
0.047572607
0.047460327
0.047362772
0.047278065
0.047204813
0.04714189
0.047088274
0.047043069
0.047005403
0.046974347
0.046949032
0.046928649
0.046912287
0.046899354
0.046889136
0.046881092
0.046874784
0.046869858
0.046866023
0.046863025
0.046860699
0.046858907
0.046857547
0.046856542
0.046855842
0.046855413
0.046855233
0.046855257
0.04685542
0.046855746
0.046856201
0.046856741
0.046857328
0.046857924
0.046858495
0.047572601
0.047460324
0.04736283
0.047278195
0.047204883
0.047141628
0.047087319
0.047040967
0.047001677
0.046968572
0.046940828
0.046917704
0.046898461
0.046882497
0.046869255
0.046858259
0.046849113
0.046841489
0.046835125
0.046829799
0.046825334
0.046821586
0.04681844
0.046815806
0.046813612
0.0468118
0.046810324
0.046809141
0.046808213
0.046807504
0.046806979
0.046806601
0.046806336
0.046806152
0.04680602
0.047572605
0.047460325
0.047362852
0.047278253
0.047204926
0.047141519
0.047086857
0.0470399
0.046999719
0.046965454
0.046936313
0.046911587
0.046890623
0.046872852
0.04685778
0.04684498
0.046834091
0.046824809
0.046816886
0.046810111
0.046804309
0.046799336
0.04679507
0.046791412
0.04678828
0.046785605
0.046783328
0.0467814
0.046779774
0.04677841
0.04677727
0.046776317
0.04677552
0.046774849
0.046774279
0.047572613
0.047460334
0.047362861
0.047278269
0.047204924
0.04714143
0.047086571
0.047039274
0.046998588
0.046963654
0.046933699
0.046908034
0.046886046
0.0468672
0.046851034
0.046837149
0.046825209
0.046814925
0.046806059
0.046798405
0.046791791
0.046786072
0.046781124
0.046776844
0.046773141
0.046769943
0.046767183
0.046764805
0.046762759
0.046761002
0.046759494
0.0467582
0.046757087
0.046756127
0.046755297
0.047572622
0.04746035
0.047362869
0.047278265
0.047204891
0.047141325
0.04708633
0.047038813
0.046997809
0.046962461
0.046932003
0.046905763
0.046883149
0.046863647
0.046846814
0.04683227
0.04681969
0.046808799
0.046799361
0.046791175
0.046784071
0.046777902
0.046772543
0.046767888
0.046763844
0.046760333
0.046757285
0.046754642
0.04675235
0.046750364
0.046748643
0.046747151
0.046745857
0.046744732
0.046743754
0.047572631
0.047460368
0.04736288
0.047278255
0.047204841
0.047141203
0.047086092
0.047038406
0.046997173
0.046961535
0.046930737
0.046904114
0.046881089