/*--------------------------------*- C++ -*----------------------------------*\
  =========                 |
  \\      /  F ield         | OpenFOAM: The Open Source CFD Toolbox
   \\    /   O peration     | Website:  https://openfoam.org
    \\  /    A nd           | Version:  12
     \\/     M anipulation  |
\*---------------------------------------------------------------------------*/
FoamFile
{
    format      ascii;
    class       volVectorField;
    location    "2000";
    object      U;
}
// * * * * * * * * * * * * * * * * * * * * * * * * * * * * * * * * * * * * * //

dimensions      [0 1 -1 0 0 0 0];

internalField   nonuniform List<vector> 
66675
(
(5.399954 5.9153868e-07 0)
(5.3993438 1.5268983e-06 0)
(5.3983069 2.3991285e-06 0)
(5.3970582 3.2758126e-06 0)
(5.3955799 4.3547841e-06 0)
(5.3938885 5.693212e-06 0)
(5.3919605 7.4044857e-06 0)
(5.3897766 9.5824008e-06 0)
(5.3873127 1.236828e-05 0)
(5.3845373 1.5884143e-05 0)
(5.381435 2.0321527e-05 0)
(5.3779701 2.5883873e-05 0)
(5.3741282 3.3023986e-05 0)
(5.3698312 4.331365e-05 0)
(5.3647655 5.7960451e-05 0)
(5.3589079 7.6108213e-05 0)
(5.3522522 9.8396011e-05 0)
(5.3447877 0.0001260843 0)
(5.3364581 0.0001609837 0)
(5.3271822 0.00020532036 0)
(5.3168534 0.00026220574 0)
(5.3053234 0.00033564673 0)
(5.2924228 0.00043171998 0)
(5.2778908 0.00055810385 0)
(5.2614632 0.00072830025 0)
(5.2426309 0.0009574291 0)
(5.2210084 0.0012825659 0)
(5.1953561 0.0017292306 0)
(5.1654276 0.0024453698 0)
(5.1267887 0.0033811105 0)
(5.0830801 0.0056143953 0)
(5.0069812 0.0073285221 0)
(4.9503994 0.020226865 0)
(4.672182 0.016135821 0)
(4.7769039 0.22519218 0)
(5.3999541 1.811478e-06 0)
(5.3993434 4.6766379e-06 0)
(5.3983056 7.3486351e-06 0)
(5.3970555 1.0034254e-05 0)
(5.3955756 1.333926e-05 0)
(5.3938825 1.7438836e-05 0)
(5.3919526 2.2680241e-05 0)
(5.3897666 2.935062e-05 0)
(5.3873004 3.7882884e-05 0)
(5.3845226 4.8650404e-05 0)
(5.3814178 6.2240424e-05 0)
(5.37795 7.9272857e-05 0)
(5.3741057 0.00010113964 0)
(5.3698055 0.00013342263 0)
(5.3647377 0.00017813197 0)
(5.3588794 0.00023353106 0)
(5.3522238 0.00030161503 0)
(5.34476 0.00038624934 0)
(5.3364315 0.00049296537 0)
(5.3271576 0.00062856851 0)
(5.3168319 0.00080255685 0)
(5.3053064 0.0010271724 0)
(5.2924128 0.0013209186 0)
(5.2778918 0.0017072556 0)
(5.2614813 0.0022270111 0)
(5.242677 0.0029266481 0)
(5.2211001 0.003916309 0)
(5.1955299 0.0052784508 0)
(5.1657393 0.0074361469 0)
(5.1274272 0.010308114 0)
(5.0840949 0.016739492 0)
(5.0115651 0.022624974 0)
(4.9518394 0.055538861 0)
(4.7356963 0.064840365 0)
(4.7360308 0.35707181 0)
(5.3999541 3.1072299e-06 0)
(5.399343 8.0235415e-06 0)
(5.3983039 1.2608869e-05 0)
(5.3970521 1.7217481e-05 0)
(5.3955702 2.2888386e-05 0)
(5.3938748 2.9922303e-05 0)
(5.3919423 3.8914884e-05 0)
(5.3897536 5.0358565e-05 0)
(5.3872845 6.4996161e-05 0)
(5.3845036 8.3467557e-05 0)
(5.3813955 0.00010678138 0)
(5.3779241 0.00013599421 0)
(5.3740769 0.00017350631 0)
(5.3697723 0.00022900785 0)
(5.3647018 0.0003056216 0)
(5.3588427 0.00040056031 0)
(5.3521876 0.00051725501 0)
(5.3447251 0.00066232854 0)
(5.336399 0.00084524854 0)
(5.3271288 0.0010776687 0)
(5.3168085 0.0013758338 0)
(5.3052913 0.0017606881 0)
(5.2924104 0.0022637977 0)
(5.2779091 0.0029252662 0)
(5.2615294 0.0038142978 0)
(5.2427755 0.0050105168 0)
(5.2212806 0.006697633 0)
(5.1958561 0.0090213581 0)
(5.1663149 0.012660876 0)
(5.1285685 0.017574457 0)
(5.0859543 0.027863368 0)
(5.0182704 0.038992119 0)
(4.9570811 0.083350412 0)
(4.8073481 0.11594206 0)
(4.7503668 0.37827076 0)
(5.3999542 4.48374e-06 0)
(5.3993424 1.158094e-05 0)
(5.3983017 1.820124e-05 0)
(5.3970479 2.4854863e-05 0)
(5.3955635 3.3041168e-05 0)
(5.3938652 4.3194398e-05 0)
(5.3919296 5.6174177e-05 0)
(5.3897376 7.2690797e-05 0)
(5.3872649 9.3816632e-05 0)
(5.3844801 0.00012047396 0)
(5.381368 0.00015412083 0)
(5.3778922 0.00019626946 0)
(5.3740413 0.00025040859 0)
(5.3697314 0.00033035697 0)
(5.3646575 0.00044083214 0)
(5.3587977 0.00057773829 0)
(5.3521434 0.00074603306 0)
(5.3446832 0.00095525234 0)
(5.3363607 0.0012190266 0)
(5.327096 0.0015541374 0)
(5.3167841 0.001983955 0)
(5.3052797 0.0025386047 0)
(5.2924181 0.0032633896 0)
(5.2779469 0.00421589 0)
(5.2616143 0.0054948868 0)
(5.242937 0.0072145474 0)
(5.2215674 0.009633762 0)
(5.1963651 0.012963339 0)
(5.1672006 0.018129406 0)
(5.1303148 0.025160409 0)
(5.0887815 0.039050218 0)
(5.0271273 0.055734986 0)
(4.967322 0.10641222 0)
(4.867002 0.1579849 0)
(4.8003394 0.36390334 0)
(5.3999542 5.946211e-06 0)
(5.3993417 1.5362906e-05 0)
(5.3982992 2.4148374e-05 0)
(5.3970429 3.2977553e-05 0)
(5.3955554 4.383903e-05 0)
(5.3938538 5.7309109e-05 0)
(5.3919145 7.4527987e-05 0)
(5.3897183 9.6437137e-05 0)
(5.3872414 0.00012445949 0)
(5.3844519 0.00015981643 0)
(5.3813351 0.00020444575 0)
(5.377854 0.00026033291 0)
(5.3739987 0.00033214567 0)
(5.3696825 0.00043812598 0)
(5.3646045 0.00058448614 0)
(5.358744 0.00076586745 0)
(5.3520912 0.00098886935 0)
(5.3446342 0.0012661026 0)
(5.3363169 0.0016155912 0)
(5.32706 0.0020595273 0)
(5.3167599 0.0026287834 0)
(5.3052734 0.0033631308 0)
(5.292439 0.0043222399 0)
(5.2780099 0.0055819024 0)
(5.2617434 0.0072714098 0)
(5.2431736 0.0095403569 0)
(5.2219792 0.01272289 0)
(5.1970875 0.017094778 0)
(5.16844 0.023806664 0)
(5.1327375 0.032990308 0)
(5.0926972 0.050105707 0)
(5.0377042 0.072098135 0)
(4.9824398 0.12563642 0)
(4.9141223 0.18880281 0)
(4.8655499 0.34782855 0)
(5.3999543 7.5002095e-06 0)
(5.3993409 1.9384615e-05 0)
(5.3982963 3.0474734e-05 0)
(5.397037 4.1619273e-05 0)
(5.395546 5.5326798e-05 0)
(5.3938404 7.2324825e-05 0)
(5.3918967 9.4051821e-05 0)
(5.3896957 0.00012169457 0)
(5.3872138 0.00015704898 0)
(5.3844188 0.00020165315 0)
(5.3812965 0.00025795748 0)
(5.3778092 0.00032843635 0)
(5.373949 0.00041903975 0)
(5.3696253 0.00055269877 0)
(5.3645425 0.00073707931 0)
(5.3586814 0.00096558102 0)
(5.3520309 0.0012465707 0)
(5.3445782 0.0015958978 0)
(5.3362678 0.0020362139 0)
(5.3270215 0.0025954056 0)
(5.3167372 0.0033122193 0)
(5.3052745 0.0042365177 0)
(5.2924763 0.0054429054 0)
(5.2781035 0.0070260019 0)
(5.261925 0.0091461889 0)
(5.2434982 0.01198885 0)
(5.222536 0.01596143 0)
(5.1980547 0.021403284 0)
(5.1700751 0.029651485 0)
(5.1358767 0.040974666 0)
(5.0977947 0.060873167 0)
(5.0495407 0.087461279 0)
(5.0012581 0.14171039 0)
(4.9540153 0.20962848 0)
(4.9280367 0.33552445 0)
(5.3999544 9.15168e-06 0)
(5.39934 2.3662384e-05 0)
(5.3982929 3.7206705e-05 0)
(5.3970302 5.0816429e-05 0)
(5.3955352 6.755286e-05 0)
(5.3938249 8.8304547e-05 0)
(5.3918762 0.0001148271 0)
(5.3896697 0.00014856758 0)
(5.3871819 0.00019171884 0)
(5.3843808 0.00024615422 0)
(5.3812521 0.00031487236 0)
(5.3777577 0.00040084995 0)
(5.3738918 0.00051143702 0)
(5.3695594 0.00067448213 0)
(5.3644713 0.00089913522 0)
(5.3586099 0.0011775458 0)
(5.3519623 0.001519985 0)
(5.3445153 0.0019457053 0)
(5.336214 0.002482221 0)
(5.3269813 0.0031633971 0)
(5.3167174 0.0040362141 0)
(5.3052854 0.0051610418 0)
(5.292534 0.0066279063 0)
(5.2782337 0.0085507131 0)
(5.2621684 0.01112111 0)
(5.243925 0.014559963 0)
(5.2232584 0.01934389 0)
(5.199298 0.02587286 0)
(5.172146 0.035619934 0)
(5.1397442 0.049008571 0)
(5.1041046 0.071233649 0)
(5.0623534 0.10140402 0)
(5.0221808 0.15494259 0)
(4.9900207 0.22251777 0)
(4.9805068 0.32432777 0)
(5.3999545 1.0906965e-05 0)
(5.3993391 2.8213725e-05 0)
(5.3982892 4.4372703e-05 0)
(5.3970226 6.0608277e-05 0)
(5.3955229 8.0569403e-05 0)
(5.3938074 0.00010531619 0)
(5.3918528 0.00013694153 0)
(5.3896401 0.00017716864 0)
(5.3871458 0.00022861289 0)
(5.3843375 0.00029350233 0)
(5.3812017 0.00037542261 0)
(5.3776993 0.00047786328 0)
(5.3738269 0.00060970855 0)
(5.3694847 0.00080396079 0)
(5.3643906 0.0010712518 0)
(5.3585293 0.0014024979 0)
(5.3518856 0.0018100255 0)
(5.3444459 0.0023166544 0)
(5.3361561 0.0029549957 0)
(5.3269405 0.0037651695 0)
(5.3167023 0.0048027316 0)
(5.3053091 0.0061389286 0)
(5.2926165 0.0078795823 0)
(5.2784072 0.010158131 0)
(5.2624837 0.013197149 0)
(5.2444691 0.017251871 0)
(5.2241682 0.022861391 0)
(5.2008466 0.030481425 0)
(5.1746899 0.041661894 0)
(5.1443297 0.056973972 0)
(5.1115716 0.08106362 0)
(5.0759744 0.11369358 0)
(5.0438932 0.16546816 0)
(5.0230761 0.22955969 0)
(5.0238975 0.31273808 0)
(5.3999546 1.277283e-05 0)
(5.399338 3.3057441e-05 0)
(5.3982849 5.2003339e-05 0)
(5.397014 7.1037162e-05 0)
(5.3955091 9.4432721e-05 0)
(5.3937876 0.000123433 0)
(5.3918266 0.00016048964 0)
(5.3896069 0.00020761883 0)
(5.3871051 0.00026788579 0)
(5.3842889 0.00034389377 0)
(5.381145 0.00043985749 0)
(5.3776336 0.00055978677 0)
(5.373754 0.00071425196 0)
(5.3694009 0.00094165081 0)
(5.3643004 0.0012540606 0)
(5.3584394 0.0016412096 0)
(5.3518008 0.0021176455 0)
(5.3443703 0.0027099164 0)
(5.3360946 0.0034559592 0)
(5.3269003 0.0044024147 0)
(5.3166939 0.005613723 0)
(5.3053486 0.0071723118 0)
(5.2927286 0.0092000238 0)
(5.2786314 0.011849807 0)
(5.2628819 0.015374178 0)
(5.2451465 0.020060708 0)
(5.2252869 0.026501404 0)
(5.2027266 0.035200459 0)
(5.1777369 0.047721947 0)
(5.1496096 0.064750498 0)
(5.1200664 0.090236134 0)
(5.0902342 0.12424007 0)
(5.0655756 0.17345937 0)
(5.0533136 0.23239205 0)
(5.06032 0.300838 0)
(5.3999548 1.4756487e-05 0)
(5.3993368 3.821372e-05 0)
(5.3982803 6.0131601e-05 0)
(5.3970044 8.2148788e-05 0)
(5.3954937 0.00010920358 0)
(5.3937656 0.00014273399 0)
(5.3917974 0.00018557333 0)
(5.3895698 0.00024004856 0)
(5.3870597 0.00030970396 0)
(5.3842347 0.00039753947 0)
(5.3810818 0.00050844463 0)
(5.3775606 0.00064695329 0)
(5.373673 0.0008254932 0)
(5.3693078 0.0010880951 0)
(5.3642004 0.001448223 0)
(5.3583404 0.0018944868 0)
(5.3517081 0.0024438349 0)
(5.3442889 0.0031267002 0)
(5.3360305 0.0039865645 0)
(5.3268623 0.0050768354 0)
(5.3166946 0.0064711027 0)
(5.3054076 0.0082631919 0)
(5.2928758 0.010591 0)
(5.2789145 0.013626624 0)
(5.2633747 0.017650786 0)
(5.2459737 0.022980334 0)
(5.226636 0.030247722 0)
(5.2049594 0.039995225 0)
(5.1813064 0.053740259 0)
(5.155552 0.072224646 0)
(5.1294189 0.098635627 0)
(5.1049225 0.13304641 0)
(5.0867476 0.17915534 0)
(5.0808278 0.23222098 0)
(5.0913219 0.28890633 0)
(5.3999549 1.6865624e-05 0)
(5.3993355 4.3704241e-05 0)
(5.3982752 6.8793051e-05 0)
(5.3969939 9.3992502e-05 0)
(5.3954767 0.0001249476 0)
(5.3937413 0.00016330447 0)
(5.391765 0.00021230251 0)
(5.3895287 0.00027459836 0)
(5.3870095 0.00035424649 0)
(5.3841749 0.00045466613 0)
(5.3810121 0.00058147137 0)
(5.3774799 0.00073971987 0)
(5.3735835 0.00094388834 0)
(5.3692052 0.001243872 0)
(5.3640907 0.0016544378 0)
(5.3582323 0.0021631739 0)
(5.3516078 0.0027896226 0)
(5.3442023 0.0035682505 0)
(5.3359649 0.0045482885 0)
(5.326828 0.0057901289 0)
(5.316707 0.0073767166 0)
(5.3054902 0.0094133778 0)
(5.2930642 0.012053858 0)
(5.2792653 0.01548865 0)
(5.2639746 0.020024054 0)
(5.2469675 0.026002033 0)
(5.2282359 0.034080399 0)
(5.2075612 0.044825342 0)
(5.1854033 0.059653132 0)
(5.1621144 0.079294864 0)
(5.1394485 0.10616993 0)
(5.1198091 0.14017527 0)
(5.1071079 0.18283242 0)
(5.1057832 0.22992944 0)
(5.118 0.2771436 0)
(5.3999551 1.9108435e-05 0)
(5.3993341 4.9552286e-05 0)
(5.3982696 7.8026032e-05 0)
(5.3969824 0.0001066216 0)
(5.3954581 0.00014173567 0)
(5.3937146 0.00018523651 0)
(5.3917295 0.00024079576 0)
(5.3894837 0.00031141965 0)
(5.3869545 0.00040170611 0)
(5.3841091 0.00051551738 0)
(5.3809356 0.00065924617 0)
(5.3773916 0.0008384694 0)
(5.3734855 0.0010699253 0)
(5.369093 0.0014095972 0)
(5.3639712 0.0018734418 0)
(5.3581152 0.0024481539 0)
(5.3515003 0.003156075 0)
(5.3441112 0.0040358428 0)
(5.3358989 0.0051426204 0)
(5.3267994 0.0065439644 0)
(5.3167342 0.0083323012 0)
(5.3056008 0.010624419 0)
(5.2933005 0.013589418 0)
(5.2796931 0.017434961 0)
(5.2646944 0.022489326 0)
(5.2481441 0.029114244 0)
(5.2301052 0.03797575 0)
(5.2105426 0.049645882 0)
(5.1900171 0.065394442 0)
(5.1692406 0.085874027 0)
(5.1499794 0.11277664 0)
(5.1346764 0.1457304 0)
(5.1264659 0.18477644 0)
(5.1283788 0.22616676 0)
(5.1411885 0.265696 0)
(5.3999552 2.1493648e-05 0)
(5.3993326 5.5782847e-05 0)
(5.3982635 8.7871894e-05 0)
(5.3969699 0.00012009367 0)
(5.3954378 0.00015964436 0)
(5.3936855 0.0002086296 0)
(5.3916907 0.00027118103 0)
(5.3894344 0.00035067565 0)
(5.3868943 0.0004522903 0)
(5.3840374 0.00058035509 0)
(5.3808522 0.00074210017 0)
(5.3772953 0.00094361258 0)
(5.3733787 0.0012041255 0)
(5.3689712 0.0015859237 0)
(5.3638421 0.0021060099 0)
(5.3579895 0.0027503474 0)
(5.3513861 0.0035442919 0)
(5.3440165 0.0045307754 0)
(5.335834 0.0057710469 0)
(5.3267789 0.0073399557 0)
(5.3167795 0.0093394377 0)
(5.3057446 0.011897526 0)
(5.2935917 0.015197842 0)
(5.2802082 0.019463468 0)
(5.2655473 0.025040013 0)
(5.2495193 0.032302377 0)
(5.23226 0.041906459 0)
(5.2139081 0.054408823 0)
(5.1951225 0.070898097 0)
(5.1768595 0.091890844 0)
(5.1608462 0.11842438 0)
(5.1493366 0.1498431 0)
(5.144714 0.18526521 0)
(5.1488254 0.2214074 0)
(5.1615324 0.25466413 0)
(5.3999554 2.4030552e-05 0)
(5.3993311 6.2422758e-05 0)
(5.3982571 9.8375227e-05 0)
(5.3969564 0.00013447091 0)
(5.3954158 0.00017875646 0)
(5.3936538 0.00023359117 0)
(5.3916486 0.0003035964 0)
(5.389381 0.00039254228 0)
(5.386829 0.00050622234 0)
(5.3839596 0.00064946068 0)
(5.3807618 0.00083038869 0)
(5.3771911 0.0010555898 0)
(5.3732631 0.0013470459 0)
(5.3688397 0.0017735426 0)
(5.3637035 0.0023529551 0)
(5.3578554 0.0030707106 0)
(5.3512658 0.0039554024 0)
(5.3439193 0.0050543598 0)
(5.3357719 0.0064350338 0)
(5.3267688 0.0081796296 0)
(5.3168468 0.010399496 0)
(5.3059269 0.013233487 0)
(5.2939457 0.016878509 0)
(5.2808209 0.021570737 0)
(5.2665465 0.027667409 0)
(5.2511073 0.035548729 0)
(5.234712 0.045841817 0)
(5.2176555 0.059064611 0)
(5.2006822 0.07610099 0)
(5.1848871 0.097290911 0)
(5.1718951 0.12311083 0)
(5.1636374 0.15266035 0)
(5.1618074 0.18455732 0)
(5.1673337 0.21599484 0)
(5.1795309 0.24410701 0)
(5.3999557 2.6729027e-05 0)
(5.3993294 6.9500811e-05 0)
(5.3982501 0.00010958412 0)
(5.3969418 0.00014982058 0)
(5.3953921 0.00019916144 0)
(5.3936197 0.0002602373 0)
(5.3916031 0.00033819092 0)
(5.3893232 0.00043720921 0)
(5.3867585 0.00056374259 0)
(5.3838756 0.00072313652 0)
(5.3806642 0.0009244929 0)
(5.3770788 0.001174873 0)
(5.3731385 0.0014992799 0)
(5.3686987 0.001973184 0)
(5.3635556 0.0026151281 0)
(5.3577135 0.0034102341 0)
(5.3511402 0.0043905592 0)
(5.3438208 0.0056079092 0)
(5.3357144 0.0071360041 0)
(5.3267722 0.0090643869 0)
(5.3169402 0.011513573 0)
(5.3061539 0.014632563 0)
(5.2943707 0.018629871 0)
(5.2815419 0.023751811 0)
(5.267705 0.03036056 0)
(5.2529203 0.038832554 0)
(5.2374685 0.049748159 0)
(5.2217751 0.063563692 0)
(5.2066488 0.080945854 0)
(5.1932317 0.10203736 0)
(5.1829869 0.12685903 0)
(5.1774607 0.15433506 0)
(5.1777459 0.1828851 0)
(5.1841068 0.21017641 0)
(5.1955736 0.23405116 0)
(5.3999559 2.9599583e-05 0)
(5.3993277 7.7047898e-05 0)
(5.3982428 0.00012155043 0)
(5.3969263 0.00016621535 0)
(5.3953666 0.00022095604 0)
(5.393583 0.00028869344 0)
(5.3915541 0.00037512546 0)
(5.3892611 0.00048488084 0)
(5.3866826 0.00062510964 0)
(5.3837853 0.00080170737 0)
(5.3805595 0.0010248215 0)
(5.3769584 0.0013019682 0)
(5.3730049 0.0016614598 0)
(5.3685482 0.0021856169 0)
(5.363399 0.0028934163 0)
(5.3575643 0.0037699393 0)
(5.3510103 0.0048509314 0)
(5.3437224 0.0061927233 0)
(5.3356637 0.0078753113 0)
(5.3267923 0.0099954571 0)
(5.3170644 0.012682418 0)
(5.3064319 0.016094384 0)
(5.2948753 0.020449306 0)
(5.2823822 0.026000046 0)
(5.2690347 0.03310617 0)
(5.2549685 0.042130281 0)
(5.2405309 0.053589554 0)
(5.2262494 0.06785803 0)
(5.2129673 0.085383613 0)
(5.2017986 0.10611082 0)
(5.1939993 0.12971274 0)
(5.1907205 0.15501851 0)
(5.1925594 0.18045139 0)
(5.1993338 0.20412966 0)
(5.209968 0.22449999 0)
(5.3999561 3.2653374e-05 0)
(5.399326 8.5097137e-05 0)
(5.398235 0.00013433006 0)
(5.3969097 0.00018373376 0)
(5.3953393 0.00024424482 0)
(5.3935437 0.00031909511 0)
(5.3915016 0.00041457367 0)
(5.3891945 0.00053577752 0)
(5.3866013 0.00069060173 0)
(5.3836887 0.00088552197 0)
(5.3804475 0.0011318123 0)
(5.3768298 0.0014374169 0)
(5.3728623 0.0018342573 0)
(5.3683885 0.0024116488 0)
(5.3632339 0.0031887426 0)
(5.3574087 0.0041508745 0)
(5.3508771 0.005337695 0)
(5.3436259 0.0068100709 0)
(5.3356225 0.0086542077 0)
(5.3268325 0.010973847 0)
(5.3172244 0.013906355 0)
(5.3067679 0.017617833 0)
(5.2954684 0.022332981 0)
(5.2833522 0.028306968 0)
(5.2705467 0.035888585 0)
(5.2572585 0.045415883 0)
(5.2438946 0.057328751 0)
(5.2310527 0.071902606 0)
(5.2195768 0.089375069 0)
(5.2104947 0.10950847 0)
(5.2048285 0.13173147 0)
(5.2033593 0.15485504 0)
(5.2062977 0.17742905 0)
(5.2131867 0.19798162 0)
(5.2229598 0.21544158 0)
(5.3999564 3.5902248e-05 0)
(5.3993241 9.3684024e-05 0)
(5.3982267 0.00014798327 0)
(5.396892 0.00020246069 0)
(5.3953103 0.00026914085 0)
(5.3935017 0.00035158876 0)
(5.3914457 0.00045672294 0)
(5.3891234 0.00059013663 0)
(5.3865146 0.00076051806 0)
(5.3835857 0.00097495452 0)
(5.3803282 0.0012459341 0)
(5.3766932 0.0015817987 0)
(5.3727108 0.0020183853 0)
(5.3682199 0.0026521254 0)
(5.3630612 0.0035020621 0)
(5.3572475 0.0045541089 0)
(5.3507421 0.0058520213 0)
(5.3435332 0.0074611676 0)
(5.3355933 0.0094738073 0)
(5.326897 0.01200028 0)
(5.3174258 0.015185188 0)
(5.3071692 0.019200924 0)
(5.2961592 0.024275711 0)
(5.2844621 0.030662183 0)
(5.2722501 0.038689848 0)
(5.2597939 0.048661391 0)
(5.2475491 0.060928314 0)
(5.2361516 0.075656883 0)
(5.2264127 0.092891922 0)
(5.2192319 0.11224235 0)
(5.2153895 0.13298547 0)
(5.215344 0.15397853 0)
(5.219022 0.17396254 0)
(5.2258201 0.19182263 0)
(5.2347473 0.20685486 0)
(5.3999567 3.9358758e-05 0)
(5.3993223 0.00010284656 0)
(5.3982181 0.00016257499 0)
(5.3968734 0.00022248786 0)
(5.3952796 0.00029576632 0)
(5.3934572 0.00038633258 0)
(5.3913861 0.00050177547 0)
(5.3890479 0.00064821393 0)
(5.3864225 0.00083518024 0)
(5.3834763 0.0010704063 0)
(5.3802019 0.0013676884 0)
(5.3765487 0.0017357327 0)
(5.3725506 0.0022145984 0)
(5.3680428 0.0029079285 0)
(5.3628814 0.0038343594 0)
(5.3570818 0.0049807259 0)
(5.3506067 0.0063950625 0)
(5.3434464 0.0081471508 0)
(5.3355794 0.010335043 0)
(5.32699 0.013075131 0)
(5.3176743 0.016518115 0)
(5.3076432 0.02084068 0)
(5.2969566 0.026270849 0)
(5.2857211 0.03305333 0)
(5.2741518 0.041489865 0)
(5.2625741 0.051837507 0)
(5.2514778 0.064351858 0)
(5.2415067 0.079086128 0)
(5.2334085 0.095917156 0)
(5.227929 0.11433719 0)
(5.2256156 0.13355113 0)
(5.2266616 0.1525103 0)
(5.2307999 0.17017054 0)
(5.2373708 0.18571641 0)
(5.2454922 0.19871399 0)
(5.399957 4.3036201e-05 0)
(5.3993204 0.00011262543 0)
(5.3982092 0.00017817509 0)
(5.3968539 0.00024391434 0)
(5.3952471 0.00032425329 0)
(5.3934101 0.00042349742 0)
(5.3913231 0.00054994933 0)
(5.3889679 0.00071028474 0)
(5.3863249 0.00091493373 0)
(5.3833607 0.0011723075 0)
(5.3800684 0.0014976106 0)
(5.3763964 0.0018998798 0)
(5.3723819 0.0024236935 0)
(5.3678579 0.0031799745 0)
(5.3626956 0.0041866433 0)
(5.3569129 0.0054318134 0)
(5.3504727 0.0069679346 0)
(5.3433681 0.0088690485 0)
(5.3355842 0.011238617 0)
(5.3271163 0.014198351 0)
(5.3179762 0.017903616 0)
(5.3081977 0.022533016 0)
(5.2978694 0.028310186 0)
(5.2871373 0.035466119 0)
(5.276256 0.04426669 0)
(5.2655938 0.054914341 0)
(5.2556586 0.067565264 0)
(5.2470737 0.082162462 0)
(5.2404985 0.098444828 0)
(5.2365142 0.11582784 0)
(5.2354569 0.13350707 0)
(5.2373145 0.15055819 0)
(5.2417005 0.16614918 0)
(5.2479588 0.17970729 0)
(5.2553274 0.19099126 0)
(5.3999574 4.6948641e-05 0)
(5.3993185 0.00012306407 0)
(5.3981999 0.00019485882 0)
(5.3968334 0.00026684707 0)
(5.3952129 0.00035474443 0)
(5.3933604 0.00046326775 0)
(5.3912566 0.00060147964 0)
(5.3888834 0.00077664537 0)
(5.386222 0.0010001494 0)
(5.3832389 0.0012811182 0)
(5.379928 0.001636272 0)
(5.3762367 0.0020749439 0)
(5.3722051 0.00264651 0)
(5.3676657 0.0034692109 0)
(5.3625047 0.0045599407 0)
(5.3567422 0.0059084523 0)
(5.3503421 0.0075716963 0)
(5.343301 0.0096277446 0)
(5.3356115 0.012184945 0)
(5.3272809 0.015369388 0)
(5.318338 0.019339359 0)
(5.3088404 0.024272635 0)
(5.2989057 0.030383902 0)
(5.2887172 0.037884432 0)
(5.2785637 0.046996934 0)
(5.2688434 0.057862229 0)
(5.2600642 0.07053782 0)
(5.2528049 0.084865565 0)
(5.2476195 0.10047931 0)
(5.2449259 0.11675674 0)
(5.2448786 0.13293092 0)
(5.2473165 0.14821652 0)
(5.251792 0.16197536 0)
(5.2576889 0.17382536 0)
(5.2643633 0.18365893 0)
(5.3999577 5.1110941e-05 0)
(5.3993167 0.0001342089 0)
(5.3981903 0.00021270704 0)
(5.396812 0.00029140148 0)
(5.3951771 0.00038739378 0)
(5.3933082 0.00050584264 0)
(5.3911867 0.00065661973 0)
(5.3887947 0.00084761441 0)
(5.3861139 0.0010912248 0)
(5.3831111 0.0013973306 0)
(5.379781 0.0017842809 0)
(5.3760699 0.0022616731 0)
(5.3720207 0.0028839293 0)
(5.3674672 0.0037766127 0)
(5.36231 0.0049552888 0)
(5.3565715 0.006411703 0)
(5.3502173 0.0082073246 0)
(5.3432483 0.010423939 0)
(5.3356654 0.013174097 0)
(5.3274892 0.016587101 0)
(5.3187664 0.0208221 0)
(5.309579 0.026052934 0)
(5.3000728 0.032480548 0)
(5.2904653 0.040290526 0)
(5.2810726 0.049656295 0)
(5.2723084 0.060652607 0)
(5.2646631 0.073243194 0)
(5.2586515 0.087182973 0)
(5.254713 0.10203412 0)
(5.253113 0.11717136 0)
(5.2538588 0.13189698 0)
(5.2566898 0.14556664 0)
(5.2611398 0.15770995 0)
(5.2666523 0.16809039 0)
(5.2726917 0.17669027 0)
(5.3999581 5.5538775e-05 0)
(5.3993148 0.00014610939 0)
(5.3981805 0.0002318066 0)
(5.3967898 0.00031770204 0)
(5.3951397 0.00042236757 0)
(5.3932536 0.00055143676 0)
(5.3911134 0.00071564238 0)
(5.3887017 0.00092353418 0)
(5.3860008 0.001188586 0)
(5.3829776 0.0015214701 0)
(5.3796276 0.0019422836 0)
(5.3758965 0.0024608603 0)
(5.3718293 0.0031368734 0)
(5.3672633 0.0041031769 0)
(5.3621129 0.0053737254 0)
(5.3564027 0.0069425873 0)
(5.3501007 0.0088756858 0)
(5.3432132 0.0112581 0)
(5.3357505 0.014205729 0)
(5.327747 0.017849675 0)
(5.3192681 0.022347582 0)
(5.3104205 0.027865948 0)
(5.3013769 0.034587102 0)
(5.2923839 0.042665314 0)
(5.2837767 0.052220185 0)
(5.2759699 0.063258899 0)
(5.2694201 0.075660216 0)
(5.2645645 0.089109992 0)
(5.2617258 0.10313042 0)
(5.2610351 0.11712194 0)
(5.2623869 0.13047461 0)
(5.265462 0.14267784 0)
(5.2698053 0.15340069 0)
(5.2749278 0.16251457 0)
(5.28039 0.17006007 0)
(5.3999585 6.0248663e-05 0)
(5.3993131 0.0001588182 0)
(5.3981705 0.00025225067 0)
(5.3967669 0.00034588283 0)
(5.3951009 0.00045984508 0)
(5.3931967 0.00060028146 0)
(5.391037 0.00077884104 0)
(5.3886046 0.001004772 0)
(5.3858828 0.0012926886 0)
(5.3828385 0.0016540967 0)
(5.3794683 0.0021109653 0)
(5.3757171 0.0026733435 0)
(5.3716319 0.0034063029 0)
(5.3670552 0.0044499171 0)
(5.3619151 0.0058162772 0)
(5.3562379 0.0075020688 0)
(5.3499954 0.0095775022 0)
(5.3431997 0.012130416 0)
(5.3358716 0.01527901 0)
(5.3280601 0.019154534 0)
(5.3198499 0.023910465 0)
(5.3113717 0.029702325 0)
(5.3028227 0.036689083 0)
(5.2944726 0.044988737 0)
(5.2866663 0.054664412 0)
(5.2798051 0.065657353 0)
(5.2742981 0.077773394 0)
(5.2704964 0.09064926 0)
(5.2686113 0.1037954 0)
(5.2686615 0.11665946 0)
(5.2704609 0.12872717 0)
(5.273664 0.1396086 0)
(5.2778453 0.1490847 0)
(5.2825843 0.15710466 0)
(5.2875235 0.16374494 0)
(5.3999589 6.5257977e-05 0)
(5.3993114 0.00017239129 0)
(5.3981603 0.00027413906 0)
(5.3967433 0.00037608817 0)
(5.3950606 0.00050001945 0)
(5.3931376 0.00065262583 0)
(5.3909575 0.00084653107 0)
(5.3885037 0.0010917218 0)
(5.3857602 0.0014040192 0)
(5.3826943 0.0017958061 0)
(5.3793036 0.0022910503 0)
(5.3755324 0.0029000046 0)
(5.3714292 0.0036932142 0)
(5.3668444 0.0048178549 0)
(5.3617185 0.0062839449 0)
(5.3560796 0.0080910282 0)
(5.3499044 0.010313314 0)
(5.3432119 0.013040738 0)
(5.3360337 0.016392552 0)
(5.3284346 0.020498257 0)
(5.3205182 0.02550426 0)
(5.3124383 0.03155135 0)
(5.304413 0.038770741 0)
(5.2967281 0.047240214 0)
(5.289728 0.056965896 0)
(5.283788 0.067827762 0)
(5.2792586 0.079573166 0)
(5.2764026 0.091810024 0)
(5.2753302 0.10406063 0)
(5.2759705 0.11583409 0)
(5.2780859 0.12671164 0)
(5.2813281 0.13640779 0)
(5.2853118 0.14479059 0)
(5.2896812 0.15186351 0)
(5.2941478 0.1577233 0)
(5.3999593 7.0584978e-05 0)
(5.3993097 0.00018688805 0)
(5.3981501 0.00029757845 0)
(5.3967191 0.00040847321 0)
(5.3950192 0.00054309854 0)
(5.3930764 0.00070873777 0)
(5.3908752 0.00091905098 0)
(5.3883993 0.001184805 0)
(5.3856334 0.0015230967 0)
(5.3825455 0.0019472302 0)
(5.3791341 0.0024833019 0)
(5.3753433 0.0031417676 0)
(5.3712227 0.0039986345 0)
(5.3666324 0.0052080117 0)
(5.3615251 0.0067776868 0)
(5.3559306 0.0087102355 0)
(5.3498313 0.011083438 0)
(5.343254 0.01398852 0)
(5.3362423 0.017544336 0)
(5.3288765 0.021876509 0)
(5.3212793 0.027121297 0)
(5.313625 0.03340102 0)
(5.3061487 0.040815325 0)
(5.2991443 0.049399158 0)
(5.2929453 0.059103365 0)
(5.2878898 0.069754033 0)
(5.2842634 0.081055859 0)
(5.2822425 0.092607198 0)
(5.2818498 0.10396049 0)
(5.2829482 0.1146939 0)
(5.2852723 0.12447845 0)
(5.2884871 0.1331159 0)
(5.2922522 0.1405402 0)
(5.2962705 0.14679119 0)
(5.3003106 0.15197536 0)
(5.3999597 7.624881e-05 0)
(5.3993083 0.00020237129 0)
(5.3981399 0.00032268275 0)
(5.3966946 0.00044320444 0)
(5.3949766 0.00058930576 0)
(5.3930135 0.00076890503 0)
(5.3907903 0.00099676359 0)
(5.3882916 0.0012844721 0)
(5.3855028 0.0016504731 0)
(5.3823927 0.0021090381 0)
(5.3789606 0.0026885209 0)
(5.3751509 0.0033995949 0)
(5.3710136 0.0043236163 0)
(5.3664211 0.0056213968 0)
(5.3613374 0.0072983987 0)
(5.355794 0.0093603171 0)
(5.34978 0.011887918 0)
(5.343331 0.014972757 0)
(5.3365029 0.018731636 0)
(5.329392 0.023283978 0)
(5.3221386 0.02875273 0)
(5.3149351 0.035238186 0)
(5.3080283 0.042805435 0)
(5.3017117 0.051445543 0)
(5.2962983 0.061058 0)
(5.2920805 0.071424559 0)
(5.2892754 0.082223393 0)
(5.2879797 0.093060297 0)
(5.2881446 0.10353076 0)
(5.2895877 0.11328404 0)
(5.292034 0.12207174 0)
(5.295173 0.1297663 0)
(5.2987094 0.13635002 0)
(5.3023976 0.14188587 0)
(5.3060532 0.14648302 0)
(5.3999601 8.226954e-05 0)
(5.3993069 0.00021890735 0)
(5.3981298 0.00034957319 0)
(5.3966697 0.00048046025 0)
(5.3949332 0.00063888088 0)
(5.392949 0.00083343624 0)
(5.3907033 0.0010800571 0)
(5.388181 0.0013912033 0)
(5.385369 0.001786734 0)
(5.3822365 0.0022819354 0)
(5.378784 0.0029075445 0)
(5.3749564 0.0036744829 0)
(5.3708037 0.004669229 0)
(5.3662127 0.006058995 0)
(5.3611581 0.0078468909 0)
(5.3556731 0.01004172 0)
(5.3497547 0.012726474 0)
(5.3434477 0.015991919 0)
(5.3368211 0.019950961 0)
(5.3299867 0.024714343 0)
(5.323101 0.030388578 0)
(5.3163705 0.037048748 0)
(5.310048 0.044723429 0)
(5.3044181 0.053360484 0)
(5.299765 0.062813987 0)
(5.296329 0.072832386 0)
(5.2942596 0.083082768 0)
(5.2935831 0.093192315 0)
(5.2941956 0.10280739 0)
(5.2958873 0.11164615 0)
(5.298388 0.11952978 0)
(5.301417 0.1263863 0)
(5.3047222 0.13223232 0)
(5.3081024 0.13714437 0)
(5.3114113 0.14122973 0)
(5.3999606 8.8668151e-05 0)
(5.3993057 0.00023656611 0)
(5.3981199 0.00037837853 0)
(5.3966448 0.00052043137 0)
(5.3948892 0.00069208076 0)
(5.3928833 0.0009026618 0)
(5.3906143 0.0011693461 0)
(5.3880682 0.0015055097 0)
(5.3852325 0.0019324993 0)
(5.3820777 0.0024666639 0)
(5.3786054 0.0031412427 0)
(5.3747613 0.0039674544 0)
(5.370595 0.0050365488 0)
(5.3660096 0.0065217516 0)
(5.36099 0.0084238624 0)
(5.3555717 0.01075467 0)
(5.3497599 0.013598448 0)
(5.3436096 0.017043891 0)
(5.3372029 0.021197995 0)
(5.3306662 0.026160265 0)
(5.3241702 0.032017817 0)
(5.3179311 0.038817917 0)
(5.3122014 0.046551875 0)
(5.3072489 0.055126807 0)
(5.3033214 0.064358946 0)
(5.3006046 0.073975177 0)
(5.299184 0.083645388 0)
(5.2990268 0.093028645 0)
(5.2999895 0.10182562 0)
(5.3018501 0.10981808 0)
(5.3043527 0.11688541 0)
(5.3072487 0.12299807 0)
(5.3103257 0.12819606 0)
(5.31342 0.13256262 0)
(5.3164165 0.13620038 0)
(5.399961 9.5466587e-05 0)
(5.3993047 0.00025542095 0)
(5.3981103 0.00040923512 0)
(5.3966199 0.00056332122 0)
(5.3948448 0.00074917997 0)
(5.3928166 0.00097693471 0)
(5.3905239 0.0012650724 0)
(5.3879535 0.0016279337 0)
(5.3850942 0.0020884226 0)
(5.3819174 0.0026639997 0)
(5.3784259 0.003390514 0)
(5.3745671 0.0042795493 0)
(5.3703897 0.0054266452 0)
(5.3658146 0.007010554 0)
(5.3608367 0.0090298709 0)
(5.3554938 0.011499127 0)
(5.3498004 0.014502748 0)
(5.3438221 0.01812591 0)
(5.3376537 0.022467562 0)
(5.3314354 0.027613409 0)
(5.3253487 0.033628529 0)
(5.3196151 0.040530531 0)
(5.3144799 0.048274035 0)
(5.3101871 0.056729538 0)
(5.3069428 0.065684195 0)
(5.3048778 0.07485498 0)
(5.3040201 0.083926292 0)
(5.3042901 0.092596065 0)
(5.3055185 0.10061913 0)
(5.3074828 0.10783379 0)
(5.3099473 0.11416664 0)
(5.312696 0.11961956 0)
(5.3155516 0.12424759 0)
(5.3183819 0.12813598 0)
(5.3210966 0.13138109 0)
(5.3999614 0.00010268775 0)
(5.399304 0.0002755487 0)
(5.3981011 0.0004422868 0)
(5.3965953 0.00060934618 0)
(5.3948003 0.00081047134 0)
(5.3927495 0.0010566312 0)
(5.3904327 0.0013677054 0)
(5.3878378 0.0017590489 0)
(5.3849548 0.0022551906 0)
(5.3817566 0.0028747507 0)
(5.3782471 0.0036562797 0)
(5.374376 0.0046118128 0)
(5.3701904 0.0058405647 0)
(5.3656308 0.0075262109 0)
(5.3607017 0.009665301 0)
(5.3554439 0.012274741 0)
(5.3498815 0.01543779 0)
(5.3440908 0.019234513 0)
(5.3381792 0.023753606 0)
(5.3322984 0.029064511 0)
(5.3266379 0.035208099 0)
(5.3214187 0.042171425 0)
(5.3168725 0.049874346 0)
(5.3132137 0.058156321 0)
(5.3106038 0.066784858 0)
(5.3091208 0.07547784 0)
(5.3087435 0.083943328 0)
(5.3093571 0.091921861 0)
(5.310779 0.099219628 0)
(5.3127947 0.10572348 0)
(5.3151919 0.11139722 0)
(5.3177854 0.11626517 0)
(5.3204287 0.12039124 0)
(5.3230158 0.12385949 0)
(5.3254765 0.12675921 0)
(5.3999618 0.00011035554 0)
(5.3993034 0.00029702957 0)
(5.3980924 0.00047768478 0)
(5.3965712 0.00065873559 0)
(5.3947561 0.00087626621 0)
(5.3926822 0.0011421513 0)
(5.3903411 0.0014777425 0)
(5.3877217 0.0018994601 0)
(5.3848154 0.0024335213 0)
(5.3815966 0.0030997533 0)
(5.3780706 0.0039394762 0)
(5.3741899 0.0049652796 0)
(5.3700001 0.00627931 0)
(5.3654618 0.0080694285 0)
(5.3605893 0.010330328 0)
(5.3554268 0.013080797 0)
(5.3500085 0.016401441 0)
(5.3444215 0.020365499 0)
(5.3387844 0.025049199 0)
(5.3332586 0.030503486 0)