/*--------------------------------*- C++ -*----------------------------------*\
  =========                 |
  \\      /  F ield         | OpenFOAM: The Open Source CFD Toolbox
   \\    /   O peration     | Website:  https://openfoam.org
    \\  /    A nd           | Version:  12
     \\/     M anipulation  |
\*---------------------------------------------------------------------------*/
FoamFile
{
    format      ascii;
    class       volScalarField;
    location    "2000";
    object      yPlus;
}
// * * * * * * * * * * * * * * * * * * * * * * * * * * * * * * * * * * * * * //

dimensions      [];

internalField   uniform 0;

boundaryField
{
    lowerWall
    {
        type            calculated;
        value           nonuniform List<scalar> 
600
(
1.3468308
1.066389
0.88268766
0.76991388
0.70917615
0.66797201
0.63597523
0.61018221
0.58872351
0.57040547
0.55447621
0.54043675
0.52790777
0.51661105
0.50634356
0.49694458
0.48828492
0.48026269
0.47279562
0.46581668
0.45926906
0.45310446
0.44728277
0.44176978
0.43653615
0.43155641
0.42680799
0.42227117
0.41792876
0.41376552
0.40976793
0.40592401
0.40222282
0.39865446
0.39521011
0.39188179
0.38866227
0.38554498
0.38252394
0.3795936
0.37674885
0.373985
0.37129776
0.36868315
0.36613751
0.36365745
0.36123979
0.35888161
0.35658013
0.35433298
0.35213783
0.34999259
0.34789533
0.34584402
0.34383684
0.34187216
0.33994839
0.33806386
0.33621695
0.33440615
0.3326301
0.33088762
0.32917747
0.32749844
0.32584936
0.32422918
0.3226369
0.32107171
0.31953281
0.31801925
0.31653027
0.31506513
0.31362308
0.31220344
0.31080564
0.30942906
0.30807309
0.30673706
0.30542039
0.30412249
0.30284287
0.30158107
0.30033674
0.29910945
0.29789877
0.29670425
0.29552547
0.29436201
0.29321352
0.29207963
0.2909601
0.28985466
0.288763
0.2876848
0.28661974
0.28556752
0.28452783
0.28350042
0.28248504
0.28148152
0.28048971
0.27950938
0.27854027
0.27758217
0.27663484
0.27569807
0.27477163
0.27385539
0.27294915
0.27205286
0.27116639
0.2702896
0.26942232
0.2685644
0.26771563
0.26687589
0.26604502
0.26522293
0.26440946
0.26360463
0.2628083
0.26202042
0.26124121
0.26047052
0.25970801
0.25895343
0.25820656
0.25746725
0.25673543
0.25601106
0.25529414
0.25458468
0.25388262
0.25318788
0.2525004
0.2518201
0.25114693
0.25048081
0.2498217
0.24916956
0.2485244
0.24788623
0.24725505
0.24663079
0.2460134
0.24540281
0.24479896
0.24420179
0.24361125
0.24302728
0.24244988
0.24187906
0.24131485
0.24075722
0.24020614
0.23966153
0.23912338
0.23859159
0.23806618
0.23754705
0.23703423
0.23652761
0.23602732
0.23553326
0.23504562
0.23456413
0.23408906
0.23361996
0.23315726
0.23270048
0.23224966
0.2318054
0.23136763
0.23093556
0.23050911
0.23008814
0.22967281
0.22926311
0.22885909
0.22846077
0.22806815
0.22768126
0.22730009
0.22692465
0.22655492
0.2261909
0.2258326
0.22548005
0.22513335
0.22479252
0.22445751
0.22412831
0.22380485
0.22348711
0.22317501
0.22286861
0.22256783
0.22227266
0.22198301
0.22169891
0.22142036
0.22114738
0.22087992
0.22061804
0.2203616
0.22011054
0.21986474
0.21962413
0.21938863
0.21915813
0.21893258
0.21871186
0.21849621
0.21828558
0.21807973
0.21787847
0.21768165
0.21748896
0.21730037
0.21711535
0.21693406
0.21675555
0.21658028
0.21640815
0.21623831
0.21606971
0.21590218
0.21573544
0.2155694
0.21540395
0.21523898
0.21507424
0.21490961
0.21474487
0.21457991
0.21441466
0.21424896
0.21408258
0.21391539
0.21374719
0.21357788
0.21340734
0.21323554
0.21306242
0.21288799
0.21271229
0.21253551
0.21235766
0.21217879
0.21199889
0.21181802
0.21163618
0.21145345
0.21126986
0.21108552
0.21090044
0.21071496
0.21052905
0.21034285
0.21015629
0.20996948
0.20978235
0.20959512
0.20940763
0.20922009
0.20903248
0.20884518
0.208658
0.20847114
0.20828426
0.20809793
0.20791139
0.20772545
0.20753986
0.20735427
0.20716819
0.20698201
0.20679581
0.20660988
0.20642427
0.20623907
0.20605417
0.20586977
0.20568589
0.20550268
0.20532028
0.20513849
0.20495737
0.20477678
0.2045969
0.20441755
0.20423874
0.20406064
0.20388324
0.20370661
0.20353059
0.20335534
0.20318064
0.20300654
0.20283301
0.20266003
0.20248769
0.20231609
0.20214514
0.20197475
0.20180484
0.20163545
0.20146636
0.2012976
0.20112936
0.20096168
0.20079435
0.20062749
0.20046075
0.20029423
0.20012782
0.19996151
0.19979545
0.19962973
0.19946405
0.19929844
0.19913288
0.19896722
0.19880155
0.1986358
0.1984702
0.19830455
0.1981391
0.19797329
0.19780782
0.19764202
0.19747547
0.19730829
0.19714093
0.19697351
0.19680602
0.1966385
0.19647096
0.19630334
0.19613566
0.19596818
0.19580092
0.19563378
0.19546673
0.19529979
0.19513288
0.19496597
0.19479929
0.19463288
0.19446676
0.1943008
0.19413504
0.19396943
0.19380395
0.19363862
0.19347371
0.19330909
0.19314484
0.19298078
0.19281699
0.19265339
0.19249
0.19232697
0.19216441
0.19200217
0.19184025
0.19167863
0.19151723
0.19135607
0.19119533
0.19103505
0.1908751
0.19071557
0.19055625
0.19039732
0.19023851
0.1900802
0.18992226
0.18976483
0.18960762
0.18945084
0.18929423
0.18913796
0.18898198
0.18882651
0.18867138
0.18851671
0.18836225
0.18820812
0.18805418
0.18790061
0.18774745
0.18759473
0.1874423
0.18729027
0.1871384
0.18698683
0.18683549
0.18668463
0.18653412
0.18638396
0.18623414
0.18608444
0.18593437
0.18578438
0.18563464
0.18548533
0.18533628
0.1851876
0.18503906
0.1848909
0.18474289
0.18459536
0.18444815
0.18430129
0.18415469
0.18400837
0.18386222
0.18371647
0.18357099
0.18342597
0.18328118
0.18313673
0.18299251
0.1828485
0.18270481
0.18256154
0.1824186
0.182276
0.18213362
0.18199156
0.18184969
0.18170816
0.18156706
0.18142631
0.18128587
0.18114569
0.1810058
0.18086614
0.18072685
0.18058796
0.18044948
0.18031128
0.18017337
0.18003572
0.17989836
0.17976136
0.17962481
0.17948864
0.1793528
0.17921724
0.17908196
0.17894699
0.17881236
0.17867828
0.17854449
0.17841105
0.17827793
0.17814523
0.17801262
0.17788033
0.17774825
0.17761618
0.17748415
0.17735237
0.17722051
0.17708886
0.17695738
0.17682623
0.17669508
0.17656441
0.17643382
0.17630352
0.17617339
0.17604382
0.17591446
0.17578533
0.17565648
0.17552796
0.17539978
0.17527172
0.17514434
0.17501713
0.1748907
0.17476408
0.17463824
0.17451227
0.17438735
0.17426233
0.17413813
0.17401386
0.17389055
0.17376711
0.17364453
0.17352167
0.17340011
0.1732782
0.17315757
0.1730363
0.17291631
0.17279593
0.17267699
0.17255767
0.17243935
0.17232045
0.17220282
0.17208471
0.171968
0.17185076
0.17173488
0.17161865
0.17150378
0.1713885
0.17127438
0.17115984
0.17104686
0.17093345
0.1708215
0.17070895
0.17059775
0.17048609
0.17037604
0.17026549
0.17015646
0.17004669
0.16993854
0.16982982
0.16972276
0.16961504
0.16950896
0.16940208
0.16929702
0.16919121
0.16908715
0.16898227
0.16887915
0.16877519
0.16867325
0.1685703
0.16846929
0.16836717
0.16826712
0.16816607
0.1680672
0.16796716
0.16786918
0.16776993
0.16767282
0.1675746
0.1674788
0.16738164
0.16728677
0.16719046
0.1670964
0.16700103
0.16690812
0.16681377
0.16672193
0.16662853
0.16653759
0.16644522
0.16635534
0.16626389
0.16617504
0.1660845
0.1659966
0.1659071
0.16582023
0.16573175
0.16564586
0.16555837
0.16547335
0.1653869
0.16530284
0.16521747
0.16513436
0.16505004
0.1649678
0.16488454
0.16480333
0.1647211
0.1646408
0.16455941
0.16448016
0.16439961
0.16432174
0.16424185
0.16416537
0.16408589
0.16401058
0.16393195
0.16385667
0.16378078
0.16370182
0.16363397
0.16354224
0.1634993
0.16337157
0.1633926
0.1631917
)
;
    }
    lowerSymmetry
    {
        type            calculated;
        value           uniform 0;
    }
    upperSymmetry
    {
        type            calculated;
        value           uniform 0;
    }
    inlet
    {
        type            calculated;
        value           uniform 0;
    }
    outlet
    {
        type            calculated;
        value           uniform 0;
    }
    defaultFaces
    {
        type            empty;
    }
}


// ************************************************************************* //
