#      distance             U_x             U_y             U_z wallShearStr... wallShearStr... wallShearStr...               p         epsilon               k             nut
    0.001215373      0.64041326   3.8118316e-05  -2.4314451e-20               0               0               0   0.00024598365      0.13703023    0.0042642676   1.5756227e-05
   0.0020572852      0.69658875   6.0802769e-05  -5.8172276e-22               0               0               0   0.00024679838     0.067920897    0.0041762107   2.5503528e-05
   0.0029273097      0.73275991   9.1494024e-05   3.0412048e-21               0               0               0   0.00024761718     0.043787624    0.0040260296   3.4967356e-05
   0.0038263852      0.76025542   0.00012593448   1.2142066e-20               0               0               0   0.00024846174     0.031980215    0.0038973266   4.3959138e-05
   0.0047554818      0.78285982   0.00016376691   2.4843042e-20               0               0               0   0.00024935534     0.024981464    0.0037747374   5.2264976e-05
   0.0057156019      0.80236053   0.00020519589   1.8553283e-20               0               0               0   0.00025028702     0.020327634    0.0036510883    5.975943e-05
   0.0067077814      0.81973927   0.00025043031    9.434717e-21               0               0               0   0.00025124167     0.016984424    0.0035226696   6.6357168e-05
   0.0077330908      0.83559155   0.00029967244   1.0229285e-20               0               0               0   0.00025220865     0.014443272     0.003387252   7.1992951e-05
   0.0087926364      0.85030461   0.00035315777  -8.1365341e-21               0               0               0   0.00025318047     0.012425208    0.0032432926    7.661278e-05
   0.0098875613      0.86414304   0.00041116766  -4.8844269e-20               0               0               0   0.00025414802     0.010764411    0.0030895962    8.016975e-05
    0.011019047      0.87729385   0.00047382729  -6.1126457e-20               0               0               0   0.00025509527    0.0093560988    0.0029251664   8.2622134e-05
    0.012188314      0.88989166    0.0005413557  -1.6971358e-20               0               0               0   0.00025600541     0.008130878     0.002749148   8.3932754e-05
    0.013396624      0.90203327   0.00061418592    2.129144e-20               0               0               0   0.00025686742    0.0070411645    0.0025608235   8.4069297e-05
    0.014645281      0.91378597   0.00069242793   1.3928348e-20               0               0               0   0.00025767255    0.0060536378    0.0023596536   8.3005627e-05
    0.015935632      0.92519173   0.00077606533  -3.5079818e-22               0               0               0   0.00025840842    0.0051449414    0.0021453655   8.0724478e-05
    0.017269069      0.93626802   0.00086511237    -2.51883e-21               0               0               0   0.00025905654     0.004299298    0.0019181085   7.7222449e-05
    0.018647031      0.94700519   0.00095932725               0               0               0               0   0.00025959683    0.0035073989    0.0016787183   7.2519234e-05
    0.020071004      0.95735931    0.0010580889  -3.8237032e-21               0               0               0   0.00026001081    0.0027662996    0.0014291683   6.6675378e-05
    0.021542526      0.96723781    0.0011601589  -3.8237035e-21               0               0               0   0.00026028142    0.0020802521     0.001173353   5.9828316e-05
    0.023063183      0.97647276    0.0012632481   3.9734234e-21               0               0               0   0.00026039561    0.0014623712   0.00091844195   5.2269881e-05
    0.024634616      0.98477793    0.0013632183   2.7781339e-20               0               0               0   0.00026034283   0.00093604889   0.00067695727   4.4616163e-05
    0.026258521      0.99171692    0.0014529804   4.7982307e-20               0               0               0   0.00026009933   0.00053109083   0.00046818343   3.8130795e-05
     0.02793665        0.996824    0.0015227544   3.1660538e-20               0               0               0   0.00025960012   0.00026572995   0.00031289322    3.499299e-05
    0.029670814      0.99998076     0.001567334   7.4861465e-21               0               0               0   0.00025877659   0.00012381038   0.00021839217    3.764994e-05
    0.031462883       1.0016266    0.0015909946   6.2896387e-21               0               0               0   0.00025765476    6.064493e-05   0.00017119137   4.7090682e-05
    0.033314791        1.002416    0.0016023047  -1.2552195e-22               0               0               0   0.00025633922   3.4531635e-05   0.00015012165   6.2007471e-05
    0.035228536       1.0028082     0.001607786  -6.4151621e-21               0               0               0   0.00025491393    2.299111e-05   0.00014064422     7.99685e-05
    0.037206184       1.0030225    0.0016104694  -2.4943372e-21               0               0               0    0.0002534239   1.7173857e-05    0.0001360807   9.8888992e-05
    0.039249867        1.003151    0.0016117154  -2.1922003e-20               0               0               0   0.00025189092   1.3861864e-05   0.00013375267    0.0001174679
     0.04136179       1.0032334    0.0016121464  -3.8776069e-20               0               0               0   0.00025031416   1.1792983e-05   0.00013254817   0.00013501738
    0.043544233       1.0032888    0.0016120876  -1.9348404e-20               0               0               0   0.00024868477   1.0408918e-05   0.00013196029   0.00015123578
     0.04579955       1.0033272    0.0016117075               0               0               0               0   0.00024699795   9.4336211e-06   0.00013173462   0.00016604997
    0.048130175       1.0033541    0.0016110931  -1.6812242e-20               0               0               0   0.00024525262   8.7175345e-06   0.00013173251   0.00017951676
    0.050538621        1.003373    0.0016103009  -3.1359775e-20               0               0               0   0.00024344832   8.1734671e-06   0.00013187281   0.00019176161
    0.053027488        1.003386    0.0016093721  -1.4547533e-20               0               0               0   0.00024158451   7.7475152e-06   0.00013210539   0.00020294192
    0.055599461       1.0033948    0.0016083381  -1.3964652e-20               0               0               0   0.00023966091   7.4047507e-06   0.00013239794   0.00021322461
    0.058257315       1.0034005    0.0016072225  -4.1792317e-20               0               0               0    0.0002376782   7.1216797e-06   0.00013272872   0.00022277215
    0.061003917        1.003404    0.0016060394   -3.308706e-20               0               0               0   0.00023563836   6.8820314e-06   0.00013308288   0.00023173556
    0.063842231       1.0034057    0.0016047917   8.5276693e-21               0               0               0   0.00023354214   6.6742855e-06   0.00013345007   0.00024025063
     0.06677532       1.0034062    0.0016034821   3.3048374e-20               0               0               0   0.00023138752   6.4901535e-06   0.00013382306   0.00024843672
    0.069806347       1.0034057    0.0016021084   3.2933409e-20               0               0               0   0.00022917066   6.3236073e-06   0.00013419686    0.0002563969
    0.072938584       1.0034042     0.001600653   1.9711595e-20               0               0               0   0.00022688534   6.1702342e-06   0.00013456805   0.00026421911
    0.076175409        1.003402    0.0015991204   6.0394981e-21               0               0               0   0.00022452916   6.0267936e-06   0.00013493439   0.00027197776
    0.079520315       1.0033993    0.0015975295               0               0               0               0   0.00022211495   5.8909032e-06   0.00013529449   0.00027973558
    0.082976911       1.0033963    0.0015958907   6.6924957e-21               0               0               0   0.00021966764    5.760812e-06   0.00013564759   0.00028754555
    0.086548926       1.0033937    0.0015941471  -3.4427885e-21               0               0               0   0.00021719815   5.6352317e-06   0.00013599339   0.00029545286
    0.090240215       1.0033922    0.0015922412  -3.4035677e-21               0               0               0   0.00021468873   5.5132117e-06   0.00013633189   0.00030349669
     0.09405476        1.003393    0.0015901673   2.8465518e-20               0               0               0   0.00021211624   5.3940449e-06   0.00013666336   0.00031171193
