/*--------------------------------*- C++ -*----------------------------------*\
  =========                 |
  \\      /  F ield         | OpenFOAM: The Open Source CFD Toolbox
   \\    /   O peration     | Website:  https://openfoam.org
    \\  /    A nd           | Version:  12
     \\/     M anipulation  |
\*---------------------------------------------------------------------------*/
FoamFile
{
    format      ascii;
    class       volScalarField;
    location    "700";
    object      nut;
}
// * * * * * * * * * * * * * * * * * * * * * * * * * * * * * * * * * * * * * //

dimensions      [0 2 -1 0 0 0 0];

internalField   nonuniform List<scalar> 
13056
(
1.4727706e-06
1.4728499e-06
1.4731006e-06
1.4734958e-06
1.4739961e-06
1.4745815e-06
1.4752397e-06
1.4759611e-06
1.4767382e-06
1.4775655e-06
1.4784393e-06
1.4793582e-06
1.4803222e-06
1.4813335e-06
1.4823974e-06
1.4835211e-06
1.4847208e-06
1.4860068e-06
1.4874351e-06
1.4889872e-06
1.4908861e-06
1.4929941e-06
1.4957756e-06
1.5022081e-06
2.8235475e-13
8.1539044e-14
6.5892702e-14
6.0919905e-14
5.7858912e-14
5.5371528e-14
5.322897e-14
5.1354502e-14
4.9696254e-14
4.8211738e-14
4.6869282e-14
4.5645907e-14
4.4524198e-14
4.3490284e-14
4.2532824e-14
4.1642479e-14
4.081144e-14
4.0033107e-14
3.9301784e-14
3.8612586e-14
3.7961308e-14
3.7344253e-14
3.6758285e-14
3.6200599e-14
3.5668669e-14
3.5160366e-14
3.4673746e-14
3.4207013e-14
3.3758627e-14
3.3327224e-14
3.2911504e-14
3.2510288e-14
3.2122587e-14
3.1747476e-14
3.1384045e-14
3.103149e-14
3.0689134e-14
3.0356332e-14
3.0032429e-14
2.9716837e-14
2.940908e-14
2.9108694e-14
2.8815199e-14
2.8528156e-14
2.8247191e-14
2.7971967e-14
2.7702144e-14
2.7437375e-14
2.7177345e-14
2.6921809e-14
2.6670517e-14
2.6423199e-14
2.6179598e-14
2.5939492e-14
2.5702695e-14
2.5469012e-14
2.5238226e-14
2.5010132e-14
2.4784571e-14
2.4561391e-14
2.4340423e-14
2.4121488e-14
2.3904414e-14
2.3689078e-14
2.3475347e-14
2.3263066e-14
2.3052073e-14
2.2842228e-14
2.2633416e-14
2.2425513e-14
2.221836e-14
2.2011802e-14
2.1805724e-14
2.1600009e-14
2.1394503e-14
2.1189043e-14
2.0983489e-14
2.0777715e-14
2.0571572e-14
2.036488e-14
2.0157477e-14
1.9949222e-14
1.973994e-14
1.9529419e-14
1.9317475e-14
1.9103929e-14
1.8888552e-14
1.8671078e-14
1.8451343e-14
1.8233851e-14
1.8025406e-14
1.782784e-14
1.7640256e-14
1.7461813e-14
1.7291755e-14
1.7129435e-14
1.6974274e-14
1.6825719e-14
1.668327e-14
1.6546506e-14
1.6415044e-14
1.6288516e-14
1.6166575e-14
1.6048882e-14
1.5935171e-14
1.5825059e-14
1.5718471e-14
1.5614167e-14
1.5513825e-14
1.5409856e-14
1.5319824e-14
1.5170196e-14
1.4727706e-06
1.4728499e-06
1.4731005e-06
1.4734958e-06
1.4739962e-06
1.4745817e-06
1.47524e-06
1.4759616e-06
1.4767388e-06
1.4775662e-06
1.4784402e-06
1.4793592e-06
1.4803233e-06
1.4813348e-06
1.4823988e-06
1.4835226e-06
1.4847224e-06
1.4860086e-06
1.4874369e-06
1.4889891e-06
1.4908878e-06
1.492996e-06
1.4957762e-06
1.5022194e-06
2.0788485e-11
6.7235568e-12
5.4404314e-12
5.0302235e-12
4.7776536e-12
4.5725187e-12
4.395817e-12
4.2411929e-12
4.1043734e-12
3.9818691e-12
3.8710757e-12
3.7701013e-12
3.6775111e-12
3.5921621e-12
3.5131198e-12
3.4396147e-12
3.3710029e-12
3.3067402e-12
3.2463569e-12
3.18945e-12
3.1356729e-12
3.0847203e-12
3.0363336e-12
2.9902815e-12
2.9463555e-12
2.9043798e-12
2.8641941e-12
2.8256503e-12
2.788621e-12
2.7529938e-12
2.7186615e-12
2.6855266e-12
2.6535075e-12
2.6225279e-12
2.5925127e-12
2.5633955e-12
2.5351203e-12
2.5076341e-12
2.4808826e-12
2.4548174e-12
2.4293991e-12
2.4045894e-12
2.3803488e-12
2.356641e-12
2.3334349e-12
2.310703e-12
2.288417e-12
2.2665484e-12
2.2450711e-12
2.2239649e-12
2.2032091e-12
2.1827815e-12
2.1626608e-12
2.1428288e-12
2.12327e-12
2.1039682e-12
2.0849058e-12
2.0660657e-12
2.0474347e-12
2.0290002e-12
2.0107485e-12
1.9926646e-12
1.9747344e-12
1.9569477e-12
1.9392935e-12
1.921759e-12
1.9043309e-12
1.8869976e-12
1.8697495e-12
1.8525765e-12
1.8354654e-12
1.8184033e-12
1.8013809e-12
1.7843885e-12
1.7674132e-12
1.7504418e-12
1.7334625e-12
1.716465e-12
1.699437e-12
1.6823636e-12
1.6652314e-12
1.6480289e-12
1.6307413e-12
1.6133515e-12
1.5958441e-12
1.5782043e-12
1.5604132e-12
1.5424489e-12
1.5242977e-12
1.5063318e-12
1.4891132e-12
1.4727932e-12
1.4572977e-12
1.4425574e-12
1.4285095e-12
1.4151009e-12
1.4022837e-12
1.3900122e-12
1.378245e-12
1.3669474e-12
1.3560878e-12
1.3456358e-12
1.3355627e-12
1.3258405e-12
1.3164472e-12
1.3073512e-12
1.2985464e-12
1.2899304e-12
1.2816415e-12
1.2730541e-12
1.2656168e-12
1.2532562e-12
1.4727704e-06
1.4728497e-06
1.4731004e-06
1.4734958e-06
1.4739965e-06
1.4745822e-06
1.4752409e-06
1.4759629e-06
1.4767405e-06
1.4775683e-06
1.4784428e-06
1.4793622e-06
1.4803267e-06
1.4813386e-06
1.482403e-06
1.4835271e-06
1.4847272e-06
1.4860136e-06
1.487442e-06
1.4889942e-06
1.4908926e-06
1.4930009e-06
1.4957769e-06
1.5022295e-06
1.5051695e-10
5.3758437e-11
4.3606792e-11
4.0324157e-11
3.8303374e-11
3.6663094e-11
3.5249938e-11
3.4012813e-11
3.2917664e-11
3.1936798e-11
3.1049503e-11
3.0240702e-11
2.9498945e-11
2.8815109e-11
2.8181735e-11
2.7592674e-11
2.7042782e-11
2.6527708e-11
2.6043697e-11
2.5587526e-11
2.515642e-11
2.4747938e-11
2.436001e-11
2.3990784e-11
2.3638593e-11
2.3302028e-11
2.2979804e-11
2.2670738e-11
2.2373809e-11
2.2088115e-11
2.1812798e-11
2.1547079e-11
2.1290302e-11
2.1041857e-11
2.0801142e-11
2.0567625e-11
2.0340857e-11
2.0120412e-11
1.9905858e-11
1.9696805e-11
1.9492938e-11
1.9293949e-11
1.9099523e-11
1.8909368e-11
1.8723235e-11
1.8540903e-11
1.8362147e-11
1.8186736e-11
1.8014464e-11
1.7845165e-11
1.7678676e-11
1.7514818e-11
1.7353421e-11
1.7194338e-11
1.7037445e-11
1.6882613e-11
1.67297e-11
1.6578569e-11
1.6429114e-11
1.6281235e-11
1.6134821e-11
1.5989752e-11
1.5845916e-11
1.5703229e-11
1.5561605e-11
1.542094e-11
1.5281128e-11
1.5142075e-11
1.5003706e-11
1.4865937e-11
1.4728665e-11
1.4591785e-11
1.4455223e-11
1.43189e-11
1.4182715e-11
1.404656e-11
1.391034e-11
1.3773974e-11
1.3637362e-11
1.3500386e-11
1.3362938e-11
1.3224923e-11
1.3086227e-11
1.2946709e-11
1.2806247e-11
1.2664722e-11
1.2521983e-11
1.2377853e-11
1.2232223e-11
1.2088079e-11
1.1949929e-11
1.181899e-11
1.1694665e-11
1.1576398e-11
1.1463687e-11
1.1356104e-11
1.1253266e-11
1.1154806e-11
1.1060392e-11
1.0969746e-11
1.0882613e-11
1.0798751e-11
1.0717929e-11
1.0639921e-11
1.0564554e-11
1.0491572e-11
1.0420925e-11
1.0351796e-11
1.028529e-11
1.0216402e-11
1.0156728e-11
1.0057547e-11
1.4727702e-06
1.4728495e-06
1.4731002e-06
1.4734958e-06
1.4739969e-06
1.4745831e-06
1.4752424e-06
1.475965e-06
1.4767434e-06
1.4775719e-06
1.4784471e-06
1.4793672e-06
1.4803324e-06
1.4813449e-06
1.4824099e-06
1.4835346e-06
1.4847351e-06
1.4860219e-06
1.4874505e-06
1.4890028e-06
1.4909004e-06
1.4930091e-06
1.4957775e-06
1.5022385e-06
5.5176511e-10
2.1767775e-10
1.7725316e-10
1.6394778e-10
1.5576107e-10
1.491196e-10
1.4339548e-10
1.383809e-10
1.3393886e-10
1.2995847e-10
1.2635654e-10
1.2307234e-10
1.2005965e-10
1.1728164e-10
1.1470818e-10
1.1231442e-10
1.1007954e-10
1.0798592e-10
1.0601837e-10
1.0416382e-10
1.0241102e-10
1.0075009e-10
9.9172628e-11
9.7671121e-11
9.6238813e-11
9.4869973e-11
9.3559402e-11
9.2302293e-11
9.1094497e-11
8.9932355e-11
8.8812388e-11
8.773143e-11
8.668681e-11
8.5676052e-11
8.469672e-11
8.3746647e-11
8.2824007e-11
8.192707e-11
8.1054083e-11
8.0203466e-11
7.9373924e-11
7.8564216e-11
7.7773061e-11
7.6999272e-11
7.6241837e-11
7.5499853e-11
7.4772408e-11
7.405857e-11
7.335749e-11
7.2668502e-11
7.1990935e-11
7.1324068e-11
7.066721e-11
7.0019761e-11
6.9381215e-11
6.8751048e-11
6.8128684e-11
6.7513568e-11
6.6905266e-11
6.6303369e-11
6.5707427e-11
6.5116958e-11
6.4531497e-11
6.3950709e-11
6.3374239e-11
6.2801667e-11
6.2232564e-11
6.1666545e-11
6.11033e-11
6.0542495e-11
5.9983707e-11
5.9426512e-11
5.8870604e-11
5.8315663e-11
5.7761277e-11
5.720701e-11
5.6652475e-11
5.609734e-11
5.5541198e-11
5.4983568e-11
5.442401e-11
5.3862143e-11
5.3297495e-11
5.2729497e-11
5.2157652e-11
5.1581471e-11
5.1000344e-11
5.0413548e-11
4.9820641e-11
4.9233776e-11
4.8671313e-11
4.81382e-11
4.7632015e-11
4.715049e-11
4.6691584e-11
4.6253555e-11
4.583484e-11
4.543395e-11
4.5049532e-11
4.4680452e-11
4.4325677e-11
4.3984216e-11
4.3655131e-11
4.3337508e-11
4.3030633e-11
4.273347e-11
4.2445816e-11
4.2164353e-11
4.1893555e-11
4.161313e-11
4.1370153e-11
4.0966287e-11
1.4727699e-06
1.4728491e-06
1.4730999e-06
1.4734958e-06
1.4739975e-06
1.4745844e-06
1.4752445e-06
1.4759681e-06
1.4767474e-06
1.477577e-06
1.4784532e-06
1.4793743e-06
1.4803405e-06
1.4813539e-06
1.4824198e-06
1.4835453e-06
1.4847464e-06
1.4860337e-06
1.4874625e-06
1.4890149e-06
1.4909114e-06
1.4930205e-06
1.495778e-06
1.5022462e-06
1.4577025e-09
6.3699207e-10
5.2160854e-10
4.8266044e-10
4.5870354e-10
4.3927492e-10
4.2251684e-10
4.0782045e-10
3.9478949e-10
3.8310454e-10
3.7252506e-10
3.6287473e-10
3.5401911e-10
3.4585083e-10
3.3828204e-10
3.3124021e-10
3.246645e-10
3.1850339e-10
3.1271237e-10
3.0725321e-10
3.0209295e-10
2.9720263e-10
2.9255756e-10
2.8813576e-10
2.839174e-10
2.7988565e-10
2.7602523e-10
2.7232205e-10
2.6876392e-10
2.6534007e-10
2.620403e-10
2.588553e-10
2.5577722e-10
2.5279877e-10
2.4991281e-10
2.4711297e-10
2.4439385e-10
2.4175037e-10
2.3917741e-10
2.3667029e-10
2.342252e-10
2.318385e-10
2.2950641e-10
2.2722546e-10
2.2499265e-10
2.2280532e-10
2.206608e-10
2.1855634e-10
2.1648945e-10
2.1445815e-10
2.1246048e-10
2.1049431e-10
2.0855762e-10
2.0664863e-10
2.0476584e-10
2.0290772e-10
2.0107258e-10
1.9925878e-10
1.9746503e-10
1.9569014e-10
1.9393277e-10
1.9219152e-10
1.9046501e-10
1.8875224e-10
1.8705218e-10
1.8536359e-10
1.836852e-10
1.8201588e-10
1.8035472e-10
1.7870072e-10
1.7705265e-10
1.7540926e-10
1.7376963e-10
1.7213283e-10
1.7049764e-10
1.6886278e-10
1.6722711e-10
1.6558963e-10
1.6394917e-10
1.623043e-10
1.6065371e-10
1.5899628e-10
1.5733063e-10
1.5565508e-10
1.5396814e-10
1.522684e-10
1.5055403e-10
1.4882292e-10
1.4707376e-10
1.4534239e-10
1.4368299e-10
1.4211015e-10
1.4061675e-10
1.3919608e-10
1.3784213e-10
1.3654976e-10
1.3531436e-10
1.3413154e-10
1.3299731e-10
1.3190833e-10
1.3086154e-10
1.2985403e-10
1.2888303e-10
1.2794585e-10
1.2704037e-10
1.2616355e-10
1.2531478e-10
1.2448432e-10
1.2368528e-10
1.2285807e-10
1.2214113e-10
1.2094934e-10
1.4727695e-06
1.4728486e-06
1.4730994e-06
1.4734958e-06
1.4739982e-06
1.4745861e-06
1.4752473e-06
1.4759721e-06
1.4767528e-06
1.4775837e-06
1.4784612e-06
1.4793837e-06
1.4803512e-06
1.4813658e-06
1.4824328e-06
1.4835593e-06
1.4847613e-06
1.4860492e-06
1.4874783e-06
1.4890307e-06
1.4909258e-06
1.4930353e-06
1.495778e-06
1.5022524e-06
3.1771449e-09
1.5437661e-09
1.2742222e-09
1.1800222e-09
1.1220225e-09
1.074976e-09
1.0343401e-09
9.9864637e-10
9.6695339e-10
9.3850468e-10
9.1272739e-10
8.891994e-10
8.6759768e-10
8.4766382e-10
8.2918599e-10
8.1198908e-10
7.9592601e-10
7.8087193e-10
7.6671904e-10
7.5337453e-10
7.407584e-10
7.2880034e-10
7.1744028e-10
7.0662481e-10
6.9630569e-10
6.8644189e-10
6.7699627e-10
6.6793452e-10
6.592269e-10
6.5084715e-10
6.4277046e-10
6.3497413e-10
6.2743893e-10
6.2014713e-10
6.1308134e-10
6.0622599e-10
5.9956787e-10
5.9309462e-10
5.8679372e-10
5.8065377e-10
5.7466543e-10
5.6881978e-10
5.6310768e-10
5.5752059e-10
5.5205119e-10
5.4669297e-10
5.4143941e-10
5.3628382e-10
5.3122009e-10
5.2624337e-10
5.2134885e-10
5.1653138e-10
5.1178598e-10
5.071083e-10
5.0249468e-10
4.9794137e-10
4.9344424e-10
4.8899929e-10
4.8460335e-10
4.8025349e-10
4.7594647e-10
4.7167883e-10
4.6744722e-10
4.6324918e-10
4.5908216e-10
4.5494317e-10
4.5082909e-10
4.4673714e-10
4.4266506e-10
4.3861046e-10
4.345703e-10
4.3054152e-10
4.2652186e-10
4.2250904e-10
4.1850009e-10
4.1449185e-10
4.1048152e-10
4.0646669e-10
4.0244444e-10
3.9841128e-10
3.9436402e-10
3.9029991e-10
3.8621552e-10
3.8210677e-10
3.7797002e-10
3.7380175e-10
3.6959755e-10
3.6535218e-10
3.6106242e-10
3.568162e-10
3.5274641e-10
3.4888885e-10
3.4522601e-10
3.4174152e-10
3.3842061e-10
3.3525067e-10
3.3222043e-10
3.2931911e-10
3.2653694e-10
3.2386572e-10
3.2129796e-10
3.1882653e-10
3.1644462e-10
3.1414565e-10
3.1192442e-10
3.097735e-10
3.0769138e-10
3.0565424e-10
3.0369408e-10
3.0166544e-10
2.9990669e-10
2.9698268e-10
1.472769e-06
1.472848e-06
1.4730988e-06
1.4734958e-06
1.4739991e-06
1.4745882e-06
1.4752509e-06
1.4759772e-06
1.4767595e-06
1.4775921e-06
1.4784713e-06
1.4793955e-06
1.4803646e-06
1.4813808e-06
1.4824493e-06
1.483577e-06
1.48478e-06
1.4860687e-06
1.4874981e-06
1.4890506e-06
1.4909436e-06
1.4930537e-06
1.4957776e-06
1.502257e-06
6.0987218e-09
3.3084334e-09
2.7615852e-09
2.5611697e-09
2.4372463e-09
2.336597e-09
2.2494565e-09
2.1727286e-09
2.1044621e-09
2.0430906e-09
1.987418e-09
1.9365566e-09
1.8898237e-09
1.846671e-09
1.8066484e-09
1.7693827e-09
1.7345597e-09
1.7019123e-09
1.6712094e-09
1.6422519e-09
1.6148678e-09
1.5889061e-09
1.5642373e-09
1.5407466e-09
1.51833e-09
1.4968988e-09
1.4763731e-09
1.4566788e-09
1.4377516e-09
1.4195348e-09
1.4019747e-09
1.3850224e-09
1.3686362e-09
1.3527776e-09
1.3374092e-09
1.3224973e-09
1.3080131e-09
1.2939299e-09
1.2802206e-09
1.2668606e-09
1.2538296e-09
1.2411081e-09
1.2286765e-09
1.2165162e-09
1.2046114e-09
1.1929478e-09
1.1815114e-09
1.1702877e-09
1.1592634e-09
1.148428e-09
1.1377709e-09
1.1272811e-09
1.1169478e-09
1.1067615e-09
1.0967142e-09
1.0867978e-09
1.0770033e-09
1.0673221e-09
1.0577473e-09
1.0482723e-09
1.0388904e-09
1.0295938e-09
1.0203754e-09
1.0112298e-09
1.0021514e-09
9.9313369e-10
9.8416998e-10
9.7525416e-10
9.6638131e-10
9.5754621e-10
9.4874229e-10
9.3996286e-10
9.3120301e-10
9.2245773e-10
9.1372061e-10
9.0498474e-10
8.9624404e-10
8.874932e-10
8.7872589e-10
8.6993454e-10
8.6111214e-10
8.522527e-10
8.4334877e-10
8.3439143e-10
8.2537274e-10
8.1628501e-10
8.0711863e-10
7.9786219e-10
7.8850864e-10
7.7924969e-10
7.7037514e-10
7.6196313e-10
7.5397549e-10
7.4637655e-10
7.3913416e-10
7.3222084e-10
7.25612e-10
7.192842e-10
7.1321614e-10
7.0738992e-10
7.0178926e-10
6.9639858e-10
6.912031e-10
6.8618844e-10
6.8134329e-10
6.7665146e-10
6.7210962e-10
6.6766613e-10
6.6339024e-10
6.5896647e-10
6.5513e-10
6.4875054e-10
1.4727683e-06
1.4728472e-06
1.4730981e-06
1.4734957e-06
1.4740002e-06
1.4745908e-06
1.4752551e-06
1.4759834e-06
1.4767677e-06
1.4776024e-06
1.4784837e-06
1.4794099e-06
1.4803811e-06
1.4813992e-06
1.4824693e-06
1.4835985e-06
1.4848028e-06
1.4860924e-06
1.4875222e-06
1.4890747e-06
1.4909652e-06
1.493076e-06
1.4957763e-06
1.5022596e-06
1.0687522e-08
6.4939225e-09
5.5068727e-09
5.1202385e-09
4.878642e-09
4.6817684e-09
4.5106409e-09
4.3594029e-09
4.2244382e-09
4.1028305e-09
3.9923254e-09
3.891232e-09
3.7982394e-09
3.7122893e-09
3.6325092e-09
3.5581733e-09
3.4886684e-09
3.4234713e-09
3.3621286e-09
3.3042488e-09
3.2494934e-09
3.1975644e-09
3.1482062e-09
3.1011917e-09
3.0563155e-09
3.0134017e-09
2.9722917e-09
2.932839e-09
2.8949156e-09
2.8584088e-09
2.8232124e-09
2.7892289e-09
2.756375e-09
2.7245745e-09
2.693753e-09
2.6638431e-09
2.6347875e-09
2.6065329e-09
2.5790257e-09
2.5522165e-09
2.5260646e-09
2.5005314e-09
2.4755778e-09
2.4511667e-09
2.4272662e-09
2.403848e-09
2.3808841e-09
2.3583456e-09
2.3362058e-09
2.3144435e-09
2.293038e-09
2.2719671e-09
2.2512091e-09
2.2307449e-09
2.2105587e-09
2.1906341e-09
2.1709534e-09
2.1514991e-09
2.1322573e-09
2.1132152e-09
2.0943588e-09
2.0756731e-09
2.0571434e-09
2.038759e-09
2.0205086e-09
2.0023794e-09
1.9843577e-09
1.9664314e-09
1.9485905e-09
1.9308246e-09
1.9131206e-09
1.8954649e-09
1.8778476e-09
1.8602588e-09
1.8426855e-09
1.8251139e-09
1.8075317e-09
1.7899282e-09
1.7722907e-09
1.754604e-09
1.736854e-09
1.7190285e-09
1.7011127e-09
1.6830885e-09
1.66494e-09
1.6466516e-09
1.628204e-09
1.6095743e-09
1.5907481e-09
1.5721114e-09
1.5542475e-09
1.5373139e-09
1.5212339e-09
1.5059357e-09
1.4913548e-09
1.4774358e-09
1.4641294e-09
1.4513884e-09
1.4391699e-09
1.4274381e-09
1.4161601e-09
1.4053046e-09
1.394842e-09
1.3847432e-09
1.3749856e-09
1.3655366e-09
1.3563894e-09
1.3474408e-09
1.3388289e-09
1.3299225e-09
1.3221959e-09
1.3093446e-09
1.4727675e-06
1.4728462e-06
1.4730972e-06
1.4734956e-06
1.4740014e-06
1.4745938e-06
1.4752602e-06
1.4759908e-06
1.4767775e-06
1.4776147e-06
1.4784985e-06
1.4794272e-06
1.4804007e-06
1.4814211e-06
1.4824933e-06
1.4836243e-06
1.4848301e-06
1.4861208e-06
1.4875508e-06
1.4891033e-06
1.4909907e-06
1.4931023e-06
1.4957738e-06
1.5022599e-06
1.7468588e-08
1.1903216e-08
1.0319014e-08
9.6352686e-09
9.1986539e-09
8.8403343e-09
8.5267974e-09
8.2481071e-09
7.998275e-09
7.7723996e-09
7.5666122e-09
7.3779637e-09
7.2041382e-09
7.0432491e-09
6.8937308e-09
6.754273e-09
6.6237629e-09
6.5012462e-09
6.3858932e-09
6.276985e-09
6.173899e-09
6.0760858e-09
5.9830727e-09
5.8944396e-09
5.8098062e-09
5.7288451e-09
5.6512621e-09
5.5767849e-09
5.5051746e-09
5.4362211e-09
5.3697267e-09
5.3055092e-09
5.2434125e-09
5.1832946e-09
5.1250164e-09
5.0684516e-09
5.0134926e-09
4.9600398e-09
4.907993e-09
4.8572593e-09
4.8077617e-09
4.7594286e-09
4.7121863e-09
4.6659652e-09
4.6207053e-09
4.5763532e-09
4.5328563e-09
4.4901606e-09
4.4482157e-09
4.4069815e-09
4.3664189e-09
4.3264864e-09
4.2871432e-09
4.2483533e-09
4.2100865e-09
4.1723122e-09
4.134997e-09
4.098108e-09
4.0616187e-09
4.0255048e-09
3.9897403e-09
3.9542968e-09
3.9191464e-09
3.8842686e-09
3.8496425e-09
3.8152437e-09
3.7810464e-09
3.7470275e-09
3.7131681e-09
3.6794485e-09
3.6458439e-09
3.6123288e-09
3.5788842e-09
3.545491e-09
3.5121251e-09
3.47876e-09
3.4453725e-09
3.4119421e-09
3.3784448e-09
3.3448518e-09
3.3111361e-09
3.2772747e-09
3.2432393e-09
3.2089957e-09
3.1745133e-09
3.1397628e-09
3.1047073e-09
3.0693031e-09
3.033523e-09
2.9981002e-09
2.9641442e-09
2.9319543e-09
2.901385e-09
2.8723003e-09
2.8445776e-09
2.8181121e-09
2.7928099e-09
2.7685816e-09
2.745346e-09
2.7230347e-09
2.7015856e-09
2.6809392e-09
2.6610391e-09
2.6418305e-09
2.6232701e-09
2.6052963e-09
2.5878962e-09
2.5708743e-09
2.5544915e-09
2.5375551e-09
2.5228568e-09
2.4984023e-09
1.4727665e-06
1.472845e-06
1.473096e-06
1.4734954e-06
1.4740028e-06
1.4745973e-06
1.4752661e-06
1.4759994e-06
1.476789e-06
1.4776291e-06
1.478516e-06
1.4794476e-06
1.4804239e-06
1.4814469e-06
1.4825215e-06
1.4836546e-06
1.4848621e-06
1.486154e-06
1.4875844e-06
1.4891367e-06
1.4910203e-06
1.4931328e-06
1.4957696e-06
1.5022572e-06
2.6994924e-08
2.0586651e-08
1.839017e-08
1.7288193e-08
1.6554734e-08
1.5944312e-08
1.540417e-08
1.4919692e-08
1.4482345e-08
1.4084861e-08
1.372128e-08
1.338693e-08
1.3078059e-08
1.2791562e-08
1.2524834e-08
1.2275671e-08
1.2042185e-08
1.1822745e-08
1.1615925e-08
1.1420482e-08
1.1235337e-08
1.1059533e-08
1.0892246e-08
1.073274e-08
1.0580348e-08
1.0434494e-08
1.029466e-08
1.0160367e-08
1.003119e-08
9.9067591e-09
9.7867235e-09
9.6707603e-09
9.5585915e-09
9.4499647e-09
9.3446336e-09
9.2423726e-09
9.1429892e-09
9.0463062e-09
8.9521454e-09
8.8603407e-09
8.7707538e-09
8.6832566e-09
8.5977181e-09
8.5140136e-09
8.4320349e-09
8.3516866e-09
8.2728744e-09
8.1955019e-09
8.1194784e-09
8.0447313e-09
7.9711908e-09
7.8987825e-09
7.8274331e-09
7.7570776e-09
7.6876614e-09
7.6191298e-09
7.5514228e-09
7.484481e-09
7.4182563e-09
7.352705e-09
7.2877804e-09
7.2234313e-09
7.1596073e-09
7.096271e-09
7.0333848e-09
6.9709046e-09
6.9087841e-09
6.8469811e-09
6.7854613e-09
6.724189e-09
6.6631197e-09
6.602207e-09
6.5414159e-09
6.4807123e-09
6.4200522e-09
6.3593879e-09
6.2986766e-09
6.2378813e-09
6.1769584e-09
6.1158554e-09
6.0545234e-09
5.99292e-09
5.930994e-09
5.8686832e-09
5.8059317e-09
5.7426857e-09
5.6788784e-09
5.6144301e-09
5.5492905e-09
5.484795e-09
5.4229638e-09
5.3643433e-09
5.308669e-09
5.2556941e-09
5.2051959e-09
5.1569839e-09
5.1108876e-09
5.0667449e-09
5.024408e-09
4.9837525e-09
4.9446656e-09
4.9070394e-09
4.8707714e-09
4.8357618e-09
4.8019318e-09
4.7691698e-09
4.737452e-09
4.7064246e-09
4.676559e-09
4.6456968e-09
4.6189032e-09
4.5743064e-09
1.4727653e-06
1.4728436e-06
1.4730946e-06
1.473495e-06
1.4740043e-06
1.4746012e-06
1.4752729e-06
1.4760093e-06
1.4768023e-06
1.4776459e-06
1.4785362e-06
1.4794712e-06
1.4804508e-06
1.4814768e-06
1.4825542e-06
1.4836898e-06
1.4848991e-06
1.4861924e-06
1.4876231e-06
1.4891751e-06
1.491054e-06
1.4931674e-06
1.4957631e-06
1.5022508e-06
3.9794407e-08
3.3777572e-08
3.1361637e-08
2.9786978e-08
2.865401e-08
2.7685448e-08
2.6811894e-08
2.6016859e-08
2.5291261e-08
2.4626382e-08
2.4014414e-08
2.3448886e-08
2.2924378e-08
2.2436265e-08
2.1980577e-08
2.1553901e-08
2.1153267e-08
2.0776072e-08
2.0420021e-08
2.0083096e-08
1.9763534e-08
1.9459764e-08
1.9170423e-08
1.8894292e-08
1.8630264e-08
1.8377372e-08
1.813475e-08
1.7901594e-08
1.7677189e-08
1.7460907e-08
1.7252159e-08
1.7050397e-08
1.6855147e-08
1.6665982e-08
1.6482484e-08
1.6304266e-08
1.6131001e-08
1.5962384e-08
1.5798114e-08
1.5637906e-08
1.548152e-08
1.5328737e-08
1.5179335e-08
1.5033098e-08
1.488984e-08
1.4749396e-08
1.4611605e-08
1.4476301e-08
1.4343327e-08
1.4212557e-08
1.4083871e-08
1.3957141e-08
1.383224e-08
1.3709056e-08
1.3587494e-08
1.3467458e-08
1.3348847e-08
1.3231555e-08
1.3115501e-08
1.3000607e-08
1.2886793e-08
1.277397e-08
1.266205e-08
1.2550968e-08
1.2440658e-08
1.2331045e-08
1.2222046e-08
1.2113588e-08
1.2005612e-08
1.1898054e-08
1.1790838e-08
1.1683881e-08
1.1577123e-08
1.1470504e-08
1.1363947e-08
1.1257367e-08
1.1150691e-08
1.1043852e-08
1.0936774e-08
1.0829365e-08
1.0721539e-08
1.0613221e-08
1.0504321e-08
1.039473e-08
1.0284348e-08
1.0173081e-08
1.006081e-08
9.9473969e-09
9.8327506e-09
9.7192215e-09
9.6103678e-09
9.507153e-09
9.4091136e-09
9.3158168e-09
9.2268721e-09
9.1419449e-09
9.0607364e-09
8.9829621e-09
8.9083626e-09
8.8367193e-09
8.7678344e-09
8.7015182e-09
8.6375911e-09
8.5758776e-09
8.5162394e-09
8.4584805e-09
8.402559e-09
8.3478559e-09
8.2951941e-09
8.240799e-09
8.1935568e-09
8.1148819e-09
1.4727639e-06
1.4728419e-06
1.4730929e-06
1.4734945e-06
1.4740059e-06
1.4746056e-06
1.4752806e-06
1.4760207e-06
1.4768175e-06
1.4776651e-06
1.4785593e-06
1.4794983e-06
1.4804816e-06
1.4815111e-06
1.4825917e-06
1.4837299e-06
1.4849415e-06
1.4862362e-06
1.4876671e-06
1.4892187e-06
1.4910918e-06
1.4932063e-06
1.4957534e-06
1.5022397e-06
5.6292355e-08
5.2746662e-08
5.1284615e-08
4.9426837e-08
4.7866054e-08
4.6460995e-08
4.5150986e-08
4.3929774e-08
4.2795451e-08
4.1742412e-08
4.0763548e-08
3.9851952e-08
3.9001199e-08
3.8205404e-08
3.7459283e-08
3.6758127e-08
3.6097715e-08
3.5474259e-08
3.4884356e-08
3.4324973e-08
3.3793428e-08
3.3287314e-08
3.2804514e-08
3.2343134e-08
3.1901434e-08
3.1477884e-08
3.1071115e-08
3.0679844e-08
3.0302927e-08
2.9939354e-08
2.9588179e-08
2.9248517e-08
2.8919597e-08
2.8600726e-08
2.8291227e-08
2.7990469e-08
2.7697911e-08
2.7413061e-08
2.7135422e-08
2.6864527e-08
2.6599979e-08
2.6341421e-08
2.6088483e-08
2.5840813e-08
2.5598098e-08
2.5360066e-08
2.5126453e-08
2.4896982e-08
2.4671392e-08
2.4449473e-08
2.4231026e-08
2.4015839e-08
2.38037e-08
2.3594419e-08
2.3387839e-08
2.3183801e-08
2.2982134e-08
2.2782663e-08
2.2585248e-08
2.2389761e-08
2.2196067e-08
2.2004018e-08
2.1813465e-08
2.1624295e-08
2.14364e-08
2.1249652e-08
2.1063914e-08
2.0879061e-08
2.0694989e-08
2.0511595e-08
2.0328747e-08
2.0146307e-08
1.996417e-08
1.9782233e-08
1.9600368e-08
1.9418432e-08
1.9236295e-08
1.9053845e-08
1.8870954e-08
1.8687463e-08
1.8503226e-08
1.8318112e-08
1.8131969e-08
1.7944609e-08
1.7755862e-08
1.7565566e-08
1.7373518e-08
1.7179477e-08
1.6983288e-08
1.6788974e-08
1.6602627e-08
1.6425903e-08
1.6258011e-08
1.6098216e-08
1.5945852e-08
1.5800348e-08
1.5661196e-08
1.5527911e-08
1.5400051e-08
1.5277243e-08
1.5159149e-08
1.5045446e-08
1.4935828e-08
1.4829996e-08
1.4727712e-08
1.4628643e-08
1.4532718e-08
1.4438883e-08
1.4348535e-08
1.4255256e-08
1.4174213e-08
1.4039152e-08
1.4727623e-06
1.4728399e-06
1.4730908e-06
1.4734937e-06
1.4740075e-06
1.4746104e-06
1.4752892e-06
1.4760334e-06
1.4768346e-06
1.4776867e-06
1.4785856e-06
1.4795289e-06
1.4805165e-06
1.48155e-06
1.482634e-06
1.4837754e-06
1.4849892e-06
1.4862855e-06
1.4877164e-06
1.4892673e-06
1.4911337e-06
1.4932492e-06
1.4957394e-06
1.5022225e-06
7.6724745e-08
7.8579423e-08
8.0402596e-08
7.8983578e-08
7.7199018e-08
7.5410406e-08
7.3638511e-08
7.1917941e-08
7.0272977e-08
6.8713349e-08
6.7240409e-08
6.5851705e-08
6.4542842e-08
6.3308588e-08
6.2143555e-08
6.1042495e-08
6.0000366e-08
5.9012406e-08
5.8074169e-08
5.7181587e-08
5.6330981e-08
5.5518992e-08
5.4742618e-08
5.3999143e-08
5.3286038e-08
5.2601055e-08
5.1942169e-08
5.1307471e-08
5.0695236e-08
5.0103941e-08
4.9532154e-08
4.8978518e-08
4.8441851e-08
4.7921089e-08
4.7415187e-08
4.6923166e-08
4.644418e-08
4.5977464e-08
4.5522247e-08
4.5077789e-08
4.4643466e-08
4.4218715e-08
4.3802958e-08
4.3395634e-08
4.2996246e-08
4.2604361e-08
4.221956e-08
4.1841405e-08
4.1469479e-08
4.1103439e-08
4.074297e-08
4.0387735e-08
4.0037393e-08
3.9691637e-08
3.935021e-08
3.9012861e-08
3.8679313e-08
3.8349285e-08
3.8022544e-08
3.7698886e-08
3.7378091e-08
3.7059919e-08
3.6744127e-08
3.643053e-08
3.6118952e-08
3.5809184e-08
3.5501002e-08
3.5194198e-08
3.4888604e-08
3.4584048e-08
3.4280317e-08
3.3977181e-08
3.3674464e-08
3.3371999e-08
3.3069572e-08
3.2766947e-08
3.2463907e-08
3.2160267e-08
3.1855813e-08
3.1550282e-08
3.1243427e-08
3.0935033e-08
3.0624843e-08
3.0312545e-08
2.9997853e-08
2.9680494e-08
2.936013e-08
2.9036358e-08
2.8708914e-08
2.8384512e-08
2.8073332e-08
2.7778148e-08
2.7497653e-08
2.7230626e-08
2.6975964e-08
2.673272e-08
2.650005e-08
2.627715e-08
2.6063286e-08
2.5857837e-08
2.5660243e-08
2.5469968e-08
2.5286502e-08
2.5109347e-08
2.493811e-08
2.4772237e-08
2.4611606e-08
2.4454474e-08
2.4303151e-08
2.4146994e-08
2.4011268e-08
2.3784877e-08
1.4727604e-06
1.4728375e-06
1.4730883e-06
1.4734926e-06
1.4740091e-06
1.4746156e-06
1.4752986e-06
1.4760475e-06
1.4768537e-06
1.4777109e-06
1.4786149e-06
1.4795632e-06
1.4805556e-06
1.4815935e-06
1.4826815e-06
1.4838261e-06
1.4850425e-06
1.4863403e-06
1.4877711e-06
1.4893209e-06
1.4911791e-06
1.4932957e-06
1.4957199e-06
1.5021976e-06
1.0105633e-07
1.1191479e-07
1.2076014e-07
1.2135215e-07
1.2001262e-07
1.1819743e-07
1.1615348e-07
1.1401391e-07
1.1186441e-07
1.0975402e-07
1.0770904e-07
1.0574271e-07
1.0386029e-07
1.0206246e-07
1.0034749e-07
9.8712263e-08
9.715282e-08
9.5664749e-08
9.4243497e-08
9.2884603e-08
9.1583853e-08
9.0337231e-08
8.9141043e-08
8.799187e-08
8.688644e-08
8.5821785e-08
8.479521e-08
8.3804125e-08
8.2846155e-08
8.191919e-08
8.1021232e-08
8.015036e-08
7.9304883e-08
7.8483285e-08
7.7684064e-08
7.6905793e-08
7.6147233e-08
7.5407269e-08
7.4684771e-08
7.3978639e-08
7.328794e-08
7.2611841e-08
7.1949484e-08
7.1300021e-08
7.0662702e-08
7.0036873e-08
6.9421903e-08
6.8817131e-08
6.8221914e-08
6.763573e-08
6.70581e-08
6.6488507e-08
6.5926429e-08
6.5371389e-08
6.4822989e-08
6.4280843e-08
6.3744526e-08
6.3213596e-08
6.2687689e-08
6.2166485e-08
6.1649646e-08
6.1136794e-08
6.0627547e-08
6.0121611e-08
5.9618707e-08
5.9118509e-08
5.8620662e-08
5.8124835e-08
5.7630757e-08
5.7138156e-08
5.6646694e-08
5.6156001e-08
5.5665793e-08
5.5175801e-08
5.4685684e-08
5.4195059e-08
5.3703577e-08
5.3210935e-08
5.2716786e-08
5.2220709e-08
5.1722296e-08
5.1221196e-08
5.0716993e-08
5.0209178e-08
4.9697282e-08
4.9180854e-08
4.8659345e-08
4.8132092e-08
4.7598661e-08
4.7069986e-08
4.6562676e-08
4.6081282e-08
4.5623693e-08
4.5187943e-08
4.4772249e-08
4.4375083e-08
4.3995081e-08
4.3630945e-08
4.3281485e-08
4.2945698e-08
4.2622678e-08
4.2311557e-08
4.2011509e-08
4.1721728e-08
4.1441574e-08
4.1170151e-08
4.0907262e-08
4.0650085e-08
4.0402355e-08
4.0146837e-08
3.9924661e-08
3.9553658e-08
1.4727581e-06
1.4728347e-06
1.4730853e-06
1.4734911e-06
1.4740105e-06
1.474621e-06
1.4753087e-06
1.4760629e-06
1.4768747e-06
1.4777376e-06
1.4786473e-06
1.4796012e-06
1.4805989e-06
1.4816416e-06
1.4827339e-06
1.4838821e-06
1.4851012e-06
1.4864005e-06
1.4878308e-06
1.4893791e-06
1.4912276e-06
1.4933451e-06
1.4956931e-06
1.5021629e-06
1.2891898e-07
1.5271235e-07
1.7373339e-07
1.7897929e-07
1.7944663e-07
1.7845938e-07
1.7672143e-07
1.745523e-07
1.7215054e-07
1.6964084e-07
1.6710111e-07
1.6457958e-07
1.6210505e-07
1.596943e-07
1.5735691e-07
1.5509773e-07
1.5291829e-07
1.5081789e-07
1.4879443e-07
1.4684504e-07
1.4496652e-07
1.4315542e-07
1.4140827e-07
1.3972169e-07
1.3809222e-07
1.3651661e-07
1.3499183e-07
1.3351485e-07
1.3208282e-07
1.306932e-07
1.293435e-07
1.2803132e-07
1.2675447e-07
1.2551101e-07
1.2429899e-07
1.2311652e-07
1.2196193e-07
1.2083375e-07
1.1973044e-07
1.186505e-07
1.1759264e-07
1.1655571e-07
1.1553854e-07
1.1453993e-07
1.1355882e-07
1.1259429e-07
1.1164546e-07
1.1071138e-07
1.0979113e-07
1.0888395e-07
1.0798915e-07
1.0710601e-07
1.0623375e-07
1.0537168e-07
1.0451921e-07
1.0367578e-07
1.0284076e-07
1.0201351e-07
1.0119346e-07
1.0038016e-07
9.95731e-08
9.8771714e-08
9.7975425e-08
9.7183781e-08
9.6396367e-08
9.5612693e-08
9.4832215e-08
9.4054424e-08
9.3278902e-08
9.2505235e-08
9.1732903e-08
9.0961335e-08
9.0190082e-08
8.9418727e-08
8.8646743e-08
8.787353e-08
8.7098535e-08
8.6321283e-08
8.5541229e-08
8.4757708e-08
8.3970072e-08
8.3177762e-08
8.2380118e-08
8.1576332e-08
8.0765648e-08
7.994735e-08
7.9120558e-08
7.8284211e-08
7.7437605e-08
7.6598091e-08
7.5792088e-08
7.502688e-08
7.4299174e-08
7.3605892e-08
7.2944244e-08
7.2311832e-08
7.170652e-08
7.1126272e-08
7.0569219e-08
7.0033783e-08
6.951854e-08
6.9022127e-08
6.8543245e-08
6.808062e-08
6.7633246e-08
6.7199709e-08
6.67797e-08
6.6368773e-08
6.5972811e-08
6.5564603e-08
6.5209504e-08
6.4615723e-08
1.4727555e-06
1.4728315e-06
1.4730817e-06
1.473489e-06
1.4740116e-06
1.4746265e-06
1.4753195e-06
1.4760794e-06
1.4768974e-06
1.4777667e-06
1.4786827e-06
1.4796427e-06
1.4806461e-06
1.4816942e-06
1.4827911e-06
1.4839431e-06
1.4851649e-06
1.4864657e-06
1.487895e-06
1.4894412e-06
1.4912782e-06
1.4933965e-06
1.495657e-06
1.5021156e-06
1.5958113e-07
2.0012722e-07
2.3960504e-07
2.5327772e-07
2.5773461e-07
2.5905435e-07
2.5872012e-07
2.5735572e-07
2.5533582e-07
2.5290562e-07
2.5022903e-07
2.4741543e-07
2.4453685e-07
2.4164121e-07
2.3876118e-07
2.3591898e-07
2.3312907e-07
2.3040034e-07
2.2773787e-07
2.2514424e-07
2.2262037e-07
2.2016593e-07
2.1777979e-07
2.1546031e-07
2.1320528e-07
2.110123e-07
2.0887896e-07
2.0680262e-07
2.0478059e-07
2.0281043e-07
2.0088966e-07
1.9901571e-07
1.9718624e-07
1.9539914e-07
1.9365223e-07
1.919433e-07
1.9027041e-07
1.8863182e-07
1.8702572e-07
1.8545025e-07
1.839038e-07
1.8238499e-07
1.8089233e-07
1.794243e-07
1.7797954e-07
1.7655686e-07