/*--------------------------------*- C++ -*----------------------------------*\
  =========                 |
  \\      /  F ield         | OpenFOAM: The Open Source CFD Toolbox
   \\    /   O peration     | Website:  https://openfoam.org
    \\  /    A nd           | Version:  12
     \\/     M anipulation  |
\*---------------------------------------------------------------------------*/
FoamFile
{
    format      ascii;
    class       volScalarField;
    location    "700";
    object      p;
}
// * * * * * * * * * * * * * * * * * * * * * * * * * * * * * * * * * * * * * //

dimensions      [0 2 -2 0 0 0 0];

internalField   nonuniform List<scalar> 
13056
(
0.0040823045
0.0041020527
0.0041452177
0.00419981
0.0042641695
0.0043382232
0.0044213087
0.0045127077
0.0046120838
0.0047194845
0.0048352571
0.004960052
0.0050949021
0.0052413699
0.0054017446
0.0055794631
0.0057795263
0.0060103116
0.0062834696
0.0066266502
0.0070651019
0.0077605604
0.0086425472
0.012599415
0.0091382647
0.0040358651
0.0039326524
0.0044075096
0.0045272986
0.0044702952
0.0043938679
0.0043256886
0.0042576519
0.0041883398
0.0041202121
0.004054989
0.003993248
0.0039346308
0.0038788661
0.0038257568
0.0037751465
0.0037268812
0.0036806209
0.0036363788
0.0035937665
0.0035528012
0.0035133723
0.0034750635
0.0034380865
0.003402299
0.0033673387
0.0033333457
0.0033003019
0.003267969
0.0032362188
0.0032052485
0.0031749355
0.0031450052
0.0031155102
0.0030865955
0.0030581303
0.0030298857
0.0030018968
0.0029743368
0.0029471068
0.0029199527
0.0028929384
0.0028661424
0.0028395876
0.0028130895
0.0027865894
0.0027601052
0.0027337825
0.0027075228
0.0026811158
0.0026546246
0.0026280879
0.0026015727
0.0025749318
0.0025480561
0.0025209626
0.0024937585
0.0024664315
0.0024387771
0.0024107873
0.0023824465
0.0023538938
0.0023250381
0.002295654
0.0022657863
0.0022354483
0.0022047083
0.002173407
0.0021413946
0.0021086511
0.0020753191
0.0020413067
0.0020063304
0.0019703866
0.0019335061
0.0018956844
0.0018566807
0.0018163175
0.0017746244
0.0017315917
0.0016869503
0.0016404273
0.0015920787
0.0015417831
0.0014891378
0.001433919
0.0013761199
0.0013155582
0.0012527492
0.001189798
0.0011278614
0.0010667475
0.0010063926
0.0009469477
0.00088830826
0.00083027026
0.00077287778
0.00071635314
0.00066068537
0.00060570781
0.00055157032
0.00049840418
0.00044652722
0.00039624399
0.00034754669
0.00030216506
0.00025849042
0.00022871972
0.00019031358
0.00031227343
-0.00024360241
0.0040823045
0.0041020527
0.0041452177
0.00419981
0.0042641695
0.0043382232
0.0044213088
0.0045127077
0.0046120838
0.0047194845
0.0048352571
0.004960052
0.0050949021
0.0052413699
0.0054017446
0.0055794632
0.0057795263
0.0060103117
0.0062834696
0.0066266503
0.0070651019
0.0077605605
0.0086425481
0.012582133
0.0091390719
0.0040365291
0.0039327507
0.0044075467
0.0045273248
0.0044703174
0.0043938874
0.0043257058
0.0042576673
0.0041883537
0.0041202248
0.0040550007
0.0039932587
0.0039346407
0.0038788752
0.0038257653
0.0037751545
0.0037268886
0.0036806278
0.0036363853
0.0035937726
0.0035528071
0.0035133778
0.0034750687
0.0034380915
0.0034023036
0.0033673432
0.0033333499
0.0033003059
0.0032679729
0.0032362225
0.003205252
0.0031749388
0.0031450084
0.0031155133
0.0030865985
0.0030581331
0.0030298884
0.0030018994
0.0029743393
0.0029471093
0.002919955
0.0028929406
0.0028661446
0.0028395897
0.0028130915
0.0027865913
0.0027601071
0.0027337843
0.0027075245
0.0026811175
0.0026546262
0.0026280894
0.0026015742
0.0025749332
0.0025480574
0.0025209639
0.0024937598
0.0024664327
0.0024387783
0.0024107885
0.0023824476
0.0023538948
0.0023250391
0.002295655
0.0022657873
0.0022354492
0.0022047092
0.0021734079
0.0021413955
0.0021086519
0.0020753199
0.0020413074
0.0020063311
0.0019703872
0.0019335068
0.001895685
0.0018566813
0.0018163181
0.0017746249
0.0017315922
0.0016869508
0.0016404277
0.0015920791
0.0015417836
0.0014891382
0.0014339194
0.0013761203
0.0013155586
0.0012527496
0.0011897984
0.0011278617
0.0010667478
0.0010063929
0.00094694798
0.00088830853
0.00083027052
0.00077287803
0.00071635338
0.0006606856
0.00060570803
0.00055157053
0.00049840439
0.00044652742
0.00039624418
0.00034754688
0.00030216524
0.00025849059
0.0002287199
0.00019031377
0.00031227365
-0.00024360227
0.0040823045
0.0041020527
0.0041452177
0.00419981
0.0042641695
0.0043382232
0.0044213088
0.0045127078
0.0046120838
0.0047194845
0.0048352571
0.0049600521
0.0050949022
0.0052413699
0.0054017447
0.0055794632
0.0057795264
0.0060103117
0.0062834697
0.0066266504
0.007065102
0.0077605605
0.0086425488
0.012565711
0.0091399497
0.0040372962
0.0039328675
0.0044075911
0.0045273563
0.0044703441
0.0043939108
0.0043257265
0.0042576858
0.0041883704
0.00412024
0.0040550146
0.0039932715
0.0039346526
0.0038788862
0.0038257755
0.003775164
0.0037268976
0.0036806362
0.0036363932
0.00359378
0.003552814
0.0035133844
0.0034750749
0.0034380974
0.0034023093
0.0033673485
0.003333355
0.0033003108
0.0032679775
0.0032362269
0.0032052562
0.0031749429
0.0031450123
0.003115517
0.003086602
0.0030581365
0.0030298917
0.0030019025
0.0029743423
0.0029471121
0.0029199578
0.0028929432
0.0028661471
0.0028395922
0.0028130939
0.0027865936
0.0027601093
0.0027337864
0.0027075265
0.0026811194
0.0026546281
0.0026280912
0.0026015759
0.0025749349
0.0025480591
0.0025209655
0.0024937613
0.0024664342
0.0024387797
0.0024107898
0.0023824489
0.0023538961
0.0023250403
0.0022956562
0.0022657884
0.0022354503
0.0022047103
0.0021734089
0.0021413965
0.0021086529
0.0020753208
0.0020413083
0.0020063319
0.0019703881
0.0019335075
0.0018956857
0.001856682
0.0018163188
0.0017746256
0.0017315928
0.0016869514
0.0016404283
0.0015920797
0.0015417841
0.0014891388
0.0014339199
0.0013761208
0.001315559
0.00125275
0.0011897988
0.0011278621
0.0010667482
0.0010063932
0.00094694831
0.00088830885
0.00083027082
0.00077287832
0.00071635366
0.00066068587
0.00060570829
0.00055157079
0.00049840463
0.00044652766
0.00039624441
0.0003475471
0.00030216546
0.00025849081
0.00022872012
0.00019031398
0.0003122739
-0.0002436021
0.0040823045
0.0041020527
0.0041452177
0.00419981
0.0042641695
0.0043382232
0.0044213088
0.0045127078
0.0046120838
0.0047194845
0.0048352572
0.0049600521
0.0050949022
0.00524137
0.0054017447
0.0055794633
0.0057795264
0.0060103118
0.0062834698
0.0066266504
0.007065102
0.0077605602
0.0086425495
0.01255107
0.0091409335
0.0040380033
0.0039329777
0.0044076348
0.0045273872
0.0044703702
0.0043939337
0.0043257468
0.0042577039
0.0041883868
0.0041202549
0.0040550282
0.003993284
0.0039346642
0.003878897
0.0038257855
0.0037751733
0.0037269063
0.0036806444
0.0036364009
0.0035937873
0.0035528209
0.0035133908
0.003475081
0.0034381032
0.0034023148
0.0033673537
0.00333336
0.0033003155
0.003267982
0.0032362312
0.0032052603
0.0031749468
0.003145016
0.0031155206
0.0030866055
0.0030581398
0.0030298948
0.0030019055
0.0029743452
0.0029471149
0.0029199605
0.0028929458
0.0028661497
0.0028395946
0.0028130962
0.0027865958
0.0027601114
0.0027337885
0.0027075285
0.0026811214
0.0026546299
0.002628093
0.0026015777
0.0025749366
0.0025480607
0.002520967
0.0024937628
0.0024664357
0.0024387811
0.0024107912
0.0023824502
0.0023538974
0.0023250415
0.0022956573
0.0022657895
0.0022354514
0.0022047113
0.0021734099
0.0021413974
0.0021086538
0.0020753217
0.0020413092
0.0020063327
0.0019703889
0.0019335083
0.0018956865
0.0018566827
0.0018163195
0.0017746262
0.0017315935
0.001686952
0.0016404289
0.0015920802
0.0015417846
0.0014891392
0.0014339203
0.0013761212
0.0013155594
0.0012527504
0.0011897991
0.0011278625
0.0010667485
0.0010063935
0.00094694863
0.00088830916
0.00083027112
0.00077287861
0.00071635394
0.00066068614
0.00060570855
0.00055157103
0.00049840487
0.0004465279
0.00039624464
0.00034754732
0.00030216568
0.00025849102
0.00022872033
0.00019031418
0.00031227415
-0.00024360195
0.0040823045
0.0041020527
0.0041452177
0.00419981
0.0042641695
0.0043382232
0.0044213088
0.0045127078
0.0046120838
0.0047194845
0.0048352572
0.0049600521
0.0050949022
0.00524137
0.0054017447
0.0055794633
0.0057795265
0.0060103119
0.0062834698
0.0066266504
0.007065102
0.0077605597
0.0086425505
0.012536619
0.0091420769
0.0040386485
0.0039330898
0.00440768
0.004527419
0.0044703971
0.0043939572
0.0043257676
0.0042577226
0.0041884036
0.0041202702
0.0040550423
0.003993297
0.0039346761
0.003878908
0.0038257958
0.0037751829
0.0037269153
0.0036806528
0.0036364088
0.0035937947
0.0035528279
0.0035133975
0.0034750873
0.0034381091
0.0034023204
0.0033673591
0.0033333651
0.0033003204
0.0032679866
0.0032362356
0.0032052645
0.0031749508
0.0031450199
0.0031155243
0.003086609
0.0030581432
0.0030298981
0.0030019087
0.0029743482
0.0029471178
0.0029199632
0.0028929485
0.0028661522
0.0028395971
0.0028130986
0.0027865981
0.0027601136
0.0027337906
0.0027075306
0.0026811233
0.0026546318
0.0026280949
0.0026015794
0.0025749383
0.0025480623
0.0025209686
0.0024937644
0.0024664371
0.0024387825
0.0024107925
0.0023824515
0.0023538986
0.0023250428
0.0022956585
0.0022657907
0.0022354525
0.0022047124
0.0021734109
0.0021413984
0.0021086547
0.0020753226
0.0020413101
0.0020063336
0.0019703897
0.0019335091
0.0018956872
0.0018566835
0.0018163202
0.0017746269
0.0017315941
0.0016869526
0.0016404295
0.0015920808
0.0015417852
0.0014891398
0.0014339208
0.0013761217
0.0013155599
0.0012527508
0.0011897995
0.0011278629
0.0010667489
0.0010063939
0.00094694896
0.00088830947
0.00083027142
0.0007728789
0.00071635422
0.00066068641
0.00060570881
0.00055157129
0.00049840512
0.00044652814
0.00039624487
0.00034754755
0.0003021659
0.00025849123
0.00022872054
0.00019031439
0.0003122744
-0.00024360179
0.0040823045
0.0041020527
0.0041452177
0.00419981
0.0042641695
0.0043382232
0.0044213088
0.0045127078
0.0046120838
0.0047194846
0.0048352572
0.0049600521
0.0050949022
0.00524137
0.0054017448
0.0055794634
0.0057795265
0.0060103119
0.0062834699
0.0066266504
0.0070651019
0.0077605588
0.0086425517
0.012521774
0.0091432151
0.0040392264
0.0039332106
0.004407729
0.0045274532
0.004470426
0.0043939824
0.00432579
0.0042577425
0.0041884217
0.0041202866
0.0040550573
0.0039933108
0.0039346889
0.0038789199
0.0038258068
0.0037751932
0.0037269249
0.0036806618
0.0036364172
0.0035938027
0.0035528354
0.0035134046
0.003475094
0.0034381155
0.0034023264
0.0033673648
0.0033333705
0.0033003255
0.0032679916
0.0032362404
0.003205269
0.0031749552
0.003145024
0.0031155282
0.0030866128
0.0030581469
0.0030299016
0.003001912
0.0029743514
0.0029471209
0.0029199662
0.0028929514
0.002866155
0.0028395997
0.0028131011
0.0027866005
0.002760116
0.0027337929
0.0027075328
0.0026811255
0.0026546339
0.0026280968
0.0026015813
0.0025749401
0.0025480641
0.0025209703
0.002493766
0.0024664387
0.0024387841
0.002410794
0.002382453
0.0023539
0.0023250441
0.0022956598
0.0022657919
0.0022354537
0.0022047135
0.002173412
0.0021413995
0.0021086558
0.0020753236
0.002041311
0.0020063345
0.0019703905
0.0019335099
0.001895688
0.0018566842
0.0018163209
0.0017746276
0.0017315948
0.0016869533
0.0016404301
0.0015920814
0.0015417857
0.0014891403
0.0014339213
0.0013761222
0.0013155603
0.0012527512
0.0011898
0.0011278633
0.0010667493
0.0010063943
0.00094694931
0.00088830981
0.00083027175
0.00077287922
0.00071635452
0.0006606867
0.00060570909
0.00055157156
0.00049840539
0.00044652839
0.00039624512
0.00034754779
0.00030216613
0.00025849146
0.00022872077
0.0001903146
0.00031227467
-0.00024360162
0.0040823045
0.0041020527
0.0041452177
0.00419981
0.0042641695
0.0043382232
0.0044213088
0.0045127078
0.0046120839
0.0047194846
0.0048352572
0.0049600522
0.0050949023
0.0052413701
0.0054017448
0.0055794634
0.0057795266
0.0060103119
0.0062834699
0.0066266504
0.0070651018
0.0077605576
0.0086425533
0.012506508
0.0091443749
0.0040398104
0.0039333444
0.0044077834
0.0045274909
0.0044704576
0.0043940101
0.0043258144
0.0042577644
0.0041884414
0.0041203046
0.0040550737
0.0039933259
0.0039347028
0.0038789328
0.0038258188
0.0037752044
0.0037269353
0.0036806716
0.0036364265
0.0035938114
0.0035528436
0.0035134123
0.0034751013
0.0034381224
0.003402333
0.003367371
0.0033333765
0.0033003312
0.003267997
0.0032362455
0.0032052739
0.0031749599
0.0031450285
0.0031155326
0.0030866169
0.0030581508
0.0030299054
0.0030019157
0.0029743549
0.0029471243
0.0029199694
0.0028929545
0.002866158
0.0028396026
0.0028131039
0.0027866032
0.0027601186
0.0027337954
0.0027075352
0.0026811277
0.0026546361
0.002628099
0.0026015834
0.0025749421
0.002548066
0.0025209722
0.0024937678
0.0024664404
0.0024387857
0.0024107956
0.0023824545
0.0023539015
0.0023250455
0.0022956612
0.0022657932
0.002235455
0.0022047148
0.0021734132
0.0021414006
0.0021086569
0.0020753247
0.002041312
0.0020063355
0.0019703915
0.0019335108
0.0018956889
0.0018566851
0.0018163217
0.0017746284
0.0017315955
0.001686954
0.0016404308
0.001592082
0.0015417863
0.0014891409
0.0014339219
0.0013761227
0.0013155608
0.0012527517
0.0011898004
0.0011278637
0.0010667497
0.0010063947
0.0009469497
0.00088831018
0.0008302721
0.00077287956
0.00071635485
0.00066068702
0.0006057094
0.00055157186
0.00049840567
0.00044652867
0.00039624539
0.00034754805
0.00030216639
0.00025849171
0.00022872102
0.00019031484
0.00031227496
-0.00024360144
0.0040823045
0.0041020527
0.0041452177
0.00419981
0.0042641695
0.0043382232
0.0044213088
0.0045127078
0.0046120839
0.0047194846
0.0048352573
0.0049600522
0.0050949023
0.0052413701
0.0054017449
0.0055794635
0.0057795266
0.006010312
0.0062834699
0.0066266503
0.0070651017
0.0077605559
0.0086425553
0.012490871
0.0091455668
0.0040405291
0.0039334971
0.0044078455
0.0045275335
0.0044704933
0.0043940412
0.0043258419
0.0042577889
0.0041884635
0.0041203247
0.0040550921
0.0039933427
0.0039347184
0.0038789472
0.0038258322
0.0037752169
0.003726947
0.0036806825
0.0036364367
0.003593821
0.0035528527
0.0035134209
0.0034751095
0.0034381301
0.0034023403
0.003367378
0.0033333831
0.0033003375
0.0032680029
0.0032362512
0.0032052794
0.0031749651
0.0031450335
0.0031155373
0.0030866215
0.0030581552
0.0030299096
0.0030019197
0.0029743588
0.002947128
0.002919973
0.0028929579
0.0028661613
0.0028396057
0.0028131069
0.0027866062
0.0027601214
0.0027337981
0.0027075378
0.0026811303
0.0026546385
0.0026281013
0.0026015857
0.0025749443
0.0025480681
0.0025209742
0.0024937698
0.0024664423
0.0024387875
0.0024107974
0.0023824562
0.0023539031
0.0023250471
0.0022956627
0.0022657947
0.0022354564
0.0022047161
0.0021734145
0.0021414019
0.0021086581
0.0020753258
0.0020413131
0.0020063365
0.0019703925
0.0019335118
0.0018956899
0.001856686
0.0018163226
0.0017746292
0.0017315963
0.0016869548
0.0016404315
0.0015920827
0.001541787
0.0014891415
0.0014339225
0.0013761233
0.0013155614
0.0012527522
0.0011898009
0.0011278642
0.0010667501
0.0010063951
0.00094695012
0.00088831058
0.00083027249
0.00077287993
0.00071635521
0.00066068737
0.00060570973
0.00055157218
0.00049840598
0.00044652897
0.00039624568
0.00034754833
0.00030216667
0.00025849198
0.00022872129
0.0001903151
0.00031227528
-0.00024360124
0.0040823045
0.0041020527
0.0041452177
0.00419981
0.0042641695
0.0043382232
0.0044213088
0.0045127078
0.0046120839
0.0047194846
0.0048352573
0.0049600522
0.0050949024
0.0052413701
0.0054017449
0.0055794635
0.0057795267
0.006010312
0.0062834699
0.0066266502
0.0070651014
0.0077605537
0.0086425578
0.012474914
0.0091464698
0.004041485
0.0039336798
0.0044079191
0.0045275833
0.0044705347
0.0043940773
0.0043258737
0.0042578172
0.004188489
0.0041203478
0.0040551132
0.0039933621
0.0039347362
0.0038789637
0.0038258476
0.0037752311
0.0037269603
0.003680695
0.0036364484
0.003593832
0.003552863
0.0035134307
0.0034751187
0.0034381388
0.0034023486
0.0033673859
0.0033333906
0.0033003446
0.0032680097
0.0032362577
0.0032052856
0.003174971
0.0031450392
0.0031155427
0.0030866267
0.0030581601
0.0030299143
0.0030019242
0.0029743632
0.0029471322
0.002919977
0.0028929618
0.002866165
0.0028396093
0.0028131104
0.0027866095
0.0027601246
0.0027338012
0.0027075408
0.0026811331
0.0026546413
0.002628104
0.0026015882
0.0025749467
0.0025480705
0.0025209765
0.002493772
0.0024664445
0.0024387896
0.0024107994
0.0023824581
0.002353905
0.0023250489
0.0022956644
0.0022657963
0.002235458
0.0022047177
0.002173416
0.0021414033
0.0021086594
0.0020753271
0.0020413144
0.0020063378
0.0019703937
0.0019335129
0.0018956909
0.001856687
0.0018163236
0.0017746302
0.0017315972
0.0016869556
0.0016404323
0.0015920835
0.0015417878
0.0014891422
0.0014339232
0.0013761239
0.001315562
0.0012527528
0.0011898015
0.0011278647
0.0010667506
0.0010063956
0.00094695058
0.00088831103
0.00083027292
0.00077288034
0.00071635561
0.00066068775
0.00060571011
0.00055157254
0.00049840633
0.00044652931
0.00039624601
0.00034754865
0.00030216698
0.00025849228
0.00022872159
0.00019031539
0.00031227564
-0.00024360101
0.0040823045
0.0041020527
0.0041452177
0.00419981
0.0042641695
0.0043382233
0.0044213089
0.0045127079
0.0046120839
0.0047194847
0.0048352573
0.0049600523
0.0050949024
0.0052413702
0.0054017449
0.0055794635
0.0057795267
0.006010312
0.0062834698
0.0066266499
0.0070651011
0.0077605507
0.0086425608
0.012458718
0.0091467545
0.0040427677
0.0039339116
0.0044080106
0.0045276443
0.004470585
0.0043941209
0.004325912
0.0042578512
0.0041885195
0.0041203754
0.0040551384
0.0039933852
0.0039347575
0.0038789833
0.0038258657
0.0037752481
0.0037269761
0.0036807097
0.0036364622
0.003593845
0.0035528752
0.0035134422
0.0034751296
0.0034381491
0.0034023583
0.0033673951
0.0033333993
0.0033003529
0.0032680177
0.0032362653
0.0032052928
0.0031749779
0.0031450457
0.003115549
0.0030866327
0.0030581659
0.0030299199
0.0030019295
0.0029743683
0.0029471371
0.0029199817
0.0028929663
0.0028661693
0.0028396135
0.0028131144
0.0027866133
0.0027601283
0.0027338047
0.0027075442
0.0026811365
0.0026546445
0.0026281071
0.0026015912
0.0025749496
0.0025480732
0.0025209792
0.0024937745
0.0024664469
0.002438792
0.0024108016
0.0023824603
0.0023539071
0.0023250509
0.0022956664
0.0022657982
0.0022354598
0.0022047194
0.0021734177
0.0021414049
0.002108661
0.0020753287
0.0020413158
0.0020063391
0.001970395
0.0019335142
0.0018956922
0.0018566882
0.0018163247
0.0017746313
0.0017315983
0.0016869566
0.0016404333
0.0015920844
0.0015417886
0.0014891431
0.001433924
0.0013761247
0.0013155627
0.0012527535
0.0011898021
0.0011278653
0.0010667512
0.0010063961
0.00094695112
0.00088831154
0.00083027341
0.00077288082
0.00071635606
0.00066068819
0.00060571053
0.00055157295
0.00049840673
0.00044652969
0.00039624638
0.00034754901
0.00030216733
0.00025849262
0.00022872194
0.00019031571
0.00031227605
-0.00024360076
0.0040823045
0.0041020527
0.0041452177
0.00419981
0.0042641695
0.0043382233
0.0044213089
0.0045127079
0.0046120839
0.0047194847
0.0048352574
0.0049600523
0.0050949024
0.0052413702
0.005401745
0.0055794636
0.0057795267
0.006010312
0.0062834697
0.0066266496
0.0070651006
0.0077605469
0.0086425647
0.01244239
0.0091467313
0.0040444853
0.0039342241
0.0044081314
0.0045277232
0.0044706494
0.0043941763
0.0043259605
0.0042578942
0.0041885579
0.0041204101
0.0040551699
0.003993414
0.0039347839
0.0038790077
0.0038258883
0.003775269
0.0037269956
0.0036807279
0.0036364793
0.0035938609
0.0035528902
0.0035134563
0.0034751429
0.0034381617
0.0034023703
0.0033674064
0.00333341
0.0033003631
0.0032680273
0.0032362745
0.0032053016
0.0031749862
0.0031450537
0.0031155566
0.00308664
0.0030581729
0.0030299265
0.0030019359
0.0029743744
0.002947143
0.0029199874
0.0028929717
0.0028661745
0.0028396185
0.0028131192
0.002786618
0.0027601328
0.002733809
0.0027075483
0.0026811404
0.0026546483
0.0026281107
0.0026015947
0.002574953
0.0025480765
0.0025209823
0.0024937776
0.0024664499
0.0024387948
0.0024108044
0.0023824629
0.0023539096
0.0023250533
0.0022956687
0.0022658005
0.002235462
0.0022047215
0.0021734197
0.0021414068
0.0021086629
0.0020753304
0.0020413176
0.0020063408
0.0019703966
0.0019335157
0.0018956936
0.0018566896
0.001816326
0.0017746325
0.0017315995
0.0016869578
0.0016404344
0.0015920855
0.0015417896
0.001489144
0.0014339249
0.0013761256
0.0013155635
0.0012527543
0.0011898029
0.001127866
0.0010667519
0.0010063968
0.00094695174
0.00088831214
0.00083027399
0.00077288137
0.00071635659
0.0006606887
0.00060571102
0.00055157342
0.00049840719
0.00044653014
0.00039624681
0.00034754943
0.00030216774
0.00025849302
0.00022872234
0.00019031609
0.00031227652
-0.00024360046
0.0040823045
0.0041020527
0.0041452177
0.00419981
0.0042641696
0.0043382233
0.0044213089
0.0045127079
0.004612084
0.0047194847
0.0048352574
0.0049600524
0.0050949025
0.0052413703
0.0054017451
0.0055794636
0.0057795268
0.006010312
0.0062834696
0.0066266492
0.0070650999
0.0077605419
0.0086425694
0.012426042
0.0091468451
0.0040467834
0.0039346704
0.0044083016
0.0045278316
0.0044707366
0.004394251
0.0043260254
0.0042579513
0.0041886088
0.0041204558
0.0040552113
0.0039934518
0.0039348185
0.0038790395
0.0038259177
0.0037752962
0.0037270208
0.0036807515
0.0036365013
0.0035938815
0.0035529096
0.0035134745
0.00347516
0.0034381779
0.0034023855
0.0033674208
0.0033334237
0.0033003761
0.0032680397
0.0032362862
0.0032053127
0.0031749969
0.0031450639
0.0031155663
0.0030866492
0.0030581817
0.003029935
0.003001944
0.0029743822
0.0029471504
0.0029199945
0.0028929786
0.0028661811
0.0028396248
0.0028131253
0.0027866238
0.0027601384
0.0027338144
0.0027075535
0.0026811454
0.0026546531
0.0026281153
0.0026015991
0.0025749573
0.0025480806
0.0025209863
0.0024937814
0.0024664535
0.0024387983
0.0024108077
0.0023824662
0.0023539127
0.0023250564
0.0022956716
0.0022658033
0.0022354646
0.0022047241
0.0021734221
0.0021414092
0.0021086651
0.0020753326
0.0020413197
0.0020063428
0.0019703985
0.0019335176
0.0018956954
0.0018566913
0.0018163277
0.0017746341
0.001731601
0.0016869592
0.0016404358
0.0015920868
0.0015417909
0.0014891452
0.001433926
0.0013761266
0.0013155645
0.0012527553
0.0011898038
0.0011278669
0.0010667527
0.0010063976
0.0009469525
0.00088831286
0.00083027468
0.00077288203
0.00071635723
0.00066068932
0.00060571162
0.000551574
0.00049840774
0.00044653068
0.00039624734
0.00034754994
0.00030216823
0.0002584935
0.00022872282
0.00019031655
0.00031227708
-0.00024360011
0.0040823045
0.0041020527
0.0041452178
0.00419981
0.0042641696
0.0043382233
0.0044213089
0.0045127079
0.004612084
0.0047194848
0.0048352575
0.0049600524
0.0050949026
0.0052413704
0.0054017451
0.0055794637
0.0057795268
0.0060103119
0.0062834694
0.0066266486
0.007065099
0.0077605354
0.0086425752
0.01240976
0.009147147
0.0040499198
0.0039353325
0.0044085556
0.0045279895
0.0044708618
0.0043943571
0.0043261169
0.0042580313
0.0041886797
0.0041205193
0.0040552686
0.0039935038
0.003934866
0.0038790831
0.0038259578
0.0037753333
0.0037270552
0.0036807835
0.0036365311
0.0035939094
0.0035529357
0.003513499
0.0034751831
0.0034381996
0.003402406
0.0033674402
0.0033334421
0.0033003935
0.0032680562
0.0032363018
0.0032053276
0.003175011
0.0031450774
0.0031155792
0.0030866615
0.0030581935
0.0030299462
0.0030019548
0.0029743924
0.0029471602
0.0029200039
0.0028929876
0.0028661897
0.0028396331
0.0028131332
0.0027866314
0.0027601457
0.0027338214
0.0027075602
0.0026811519
0.0026546593
0.0026281213
0.0026016049
0.0025749628
0.002548086
0.0025209914
0.0024937863
0.0024664582
0.0024388029
0.0024108121
0.0023824704
0.0023539168
0.0023250603
0.0022956754
0.0022658069
0.0022354681
0.0022047274
0.0021734253
0.0021414123
0.0021086681
0.0020753355
0.0020413224
0.0020063454
0.001970401
0.00193352
0.0018956977
0.0018566935
0.0018163298
0.0017746361
0.0017316029
0.001686961
0.0016404375
0.0015920884
0.0015417925
0.0014891467
0.0014339274
0.001376128
0.0013155658
0.0012527565
0.0011898049
0.001127868
0.0010667538
0.0010063986
0.00094695345
0.00088831378
0.00083027555
0.00077288287
0.00071635804
0.0006606901
0.00060571237
0.00055157472
0.00049840844
0.00044653135
0.00039624799
0.00034755057
0.00030216885
0.00025849411
0.00022872342
0.00019031712
0.00031227779
-0.00024359966
0.0040823045
0.0041020527
0.0041452178
0.0041998101
0.0042641696
0.0043382233
0.004421309
0.004512708
0.0046120841
0.0047194848
0.0048352575
0.0049600525
0.0050949026
0.0052413704
0.0054017452
0.0055794637
0.0057795268
0.0060103118
0.006283469
0.0066266477
0.0070650977
0.0077605269
0.0086425823
0.012393572
0.0091475437
0.0040542441
0.0039363226
0.0044089469
0.0045282291
0.0044710487
0.004394514
0.0043262512
0.0042581481
0.0041887827
0.0041206111
0.0040553511
0.0039935785
0.003934934
0.0038791453
0.0038260149
0.0037753859
0.003727104
0.0036808287
0.0036365732
0.0035939487
0.0035529724
0.0035135334
0.0034752154
0.00343823
0.0034024347
0.0033674672
0.0033334676
0.0033004177
0.0032680791
0.0032363236
0.0032053483
0.0031750307
0.0031450961
0.003115597
0.0030866785
0.0030582097
0.0030299617
0.0030019695
0.0029744065
0.0029471737
0.0029200169
0.002893
0.0028662016
0.0028396445
0.0028131441
0.0027866419
0.0027601557
0.0027338311
0.0027075695
0.0026811608
0.0026546679
0.0026281295
0.0026016128
0.0025749704
0.0025480932
0.0025209984
0.002493793
0.0024664647
0.0024388091
0.0024108181
0.0023824761
0.0023539223
0.0023250655
0.0022956804
0.0022658118
0.0022354728
0.0022047319
0.0021734296
0.0021414164
0.0021086721
0.0020753393
0.002041326
0.0020063489
0.0019704044
0.0019335232
0.0018957007
0.0018566964
0.0018163326
0.0017746388
0.0017316054
0.0016869635
0.0016404398
0.0015920906
0.0015417946
0.0014891487
0.0014339293
0.0013761298
0.0013155675
0.0012527581
0.0011898065
0.0011278694
0.0010667552
0.0010063999
0.00094695471
0.00088831498
0.00083027671
0.00077288398
0.0007163591
0.00066069112
0.00060571335
0.00055157567
0.00049840936
0.00044653224
0.00039624885
0.00034755141
0.00030216966
0.00025849489
0.0002287242
0.00019031787
0.00031227871
-0.00024359908
0.0040823045
0.0041020527
0.0041452178
0.0041998101
0.0042641696
0.0043382234
0.004421309
0.004512708
0.0046120841
0.0047194849
0.0048352576
0.0049600525
0.0050949027
0.0052413705
0.0054017452
0.0055794637
0.0057795267
0.0060103116
0.0062834686
0.0066266466
0.0070650961
0.007760516
0.0086425911
0.01237743
0.0091479354
0.0040599124
0.0039377713
0.0044095515
0.0045285968
0.0044713318
0.00439475
0.0043264522
0.004258322
0.0041889353
0.0041207466
0.0040554725
0.003993688
0.0039350335
0.0038792361
0.0038260982
0.0037754626
0.0037271747
0.0036808942
0.0036366341
0.0035940055
0.0035530254
0.003513583
0.003475262
0.0034382738
0.0034024759
0.0033675061
0.0033335043
0.0033004524
0.003268112
0.0032363548
0.0032053778
0.0031750588
0.0031451228
0.0031156224
0.0030867027
0.0030582328
0.0030299837
0.0030019906
0.0029744266
0.002947193
0.0029200352
0.0028930175
0.0028662184
0.0028396606
0.0028131596
0.0027866567
0.0027601699
0.0027338447
0.0027075826
0.0026811733
0.0026546799
0.0026281411
0.0026016239
0.002574981
0.0025481035
0.0025210082
0.0024938025
0.0024664738
0.0024388178
0.0024108265
0.0023824842
0.00235393
0.002325073
0.0022956876
0.0022658186
0.0022354793
0.0022047382
0.0021734357
0.0021414222
0.0021086776
0.0020753446
0.0020413311
0.0020063538
0.001970409
0.0019335276
0.001895705
0.0018567005
0.0018163365
0.0017746425
0.001731609
0.0016869668
0.001640443
0.0015920937
0.0015417975
0.0014891515
0.0014339319
0.0013761322
0.0013155699
0.0012527603
0.0011898086
0.0011278714
0.0010667571
0.0010064017
0.00094695643
0.00088831663
0.00083027829
0.0007728855
0.00071636056
0.00066069252
0.0006057147
0.00055157697
0.00049841061
0.00044653345
0.00039625002
0.00034755254
0.00030217077
0.00025849596
0.00022872527
0.00019031889
0.00031227997
-0.00024359829
0.0040823045
0.0041020527
0.0041452178
0.0041998101
0.0042641696
0.0043382234
0.004421309
0.0045127081
0.0046120841
0.0047194849
0.0048352576
0.0049600526
0.0050949027
0.0052413705
0.0054017452
0.0055794637
0.0057795266
0.0060103114
0.006283468
0.006626645
0.0070650939
0.0077605019
0.0086426019
0.012361209
0.0091482213
0.004066753
0.0039398082
0.0044104641
0.0045291518
0.0044717552
0.0043951014
0.0043267507
0.0042585796
0.0041891608
0.0041209464
0.0040556512
0.003993849
0.0039351794
0.0038793691
0.0038262199
0.0037755745
0.003727278
0.0036809898
0.0036367228
0.0035940881
0.0035531026
0.0035136552
0.0034753296
0.0034383373
0.0034025356
0.0033675624
0.0033335575
0.0033005026
0.0032681595
0.0032363998
0.0032054206
0.0031750994
0.0031451614
0.0031156592
0.0030867377
0.0030582661
0.0030300155
0.0030020209
0.0029744556
0.0029472206
0.0029200617
0.0028930429
0.0028662427
0.0028396838
0.0028131818
0.002786678
0.0027601904
0.0027338643
0.0027076013
0.0026811913
0.0026546972
0.0026281577
0.0026016398
0.0025749963
0.0025481182
0.0025210223
0.002493816
0.0024664868
0.0024388303
0.0024108384
0.0023824957
0.0023539411
0.0023250836
0.0022956977
0.0022658283
0.0022354887
0.0022047472
0.0021734443
0.0021414305
0.0021086855
0.0020753522
0.0020413384
0.0020063607
0.0019704157
0.001933534
0.0018957111
0.0018567063
0.001816342
0.0017746478
0.001731614
0.0016869716
0.0016404476
0.001592098
0.0015418016
0.0014891554
0.0014339357
0.0013761358
0.0013155732
0.0012527634
0.0011898115
0.0011278743
0.0010667598
0.0010064043
0.00094695888
0.00088831896
0.00083028052
0.00077288764
0.00071636261
0.00066069449
0.0006057166
0.0005515788
0.00049841237
0.00044653515
0.00039625167
0.00034755414
0.00030217232
0.00025849747
0.00022872678
0.00019032032
0.00031228174
-0.00024359718
0.0040823045
0.0041020527
0.0041452178
0.0041998101
0.0042641697
0.0043382234
0.0044213091
0.0045127081
0.0046120842
0.004719485
0.0048352577
0.0049600527
0.0050949028
0.0052413706
0.0054017453
0.0055794637
0.0057795264
0.0060103109
0.0062834671
0.006626643
0.007065091
0.0077604836
0.0086426152
0.012344753
0.009148257
0.0040745974
0.0039425563
0.0044117868
0.0045299606
0.0044723682
0.0043956089
0.0043271815
0.0042589513
0.004189486
0.0041212344
0.0040559086
0.0039940807
0.0039353893
0.0038795603
0.0038263949
0.0037757353
0.0037274263
0.003681127
0.0036368502
0.0035942066
0.0035532132
0.0035137586
0.0034754265
0.0034384283
0.0034026213
0.0033676431
0.0033336336
0.0033005746
0.0032682276
0.0032364643
0.0032054818
0.0031751575
0.0031452166
0.0031157117
0.0030867878
0.0030583138
0.003030061
0.0030020644
0.0029744971
0.0029472603
0.0029200996
0.0028930791
0.0028662774
0.0028397171
0.0028132137
0.0027867085
0.0027602196
0.0027338923
0.0027076283
0.0026812172
0.002654722
0.0026281815
0.0026016626