/*--------------------------------*- C++ -*----------------------------------*\
  =========                 |
  \\      /  F ield         | OpenFOAM: The Open Source CFD Toolbox
   \\    /   O peration     | Website:  https://openfoam.org
    \\  /    A nd           | Version:  12
     \\/     M anipulation  |
\*---------------------------------------------------------------------------*/
FoamFile
{
    format      ascii;
    class       surfaceScalarField;
    location    "700";
    object      phi;
}
// * * * * * * * * * * * * * * * * * * * * * * * * * * * * * * * * * * * * * //

dimensions      [0 3 -1 0 0 0 0];

internalField   nonuniform List<scalar> 
14782
(
0.00078635966
7.1539513e-06
-0.00079351362
0.00077670758
9.6520871e-06
0.00076587422
1.083336e-05
0.000754562
1.1312214e-05
0.00074277848
1.1783523e-05
0.00073057318
1.2205301e-05
0.0007179851
1.2588076e-05
0.00070506169
1.2923414e-05
0.00069187526
1.3186427e-05
0.00067854962
1.3325639e-05
0.0006652749
1.3274721e-05
0.00065231371
1.2961197e-05
0.00064000181
1.2311899e-05
0.00062869429
1.1307514e-05
0.00061866145
1.0032846e-05
0.000610013
8.6484476e-06
0.00060267863
7.3343651e-06
0.00059652466
6.1539747e-06
0.00059129647
5.2281873e-06
0.00058674008
4.5563873e-06
0.00058278855
3.9515379e-06
0.00057922526
3.563286e-06
0.00057589547
3.3297939e-06
0.00057272771
3.1677544e-06
0.00056966611
3.0615994e-06
0.00056669137
2.9747423e-06
0.00056379511
2.896265e-06
0.00056098095
2.8141596e-06
0.00055825183
2.7291131e-06
0.0005556135
2.6383321e-06
0.00055306458
2.5489191e-06
0.00055059355
2.471035e-06
0.0005481693
2.4242506e-06
0.00054575036
2.4189405e-06
0.00054331589
2.4344602e-06
0.00054087133
2.4445656e-06
0.00053843845
2.4328835e-06
0.00053604592
2.3925266e-06
0.00053371919
2.3267328e-06
0.00053147306
2.2461261e-06
0.00052931181
2.1612478e-06
0.00052723354
2.0782715e-06
0.00052523154
2.002006e-06
0.00052329685
1.9346843e-06
0.00052140563
1.8912251e-06
0.00051950695
1.8986771e-06
0.0005175159
1.9910446e-06
0.00051529385
2.2220552e-06
0.00051267822
2.6156297e-06
0.00050967286
3.0053603e-06
0.00050654831
3.1245519e-06
0.00050360783
2.9404813e-06
0.00050098546
2.6223623e-06
0.0004986671
2.3183589e-06
0.00049657065
2.0964566e-06
0.00049461771
1.9529358e-06
0.00049274536
1.8723517e-06
0.00049092816
1.8171953e-06
0.000489165
1.763167e-06
0.00048744729
1.7177046e-06
0.00048576688
1.6804131e-06
0.00048411481
1.6520745e-06
0.00048248415
1.6306527e-06
0.00048086997
1.614186e-06
0.00047926807
1.6018978e-06
0.00047767588
1.5921859e-06
0.00047609237
1.5835117e-06
0.00047451646
1.5759117e-06
0.00047294663
1.5698289e-06
0.00047138142
1.5652129e-06
0.00046981933
1.5620848e-06
0.00046825903
1.5603045e-06
0.00046669945
1.5595794e-06
0.0004651394
1.5600534e-06
0.00046357775
1.561645e-06
0.00046201351
1.5642359e-06
0.00046044549
1.5680215e-06
0.00045887268
1.5728113e-06
0.0004572942
1.5784769e-06
0.00045570892
1.5852839e-06
0.00045411657
1.5923496e-06
0.00045251748
1.5990864e-06
0.00045091614
1.6013404e-06
0.00044937091
1.5452377e-06
0.00044844278
9.2812769e-07
0.00045247544
-4.0326588e-06
0.00045898106
-6.5056247e-06
0.00046251372
-3.5326569e-06
0.00046434396
-1.8302347e-06
0.00046491798
-5.7401975e-07
0.00046482473
9.3242954e-08
0.00046435895
4.6577993e-07
0.00046367756
6.8139501e-07
0.0004628634
8.1415747e-07
0.0004619634
9.0000466e-07
0.00046100706
9.5633681e-07
0.0004599991
1.0079602e-06
0.00045892879
1.070313e-06
0.00045782693
1.1018599e-06
1.3410344e-06
0.00082497986
6.7727713e-06
-0.00082459868
0.00082537726
9.2546882e-06
0.0008255874
1.0623219e-05
0.00082568132
1.1218292e-05
0.00082565317
1.1811677e-05
0.00082549922
1.2359246e-05
0.00082521305
1.2874244e-05
0.00082477265
1.3363817e-05
0.00082412256
1.383652e-05
0.0008231678
1.4280397e-05
0.00082178393
1.4658592e-05
0.00081980195
1.4943176e-05
0.00081702109
1.5092756e-05
0.00081324458
1.5084024e-05
0.00080835052
1.4926908e-05
0.00080234186
1.4657112e-05
0.00079533074
1.4345481e-05
0.0007874879
1.3996819e-05
0.00077903816
1.3677923e-05
0.00077020064
1.3393912e-05
0.00076120101
1.2951167e-05
0.00075230505
1.245924e-05
0.00074370241
1.1932441e-05
0.00073551316
1.1357001e-05
0.00072781242
1.0762334e-05
0.00072063032
1.0156843e-05
0.00071396872
9.5578723e-06
0.00070779824
8.9846357e-06
0.0007020618
8.4655554e-06
0.00069669133
8.0087976e-06
0.00069162043
7.6198171e-06
0.00068678709
7.3043805e-06
0.00068215314
7.0582007e-06
0.00067770732
6.8647628e-06
0.00067344025
6.701525e-06
0.00066933962
6.5451995e-06
0.00066538868
6.3838166e-06
0.00066156794
6.2132679e-06
0.00065786117
6.0335052e-06
0.00065425828
5.849017e-06
0.00065075447
5.6650597e-06
0.00064734809
5.4846486e-06
0.00064403738
5.3127143e-06
0.0006408203
5.1517679e-06
0.00063769943
5.0120917e-06
0.00063468705
4.9110548e-06
0.00063181074
4.8673618e-06
0.00062912606
4.906731e-06
0.00062670009
5.0416044e-06
0.00062449541
5.2100368e-06
0.00062233188
5.2880834e-06
0.00062005387
5.2184917e-06
0.00061763095
5.0452747e-06
0.00061511342
4.8358884e-06
0.00061256904
4.6408458e-06
0.00061004086
4.4811136e-06
0.00060754589
4.3673211e-06
0.00060508958
4.2735016e-06
0.00060267623
4.1765204e-06
0.00060030851
4.0854247e-06
0.00059798615
4.0027685e-06
0.00059570707
3.9311601e-06
0.00059346907
3.8686509e-06
0.00059126996
3.8132967e-06
0.00058910717
3.7646862e-06
0.00058697895
3.7204049e-06
0.00058488441
3.6780485e-06
0.0005828225
3.637829e-06
0.00058079189
3.6004322e-06
0.0005787914
3.5657089e-06
0.00057681978
3.5337009e-06
0.00057487589
3.5042002e-06
0.00057295877
3.4766989e-06
0.00057106742
3.4513966e-06
0.00056920094
3.4281261e-06
0.00056735852
3.4066539e-06
0.00056553926
3.3872862e-06
0.00056374237
3.3697023e-06
0.00056196712
3.3537264e-06
0.00056021255
3.3398555e-06
0.00055847819
3.3267033e-06
0.00055676351
3.3137703e-06
0.00055506643
3.2984203e-06
0.00055337941
3.2322621e-06
0.00055163569
2.6718432e-06
0.00054885997
-1.2569428e-06
0.00054619982
-3.8454715e-06
0.00054485487
-2.1877058e-06
0.00054372894
-7.0430713e-07
0.00054259821
5.567126e-07
0.00054136833
1.3231218e-06
0.00054005697
1.7771451e-06
0.00053869644
2.0419216e-06
0.00053731074
2.199853e-06
0.00053591047
2.3002802e-06
0.0005345087
2.3581079e-06
0.00053307878
2.4378792e-06
0.00053166184
2.4872526e-06
0.00053001265
2.7510488e-06
2.7422863e-06
0.00085269515
6.4991849e-06
-0.00085242156
0.00085309937
8.8504656e-06
0.00085347222
1.0250371e-05
0.00085376218
1.0928331e-05
0.00085402542
1.1548443e-05
0.00085425013
1.2134529e-05
0.00085444806
1.2676312e-05
0.00085463006
1.3181824e-05
0.00085480244
1.3664133e-05
0.00085496379
1.4119051e-05
0.00085511407
1.4508308e-05
0.00085524154
1.4815715e-05
0.00085533021
1.5004082e-05
0.00085535421
1.5060027e-05
0.00085528099
1.500012e-05
0.00085506852
1.4869584e-05
0.00085466987
1.4744134e-05
0.00085402076
1.4645933e-05
0.00085304874
1.4649937e-05
0.00085166835
1.4774303e-05
0.00084971898
1.4900543e-05
0.00084708709
1.5091125e-05
0.00084371133
1.5308197e-05
0.00083956074
1.5507597e-05
0.00083464905
1.5674024e-05
0.0008290217
1.5784187e-05
0.0008227954
1.5784175e-05
0.00081614569
1.5634351e-05
0.00080924559
1.5365649e-05
0.00080226211
1.4992279e-05
0.00079534388
1.4538051e-05
0.000788608
1.4040258e-05
0.00078213486
1.3531343e-05
0.00077596212
1.3037505e-05
0.00077008753
1.2576108e-05
0.00076448463
1.2148102e-05
0.00075911554
1.1752903e-05
0.00075394235
1.1386458e-05
0.0007489368
1.1039053e-05
0.0007440809
1.0704924e-05
0.00073936412
1.0381837e-05
0.000734779
1.0069768e-05
0.00073031777
9.7739498e-06
0.00072597525
9.49428e-06
0.00072175497
9.2323743e-06
0.00071766856
8.9974623e-06
0.00071373227
8.8036561e-06
0.00070997067
8.6683319e-06
0.00070641025
8.6020206e-06
0.00070304325
8.5770359e-06
0.00069980918
8.5221533e-06
0.00069663491
8.3927686e-06
0.00069347408
8.2061022e-06
0.00069031279
7.9971738e-06
0.00068716102
7.792618e-06
0.00068403542
7.6067196e-06
0.00068095004
7.4526936e-06
0.00067791389
7.3096557e-06
0.0006749318
7.1586114e-06
0.0006720056
7.0116211e-06
0.00066913517
6.8731976e-06
0.00066632
6.7463366e-06
0.00066355952
6.6291286e-06
0.00066085247
6.5203416e-06
0.00065819684
6.4203212e-06
0.0006555913
6.3259449e-06
0.00065303481
6.2345332e-06
0.00065052579
6.1468519e-06
0.00064806263
6.0635963e-06
0.00064564399
5.9843441e-06
0.00064326857
5.9091184e-06
0.00064093509
5.8376872e-06
0.0006386424
5.7693826e-06
0.00063638936
5.7044431e-06
0.00063417487
5.6426164e-06
0.00063199797
5.5835517e-06
0.00062985762
5.5276349e-06
0.00062775289
5.4744335e-06
0.00062568288
5.4237324e-06
0.00062364651
5.3762287e-06
0.00062164306
5.3301536e-06
0.0006196716
5.2852283e-06
0.0006177286
5.24142e-06
0.00061579507
5.165791e-06
0.00061372932
4.7375957e-06
0.00061061508
1.8572989e-06
0.0006072324
-4.6279214e-07
0.00060479488
2.4981232e-07
0.00060277783
1.3127423e-06
0.00060097268
2.3618698e-06
0.00059922354
3.072252e-06
0.00059748529
3.5154044e-06
0.00059575075
3.7764618e-06
0.00059402452
3.9260783e-06
0.00059230639
4.0184098e-06
0.000590605
4.0595008e-06
0.00058888401
4.1588644e-06
0.000587206
4.1652621e-06
0.000585209
4.7480553e-06
4.2975426e-06
0.00088128052
6.2962629e-06
-0.0008810776
0.00088165816
8.4728328e-06
0.0008820322
9.876329e-06
0.00088232615
1.0634376e-05
0.00088259679
1.1277805e-05
0.00088283552
1.1895799e-05
0.00088304952
1.2462314e-05
0.00088324941
1.2981937e-05
0.0008834432
1.3470336e-05
0.00088363186
1.3930396e-05
0.00088381824
1.4321926e-05
0.000883997
1.4636949e-05
0.00088416233
1.483876e-05
0.00088430441
1.491794e-05
0.00088441678
1.4887748e-05
0.00088449577
1.4790603e-05
0.0008845465
1.4693403e-05
0.00088457058
1.4621849e-05
0.00088457398
1.4646538e-05
0.00088456567
1.4782619e-05
0.0008845261
1.4940106e-05
0.00088444458
1.5172651e-05
0.00088429638
1.5456394e-05
0.00088404167
1.5762304e-05
0.00088362547
1.609023e-05
0.00088298003
1.6429619e-05
0.00088199326
1.6770949e-05
0.00088052539
1.7102224e-05
0.00087846697
1.7424061e-05
0.0008757342
1.7725048e-05
0.00087228088
1.7991374e-05
0.0008681055
1.8215637e-05
0.00086328323
1.8353616e-05
0.00085795311
1.8367628e-05
0.00085226661
1.8262602e-05
0.0008463761
1.8038616e-05
0.00084041758
1.7711423e-05
0.00083449785
1.7306185e-05
0.00082868682
1.6850083e-05
0.00082301569
1.637606e-05
0.00081748694
1.5910582e-05
0.00081208967
1.5467041e-05
0.00080681223
1.5051385e-05
0.00080164868
1.4657833e-05
0.00079659971
1.4281338e-05
0.00079167262
1.392456e-05
0.00078687855
1.3597721e-05
0.00078222994
1.3316944e-05
0.00077773666
1.3095298e-05
0.00077339827
1.2915432e-05
0.00076919779
1.2722635e-05
0.00076510982
1.2480732e-05
0.00076111164
1.2204283e-05
0.00075718595
1.1922869e-05
0.00075332402
1.1654541e-05
0.00074952511
1.1405637e-05
0.0007457928
1.1185005e-05
0.00074212925
1.0973205e-05
0.0007385345
1.0753355e-05
0.0007350088
1.053732e-05
0.00073155221
1.032979e-05
0.00072816424
1.0134313e-05
0.00072484412
9.9492444e-06
0.00072159045
9.7740087e-06
0.00071840129
9.6094836e-06
0.00071527534
9.4518977e-06
0.00071221105
9.2988234e-06
0.00070920625
9.1516477e-06
0.0007062591
9.0107491e-06
0.00070336806
8.8753794e-06
0.00070053161
8.7455688e-06
0.00069774821
8.62109e-06
0.00069501645
8.5011393e-06
0.0006923349
8.3859933e-06
0.0006897022
8.2753157e-06
0.00068711712
8.1686344e-06
0.00068457836
8.0663984e-06
0.00068208473
7.9680606e-06
0.00067963511
7.8733542e-06
0.00067722819
7.7831445e-06
0.00067486306
7.695291e-06
0.0006725386
7.6096883e-06
0.00067025155
7.5284655e-06
0.0006679873
7.4300378e-06
0.00066565896
7.0659373e-06
0.00066279337
4.7228944e-06
0.00065971127
2.6193016e-06
0.00065705763
2.903459e-06
0.00065469901
3.6713609e-06
0.00065253671
4.5241673e-06
0.00065046105
5.1479088e-06
0.00064842303
5.5534272e-06
0.0006464057
5.7937907e-06
0.00064440753
5.9242499e-06
0.00064242515
6.0007881e-06
0.00064046679
6.0178581e-06
0.00063849176
6.1339006e-06
0.0006365793
6.0777162e-06
0.00063427681
7.050549e-06
6.019388e-06
0.00091084151
6.1334615e-06
-0.00091067871
0.00091118261
8.131735e-06
0.00091153229
9.5266509e-06
0.00091181585
1.0350819e-05
0.00091207472
1.1018934e-05
0.00091231054
1.1659977e-05
0.00091252575
1.2247101e-05
0.00091272852
1.2779169e-05
0.00091292631
1.3272542e-05
0.00091312
1.3736712e-05
0.0009133117
1.4130221e-05
0.00091349651
1.4452138e-05
0.000913669
1.4666278e-05
0.00091382105
1.4765887e-05
0.00091394591
1.4762889e-05
0.00091404015
1.4696362e-05
0.00091410912
1.4624433e-05
0.00091415609
1.4574875e-05
0.00091419077
1.4611865e-05
0.0009142257
1.4747682e-05
0.00091425403
1.4911781e-05
0.00091428174
1.5144941e-05
0.00091431062
1.5427513e-05
0.0009143385
1.573442e-05
0.00091436327
1.6065467e-05
0.00091438126
1.6411624e-05
0.00091438554
1.6766673e-05
0.00091436329
1.7124469e-05
0.00091429615
1.7491199e-05
0.00091415337
1.786783e-05
0.00091388795
1.8256795e-05
0.00091343855
1.866504e-05
0.00091270244
1.9089721e-05
0.00091154804
1.9522025e-05
0.00090986018
1.9950465e-05
0.00090754793
2.0350872e-05
0.00090455819
2.0701161e-05
0.00090089393
2.0970443e-05
0.00089663114
2.1112869e-05
0.00089189478
2.111242e-05
0.00088682287
2.0982499e-05
0.00088154876
2.0741146e-05
0.00087618494
2.0415209e-05
0.00087080963
2.0033136e-05
0.00086546421
1.9626762e-05
0.00086016709
1.9221682e-05
0.00085492964
1.8835173e-05
0.00084976565
1.8480935e-05
0.00084469153
1.8169414e-05
0.00083971985
1.7887112e-05
0.00083485393
1.7588556e-05
0.00083008956
1.7245105e-05
0.00082542042
1.6873424e-05
0.00082084009
1.6503191e-05
0.00081634367
1.6150961e-05
0.00081192916
1.5820151e-05
0.00080759686
1.5517309e-05
0.00080334482
1.5225244e-05
0.00079917014
1.4928035e-05
0.00079507252
1.4634937e-05
0.00079105261
1.4349701e-05
0.00078711024
1.4076686e-05
0.00078324467
1.3814814e-05
0.00077945492
1.3563751e-05
0.00077573962
1.3324785e-05
0.00077209703
1.3094487e-05
0.00076852536
1.2870498e-05
0.00076502281
1.26542e-05
0.00076158763
1.2445921e-05
0.00075821827
1.2244743e-05
0.0007549131
1.2050738e-05
0.0007516705
1.1863692e-05
0.00074848896
1.1682683e-05
0.0007453669
1.1508045e-05
0.00074230284
1.1339375e-05
0.00073929539
1.117609e-05
0.00073634308
1.1018708e-05
0.00073344457
1.086657e-05
0.00073059857
1.0719358e-05
0.00072780362
1.0578095e-05
0.00072505864
1.0440264e-05
0.00072236245
1.0305884e-05
0.00071971223
1.0178684e-05
0.00071709815
1.0044119e-05
0.00071447645
9.6876338e-06
0.00071161673
7.5826165e-06
0.00070863681
5.5992185e-06
0.00070585368
5.6865874e-06
0.00070325906
6.2659868e-06
0.00070081606
6.96716e-06
0.00069845885
7.5051186e-06
0.00069614765
7.8646317e-06
0.00069386442
8.077024e-06
0.00069160533
8.1833398e-06
0.00068936578
8.2403313e-06
0.00068715455
8.2290917e-06
0.00068492796
8.3604944e-06
0.00068278077
8.2249001e-06
0.00068017557
9.6557453e-06
7.9194366e-06
0.00094139063
6.0020781e-06
-0.00094125924
0.00094169106
7.8313057e-06
0.00094201733
9.2003761e-06
0.00094229576
1.0072389e-05
0.00094254999
1.07647e-05
0.00094278752
1.1422452e-05
0.00094300725
1.2027372e-05
0.00094321424
1.2572182e-05
0.00094341465
1.3072125e-05
0.00094361154
1.3539825e-05
0.0009438037
1.3938057e-05
0.00094398916
1.4266684e-05
0.00094416176
1.4493676e-05
0.00094431421
1.4613433e-05
0.00094444034
1.4636765e-05
0.00094453752
1.4599179e-05
0.0009446101
1.4551851e-05
0.00094466101
1.4523967e-05
0.00094469985
1.4573029e-05
0.00094473801
1.4709518e-05
0.00094477099
1.4878798e-05
0.00094480429
1.5111648e-05
0.00094484008
1.5391719e-05
0.00094487726
1.5697237e-05
0.0009449156
1.6027132e-05
0.00094495476
1.637246e-05
0.00094499394
1.6727496e-05
0.00094503144
1.7086962e-05
0.00094506714
1.7455505e-05
0.0009450999
1.7835066e-05
0.00094512816
1.8228542e-05
0.00094514995
1.8643242e-05
0.00094515985
1.9079823e-05
0.00094514697
1.9534905e-05
0.00094509182
2.000562e-05
0.00094495986
2.0482831e-05
0.00094469952
2.09615e-05
0.00094423062
2.143934e-05
0.00094343384
2.1909651e-05
0.00094217848
2.2367779e-05
0.0009403554
2.2805576e-05
0.00093788932
2.3207234e-05
0.0009347626
2.3541922e-05
0.00093103305
2.3762692e-05
0.00092680997
2.3849838e-05
0.00092222049
2.3811161e-05
0.00091738897
2.3666692e-05
0.00091242016
2.3449747e-05
0.00090738875
2.3200827e-05
0.00090233836
2.2937499e-05
0.00089729104
2.2635873e-05
0.00089226029
2.2275853e-05
0.00088725944
2.1874282e-05
0.00088230144
2.1461183e-05
0.0008773962
2.1056208e-05
0.0008725504
2.0665949e-05
0.00086776954
2.0298171e-05
0.00086305639
1.9938395e-05
0.00085841191
1.957251e-05
0.00085383776
1.9209089e-05
0.00084933589
1.885157e-05
0.00084490795
1.8504627e-05
0.00084055512
1.8167647e-05
0.00083627835
1.7840513e-05
0.00083207798
1.752516e-05
0.00082795297
1.7219494e-05
0.00082390225
1.6921219e-05
0.00081992513
1.6631324e-05
0.00081602063
1.6350416e-05
0.00081218774
1.6077636e-05
0.00080842526
1.5813223e-05
0.0008047319
1.5557051e-05
0.00080110643
1.5308147e-05
0.00079754751
1.5066968e-05
0.00079405379
1.4833098e-05
0.00079062398
1.4605894e-05
0.00078725671
1.438598e-05
0.00078395066
1.4172618e-05
0.00078070455
1.3965464e-05
0.00077751693
1.3765717e-05
0.00077438671
1.3570488e-05
0.00077131269
1.3379906e-05
0.0007682925
1.3198875e-05
0.00076531958
1.3017038e-05
0.00076237455
1.263266e-05
0.00075934105
1.061612e-05
0.00075625779
8.6824724e-06
0.00075328194
8.6624428e-06
0.0007504329
9.115027e-06
0.00074770253
9.6975302e-06
0.00074505404
1.0153603e-05
0.00074245779
1.0460879e-05
0.00073989677
1.063805e-05
0.00073736557
1.0714535e-05
0.0007348583
1.0747609e-05
0.00073238388
1.0703502e-05
0.0007298957
1.0848675e-05
0.00072750337
1.0617238e-05
0.00072458643
1.2572678e-05
1.001129e-05
0.00097295811
5.8947523e-06
-0.00097285078
0.00097322215
7.567267e-06
0.00097352717
8.8953582e-06
0.00097379984
9.7997169e-06
0.00097404924
1.05153e-05
0.00097428558
1.1186111e-05
0.00097450708
1.1805871e-05
0.0009747164
1.2362861e-05
0.00097491814
1.2870389e-05
0.00097511804
1.3339925e-05
0.000975311
1.3745095e-05
0.00097549797
1.4079714e-05
0.00097567191
1.4319736e-05
0.00097582626
1.4459085e-05
0.00097595516
1.4507863e-05
0.00097605621
1.4498133e-05
0.00097613298
1.4475076e-05
0.00097618846
1.4468489e-05
0.00097623185
1.4529638e-05
0.00097627313
1.4668242e-05
0.00097630932
1.4842611e-05
0.00097634531
1.507565e-05
0.00097638325
1.5353778e-05
0.00097642236
1.5658128e-05
0.00097646274
1.5986752e-05
0.00097650411
1.6331094e-05
0.00097654589
1.6685712e-05
0.00097658695
1.7045906e-05
0.00097662721
1.7415239e-05
0.00097666621
1.7796074e-05
0.00097670372
1.8191025e-05
0.00097674064
1.8606323e-05
0.00097677745
1.9043015e-05
0.00097681408
1.9498279e-05
0.00097685049
1.9969203e-05
0.00097688533
2.0447999e-05
0.00097691626
2.093056e-05
0.00097693887
2.1416733e-05
0.00097694368
2.1904847e-05
0.00097691352
2.2397934e-05
0.00097681765
2.290145e-05
0.00097660673
2.341815e-05
0.00097619962
2.3949031e-05
0.00097547434
2.4487971e-05
0.00097429642
2.5027763e-05
0.00097255286
2.5554718e-05
0.00097016779
2.6051761e-05
0.00096714168
2.647586e-05
0.00096355307
2.6789434e-05
0.00095951458
2.6975988e-05
0.00095514804
2.7002413e-05
0.00095056132
2.6862575e-05
0.00094583462
2.6600979e-05
0.00094101845
2.6277356e-05
0.00093614354
2.5931116e-05
0.00093123353
2.5575961e-05
0.0009263114
2.5220294e-05
0.00092139664
2.485316e-05
0.00091650325
2.4465897e-05
0.00091164159
2.407075e-05
0.00090681992
2.3673241e-05
0.00090204556
2.3278988e-05
0.00089732488
2.2888324e-05
0.00089266314
2.2502258e-05
0.00088806436
2.2123935e-05
0.00088353105
2.175281e-05
0.00087906483
2.1387435e-05
0.00087466708
2.1029073e-05
0.00087033876
2.0678734e-05
0.00086608055
2.0335853e-05
0.00086189264
2.0001124e-05
0.00085777495
1.9674748e-05
0.00085372721
1.9355881e-05
0.00084974892
1.9045265e-05
0.00084583941
1.8742604e-05
0.000841998
1.8447308e-05
0.00083822376
1.8160213e-05
0.0008345158
1.7880578e-05
0.00083087316
1.7608103e-05
0.00082729465
1.7344228e-05
0.00082377941
1.708573e-05
0.00082032645
1.6832873e-05
0.00081693383
1.6591487e-05
0.00081359715
1.6353724e-05
0.00081030935
1.5920462e-05
0.00080700606
1.3919403e-05
0.00080369785
1.1990686e-05
0.00080046719
1.1893097e-05
0.00079733178
1.2250442e-05
0.00079429481
1.2734496e-05
0.00079133727
1.3111146e-05
0.00078843832
1.3359832e-05
0.00078558284
1.349353e-05
0.00078276433
1.3533036e-05
0.00077997541
1.3536537e-05
0.00077722474
1.3454168e-05
0.00077446245
1.3610963e-05
0.00077181255
1.3267136e-05
0.00076857191
1.5813323e-05
1.2308086e-05
0.001005578
5.8048521e-06
-0.0010054881
0.0010058105
7.3347581e-06
0.0010060941
8.6117278e-06
0.0010063588
9.5350771e-06
0.0010066029
1.0271161e-05
0.001006837
1.0952021e-05
0.0010070597
1.1583133e-05
0.0010072715
1.2151071e-05
0.0010074761
1.2665789e-05
0.001007678
1.3138054e-05
0.0010078732
1.3549889e-05
0.0010080617
1.3891169e-05
0.0010082373
1.4144122e-05
0.0010083938
1.4302594e-05
0.0010085257
1.437597e-05
0.0010086308
1.43931e-05
0.0010087119
1.4393988e-05
0.001008772
1.4408392e-05
0.0010088197
1.4481892e-05
0.0010088639
1.4624042e-05
0.0010089029
1.4803616e-05
0.0010089411
1.5037405e-05
0.0010089808
1.5314126e-05
0.0010090214
1.5617537e-05
0.0010090631
1.5944994e-05
0.0010091058
1.6288467e-05
0.0010091487
1.6642774e-05
0.0010091909
1.7003715e-05
0.0010092323
1.737387e-05
0.0010092726
1.7755731e-05
0.0010093119
1.8151742e-05
0.0010093509
1.8567282e-05
0.0010093903
1.9003641e-05
0.0010094304
1.9458168e-05
0.0010094716
1.9928056e-05
0.001009513
2.0406577e-05
0.001009554
2.0889565e-05
0.0010095942
2.1376539e-05
0.0010096328
2.1866227e-05
0.0010096692
2.2361563e-05
0.0010097027
2.2867958e-05
0.0010097318
2.3389035e-05
0.0010097526
2.3928223e-05
0.0010097553
2.4485217e-05
0.0010097207
2.5062393e-05
0.0010096119
2.5663561e-05
0.0010093704
2.6293175e-05
0.0010088923
2.6954051e-05
0.0010080371
2.7644549e-05
0.0010066749
2.8338236e-05
0.0010047031
2.8974217e-05
0.0010020882
2.9477421e-05
0.00099888195
2.9807266e-05
0.00099518602
2.9973295e-05
0.00099111904
2.9998088e-05
0.00098678908
2.9905919e-05
0.00098227681
2.9732566e-05
0.00097763338
2.9496592e-05
0.00097289249
2.9206786e-05
0.00096808275
2.8880487e-05
0.0009632305
2.8525498e-05
0.00095835803
2.8151456e-05
0.00095348296
2.7763396e-05
0.00094861935
2.736587e-05
0.00094377907
2.6964215e-05
0.00093897195
2.6559922e-05
0.00093420571
2.6153681e-05
0.00092948641
2.5748366e-05
0.00092481912
2.5346033e-05
0.00092020804
2.4946924e-05
0.00091565644
2.4552726e-05
0.00091116678
2.4164414e-05
0.00090674102
2.3781637e-05
0.00090238052
2.3405763e-05
0.00089808624
2.3036889e-05
0.00089385884
2.2674708e-05
0.00088969858
2.2320475e-05
0.00088560554
2.1973615e-05
0.00088157963
2.1634016e-05
0.00087762036
2.1303492e-05
0.00087372751
2.0978579e-05
0.00086990062
2.0659766e-05
0.0008661384
2.0353707e-05
0.00086243798
2.0054138e-05
0.00085879832
1.9560122e-05
0.00085517893
1.7538797e-05
0.00085158199
1.5587622e-05
0.00084805598
1.5419107e-05
0.00084461056
1.5695864e-05
0.0008412518
1.6093253e-05
0.00083797099
1.6391956e-05
0.00083475451
1.6576318e-05
0.00083158976
1.6658278e-05
0.00082846984
1.6652955e-05
0.000825386
1.6620374e-05
0.00082234647
1.6493706e-05
0.00081929786
1.6659568e-05
0.00081637835
1.6186648e-05
0.00081280159
1.9390079e-05
1.4821895e-05
0.0010392849
5.7274349e-06
-0.0010392075
0.0010394902
7.1294539e-06
0.0010397526
8.3493276e-06
0.001040008
9.2797182e-06
0.0010402471
1.0032035e-05
0.0010404786
1.0720477e-05
0.0010407019
1.1359841e-05
0.0010409157
1.1937254e-05
0.0010411226
1.245896e-05
0.0010413258
1.2934823e-05
0.0010415229
1.3352823e-05
0.0010417125
1.3701497e-05
0.0010418895
1.3967144e-05
0.0010420479
1.414419e-05
0.0010421826
1.4241263e-05
0.0010422915
1.4284232e-05
0.0010423769
1.4308628e-05
0.0010424416
1.4343625e-05
0.0010424938
1.4429699e-05
0.0010425413
1.4576549e-05
0.0010425836
1.476137e-05
0.0010426246
1.4996339e-05
0.0010426666
1.5272114e-05
0.0010427094
1.5574819e-05
0.0010427531
1.5901291e-05
0.0010427975
1.6244068e-05
0.001042842
1.6598199e-05
0.0010428858
1.6959906e-05
0.0010429287
1.7330984e-05
0.0010429705
1.7713908e-05
0.0010430113
1.8110997e-05
0.0010430517
1.8526888e-05
0.0010430923
1.8963018e-05
0.0010431335
1.9417015e-05
0.0010431755
1.9886047e-05
0.0010432179
2.0364118e-05
0.0010432604
2.0847118e-05
0.0010433025
2.1334391e-05
0.0010433438
2.1824926e-05
0.0010433841
2.2321304e-05
0.0010434233
2.2828788e-05
0.0010434611
2.3351174e-05
0.0010434978
2.3891501e-05
0.0010435332
2.4449823e-05
0.0010435669
2.5028763e-05
0.0010435979
2.56325e-05
0.0010436244
2.6266647e-05
0.0010436406
2.6937854e-05
0.0010436331
2.7652075e-05
0.0010435723
2.8399056e-05
0.0010434031
2.9143381e-05
0.0010430244
2.9856108e-05
0.0010422932
3.0538495e-05
0.0010410675
3.1199057e-05
0.0010392364
3.1829172e-05
0.001036766
3.2376245e-05
0.00103371
3.2788571e-05
0.0010301677
3.3038931e-05
0.0010262527
3.3121789e-05
0.0010220644
3.3068746e-05
0.0010176733
3.2916657e-05
0.0010131254
3.2699378e-05
0.0010084562
3.2432513e-05
0.0010036984
3.2123711e-05
0.00099888074
3.1781878e-05
0.00099402685
3.141381e-05
0.00098915547
3.1025057e-05
0.0009842821
3.0621742e-05
0.00097941986
3.0208268e-05
0.00097457977
2.9787017e-05
0.00096977076
2.9361738e-05
0.00096500023
2.8934944e-05
0.00096027439
2.8507475e-05
0.00095559819
2.8081966e-05
0.00095097566
2.7659414e-05
0.00094641014
2.7240225e-05
0.00094190416
2.6826462e-05
0.00093745975
2.6418025e-05
0.0009330785
2.6015264e-05
0.00092876137
2.5620617e-05
0.0009245094
2.5230556e-05
0.00092032319
2.4845974e-05
0.0009162025
2.4474397e-05
0.00091214598
2.4110661e-05
0.00090815565
2.3550451e-05
0.00090420236
2.1492085e-05
0.00090028731
1.9502672e-05
0.00089644426
1.9262155e-05
0.00089267571
1.946442e-05
0.00088898683
1.9782131e-05
0.00088537444
2.0004343e-05
0.00088183055
2.0120212e-05
0.0008783455
2.0143327e-05
0.00087491278
2.008567e-05
0.00087152278
2.0010378e-05
0.0008681833
1.9833187e-05
0.0008648374
2.0005463e-05
0.00086163731
1.9386746e-05
0.00085771261
2.3314773e-05
1.7563709e-05
0.0010741149
5.6590642e-06
-0.0010740465
0.001074297
6.94734e-06
0.0010745391
8.10729e-06
0.0010747843
9.0344513e-06
0.0010750183
9.7980598e-06
0.0010752468
1.0491988e-05
0.0010754697
1.1136948e-05
0.0010756848
1.1722149e-05
0.0010758933
1.2250448e-05
0.0010760978
1.2730349e-05
0.0010762965
1.3154138e-05
0.0010764873
1.3510635e-05
0.0010766657
1.3788727e-05
0.0010768262
1.3983766e-05
0.0010769638
1.4103648e-05
0.0010770765
1.4171483e-05
0.0010771663
1.4218911e-05
0.0010772358
1.4274094e-05
0.0010772925
1.437298e-05
0.0010773435
1.4525553e-05
0.0010773891
1.4715763e-05
0.0010774331
1.4952389e-05
0.0010774774
1.5227735e-05
0.0010775222
1.5530021e-05
0.0010775678
1.5855729e-05
0.0010776139
1.6197974e-05
0.0010776601
1.6552033e-05
0.0010777055
1.6914485e-05
0.0010777499
1.7286517e-05
0.0010777934
1.7670493e-05
0.0010778357
1.8068627e-05
0.0010778777
1.8484919e-05
0.0010779198
1.8920867e-05
0.0010779625
1.937439e-05
0.0010780059
1.984267e-05
0.0010780496
2.0320338e-05
0.0010780934
2.0803396e-05
0.0010781367
2.1291034e-05
0.0010781791
2.1782491e-05
0.0010782204
2.2280049e-05
0.0010782606
2.27886e-05
0.0010782999
2.3311896e-05
0.0010783385
2.385285e-05
0.0010783766
2.4411782e-05
0.0010784142
2.4991149e-05
0.0010784514
2.5595302e-05
0.0010784881
2.6229944e-05
0.0010785247
2.6901201e-05
0.0010785626
2.7614246e-05
0.001078602
2.8359568e-05
0.0010786401
2.9105284e-05
0.0010786686
2.9827631e-05
0.001078672
3.0535093e-05
0.0010786192
3.1251857e-05
0.0010784545
3.1993903e-05
0.0010780705
3.2760265e-05
0.0010773161
3.3542973e-05
0.0010760449
3.43101e-05
0.0010741544
3.5012285e-05
0.0010716319
3.5591205e-05
0.0010685471
3.6001471e-05
0.0010650052
3.6241279e-05
0.0010611135
3.6324287e-05
0.0010569557
3.6281432e-05
0.0010525891
3.6148489e-05
0.001048056
3.594692e-05
0.001043394
3.5687065e-05
0.0010386368
3.5378923e-05
0.0010338125
3.5032638e-05
0.0010289437
3.4655784e-05
0.0010240496
3.4255791e-05
0.0010191466
3.3837986e-05
0.0010142483
3.3405784e-05
0.001009366
3.2964243e-05
0.0010045093
3.2516123e-05
0.00099968619
3.2063325e-05
0.00099490325
3.1609405e-05
0.00099016599
3.1155283e-05
0.000985479
3.0702253e-05
0.00098084581
3.025381e-05
0.00097626968
2.980669e-05
0.00097175315
2.9362505e-05
0.0009672977
2.8929846e-05
0.00096290389
2.8504466e-05
0.00095857585
2.7878492e-05
0.00095429032
2.5777616e-05
0.00095005012
2.3742873e-05
0.00094588369
2.3428585e-05
0.00094178894
2.3559165e-05
0.000937769
2.3802077e-05
0.00093382327
2.3950074e-05
0.00092994792
2.3995562e-05
0.00092613638
2.3954866e-05
0.00092238331
2.3838739e-05
0.00091867886
2.3714829e-05
0.00091503074
2.3481303e-05
0.00091137853
2.3657668e-05
0.00090788855
2.2876735e-05
0.00090360548
2.7597836e-05
2.0543344e-05
0.0011101054
5.5973454e-06
-0.0011100437
0.001110268
6.78479e-06
0.0011104909
7.8843478e-06
0.0011107255
8.7999003e-06
0.0011109539
9.5696215e-06
0.0011111789
1.0266972e-05
0.0011114007
1.0915207e-05
0.0011116165
1.1506363e-05
0.0011118263
1.2040613e-05
0.0011120319
1.2524756e-05
0.0011122319
1.295412e-05
0.0011124239
1.3318635e-05
0.0011126037
1.3608957e-05
0.001112766
1.3821409e-05
0.0011129065
1.3963221e-05
0.001113023
1.4054974e-05
0.001113117
1.4124904e-05
0.0011131912
1.4199841e-05
0.0011132524
1.4311755e-05
0.0011133071
1.4470942e-05
0.0011133561
1.4666727e-05
0.001113403
1.4905475e-05
0.0011134499
1.518088e-05
0.0011134969
1.5483018e-05
0.0011135444
1.5808173e-05
0.0011135924
1.6150035e-05
0.0011136403
1.6504121e-05
0.0011136874
1.6867313e-05
0.0011137336
1.724033e-05
0.0011137788
1.7625361e-05
0.0011138229
1.8024522e-05
0.0011138665
1.8441266e-05
0.0011139103
1.8877089e-05
0.0011139545
1.9330184e-05
0.0011139994
1.9797792e-05
0.0011140446
2.0275084e-05
0.0011140898
2.0758222e-05
0.0011141346
2.124626e-05
0.0011141784
2.1738641e-05
0.0011142211
2.2237401e-05
0.0011142626
2.2747069e-05
0.0011143032
2.3271324e-05
0.0011143431
2.3812976e-05
0.0011143822
2.4372622e-05
0.0011144208
2.4952592e-05
0.001114459
2.5557116e-05
0.0011144972
2.6191757e-05
0.001114536
2.6862372e-05
0.001114577
2.7573199e-05
0.0011146215
2.8315068e-05
0.0011146679
2.9058956e-05
0.0011147131
2.9782372e-05
0.0011147557
3.0492477e-05
0.0011147951
3.1212497e-05
0.0011148301
3.1958915e-05
0.0011148549
3.2735463e-05
0.001114853
3.3544853e-05
0.0011147865
3.4376626e-05
0.0011145803
3.5218506e-05
0.001114103
3.606851e-05
0.0011131917
3.6912721e-05
0.0011117054
3.7727556e-05
0.0011095804
3.8449306e-05
0.0011068503
3.9011513e-05
0.0011036059