/*--------------------------------*- C++ -*----------------------------------*\
  =========                 |
  \\      /  F ield         | OpenFOAM: The Open Source CFD Toolbox
   \\    /   O peration     | Website:  https://openfoam.org
    \\  /    A nd           | Version:  12
     \\/     M anipulation  |
\*---------------------------------------------------------------------------*/
FoamFile
{
    format      ascii;
    class       surfaceScalarField;
    location    "700";
    object      phi;
}
// * * * * * * * * * * * * * * * * * * * * * * * * * * * * * * * * * * * * * //

dimensions      [0 3 -1 0 0 0 0];

internalField   nonuniform List<scalar> 
25880
(
2.0046386e-06
1.5589697e-11
2.0045957e-06
4.2884366e-11
2.0045363e-06
5.9382034e-11
2.0044692e-06
6.709146e-11
2.0043945e-06
7.4666144e-11
2.0043115e-06
8.3026828e-11
2.0042197e-06
9.1767562e-11
2.0041187e-06
1.0101864e-10
2.0040075e-06
1.1118177e-10
2.0038849e-06
1.2263797e-10
2.0037491e-06
1.3576276e-10
2.0035981e-06
1.5105312e-10
2.0034289e-06
1.6920867e-10
2.0032375e-06
1.9135743e-10
2.0030186e-06
2.1894319e-10
2.0027633e-06
2.5526119e-10
2.0024609e-06
3.0246321e-10
2.0020848e-06
3.7609379e-10
2.0016184e-06
4.6635851e-10
2.0009327e-06
6.8570297e-10
2.0000561e-06
8.7659709e-10
1.9975703e-06
2.4858189e-09
1.9958299e-06
1.7404147e-09
1.02694e-06
9.6888992e-07
4.3244623e-08
9.8369533e-07
2.7440936e-08
1.5803687e-08
2.5405583e-08
2.0353534e-09
2.458657e-08
8.1901318e-10
2.400234e-08
5.8423017e-10
2.3501988e-08
5.0035157e-10
2.305924e-08
4.4274789e-10
2.266338e-08
3.9585967e-10
2.2305846e-08
3.5753486e-10
2.1979587e-08
3.2625823e-10
2.1679431e-08
3.0015677e-10
2.1401584e-08
2.7784687e-10
2.1143104e-08
2.584793e-10
2.0901593e-08
2.4151101e-10
2.0675061e-08
2.2653242e-10
2.0461843e-08
2.1321755e-10
2.0260531e-08
2.0131235e-10
2.0069908e-08
1.9062287e-10
1.9888915e-08
1.8099328e-10
1.9716635e-08
1.7228013e-10
1.955226e-08
1.6437502e-10
1.9395089e-08
1.5717055e-10
1.9244511e-08
1.5057854e-10
1.9099962e-08
1.4454879e-10
1.8960955e-08
1.3900715e-10
1.8827061e-08
1.33894e-10
1.8697875e-08
1.2918569e-10
1.8573037e-08
1.2483766e-10
1.8452237e-08
1.2080081e-10
1.833518e-08
1.1705644e-10
1.822159e-08
1.135897e-10
1.811123e-08
1.1036075e-10
1.8003888e-08
1.0734202e-10
1.7899354e-08
1.0453331e-10
1.7797432e-08
1.0192187e-10
1.7697956e-08
9.9476088e-11
1.7600777e-08
9.717924e-11
1.7505741e-08
9.5035894e-11
1.7412701e-08
9.3040541e-11
1.7321534e-08
9.1167144e-11
1.7232132e-08
8.9401829e-11
1.7144381e-08
8.7751173e-11
1.7058167e-08
8.6213329e-11
1.6973394e-08
8.4773138e-11
1.6889977e-08
8.3416806e-11
1.6807834e-08
8.214327e-11
1.6726877e-08
8.0956986e-11
1.6647022e-08
7.9855062e-11
1.65682e-08
7.8821495e-11
1.6490352e-08
7.7848874e-11
1.6413407e-08
7.6944561e-11
1.6337297e-08
7.6110018e-11
1.6261959e-08
7.5338155e-11
1.618734e-08
7.4618494e-11
1.6113391e-08
7.3949253e-11
1.6040054e-08
7.3336982e-11
1.596727e-08
7.2783795e-11
1.589499e-08
7.2280584e-11
1.582317e-08
7.1819599e-11
1.5751766e-08
7.1404547e-11
1.5680725e-08
7.1040899e-11
1.5609995e-08
7.0729856e-11
1.5539533e-08
7.0461686e-11
1.5469302e-08
7.0231157e-11
1.5399256e-08
7.004618e-11
1.5329344e-08
6.9911518e-11
1.5259519e-08
6.9824906e-11
1.518974e-08
6.9779112e-11
1.5119968e-08
6.9772695e-11
1.5050153e-08
6.9814508e-11
1.4980242e-08
6.9910637e-11
1.4910189e-08
7.0053212e-11
1.4839953e-08
7.0236662e-11
1.4769482e-08
7.0470187e-11
1.469872e-08
7.0761998e-11
1.462761e-08
7.1110389e-11
1.4556101e-08
7.150947e-11
1.4484138e-08
7.1962553e-11
1.4411657e-08
7.2480958e-11
1.433859e-08
7.3067473e-11
1.4264873e-08
7.371614e-11
1.4190442e-08
7.4431251e-11
1.4115215e-08
7.5227462e-11
1.4039107e-08
7.6107394e-11
1.396204e-08
7.7067142e-11
1.3883923e-08
7.811715e-11
1.3804647e-08
7.9275789e-11
1.3724114e-08
8.0533583e-11
1.3642185e-08
8.1928882e-11
1.356222e-08
7.9965119e-11
1.3486055e-08
7.6164406e-11
1.3413405e-08
7.2650334e-11
1.3343995e-08
6.9409502e-11
1.3277572e-08
6.6423352e-11
1.3213911e-08
6.3661095e-11
1.3152816e-08
6.109491e-11
1.3094103e-08
5.8712642e-11
1.30376e-08
5.6503548e-11
1.2983155e-08
5.4445232e-11
1.2930636e-08
5.2518345e-11
1.287992e-08
5.0716236e-11
1.2830886e-08
4.9034542e-11
1.2783415e-08
4.7470054e-11
1.2737407e-08
4.6008206e-11
1.2692746e-08
4.4660948e-11
1.2649355e-08
4.3391727e-11
1.2606976e-08
4.2379043e-11
1.2565712e-08
4.1263965e-11
1.2524349e-08
4.1362538e-11
1.2484903e-08
3.9446177e-11
1.243628e-08
4.8623128e-11
3.0811182e-11
2.0345122e-06
3.1434163e-11
2.0344686e-06
8.6492836e-11
2.0344082e-06
1.1979357e-10
2.0343399e-06
1.3535882e-10
2.034264e-06
1.506425e-10
2.0341795e-06
1.6750823e-10
2.0340861e-06
1.851391e-10
2.0339833e-06
2.0379768e-10
2.0338702e-06
2.2429387e-10
2.0337455e-06
2.4739601e-10
2.0336074e-06
2.7386134e-10
2.0334537e-06
3.0469174e-10
2.0332816e-06
3.4129756e-10
2.033087e-06
3.8595266e-10
2.0328644e-06
4.4156717e-10
2.0326049e-06
5.1478372e-10
2.0322974e-06
6.099377e-10
2.0319151e-06
7.5836398e-10
2.0314412e-06
9.4030908e-10
2.0307445e-06
1.382424e-09
2.0298539e-06
1.7671433e-09
2.0273291e-06
5.0106461e-09
2.0255586e-06
3.5108745e-09
1.0984062e-06
1.8960424e-06
1.2979729e-07
1.9523042e-06
8.3964872e-08
6.1636101e-08
7.7739171e-08
8.2610541e-09
7.5231425e-08
3.3267591e-09
7.3442175e-08
2.3734796e-09
7.1910935e-08
2.0315924e-09
7.0556266e-08
1.7974165e-09
6.9345043e-08
1.6070825e-09
6.8251067e-08
1.4515111e-09
6.7252807e-08
1.3245185e-09
6.6334426e-08
1.2185375e-09
6.5484313e-08
1.1279595e-09
6.4693458e-08
1.0493343e-09
6.3954519e-08
9.8045009e-10
6.3261409e-08
9.1964284e-10
6.2609037e-08
8.6558952e-10
6.199309e-08
8.1725923e-10
6.1409848e-08
7.7386514e-10
6.0856069e-08
7.3477243e-10
6.0328947e-08
6.9940174e-10
5.9826012e-08
6.673096e-10
5.934512e-08
6.3806252e-10
5.8884396e-08
6.1130308e-10
5.8442121e-08
5.8682331e-10
5.8016802e-08
5.6432669e-10
5.7607125e-08
5.4357072e-10
5.7211855e-08
5.2445587e-10
5.6829888e-08
5.0680425e-10
5.6460272e-08
4.9041711e-10
5.6102112e-08
4.7521668e-10
5.575456e-08
4.6114186e-10
5.5416886e-08
4.4803387e-10
5.5088448e-08
4.3578006e-10
5.4768604e-08
4.2437731e-10
5.4456751e-08
4.137749e-10
5.4152381e-08
4.0384638e-10
5.3855037e-08
3.9452291e-10
5.3564252e-08
3.8582136e-10
5.3279572e-08
3.7772002e-10
5.3000625e-08
3.7011502e-10
5.2727077e-08
3.6294941e-10
5.245858e-08
3.5624803e-10
5.2194789e-08
3.5000436e-10
5.1935405e-08
3.4415755e-10
5.168017e-08
3.3865193e-10
5.1428831e-08
3.3348204e-10
5.1181122e-08
3.2866587e-10
5.0936785e-08
3.2419185e-10
5.069561e-08
3.1999622e-10
5.0457411e-08
3.1604837e-10
5.0221979e-08
3.1237695e-10
4.99891e-08
3.0898868e-10
4.9758583e-08
3.0585494e-10
4.9530268e-08
3.0293378e-10
4.9304e-08
3.0021721e-10
4.9079605e-08
2.9773146e-10
4.8856904e-08
2.9548531e-10
4.8635742e-08
2.9344246e-10
4.841599e-08
2.9157152e-10
4.8197508e-08
2.898866e-10
4.7980139e-08
2.8841021e-10
4.7763721e-08
2.8714712e-10
4.7548124e-08
2.8605864e-10
4.7333232e-08
2.8512326e-10
4.7118906e-08
2.8437223e-10
4.6904992e-08
2.838254e-10
4.6691344e-08
2.8347365e-10
4.6477835e-08
2.8328804e-10
4.6264345e-08
2.8326228e-10
4.6050728e-08
2.83432e-10
4.5836816e-08
2.8382197e-10
4.5622469e-08
2.8440093e-10
4.5407559e-08
2.8514613e-10
4.5191935e-08
2.8609417e-10
4.4975418e-08
2.8727871e-10
4.4757836e-08
2.8869308e-10
4.4539032e-08
2.9031354e-10
4.4318841e-08
2.9215314e-10
4.4097064e-08
2.9425762e-10
4.3873493e-08
2.9663869e-10
4.3647937e-08
2.9927237e-10
4.3420193e-08
3.0217576e-10
4.3190012e-08
3.0540806e-10
4.2957139e-08
3.0898041e-10
4.2721329e-08
3.1287703e-10
4.2482306e-08
3.1713991e-10
4.2239738e-08
3.2184359e-10
4.1993322e-08
3.2695003e-10
4.1742636e-08
3.3261515e-10
4.1497958e-08
3.246427e-10
4.126491e-08
3.0921233e-10
4.1042615e-08
2.9494597e-10
4.0830235e-08
2.8178887e-10
4.0626993e-08
2.696656e-10
4.0432203e-08
2.5845145e-10
4.0245264e-08
2.4803338e-10
4.0065615e-08
2.383618e-10
3.9892725e-08
2.2939315e-10
3.9726134e-08
2.2103679e-10
3.9565438e-08
2.132141e-10
3.9410257e-08
2.0589778e-10
3.9260221e-08
1.9907027e-10
3.9114972e-08
1.9271848e-10
3.8974197e-08
1.867834e-10
3.8837545e-08
1.8131353e-10
3.8704777e-08
1.7615975e-10
3.8575108e-08
1.7204768e-10
3.8448856e-08
1.6751558e-10
3.8322301e-08
1.6791823e-10
3.8201679e-08
1.6006768e-10
3.8052617e-08
1.9768557e-10
1.2464973e-10
2.0947047e-06
4.7772688e-11
2.0946598e-06
1.3148794e-10
2.0945974e-06
1.8215703e-10
2.0945269e-06
2.0584673e-10
2.0944484e-06
2.2909206e-10
2.0943612e-06
2.5473702e-10
2.0942648e-06
2.8154289e-10
2.0941587e-06
3.0990841e-10
2.0940419e-06
3.4106435e-10
2.0939132e-06
3.7617859e-10
2.0937706e-06
4.1640197e-10
2.093612e-06
4.632569e-10
2.0934345e-06
5.1888614e-10
2.0932337e-06
5.8674455e-10
2.093004e-06
6.7125309e-10
2.0927363e-06
7.8250432e-10
2.0924191e-06
9.2708143e-10
2.0920249e-06
1.1525934e-09
2.0915362e-06
1.4290098e-09
2.0908179e-06
2.1006711e-09
2.0899001e-06
2.6850238e-09
2.0872983e-06
7.6124325e-09
2.0854718e-06
5.3373817e-09
1.187468e-06
2.7940462e-06
2.2149648e-07
2.9182757e-06
1.4551139e-07
1.3762119e-07
1.3472167e-07
1.9050772e-08
1.3037356e-07
7.6748692e-09
1.2727082e-07
5.4762242e-09
1.2461701e-07
4.6854e-09
1.2226964e-07
4.1447802e-09
1.2017084e-07
3.7058842e-09
1.1827517e-07
3.3471808e-09
1.1654538e-07
3.0543149e-09
1.1495401e-07
2.8098995e-09
1.1348095e-07
2.6010203e-09
1.1211057e-07
2.4197172e-09
1.1083014e-07
2.2608778e-09
1.0962912e-07
2.1206622e-09
1.0849869e-07
1.9960201e-09
1.0743138e-07
1.8845753e-09
1.0642073e-07
1.7845138e-09
1.0546113e-07
1.6943693e-09
1.0454772e-07
1.6128092e-09
1.0367623e-07
1.5388069e-09
1.0284292e-07
1.471366e-09
1.0204456e-07
1.409663e-09
1.0127817e-07
1.3532127e-09
1.0054116e-07
1.3013376e-09
9.9831256e-08
1.2534779e-09
9.9146312e-08
1.2093991e-09
9.8484422e-08
1.1686951e-09
9.784393e-08
1.130909e-09
9.7223288e-08
1.0958582e-09
9.6621029e-08
1.0634008e-09
9.6035888e-08
1.033175e-09
9.5466748e-08
1.0049202e-09
9.49125e-08
9.7862543e-10
9.4372099e-08
9.5417538e-10
9.3844664e-08
9.3128143e-10
9.3329404e-08
9.0978349e-10
9.2825507e-08
8.897176e-10
9.2332193e-08
8.7103479e-10
9.1848809e-08
8.5349854e-10
9.1374782e-08
8.3697649e-10
9.0909507e-08
8.21523e-10
9.0452387e-08
8.0712441e-10
9.0002903e-08
7.9364171e-10
8.9560608e-08
7.8094701e-10
8.9125064e-08
7.6902588e-10
8.869581e-08
7.5791951e-10
8.8272401e-08
7.4760167e-10
8.785447e-08
7.3792724e-10
8.7441693e-08
7.2882475e-10
8.7033712e-08
7.2035835e-10
8.6630156e-08
7.1254457e-10
8.6230693e-08
7.0531798e-10
8.5835044e-08
6.9858259e-10
8.5442942e-08
6.9231891e-10
8.5054087e-08
6.8658666e-10
8.4668166e-08
6.8140652e-10
8.4284912e-08
6.7669592e-10
8.3904101e-08
6.7238248e-10
8.3525491e-08
6.6849736e-10
8.3148808e-08
6.650927e-10
8.2773776e-08
6.6217958e-10
8.2400164e-08
6.5967003e-10
8.2027774e-08
6.5751395e-10
8.1656364e-08
6.5578215e-10
8.1285668e-08
6.54521e-10
8.0915432e-08
6.537098e-10
8.0545438e-08
6.5328242e-10
8.0175476e-08
6.532237e-10
7.9805293e-08
6.5361515e-10
7.9434601e-08
6.5451414e-10
7.9063152e-08
6.5584966e-10
7.8690729e-08
6.5756896e-10
7.8317068e-08
6.597554e-10
7.794186e-08
6.6248694e-10
7.7564804e-08
6.6574868e-10
7.7185632e-08
6.6948621e-10
7.6804056e-08
6.737289e-10
7.6419731e-08
6.7858197e-10
7.6032297e-08
6.8407295e-10
7.5641423e-08
6.9014698e-10
7.5246755e-08
6.9684289e-10
7.4847867e-08
7.0429678e-10
7.4444312e-08
7.125351e-10
7.4035667e-08
7.215216e-10
7.3621455e-08
7.3135243e-10
7.3201099e-08
7.4219946e-10
7.2774073e-08
7.5397567e-10
7.2339648e-08
7.6704087e-10
7.1915635e-08
7.4865591e-10
7.1511775e-08
7.1307185e-10
7.1126548e-08
6.8017257e-10
7.0758506e-08
6.4983128e-10
7.0406298e-08
6.2187387e-10
7.0068736e-08
5.9601323e-10
6.9744781e-08
5.7198852e-10
6.9433458e-08
5.4968496e-10
6.9133849e-08
5.2900222e-10
6.8845154e-08
5.0973171e-10
6.8566676e-08
4.9169204e-10
6.8297754e-08
4.7481981e-10
6.8037749e-08
4.5907469e-10
6.7786041e-08
4.4442638e-10
6.7542086e-08
4.3073914e-10
6.7305275e-08
4.1812446e-10
6.7075196e-08
4.06238e-10
6.6850492e-08
3.9675247e-10
6.6631712e-08
3.8629531e-10
6.6412413e-08
3.8721712e-10
6.6203444e-08
3.6903633e-10
6.5944932e-08
4.5619827e-10
2.8697222e-10
2.1861131e-06
6.4853295e-11
2.1860661e-06
1.7855807e-10
2.1860008e-06
2.4743282e-10
2.185927e-06
2.7964389e-10
2.1858449e-06
3.1122701e-10
2.1857535e-06
3.4606057e-10
2.1856526e-06
3.8246717e-10
2.1855415e-06
4.2098773e-10
2.1854193e-06
4.6329289e-10
2.1852845e-06
5.1096837e-10
2.1851353e-06
5.6557655e-10
2.1849694e-06
6.2918376e-10
2.1847836e-06
7.0469804e-10
2.1845735e-06
7.9680811e-10
2.1843333e-06
9.1151301e-10
2.1840533e-06
1.0625098e-09
2.1837216e-06
1.258727e-09
2.1833094e-06
1.5647771e-09
2.1827986e-06
1.9398775e-09
2.1820479e-06
2.8513137e-09
2.1810889e-06
3.644096e-09
2.178371e-06
1.033029e-08
2.1764606e-06
7.2477838e-09
1.2977525e-06
3.6727542e-06
3.2345882e-07
3.8925694e-06
2.1573765e-07
2.4534236e-07
1.9974622e-07
3.50422e-08
1.9329518e-07
1.4125904e-08
1.8869264e-07
1.007877e-08
1.8475831e-07
8.6197298e-09
1.8127892e-07
7.6241642e-09
1.7816797e-07
6.8168375e-09
1.7535804e-07
6.1571142e-09
1.7279398e-07
5.618377e-09
1.7043513e-07
5.1687503e-09
1.6825163e-07
4.7845183e-09
1.6622031e-07
4.4510313e-09
1.6432232e-07
4.1588674e-09
1.6254203e-07
3.9009571e-09
1.6086636e-07
3.6716909e-09
1.5928423e-07
3.4667004e-09
1.577861e-07
3.282649e-09
1.5636363e-07
3.1168364e-09
1.5500962e-07
2.966816e-09
1.5371774e-07
2.830694e-09
1.5248246e-07
2.7066425e-09
1.5129898e-07
2.5931472e-09
1.5016288e-07
2.489308e-09
1.4907033e-07
2.3938875e-09
1.4801795e-07
2.3058557e-09
1.4700258e-07
2.2247732e-09
1.4602137e-07
2.1498992e-09
1.4507189e-07
2.0803959e-09
1.4415182e-07
2.0159219e-09
1.4325901e-07
1.956215e-09
1.4239157e-07
1.9006166e-09
1.4154784e-07
1.8486457e-09
1.4072619e-07
1.8002761e-09
1.3992507e-07
1.7552985e-09
1.3914316e-07
1.7131868e-09
1.383793e-07
1.6736443e-09
1.3763229e-07
1.6367326e-09
1.3690096e-07
1.6023636e-09
1.3618435e-07
1.5701068e-09
1.3548161e-07
1.5397173e-09
1.3479184e-07
1.5112903e-09
1.3411416e-07
1.4848027e-09
1.334478e-07
1.4600012e-09
1.327921e-07
1.4366511e-09
1.321464e-07
1.4147232e-09
1.3151003e-07
1.3942924e-09
1.3088232e-07
1.3753115e-09
1.3026273e-07
1.3575164e-09
1.2965078e-07
1.3407744e-09
1.2904594e-07
1.3252004e-09
1.2844766e-07
1.3108261e-09
1.2785544e-07
1.2975326e-09
1.2726888e-07
1.2851442e-09
1.2668758e-07
1.2736235e-09
1.2611109e-07
1.263079e-09
1.2553894e-07
1.2535494e-09
1.2497075e-07
1.2448848e-09
1.2440618e-07
1.236952e-09
1.2384487e-07
1.2298061e-09
1.2328642e-07
1.2235433e-09
1.2273042e-07
1.2181843e-09
1.2217652e-07
1.2135691e-09
1.2162443e-07
1.2096049e-09
1.2107379e-07
1.2064199e-09
1.2052421e-07
1.2041002e-09
1.1997531e-07
1.2026084e-09
1.1942677e-07
1.2018239e-09
1.1887828e-07
1.2017176e-09
1.1832946e-07
1.2024385e-09
1.1777988e-07
1.2040924e-09
1.1722918e-07
1.2065506e-09
1.1667703e-07
1.2097155e-09
1.1612305e-07
1.2137388e-09
1.1556677e-07
1.2187643e-09
1.1500775e-07
1.2247657e-09
1.1444559e-07
1.2316432e-09
1.1387987e-07
1.2394498e-09
1.1331008e-07
1.2483784e-09
1.1273567e-07
1.2584808e-09
1.1215616e-07
1.2696567e-09
1.1157103e-07
1.2819765e-09
1.1097963e-07
1.2956899e-09
1.1038132e-07
1.3108469e-09
1.0977546e-07
1.3273809e-09
1.0916135e-07
1.3454678e-09
1.0853812e-07
1.3654236e-09
1.0790501e-07
1.3870896e-09
1.0726092e-07
1.4111279e-09
1.0663227e-07
1.3773062e-09
1.060335e-07
1.3118424e-09
1.0546236e-07
1.2513183e-09
1.0491669e-07
1.1955001e-09
1.0439449e-07
1.1440671e-09
1.0389401e-07
1.0964919e-09
1.0341371e-07
1.0522943e-09
1.0295213e-07
1.0112626e-09
1.0250792e-07
9.7321238e-10
1.0207989e-07
9.3776057e-10
1.0166701e-07
9.0457335e-10
1.012683e-07
8.7353339e-10
1.008828e-07
8.4456663e-10
1.0050961e-07
8.1761736e-10
1.0014792e-07
7.9243625e-10
9.9796814e-08
7.6922774e-10
9.9455693e-08
7.4735822e-10
9.9122544e-08
7.2990136e-10
9.8798182e-08
7.1065748e-10
9.8473071e-08
7.1232873e-10
9.8163301e-08
6.7880599e-10
9.7779902e-08
8.3959723e-10
5.2746634e-10
2.3100996e-06
8.2936722e-11
2.3100497e-06
2.28429e-10
2.3099805e-06
3.1663605e-10
2.3099023e-06
3.5790226e-10
2.3098152e-06
3.9833016e-10
2.3097183e-06
4.4290454e-10
2.3096113e-06
4.8948634e-10
2.3094935e-06
5.3876677e-10
2.3093639e-06
5.9288211e-10
2.309221e-06
6.5386063e-10
2.3090629e-06
7.2370042e-10
2.3088871e-06
8.0504348e-10
2.3086901e-06
9.0160748e-10
2.3084676e-06
1.0193866e-09
2.308213e-06
1.166049e-09
2.3079164e-06
1.3591053e-09
2.3075652e-06
1.609962e-09
2.3071288e-06
2.0012213e-09
2.3065879e-06
2.4807081e-09
2.3057935e-06
3.6457644e-09
2.3047787e-06
4.6588967e-09
2.3019038e-06
1.3205188e-08
2.2998802e-06
9.271383e-09
1.433139e-06
4.5394954e-06
4.4107099e-07
4.8846375e-06
2.9878577e-07
3.8762758e-07
2.7665635e-07
5.7171617e-08
2.6771311e-07
2.3069149e-08
2.6133719e-07
1.6454685e-08
2.5589037e-07
1.4066548e-08
2.5107427e-07
1.2440264e-08
2.4676809e-07
1.1123022e-08
2.4287841e-07
1.0046796e-08
2.3932902e-07
9.1677646e-09
2.3606368e-07
8.4340955e-09
2.3304103e-07
7.807164e-09
2.30229e-07
7.2630585e-09
2.2760149e-07
6.7863775e-09
2.2513687e-07
6.3655769e-09
2.2281706e-07
5.991507e-09
2.2062671e-07
5.6570443e-09
2.1855262e-07
5.3567456e-09
2.1658325e-07
5.0862012e-09
2.1470864e-07
4.8414248e-09
2.1292002e-07
4.61932e-09
2.1120975e-07
4.4169113e-09
2.0957117e-07
4.2317284e-09
2.0799818e-07
4.0622923e-09
2.0648547e-07
3.9065965e-09
2.0502837e-07
3.76296e-09
2.0362249e-07
3.6306545e-09
2.0226391e-07
3.50848e-09
2.0094923e-07
3.3950739e-09
1.9967528e-07
3.2898709e-09
1.9843905e-07
3.1924411e-09
1.9723795e-07
3.1017204e-09
1.9606967e-07
3.0169217e-09
1.9493196e-07
2.9379932e-09
1.9382266e-07
2.8645973e-09
1.9273996e-07
2.7958833e-09
1.9168224e-07
2.7313634e-09
1.9064784e-07
2.6711311e-09
1.8963516e-07
2.6150452e-09
1.8864286e-07
2.5624113e-09
1.8766975e-07
2.5128266e-09
1.867146e-07
2.4664398e-09
1.8577619e-07
2.4232155e-09
1.8485344e-07
2.382745e-09
1.8394545e-07
2.3446459e-09
1.830513e-07
2.3088662e-09
1.8217007e-07
2.2755266e-09
1.8130083e-07
2.2445523e-09
1.8044283e-07
2.2155166e-09
1.795954e-07
2.1882007e-09
1.7875782e-07
2.1627877e-09
1.7792931e-07
2.1393311e-09
1.771092e-07
2.1176392e-09
1.7629692e-07
2.0974269e-09
1.7549191e-07
2.0786304e-09
1.7469357e-07
2.0614247e-09
1.7390124e-07
2.0458742e-09
1.7311439e-07
2.0317371e-09
1.7233255e-07
2.0187961e-09
1.7155522e-07
2.0071381e-09
1.7078184e-07
1.9969196e-09
1.7001185e-07
1.9881756e-09
1.6924477e-07
1.9806478e-09
1.6848019e-07
1.9741834e-09
1.6771762e-07
1.9689886e-09
1.6695652e-07
1.9652051e-09
1.6619635e-07
1.9627734e-09
1.6543668e-07
1.9614975e-09
1.6467707e-07
1.9613288e-09
1.63917e-07
1.9625084e-09
1.6315588e-07
1.9652099e-09
1.623932e-07
1.9692258e-09
1.6162852e-07
1.9743964e-09
1.608613e-07
1.9809663e-09
1.6009089e-07
1.9891711e-09
1.5931669e-07
1.9989693e-09
1.5853813e-07
2.0101987e-09
1.5775464e-07
2.0229442e-09
1.5696549e-07
2.0375198e-09
1.5616996e-07
2.0540115e-09
1.5536736e-07
2.0722564e-09
1.5455697e-07
2.0923683e-09
1.5373791e-07
2.1147536e-09
1.5290926e-07
2.1394955e-09
1.5207016e-07
2.1664862e-09
1.5121961e-07
2.1960108e-09
1.5035645e-07
2.228585e-09
1.4947959e-07
2.2639516e-09
1.4858752e-07
2.303192e-09
1.4771684e-07
2.2479936e-09
1.4688753e-07
2.1411484e-09
1.4609648e-07
2.0423663e-09
1.4534072e-07
1.9512645e-09
1.4461747e-07
1.8673193e-09
1.4392429e-07
1.7896708e-09
1.4325905e-07
1.7175354e-09
1.4261974e-07
1.6505661e-09
1.4200449e-07
1.5884624e-09
1.4141165e-07
1.5306001e-09
1.4083979e-07
1.4764343e-09
1.4028755e-07
1.4257724e-09
1.3975363e-07
1.3784936e-09
1.3923674e-07
1.334507e-09
1.3873577e-07
1.2934066e-09
1.3824947e-07
1.2555245e-09
1.37777e-07
1.2198272e-09
1.3731558e-07
1.1913232e-09
1.3686633e-07
1.1599083e-09
1.3641607e-07
1.1625845e-09
1.3598708e-07
1.1077967e-09
1.3545596e-07
1.3707147e-09
8.6045456e-10
2.4685118e-06
1.0230072e-10
2.4684584e-06
2.8187646e-10
2.4683841e-06
3.9085465e-10
2.4683002e-06
4.4185797e-10
2.4682067e-06
4.9177831e-10
2.4681028e-06
5.467988e-10
2.467988e-06
6.0428947e-10
2.4678617e-06
6.6510224e-10
2.4677227e-06
7.3187187e-10
2.4675695e-06
8.0710073e-10
2.4673999e-06
8.9325357e-10
2.4672114e-06
9.9358853e-10
2.4670003e-06
1.1126896e-09
2.4667617e-06
1.257948e-09
2.466489e-06
1.4388169e-09
2.4661712e-06
1.676888e-09
2.4657949e-06
1.9862147e-09
2.4653275e-06
2.4686489e-09
2.4647484e-06
3.0598053e-09
2.463898e-06
4.4961645e-09
2.462812e-06
5.7448748e-09
2.4597366e-06
1.6280595e-08
2.4575686e-06
1.1439409e-08
1.5978658e-06
5.3991982e-06
5.8018782e-07
5.9023154e-06
3.9947565e-07
5.6833975e-07
3.6993422e-07
8.6713041e-08
3.5796198e-07
3.5041386e-08
3.4943965e-07
2.4977016e-08
3.4216431e-07
2.1341894e-08
3.3573253e-07
1.8872042e-08
3.2998149e-07
1.6874064e-08
3.2478631e-07
1.5241974e-08
3.2004543e-07
1.3908641e-08
3.156838e-07
1.2795724e-08
3.1164621e-07
1.1844755e-08
3.0788981e-07
1.1019457e-08
3.0437976e-07
1.0296427e-08
3.010872e-07
9.6581395e-09
2.9798799e-07
9.0907231e-09
2.9506165e-07
8.5833804e-09
2.9229054e-07
8.1278556e-09
2.8965928e-07
7.7174569e-09
2.8715456e-07
7.3461459e-09
2.8476467e-07
7.0092145e-09
2.8247942e-07
6.7021626e-09
2.802899e-07
6.4212427e-09
2.78188e-07
6.1641967e-09
2.761666e-07
5.9279994e-09
2.7421946e-07
5.7101005e-09
2.7234073e-07
5.5093787e-09
2.7052518e-07
5.3240262e-09
2.6876828e-07
5.1519834e-09
2.6706577e-07
4.9923794e-09
2.6541365e-07
4.8445602e-09
2.6380844e-07
4.7069267e-09
2.6224708e-07
4.5782817e-09
2.6072654e-07
4.4585331e-09
2.5924396e-07
4.3471744e-09
2.5779692e-07
4.242927e-09
2.5638324e-07
4.1450456e-09
2.5500071e-07
4.0536608e-09
2.5364719e-07
3.9685632e-09
2.5232089e-07
3.8887106e-09
2.5102023e-07
3.8134877e-09
2.4974356e-07
3.74311e-09
2.4848925e-07
3.6775269e-09
2.4725587e-07
3.6161258e-09
2.4604219e-07
3.558327e-09
2.4484701e-07
3.5040456e-09
2.4366907e-07
3.453462e-09
2.4250716e-07
3.4064661e-09
2.4136026e-07
3.3624171e-09
2.4022748e-07
3.3209797e-09
2.3910784e-07
3.2824249e-09
2.3800034e-07
3.2468365e-09
2.3690405e-07
3.2139275e-09
2.3581821e-07
3.1832672e-09
2.3474208e-07
3.1547553e-09
2.3367485e-07
3.1286536e-09
2.3261567e-07
3.1050621e-09
2.3156378e-07
3.0836185e-09
2.3051859e-07
3.0639925e-09
2.2947941e-07
3.0463116e-09
2.2844552e-07
3.0308126e-09
2.2741615e-07
3.0175507e-09
2.2639066e-07
3.0061377e-09
2.253685e-07
2.9963404e-09
2.2434902e-07
2.9884669e-09
2.2333149e-07
2.9827335e-09
2.2231521e-07
2.9790526e-09
2.2129958e-07
2.9771284e-09
2.2028403e-07
2.9768849e-09
2.1926785e-07
2.9786851e-09
2.1825027e-07
2.982794e-09
2.1723059e-07
2.9889005e-09
2.1620823e-07
2.9967613e-09
2.1518245e-07
3.0067438e-09
2.1415241e-07
3.0192063e-09
2.1311729e-07
3.0340886e-09
2.1207635e-07
3.0511451e-09
2.1102879e-07
3.0705023e-09
2.0997367e-07
3.0926356e-09
2.0891001e-07
3.1176775e-09
2.0783688e-07
3.145383e-09
2.0675333e-07
3.175922e-09
2.0565817e-07
3.2099102e-09
2.0455019e-07
3.2474764e-09
2.0342822e-07
3.2884578e-09
2.0229094e-07
3.3332847e-09
2.0113679e-07
3.3827397e-09
1.9996431e-07
3.4364353e-09
1.9877148e-07
3.4960135e-09
1.9760724e-07
3.4122406e-09
1.9649832e-07
3.2500698e-09
1.9544055e-07
3.1001377e-09
1.9442995e-07
2.9618624e-09
1.9346282e-07
2.8344484e-09
1.925359e-07
2.7165922e-09
1.9164633e-07
2.6071037e-09
1.9079144e-07
2.5054551e-09
1.8996871e-07
2.4111904e-09
1.8917595e-07
2.3233645e-09
1.8841123e-07
2.2411493e-09
1.8767275e-07
2.1642513e-09
1.8695876e-07
2.0924873e-09
1.8626755e-07
2.0257197e-09
1.8559762e-07
1.9633329e-09
1.8494732e-07
1.9058291e-09
1.843155e-07
1.8516409e-09
1.8369847e-07
1.8083557e-09
1.8309771e-07
1.7606658e-09
1.8249566e-07
1.7646379e-09
1.8192205e-07
1.6814054e-09
1.8121173e-07
2.0810351e-09
1.3056849e-09
2.6637104e-06
1.2324472e-10
2.6636526e-06
3.3973982e-10
2.6635722e-06
4.7126948e-10
2.6634812e-06
5.3285456e-10
2.6633799e-06
5.9306821e-10
2.6632673e-06
6.5940628e-10
2.6631428e-06
7.2871208e-10
2.6630059e-06
8.0201111e-10
2.6628553e-06
8.8247714e-10
2.6626893e-06
9.7312562e-10
2.6625056e-06
1.0769261e-09
2.6623014e-06
1.1978028e-09
2.6620728e-06
1.3412761e-09
2.6618145e-06
1.5162467e-09
2.6615193e-06
1.7340966e-09
2.6611753e-06
2.0208273e-09
2.6607682e-06
2.3933483e-09
2.6602625e-06
2.9743143e-09
2.6596362e-06
3.686121e-09
2.6587168e-06
5.4155846e-09
2.657543e-06
6.9186429e-09
2.6542205e-06
1.9603148e-08
2.6518743e-06
1.3785579e-08
1.7965885e-06
6.254484e-06
7.4727333e-07
6.9516306e-06
5.2348999e-07
7.9212309e-07
4.8487797e-07
1.2532507e-07
4.6917155e-07
5.0747798e-08
4.58017e-07
3.6131565e-08
4.4850223e-07
3.0856673e-08
4.4009196e-07
2.728231e-08
4.3257115e-07
2.4394873e-08
4.2577641e-07
2.2036715e-08
4.1957529e-07
2.0109757e-08
4.1386981e-07
1.8501202e-08
4.0858782e-07
1.712675e-08
4.0367331e-07
1.5933963e-08
3.9908078e-07
1.4888963e-08
3.9477251e-07
1.3966404e-08
3.9071699e-07
1.3146248e-08
3.8688746e-07
1.2412906e-08
3.8326087e-07
1.1754448e-08
3.7981713e-07
1.11612e-08
3.7653883e-07
1.0624443e-08
3.7341067e-07
1.0137369e-08
3.7041935e-07
9.6934828e-09
3.6755323e-07
9.2873706e-09
3.6480167e-07
8.9157488e-09
3.621554e-07
8.574271e-09
3.5960625e-07
8.2592512e-09
3.5714659e-07
7.9690447e-09
3.5476956e-07
7.7010568e-09
3.5246922e-07
7.4523213e-09
3.5024004e-07
7.2215601e-09
3.4807677e-07
7.0078247e-09
3.4597487e-07
6.8088261e-09
3.4393033e-07
6.6228294e-09
3.4193918e-07
6.4496809e-09
3.3999769e-07
6.2886574e-09
3.3810269e-07
6.1379278e-09
3.3625133e-07
5.9964069e-09
3.3444073e-07
5.8642671e-09
3.3266808e-07
5.7412126e-09
3.3093103e-07
5.6257535e-09
3.2922753e-07
5.5169942e-09
3.2755541e-07
5.4152305e-09
3.2591254e-07
5.3203949e-09
3.2429705e-07
5.2316125e-09
3.2270733e-07
5.1480455e-09
3.2114182e-07
5.0695625e-09
3.1959886e-07
4.9964201e-09
3.1807686e-07
4.9284645e-09
3.165745e-07
4.8647787e-09
3.1509061e-07
4.804873e-09
3.136239e-07
4.7491293e-09
3.1217307e-07
4.697672e-09
3.107369e-07
4.6500929e-09
3.093144e-07
4.6057717e-09
3.0790459e-07
4.5645575e-09
3.0650642e-07
4.5268242e-09
3.0511877e-07
4.4927193e-09
3.0374066e-07
4.4617258e-09
3.0237129e-07
4.4333657e-09
3.0100978e-07
4.4078162e-09
2.9965517e-07
4.3854192e-09
2.9830647e-07
4.3662575e-09
2.9696283e-07
4.3497757e-09
2.9562354e-07
4.3356338e-09
2.9428773e-07
4.3242707e-09
2.9295446e-07
4.3160014e-09
2.9162281e-07
4.3107031e-09
2.9029199e-07
4.3079504e-09
2.8896125e-07
4.30763e-09
2.8762967e-07
4.3102628e-09
2.8629623e-07
4.3162341e-09
2.8496003e-07
4.3251002e-09
2.8362028e-07
4.3365076e-09
2.8227604e-07
4.3509818e-09
2.8092621e-07
4.3690425e-09
2.7956969e-07
4.3906068e-09
2.7820551e-07
4.4153208e-09
2.7683265e-07
4.4433634e-09
2.7544987e-07
4.4754208e-09
2.7405586e-07
4.5116885e-09
2.7264943e-07
4.5518141e-09
2.7122931e-07
4.5960404e-09
2.6979396e-07
4.6452562e-09
2.6834179e-07
4.6996519e-09
2.6687125e-07
4.7589933e-09
2.6538064e-07
4.8238991e-09
2.6386787e-07
4.8955018e-09
2.6233106e-07
4.9732455e-09
2.6076757e-07
5.0595072e-09
2.5924151e-07
4.9383038e-09
2.5778794e-07
4.7036341e-09
2.5640141e-07
4.4866747e-09
2.5507669e-07
4.2865817e-09
2.5380893e-07
4.1022033e-09
2.5259387e-07
3.9316558e-09
2.5142775e-07
3.7732169e-09
2.5030709e-07
3.6261202e-09
2.4922857e-07
3.4897068e-09
2.4818933e-07
3.3626117e-09
2.4718684e-07
3.2436363e-09
2.4621874e-07
3.1323533e-09
2.4528273e-07
3.0284981e-09
2.4437657e-07
2.9318718e-09
2.4349832e-07
2.8415854e-09
2.4264579e-07
2.7583621e-09
2.4181749e-07
2.6799364e-09
2.4100858e-07
2.6172646e-09
2.4022101e-07
2.5482426e-09
2.394318e-07
2.5538476e-09
2.3867988e-07
2.4333252e-09
2.3774858e-07
3.0123353e-09
1.8893647e-09
2.8986044e-06
1.4609496e-10
2.8985412e-06
4.0293733e-10
2.8984533e-06
5.5917682e-10
2.8983538e-06
6.3236923e-10
2.898243e-06
7.0384594e-10
2.8981199e-06
7.825555e-10
2.8979838e-06
8.6477187e-10
2.8978341e-06
9.5170969e-10
2.8976695e-06
1.0471307e-09
2.897488e-06
1.1546104e-09
2.8972872e-06
1.2776691e-09
2.8970641e-06
1.4209577e-09
2.8968143e-06
1.5910168e-09
2.8965322e-06
1.7983928e-09
2.8962097e-06
2.0565692e-09
2.8958342e-06
2.3963544e-09
2.8953898e-06
2.8377645e-09
2.894838e-06
3.5261298e-09
2.8941547e-06
4.3694085e-09
2.893152e-06
6.4182441e-09
2.8918724e-06
8.1982516e-09
2.8882522e-06
2.3223393e-08
2.8856911e-06
1.6346676e-08
2.0343896e-06
7.1057855e-06
9.4946121e-07
8.036559e-06
6.7751186e-07
1.0640724e-06
6.2773974e-07
1.7509719e-07
6.0740741e-07
7.1080128e-08
5.9301142e-07
5.0527562e-08
5.8074319e-07
4.3124903e-08
5.6990041e-07
3.8125082e-08
5.6020279e-07
3.4092492e-08
5.5143964e-07
3.079987e-08
5.4344081e-07
2.8108588e-08
5.3608028e-07
2.5861729e-08
5.2926516e-07
2.3941867e-08
5.2292336e-07
2.2275764e-08
5.169963e-07
2.0816029e-08
5.1143546e-07
1.9527243e-08
5.0620027e-07
1.838144e-08
5.012563e-07
1.7356872e-08
4.9657387e-07
1.6436882e-08
4.921271e-07
1.5607962e-08
4.878936e-07
1.4857945e-08
4.8385366e-07
1.4177313e-08
4.7999013e-07
1.3557014e-08
4.7628801e-07
1.2989487e-08
4.7273364e-07
1.247012e-08
4.6931503e-07
1.1992879e-08
4.6602167e-07
1.1552614e-08
4.6284372e-07
1.1146994e-08
4.5977235e-07
1.0772422e-08
4.5679991e-07
1.0424769e-08
4.5391924e-07
1.0102222e-08
4.5112362e-07
9.8034519e-09
4.4840715e-07
9.5252928e-09
4.4576467e-07
9.2653142e-09
4.4319107e-07
9.0232723e-09
4.4068156e-07
8.7981695e-09
4.3823202e-07
8.5874728e-09
4.3583877e-07
8.3896535e-09
4.3349811e-07
8.2049296e-09
4.3120642e-07
8.0328977e-09
4.2896068e-07
7.8715004e-09
4.2675819e-07
7.7194765e-09
4.2459621e-07
7.5772177e-09
4.2247196e-07
7.4446369e-09
4.2038305e-07
7.3205276e-09
4.1832738e-07
7.2037194e-09
4.1630292e-07
7.0940158e-09
4.1430757e-07
6.9917692e-09
4.1233926e-07
6.8967734e-09
4.1039628e-07
6.80776e-09
4.0847712e-07
6.7240369e-09
4.0658012e-07
6.6461239e-09
4.047036e-07
6.5742001e-09
4.0284598e-07
6.5077043e-09
4.0100598e-07
6.4457729e-09
3.9918235e-07
6.3881871e-09
3.9737372e-07
6.3354619e-09
3.9557863e-07
6.2878085e-09
3.9379584e-07
6.2445143e-09
3.9202429e-07
6.2049098e-09
3.9026288e-07
6.169233e-09
3.8851034e-07
6.1379608e-09
3.8676538e-07
6.1112139e-09
3.8502693e-07
6.0882242e-09
3.8329405e-07
6.0685123e-09
3.8156564e-07
6.0526822e-09
3.7984046e-07
6.0411776e-09
3.7811733e-07
6.0338331e-09
3.7639523e-07
6.0300568e-09
3.7467317e-07
6.0296854e-09
3.7294999e-07
6.0334415e-09
3.7122436e-07
6.0418676e-09
3.6949511e-07
6.054352e-09
3.6776122e-07
6.070398e-09
3.6602147e-07
6.090732e-09
3.6427443e-07
6.1160834e-09
3.6251869e-07
6.1463428e-09
3.60753e-07
6.1810162e-09
3.5897601e-07
6.2203492e-09
3.5718613e-07
6.2652992e-09
3.5538168e-07
6.3161455e-09
3.5356109e-07
6.3723986e-09
3.5172274e-07
6.4343934e-09
3.4986462e-07