/*--------------------------------*- C++ -*----------------------------------*\
  =========                 |
  \\      /  F ield         | OpenFOAM: The Open Source CFD Toolbox
   \\    /   O peration     | Website:  https://openfoam.org
    \\  /    A nd           | Version:  12
     \\/     M anipulation  |
\*---------------------------------------------------------------------------*/
FoamFile
{
    format      ascii;
    class       volVectorField;
    location    "700";
    object      U;
}
// * * * * * * * * * * * * * * * * * * * * * * * * * * * * * * * * * * * * * //

dimensions      [0 1 -1 0 0 0 0];

internalField   nonuniform List<vector> 
13056
(
(1 1.9444181e-10 8.7391722e-25)
(0.99998537 6.0697199e-10 0)
(0.99995802 9.5363206e-10 0)
(0.99992639 1.222296e-09 0)
(0.99989129 1.5427424e-09 0)
(0.99985215 1.944744e-09 0)
(0.99980872 2.4353413e-09 0)
(0.99976085 3.0351514e-09 0)
(0.9997082 3.7784363e-09 0)
(0.99965022 4.7084672e-09 0)
(0.99958617 5.8795275e-09 0)
(0.99951512 7.3645667e-09 0)
(0.99943586 9.2643894e-09 0)
(0.99934674 1.1728857e-08 0)
(0.99924543 1.4964204e-08 0)
(0.99912885 1.9359792e-08 0)
(0.99899143 2.5303193e-08 0)
(0.99882778 3.4452275e-08 0)
(0.99861741 4.6372645e-08 0)
(0.998363 7.3254696e-08 0)
(0.99793691 9.9424775e-08 0)
(0.99748618 2.9535851e-07 0)
(0.99547816 2.1352816e-07 -2.6362169e-21)
(0.99571703 0.00011947384 2.8024115e-16)
(0.028630497 0.00012510457 0)
(0.014448095 4.6950995e-07 -9.8700215e-20)
(0.012922805 1.9066805e-07 1.6314753e-17)
(0.012422707 2.0046543e-08 2.3197352e-21)
(0.012105381 1.4220767e-08 0)
(0.011839962 1.2089496e-08 0)
(0.011606355 1.0606696e-08 0)
(0.01139836 9.3916833e-09 0)
(0.011211486 8.3994917e-09 0)
(0.011041714 7.5887125e-09 0)
(0.010886036 6.9102812e-09 0)
(0.010742297 6.3292627e-09 0)
(0.010608871 5.8242006e-09 0)
(0.01048445 5.3813566e-09 0)
(0.010367949 4.990116e-09 0)
(0.010258468 4.6420216e-09 0)
(0.010155249 4.3304576e-09 0)
(0.010057643 4.0502982e-09 0)
(0.0099650855 3.7975437e-09 0)
(0.009877086 3.56833e-09 0)
(0.0097932192 3.3599572e-09 0)
(0.0097131053 3.1695763e-09 0)
(0.0096364251 2.9949024e-09 0)
(0.0095628862 2.8346816e-09 0)
(0.0094922213 2.6868865e-09 0)
(0.0094242101 2.5500521e-09 0)
(0.0093586452 2.4235435e-09 0)
(0.009295331 2.3061192e-09 0)
(0.0092341033 2.1966055e-09 0)
(0.0091748157 2.0944914e-09 0)
(0.0091173229 1.999321e-09 0)
(0.0090614937 1.9100928e-09 0)
(0.0090072218 1.8261838e-09 0)
(0.0089544036 1.7474973e-09 0)
(0.0089029334 1.6736237e-09 0)
(0.0088527202 1.6038493e-09 0)
(0.0088036896 1.5378069e-09 0)
(0.0087557674 1.4754957e-09 0)
(0.0087088747 1.4166913e-09 0)
(0.008662943 1.3608395e-09 0)
(0.008617919 1.307658e-09 0)
(0.0085737478 1.2572055e-09 0)
(0.0085303703 1.2093321e-09 0)
(0.0084877331 1.1637302e-09 0)
(0.0084457921 1.1201252e-09 0)
(0.0084045075 1.0784677e-09 0)
(0.0083638368 1.0387448e-09 0)
(0.0083237353 1.0008518e-09 0)
(0.0082841636 9.6449706e-10 0)
(0.0082450929 9.295511e-10 0)
(0.0082064911 8.9607885e-10 0)
(0.0081683222 8.6402255e-10 0)
(0.0081305525 8.332506e-10 0)
(0.0080931534 8.035883e-10 0)
(0.0080561011 7.7499312e-10 0)
(0.0080193692 7.4749854e-10 0)
(0.0079829273 7.2107889e-10 0)
(0.0079467468 6.9559117e-10 0)
(0.0079108065 6.7092464e-10 0)
(0.0078750852 6.4709982e-10 0)
(0.0078395585 6.2412366e-10 0)
(0.0078041993 6.0197423e-10 0)
(0.0077689823 5.8052063e-10 0)
(0.00773389 5.5969703e-10 0)
(0.0076989022 5.3955263e-10 0)
(0.0076639937 5.2008348e-10 0)
(0.0076291393 5.0124188e-10 0)
(0.0075943165 4.8294071e-10 0)
(0.0075595068 4.6515249e-10 0)
(0.0075246894 4.4791409e-10 0)
(0.0074898368 4.3123434e-10 0)
(0.0074549223 4.1502721e-10 0)
(0.0074199263 3.9923777e-10 0)
(0.0073848273 3.8390357e-10 0)
(0.0073495968 3.6903747e-10 0)
(0.0073142049 3.5459956e-10 0)
(0.0072786251 3.4053224e-10 0)
(0.0072428332 3.2683203e-10 0)
(0.0072067992 3.1352583e-10 0)
(0.0071704877 3.0059345e-10 0)
(0.0071338659 2.8798122e-10 0)
(0.0070969045 2.7568414e-10 0)
(0.0070595661 2.6373128e-10 0)
(0.0070218066 2.5209729e-10 0)
(0.0069835864 2.4074009e-10 0)
(0.0069448652 2.2966782e-10 0)
(0.0069055924 2.1890289e-10 0)
(0.0068657094 2.083842e-10 0)
(0.006825176 1.9817633e-10 0)
(0.0067848188 1.885316e-10 0)
(0.0067459138 1.7957316e-10 0)
(0.0067088313 1.7128912e-10 0)
(0.0066734321 1.6364949e-10 0)
(0.0066395829 1.5661086e-10 0)
(0.006607163 1.5009936e-10 0)
(0.0065760696 1.440498e-10 0)
(0.0065462099 1.384345e-10 0)
(0.0065174933 1.3322796e-10 0)
(0.0064898375 1.2837622e-10 0)
(0.0064631745 1.2383389e-10 0)
(0.0064374411 1.1958656e-10 0)
(0.006412576 1.1562311e-10 0)
(0.0063885204 1.1193647e-10 0)
(0.0063652161 1.0849174e-10 0)
(0.006342619 1.0531647e-10 0)
(0.0063206588 1.0232964e-10 0)
(0.0062993283 9.9941035e-11 0)
(0.0062783771 9.7341975e-11 0)
(0.0062581626 9.7503767e-11 0)
(0.0062371031 3.5104512e-10 0)
(0.0062188483 1.1298033e-10 1.5769159e-22)
(0.0061884021 2.7546274e-10 0)
(1 5.8668327e-10 0)
(0.99998535 1.8320598e-09 0)
(0.99995794 2.8791439e-09 0)
(0.99992623 3.690669e-09 0)
(0.99989104 4.6582934e-09 0)
(0.99985179 5.8720362e-09 0)
(0.99980825 7.3531948e-09 0)
(0.99976026 9.1639705e-09 0)
(0.99970749 1.1407736e-08 0)
(0.99964936 1.4215053e-08 0)
(0.99958517 1.7749701e-08 0)
(0.99951396 2.2231764e-08 0)
(0.99943452 2.7965335e-08 0)
(0.99934522 3.5402486e-08 0)
(0.99924372 4.5165282e-08 0)
(0.99912693 5.8428206e-08 0)
(0.99898927 7.635998e-08 0)
(0.99882536 1.039614e-07 0)
(0.99861469 1.3992e-07 0)
(0.99835995 2.2100474e-07 0)
(0.9979334 2.9992551e-07 0)
(0.99748226 8.9089998e-07 0)
(0.99547262 6.4400581e-07 9.6566304e-21)
(0.99570992 0.00036009784 -3.0013929e-21)
(0.083859103 0.00036818121 0)
(0.043559942 8.2054919e-06 0)
(0.038960877 1.0740949e-06 2.2981298e-20)
(0.037454162 4.2249423e-07 0)
(0.036496286 2.9875606e-07 -1.9138208e-21)
(0.035695766 2.5352837e-07 0)
(0.034991454 2.2225564e-07 0)
(0.034364406 1.9682708e-07 0)
(0.03380101 1.760319e-07 0)
(0.033289177 1.5901816e-07 0)
(0.032819844 1.4478719e-07 0)
(0.032386512 1.326074e-07 0)
(0.03198427 1.2202543e-07 0)
(0.031609175 1.1274669e-07 0)
(0.031257956 1.0454859e-07 0)
(0.030927902 9.7254348e-08 0)
(0.030616722 9.0725776e-08 0)
(0.030322468 8.4856303e-08 0)
(0.030043431 7.955966e-08 0)
(0.029778135 7.4758186e-08 0)
(0.029525297 7.0391725e-08 0)
(0.029283773 6.6402925e-08 0)
(0.029052601 6.2744526e-08 0)
(0.028830898 5.9386447e-08 0)
(0.02861786 5.6290209e-08 0)
(0.028412822 5.3424475e-08 0)
(0.028215158 5.0773194e-08 0)
(0.028024279 4.8312877e-08 0)
(0.027839691 4.6019125e-08 0)
(0.027660951 4.3879979e-08 0)
(0.027487622 4.188526e-08 0)
(0.027319309 4.0016129e-08 0)
(0.02715569 3.8258903e-08 0)
(0.026996453 3.661007e-08 0)
(0.026841281 3.5061834e-08 0)
(0.026689898 3.3600307e-08 0)
(0.02654208 3.2217212e-08 0)
(0.026397604 3.0911563e-08 0)
(0.026256231 2.9679063e-08 0)
(0.026117755 2.8509132e-08 0)
(0.025982016 2.7395485e-08 0)
(0.025848848 2.6338274e-08 0)
(0.025718072 2.5335067e-08 0)
(0.025589529 2.4379606e-08 0)
(0.025463084 2.346639e-08 0)
(0.025338618 2.2593716e-08 0)
(0.025216003 2.1761415e-08 0)
(0.025095103 2.0967259e-08 0)
(0.024975802 2.0205757e-08 0)
(0.02485801 1.9473921e-08 0)
(0.024741632 1.8772539e-08 0)
(0.024626559 1.8100853e-08 0)
(0.024512689 1.7456063e-08 0)
(0.024399937 1.6834801e-08 0)
(0.02428823 1.6235832e-08 0)
(0.024177489 1.5659762e-08 0)
(0.024067623 1.5106123e-08 0)
(0.023958544 1.4572151e-08 0)
(0.02385019 1.4055561e-08 0)
(0.023742496 1.3556415e-08 0)
(0.023635388 1.3075043e-08 0)
(0.023528785 1.2610883e-08 0)
(0.023422611 1.2161484e-08 0)
(0.023316813 1.1725367e-08 0)
(0.02321133 1.130329e-08 0)
(0.023106086 1.0895376e-08 0)
(0.023001006 1.0500591e-08 0)
(0.02289602 1.0117251e-08 0)
(0.022791074 9.7446415e-09 0)
(0.022686104 9.3834806e-09 0)
(0.022581029 9.0339605e-09 0)
(0.022475766 8.6944436e-09 0)
(0.022370258 8.3637388e-09 0)
(0.02226444 8.0424671e-09 0)
(0.022158225 7.7309917e-09 0)
(0.022051523 7.428503e-09 0)
(0.021944255 7.1338367e-09 0)
(0.021836347 6.8468369e-09 0)
(0.021727709 6.5680433e-09 0)
(0.021618235 6.2970926e-09 0)
(0.021507826 6.0328934e-09 0)
(0.021396392 5.7752872e-09 0)
(0.021283821 5.5248434e-09 0)
(0.021169982 5.2811046e-09 0)
(0.021054753 5.0431922e-09 0)
(0.020938013 4.8112233e-09 0)
(0.020819611 4.5856711e-09 0)
(0.020699369 4.3652935e-09 0)
(0.020577166 4.1514785e-09 0)
(0.020455494 3.9494147e-09 0)
(0.0203382 3.7616998e-09 0)
(0.020226401 3.5881429e-09 0)
(0.020119677 3.4280796e-09 0)
(0.020017626 3.2805965e-09 0)
(0.019919884 3.1441708e-09 0)
(0.019826142 3.017429e-09 0)
(0.019736118 2.8997701e-09 0)
(0.019649541 2.7906638e-09 0)
(0.019566163 2.6890047e-09 0)
(0.019485777 2.5938372e-09 0)
(0.019408194 2.5048316e-09 0)
(0.019333229 2.4217732e-09 0)
(0.019260705 2.3445031e-09 0)
(0.019190446 2.2723024e-09 0)
(0.019122319 2.205762e-09 0)
(0.019056112 2.1430712e-09 0)
(0.018991804 2.0930592e-09 0)
(0.018928643 2.0379564e-09 0)
(0.018867699 2.0429084e-09 0)
(0.018804223 1.97625e-09 0)
(0.018749187 2.4031885e-09 -2.4221229e-22)
(0.018657395 1.5411303e-09 3.7084139e-23)
(1 9.8825982e-10 0)
(0.99998533 3.0868946e-09 0)
(0.99995785 4.852299e-09 0)
(0.99992605 6.2206001e-09 0)
(0.99989076 7.8516121e-09 0)
(0.9998514 9.8972466e-09 0)
(0.99980773 1.2393462e-08 0)
(0.99975961 1.544502e-08 0)
(0.99970669 1.9226034e-08 0)
(0.99964842 2.395642e-08 0)
(0.99958406 2.9912036e-08 0)
(0.99951267 3.7463545e-08 0)
(0.99943305 4.7123072e-08 0)
(0.99934355 5.9651923e-08 0)
(0.99924183 7.6097597e-08 0)
(0.9991248 9.8437884e-08 0)
(0.99898688 1.2864033e-07 0)
(0.99882268 1.7512604e-07 0)
(0.99861168 2.356817e-07 0)
(0.99835657 3.722211e-07 0)
(0.99792952 5.0510218e-07 0)
(0.99747794 1.5001809e-06 0)
(0.99546659 1.0853067e-06 -5.0524739e-21)
(0.99570219 0.00058855099 9.7341332e-55)
(0.13788545 0.00060853521 -8.2436737e-54)
(0.073321264 2.2892571e-05 0)
(0.065578124 3.0686855e-06 -1.2147454e-20)
(0.063042455 1.2271632e-06 0)
(0.061428642 8.6796783e-07 0)
(0.060080904 7.3614516e-07 0)
(0.058895501 6.4523018e-07 0)
(0.057840197 5.7141087e-07 0)
(0.056891985 5.1104765e-07 0)
(0.056030555 4.6164932e-07 0)
(0.055240665 4.2032949e-07 0)
(0.05451137 3.8496796e-07 0)
(0.053834401 3.542478e-07 0)
(0.053203117 3.2731144e-07 0)
(0.052612015 3.0351209e-07 0)
(0.052056532 2.8233664e-07 0)
(0.051532813 2.6338406e-07 0)
(0.051037579 2.4634508e-07 0)
(0.050567954 2.3096867e-07 0)
(0.050121454 2.1703014e-07 0)
(0.049695921 2.0435401e-07 0)
(0.049289429 1.9277443e-07 0)
(0.048900356 1.8215431e-07 0)
(0.048527221 1.724053e-07 0)
(0.048168669 1.6341683e-07 0)
(0.047823579 1.550978e-07 0)
(0.0474909 1.4740074e-07 0)
(0.047169641 1.4025818e-07 0)
(0.046858969 1.3359951e-07 0)
(0.046558138 1.2738948e-07 0)
(0.046266414 1.2159837e-07 0)
(0.045983132 1.1617221e-07 0)
(0.04570775 1.110711e-07 0)
(0.045439742 1.0628429e-07 0)
(0.045178575 1.017894e-07 0)
(0.044923787 9.7546553e-08 0)
(0.044674997 9.3531499e-08 0)
(0.044431831 8.9740987e-08 0)
(0.044193889 8.6162707e-08 0)
(0.043960823 8.2766339e-08 0)
(0.043732362 7.9533493e-08 0)
(0.043508227 7.6464233e-08 0)
(0.04328812 7.3551682e-08 0)
(0.043071769 7.0777837e-08 0)
(0.042858951 6.8126778e-08 0)
(0.042649462 6.5593341e-08 0)
(0.042443088 6.3177006e-08 0)
(0.042239603 6.0871362e-08 0)
(0.042038806 5.8660672e-08 0)
(0.04184055 5.6536166e-08 0)
(0.041644673 5.4499923e-08 0)
(0.041450993 5.2549863e-08 0)
(0.041259339 5.0677911e-08 0)
(0.041069565 4.8874359e-08 0)
(0.04088155 4.7135516e-08 0)
(0.04069516 4.5463071e-08 0)
(0.040510243 4.3855714e-08 0)
(0.040326651 4.2305515e-08 0)
(0.040144278 4.0805839e-08 0)
(0.039963016 3.9356747e-08 0)
(0.039782741 3.7959228e-08 0)
(0.039603317 3.6611649e-08 0)
(0.039424613 3.5306996e-08 0)
(0.039246543 3.4040928e-08 0)
(0.039069001 3.2815557e-08 0)
(0.038891863 3.1631293e-08 0)
(0.038714999 3.0485147e-08 0)
(0.038538295 2.9372272e-08 0)
(0.038361657 2.829055e-08 0)
(0.038184979 2.7242029e-08 0)
(0.038008124 2.6227282e-08 0)
(0.037830954 2.5241614e-08 0)
(0.03765337 2.4281551e-08 0)
(0.037475264 2.3348839e-08 0)
(0.03729649 2.2444555e-08 0)
(0.037116897 2.1566372e-08 0)
(0.03693635 2.071092e-08 0)
(0.036754727 1.9877717e-08 0)
(0.036571874 1.9068318e-08 0)
(0.036387614 1.8281692e-08 0)
(0.03620178 1.7514685e-08 0)
(0.036014221 1.6766815e-08 0)
(0.035824749 1.6039721e-08 0)
(0.035633141 1.53321e-08 0)
(0.035439194 1.4641406e-08 0)
(0.035242704 1.3967958e-08 0)
(0.035043416 1.3313131e-08 0)
(0.034841032 1.2673335e-08 0)
(0.034635346 1.2052605e-08 0)
(0.034430554 1.1465975e-08 0)
(0.034233131 1.0920994e-08 0)
(0.034044957 1.0417128e-08 0)
(0.033865324 9.9524343e-09 0)
(0.033693557 9.5242609e-09 0)
(0.033529042 9.1281938e-09 0)
(0.033371259 8.7602433e-09 0)
(0.033219736 8.4186562e-09 0)
(0.033074014 8.1018947e-09 0)
(0.032933675 7.8067591e-09 0)
(0.032798373 7.5304731e-09 0)
(0.032667789 7.2720701e-09 0)
(0.032541612 7.0309304e-09 0)
(0.032419542 6.806591e-09 0)
(0.032301286 6.5969703e-09 0)
(0.032186618 6.403779e-09 0)
(0.032075183 6.2217464e-09 0)
(0.031966944 6.0765067e-09 0)
(0.031860637 5.9163958e-09 0)
(0.031758061 5.9306363e-09 0)
(0.031651243 5.6440357e-09 0)
(0.031558608 6.9844504e-09 0)
(0.031404107 4.3920058e-09 0)
(1 1.4052765e-09 1.8724588e-24)
(0.9999853 4.3908495e-09 0)
(0.99995775 6.9038062e-09 0)
(0.99992586 8.8515972e-09 0)
(0.99989045 1.1172587e-08 0)
(0.99985096 1.408323e-08 0)
(0.99980716 1.7634792e-08 0)
(0.99975889 2.1976223e-08 0)
(0.99970581 2.735508e-08 0)
(0.99964736 3.4084068e-08 0)
(0.99958282 4.255541e-08 0)
(0.99951124 5.3296088e-08 0)
(0.99943141 6.7034156e-08 0)
(0.99934168 8.4851877e-08 0)
(0.99923972 1.0823822e-07 0)
(0.99912243 1.4000464e-07 0)
(0.99898423 1.8294716e-07 0)
(0.99881971 2.4903645e-07 0)
(0.99860833 3.3512114e-07 0)
(0.99835283 5.2920745e-07 0)
(0.99792521 7.1806461e-07 0)
(0.99747316 2.1324237e-06 0)
(0.99545996 1.5437841e-06 0)
(0.99569372 0.00081007025 -5.0738592e-55)
(0.19139373 0.00085138176 4.2812163e-54)
(0.10415893 4.5670164e-05 0)
(0.093164895 6.326645e-06 0)
(0.089561115 2.5287043e-06 0)
(0.08726654 1.7886655e-06 0)
(0.085351745 1.5163563e-06 0)
(0.083668103 1.3289002e-06 0)
(0.082169313 1.1768638e-06 0)
(0.080822564 1.0525555e-06 0)
(0.079599061 9.5080899e-07 0)
(0.078477174 8.6569977e-07 0)
(0.077441354 7.9286763e-07 0)
(0.076479847 7.295987e-07 0)
(0.075583219 6.741232e-07 0)
(0.074743657 6.2510805e-07 0)
(0.073954679 5.8149666e-07 0)
(0.073210814 5.4246346e-07 0)
(0.0725074 5.0737152e-07 0)
(0.071840358 4.7570327e-07 0)
(0.071206158 4.4699674e-07 0)
(0.070601734 4.2088958e-07 0)
(0.070024355 3.9704103e-07 0)
(0.069471713 3.7516886e-07 0)
(0.068941707 3.5508978e-07 0)
(0.068432413 3.3657757e-07 0)
(0.067942238 3.1944451e-07 0)
(0.067469689 3.0359157e-07 0)
(0.067013361 2.8888081e-07 0)
(0.066572068 2.7516713e-07 0)
(0.066144752 2.6237714e-07 0)
(0.065730371 2.5044945e-07 0)
(0.065327981 2.3927391e-07 0)
(0.064936809 2.287681e-07 0)
(0.064556112 2.1890904e-07 0)
(0.064185131 2.0965104e-07 0)
(0.06382321 2.0091261e-07 0)
(0.063469808 1.9264348e-07 0)
(0.063124392 1.8483638e-07 0)
(0.062786398 1.774662e-07 0)
(0.062455329 1.7047109e-07 0)
(0.0621308 1.6381295e-07 0)
(0.061812415 1.5749135e-07 0)
(0.061499752 1.514924e-07 0)
(0.061192424 1.4577927e-07 0)
(0.060890113 1.4031924e-07 0)
(0.060592531 1.3510136e-07 0)
(0.060299372 1.301245e-07 0)
(0.060010316 1.2537554e-07 0)
(0.05972508 1.208224e-07 0)
(0.059443452 1.1644684e-07 0)
(0.059165201 1.1225285e-07 0)
(0.058890072 1.0823631e-07 0)
(0.058617821 1.043807e-07 0)
(0.058348239 1.006661e-07 0)
(0.058081156 9.7084756e-08 0)
(0.05781638 9.3640054e-08 0)
(0.057553696 9.0329353e-08 0)
(0.057292895 8.7136473e-08 0)
(0.057033825 8.404774e-08 0)
(0.056776332 8.1063113e-08 0)
(0.05652024 7.8184651e-08 0)
(0.056265357 7.5409016e-08 0)
(0.056011498 7.2721892e-08 0)
(0.055758537 7.0114285e-08 0)
(0.055506327 6.7590407e-08 0)
(0.055254689 6.5151166e-08 0)
(0.055003441 6.2790449e-08 0)
(0.05475242 6.0498323e-08 0)
(0.054501492 5.8270359e-08 0)
(0.054250507 5.6110723e-08 0)
(0.05399927 5.4020619e-08 0)
(0.053747585 5.1990466e-08 0)
(0.053495312 5.0013083e-08 0)
(0.053242295 4.8091982e-08 0)
(0.052988331 4.6229412e-08 0)
(0.052733203 4.4420618e-08 0)
(0.052476719 4.2658674e-08 0)
(0.052218705 4.0942542e-08 0)
(0.051958945 3.9275409e-08 0)
(0.051697185 3.7655189e-08 0)
(0.051433187 3.6075401e-08 0)
(0.05116674 3.4535023e-08 0)
(0.050897575 3.3037412e-08 0)
(0.050625374 3.1579921e-08 0)
(0.050349851 3.0157308e-08 0)
(0.050070715 2.8770203e-08 0)
(0.049787602 2.7421437e-08 0)
(0.049500091 2.6103647e-08 0)
(0.049207889 2.4825143e-08 0)
(0.048916957 2.3616853e-08 0)
(0.048636492 2.2494337e-08 0)
(0.048369166 2.1456516e-08 0)
(0.048113974 2.0499392e-08 0)
(0.047869956 1.9617457e-08 0)
(0.047636242 1.8801672e-08 0)
(0.047412089 1.8043803e-08 0)
(0.04719683 1.7340226e-08 0)
(0.046989811 1.6687776e-08 0)
(0.04679044 1.6079877e-08 0)
(0.046598225 1.5510808e-08 0)
(0.046412712 1.4978563e-08 0)
(0.046233459 1.4481871e-08 0)
(0.046060041 1.4019776e-08 0)
(0.045892042 1.3588e-08 0)
(0.04572914 1.3190055e-08 0)
(0.045570832 1.2815076e-08 0)
(0.045417063 1.2515816e-08 0)
(0.045266046 1.2185889e-08 0)
(0.045120322 1.2214859e-08 0)
(0.044968602 1.1634401e-08 0)
(0.044836999 1.4393862e-08 0)
(0.044617505 9.043794e-09 0)
(1 1.8440608e-09 0)
(0.99998528 5.7638475e-09 0)
(0.99995764 9.0652156e-09 0)
(0.99992563 1.1624241e-08 0)
(0.9998901 1.4672465e-08 0)
(0.99985047 1.849456e-08 0)
(0.99980652 2.3157994e-08 0)
(0.99975808 2.88582e-08 0)
(0.99970482 3.5919999e-08 0)
(0.99964618 4.4753717e-08 0)
(0.99958143 5.5873997e-08 0)
(0.99950964 6.9972241e-08 0)
(0.99942957 8.8003587e-08 0)
(0.9993396 1.1138781e-07 0)
(0.99923736 1.4207802e-07 0)
(0.99911978 1.8376227e-07 0)
(0.99898126 2.4010709e-07 0)
(0.99881638 3.2681539e-07 0)
(0.9986046 4.3974589e-07 0)
(0.99834865 6.9433728e-07 0)
(0.99792041 9.4201926e-07 0)
(0.99746782 2.7971306e-06 0)
(0.99545264 2.0264063e-06 0)
(0.99568441 0.0010277809 0)
(0.24490449 0.0010963459 0)
(0.13650233 7.6531461e-05 0)
(0.12211377 1.0974395e-05 0)
(0.11738521 4.3874837e-06 4.6014849e-21)
(0.11437597 3.1030159e-06 0)
(0.11186697 2.6295061e-06 0)
(0.10966154 2.3041331e-06 0)
(0.10769832 2.0405268e-06 0)
(0.10593415 1.8250277e-06 0)
(0.10433138 1.6486098e-06 0)
(0.10286172 1.5010338e-06 0)
(0.10150479 1.374752e-06 0)
(0.10024519 1.265057e-06 0)
(0.099070558 1.1688748e-06 0)
(0.097970668 1.0838925e-06 0)
(0.09693703 1.0082786e-06 0)
(0.09596248 9.4060227e-07 0)
(0.095040911 8.7975935e-07 0)
(0.094166982 8.2485178e-07 0)
(0.093336069 7.7507957e-07 0)
(0.092544159 7.2981333e-07 0)
(0.091787673 6.8846338e-07 0)
(0.09106359 6.5054051e-07 0)
(0.090369155 6.1572511e-07 0)
(0.089701854 5.8362711e-07 0)
(0.089059595 5.5392087e-07 0)
(0.088440425 5.2643292e-07 0)
(0.087842506 5.009255e-07 0)
(0.08726428 4.7714763e-07 0)
(0.086704363 4.5497083e-07 0)
(0.086161392 4.342884e-07 0)
(0.085634128 4.1491085e-07 0)
(0.085121559 3.9669494e-07 0)
(0.084622712 3.7959956e-07 0)
(0.084136594 3.6354606e-07 0)
(0.083662345 3.4839417e-07 0)
(0.083199255 3.3405624e-07 0)
(0.082746626 3.2051874e-07 0)
(0.082303722 3.0773852e-07 0)
(0.08186989 2.9560926e-07 0)
(0.081444624 2.8406455e-07 0)
(0.081027407 2.7310283e-07 0)
(0.080617686 2.6270032e-07 0)
(0.080214955 2.5279368e-07 0)
(0.079818795 2.4332622e-07 0)
(0.07942883 2.3427848e-07 0)
(0.079044659 2.2564835e-07 0)
(0.078665865 2.1741332e-07 0)
(0.078292074 2.0951817e-07 0)
(0.077923009 2.0193108e-07 0)
(0.077558368 1.9465852e-07 0)
(0.077197817 1.8769352e-07 0)
(0.076841035 1.8100765e-07 0)
(0.07648775 1.7456651e-07 0)
(0.076137738 1.6835642e-07 0)
(0.075790748 1.6238306e-07 0)
(0.075446498 1.5664198e-07 0)
(0.075104716 1.5110535e-07 0)
(0.074765199 1.4574944e-07 0)
(0.074427747 1.4057394e-07 0)
(0.074092131 1.3558243e-07 0)
(0.073758098 1.3076917e-07 0)
(0.073425406 1.2610955e-07 0)
(0.073093888 1.2158788e-07 0)
(0.072763354 1.1721126e-07 0)
(0.072433569 1.1298134e-07 0)
(0.072104293 1.0888762e-07 0)
(0.071775314 1.0491292e-07 0)
(0.071446455 1.0104949e-07 0)
(0.07111752 9.7304451e-08 0)
(0.070788254 9.3679936e-08 0)
(0.0704584 9.0159467e-08 0)
(0.070127773 8.6730552e-08 0)
(0.06979617 8.3399153e-08 0)
(0.069463324 8.0169212e-08 0)
(0.069128953 7.7032551e-08 0)
(0.068792803 7.3977176e-08 0)
(0.068454646 7.1001223e-08 0)
(0.0681142 6.8110189e-08 0)
(0.067771131 6.5300513e-08 0)
(0.067425129 6.2560988e-08 0)
(0.067075914 5.988979e-08 0)
(0.066723136 5.7292716e-08 0)
(0.066366378 5.4765227e-08 0)
(0.066005265 5.2298242e-08 0)
(0.065639414 4.989281e-08 0)
(0.065268351 4.755384e-08 0)
(0.064891521 4.5268606e-08 0)
(0.064508542 4.3051526e-08 0)
(0.064127224 4.0956171e-08 0)
(0.063759626 3.9009535e-08 0)
(0.063409247 3.7209793e-08 0)
(0.063074771 3.5549985e-08 0)
(0.062754939 3.4020564e-08 0)
(0.06244861 3.2605865e-08 0)
(0.062154815 3.1291605e-08 0)
(0.061872673 3.007148e-08 0)
(0.061601333 2.8940007e-08 0)
(0.061340017 2.7885805e-08 0)
(0.061088078 2.6898945e-08 0)
(0.060844924 2.5975932e-08 0)
(0.060609974 2.5114563e-08 0)
(0.060382673 2.4313183e-08 0)
(0.060162473 2.3564383e-08 0)
(0.059948955 2.2874232e-08 0)
(0.059741458 2.2223892e-08 0)
(0.059539912 2.1704713e-08 0)
(0.059341977 2.1132418e-08 0)
(0.059150975 2.1181797e-08 0)
(0.058952151 2.0183728e-08 0)
(0.058779654 2.4969816e-08 -3.1180183e-22)
(0.058491952 1.5680293e-08 4.7739874e-23)
(1 2.3113286e-09 0)
(0.99998525 7.2271283e-09 0)
(0.99995751 1.1370277e-08 0)
(0.99992539 1.4582008e-08 0)
(0.99988971 1.8406158e-08 0)
(0.99984992 2.3200412e-08 0)
(0.9998058 2.9049611e-08 0)
(0.99975717 3.6198672e-08 0)
(0.99970371 4.5054679e-08 0)
(0.99964486 5.6131906e-08 0)
(0.99957988 7.0075335e-08 0)
(0.99950784 8.7751392e-08 0)
(0.99942751 1.103569e-07 0)
(0.99933726 1.3967082e-07 0)
(0.99923472 1.7814011e-07 0)
(0.99911681 2.3038558e-07 0)
(0.99897793 3.0099938e-07 0)
(0.99881266 4.0965581e-07 0)
(0.99860042 5.5115609e-07 0)
(0.99834397 8.7012577e-07 0)
(0.99791503 1.1803669e-06 0)
(0.99746185 3.5043295e-06 0)
(0.99544452 2.5406158e-06 0)
(0.99567416 0.0012433157 0)
(0.29876504 0.0013470058 0)
(0.17076763 0.00011629079 0)
(0.15281239 1.7267086e-05 0)
(0.14688475 6.9113708e-06 0)
(0.14311889 4.8857632e-06 0)
(0.13998219 4.1383367e-06 0)
(0.1372259 3.6257843e-06 0)
(0.13477232 3.2110058e-06 0)
(0.13256731 2.8719792e-06 0)
(0.13056392 2.5943821e-06 0)
(0.12872685 2.3621563e-06 0)
(0.12703064 2.163447e-06 0)
(0.12545603 1.9908444e-06 0)
(0.12398759 1.8395039e-06 0)
(0.12261253 1.7057835e-06 0)
(0.12132025 1.5868023e-06 0)
(0.12010181 1.4803104e-06 0)
(0.11894957 1.3845704e-06 0)
(0.11785686 1.2981685e-06 0)
(0.11681792 1.2198473e-06 -6.2136433e-33)
(0.11582771 1.1486148e-06 0)
(0.11488178 1.0835451e-06 0)
(0.11397634 1.0238684e-06 0)
(0.11310796 9.6907937e-07 0)
(0.11227349 9.1856725e-07 0)
(0.11147031 8.7181954e-07 0)
(0.110696 8.2856063e-07 0)
(0.10994825 7.8841843e-07 0)
(0.10922512 7.5099905e-07 0)
(0.10852487 7.1609834e-07 0)
(0.1078458 6.835481e-07 0)
(0.10718637 6.5305238e-07 0)
(0.1065453 6.243853e-07 0)
(0.10592139 5.9748023e-07 0)
(0.10531339 5.722143e-07 0)
(0.10472023 5.4836831e-07 0)
(0.10414102 5.258036e-07 0)
(0.10357488 5.0449746e-07 0)
(0.1030209 4.843826e-07 0)
(0.10247826 4.6529314e-07 0)
(0.10194633 4.4712401e-07 0)
(0.10142446 4.2987151e-07 0)
(0.10091196 4.1349868e-07 0)
(0.1004082 3.9790666e-07 0)
(0.09991265 3.8300626e-07 0)
(0.099424846 3.6876619e-07 0)
(0.098944285 3.5518286e-07 0)
(0.098470447 3.4222123e-07 0)
(0.098002862 3.2979503e-07 0)
(0.097541183 3.1785385e-07 0)
(0.097085035 3.064072e-07 0)
(0.096633998 2.9544439e-07 0)
(0.096187674 2.8492103e-07 0)
(0.09574572 2.7478315e-07 0)
(0.095307856 2.6500889e-07 0)
(0.094873768 2.5560689e-07 0)
(0.094443105 2.4657032e-07 0)
(0.094015526 2.3785577e-07 0)
(0.093590776 2.2942585e-07 0)
(0.093168607 2.2127969e-07 0)
(0.09274873 2.1342292e-07 0)
(0.092330831 2.0584667e-07 0)
(0.091914607 1.9851244e-07 0)
(0.091499848 1.9139542e-07 0)
(0.091086316 1.8450649e-07 0)
(0.090673718 1.7784837e-07 0)
(0.090261755 1.7140465e-07 0)
(0.089850158 1.6514841e-07 0)
(0.08943871 1.590673e-07 0)
(0.089027163 1.5317237e-07 0)
(0.088615198 1.4746707e-07 0)
(0.088202495 1.4192567e-07 0)
(0.087788822 1.3652844e-07 0)
(0.087373924 1.3128457e-07 0)
(0.086957468 1.2620033e-07 0)
(0.0865391 1.2126295e-07 0)
(0.086118504 1.1645359e-07 0)
(0.085695393 1.1176919e-07 0)
(0.085269414 1.0721839e-07 0)
(0.084840151 1.0279565e-07 0)
(0.084407214 9.8483381e-08 0)
(0.083970254 9.4278641e-08 0)
(0.083528831 9.019051e-08 0)
(0.083082427 8.6211926e-08 0)
(0.082630568 8.232861e-08 0)
(0.082172778 7.8542143e-08 0)
(0.081708462 7.4860254e-08 0)
(0.081236926 7.1262978e-08 0)
(0.080757692 6.7773018e-08 0)
(0.080280532 6.4474611e-08 0)
(0.079820536 6.1410267e-08 0)
(0.079382086 5.8577178e-08 0)
(0.078963532 5.5964351e-08 0)
(0.078563301 5.355678e-08 0)
(0.078179965 5.13298e-08 0)
(0.077812311 4.9260934e-08 0)
(0.077459238 4.7340225e-08 0)
(0.077119681 4.5559053e-08 0)
(0.076792665 4.3899534e-08 0)
(0.076477384 4.2346033e-08 0)
(0.076173094 4.0893015e-08 0)
(0.07587907 3.9537019e-08 0)
(0.075594618 3.8275442e-08 0)
(0.075319051 3.7096641e-08 0)
(0.075051845 3.6010129e-08 0)
(0.074792175 3.4986272e-08 0)
(0.074539951 3.4168614e-08 0)
(0.074292254 3.3267555e-08 0)
(0.074053224 3.3343674e-08 0)
(0.073804454 3.1772184e-08 0)
(0.073588579 3.931729e-08 0)
(0.07322852 2.4674992e-08 -2.7220496e-23)
(1 2.8142816e-09 0)
(0.99998521 8.8035615e-09 0)
(0.99995738 1.3855445e-08 0)
(0.99992511 1.7771917e-08 0)
(0.99988927 2.2433068e-08 0)
(0.99984931 2.827561e-08 0)
(0.99980498 3.5403225e-08 0)
(0.99975615 4.4114082e-08 0)
(0.99970246 5.4903784e-08 0)
(0.99964337 6.8398485e-08 0)
(0.99957813 8.5383426e-08 0)
(0.99950582 1.0691334e-07 0)
(0.99942519 1.3444502e-07 0)
(0.99933462 1.7014377e-07 0)
(0.99923175 2.1698758e-07 0)
(0.99911347 2.8060041e-07 0)
(0.99897418 3.6656899e-07 0)
(0.99880847 4.9883854e-07 0)
(0.99859572 6.7106809e-07 0)
(0.99833871 1.059267e-06 0)
(0.997909 1.4367487e-06 0)
(0.99745515 4.2647253e-06 0)
(0.99543548 3.0943867e-06 0)
(0.99566284 0.0014575208 0)
(0.35312625 0.0016052315 0)
(0.2073372 0.00016633518 0)
(0.18562284 2.5565538e-05 0)
(0.17840826 1.0251293e-05 -1.2082978e-20)
(0.17383803 7.2404674e-06 6.4474794e-21)
(0.17003586 6.1297608e-06 0)
(0.16669587 5.3698726e-06 0)
(0.1637226 4.7556993e-06 0)
(0.16105013 4.2537842e-06 0)
(0.1586218 3.8427243e-06 0)
(0.15639489 3.4988235e-06 0)
(0.15433858 3.204564e-06 0)
(0.15242955 2.9489711e-06 0)
(0.1506491 2.7248604e-06 0)
(0.14898175 2.5268354e-06 0)
(0.14741469 2.3506322e-06 0)
(0.14593707 2.1929215e-06 0)
(0.14453966 2.051131e-06 0)
(0.14321438 1.9231667e-06 0)
(0.14195423 1.8071684e-06 6.6703005e-33)
(0.14075315 1.7016655e-06 0)
(0.13960571 1.6052891e-06 0)
(0.13850735 1.5168997e-06 0)
(0.13745389 1.4357455e-06 0)
(0.13644154 1.3609265e-06 0)
(0.13546712 1.2916835e-06 0)
(0.13452767 1.2276047e-06 0)
(0.13362043 1.168142e-06 0)
(0.13274302 1.1127137e-06 0)
(0.13189335 1.0610144e-06 0)
(0.13106936 1.0127947e-06 0)
(0.13026917 9.6761965e-07 0)
(0.12949124 9.2515392e-07 0)
(0.12873411 8.8529603e-07 0)
(0.12799627 8.4786525e-07 0)
(0.12727641 8.1253933e-07 0)
(0.12657347 7.7911177e-07 0)
(0.12588638 7.475468e-07 0)
(0.12521402 7.1774572e-07 0)
(0.12455542 6.8946494e-07 0)
(0.1239098 6.6254802e-07 0)
(0.12327638 6.3698763e-07 0)
(0.12265431 6.1272969e-07 0)
(0.12204284 5.8962902e-07 0)
(0.12144133 5.6755356e-07 0)
(0.12084921 5.4645594e-07 0)
(0.12026586 5.2633043e-07 0)
(0.11969067 5.0712574e-07 0)
(0.11912305 4.8871503e-07 0)
(0.1185626 4.7102309e-07 0)
(0.11800884 4.5406304e-07 0)
(0.11746129 4.3781942e-07 0)
(0.11691944 4.2222706e-07 0)
(0.1163829 4.0720624e-07 0)
(0.1158513 3.9272405e-07 0)
(0.11532428 3.7879287e-07 0)
(0.11480142 3.6540286e-07 0)
(0.11428229 3.5249028e-07 0)
(0.11376658 3.3999966e-07 0)
(0.113254 3.2792919e-07 0)
(0.11274419 3.1628715e-07 0)
(0.11223678 3.0506064e-07 0)
(0.1117314 2.9419305e-07 0)
(0.11122778 2.8364739e-07 0)
(0.11072565 2.7343935e-07 0)
(0.11022464 2.635731e-07 0)
(0.1097244 2.5402458e-07 0)
(0.1092246 2.4475405e-07 0)
(0.10872496 2.3574296e-07 0)
(0.1082252 2.270075e-07 0)
(0.10772493 2.185529e-07 0)
(0.10722375 2.1034132e-07 0)
(0.10672138 2.0234345e-07 0)
(0.10621752 1.9457264e-07 0)
(0.10571177 1.8703823e-07 0)
(0.10520368 1.7972149e-07 0)
(0.10469288 1.7259451e-07 0)
(0.10417901 1.6565266e-07 0)
(0.10366166 1.5890861e-07 0)
(0.10314031 1.5235434e-07 0)
(0.10261449 1.4596384e-07 0)
(0.10208377 1.3973262e-07 0)
(0.10154763 1.336741e-07 0)
(0.10100543 1.2777791e-07 0)
(0.1004566 1.2202294e-07 0)
(0.09990055 1.1641142e-07 0)
(0.099336567 1.1095479e-07 0)
(0.098763807 1.0562359e-07 0)
(0.098181686 1.0045147e-07 0)
(0.097602076 9.5563125e-08 0)
(0.097043307 9.1021593e-08 0)
(0.096510701 8.6822808e-08 0)
(0.096002258 8.2950448e-08 0)
(0.095516067 7.9382242e-08 0)
(0.095050394 7.60817e-08 0)
(0.094603765 7.3015491e-08 0)
(0.094174845 7.0168817e-08 0)
(0.09376234 6.7528915e-08 0)
(0.093365067 6.5069334e-08 0)
(0.092982046 6.2766887e-08 0)
(0.092612373 6.0613331e-08 0)
(0.092255169 5.8603539e-08 0)
(0.091909591 5.6733661e-08 0)
(0.091574806 5.4986471e-08 0)
(0.091250176 5.3376003e-08 0)
(0.090934701 5.1858386e-08 0)
(0.090628271 5.0645924e-08 0)
(0.090327349 4.931028e-08 0)
(0.090036944 4.9420422e-08 0)
(0.08973477 4.7088943e-08 -4.2051889e-23)
(0.089472489 5.8286734e-08 0)
(0.089035021 3.6563879e-08 0)
(1 3.360725e-09 0)
(0.99998517 1.0518032e-08 0)
(0.99995722 1.6560513e-08 0)
(0.9999248 2.1245378e-08 0)
(0.99988878 2.6818156e-08 0)
(0.99984861 3.3801961e-08 0)
(0.99980407 4.2321128e-08 0)
(0.999755 5.2731663e-08 0)
(0.99970106 6.5625319e-08 0)
(0.99964169 8.1749787e-08 0)
(0.99957616 1.0204266e-07 0)
(0.99950353 1.2776315e-07 0)
(0.99942258 1.6065032e-07 0)
(0.99933165 2.0328886e-07 0)
(0.9992284 2.5923309e-07 0)
(0.9991097 3.3519579e-07 0)
(0.99896996 4.3784223e-07 0)
(0.99880375 5.9575327e-07 0)
(0.99859042 8.0134229e-07 0)
(0.99833279 1.2646772e-06 0)
(0.99790221 1.7150961e-06 0)
(0.99744762 5.0898694e-06 0)
(0.9954254 3.6963638e-06 0)
(0.9956503 0.0016707327 -1.3386803e-54)
(0.40791642 0.0018724956 1.0652785e-53)
(0.24651889 0.00022773947 -5.9527485e-19)
(0.22084542 3.6329912e-05 0)
(0.21225001 1.4601662e-05 -1.4108292e-20)
(0.20682616 1.0299603e-05 0)
(0.2023203 8.7146951e-06 0)