/*--------------------------------*- C++ -*----------------------------------*\
  =========                 |
  \\      /  F ield         | OpenFOAM: The Open Source CFD Toolbox
   \\    /   O peration     | Website:  https://openfoam.org
    \\  /    A nd           | Version:  12
     \\/     M anipulation  |
\*---------------------------------------------------------------------------*/
FoamFile
{
    format      ascii;
    class       volVectorField;
    location    "700";
    object      U;
}
// * * * * * * * * * * * * * * * * * * * * * * * * * * * * * * * * * * * * * //

dimensions      [0 1 -1 0 0 0 0];

internalField   nonuniform List<vector> 
7480
(
(0.98683287 0.00053297421 1.0344399e-16)
(0.97532614 0.0012562926 0)
(0.96256721 0.0017336843 0)
(0.94883019 0.0020077501 0)
(0.93434766 0.0021847167 0)
(0.91932326 0.0023137302 0)
(0.90383437 0.0024162646 0)
(0.88790622 0.0025128787 0)
(0.87158217 0.002618289 0)
(0.85498857 0.0027399902 0)
(0.83831901 0.0028783807 0)
(0.82185391 0.0030270972 0)
(0.8059744 0.0031616469 0)
(0.79113926 0.0032324606 0)
(0.77778303 0.0031602292 0)
(0.76613511 0.0029427138 0)
(0.75621729 0.0030176772 0)
(0.74788281 0.0021361695 0)
(0.74085885 0.0013499388 1.8847162e-17)
(0.7348025 0.0019377241 -7.5037812e-17)
(0.72956116 0.0011740262 -9.1685333e-17)
(0.72492797 0.00048436325 0)
(0.72066346 0.00033917758 0)
(0.71662783 9.1135152e-05 0)
(0.71275192 -2.208097e-05 0)
(0.70899107 -6.1503401e-05 0)
(0.70532998 -4.5466527e-05 0)
(0.70176674 -1.2419424e-05 0)
(0.69830593 2.4524731e-05 0)
(0.69495685 5.7389702e-05 0)
(0.69172332 8.2625179e-05 0)
(0.68859644 0.00010059275 0)
(0.68555868 0.00010984323 0)
(0.6825469 0.00011200484 0)
(0.67951898 0.00011427191 0)
(0.67646991 0.00011888505 0)
(0.67341783 0.0001238972 0)
(0.67039845 0.00012658033 0)
(0.66744829 0.00012542603 0)
(0.66459297 0.0001206965 0)
(0.66184353 0.00011371113 0)
(0.65920038 0.00010578653 0)
(0.65665803 9.7863914e-05 0)
(0.65420512 8.9963137e-05 0)
(0.6518304 8.1563218e-05 0)
(0.64948478 6.9907227e-05 0)
(0.64708982 4.6653186e-05 0)
(0.64451318 -4.0883619e-06 0)
(0.64154184 -7.9961046e-05 0)
(0.63797818 -0.00014998529 0)
(0.63403058 -0.00016846068 0)
(0.6301792 -0.00015177132 0)
(0.62669778 -0.00011807964 0)
(0.62364186 -9.2039827e-05 0)
(0.6209162 -7.3380946e-05 0)
(0.61841228 -5.8131867e-05 0)
(0.61604436 -4.3672331e-05 0)
(0.61373958 -3.0355622e-05 0)
(0.61150972 -1.9146556e-05 0)
(0.60934072 -1.0087534e-05 0)
(0.60722361 -2.6307428e-06 0)
(0.60514706 3.7345173e-06 0)
(0.60310077 9.0076714e-06 0)
(0.60107768 1.3200277e-05 0)
(0.59907217 1.6409471e-05 0)
(0.59707975 1.8735006e-05 0)
(0.59509858 2.028141e-05 0)
(0.59312768 2.1183255e-05 0)
(0.59116543 2.1577815e-05 0)
(0.5892098 2.156936e-05 0)
(0.58725893 2.1238983e-05 0)
(0.58531108 2.0644322e-05 0)
(0.58336474 1.9825083e-05 0)
(0.58141855 1.8824028e-05 0)
(0.57947106 1.7674084e-05 0)
(0.57752094 1.6401631e-05 0)
(0.57556683 1.51278e-05 0)
(0.57360734 1.395727e-05 0)
(0.5716413 1.2832266e-05 0)
(0.56966745 1.1711933e-05 0)
(0.56768478 1.0566837e-05 0)
(0.56569299 9.3907835e-06 0)
(0.56369311 8.1739291e-06 0)
(0.56170044 7.2566563e-06 0)
(0.55986716 1.7926511e-05 0)
(0.55934258 0.00027241456 0)
(0.57008884 0.00038258657 0)
(0.57556392 0.00035067576 0)
(0.5788582 0.00029533995 0)
(0.58009788 0.00023251914 0)
(0.58027326 0.00018250268 0)
(0.57985568 0.00014385386 0)
(0.57910515 0.00011360879 0)
(0.57815092 9.020895e-05 0)
(0.57707205 7.2860011e-05 0)
(0.57589827 6.0354065e-05 0)
(0.57469752 5.1775354e-05 0)
(0.57335779 8.235304e-05 6.8626603e-20)
(0.5722102 3.7947123e-05 -1.4905879e-19)
(0.56992398 5.9847262e-05 -1.0537822e-17)
(0.99589767 0.0022870951 0)
(0.99632259 0.0034463545 0)
(0.99686923 0.0040223476 0)
(0.99714165 0.0040893321 0)
(0.99714681 0.0041213917 0)
(0.99700056 0.0041175174 0)
(0.99673583 0.0040960071 0)
(0.99631252 0.0040499705 0)
(0.99567751 0.003974415 0)
(0.99473661 0.0038559884 0)
(0.9933629 0.0036777365 0)
(0.99138096 0.0034253996 0)
(0.98856224 0.0030915567 0)
(0.98464871 0.0026892988 0)
(0.97942355 0.0022657883 0)
(0.97281245 0.0018634181 0)
(0.96489309 0.001568189 0)
(0.95585793 0.0014654837 0)
(0.94594413 0.0013127828 0)
(0.93544075 0.0011793913 0)
(0.92458332 0.0012001468 0)
(0.91371246 0.001143413 0)
(0.90310048 0.0010632053 0)
(0.89293664 0.0010504129 0)
(0.88333303 0.0010076237 0)
(0.87434646 0.00093686195 0)
(0.86599764 0.00085044439 0)
(0.85826789 0.00076734515 0)
(0.85110203 0.0006929257 0)
(0.84442035 0.00062866421 0)
(0.83813755 0.00057631858 0)
(0.83217785 0.00053651429 0)
(0.82646863 0.00050974179 0)
(0.82098964 0.00049343532 0)
(0.81573306 0.00048050794 0)
(0.81068663 0.00046563759 0)
(0.80583222 0.00044725268 0)
(0.801147 0.00042585526 0)
(0.79660711 0.0004024666 0)
(0.79219647 0.00037847589 0)
(0.78790692 0.00035523461 0)
(0.78373582 0.00033347453 0)
(0.77968163 0.00031355703 0)
(0.77574164 0.00029559111 0)
(0.77191332 0.00028045291 0)
(0.76820553 0.0002706484 0)
(0.76463931 0.00027021434 0)
(0.76126137 0.00028403894 0)
(0.75816172 0.00031084001 0)
(0.7554091 0.00033362123 0)
(0.75283842 0.00033139486 0)
(0.75018083 0.00030550276 0)
(0.74733372 0.00026867355 0)
(0.74432666 0.00023575651 0)
(0.74125199 0.0002115177 0)
(0.73818114 0.00019508346 0)
(0.73514685 0.00018393993 0)
(0.7321557 0.00017479138 0)
(0.72921485 0.00016576461 0)
(0.72632834 0.00015737198 0)
(0.72349733 0.00014967375 0)
(0.72072007 0.00014270465 0)
(0.71799368 0.00013635956 0)
(0.71531568 0.00013055901 0)
(0.71268301 0.00012527247 0)
(0.71009273 0.0001203919 0)
(0.70754361 0.00011579912 0)
(0.70503459 0.00011147411 0)
(0.70256422 0.00010742319 0)
(0.70013088 0.00010362792 0)
(0.69773313 0.00010007469 0)
(0.69536952 9.6742321e-05 0)
(0.69303877 9.3602597e-05 0)
(0.69073973 9.0650645e-05 0)
(0.68847125 8.7872016e-05 0)
(0.68623228 8.5250837e-05 0)
(0.68402183 8.2777285e-05 0)
(0.68183883 8.0412682e-05 0)
(0.67968242 7.8145215e-05 0)
(0.67755156 7.6001205e-05 0)
(0.67544529 7.3947615e-05 0)
(0.67336305 7.1963996e-05 0)
(0.67130393 6.9923179e-05 0)
(0.66926849 6.6450652e-05 0)
(0.66725513 4.3743848e-05 0)
(0.66499984 -0.00013181793 0)
(0.66050491 -0.00016574159 0)
(0.65866664 -8.6236153e-05 0)
(0.6572544 -4.4112439e-05 0)
(0.65594669 -9.8357008e-06 0)
(0.65452023 8.7712315e-06 0)
(0.65297373 1.8642456e-05 0)
(0.65135125 2.3676701e-05 0)
(0.64968642 2.6488638e-05 0)
(0.64800455 2.8150273e-05 0)
(0.64630135 2.8706431e-05 0)
(0.64462635 2.9137795e-05 0)
(0.64283841 3.1353646e-05 0)
(0.6413083 3.1353748e-05 0)
(0.63850187 3.3653324e-05 0)
(0.99617322 0.0021847916 0)
(0.99654092 0.0028425359 0)
(0.99711241 0.0030009871 0)
(0.99757807 0.0029794647 0)
(0.99788964 0.0029839754 0)
(0.99814087 0.0030080312 0)
(0.99837981 0.0030361704 0)
(0.99860534 0.0030650945 0)
(0.99881347 0.0030963146 0)
(0.99900703 0.0031282465 0)
(0.99918871 0.0031569695 0)
(0.99935334 0.0031797473 0)
(0.99948515 0.0031941115 0)
(0.9995595 0.0032005069 0)
(0.99954194 0.0032057131 0)
(0.99938823 0.0032109372 0)
(0.99904811 0.0032002731 0)
(0.99845372 0.0031573641 0)
(0.99752287 0.003114806 0)
(0.99618176 0.0030203914 0)
(0.99427738 0.0029039949 0)
(0.99161595 0.0028024474 0)
(0.98811382 0.0026905299 0)
(0.98371225 0.0025553542 0)
(0.97839957 0.0024127991 0)
(0.97221882 0.0022737387 0)
(0.96523598 0.0021270625 0)
(0.95765804 0.0019658958 0)
(0.94968861 0.0018060174 0)
(0.94152844 0.0016519084 0)
(0.93336725 0.001505402 0)
(0.92536151 0.0013679311 0)
(0.91762912 0.0012458477 0)
(0.91023837 0.0011444901 0)
(0.90320688 0.0010605742 0)
(0.89651324 0.00098969342 0)
(0.89011649 0.00092871251 0)
(0.88396864 0.00087509761 0)
(0.87802956 0.00082642614 0)
(0.87227272 0.00078066813 0)
(0.86668273 0.00073667979 0)
(0.86125122 0.00069437203 0)
(0.85596885 0.00065423783 0)
(0.85082686 0.00061634779 0)
(0.84582167 0.00058147144 0)
(0.8409653 0.00055122829 0)
(0.8362731 0.00052722969 0)
(0.83176834 0.00051255271 0)
(0.8274863 0.00050547587 0)
(0.82345183 0.00049978149 0)
(0.81961965 0.00048431984 0)
(0.81589386 0.00045904285 0)
(0.81220139 0.00042980054 0)
(0.80850645 0.00040162373 0)
(0.80481264 0.0003763435 0)
(0.80114028 0.00035420044 0)
(0.79750843 0.00033561814 0)
(0.79392985 0.00031893165 0)
(0.79041316 0.00030283207 0)
(0.78696163 0.00028783256 0)
(0.78357528 0.00027387669 0)
(0.78025385 0.0002610023 0)
(0.77699675 0.00024912667 0)
(0.7738032 0.00023812048 0)
(0.77067083 0.00022791169 0)
(0.76759743 0.00021831441 0)
(0.76458218 0.00020917979 0)
(0.76162335 0.00020050207 0)
(0.75871899 0.00019228474 0)
(0.75586737 0.0001844945 0)
(0.753067 0.00017711208 0)
(0.75031636 0.00017010916 0)
(0.74761402 0.00016344581 0)
(0.74495867 0.0001571135 0)
(0.74234897 0.00015108919 0)
(0.73978374 0.00014534839 0)
(0.73726183 0.00013986249 0)
(0.73478205 0.00013459673 0)
(0.73234338 0.00012956385 0)
(0.72994467 0.00012477447 0)
(0.72758474 0.00012017519 0)
(0.7252628 0.00011575295 0)
(0.72297738 0.00011150582 0)
(0.72072477 0.00010623772 0)
(0.71847374 9.0608126e-05 0)
(0.71585889 7.6278651e-06 0)
(0.71115426 -5.121568e-05 0)
(0.70800881 -2.1943455e-05 0)
(0.70546223 1.0360807e-05 0)
(0.70329911 3.5977372e-05 0)
(0.70124399 5.0141743e-05 0)
(0.69921089 5.7001113e-05 0)
(0.69718097 5.9750891e-05 0)
(0.69515651 6.0269233e-05 0)
(0.69314695 5.9578858e-05 0)
(0.69113879 5.8011771e-05 0)
(0.6891766 5.7282226e-05 0)
(0.68710869 5.5369151e-05 0)
(0.68533673 6.0301365e-05 0)
(0.6821621 5.4885379e-05 4.0182068e-20)
(0.99636938 0.0020428887 0)
(0.99666471 0.002645056 0)
(0.99717669 0.0029790225 0)
(0.99763006 0.0031498242 0)
(0.99794945 0.0032869995 0)
(0.998208 0.0034021955 0)
(0.99845409 0.0034846437 0)
(0.99869052 0.0035398547 0)
(0.99891398 0.0035745358 0)
(0.99912847 0.0035930305 0)
(0.99933882 0.0035829949 0)
(0.99954554 0.0035474942 0)
(0.99974223 0.0034782169 0)
(0.99991901 0.0033744313 0)
(1.0000653 0.0032369278 0)
(1.0001746 0.0030773831 0)
(1.0002487 0.002912155 0)
(1.000289 0.0027527088 0)
(1.0003011 0.0026231888 0)
(1.0002985 0.0025388615 0)
(1.0002742 0.0024732077 0)
(1.0002102 0.002435308 0)
(1.0000892 0.0024161604 0)
(0.9998734 0.002402193 0)
(0.99951058 0.0023926165 0)
(0.9989286 0.0023813493 0)
(0.99804652 0.0023658453 0)
(0.99668925 0.0023440895 0)
(0.99471826 0.002312014 0)
(0.9920229 0.0022676341 0)
(0.9885256 0.0022118643 0)
(0.98420031 0.0021498003 0)
(0.97907035 0.0020734168 0)
(0.97328409 0.0019766184 0)
(0.96700758 0.0018687842 0)
(0.96041813 0.0017546768 0)
(0.95368304 0.001637965 0)
(0.94694198 0.0015231411 0)
(0.94029672 0.0014167133 0)
(0.93380199 0.001321738 0)
(0.92747288 0.0012371074 0)
(0.92130025 0.0011617333 0)
(0.91526828 0.0010946011 0)
(0.90936673 0.0010339922 0)
(0.90359201 0.00097814768 0)
(0.89794946 0.00092619842 0)
(0.89245041 0.00087881978 0)
(0.88710952 0.00083714955 0)
(0.88194047 0.00080283394 0)
(0.87695076 0.00077325297 0)
(0.87213069 0.00074262794 0)
(0.86745211 0.00070808179 0)
(0.86288702 0.00067125423 0)
(0.85841104 0.00063468702 0)
(0.85400932 0.00059999713 0)
(0.84967752 0.0005678932 0)
(0.84541879 0.00053909537 0)
(0.84123731 0.00051240597 0)
(0.83713414 0.00048666361 0)
(0.83310882 0.00046234199 0)
(0.82916155 0.00043961193 0)
(0.82529233 0.00041854091 0)
(0.82150035 0.00039887501 0)
(0.81778462 0.00038045586 0)
(0.81414278 0.00036322874 0)
(0.81057295 0.00034696405 0)
(0.80707411 0.00033149994 0)
(0.80364364 0.00031684212 0)
(0.80027931 0.00030297118 0)
(0.79697923 0.00028982381 0)
(0.79374174 0.00027736482 0)
(0.79056509 0.0002655513 0)
(0.7874476 0.00025432477 0)
(0.78438768 0.00024366621 0)
(0.78138373 0.00023353802 0)
(0.77843429 0.00022390107 0)
(0.77553797 0.00021475171 0)
(0.7726933 0.00020605369 0)
(0.76989905 0.00019777102 0)
(0.76715383 0.00018990552 0)
(0.76445627 0.00018238091 0)
(0.76180539 0.00017517658 0)
(0.75919961 0.00016829842 0)
(0.75663556 0.00016097716 0)
(0.75408996 0.00014634694 0)
(0.75134327 7.6635811e-05 0)
(0.74758606 1.8610037e-05 0)
(0.74440506 3.3622743e-05 0)
(0.74158745 5.5252372e-05 0)
(0.73907436 7.518008e-05 0)
(0.73669851 8.7128332e-05 0)
(0.7343804 9.3081045e-05 0)
(0.73208925 9.5116977e-05 0)
(0.72981774 9.4622999e-05 0)
(0.72757066 9.2930247e-05 0)
(0.72533254 9.0447217e-05 0)
(0.72314702 8.9441777e-05 0)
(0.72085847 8.6147019e-05 0)
(0.71889333 9.6075164e-05 0)
(0.71540573 8.1700066e-05 -3.3224354e-20)
(0.99655568 0.0019822362 0)
(0.99680339 0.0025641758 0)
(0.99724924 0.0029217775 0)
(0.99766152 0.0030774886 0)
(0.99796301 0.0031644285 0)
(0.9982093 0.0032259937 0)
(0.99844593 0.0032634699 0)
(0.99867668 0.0032823617 0)
(0.99889718 0.0032905963 0)
(0.99910997 0.0032876086 0)
(0.99931941 0.0032730234 0)
(0.99952566 0.003239503 0)
(0.99972297 0.003182793 0)
(0.99990299 0.0031031976 0)
(1.0000569 0.0030069417 0)
(1.0001778 0.00290521 0)
(1.0002671 0.0028125333 0)
(1.0003281 0.002734835 0)
(1.0003689 0.0026817688 0)
(1.0004054 0.0026511514 0)
(1.0004392 0.002623287 0)
(1.0004688 0.0026016098 0)
(1.0005 0.0025811389 0)
(1.0005314 0.0025594133 0)
(1.0005607 0.002537562 0)
(1.0005854 0.0025149517 0)
(1.0006 0.0024918761 0)
(1.0005942 0.0024678669 0)
(1.0005515 0.0024431198 0)
(1.0004462 0.0024179567 0)
(1.0002374 0.0023922508 0)
(0.99986332 0.0023644719 0)
(0.99925019 0.0023345502 0)
(0.99824602 0.0023025637 0)
(0.9967157 0.0022654091 0)
(0.99454196 0.0022204943 0)
(0.99164418 0.0021676651 0)
(0.98798736 0.0021051643 0)
(0.98361407 0.0020258141 0)
(0.97864912 0.0019313699 0)
(0.97324149 0.0018300067 0)
(0.9675444 0.0017253612 0)
(0.96169639 0.0016216558 0)
(0.95580492 0.0015242958 0)
(0.94993249 0.0014355393 0)
(0.94410652 0.0013551451 0)
(0.93833984 0.0012831269 0)
(0.93264531 0.0012195117 0)
(0.92704037 0.0011638018 0)
(0.92154245 0.0011133777 0)
(0.9161608 0.001063902 0)
(0.91089409 0.0010127621 0)
(0.90573547 0.00096097455 0)
(0.90067695 0.0009107154 0)
(0.89571227 0.00086333923 0)
(0.89083734 0.00081920887 0)
(0.88605231 0.00077867612 0)
(0.88135694 0.00074051627 0)
(0.87674758 0.00070370751 0)
(0.87222199 0.00066877852 0)
(0.86778105 0.00063586366 0)
(0.86342534 0.00060502734 0)
(0.85915422 0.00057605134 0)
(0.85496661 0.00054879281 0)
(0.85086131 0.0005232023 0)
(0.84683664 0.00049902451 0)
(0.84289049 0.00047606396 0)
(0.83902094 0.00045431411 0)
(0.83522604 0.00043373623 0)
(0.83150397 0.00041423445 0)
(0.82785302 0.0003957542 0)
(0.82427142 0.00037823532 0)
(0.82075742 0.00036159861 0)
(0.81730937 0.00034581185 0)
(0.81392557 0.00033082059 0)
(0.81060444 0.00031656875 0)
(0.80734446 0.00030303872 0)
(0.80414403 0.00029017755 0)
(0.80100178 0.00027794171 0)
(0.79791618 0.00026632864 0)
(0.79488576 0.00025524137 0)
(0.7919094 0.00024465501 0)
(0.78898553 0.00023462109 0)
(0.78611173 0.00022461796 0)
(0.78327378 0.00020882525 0)
(0.78035379 0.00014574824 0)
(0.77700212 9.1656933e-05 0)
(0.77385447 9.5520374e-05 0)
(0.77091223 0.00010934375 0)
(0.76817836 0.00012377241 0)
(0.76556693 0.00013265701 0)
(0.76302008 0.000136566 0)
(0.76050892 0.00013684996 0)
(0.75802303 0.00013489647 0)
(0.75556536 0.00013200737 0)
(0.75312012 0.0001280155 0)
(0.750731 0.00012624109 0)
(0.74824012 0.00012084384 4.992289e-20)
(0.74609711 0.00013670762 0)
(0.74231352 0.0001108785 0)
(0.99672899 0.0019374379 0)
(0.99693661 0.002469594 0)
(0.99732026 0.0028117477 0)
(0.9976943 0.0029724904 0)
(0.99798451 0.0030715764 0)
(0.99822686 0.003156864 0)
(0.99845963 0.0032253464 0)
(0.99868708 0.0032755445 0)
(0.99890433 0.0033101393 0)
(0.9991134 0.0033369744 0)
(0.99931817 0.0033348235 0)
(0.99951838 0.0033176847 0)
(0.99970941 0.0032741638 0)
(0.99988374 0.0032056726 0)
(1.0000332 0.0031170592 0)
(1.0001524 0.0030173559 0)
(1.0002424 0.0029178343 0)
(1.0003057 0.0028233127 0)
(1.0003498 0.0027436226 0)
(1.0003888 0.002679114 0)
(1.0004254 0.002618278 0)
(1.0004595 0.0025687138 0)
(1.000496 0.0025282926 0)
(1.0005347 0.0024935342 0)
(1.0005746 0.0024641067 0)
(1.0006158 0.0024379709 0)
(1.0006576 0.002413893 0)
(1.0006986 0.002390537 0)
(1.0007376 0.0023685316 0)
(1.0007741 0.0023481774 0)
(1.000807 0.0023296202 0)
(1.0008343 0.0023137663 0)
(1.0008528 0.0023011345 0)
(1.0008547 0.0022907783 0)
(1.0008251 0.0022809638 0)
(1.0007366 0.0022696217 0)
(1.000544 0.0022549116 0)
(1.000183 0.0022351989 0)
(0.99954673 0.0022106253 0)
(0.99848925 0.0021807723 0)
(0.99687995 0.0021438397 0)
(0.99461834 0.002100021 0)
(0.99164636 0.0020475583 0)
(0.98798604 0.0019807246 0)
(0.98373879 0.0019012337 0)
(0.97903512 0.0018152172 0)
(0.97401367 0.0017258191 0)
(0.96880001 0.0016388286 0)
(0.96349 0.0015595866 0)
(0.95814422 0.0014871723 0)
(0.95279344 0.0014183085 0)
(0.94745425 0.0013505795 0)
(0.94213965 0.0012841553 0)
(0.93686384 0.0012202154 0)
(0.93163986 0.0011596015 0)
(0.92647594 0.0011024771 0)
(0.92137833 0.0010490912 0)
(0.91635164 0.0009984375 0)
(0.91139753 0.00094967107 0)
(0.90651679 0.00090322628 0)
(0.90171141 0.00085916861 0)
(0.89698358 0.00081760306 0)
(0.89233493 0.00077834786 0)
(0.8877662 0.00074126534 0)
(0.88327857 0.00070630964 0)
(0.87887167 0.00067322562 0)
(0.87454366 0.00064181016 0)
(0.87029402 0.00061203254 0)
(0.86612186 0.0005838237 0)
(0.86202607 0.00055706585 0)
(0.85800549 0.00053169127 0)
(0.8540588 0.00050762376 0)
(0.85018464 0.00048476366 0)
(0.84638167 0.00046306587 0)
(0.84264843 0.00044245918 0)
(0.83898354 0.00042287026 0)
(0.83538561 0.0004042689 0)
(0.83185316 0.00038658543 0)
(0.82838489 0.00036976552 0)
(0.82497931 0.00035380059 0)
(0.82163499 0.00033857189 0)
(0.81835084 0.0003240483 0)
(0.81512536 0.00031031203 0)
(0.81195699 0.00029698416 0)
(0.80883738 0.00027880605 0)
(0.80570321 0.00021892737 0)
(0.80240488 0.00016525742 0)
(0.79919141 0.000161793 0)
(0.79610265 0.00016937882 0)
(0.79315912 0.00017887295 0)
(0.79032133 0.00018437102 0)
(0.78755077 0.00018584417 0)
(0.78482325 0.00018418569 0)
(0.78212699 0.00018042521 0)
(0.77946322 0.00017584852 0)
(0.77681559 0.00017005866 0)
(0.77422765 0.0001673418 0)
(0.77153917 0.00015927537 0)
(0.76922261 0.00018211807 3.5545701e-20)
(0.76514864 0.00014270776 0)
(0.99688911 0.0018995616 0)
(0.99706443 0.0023817336 0)
(0.99739508 0.0027142962 0)
(0.99773447 0.0028929938 0)
(0.99801257 0.0030080988 0)
(0.99824899 0.0031032403 0)
(0.9984751 0.0031759015 0)
(0.99869654 0.0032238778 0)
(0.99890871 0.0032529588 0)
(0.99911332 0.0032654319 0)
(0.99931365 0.0032612408 0)
(0.9995087 0.003236124 0)
(0.99969476 0.0031878321 0)
(0.99986499 0.0031172265 0)
(1.0000119 0.003028579 0)
(1.0001307 0.0029304139 0)
(1.0002218 0.002833265 0)
(1.0002877 0.0027430393 0)
(1.0003354 0.0026696251 0)
(1.000377 0.0026140914 0)
(1.0004156 0.0025671616 0)
(1.0004517 0.0025327394 0)
(1.0004895 0.0025069529 0)
(1.0005289 0.0024851963 0)
(1.0005696 0.002466226 0)
(1.0006116 0.0024481676 0)
(1.0006543 0.0024299672 0)
(1.0006971 0.0024108442 0)
(1.000739 0.0023915013 0)
(1.0007796 0.0023722293 0)
(1.0008189 0.0023533243 0)
(1.0008568 0.0023356649 0)
(1.0008944 0.002319232 0)
(1.000932 0.0023033164 0)
(1.0009694 0.0022875322 0)
(1.0010063 0.002271279 0)
(1.0010408 0.0022544429 0)
(1.0010698 0.0022376743 0)
(1.0010868 0.002221318 0)
(1.0010794 0.0022050619 0)
(1.0010245 0.0021884221 0)
(1.0008816 0.0021704229 0)
(1.00059 0.0021499985 0)
(1.0000432 0.0021269944 0)
(0.99909759 0.002100475 0)
(0.99762113 0.0020685632 0)
(0.99551448 0.0020318483 0)
(0.99272286 0.001985168 0)
(0.98930404 0.0019258881 0)
(0.98536103 0.0018587349 0)
(0.98102088 0.0017833826 0)
(0.9764073 0.0017022973 0)
(0.97161836 0.0016212955 0)
(0.96671875 0.0015435908 0)
(0.96174661 0.0014705486 0)
(0.95672709 0.0014021869 0)
(0.95168372 0.0013379992 0)
(0.94663934 0.00127645 0)
(0.94161142 0.0012167112 0)
(0.93661152 0.0011592945 0)
(0.93164852 0.0011043439 0)
(0.92673048 0.0010520698 0)
(0.92186469 0.0010023675 0)
(0.91705678 0.00095512467 0)
(0.91231172 0.00091034019 0)
(0.90763297 0.00086782278 0)
(0.90302214 0.00082737434 0)
(0.89848087 0.00078893687 0)
(0.89401037 0.00075243698 0)
(0.88961145 0.00071774781 0)
(0.88528458 0.00068479709 0)
(0.88102977 0.00065349918 0)
(0.87684681 0.0006237391 0)
(0.87273533 0.00059546326 0)
(0.86869469 0.000568587 0)
(0.8647242 0.00054302227 0)
(0.86082305 0.00051872997 0)
(0.85699027 0.00049562569 0)
(0.85322494 0.00047364315 0)
(0.84952594 0.00045276779 0)
(0.84589214 0.00043285891 0)
(0.84232269 0.00041387831 0)
(0.83881634 0.00039592648 0)
(0.83537225 0.00037870276 0)
(0.83198552 0.00035715021 0)
(0.82861968 0.00029704078 0)
(0.82521022 0.00024190043 0)
(0.8218557 0.00023335969 0)
(0.81858902 0.00023583368 0)
(0.81543097 0.00024074997 0)
(0.81236608 0.00024262246 0)
(0.80937054 0.0002412441 0)
(0.80642544 0.00023722471 0)
(0.80351869 0.00023130894 0)
(0.8006499 0.00022476687 0)
(0.79780179 0.00021692538 0)
(0.7950174 0.00021307834 0)
(0.79213389 0.0002018928 0)
(0.78964614 0.00023269306 3.4331801e-20)
(0.78528586 0.000177639 0)
(0.99703743 0.001868399 0)
(0.99718727 0.0023054861 0)
(0.99747283 0.0026268301 0)
(0.99777921 0.0028162904 0)
(0.99804296 0.0029391482 0)
(0.99827196 0.0030370404 0)
(0.99849109 0.0031124093 0)
(0.99870659 0.0031641715 0)
(0.99891451 0.0031972699 0)
(0.99911535 0.0032163267 0)
(0.99931145 0.0032177975 0)
(0.99950201 0.0031999275 0)
(0.9996836 0.0031605278 0)
(0.99985007 0.0030999638 0)
(0.99999469 0.0030220458 0)
(1.000113 0.0029345088 0)
(1.0002053 0.0028466814 0)
(1.0002737 0.0027644131 0)
(1.0003246 0.0026962089 0)
(1.0003685 0.002642625 0)
(1.0004086 0.0025959471 0)
(1.0004461 0.0025586529 0)
(1.0004845 0.0025277286 0)
(1.0005242 0.002499841 0)
(1.0005649 0.0024745243 0)
(1.0006069 0.0024505603 0)
(1.0006495 0.0024272425 0)
(1.0006919 0.0024040274 0)
(1.0007335 0.0023814139 0)
(1.000774 0.0023596859 0)
(1.0008135 0.0023391225 0)
(1.0008522 0.0023203642 0)
(1.0008909 0.0023033474 0)
(1.0009301 0.0022875788 0)
(1.0009704 0.002272709 0)
(1.0010114 0.0022578974 0)
(1.0010525 0.0022426544 0)
(1.0010928 0.0022269136 0)
(1.0011321 0.0022103557 0)
(1.0011696 0.0021931148 0)
(1.0012044 0.0021758561 0)
(1.0012359 0.00215922 0)
(1.0012621 0.0021439208 0)
(1.0012768 0.0021301054 0)
(1.0012672 0.002117225 0)
(1.0012074 0.002104493 0)
(1.0010497 0.0020905956 0)
(1.0007261 0.0020757745 0)
(1.0000974 0.002060084 0)
(0.99902436 0.002040197 0)
(0.99738681 0.0020127922 0)
(0.9951033 0.0019720847 0)
(0.99219163 0.0019155497 0)
(0.98873653 0.0018484195 0)
(0.98485506 0.0017748833 0)
(0.98066602 0.0016995203 0)
(0.97626488 0.0016266838 0)
(0.97171479 0.0015563686 0)
(0.96705422 0.0014883063 0)
(0.96231181 0.0014228852 0)
(0.95751487 0.0013597811 0)
(0.95268826 0.0012989216 0)
(0.94785171 0.0012403077 0)
(0.94302018 0.0011839613 0)
(0.93820641 0.00113003 0)
(0.93342139 0.0010784642 0)
(0.92867357 0.0010291373 0)
(0.92396963 0.000982034 0)
(0.91931502 0.00093711148 0)
(0.91471431 0.00089425816 0)
(0.91017121 0.00085342079 0)
(0.90568849 0.00081452352 0)
(0.9012683 0.00077745081 0)
(0.89691229 0.00074215285 0)
(0.89262156 0.00070854107 0)
(0.8883969 0.00067652058 0)
(0.88423878 0.00064605018 0)
(0.8801473 0.00061703584 0)
(0.87612251 0.00058940308 0)
(0.87216409 0.00056313484 0)
(0.86827159 0.0005380706 0)
(0.86444476 0.00051416687 0)
(0.86068292 0.00049153704 0)
(0.85698596 0.00046992376 0)
(0.85335111 0.00044427491 0)
(0.84975474 0.00038184381 0)
(0.84616897 0.00032421338 0)
(0.84263602 0.00031136558 0)
(0.83917585 0.00030929568 0)
(0.83580381 0.00030982267 0)
(0.83251574 0.00030787181 0)
(0.82929818 0.00030325275 0)
(0.82613746 0.00029644186 0)
(0.82302221 0.00028799109 0)
(0.81995089 0.00027916783 0)
(0.81690524 0.00026898037 0)
(0.81392765 0.00026378155 0)
(0.81085237 0.00024904013 -2.0648466e-20)
(0.80819627 0.00028873238 0)
(0.80355461 0.00021596945 1.0817348e-20)
(0.99717524 0.0018415977 0)
(0.99730486 0.002238142 0)
(0.99755202 0.0025452608 0)
(0.99782746 0.0027403488 0)
(0.99807593 0.0028700083 0)
(0.99829707 0.0029723382 0)
(0.99850931 0.0030529039 0)
(0.99871866 0.0031102156 0)
(0.99892183 0.0031478534 0)
(0.99911829 0.0031697571 0)
(0.99930969 0.0031733901 0)
(0.99949545 0.0031577007 0)
(0.99967234 0.003121001 0)
(0.99983484 0.0030638108 0)
(0.99997694 0.0029898572 0)
(1.0000946 0.0029062828 0)
(1.0001878 0.0028215021 0)
(1.0002584 0.0027414031 0)
(1.0003123 0.0026736225 0)
(1.0003585 0.0026189586 0)
(1.0004005 0.0025717077 0)
(1.0004396 0.0025337652 0)
(1.0004793 0.0025027998 0)
(1.0005198 0.0024759693 0)
(1.0005611 0.0024525347 0)
(1.0006035 0.0024310461 0)
(1.0006463 0.0024105294 0)
(1.000689 0.0023902587 0)
(1.0007307 0.00237043 0)
(1.0007714 0.0023512592 0)
(1.000811 0.0023329563 0)
(1.0008498 0.0023160237 0)
(1.0008885 0.0023004626 0)
(1.0009275 0.0022858468 0)
(1.0009674 0.0022717484 0)
(1.0010079 0.0022573597 0)
(1.0010488 0.002242208 0)
(1.0010895 0.0022262498 0)
(1.0011296 0.0022094015 0)
(1.0011689 0.0021920583 0)
(1.0012071 0.0021748755 0)
(1.001244 0.0021582254 0)
(1.0012797 0.0021423178 0)
(1.0013143 0.0021269376 0)
(1.0013476 0.0021121226 0)
(1.0013788 0.0020982699 0)
(1.001407 0.002086106 0)
(1.0014296 0.0020765484 0)
(1.0014386 0.0020696582 0)
(1.0014156 0.0020635015 0)
(1.0013204 0.0020540699 0)
(1.001088 0.0020389576 0)
(1.0005896 0.0020186331 0)
(0.99967867 0.0019932207 0)
(0.99822888 0.001963191 0)
(0.99615481 0.0019240416 0)
(0.99347898 0.0018729618 0)
(0.99028188 0.0018127837 0)
(0.98667442 0.0017457355 0)
(0.98276437 0.0016765429 0)
(0.97863352 0.001608417 0)
(0.97433455 0.0015422244 0)
(0.96990359 0.0014782124 0)
(0.96537254 0.0014161044 0)
(0.96077161 0.001355766 0)
(0.95612623 0.0012972391 0)
(0.95145612 0.0012405722 0)
(0.94677734 0.0011859181 0)
(0.94210361 0.0011333585 0)
(0.93744644 0.0010828668 0)
(0.93281529 0.001034464 0)
(0.92821789 0.00098812586 0)
(0.92366073 0.00094376991 0)
(0.91914912 0.00090137786 0)
(0.91468731 0.00086087825 0)
(0.91027879 0.00082218658 0)
(0.90592637 0.00078527383 0)
(0.90163218 0.00075004743 0)
(0.89739797 0.00071643428 0)
(0.89322494 0.00068442304 0)
(0.88911393 0.00065383923 0)
(0.88506582 0.00062463943 0)
(0.88108091 0.0005969505 0)
(0.87716012 0.00057054073 0)
(0.87330228 0.00054028076 0)
(0.86949014 0.00047441448 0)
(0.86571204 0.00041350573 0)
(0.86199059 0.00039636118 0)
(0.85833646 0.00038990615 0)
(0.85475886 0.00038610385 0)
(0.85125796 0.00038016547 0)
(0.84782715 0.00037198375 0)
(0.84445755 0.00036200491 0)
(0.84113939 0.00035065972 0)
(0.83787071 0.00033923591 0)
(0.83463254 0.00032640601 0)
(0.83146668 0.000319635 0)
(0.82820434 0.00030089713 0)
(0.8253839 0.00035043846 3.4096126e-20)
(0.82046731 0.00025787343 0)
(0.99730381 0.0018181973 0)
(0.9974172 0.0021785318 0)
(0.99763181 0.0024698587 0)
(0.99787887 0.0026673762 0)
(0.99811168 0.0028030396 0)
(0.99832433 0.0029094657 0)
(0.99852934 0.0029939171 0)
(0.99873208 0.0030551013 0)
(0.99892992 0.0030957314 0)
(0.99912167 0.003119553 0)
(0.99930834 0.0031256311 0)
(0.99948938 0.0031129999 0)
(0.99966174 0.0030804741 0)
(0.99982047 0.0030287259 0)
(0.99996016 0.0029612295 0)
(1.0000772 0.0028844134 0)
(1.0001712 0.0028057954 0)
(1.0002439 0.0027311199 0)
(1.0003006 0.0026671815 0)
(1.000349 0.0026149319 0)
(1.0003928 0.0025700828 0)
(1.0004336 0.0025337901 0)
(1.0004744 0.0025039395 0)
(1.0005156 0.0024779157 0)
(1.0005574 0.0024548031 0)
(1.0006 0.0024332212 0)
(1.000643 0.0024122939 0)
(1.0006857 0.0023914468 0)
(1.0007276 0.0023708821 0)
(1.0007684 0.0023509052 0)
(1.0008082 0.0023317764 0)
(1.0008473 0.0023139666 0)
(1.0008862 0.0022975406 0)
(1.0009254 0.0022821188 0)
(1.0009652 0.0022672751 0)
(1.0010057 0.0022523108 0)
(1.0010465 0.0022367956 0)
(1.001087 0.0022206954 0)
(1.001127 0.0022039759 0)
(1.0011659 0.0021869384 0)
(1.0012037 0.0021700704 0)
(1.0012406 0.0021536541 0)
(1.0012767 0.002137861 0)
(1.0013122 0.0021226095 0)
(1.0013473 0.0021080872 0)
(1.001382 0.0020946451 0)
(1.0014162 0.0020826652 0)
(1.0014501 0.0020724222 0)
(1.001485 0.0020639993 0)
(1.0015213 0.002056546 0)
(1.001558 0.0020479167 0)
(1.0015911 0.0020370122 0)
(1.0016106 0.0020245915 0)
(1.0015972 0.0020115056 0)
(1.0015113 0.0019973491 0)
(1.0012888 0.0019817066 0)
(1.000794 0.0019640648 0)
(0.99988133 0.0019419198 0)
(0.99842495 0.0019129885 0)
(0.99636164 0.0018733491 0)
(0.99373206 0.0018222429 0)
(0.99062549 0.0017631368 0)
(0.98714882 0.0016998037 0)
(0.98339397 0.0016359647 0)
(0.97942417 0.0015728822 0)
(0.97528212 0.0015111305 0)
(0.97100371 0.0014506647 0)
(0.9666227 0.0013914616 0)
(0.962168 0.0013336391 0)
(0.95766262 0.0012773363 0)
(0.95312569 0.0012227551 0)
(0.94857361 0.0011700111 0)
(0.94402024 0.0011191259 0)
(0.93947706 0.0010701712 0)
(0.93495364 0.0010231356 0)
(0.93045809 0.00097798017 0)
(0.92599713 0.0009347174 0)
(0.92157628 0.0008932776 0)
(0.91720025 0.00085360763 0)
(0.91287274 0.00081571754 0)
(0.90859679 0.00077943056 0)
(0.90437517 0.00074471412 0)
(0.90020983 0.00071171503 0)
(0.89610321 0.00068022072 0)
(0.89205586 0.00064500337 0)
(0.88805418 0.00057508693 0)
(0.88409418 0.00051030249 0)
(0.88019291 0.00048862912 0)
(0.87635641 0.0004777386 0)
(0.87258899 0.00046957151 0)
(0.86889176 0.00045949613 0)
(0.86526222 0.00044748621 0)
(0.8616956 0.00043401385 0)
(0.8581843 0.00041944295 0)
(0.85472676 0.00040511072 0)
(0.85130376 0.00038934885 0)
(0.84795675 0.00038079083 0)
(0.84451396 0.00035760873 0)
(0.84153475 0.00041781059 0)
(0.83635166 0.00030350128 0)
(0.9974242 0.0017973399 0)
(0.99752443 0.002125457 0)
(0.99771153 0.0024003536 0)
(0.99793287 0.0025975408 0)
(0.99814994 0.0027376412 0)
(0.99835347 0.0028472698 0)
(0.99855099 0.0029346586 0)
(0.99874685 0.0029992358 0)
(0.99893904 0.0030430524 0)
(0.99912591 0.0030695356 0)
(0.99930781 0.003078662 0)
(0.99948411 0.0030694762 0)
(0.99965197 0.0030411663 0)
(0.99980693 0.0029945133 0)
(0.99994415 0.0029327295 0)
(1.0000603 0.0028616138 0)
(1.0001549 0.0027879482 0)
(1.0002294 0.0027173062 0)
(1.0002886 0.0026557801 0)
(1.0003392 0.0026045076 0)
(1.0003847 0.0025603715 0)
(1.0004271 0.0025240617 0)
(1.0004689 0.0024937839 0)
(1.0005109 0.0024673118 0)
(1.0005533 0.0024437613 0)
(1.0005962 0.0024219119 0)
(1.0006394 0.0024009646 0)
(1.0006823 0.0023803947 0)
(1.0007243 0.0023603035 0)
(1.0007654 0.0023409409 0)
(1.0008055 0.0023225115 0)
(1.0008448 0.0023053779 0)
(1.0008839 0.0022895826 0)
(1.0009233 0.0022747554 0)
(1.0009633 0.0022604635 0)
(1.0010038 0.0022460688 0)
(1.0010445 0.0022311383 0)
(1.0010851 0.0022156009 0)