/*--------------------------------*- C++ -*----------------------------------*\
  =========                 |
  \\      /  F ield         | OpenFOAM: The Open Source CFD Toolbox
   \\    /   O peration     | Website:  https://openfoam.org
    \\  /    A nd           | Version:  12
     \\/     M anipulation  |
\*---------------------------------------------------------------------------*/
FoamFile
{
    format      ascii;
    class       volVectorField;
    location    "700";
    object      wallShearStress;
}
// * * * * * * * * * * * * * * * * * * * * * * * * * * * * * * * * * * * * * //

dimensions      [0 2 -2 0 0 0 0];

internalField   uniform (0 0 0);

boundaryField
{
    bottom
    {
        type            calculated;
        value           nonuniform List<vector> 
112
(
(-0.0057128408 -3.5187046e-05 0)
(-0.0028829171 -3.8467577e-07 -1.8600228e-17)
(-0.0025785657 -8.3906085e-08 -5.1724127e-19)
(-0.0024787778 -1.8594698e-08 -9.9331315e-19)
(-0.0024154597 -1.3149266e-08 0)
(-0.0023624989 -1.1163565e-08 0)
(-0.0023158858 -9.7892331e-09 0)
(-0.0022743832 -8.6692023e-09 0)
(-0.002237095 -7.7532601e-09 0)
(-0.0022032193 -7.0041413e-09 -7.4665565e-19)
(-0.0021721558 -6.3775139e-09 0)
(-0.0021434747 -5.8411028e-09 -6.2263081e-19)
(-0.0021168513 -5.3749807e-09 5.7294519e-19)
(-0.0020920248 -4.9662713e-09 -5.2937836e-19)
(-0.0020687786 -4.6051789e-09 0)
(-0.0020469332 -4.2838826e-09 4.5663551e-19)
(-0.0020263372 -3.9963233e-09 0)
(-0.0020068613 -3.7377931e-09 -1.9921129e-19)
(-0.0019883927 -3.5044839e-09 0)
(-0.0019708336 -3.2929826e-09 -3.5100881e-19)
(-0.0019540991 -3.1006536e-09 3.305064e-19)
(-0.0019381135 -2.9249536e-09 0)
(-0.001922813 -2.7637968e-09 0)
(-0.0019081393 -2.6158883e-09 0)
(-0.0018940391 -2.4795035e-09 -2.6429587e-19)
(-0.0018804684 -2.3532625e-09 0)
(-0.0018673858 -2.2364831e-09 0)
(-0.0018547523 -2.1281127e-09 0)
(-0.0018425352 -2.0270706e-09 0)
(-0.0018307052 -1.9328424e-09 -2.0602723e-19)
(-0.0018192333 -1.8449858e-09 1.9666083e-19)
(-0.0018080933 -1.7626506e-09 0)
(-0.0017972641 -1.6852399e-09 0)
(-0.001786725 -1.6126146e-09 0)
(-0.0017764548 -1.5444235e-09 1.6462317e-19)
(-0.0017664354 -1.4800428e-09 0)
(-0.0017566521 -1.4191133e-09 0)
(-0.0017470898 -1.3616039e-09 -1.4513706e-19)
(-0.001737733 -1.3073192e-09 0)
(-0.001728568 -1.2557832e-09 0)
(-0.0017195841 -1.2067247e-09 0)
(-0.0017107703 -1.160158e-09 1.2366429e-19)
(-0.001702115 -1.1159703e-09 -5.9476897e-20)
(-0.0016936073 -1.0738849e-09 1.144676e-19)
(-0.0016852385 -1.0336568e-09 0)
(-0.0016770008 -9.9521507e-10 0)
(-0.0016688855 -9.5855466e-10 -1.5326215e-19)
(-0.0016608838 -9.2357695e-10 0)
(-0.0016529878 -8.9003245e-10 9.4870451e-20)
(-0.0016451918 -8.5779285e-10 0)
(-0.0016374893 -8.2689957e-10 0)
(-0.0016298733 -7.9731456e-10 -4.2493728e-20)
(-0.0016223368 -7.6891306e-10 -4.097996e-20)
(-0.0016148744 -7.4154654e-10 0)
(-0.0016074811 -7.1516172e-10 -7.6230854e-20)
(-0.0016001517 -6.8978689e-10 0)
(-0.0015928803 -6.6540171e-10 0)
(-0.001585661 -6.4188093e-10 0)
(-0.0015784896 -6.1912482e-10 0)
(-0.0015713619 -5.9713783e-10 0)
(-0.001564273 -5.7593464e-10 0)
(-0.0015572176 -5.5549056e-10 0)
(-0.0015501905 -5.3569479e-10 0)
(-0.0015431883 -5.1648318e-10 0)
(-0.001536207 -4.9789172e-10 -5.3071349e-20)
(-0.0015292415 -4.7992464e-10 0)
(-0.0015222868 -4.625349e-10 -2.4651209e-20)
(-0.0015153384 -4.45649e-10 0)
(-0.0015083926 -4.2923558e-10 -2.2876576e-20)
(-0.0015014453 -4.1332732e-10 4.4057404e-20)
(-0.0014944909 -3.9793247e-10 4.2416262e-20)
(-0.0014875242 -3.8297692e-10 -2.0411084e-20)
(-0.0014805412 -3.6840941e-10 0)
(-0.0014735377 -3.5425807e-10 0)
(-0.001466508 -3.4053874e-10 3.6298559e-20)
(-0.001459446 -3.2721469e-10 -3.4878291e-20)
(-0.0014523465 -3.1423454e-10 0)
(-0.0014452048 -3.0159254e-10 0)
(-0.0014380147 -2.8931244e-10 -3.0838257e-20)
(-0.0014307692 -2.7737796e-10 0)
(-0.0014234619 -2.6574014e-10 0)
(-0.0014160867 -2.5439274e-10 0)
(-0.0014086364 -2.4336177e-10 0)
(-0.001401102 -2.3262571e-10 0)
(-0.0013934757 -2.2214564e-10 0)
(-0.0013857494 -2.1192796e-10 0)
(-0.0013779131 -2.0199332e-10 0)
(-0.001369955 -1.9228617e-10 2.04958e-20)
(-0.0013618671 -1.8286773e-10 -1.949192e-20)
(-0.0013538144 -1.7396719e-10 0)
(-0.0013460514 -1.656991e-10 0)
(-0.0013386521 -1.5805454e-10 0)
(-0.0013315887 -1.5100431e-10 0)
(-0.0013248346 -1.4450816e-10 0)
(-0.0013183656 -1.384991e-10 0)
(-0.0013121614 -1.3291649e-10 0)
(-0.0013062033 -1.2773402e-10 0)
(-0.0013004733 -1.2292863e-10 -1.3102458e-20)
(-0.001294955 -1.1845088e-10 0)
(-0.0012896347 -1.1425905e-10 0)
(-0.0012845 -1.1033892e-10 0)
(-0.0012795385 -1.0668069e-10 0)
(-0.0012747386 -1.0327768e-10 0)
(-0.0012700885 -1.0009779e-10 0)
(-0.0012655796 -9.7167128e-11 0)
(-0.0012611977 -9.4406867e-11 0)
(-0.0012569415 -9.2205529e-11 0)
(-0.001252761 -8.9782149e-11 0)
(-0.0012487275 -8.9993262e-11 0)
(-0.0012445254 -1.5440613e-10 0)
(-0.0012408829 -1.0563664e-10 -1.1343611e-20)
(-0.0012348078 -1.2053531e-10 0)
)
;
    }
    back
    {
        type            empty;
    }
    front
    {
        type            empty;
    }
    inlet
    {
        type            calculated;
        value           uniform (0 0 0);
    }
    outlet
    {
        type            calculated;
        value           uniform (0 0 0);
    }
    top
    {
        type            calculated;
        value           uniform (0 0 0);
    }
    slipsurface
    {
        type            calculated;
        value           uniform (0 0 0);
    }
}


// ************************************************************************* //
