#      distance             U_x             U_y             U_z wallShearStr... wallShearStr... wallShearStr...               p           omega               k             nut
    0.001215373       0.6296622   9.8875802e-05               0               0               0               0   0.00016044329       356.91809    0.0041861376   1.5160205e-05
   0.0020572852      0.68699799   0.00011960922               0               0               0               0   0.00016454188       180.47867    0.0041284343   2.5066773e-05
   0.0029273097      0.72303753    0.0001442135               0               0               0               0   0.00016977538       119.73041    0.0039713754   3.4680885e-05
   0.0038263852      0.75019379   0.00017328132               0               0               0               0   0.00017570942       89.971028    0.0038430775   4.3783282e-05
   0.0047554818      0.77243476   0.00020663762               0               0               0               0   0.00018204637       72.469006    0.0037248961   5.2171679e-05
   0.0057156019      0.79159594   0.00024415465               0               0               0               0   0.00018857083       61.054226     0.003607698   5.9648188e-05
   0.0067077814      0.80869473   0.00028579838               0               0               0               0   0.00019510666       53.114313    0.0034871716   6.6050994e-05
   0.0077330908      0.82435942   0.00033161207               0               0               0               0   0.00020149192       47.357551    0.0033608557   7.1239814e-05
   0.0087926364      0.83901869   0.00038180835               0               0               0               0   0.00020757044       43.071977    0.0032268858    7.500691e-05
   0.0098875613      0.85301677   0.00043684072               0               0               0               0   0.00021318014       39.821074    0.0030828333   7.6909238e-05
    0.011019047      0.86666109   0.00049741991               0               0               0               0   0.00021812566       37.303789    0.0029251248   7.6701452e-05
    0.012188314      0.88020123   0.00056463106               0               0               0               0   0.00022219838       35.293363    0.0027491822   7.4567735e-05
    0.013396624      0.89381965   0.00063994501               0               0               0               0   0.00022524709        33.60529     0.002549683   7.0736057e-05
    0.014645281      0.90764288   0.00072489932               0               0               0               0   0.00022721582       32.079047    0.0023212908   6.5466426e-05
    0.015935632       0.9217157   0.00082047657               0               0               0               0   0.00022812837       30.575395    0.0020603179   5.9218989e-05
    0.017269069      0.93591991   0.00092620082               0               0               0               0   0.00022804883       28.988037    0.0017679298   5.2721966e-05
    0.018647031      0.94987856    0.0010390277               0               0               0               0   0.00022705434       27.283922    0.0014550552   4.6777309e-05
    0.020071004       0.9630313    0.0011539305               0               0               0               0   0.00022528302       25.488295     0.001140181   4.1375879e-05
    0.021542526      0.97504669    0.0012670119               0               0               0               0   0.00022296699       23.533277   0.00083496084   3.4512296e-05
    0.023063183      0.98588278    0.0013757474               0               0               0               0   0.00022031047       21.087324   0.00054508123   2.5313041e-05
    0.024634616       0.9949469    0.0014703096               0               0               0               0   0.00021739108        17.52512   0.00029268343   1.5827709e-05
    0.026258521       1.0008415    0.0015308039               0               0               0               0   0.00021430246       12.690923   0.00011664158   8.1280445e-06
     0.02793665       1.0032426    0.0015525991               0               0               0               0   0.00021128382       8.3026624   3.1262573e-05   3.1494125e-06
    0.029670814       1.0037279    0.0015543718               0               0               0               0    0.0002084686       6.2088615    5.681472e-06   8.3625447e-07
    0.031462883       1.0037624    0.0015509772               0               0               0               0   0.00020575106       5.7843817   1.2889669e-06     2.21441e-07
    0.033314791       1.0037601    0.0015471292               0               0               0               0   0.00020299019        5.742148   8.3850965e-07   1.4601663e-07
    0.035228536       1.0037585    0.0015419187               0               0               0               0   0.00020008089       5.7389589   8.0336278e-07    1.399796e-07
    0.037206184       1.0037575    0.0015390112               0               0               0               0   0.00019702909       5.7387362   8.0085216e-07   1.3954728e-07
    0.039249867       1.0037555    0.0015415754               0               0               0               0   0.00019397631       5.7387177   8.0068138e-07   1.3951794e-07
     0.04136179       1.0037526    0.0015429867               0               0               0               0   0.00019098394       5.7387119   8.0066948e-07   1.3951601e-07
    0.043544233       1.0037497    0.0015417284               0               0               0               0   0.00018799666       5.7387062   8.0066776e-07   1.3951585e-07
     0.04579955       1.0037467    0.0015399674               0               0               0               0   0.00018496145       5.7386995   8.0066654e-07    1.395158e-07
    0.048130175       1.0037446    0.0015376774               0               0               0               0   0.00018184481        5.738692   8.0066524e-07   1.3951575e-07
    0.050538621       1.0037476    0.0015368798               0               0               0               0   0.00017865357       5.7386843   8.0066404e-07   1.3951573e-07
    0.053027488       1.0037586    0.0015427479               0               0               0               0   0.00017549031       5.7386757   8.0066277e-07   1.3951572e-07
    0.055599461        1.003771    0.0015548117               0               0               0               0   0.00017254292       5.7386642   8.0066084e-07   1.3951566e-07
    0.058257315       1.0037791    0.0015649403               0               0               0               0   0.00016989427       5.7386507   8.0065849e-07   1.3951558e-07
    0.061003917       1.0037844    0.0015710778               0               0               0               0   0.00016747786       5.7386364    8.006561e-07   1.3951551e-07
    0.063842231       1.0037888    0.0015754979               0               0               0               0   0.00016524105       5.7386208   8.0065358e-07   1.3951545e-07
     0.06677532       1.0037922    0.0015778174               0               0               0               0   0.00016316188       5.7386037   8.0065084e-07   1.3951539e-07
    0.069806347       1.0037955    0.0015776536               0               0               0               0   0.00016123531       5.7385849   8.0064787e-07   1.3951533e-07
    0.072938584       1.0037983    0.0015747892               0               0               0               0   0.00015946325       5.7385641    8.006446e-07   1.3951526e-07
    0.076175409       1.0037985    0.0015697304               0               0               0               0   0.00015780202       5.7385415   8.0064106e-07    1.395152e-07
    0.079520315       1.0037955    0.0015623809               0               0               0               0    0.0001561845       5.7385168   8.0063721e-07   1.3951513e-07
    0.082976911       1.0037907     0.001554476               0               0               0               0   0.00015457927       5.7384899   8.0063301e-07   1.3951505e-07
    0.086548926       1.0037852     0.001547026               0               0               0               0   0.00015299206       5.7384607   8.0062847e-07   1.3951497e-07
    0.090240215        1.003779    0.0015399361               0               0               0               0   0.00015142608       5.7384294   8.0062357e-07   1.3951487e-07
     0.09405476       1.0037734    0.0015330251               0               0               0               0   0.00014987451       5.7384026   8.0061925e-07   1.3951477e-07
