#      distance             U_x             U_y             U_z wallShearStr... wallShearStr... wallShearStr...               p           omega               k             nut
  5.5511169e-17      0.99945365    3.510058e-22               0               0               0               0    0.0045489007       82.608604   1.4478237e-05   1.7503879e-07
   0.0021021021      0.99943751    3.510058e-22               0               0               0               0    0.0045646406       81.764424    1.431866e-05   1.7489773e-07
   0.0042042042      0.99942137    3.510058e-22               0               0               0               0    0.0045803805       80.920244   1.4159083e-05   1.7475668e-07
   0.0063063063      0.99940523    3.510058e-22               0               0               0               0    0.0045961204       80.076064   1.3999506e-05   1.7461562e-07
   0.0084084084      0.99938909    3.510058e-22               0               0               0               0    0.0046118604       79.231884   1.3839929e-05   1.7447457e-07
    0.010510511      0.99937295    3.510058e-22               0               0               0               0    0.0046276003       78.387704   1.3680352e-05   1.7433351e-07
    0.012612613      0.99935681    3.510058e-22               0               0               0               0    0.0046433402       77.543524   1.3520775e-05   1.7419246e-07
    0.014714715      0.99934066    3.510058e-22               0               0               0               0    0.0046590801       76.699344   1.3361199e-05    1.740514e-07
    0.016816817      0.99932452    3.510058e-22               0               0               0               0      0.00467482       75.855164   1.3201622e-05   1.7391035e-07
    0.018918919      0.99930838    3.510058e-22               0               0               0               0    0.0046905599       75.010984   1.3042045e-05   1.7376929e-07
    0.021021021      0.99929224    3.510058e-22               0               0               0               0    0.0047062998       74.166804   1.2882468e-05   1.7362824e-07
    0.023123123      0.99926545   5.7228087e-22               0               0               0               0    0.0047327831       73.498549   1.2757362e-05   1.7349591e-07
    0.025225225      0.99923832   5.7228087e-22               0               0               0               0    0.0047596176       72.836046   1.2633383e-05   1.7336387e-07
    0.027327327      0.99921118   5.7228087e-22               0               0               0               0    0.0047864522       72.173544   1.2509405e-05   1.7323184e-07
    0.029429429      0.99918404   5.7228087e-22               0               0               0               0    0.0048132867       71.511041   1.2385426e-05    1.730998e-07
    0.031531532      0.99915691   5.7228087e-22               0               0               0               0    0.0048401213       70.848539   1.2261447e-05   1.7296776e-07
    0.033633634      0.99912977   5.7228087e-22               0               0               0               0    0.0048669558       70.186036   1.2137469e-05   1.7283572e-07
    0.035735736      0.99910263   5.7228087e-22               0               0               0               0    0.0048937904       69.523533    1.201349e-05   1.7270368e-07
    0.037837838       0.9990755   5.7228087e-22               0               0               0               0     0.004920625       68.861031   1.1889511e-05   1.7257164e-07
     0.03993994      0.99904836   5.7228087e-22               0               0               0               0    0.0049474595       68.198528   1.1765533e-05    1.724396e-07
    0.042042042      0.99902122   5.7228087e-22               0               0               0               0    0.0049742941       67.536026   1.1641554e-05   1.7230756e-07
    0.044144144      0.99899409   5.7228087e-22               0               0               0               0    0.0050011286       66.873523   1.1517575e-05   1.7217552e-07
    0.046246246      0.99896695   5.7228087e-22               0               0               0               0    0.0050279632       66.211021   1.1393597e-05   1.7204348e-07
    0.048348348      0.99892593   1.0255185e-21               0               0               0               0    0.0050672915        65.61496   1.1282534e-05   1.7191558e-07
     0.05045045      0.99887809   1.0255185e-21               0               0               0               0     0.005112754       65.051521   1.1177813e-05    1.717897e-07
    0.052552553      0.99883025   1.0255185e-21               0               0               0               0    0.0051582164       64.488082   1.1073092e-05   1.7166383e-07
    0.054654655      0.99878241   1.0255185e-21               0               0               0               0    0.0052036789       63.924644   1.0968371e-05   1.7153795e-07
    0.056756757      0.99873457   1.0255185e-21               0               0               0               0    0.0052491414       63.361205    1.086365e-05   1.7141208e-07
    0.058858859      0.99868673   1.0255185e-21               0               0               0               0    0.0052946039       62.797766   1.0758929e-05    1.712862e-07
    0.060960961      0.99863889   1.0255185e-21               0               0               0               0    0.0053400663       62.234327   1.0654208e-05   1.7116033e-07
    0.063063063      0.99859105   1.0255185e-21               0               0               0               0    0.0053855288       61.670888   1.0549487e-05   1.7103445e-07
    0.065165165      0.99854321   1.0255185e-21               0               0               0               0    0.0054309913       61.107449   1.0444766e-05   1.7090858e-07
    0.067267267      0.99846971   1.5312374e-21               0               0               0               0    0.0055056855       60.594419   1.0349793e-05   1.7078635e-07
    0.069369369      0.99839185   1.5312374e-21               0               0               0               0    0.0055853419       60.089946   1.0256475e-05   1.7066474e-07
    0.071471471      0.99831399   1.5312374e-21               0               0               0               0    0.0056649983       59.585473   1.0163157e-05   1.7054312e-07
    0.073573574      0.99823613   1.5312374e-21               0               0               0               0    0.0057446547       59.080999   1.0069839e-05   1.7042151e-07
    0.075675676      0.99815827   1.5312374e-21               0               0               0               0    0.0058243111       58.576526   9.9765212e-06    1.702999e-07
    0.077777778       0.9980804   1.5312374e-21               0               0               0               0    0.0059039675       58.072053   9.8832032e-06   1.7017829e-07
     0.07987988      0.99794737   3.7878015e-21               0               0               0               0    0.0060203237       57.587439   9.7937132e-06   1.7005828e-07
    0.081981982      0.99776641   3.7878015e-21               0               0               0               0    0.0061685685       57.120082   9.7075496e-06   1.6993965e-07
    0.084084084      0.99758544   3.7878015e-21               0               0               0               0    0.0063168133       56.652725   9.6213859e-06   1.6982103e-07
    0.086186186      0.99740448   3.7878015e-21               0               0               0               0    0.0064650581       56.185368   9.5352223e-06    1.697024e-07
    0.088288288       0.9972231   7.7181485e-21               0               0               0               0    0.0066141317       55.718126   9.4490806e-06   1.6958379e-07
     0.09039039      0.99695362   7.7181485e-21               0               0               0               0    0.0069431446       55.275867   9.3676954e-06   1.6946671e-07
    0.092492492      0.99668413   7.7181485e-21               0               0               0               0    0.0072721576       54.833608   9.2863103e-06   1.6934964e-07
    0.094594595      0.99641464   7.7181485e-21               0               0               0               0    0.0076011705       54.391349   9.2049252e-06   1.6923257e-07
    0.096696697      0.83436397   8.9453165e-20               0     -0.00054357  -5.7596071e-07               0    0.0079678608       61.565308   9.1590941e-06   3.3089917e-07
    0.098798799      0.62032682   8.9453165e-20               0   -0.0012618098  -1.3369996e-06               0    0.0083466582       71.186649   9.1246878e-06   5.4455305e-07
      0.1009009      0.35479629   8.4340432e-20               0   -0.0021425958  -2.7098933e-06               0    0.0084705009         83.2944   9.1683395e-06   8.0791152e-07
       0.103003     0.020607901   8.4340432e-20               0   -0.0032401099  -4.8985933e-06               0    0.0082544039       98.717363   9.3160685e-06   1.1375428e-06
     0.10510511   1.0765699e-16   1.5608944e-19               0   -0.0032618991  -6.4460402e-06               0    0.0075779439       99.668428   9.6931589e-06   1.1498625e-06
     0.10720721   1.0618787e-16   1.9595132e-19               0   -0.0032126035   -7.735666e-06               0    0.0069462133       99.668428   1.0333806e-05   1.1412164e-06
     0.10930931   1.0618787e-16   1.9595132e-19               0   -0.0031627282  -8.7048743e-06               0    0.0064258796       99.668428   1.1343606e-05   1.1324026e-06
     0.11141141   1.0462187e-16   2.3134175e-19               0   -0.0031134508  -9.6722382e-06               0    0.0061159804       191.92493   0.00045254337   1.1235939e-06
     0.11351351   1.0307074e-16   2.7616871e-19               0   -0.0030648722  -1.0610634e-05               0    0.0058687061       314.57606    0.0010848754   1.1148666e-06
     0.11561562   1.0307074e-16   2.7616871e-19               0   -0.0030187531  -1.1425064e-05               0    0.0056915333       480.71787    0.0021248455    1.106488e-06
     0.11771772   1.0157464e-16   3.0390491e-19               0   -0.0029744027  -1.1979216e-05               0    0.0055357214       608.83157    0.0031038845   1.0983755e-06
     0.11981982   1.0157464e-16   3.0390491e-19               0   -0.0029317842  -1.2278515e-05               0     0.005400825       699.70995    0.0040232627   1.0905236e-06
     0.12192192   1.0013617e-16   3.0710602e-19               0   -0.0028917281  -1.2271663e-05               0    0.0052841101       764.59533    0.0047768161   1.0830637e-06
     0.12402402   1.0013617e-16   3.0710602e-19               0   -0.0028524303  -1.2174191e-05               0     0.005172777       821.78687    0.0054812858   1.0757199e-06
     0.12612613   9.8753932e-17   2.9984896e-19               0   -0.0028160322  -1.1922311e-05               0    0.0050769848       857.84013    0.0059751627   1.0688263e-06
     0.12822823   9.7417631e-17   2.8772631e-19               0    -0.002780035  -1.1656184e-05               0    0.0049839039       891.53313    0.0064406326    1.061995e-06
     0.13033033   9.7417631e-17   2.8772631e-19               0   -0.0027461725  -1.1318981e-05               0    0.0049056394       913.03792    0.0067553219   1.0554954e-06
     0.13243243   9.6116717e-17   2.7093955e-19               0   -0.0027127843  -1.0968787e-05               0    0.0048308322         932.258    0.0070382129   1.0490673e-06
     0.13453453   9.6116717e-17   2.7093955e-19               0   -0.0026808621  -1.0578438e-05               0    0.0047667103       944.41677    0.0072228257   1.0428601e-06
     0.13663664   9.4828883e-17   2.5144601e-19               0   -0.0026493599  -1.0189586e-05               0    0.0047043044       954.82853    0.0073814551   1.0367123e-06
     0.13873874   9.4828883e-17   2.5144601e-19               0   -0.0026188971  -9.8044411e-06               0    0.0046461461       960.91555    0.0074757629   1.0307115e-06
     0.14084084   9.3544318e-17   2.3315914e-19               0   -0.0025887715  -9.4298957e-06               0     0.004587968       965.93097     0.007553553   1.0247567e-06
     0.14294294   9.3544318e-17   2.3315914e-19               0   -0.0025595532  -9.0838796e-06               0     0.004529737       968.06204    0.0075868839   1.0189252e-06
     0.14504505   9.2259425e-17   2.1612325e-19               0   -0.0025305583  -8.7444571e-06               0    0.0044715168       969.70067    0.0076125098    1.013124e-06
     0.14714715   9.2259425e-17   2.1612325e-19               0   -0.0025025035  -8.4327685e-06               0    0.0044133422       969.26802    0.0076057271   1.0074501e-06
     0.14924925   9.0974728e-17   2.0012216e-19               0   -0.0024745057  -8.1224925e-06               0    0.0043552402       968.75462    0.0075976823   1.0017841e-06
     0.15135135   9.0974728e-17   2.0012216e-19               0   -0.0024476043  -7.8393965e-06               0    0.0042985328       966.68739    0.0075653543      9.9627e-07
     0.15345345   9.0974728e-17   2.0012216e-19               0    -0.002420703  -7.5563005e-06               0    0.0042418254       964.62016    0.0075330263   9.9075587e-07
     0.15555556   8.9692833e-17   1.8500452e-19               0   -0.0023947957  -7.2926575e-06               0    0.0041869455         961.705      0.00748767     9.85385e-07
     0.15765766   8.9692833e-17   1.8500452e-19               0   -0.0023690765   -7.032695e-06               0    0.0041324114       958.62941    0.0074398486   9.8004124e-07
     0.15975976   8.8418424e-17   1.7051778e-19               0   -0.0023440661  -6.7801786e-06               0    0.0040794482       955.22422     0.007387157   9.7480535e-07
     0.16186186   8.8418424e-17   1.7051778e-19               0   -0.0023196025  -6.5334056e-06               0    0.0040276966       951.56478    0.0073307088   9.6965267e-07
     0.16396396    8.715961e-17   1.5589109e-19               0   -0.0022954503  -6.2886687e-06               0    0.0039769816       947.84378    0.0072734352   9.6455101e-07
     0.16606607    8.715961e-17   1.5589109e-19               0   -0.0022724135  -6.0512246e-06               0    0.0039299791       943.90228     0.007213205   9.5963209e-07
     0.16816817    8.715961e-17   1.5589109e-19               0   -0.0022493767  -5.8137805e-06               0    0.0038829767       939.96077    0.0071529748   9.5471318e-07
     0.17027027   8.5933083e-17   1.4138236e-19               0   -0.0022274456  -5.5935403e-06               0    0.0038402815       936.00228     0.007092975   9.4997946e-07
     0.17237237   8.5933083e-17   1.4138236e-19               0   -0.0022057911   -5.377604e-06               0    0.0037986639       932.03954    0.0070330327   9.4529207e-07
     0.17447447   8.4725589e-17   1.2840896e-19               0   -0.0021845532  -5.1686927e-06               0       0.0037576       928.11336    0.0069738321   9.4067664e-07
     0.17657658   8.4725589e-17   1.2840896e-19               0   -0.0021642548  -4.9756226e-06               0    0.0037177847       924.26963    0.0069163038    9.362235e-07
     0.17867868   8.4725589e-17   1.2840896e-19               0   -0.0021439563  -4.7825524e-06               0    0.0036779693       920.42589    0.0068587754   9.3177036e-07
     0.18078078   8.3556495e-17    1.161242e-19               0   -0.0021247628  -4.6000851e-06               0    0.0036380416       916.69463    0.0068033624   9.2751915e-07
     0.18288288   8.3556495e-17    1.161242e-19               0   -0.0021059615  -4.4213823e-06               0    0.0035980741        913.0033    0.0067487004   9.2333964e-07
     0.18498498    8.243301e-17   1.0433331e-19               0   -0.0020872959  -4.2438667e-06               0    0.0035583284       909.32796    0.0066943244    9.191858e-07
     0.18708709    8.243301e-17   1.0433331e-19               0   -0.0020700053  -4.0783852e-06               0    0.0035208314       905.81459     0.006642848   9.1529228e-07
     0.18918919    8.243301e-17   1.0433331e-19               0   -0.0020527147  -3.9129037e-06               0    0.0034833345       902.30123    0.0065913717   9.1139875e-07
     0.19129129   8.1361248e-17   9.3057697e-20               0   -0.0020359675  -3.7521257e-06               0    0.0034475506       898.86169    0.0065411586   9.0761156e-07
     0.19339339   8.1361248e-17   9.3057697e-20               0   -0.0020201853  -3.5997004e-06               0    0.0034148088       895.55326     0.006493189   9.0401321e-07
      0.1954955   8.1361248e-17   9.3057697e-20               0   -0.0020044031  -3.4472752e-06               0     0.003382067       892.24483    0.0064452194   9.0041485e-07
      0.1975976   8.0347434e-17   8.2358388e-20               0   -0.0019894384  -3.3021193e-06               0    0.0033519894       889.07172    0.0063994573   8.9698153e-07
      0.1996997   8.0347434e-17   8.2358388e-20               0   -0.0019751512  -3.1629872e-06               0    0.0033241194       886.01074    0.0063555244   8.9368497e-07
      0.2018018   8.0347434e-17   8.2358388e-20               0   -0.0019608639  -3.0238552e-06               0    0.0032962494       882.94977    0.0063115916   8.9038841e-07
      0.2039039   7.9396921e-17   7.2332675e-20               0   -0.0019475259  -2.8929379e-06               0    0.0032715234       880.06848    0.0062704878    8.872891e-07
     0.20600601   7.9396921e-17   7.2332675e-20               0   -0.0019347058  -2.7665023e-06               0    0.0032485127       877.28524    0.0062309274    8.842974e-07
     0.20810811   7.9396921e-17   7.2332675e-20               0   -0.0019218856  -2.6400667e-06               0     0.003225502       874.50199     0.006191367    8.813057e-07
     0.21021021   7.8514457e-17   6.2901137e-20               0   -0.0019100072  -2.5213686e-06               0    0.0032052369       871.91144    0.0061547573   8.7851508e-07
     0.21231231   7.8514457e-17   6.2901137e-20               0    -0.001898618  -2.4066905e-06               0    0.0031863984       869.42102    0.0061196807   8.7582895e-07
     0.21441441   7.8514457e-17   6.2901137e-20               0   -0.0018872288  -2.2920124e-06               0    0.0031675599       866.93059     0.006084604   8.7314281e-07
     0.21651652   7.7704465e-17    5.408095e-20               0   -0.0018766319  -2.1844712e-06               0    0.0031498612       864.61058    0.0060520777      8.7063e-07
     0.21861862   7.7704465e-17    5.408095e-20               0    -0.001866615  -2.0821546e-06               0    0.0031329971       862.41532    0.0060214184   8.6824408e-07
     0.22072072   7.7704465e-17    5.408095e-20               0    -0.001856598  -1.9798381e-06               0    0.0031161329       860.22007    0.0059907592   8.6585816e-07
     0.22282282   7.6968257e-17   4.6056221e-20               0    -0.001847095  -1.8826179e-06               0    0.0030998243       858.13971    0.0059617865   8.6358703e-07
     0.22492492   7.6968257e-17   4.6056221e-20               0   -0.0018383566  -1.7929806e-06               0    0.0030843424       856.23028    0.0059353234   8.6148668e-07
     0.22702703   7.6968257e-17   4.6056221e-20               0   -0.0018296182  -1.7033433e-06               0    0.0030688605       854.32085    0.0059088604   8.5938633e-07
     0.22912913   7.6304245e-17   3.8807301e-20               0   -0.0018210303  -1.6152375e-06               0     0.003053701       852.44587    0.0058828949   8.5732018e-07
     0.23123123   7.6304245e-17   3.8807301e-20               0    -0.001813458   -1.537473e-06               0    0.0030407186       850.80347    0.0058602895   8.5548499e-07
     0.23333333   7.6304245e-17   3.8807301e-20               0   -0.0018058857  -1.4597085e-06               0    0.0030277362       849.16107    0.0058376841   8.5364981e-07
     0.23543544   7.6304245e-17   3.8807301e-20               0   -0.0017983134  -1.3819439e-06               0    0.0030147537       847.51867    0.0058150788   8.5181463e-07
     0.23753754   7.5709466e-17   3.2326002e-20               0   -0.0017915334  -1.3129384e-06               0     0.003003748       846.05919    0.0057950805    8.501625e-07
     0.23963964   7.5709466e-17   3.2326002e-20               0   -0.0017850099  -1.2467677e-06               0     0.002993382       844.65893     0.005775926   8.4856963e-07
     0.24174174   7.5709466e-17   3.2326002e-20               0   -0.0017784863   -1.180597e-06               0     0.002983016       843.25866    0.0057567715   8.4697676e-07
     0.24384384   7.5179902e-17   2.6717443e-20               0   -0.0017722213  -1.1175552e-06               0    0.0029732126       841.91793    0.0057384558   8.4544446e-07
     0.24594595   7.5179902e-17   2.6717443e-20               0   -0.0017666267  -1.0626264e-06               0    0.0029648679       840.73154    0.0057223148   8.4406921e-07
     0.24804805   7.5179902e-17   2.6717443e-20               0   -0.0017610321  -1.0076975e-06               0    0.0029565233       839.54515    0.0057061739   8.4269397e-07
     0.25015015   7.5179902e-17   2.6717443e-20               0   -0.0017554374  -9.5276868e-07               0    0.0029481786       838.35876    0.0056900329   8.4131872e-07
     0.25225225   7.4710357e-17   2.1966323e-20               0    -0.001750406  -9.0465738e-07               0    0.0029410999       837.30071    0.0056756829   8.4007703e-07
     0.25435435   7.4710357e-17   2.1966323e-20               0   -0.0017456225  -8.5954704e-07               0    0.0029345786       836.29915    0.0056621212   8.3889412e-07
     0.25645646   7.4710357e-17   2.1966323e-20               0    -0.001740839   -8.144367e-07               0    0.0029280572       835.29759    0.0056485595   8.3771121e-07
     0.25855856   7.4295265e-17   1.7942053e-20               0   -0.0017360557  -7.6932855e-07               0    0.0029215362       834.29607    0.0056349984   8.3652835e-07
     0.26066066   7.4295265e-17   1.7942053e-20               0   -0.0017319803  -7.3224619e-07               0    0.0029166804       833.45272    0.0056236264   8.3551515e-07
     0.26276276   7.4295265e-17   1.7942053e-20               0   -0.0017279049  -6.9516383e-07               0    0.0029118246       832.60938    0.0056122544   8.3450196e-07
     0.26486486   7.4295265e-17   1.7942053e-20               0   -0.0017238294  -6.5808147e-07               0    0.0029069688       831.76604    0.0056008824   8.3348877e-07
     0.26696697    7.393026e-17   1.4522892e-20               0    -0.001719873  -6.2233523e-07               0    0.0029021912       830.94886    0.0055898699   8.3250439e-07
     0.26906907    7.393026e-17   1.4522892e-20               0   -0.0017164153  -5.9218666e-07               0     0.002897741       830.24133    0.0055803635   8.3164071e-07
     0.27117117    7.393026e-17   1.4522892e-20               0   -0.0017129576  -5.6203808e-07               0    0.0028932907       829.53379    0.0055708572   8.3077703e-07
     0.27327327    7.393026e-17   1.4522892e-20               0   -0.0017094998  -5.3188951e-07               0    0.0028888405       828.82626    0.0055613508   8.2991335e-07
     0.27537538    7.361055e-17   1.1699978e-20               0    -0.001706183  -5.0337619e-07               0    0.0028842001       828.14948    0.0055522644   8.2908406e-07
     0.27747748    7.361055e-17   1.1699978e-20               0   -0.0017032509  -4.7932602e-07               0    0.0028790403       827.55665    0.0055443242   8.2834863e-07
     0.27957958    7.361055e-17   1.1699978e-20               0   -0.0017003188  -4.5527586e-07               0    0.0028738805       826.96382    0.0055363839   8.2761319e-07
     0.28168168    7.361055e-17   1.1699978e-20               0   -0.0016973867   -4.312257e-07               0    0.0028687208       826.37099    0.0055284437   8.2687776e-07
     0.28378378    7.332984e-17   9.3800955e-21               0   -0.0016945507  -4.0836718e-07               0    0.0028635052       825.79874    0.0055207832   8.2616594e-07
     0.28588589    7.332984e-17   9.3800955e-21               0     -0.00169205  -3.8966029e-07               0    0.0028580954       825.29819    0.0055140973   8.2553639e-07
     0.28798799    7.332984e-17   9.3800955e-21               0   -0.0016895492   -3.709534e-07               0    0.0028526856       824.79765    0.0055074113   8.2490684e-07
     0.29009009    7.332984e-17   9.3800955e-21               0   -0.0016870484   -3.522465e-07               0    0.0028472758        824.2971    0.0055007254   8.2427729e-07
     0.29219219   7.3081207e-17   7.5648402e-21               0    -0.001684566  -3.3381066e-07               0    0.0028418884       823.80029    0.0054940901   8.2365227e-07
     0.29429429   7.3081207e-17   7.5648402e-21               0   -0.0016824078  -3.2015924e-07               0    0.0028368963       823.36939    0.0054883482   8.2310716e-07
      0.2963964   7.3081207e-17   7.5648402e-21               0   -0.0016802495  -3.0650782e-07               0    0.0028319043       822.93848    0.0054826063   8.2256205e-07
      0.2984985   7.3081207e-17   7.5648402e-21               0   -0.0016780912  -2.9285639e-07               0    0.0028269123       822.50758    0.0054768643   8.2201694e-07
      0.3006006   7.3081207e-17   7.5648402e-21               0   -0.0016759329  -2.7920497e-07               0    0.0028219203       822.07667    0.0054711224   8.2147183e-07
      0.3027027   7.2857747e-17   6.2883737e-21               0   -0.0016739741  -2.6888128e-07               0    0.0028173328        821.6833     0.005465889   8.2097604e-07
      0.3048048   7.2857747e-17   6.2883737e-21               0   -0.0016720797  -2.5963091e-07               0    0.0028128758       821.30204    0.0054608197   8.2049617e-07
     0.30690691   7.2857747e-17   6.2883737e-21               0   -0.0016701853  -2.5038055e-07               0    0.0028084188       820.92078    0.0054557503   8.2001629e-07
     0.30900901   7.2857747e-17   6.2883737e-21               0   -0.0016682909  -2.4113019e-07               0    0.0028039619       820.53952    0.0054506809   8.1953642e-07
     0.31111111   7.2653116e-17   5.4548306e-21               0   -0.0016664633   -2.328355e-07               0    0.0027997316       820.16956    0.0054457648   8.1907309e-07
     0.31321321   7.2653116e-17   5.4548306e-21               0   -0.0016647733  -2.2651131e-07               0    0.0027959686       819.82289    0.0054411646   8.1864385e-07
     0.31531532   7.2653116e-17   5.4548306e-21               0   -0.0016630834  -2.2018712e-07               0    0.0027922057       819.47622    0.0054365643   8.1821462e-07
     0.31741742   7.2653116e-17   5.4548306e-21               0   -0.0016613934  -2.1386293e-07               0    0.0027884427       819.12955    0.0054319641   8.1778538e-07
     0.31951952   7.2653116e-17   5.4548306e-21               0   -0.0016597034  -2.0753874e-07               0    0.0027846798       818.78288    0.0054273639   8.1735615e-07
     0.32162162   7.2463295e-17   4.8450524e-21               0   -0.0016581384  -2.0270665e-07               0    0.0027809331       818.45456    0.0054230135    8.169579e-07
     0.32372372   7.2463295e-17   4.8450524e-21               0   -0.0016566125  -1.9834321e-07               0    0.0027771914       818.13202    0.0054187415   8.1656937e-07
     0.32582583   7.2463295e-17   4.8450524e-21               0   -0.0016550867  -1.9397976e-07               0    0.0027734497       817.80947    0.0054144695   8.1618085e-07
     0.32792793   7.2463295e-17   4.8450524e-21               0   -0.0016535608  -1.8961632e-07               0     0.002769708       817.48693    0.0054101976   8.1579233e-07
     0.33003003   7.2285308e-17   4.4636163e-21               0    -0.001652042  -1.8536238e-07               0    0.0027658976       817.16528    0.0054059379   8.1540555e-07
     0.33213213   7.2285308e-17   4.4636163e-21               0   -0.0016506437  -1.8298609e-07               0    0.0027609083       816.85904    0.0054018894   8.1504865e-07
     0.33423423   7.2285308e-17   4.4636163e-21               0   -0.0016492453   -1.806098e-07               0     0.002755919        816.5528    0.0053978408   8.1469176e-07
     0.33633634   7.2285308e-17   4.4636163e-21               0    -0.001647847   -1.782335e-07               0    0.0027509296       816.24656    0.0053937923   8.1433486e-07
     0.33843844   7.2285308e-17   4.4636163e-21               0   -0.0016464487  -1.7585721e-07               0    0.0027459403       815.94031    0.0053897438   8.1397797e-07
     0.34054054   7.2115227e-17   4.3594491e-21               0   -0.0016450687  -1.7383199e-07               0    0.0027407528       815.63607    0.0053857231   8.1362561e-07
     0.34264264   7.2115227e-17   4.3594491e-21               0   -0.0016437602  -1.7317114e-07               0    0.0027347952       815.33956    0.0053818105    8.132909e-07
     0.34474474   7.2115227e-17   4.3594491e-21               0   -0.0016424518  -1.7251028e-07               0    0.0027288376       815.04306    0.0053778978   8.1295618e-07
     0.34684685   7.2115227e-17   4.3594491e-21               0   -0.0016411433  -1.7184942e-07               0      0.00272288       814.74656    0.0053739852   8.1262147e-07
     0.34894895   7.2115227e-17   4.3594491e-21               0   -0.0016398348  -1.7118856e-07               0    0.0027169225       814.45006    0.0053700726   8.1228675e-07
     0.35105105   7.1949005e-17   4.4432981e-21               0   -0.0016385384  -1.7075999e-07               0    0.0027109996        814.1545    0.0053661739   8.1195497e-07
     0.35315315   7.1949005e-17   4.4432981e-21               0   -0.0016372886  -1.7123117e-07               0    0.0027052115       813.86259    0.0053623291   8.1163457e-07