# y+          
# Time          	patch           	min             	max             	average         
0               	bottom	2.24049705e+00	2.24049705e+00	2.24049705e+00
0.00011999      	bottom	1.28307006e+00	1.28468081e+00	1.28308869e+00
0.000263962     	bottom	8.75114395e-01	8.77800342e-01	8.75143310e-01
0.000436717     	bottom	7.37092827e-01	7.40336831e-01	7.37127156e-01
0.000644009     	bottom	6.66837720e-01	6.70633219e-01	6.66877406e-01
0.000892729     	bottom	6.17031387e-01	6.21467770e-01	6.17077187e-01
0.00119115      	bottom	5.78087937e-01	5.83240167e-01	5.78140489e-01
0.00154914      	bottom	5.46238481e-01	5.52173939e-01	5.46298356e-01
0.00197859      	bottom	5.19342118e-01	5.26128476e-01	5.19409896e-01
0.00249383      	bottom	4.96077766e-01	5.03786246e-01	4.96154061e-01
0.00311186      	bottom	4.75587935e-01	4.84294725e-01	4.75673411e-01
0.00385304      	bottom	4.57285365e-01	4.67072628e-01	4.57380745e-01
0.00474246      	bottom	4.40749340e-01	4.51706180e-01	4.40855414e-01
0.00580919      	bottom	4.25673356e-01	4.37896223e-01	4.25790988e-01
0.00708871      	bottom	4.11822960e-01	4.25416457e-01	4.11953097e-01
0.00838833      	bottom	3.99251149e-01	4.14296463e-01	3.99394645e-01
0.00966783      	bottom	3.87758482e-01	4.04335546e-01	3.87916095e-01
0.0109294       	bottom	3.77193377e-01	3.95380795e-01	3.77365868e-01
0.012172        	bottom	3.67444444e-01	3.87317544e-01	3.67632563e-01
0.013393        	bottom	3.58412783e-01	3.80049970e-01	3.58624307e-01
0.0145933       	bottom	3.50023680e-01	3.73493863e-01	3.50260700e-01
0.0157748       	bottom	3.42209777e-01	3.67576149e-01	3.42472429e-01
0.0169382       	bottom	3.34913181e-01	3.62234295e-01	3.35201206e-01
0.0180853       	bottom	3.28082618e-01	3.57412645e-01	3.28395362e-01
0.0192165       	bottom	3.21674701e-01	3.53062962e-01	3.22011068e-01
0.0203323       	bottom	3.15651403e-01	3.49142302e-01	3.16009841e-01
0.0214331       	bottom	3.09979399e-01	3.45612311e-01	3.10357883e-01
0.0225204       	bottom	3.04629564e-01	3.42421179e-01	3.05025812e-01
0.0235957       	bottom	2.99560728e-01	3.39552342e-01	2.99985506e-01
0.0246593       	bottom	2.94759828e-01	3.36979215e-01	2.95213438e-01
0.0257115       	bottom	2.90205875e-01	3.34676982e-01	2.90688532e-01
0.0267524       	bottom	2.85880154e-01	3.32623098e-01	2.86391940e-01
0.0277834       	bottom	2.81765280e-01	3.30796644e-01	2.82306114e-01
0.0288035       	bottom	2.77846942e-01	3.29179011e-01	2.78416526e-01
0.0298141       	bottom	2.74110923e-01	3.27752419e-01	2.74708743e-01
0.0308164       	bottom	2.70544534e-01	3.26500580e-01	2.71169831e-01
0.0318104       	bottom	2.67136775e-01	3.25408682e-01	2.67788530e-01
0.0327964       	bottom	2.63877563e-01	3.24462937e-01	2.64554497e-01
0.0337743       	bottom	2.60757736e-01	3.23650653e-01	2.61458294e-01
0.0347454       	bottom	2.57768468e-01	3.22959920e-01	2.58490826e-01
0.0357097       	bottom	2.54902182e-01	3.22379928e-01	2.55644240e-01
0.0366682       	bottom	2.52151431e-01	3.21900580e-01	2.52910825e-01
0.0376201       	bottom	2.49510251e-01	3.21512759e-01	2.50284343e-01
0.0385664       	bottom	2.46972266e-01	3.21207843e-01	2.47758160e-01
0.0395072       	bottom	2.44532085e-01	3.20978009e-01	2.45326628e-01
0.0404424       	bottom	2.42177972e-01	3.20816041e-01	2.42984468e-01
0.0413731       	bottom	2.39894075e-01	3.20715268e-01	2.40726438e-01
0.0422984       	bottom	2.37690141e-01	3.20669629e-01	2.38548387e-01
0.0432193       	bottom	2.35561589e-01	3.20673509e-01	2.36445725e-01
0.0441358       	bottom	2.33504553e-01	3.20721796e-01	2.34414579e-01
0.0450478       	bottom	2.31515391e-01	3.20809818e-01	2.32451296e-01
0.0459564       	bottom	2.29590400e-01	3.20933290e-01	2.30552169e-01
0.0468608       	bottom	2.27726736e-01	3.21088334e-01	2.28714341e-01
0.0477616       	bottom	2.25921108e-01	3.21271396e-01	2.26934518e-01
0.0486591       	bottom	2.24170777e-01	3.21479255e-01	2.25209956e-01
0.0495533       	bottom	2.22473139e-01	3.21708992e-01	2.23538043e-01
0.050444        	bottom	2.20825754e-01	3.21957955e-01	2.21916335e-01
0.0513315       	bottom	2.19226337e-01	3.22223750e-01	2.20342540e-01
0.0522164       	bottom	2.17672494e-01	3.22504229e-01	2.18814265e-01
0.0530981       	bottom	2.16162469e-01	3.22797429e-01	2.17329746e-01
0.0539773       	bottom	2.14694098e-01	3.23101610e-01	2.15886818e-01
0.054854        	bottom	2.13265612e-01	3.23415187e-01	2.14483712e-01
0.0557275       	bottom	2.11875541e-01	3.23736719e-01	2.13118949e-01
0.0565986       	bottom	2.10522054e-01	3.24064942e-01	2.11790700e-01
0.0574673       	bottom	2.09203676e-01	3.24398700e-01	2.10497488e-01
0.0583336       	bottom	2.07918983e-01	3.24736965e-01	2.09237888e-01
0.0591983       	bottom	2.06666428e-01	3.25078838e-01	2.08010354e-01
0.0600607       	bottom	2.05444945e-01	3.25423474e-01	2.06813815e-01
0.0609206       	bottom	2.04253302e-01	3.25770141e-01	2.05647039e-01
0.061779        	bottom	2.03090171e-01	3.26118200e-01	2.04508701e-01
0.0626351       	bottom	2.01954668e-01	3.26467024e-01	2.03397913e-01
0.0634895       	bottom	2.00845565e-01	3.26816110e-01	2.02313450e-01
0.0643417       	bottom	1.99762077e-01	3.27164965e-01	2.01254522e-01
0.0651923       	bottom	1.98703088e-01	3.27513177e-01	2.00220017e-01
0.0660413       	bottom	1.97667732e-01	3.27860350e-01	1.99209069e-01
0.0668889       	bottom	1.96655163e-01	3.28206134e-01	1.98220831e-01
0.0677348       	bottom	1.95664575e-01	3.28550216e-01	1.97254499e-01
0.0685785       	bottom	1.94695361e-01	3.28892288e-01	1.96309459e-01
0.0694207       	bottom	1.93746629e-01	3.29232123e-01	1.95384826e-01
0.0702613       	bottom	1.92817710e-01	3.29569491e-01	1.94479928e-01
0.0711012       	bottom	1.91907791e-01	3.29904212e-01	1.93593957e-01
0.0719395       	bottom	1.91016392e-01	3.30236075e-01	1.92726429e-01
0.0727764       	bottom	1.90142886e-01	3.30564907e-01	1.91876719e-01
0.0736117       	bottom	1.89286699e-01	3.30890546e-01	1.91044250e-01
0.0744455       	bottom	1.88447281e-01	3.31212843e-01	1.90228475e-01
0.0752779       	bottom	1.87624109e-01	3.31531663e-01	1.89428868e-01
0.0761095       	bottom	1.86816548e-01	3.31846921e-01	1.88644799e-01
0.0769396       	bottom	1.86024252e-01	3.32158499e-01	1.87875918e-01
0.0777682       	bottom	1.85246743e-01	3.32466318e-01	1.87121748e-01
0.078596        	bottom	1.84483454e-01	3.32770325e-01	1.86381724e-01
0.0794224       	bottom	1.83734091e-01	3.33070433e-01	1.85655551e-01
0.080248        	bottom	1.82998113e-01	3.33366608e-01	1.84942689e-01
0.0810722       	bottom	1.82275254e-01	3.33658776e-01	1.84242870e-01
0.0818956       	bottom	1.81565009e-01	3.33946914e-01	1.83555592e-01
0.0827175       	bottom	1.80867140e-01	3.34230962e-01	1.82880614e-01
0.0835387       	bottom	1.80181178e-01	3.34510916e-01	1.82217470e-01
0.0843592       	bottom	1.79506797e-01	3.34786765e-01	1.81565834e-01
0.0851782       	bottom	1.78843780e-01	3.35058498e-01	1.80925487e-01
0.0859964       	bottom	1.78191700e-01	3.35326141e-01	1.80296004e-01
0.086814        	bottom	1.77550271e-01	3.35589700e-01	1.79677101e-01
0.08763         	bottom	1.76919306e-01	3.35849176e-01	1.79068586e-01
0.0884454       	bottom	1.76298419e-01	3.36104601e-01	1.78470079e-01
0.08926         	bottom	1.75687355e-01	3.36355995e-01	1.77881323e-01
0.0900739       	bottom	1.75085853e-01	3.36603371e-01	1.77302059e-01
0.0908871       	bottom	1.74493664e-01	3.36846752e-01	1.76732036e-01
0.0916995       	bottom	1.73910545e-01	3.37086173e-01	1.76171013e-01
0.0925105       	bottom	1.73336360e-01	3.37321664e-01	1.75618850e-01
0.0933207       	bottom	1.72770788e-01	3.37553289e-01	1.75075231e-01
0.0941303       	bottom	1.72213626e-01	3.37781092e-01	1.74539954e-01
0.0949391       	bottom	1.71664668e-01	3.38005119e-01	1.74012810e-01
0.0957472       	bottom	1.71123709e-01	3.38225411e-01	1.73493597e-01
0.0965545       	bottom	1.70590556e-01	3.38442007e-01	1.72982122e-01
0.0973612       	bottom	1.70065021e-01	3.38654943e-01	1.72478196e-01
0.0981671       	bottom	1.69546920e-01	3.38864255e-01	1.71981638e-01
0.0989723       	bottom	1.69036080e-01	3.39069979e-01	1.71492272e-01
0.0997775       	bottom	1.68532245e-01	3.39272171e-01	1.71009848e-01
0.100582        	bottom	1.68035336e-01	3.39470878e-01	1.70534284e-01
0.101386        	bottom	1.67545184e-01	3.39666152e-01	1.70065410e-01
0.102189        	bottom	1.67061634e-01	3.39858038e-01	1.69603073e-01
0.102991        	bottom	1.66584540e-01	3.40046576e-01	1.69147128e-01
0.103793        	bottom	1.66113759e-01	3.40231798e-01	1.68697430e-01
0.104594        	bottom	1.65649153e-01	3.40413736e-01	1.68253843e-01
0.105395        	bottom	1.65190512e-01	3.40592424e-01	1.67816159e-01
0.106195        	bottom	1.64737782e-01	3.40767891e-01	1.67384322e-01
0.106994        	bottom	1.64290827e-01	3.40940167e-01	1.66958196e-01
0.107793        	bottom	1.63849525e-01	3.41109289e-01	1.66537659e-01
0.108592        	bottom	1.63413686e-01	3.41275306e-01	1.66122524e-01
0.10939         	bottom	1.62983267e-01	3.41438262e-01	1.65712747e-01
0.110187        	bottom	1.62558150e-01	3.41598196e-01	1.65308208e-01
0.110984        	bottom	1.62138154e-01	3.41755146e-01	1.64908732e-01
0.111781        	bottom	1.61723247e-01	3.41909143e-01	1.64514283e-01
0.112577        	bottom	1.61313319e-01	3.42060216e-01	1.64124750e-01
0.113373        	bottom	1.60908203e-01	3.42208394e-01	1.63739971e-01
0.114168        	bottom	1.60507874e-01	3.42353708e-01	1.63359916e-01
0.114963        	bottom	1.60112161e-01	3.42496192e-01	1.62984420e-01
0.115758        	bottom	1.59721044e-01	3.42635886e-01	1.62613458e-01
0.116551        	bottom	1.59334426e-01	3.42772835e-01	1.62246936e-01
0.117345        	bottom	1.58952159e-01	3.42907090e-01	1.61884707e-01
0.118138        	bottom	1.58574227e-01	3.43038696e-01	1.61526752e-01
0.118931        	bottom	1.58200476e-01	3.43167695e-01	1.61172922e-01
0.119724        	bottom	1.57830895e-01	3.43294129e-01	1.60823203e-01
0.120516        	bottom	1.57465336e-01	3.43418035e-01	1.60477450e-01
0.121308        	bottom	1.57103791e-01	3.43539452e-01	1.60135651e-01
0.122099        	bottom	1.56746117e-01	3.43658415e-01	1.59797670e-01
0.12289         	bottom	1.56392309e-01	3.43774967e-01	1.59463495e-01
0.123681        	bottom	1.56042231e-01	3.43889144e-01	1.59132996e-01
0.124471        	bottom	1.55695878e-01	3.44000994e-01	1.58806165e-01
0.125261        	bottom	1.55353121e-01	3.44110556e-01	1.58482876e-01
0.126051        	bottom	1.55013957e-01	3.44217885e-01	1.58163123e-01
0.12684         	bottom	1.54678260e-01	3.44323022e-01	1.57846785e-01
0.12763         	bottom	1.54345974e-01	3.44426012e-01	1.57533804e-01
0.128419        	bottom	1.54017090e-01	3.44526903e-01	1.57224171e-01
0.129207        	bottom	1.53691491e-01	3.44625724e-01	1.56917770e-01
0.129995        	bottom	1.53369178e-01	3.44722515e-01	1.56614602e-01
0.130783        	bottom	1.53050038e-01	3.44817301e-01	1.56314556e-01
0.131571        	bottom	1.52734020e-01	3.44910117e-01	1.56017581e-01
0.132359        	bottom	1.52421123e-01	3.45000999e-01	1.55723673e-01
0.133146        	bottom	1.52111237e-01	3.45089966e-01	1.55432726e-01
0.133933        	bottom	1.51804369e-01	3.45177056e-01	1.55144745e-01
0.134719        	bottom	1.51500414e-01	3.45262293e-01	1.54859627e-01
0.135506        	bottom	1.51199329e-01	3.45345707e-01	1.54577330e-01
0.136292        	bottom	1.50901115e-01	3.45427337e-01	1.54297853e-01
0.137078        	bottom	1.50605672e-01	3.45507199e-01	1.54021097e-01
0.137864        	bottom	1.50312958e-01	3.45585322e-01	1.53747024e-01
0.138649        	bottom	1.50022979e-01	3.45661736e-01	1.53475634e-01
0.139434        	bottom	1.49735638e-01	3.45736453e-01	1.53206834e-01
0.140219        	bottom	1.49450898e-01	3.45809495e-01	1.52940588e-01
0.141004        	bottom	1.49168714e-01	3.45880882e-01	1.52676852e-01
0.141789        	bottom	1.48889094e-01	3.45950641e-01	1.52415630e-01
0.142573        	bottom	1.48611947e-01	3.46018777e-01	1.52156834e-01
0.143358        	bottom	1.48337239e-01	3.46085311e-01	1.51900432e-01
0.144142        	bottom	1.48064932e-01	3.46150265e-01	1.51646383e-01
0.144926        	bottom	1.47795033e-01	3.46213667e-01	1.51394695e-01
0.14571         	bottom	1.47527457e-01	3.46275521e-01	1.51145284e-01
0.146494        	bottom	1.47262174e-01	3.46335858e-01	1.50898122e-01
0.147277        	bottom	1.46999149e-01	3.46394700e-01	1.50653171e-01
0.14806         	bottom	1.46738390e-01	3.46452080e-01	1.50410441e-01
0.148843        	bottom	1.46479819e-01	3.46508009e-01	1.50169853e-01
0.149626        	bottom	1.46223408e-01	3.46562513e-01	1.49931381e-01
0.150409        	bottom	1.45969123e-01	3.46615621e-01	1.49694991e-01
0.151192        	bottom	1.45716932e-01	3.46667357e-01	1.49460652e-01
0.151975        	bottom	1.45466847e-01	3.46717759e-01	1.49228373e-01
0.152757        	bottom	1.45218793e-01	3.46766837e-01	1.48998082e-01
0.153539        	bottom	1.44972747e-01	3.46814620e-01	1.48769755e-01
0.154322        	bottom	1.44728677e-01	3.46861140e-01	1.48543364e-01
0.155104        	bottom	1.44486555e-01	3.46906424e-01	1.48318878e-01
0.155886        	bottom	1.44246395e-01	3.46950515e-01	1.48096309e-01
0.156667        	bottom	1.44008126e-01	3.46993425e-01	1.47875592e-01
0.157449        	bottom	1.43771728e-01	3.47035187e-01	1.47656703e-01
0.15823         	bottom	1.43537173e-01	3.47075836e-01	1.47439617e-01
0.159012        	bottom	1.43304434e-01	3.47115403e-01	1.47224307e-01
0.159794        	bottom	1.43073485e-01	3.47153915e-01	1.47010748e-01
0.160574        	bottom	1.42844343e-01	3.47191412e-01	1.46798953e-01
0.161355        	bottom	1.42616941e-01	3.47227905e-01	1.46588861e-01
0.162136        	bottom	1.42391262e-01	3.47263425e-01	1.46380452e-01
0.162917        	bottom	1.42167281e-01	3.47298002e-01	1.46173703e-01
0.163698        	bottom	1.41944974e-01	3.47331663e-01	1.45968591e-01
0.164479        	bottom	1.41724319e-01	3.47364434e-01	1.45765094e-01
0.16526         	bottom	1.41505293e-01	3.47396337e-01	1.45563189e-01
0.16604         	bottom	1.41287913e-01	3.47427408e-01	1.45362890e-01
0.16682         	bottom	1.41072119e-01	3.47457646e-01	1.45164142e-01
0.1676          	bottom	1.40857895e-01	3.47487073e-01	1.44966928e-01
0.16838         	bottom	1.40645220e-01	3.47515711e-01	1.44771227e-01
0.16916         	bottom	1.40434073e-01	3.47543573e-01	1.44577020e-01
0.16994         	bottom	1.40224435e-01	3.47570674e-01	1.44384286e-01
0.17072         	bottom	1.40016284e-01	3.47597024e-01	1.44193006e-01
0.171501        	bottom	1.39809603e-01	3.47622635e-01	1.44003161e-01
0.172281        	bottom	1.39604371e-01	3.47647514e-01	1.43814732e-01
0.173061        	bottom	1.39400571e-01	3.47671670e-01	1.43627701e-01
0.17384         	bottom	1.39198220e-01	3.47695126e-01	1.43442084e-01
0.17462         	bottom	1.38997265e-01	3.47717864e-01	1.43257830e-01
0.175399        	bottom	1.38797694e-01	3.47739892e-01	1.43074926e-01
0.176178        	bottom	1.38599489e-01	3.47761217e-01	1.42893355e-01
0.176958        	bottom	1.38402633e-01	3.47781843e-01	1.42713101e-01
0.177737        	bottom	1.38207109e-01	3.47801770e-01	1.42534146e-01
0.178517        	bottom	1.38012901e-01	3.47821000e-01	1.42356475e-01
0.179296        	bottom	1.37819992e-01	3.47839540e-01	1.42180071e-01
0.180075        	bottom	1.37628366e-01	3.47857390e-01	1.42004919e-01
0.180855        	bottom	1.37438008e-01	3.47874556e-01	1.41831002e-01
0.181634        	bottom	1.37248903e-01	3.47891044e-01	1.41658307e-01
0.182414        	bottom	1.37061035e-01	3.47906858e-01	1.41486817e-01
0.183193        	bottom	1.36874390e-01	3.47922005e-01	1.41316520e-01
0.183972        	bottom	1.36688953e-01	3.47936490e-01	1.41147399e-01
0.184751        	bottom	1.36504745e-01	3.47950338e-01	1.40979474e-01
0.18553         	bottom	1.36321718e-01	3.47963536e-01	1.40812698e-01
0.186308        	bottom	1.36139863e-01	3.47976102e-01	1.40647065e-01
0.187087        	bottom	1.35959167e-01	3.47988053e-01	1.40482559e-01
0.187866        	bottom	1.35779617e-01	3.47999405e-01	1.40319168e-01
0.188644        	bottom	1.35601198e-01	3.48010165e-01	1.40156878e-01
0.189423        	bottom	1.35423899e-01	3.48020347e-01	1.39995678e-01
0.190202        	bottom	1.35247705e-01	3.48029968e-01	1.39835553e-01
0.19098         	bottom	1.35072605e-01	3.48039045e-01	1.39676492e-01
0.191759        	bottom	1.34898586e-01	3.48047596e-01	1.39518483e-01
0.192538        	bottom	1.34725637e-01	3.48055645e-01	1.39361513e-01
0.193316        	bottom	1.34553744e-01	3.48063216e-01	1.39205572e-01
0.194095        	bottom	1.34382896e-01	3.48070327e-01	1.39050648e-01
0.194874        	bottom	1.34213083e-01	3.48077000e-01	1.38896729e-01
0.195652        	bottom	1.34044292e-01	3.48083259e-01	1.38743804e-01
0.196431        	bottom	1.33876512e-01	3.48089126e-01	1.38591864e-01
0.19721         	bottom	1.33709733e-01	3.48094626e-01	1.38440897e-01
0.197988        	bottom	1.33543944e-01	3.48099781e-01	1.38290893e-01
0.198767        	bottom	1.33379134e-01	3.48104617e-01	1.38141842e-01
0.199545        	bottom	1.33215293e-01	3.48109154e-01	1.37993733e-01
0.200324        	bottom	1.33052410e-01	3.48113415e-01	1.37846558e-01
0.201103        	bottom	1.32890477e-01	3.48117418e-01	1.37700305e-01
0.201881        	bottom	1.32729482e-01	3.48121186e-01	1.37554967e-01
0.20266         	bottom	1.32569417e-01	3.48124735e-01	1.37410533e-01
0.203439        	bottom	1.32410271e-01	3.48128084e-01	1.37266994e-01
0.204217        	bottom	1.32252035e-01	3.48131246e-01	1.37124341e-01
0.204996        	bottom	1.32094700e-01	3.48134237e-01	1.36982566e-01
0.205775        	bottom	1.31938257e-01	3.48137068e-01	1.36841659e-01
0.206553        	bottom	1.31782697e-01	3.48139751e-01	1.36701611e-01
0.207332        	bottom	1.31628011e-01	3.48142292e-01	1.36562415e-01
0.208111        	bottom	1.31474190e-01	3.48144702e-01	1.36424062e-01
0.208889        	bottom	1.31321226e-01	3.48146987e-01	1.36286543e-01
0.209668        	bottom	1.31169111e-01	3.48149146e-01	1.36149850e-01
0.210447        	bottom	1.31017835e-01	3.48151183e-01	1.36013976e-01
0.211225        	bottom	1.30867390e-01	3.48153098e-01	1.35878911e-01
0.212003        	bottom	1.30717799e-01	3.48154907e-01	1.35744675e-01
0.212781        	bottom	1.30569023e-01	3.48156581e-01	1.35611234e-01
0.213559        	bottom	1.30421061e-01	3.48158125e-01	1.35478584e-01
0.214337        	bottom	1.30273902e-01	3.48159534e-01	1.35346717e-01
0.215115        	bottom	1.30127541e-01	3.48160802e-01	1.35215626e-01
0.215893        	bottom	1.29981969e-01	3.48161921e-01	1.35085302e-01
0.21667         	bottom	1.29837177e-01	3.48162883e-01	1.34955738e-01
0.217448        	bottom	1.29693159e-01	3.48163680e-01	1.34826927e-01
0.218226        	bottom	1.29549907e-01	3.48164302e-01	1.34698861e-01
0.219004        	bottom	1.29407414e-01	3.48164742e-01	1.34571533e-01
0.219782        	bottom	1.29265671e-01	3.48164991e-01	1.34444935e-01
0.22056         	bottom	1.29124673e-01	3.48165038e-01	1.34319061e-01
0.221338        	bottom	1.28984411e-01	3.48164878e-01	1.34193903e-01
0.222116        	bottom	1.28844879e-01	3.48164502e-01	1.34069454e-01
0.222894        	bottom	1.28706071e-01	3.48163901e-01	1.33945708e-01
0.223671        	bottom	1.28567978e-01	3.48163067e-01	1.33822657e-01
0.224449        	bottom	1.28430596e-01	3.48161994e-01	1.33700296e-01
0.225227        	bottom	1.28293916e-01	3.48160677e-01	1.33578617e-01
0.226005        	bottom	1.28157933e-01	3.48159110e-01	1.33457614e-01
0.226783        	bottom	1.28022640e-01	3.48157290e-01	1.33337282e-01
0.227561        	bottom	1.27888032e-01	3.48155215e-01	1.33217612e-01
0.228339        	bottom	1.27754101e-01	3.48152882e-01	1.33098600e-01
0.229117        	bottom	1.27620816e-01	3.48150274e-01	1.32980216e-01
0.229896        	bottom	1.27488195e-01	3.48147416e-01	1.32862476e-01
0.230675        	bottom	1.27356230e-01	3.48144308e-01	1.32745371e-01
0.231453        	bottom	1.27224915e-01	3.48140951e-01	1.32628897e-01
0.232232        	bottom	1.27094244e-01	3.48137351e-01	1.32513047e-01
0.233011        	bottom	1.26964211e-01	3.48133515e-01	1.32397815e-01
0.233789        	bottom	1.26834812e-01	3.48129450e-01	1.32283197e-01
0.234568        	bottom	1.26706042e-01	3.48125162e-01	1.32169188e-01
0.235347        	bottom	1.26577894e-01	3.48120660e-01	1.32055781e-01
0.236125        	bottom	1.26450364e-01	3.48115956e-01	1.31942973e-01
0.236904        	bottom	1.26323447e-01	3.48111059e-01	1.31830757e-01
0.237683        	bottom	1.26197138e-01	3.48105981e-01	1.31719130e-01
0.238461        	bottom	1.26071431e-01	3.48100736e-01	1.31608086e-01
0.23924         	bottom	1.25946323e-01	3.48095337e-01	1.31497620e-01
0.240019        	bottom	1.25821807e-01	3.48089797e-01	1.31387728e-01
0.240797        	bottom	1.25697880e-01	3.48084132e-01	1.31278404e-01
0.241576        	bottom	1.25574535e-01	3.48078357e-01	1.31169645e-01
0.242355        	bottom	1.25451770e-01	3.48072487e-01	1.31061445e-01
0.243133        	bottom	1.25329578e-01	3.48066538e-01	1.30953801e-01
0.243912        	bottom	1.25207955e-01	3.48060525e-01	1.30846707e-01
0.244691        	bottom	1.25086897e-01	3.48054462e-01	1.30740159e-01
0.245469        	bottom	1.24966399e-01	3.48048366e-01	1.30634154e-01
0.246248        	bottom	1.24846457e-01	3.48042251e-01	1.30528685e-01
0.247027        	bottom	1.24727066e-01	3.48036131e-01	1.30423750e-01
0.247805        	bottom	1.24608221e-01	3.48030020e-01	1.30319344e-01
0.248584        	bottom	1.24489919e-01	3.48023932e-01	1.30215462e-01
0.249363        	bottom	1.24372154e-01	3.48017876e-01	1.30112102e-01
0.250141        	bottom	1.24254923e-01	3.48011868e-01	1.30009258e-01
0.25092         	bottom	1.24138222e-01	3.48005918e-01	1.29906927e-01
0.251699        	bottom	1.24022046e-01	3.48000035e-01	1.29805104e-01
0.252477        	bottom	1.23906391e-01	3.47994231e-01	1.29703786e-01
0.253256        	bottom	1.23791253e-01	3.47988513e-01	1.29602970e-01
0.254035        	bottom	1.23676628e-01	3.47982887e-01	1.29502650e-01
0.254813        	bottom	1.23562512e-01	3.47977362e-01	1.29402824e-01
0.255592        	bottom	1.23448901e-01	3.47971943e-01	1.29303487e-01
0.256371        	bottom	1.23335791e-01	3.47966634e-01	1.29204636e-01
0.257149        	bottom	1.23223179e-01	3.47961439e-01	1.29106268e-01
0.257928        	bottom	1.23111059e-01	3.47956361e-01	1.29008378e-01
0.258707        	bottom	1.22999430e-01	3.47951402e-01	1.28910963e-01
0.259485        	bottom	1.22888286e-01	3.47946563e-01	1.28814019e-01
0.260264        	bottom	1.22777624e-01	3.47941843e-01	1.28717544e-01
0.261043        	bottom	1.22667441e-01	3.47937238e-01	1.28621533e-01
0.261821        	bottom	1.22557732e-01	3.47932746e-01	1.28525982e-01
0.2626          	bottom	1.22448495e-01	3.47928364e-01	1.28430889e-01
0.263379        	bottom	1.22339726e-01	3.47924087e-01	1.28336250e-01
0.264157        	bottom	1.22231420e-01	3.47919910e-01	1.28242062e-01
0.264936        	bottom	1.22123575e-01	3.47915826e-01	1.28148321e-01
0.265715        	bottom	1.22016188e-01	3.47911828e-01	1.28055024e-01
0.266493        	bottom	1.21909254e-01	3.47907909e-01	1.27962168e-01
0.267272        	bottom	1.21802771e-01	3.47904061e-01	1.27869748e-01
0.268051        	bottom	1.21696735e-01	3.47900275e-01	1.27777763e-01
0.26883         	bottom	1.21591142e-01	3.47896540e-01	1.27686209e-01
0.269608        	bottom	1.21485990e-01	3.47892847e-01	1.27595082e-01
0.270387        	bottom	1.21381276e-01	3.47889184e-01	1.27504380e-01
0.271166        	bottom	1.21276995e-01	3.47885541e-01	1.27414099e-01
0.271944        	bottom	1.21173146e-01	3.47881909e-01	1.27324236e-01
0.272723        	bottom	1.21069724e-01	3.47878274e-01	1.27234787e-01
0.273502        	bottom	1.20966727e-01	3.47874626e-01	1.27145751e-01
0.27428         	bottom	1.20864151e-01	3.47870951e-01	1.27057123e-01
0.275059        	bottom	1.20761994e-01	3.47867241e-01	1.26968900e-01
0.275838        	bottom	1.20660253e-01	3.47863483e-01	1.26881080e-01
0.276616        	bottom	1.20558924e-01	3.47859666e-01	1.26793659e-01
0.277395        	bottom	1.20458005e-01	3.47855780e-01	1.26706635e-01
0.278174        	bottom	1.20357492e-01	3.47851813e-01	1.26620004e-01
0.278952        	bottom	1.20257384e-01	3.47847760e-01	1.26533764e-01
0.279731        	bottom	1.20157676e-01	3.47843609e-01	1.26447911e-01
0.28051         	bottom	1.20058366e-01	3.47839351e-01	1.26362443e-01
0.281288        	bottom	1.19959452e-01	3.47834979e-01	1.26277357e-01
0.282067        	bottom	1.19860931e-01	3.47830485e-01	1.26192649e-01
0.282846        	bottom	1.19762799e-01	3.47825862e-01	1.26108317e-01
0.283624        	bottom	1.19665054e-01	3.47821104e-01	1.26024358e-01
0.284403        	bottom	1.19567694e-01	3.47816207e-01	1.25940770e-01
0.285182        	bottom	1.19470715e-01	3.47811166e-01	1.25857549e-01
0.28596         	bottom	1.19374116e-01	3.47805977e-01	1.25774693e-01
0.286739        	bottom	1.19277893e-01	3.47800640e-01	1.25692199e-01
0.287518        	bottom	1.19182024e-01	3.47795134e-01	1.25610047e-01
0.288298        	bottom	1.19086525e-01	3.47789487e-01	1.25528251e-01
0.289077        	bottom	1.18991391e-01	3.47783695e-01	1.25446807e-01
0.289857        	bottom	1.18896621e-01	3.47777756e-01	1.25365711e-01
0.290637        	bottom	1.18802211e-01	3.47771673e-01	1.25284961e-01
0.291416        	bottom	1.18708159e-01	3.47765451e-01	1.25204555e-01
0.292196        	bottom	1.18614463e-01	3.47759093e-01	1.25124491e-01
0.292975        	bottom	1.18521121e-01	3.47752606e-01	1.25044767e-01
0.293755        	bottom	1.18428131e-01	3.47745995e-01	1.24965379e-01
0.294534        	bottom	1.18335491e-01	3.47739269e-01	1.24886327e-01
0.295314        	bottom	1.18243198e-01	3.47732434e-01	1.24807607e-01
0.296093        	bottom	1.18151250e-01	3.47725499e-01	1.24729218e-01
0.296873        	bottom	1.18059646e-01	3.47718471e-01	1.24651158e-01
0.297652        	bottom	1.17968382e-01	3.47711360e-01	1.24573423e-01
0.298432        	bottom	1.17877457e-01	3.47704176e-01	1.24496013e-01
0.299211        	bottom	1.17786869e-01	3.47696929e-01	1.24418925e-01
0.299991        	bottom	1.17696616e-01	3.47689629e-01	1.24342157e-01
0.30077         	bottom	1.17606695e-01	3.47682288e-01	1.24265707e-01
0.30155         	bottom	1.17517105e-01	3.47674916e-01	1.24189573e-01
0.302329        	bottom	1.17427843e-01	3.47667524e-01	1.24113752e-01
0.303109        	bottom	1.17338908e-01	3.47660125e-01	1.24038244e-01
0.303888        	bottom	1.17250296e-01	3.47652730e-01	1.23963046e-01
0.304668        	bottom	1.17162007e-01	3.47645349e-01	1.23888155e-01
0.305447        	bottom	1.17074039e-01	3.47637994e-01	1.23813571e-01
0.306227        	bottom	1.16986388e-01	3.47630676e-01	1.23739292e-01
0.307006        	bottom	1.16899054e-01	3.47623404e-01	1.23665314e-01
0.307786        	bottom	1.16812034e-01	3.47616191e-01	1.23591637e-01
0.308565        	bottom	1.16725327e-01	3.47609045e-01	1.23518259e-01
0.309345        	bottom	1.16638930e-01	3.47601975e-01	1.23445178e-01
0.310125        	bottom	1.16552841e-01	3.47594991e-01	1.23372392e-01
0.310904        	bottom	1.16467059e-01	3.47588102e-01	1.23299900e-01
0.311684        	bottom	1.16381582e-01	3.47581315e-01	1.23227699e-01
0.312463        	bottom	1.16296407e-01	3.47574637e-01	1.23155788e-01
0.313243        	bottom	1.16211533e-01	3.47568074e-01	1.23084165e-01
0.314022        	bottom	1.16126958e-01	3.47561634e-01	1.23012828e-01
0.314802        	bottom	1.16042681e-01	3.47555322e-01	1.22941777e-01
0.315581        	bottom	1.15958699e-01	3.47549141e-01	1.22871008e-01
0.316361        	bottom	1.15875010e-01	3.47543097e-01	1.22800521e-01
0.31714         	bottom	1.15791613e-01	3.47537194e-01	1.22730314e-01
0.31792         	bottom	1.15708506e-01	3.47531433e-01	1.22660386e-01
0.318699        	bottom	1.15625688e-01	3.47525819e-01	1.22590733e-01
0.319479        	bottom	1.15543156e-01	3.47520350e-01	1.22521356e-01
0.320258        	bottom	1.15460908e-01	3.47515030e-01	1.22452253e-01
0.321038        	bottom	1.15378944e-01	3.47509858e-01	1.22383421e-01
0.321817        	bottom	1.15297261e-01	3.47504834e-01	1.22314860e-01
0.322597        	bottom	1.15215857e-01	3.47499958e-01	1.22246568e-01
0.323376        	bottom	1.15134732e-01	3.47495227e-01	1.22178543e-01
0.324156        	bottom	1.15053882e-01	3.47490639e-01	1.22110783e-01
0.324935        	bottom	1.14973308e-01	3.47486193e-01	1.22043288e-01
0.325715        	bottom	1.14893006e-01	3.47481884e-01	1.21976056e-01
0.326494        	bottom	1.14812976e-01	3.47477710e-01	1.21909085e-01
0.327274        	bottom	1.14733215e-01	3.47473663e-01	1.21842373e-01
0.328053        	bottom	1.14653723e-01	3.47469742e-01	1.21775920e-01
0.328833        	bottom	1.14574497e-01	3.47465941e-01	1.21709724e-01
0.329613        	bottom	1.14495536e-01	3.47462255e-01	1.21643783e-01
0.330392        	bottom	1.14416839e-01	3.47458676e-01	1.21578096e-01
0.331172        	bottom	1.14338403e-01	3.47455199e-01	1.21512661e-01
0.331951        	bottom	1.14260228e-01	3.47451816e-01	1.21447477e-01
0.332731        	bottom	1.14182311e-01	3.47448521e-01	1.21382543e-01
0.33351         	bottom	1.14104652e-01	3.47445307e-01	1.21317856e-01
0.33429         	bottom	1.14027249e-01	3.47442168e-01	1.21253416e-01
0.335069        	bottom	1.13950100e-01	3.47439091e-01	1.21189222e-01
0.335849        	bottom	1.13873204e-01	3.47436070e-01	1.21125271e-01
0.336628        	bottom	1.13796559e-01	3.47433095e-01	1.21061562e-01
0.337408        	bottom	1.13720164e-01	3.47430159e-01	1.20998094e-01
0.338187        	bottom	1.13644018e-01	3.47427252e-01	1.20934865e-01
0.338967        	bottom	1.13568119e-01	3.47424365e-01	1.20871874e-01
0.339746        	bottom	1.13492465e-01	3.47421488e-01	1.20809120e-01
0.340526        	bottom	1.13417056e-01	3.47418614e-01	1.20746600e-01
0.341305        	bottom	1.13341889e-01	3.47415732e-01	1.20684315e-01
0.342085        	bottom	1.13266965e-01	3.47412834e-01	1.20622261e-01
0.342864        	bottom	1.13192280e-01	3.47409910e-01	1.20560439e-01
0.343645        	bottom	1.13117817e-01	3.47406929e-01	1.20498831e-01
0.344425        	bottom	1.13043590e-01	3.47403914e-01	1.20437451e-01
0.345206        	bottom	1.12969597e-01	3.47400851e-01	1.20376295e-01
0.345986        	bottom	1.12895835e-01	3.47397728e-01	1.20315362e-01
0.346767        	bottom	1.12822304e-01	3.47394537e-01	1.20254650e-01
0.347547        	bottom	1.12749003e-01	3.47391270e-01	1.20194159e-01