/*--------------------------------*- C++ -*----------------------------------*\
  =========                 |
  \\      /  F ield         | OpenFOAM: The Open Source CFD Toolbox
   \\    /   O peration     | Website:  https://openfoam.org
    \\  /    A nd           | Version:  12
     \\/     M anipulation  |
\*---------------------------------------------------------------------------*/
FoamFile
{
    format      ascii;
    class       volScalarField;
    location    "1800";
    object      nut;
}
// * * * * * * * * * * * * * * * * * * * * * * * * * * * * * * * * * * * * * //

dimensions      [0 2 -1 0 0 0 0];

internalField   nonuniform List<scalar> 
7480
(
1.0919413e-06
7.2960621e-07
5.7136273e-07
5.3586334e-07
5.6162687e-07
6.3616423e-07
7.6784653e-07
9.73104e-07
1.274063e-06
1.6944377e-06
2.2538434e-06
2.9682856e-06
3.8431883e-06
4.8380473e-06
5.832468e-06
6.669921e-06
7.2514631e-06
7.5705473e-06
7.7067578e-06
7.6768899e-06
7.5851078e-06
7.4557695e-06
7.3090405e-06
7.1663318e-06
7.0579874e-06
6.9897902e-06
6.9533208e-06
6.9376659e-06
6.9351014e-06
6.9413194e-06
6.9525294e-06
6.965129e-06
6.9771934e-06
6.95564e-06
6.9189455e-06
6.8825202e-06
6.8508269e-06
6.8247035e-06
6.803089e-06
6.7841585e-06
6.7663464e-06
6.748841e-06
6.7314444e-06
6.7146198e-06
6.7011438e-06
6.698468e-06
6.7348056e-06
6.8770303e-06
7.2282088e-06
7.8067145e-06
8.3395852e-06
8.6825856e-06
8.9491784e-06
9.1464044e-06
9.2773543e-06
9.3599928e-06
9.4139425e-06
9.4530117e-06
9.4834715e-06
9.5089471e-06
9.5309965e-06
9.5503822e-06
9.5677337e-06
9.5836738e-06
9.5985782e-06
9.6127789e-06
9.6266673e-06
9.6404654e-06
9.6542645e-06
9.6681574e-06
9.6822682e-06
9.6967315e-06
9.7116758e-06
9.72722e-06
9.7434787e-06
9.760563e-06
9.7785802e-06
9.7976346e-06
9.8178236e-06
9.8392331e-06
9.8619369e-06
9.8859801e-06
9.9112841e-06
9.9368751e-06
9.9510556e-06
9.7039761e-06
4.298126e-06
4.0041081e-06
4.0299375e-06
4.0472771e-06
4.0577543e-06
4.0657733e-06
4.0712341e-06
4.0746615e-06
4.0765883e-06
4.0774111e-06
4.0773628e-06
4.07668e-06
4.0754212e-06
4.0712806e-06
1.4013209e-06
1.3342733e-06
1.2608964e-06
1.1878859e-06
1.117511e-06
1.0515961e-06
9.8955901e-07
9.4124723e-07
8.9367797e-07
9.0880283e-07
9.574498e-07
1.0495609e-06
1.1998773e-06
1.4302814e-06
1.7608708e-06
2.1969712e-06
2.7479717e-06
3.3825769e-06
4.0842237e-06
4.8506258e-06
5.6774851e-06
6.467291e-06
7.1926969e-06
7.8584241e-06
8.4621327e-06
9.0043136e-06
9.489005e-06
9.9228607e-06
1.0317787e-05
1.0685765e-05
1.1030121e-05
1.1350819e-05
1.16442e-05
1.1904557e-05
1.2134905e-05
1.2344544e-05
1.2543386e-05
1.2745651e-05
1.2956401e-05
1.317452e-05
1.3396859e-05
1.3620891e-05
1.3844592e-05
1.40656e-05
1.4284988e-05
1.4485881e-05
1.4678585e-05
1.4891795e-05
1.5170647e-05
1.5542821e-05
1.5949629e-05
1.6319367e-05
1.6637807e-05
1.690414e-05
1.7128194e-05
1.7320738e-05
1.7490719e-05
1.7646071e-05
1.7792511e-05
1.7934043e-05
1.8070924e-05
1.8202796e-05
1.8329914e-05
1.8453104e-05
1.8572597e-05
1.8688949e-05
1.8803176e-05
1.8915701e-05
1.9026553e-05
1.9135816e-05
1.9243705e-05
1.9350484e-05
1.9456416e-05
1.9561742e-05
1.9666695e-05
1.9771498e-05
1.9876361e-05
1.998149e-05
2.0087071e-05
2.0193269e-05
2.0300228e-05
2.0408034e-05
2.0516525e-05
2.0623824e-05
2.0707858e-05
2.0527855e-05
1.7373021e-05
1.5971908e-05
1.4918068e-05
1.4262043e-05
1.3827339e-05
1.3533092e-05
1.3325697e-05
1.3175668e-05
1.3064629e-05
1.2980827e-05
1.2916206e-05
1.2865661e-05
1.2825093e-05
1.2791659e-05
1.4338755e-06
1.4104438e-06
1.3844126e-06
1.3570907e-06
1.3288536e-06
1.2991555e-06
1.2677326e-06
1.2345381e-06
1.1995127e-06
1.1650414e-06
1.1323063e-06
1.1026898e-06
1.0780207e-06
1.0601154e-06
1.043274e-06
1.0454503e-06
1.0616319e-06
1.1204692e-06
1.2331645e-06
1.4122831e-06
1.6747338e-06
2.036674e-06
2.5007381e-06
3.086805e-06
3.7640994e-06
4.5259038e-06
5.3856015e-06
6.2933986e-06
7.2113442e-06
8.1114547e-06
8.9707386e-06
9.770531e-06
1.04855e-05
1.1131538e-05
1.1738387e-05
1.2325054e-05
1.2894257e-05
1.3445084e-05
1.3972399e-05
1.4479449e-05
1.4970216e-05
1.544844e-05
1.5914712e-05
1.6367385e-05
1.6806889e-05
1.7230495e-05
1.763672e-05
1.8028915e-05
1.8426329e-05
1.8840464e-05
1.9265153e-05
1.9688347e-05
2.0093196e-05
2.0475737e-05
2.0838361e-05
2.1182199e-05
2.1507892e-05
2.1819982e-05
2.2124085e-05
2.2423665e-05
2.2715703e-05
2.2999053e-05
2.3273944e-05
2.3541402e-05
2.3800971e-05
2.4053674e-05
2.4301099e-05
2.4543416e-05
2.4780375e-05
2.5011982e-05
2.5238448e-05
2.5460039e-05
2.5677011e-05
2.5889602e-05
2.6098034e-05
2.6302527e-05
2.650329e-05
2.6700533e-05
2.6894458e-05
2.7085254e-05
2.7273104e-05
2.745816e-05
2.764039e-05
2.7818685e-05
2.7979361e-05
2.7998752e-05
2.6868244e-05
2.6273649e-05
2.582109e-05
2.5545151e-05
2.5377911e-05
2.5283191e-05
2.5232101e-05
2.5207443e-05
2.5198551e-05
2.5199411e-05
2.520432e-05
2.5215336e-05
2.5215606e-05
2.5249658e-05
1.4435511e-06
1.4317883e-06
1.4189463e-06
1.4055015e-06
1.3915592e-06
1.3771222e-06
1.3621896e-06
1.3466191e-06
1.3303696e-06
1.3132376e-06
1.2951393e-06
1.2759776e-06
1.2557478e-06
1.2347651e-06
1.2138468e-06
1.1934677e-06
1.1738627e-06
1.1558606e-06
1.1412901e-06
1.1309651e-06
1.125345e-06
1.1298235e-06
1.1459423e-06
1.1875928e-06
1.2778362e-06
1.4307237e-06
1.666563e-06
2.0055312e-06
2.4621569e-06
3.0626812e-06
3.8019529e-06
4.6591601e-06
5.6336527e-06
6.6719449e-06
7.7269671e-06
8.7647375e-06
9.7631034e-06
1.0711386e-05
1.1609787e-05
1.2464714e-05
1.3284976e-05
1.4079615e-05
1.4844419e-05
1.5579223e-05
1.6301038e-05
1.7011906e-05
1.7700467e-05
1.8364284e-05
1.9009274e-05
1.9640197e-05
2.025918e-05
2.0865506e-05
2.1458309e-05
2.2035787e-05
2.2595732e-05
2.3136645e-05
2.3658102e-05
2.4169487e-05
2.4674844e-05
2.5175078e-05
2.5660481e-05
2.6132627e-05
2.6592633e-05
2.7041812e-05
2.7478186e-05
2.7904795e-05
2.8323379e-05
2.8733114e-05
2.9133606e-05
2.9524987e-05
2.9907517e-05
3.0281446e-05
3.0646999e-05
3.1004374e-05
3.1353748e-05
3.1695288e-05
3.2029148e-05
3.2355474e-05
3.2674407e-05
3.2986077e-05
3.3290613e-05
3.3588133e-05
3.3878652e-05
3.4161873e-05
3.4432283e-05
3.4648823e-05
3.4505139e-05
3.4473082e-05
3.4462129e-05
3.4502578e-05
3.4582895e-05
3.4693688e-05
3.4823004e-05
3.4961958e-05
3.5104317e-05
3.5247245e-05
3.5385203e-05
3.5527932e-05
3.5633984e-05
3.5846998e-05
1.4483708e-06
1.4413768e-06
1.4338242e-06
1.4259368e-06
1.4177602e-06
1.4092973e-06
1.4005432e-06
1.3914873e-06
1.3821202e-06
1.3724188e-06
1.3623531e-06
1.3518843e-06
1.3409695e-06
1.3295571e-06
1.317664e-06
1.3052575e-06
1.2923567e-06
1.2788302e-06
1.2646349e-06
1.2500713e-06
1.2356065e-06
1.2215123e-06
1.2080473e-06
1.1958638e-06
1.1869605e-06
1.1786183e-06
1.1798063e-06
1.1870668e-06
1.209401e-06
1.2525982e-06
1.3487645e-06
1.5194791e-06
1.7920141e-06
2.1934222e-06
2.742531e-06
3.4802678e-06
4.365756e-06
5.3880178e-06
6.5234693e-06
7.714739e-06
8.9163843e-06
1.0094803e-05
1.1230587e-05
1.2318174e-05
1.3363655e-05
1.4378458e-05
1.5368748e-05
1.6333501e-05
1.7271235e-05
1.8182561e-05
1.9070247e-05
1.9931863e-05
2.0778931e-05
2.1605408e-05
2.2411477e-05
2.3197255e-05
2.3962321e-05
2.4709947e-05
2.5443271e-05
2.616485e-05
2.6871798e-05
2.7563417e-05
2.8239782e-05
2.8902041e-05
2.9544658e-05
3.0178045e-05
3.0800944e-05
3.1410347e-05
3.2006784e-05
3.2590784e-05
3.3162698e-05
3.3722802e-05
3.4271335e-05
3.4808509e-05
3.5334516e-05
3.5849528e-05
3.63537e-05
3.6847175e-05
3.7330085e-05
3.7802552e-05
3.8264695e-05
3.8716626e-05
3.9158395e-05
3.9590072e-05
4.0009827e-05
4.040743e-05
4.0701124e-05
4.1005185e-05
4.1293302e-05
4.1580726e-05
4.1872901e-05
4.217211e-05
4.2475588e-05
4.2779484e-05
4.3080068e-05
4.3376274e-05
4.3661768e-05
4.3953469e-05
4.4181893e-05
4.4608875e-05
1.4514456e-06
1.446874e-06
1.4419685e-06
1.4368524e-06
1.43155e-06
1.4260615e-06
1.4203817e-06
1.414504e-06
1.4084224e-06
1.4021303e-06
1.3956215e-06
1.3888897e-06
1.3819291e-06
1.3747319e-06
1.3672889e-06
1.3595871e-06
1.3516134e-06
1.3433473e-06
1.3347584e-06
1.3258158e-06
1.3165091e-06
1.3068036e-06
1.296755e-06
1.2860214e-06
1.2749088e-06
1.2636357e-06
1.2525709e-06
1.2419411e-06
1.2319683e-06
1.2241613e-06
1.215888e-06
1.2161193e-06
1.2208858e-06
1.2372325e-06
1.2739693e-06
1.3487502e-06
1.4990463e-06
1.7558706e-06
2.1556253e-06
2.724476e-06
3.5206368e-06
4.49852e-06
5.6438275e-06
6.922781e-06
8.2691518e-06
9.6289605e-06
1.0964769e-05
1.2259366e-05
1.3511929e-05
1.4729018e-05
1.5916789e-05
1.7076477e-05
1.8208471e-05
1.9314169e-05
2.0394896e-05
2.1451949e-05
2.2485307e-05
2.34955e-05
2.4484562e-05
2.545526e-05
2.6408047e-05
2.7342664e-05
2.8258955e-05
2.9157746e-05
3.0036518e-05
3.0899183e-05
3.1746838e-05
3.2578793e-05
3.3394958e-05
3.4195631e-05
3.4981161e-05
3.5751864e-05
3.6508021e-05
3.7249889e-05
3.7977698e-05
3.8691656e-05
3.9391952e-05
4.0078756e-05
4.0752225e-05
4.1412502e-05
4.2059724e-05
4.2694021e-05
4.3315472e-05
4.3924283e-05
4.4520022e-05
4.510172e-05
4.5653246e-05
4.6195472e-05
4.67148e-05
4.7215295e-05
4.7704026e-05
4.818686e-05
4.8665441e-05
4.9138922e-05
4.9605096e-05
5.0064028e-05
5.0508172e-05
5.0961467e-05
5.1324094e-05
5.1990154e-05
1.4537132e-06
1.4505238e-06
1.4471203e-06
1.4435758e-06
1.4399042e-06
1.4361053e-06
1.4321751e-06
1.428109e-06
1.4239021e-06
1.4195495e-06
1.4150465e-06
1.4103888e-06
1.4055726e-06
1.4005947e-06
1.3954523e-06
1.3901418e-06
1.384659e-06
1.3789979e-06
1.3731516e-06
1.3671109e-06
1.360864e-06
1.3543965e-06
1.3476972e-06
1.3407414e-06
1.3335e-06
1.3259673e-06
1.3181169e-06
1.3099486e-06
1.3014303e-06
1.292558e-06
1.2833134e-06
1.2741859e-06
1.2653944e-06
1.2571101e-06
1.2507081e-06
1.244212e-06
1.2448327e-06
1.25022e-06
1.2678457e-06
1.3081003e-06
1.3886434e-06
1.5577587e-06
1.8564585e-06
2.3288837e-06
3.0202842e-06
3.9709817e-06
5.1350278e-06
6.4926483e-06
7.9692841e-06
9.4935073e-06
1.1009549e-05
1.2487497e-05
1.3922417e-05
1.5321942e-05
1.6693205e-05
1.8038124e-05
1.9355677e-05
2.0645634e-05
2.1909618e-05
2.3149918e-05
2.4367762e-05
2.556368e-05
2.673804e-05
2.7891599e-05
2.9023572e-05
3.0134868e-05
3.1226875e-05
3.2300093e-05
3.3354643e-05
3.4390763e-05
3.5408785e-05
3.6409047e-05
3.7391876e-05
3.8357575e-05
3.9306424e-05
4.0238675e-05
4.1154561e-05
4.2054294e-05
4.2938065e-05
4.3806053e-05
4.4658426e-05
4.5495337e-05
4.6316899e-05
4.7123346e-05
4.7914737e-05
4.869204e-05
4.9455997e-05
5.0207637e-05
5.0937325e-05
5.1643127e-05
5.2329424e-05
5.3002024e-05
5.3664383e-05
5.4317504e-05
5.4960288e-05
5.5593725e-05
5.620897e-05
5.6837085e-05
5.7346008e-05
5.8274396e-05
1.4555425e-06
1.453212e-06
1.4507361e-06
1.4481608e-06
1.4454947e-06
1.4427372e-06
1.4398856e-06
1.4369367e-06
1.433887e-06
1.4307329e-06
1.4274711e-06
1.4240981e-06
1.4206109e-06
1.4170068e-06
1.4132831e-06
1.4094371e-06
1.4054658e-06
1.4013652e-06
1.397131e-06
1.3927584e-06
1.3882415e-06
1.3835751e-06
1.3787528e-06
1.3737689e-06
1.3686161e-06
1.3632864e-06
1.3577694e-06
1.3520534e-06
1.3461268e-06
1.3399679e-06
1.3335681e-06
1.3268979e-06
1.3199545e-06
1.3127189e-06
1.3051676e-06
1.2973086e-06
1.289583e-06
1.2821687e-06
1.2754812e-06
1.2705229e-06
1.2668555e-06
1.2689685e-06
1.2781455e-06
1.3045725e-06
1.3611066e-06
1.4850919e-06
1.7304639e-06
2.156813e-06
2.8142069e-06
3.7864559e-06
5.0174551e-06
6.4802419e-06
8.0991173e-06
9.7840409e-06
1.1466427e-05
1.3112527e-05
1.4718599e-05
1.6292761e-05
1.7840442e-05
1.9361998e-05
2.085691e-05
2.2326254e-05
2.3771405e-05
2.5193057e-05
2.6590918e-05
2.7965197e-05
2.9316811e-05
3.0646466e-05
3.1954554e-05
3.3241428e-05
3.4507429e-05
3.5752889e-05
3.6978154e-05
3.8183559e-05
3.9369413e-05
4.0536006e-05
4.1683607e-05
4.2812462e-05
4.3922802e-05
4.5014839e-05
4.6088768e-05
4.714477e-05
4.8182989e-05
4.9203649e-05
5.0206973e-05
5.1193812e-05
5.216788e-05
5.3128353e-05
5.4068593e-05
5.4984295e-05
5.5876797e-05
5.675041e-05
5.7608945e-05
5.8454491e-05
5.9286834e-05
6.0107851e-05
6.0907443e-05
6.1723999e-05
6.2391613e-05
6.3604513e-05
1.4571238e-06
1.4553605e-06
1.4534941e-06
1.4515548e-06
1.449548e-06
1.4474732e-06
1.4453284e-06
1.4431111e-06
1.4408189e-06
1.4384493e-06
1.4359996e-06
1.4334675e-06
1.4308505e-06
1.4281465e-06
1.4253535e-06
1.422469e-06
1.4194908e-06
1.4164157e-06
1.4132405e-06
1.4099613e-06
1.4065742e-06
1.403075e-06
1.3994595e-06
1.3957235e-06
1.3918626e-06
1.3878724e-06
1.3837483e-06
1.3794856e-06
1.375079e-06
1.3705227e-06
1.3658107e-06
1.3609342e-06
1.3558827e-06
1.3506456e-06
1.3452028e-06
1.3395465e-06
1.3336463e-06
1.3275277e-06
1.3210405e-06
1.3143193e-06
1.3075116e-06
1.3009229e-06
1.2946836e-06
1.2898055e-06
1.2854535e-06
1.2865956e-06
1.2931602e-06
1.3141096e-06
1.3639267e-06
1.4723416e-06
1.7097441e-06
2.1471919e-06
2.8491168e-06
3.9147562e-06
5.2816391e-06
6.913523e-06
8.7098677e-06
1.0566978e-05
1.2412461e-05
1.4219076e-05
1.5990152e-05
1.7735042e-05
1.945639e-05
2.1152684e-05
2.2823301e-05
2.4468913e-05
2.6090033e-05
2.7686854e-05
2.9259775e-05
3.0809256e-05
3.2335572e-05
3.3838968e-05
3.5319762e-05
3.6778258e-05
3.8214737e-05
3.9629488e-05
4.1022781e-05
4.2394872e-05
4.3746005e-05
4.507641e-05
4.6386299e-05
4.7675861e-05
4.8945265e-05
5.019471e-05
5.1424464e-05
5.2634884e-05
5.3829232e-05
5.5007972e-05
5.6167165e-05
5.7302242e-05
5.8412316e-05
5.9499842e-05
6.0568148e-05
6.1619819e-05
6.2655309e-05
6.3677356e-05
6.4674695e-05
6.5693259e-05
6.6531942e-05
6.8050581e-05
1.4585663e-06
1.4571954e-06
1.455749e-06
1.4542472e-06
1.4526937e-06
1.4510881e-06
1.4494287e-06
1.4477138e-06
1.4459416e-06
1.44411e-06
1.4422172e-06
1.4402614e-06
1.4382406e-06
1.4361533e-06
1.4339976e-06
1.4317719e-06
1.4294742e-06
1.4271022e-06
1.4246533e-06
1.4221246e-06
1.4195132e-06
1.416816e-06
1.4140296e-06
1.4111508e-06
1.4081761e-06
1.4051023e-06
1.4019257e-06
1.3986429e-06
1.3952501e-06
1.3917437e-06
1.3881196e-06
1.3843737e-06
1.3805013e-06
1.3764976e-06
1.372357e-06
1.3680742e-06
1.3636405e-06
1.3590485e-06
1.3542828e-06
1.3493253e-06
1.3441686e-06
1.3387991e-06
1.3332118e-06
1.3273595e-06
1.3212899e-06
1.3153828e-06
1.3097574e-06
1.3052716e-06
1.3013627e-06
1.3024594e-06
1.3090462e-06
1.3305547e-06
1.3839604e-06
1.5060186e-06
1.7817803e-06
2.2967378e-06
3.1443775e-06
4.3996434e-06
5.9961846e-06
7.8629372e-06
9.8682149e-06
1.1901756e-05
1.3906101e-05
1.5873004e-05
1.781256e-05
1.9729706e-05
2.1622802e-05
2.3490625e-05
2.5333864e-05
2.7152915e-05
2.894756e-05
3.0717833e-05
3.2463941e-05
3.4185992e-05
3.5884124e-05
3.7558541e-05
3.9209431e-05
4.0836988e-05
4.2441418e-05
4.4022922e-05
4.5581684e-05
4.7117872e-05
4.863165e-05
5.0123175e-05
5.1592698e-05
5.3040131e-05
5.4467785e-05
5.587723e-05
5.7266653e-05
5.863225e-05
5.9971904e-05
6.1286383e-05
6.25781e-05
6.384965e-05
6.5101912e-05
6.6338408e-05
6.7546782e-05
6.8780692e-05
6.9802675e-05
7.1647501e-05
1.459931e-06
1.4588418e-06
1.4576955e-06
1.4565062e-06
1.4552763e-06
1.4540054e-06
1.4526923e-06
1.4513355e-06
1.4499338e-06
1.4484855e-06
1.4469892e-06
1.4454435e-06
1.443847e-06
1.4421982e-06
1.4404958e-06
1.4387384e-06
1.4369244e-06
1.4350521e-06
1.4331194e-06
1.4311242e-06
1.4290641e-06
1.4269368e-06
1.4247396e-06
1.4224701e-06
1.4201257e-06
1.4177036e-06
1.4152012e-06
1.4126156e-06
1.409944e-06
1.4071833e-06
1.4043304e-06
1.4013821e-06
1.3983349e-06
1.3951852e-06
1.3919294e-06
1.3885638e-06
1.3850846e-06
1.3814876e-06
1.3777688e-06
1.373923e-06
1.3699442e-06
1.3658239e-06
1.361554e-06
1.3571177e-06
1.3525048e-06
1.3476969e-06
1.3426946e-06
1.3374382e-06
1.3319785e-06
1.3266708e-06
1.3216728e-06
1.3177173e-06
1.315018e-06
1.3169258e-06
1.3260076e-06
1.3545931e-06
1.4249283e-06
1.5986323e-06
1.9811613e-06
2.667111e-06
3.8224724e-06
5.3867527e-06
7.3056417e-06
9.4420699e-06
1.1652073e-05
1.3847321e-05
1.6005953e-05
1.813735e-05
2.0248107e-05
2.2336522e-05
2.4400734e-05
2.6440969e-05
2.8457195e-05
3.0448907e-05
3.2415944e-05
3.4358283e-05
3.6275847e-05
3.8168643e-05
4.0036734e-05
4.1880187e-05
4.3699077e-05
4.549348e-05
4.7263496e-05
4.9009206e-05
5.0730782e-05
5.2427759e-05
5.410171e-05
5.5754732e-05
5.7386424e-05
5.8994095e-05
6.0575211e-05
6.2129266e-05
6.3657613e-05
6.5162491e-05
6.6644933e-05
6.8109117e-05
6.9541624e-05
7.1003972e-05
7.2221327e-05
7.4412205e-05
1.4612416e-06
1.4603607e-06
1.4594357e-06
1.4584765e-06
1.4574848e-06
1.4564603e-06
1.4554018e-06
1.4543085e-06
1.4531791e-06
1.4520124e-06
1.4508074e-06
1.4495629e-06
1.4482777e-06
1.4469507e-06
1.4455809e-06
1.444167e-06
1.4427078e-06
1.4412018e-06
1.4396476e-06
1.4380433e-06
1.4363872e-06
1.4346774e-06
1.4329118e-06
1.4310885e-06
1.4292055e-06
1.4272605e-06
1.4252515e-06
1.4231762e-06
1.4210323e-06
1.4188175e-06
1.4165293e-06
1.414165e-06
1.411722e-06
1.4091974e-06
1.4065882e-06
1.4038916e-06
1.4011044e-06
1.3982235e-06
1.3952459e-06
1.3921682e-06
1.3889869e-06
1.3856983e-06
1.3822984e-06
1.3787825e-06
1.3751457e-06
1.3713802e-06
1.3674788e-06
1.3634251e-06
1.3592089e-06
1.3548121e-06
1.3502389e-06
1.3454193e-06
1.3404953e-06
1.3356746e-06
1.3316084e-06
1.3273369e-06
1.3276208e-06
1.3318496e-06
1.3479413e-06
1.3948964e-06
1.5103953e-06
1.8081867e-06
2.4070888e-06
3.4629164e-06
5.0292497e-06
7.0246218e-06
9.3078043e-06
1.1700833e-05
1.4088554e-05
1.6439699e-05
1.8764239e-05
2.1069572e-05
2.3353617e-05
2.5614355e-05
2.7851746e-05
3.0065294e-05
3.2254272e-05
3.4418355e-05
3.6557275e-05
3.8670772e-05
4.0758664e-05
4.2820811e-05
4.485715e-05
4.6867604e-05
4.8852177e-05
5.0810031e-05
5.274227e-05
5.4651131e-05
5.6536957e-05
5.8398103e-05
6.0232148e-05
6.2037783e-05
6.3815359e-05
6.5566524e-05
6.7292207e-05
6.8997059e-05
7.0666582e-05
7.2370234e-05
7.3794909e-05
7.6351243e-05
1.4624987e-06
1.4617759e-06
1.4610183e-06
1.460233e-06
1.4594213e-06
1.4585828e-06
1.4577167e-06
1.4568221e-06
1.4558983e-06
1.4549441e-06
1.4539588e-06
1.4529413e-06
1.4518907e-06
1.4508062e-06
1.4496868e-06
1.4485316e-06
1.4473395e-06
1.4461094e-06
1.44484e-06
1.4435299e-06
1.4421777e-06
1.4407819e-06
1.4393408e-06
1.4378529e-06
1.4363166e-06
1.43473e-06
1.4330916e-06
1.4313994e-06
1.4296518e-06
1.4278466e-06
1.4259821e-06
1.424056e-06
1.4220662e-06
1.4200104e-06
1.4178863e-06
1.4156914e-06
1.4134234e-06
1.4110797e-06
1.4086577e-06
1.4061548e-06
1.403568e-06
1.4008945e-06
1.3981313e-06
1.395275e-06
1.3923224e-06
1.38927e-06
1.3861139e-06
1.3828498e-06
1.3794731e-06
1.3759765e-06
1.3723532e-06
1.3685874e-06
1.3646695e-06
1.3605848e-06
1.3563165e-06
1.3517589e-06
1.3473042e-06
1.3430957e-06
1.3396719e-06
1.3376604e-06
1.3398278e-06
1.3504721e-06
1.3850769e-06
1.4766529e-06
1.7281134e-06
2.2840788e-06
3.3154416e-06
4.9384501e-06
7.0574273e-06
9.5136677e-06
1.2098259e-05
1.467857e-05
1.7222461e-05
1.9742096e-05
2.2243879e-05
2.4724935e-05
2.7183532e-05
2.9619349e-05
3.2031408e-05
3.4418804e-05
3.6780926e-05
3.9117205e-05
4.1427256e-05
4.3710708e-05
4.5967249e-05
4.8195579e-05
5.0396506e-05
5.2572211e-05
5.4723233e-05
5.6848676e-05
5.8946475e-05
6.1014927e-05
6.3053561e-05
6.5063324e-05
6.704482e-05
6.9002963e-05
7.092212e-05
7.287971e-05
7.4523496e-05
7.7464287e-05
1.4636984e-06
1.4630979e-06
1.4624696e-06
1.4618186e-06
1.4611458e-06
1.4604509e-06
1.4597332e-06
1.4589921e-06
1.4582267e-06
1.4574363e-06
1.4566203e-06
1.4557777e-06
1.4549079e-06
1.4540101e-06
1.4530836e-06
1.4521275e-06
1.451141e-06
1.4501231e-06
1.4490729e-06
1.4479891e-06
1.4468706e-06
1.4457162e-06
1.4445246e-06
1.4432945e-06
1.4420245e-06
1.4407133e-06
1.4393594e-06
1.4379614e-06
1.4365178e-06
1.435027e-06
1.4334874e-06
1.4318973e-06
1.4302549e-06
1.4285585e-06
1.426806e-06
1.4249956e-06
1.4231252e-06
1.4211929e-06
1.4191964e-06
1.4171336e-06
1.4150022e-06
1.4127998e-06
1.4105239e-06
1.4081718e-06
1.4057408e-06
1.4032281e-06
1.4006306e-06
1.3979454e-06
1.3951693e-06
1.3922989e-06
1.3893309e-06
1.3862615e-06
1.383086e-06
1.3797983e-06
1.3763869e-06
1.3728412e-06
1.3691388e-06
1.3652895e-06
1.3612112e-06
1.3570567e-06
1.353041e-06
1.3496805e-06
1.3470587e-06
1.3484863e-06
1.3568399e-06
1.3860068e-06
1.4684344e-06
1.7079183e-06
2.2721923e-06
3.363729e-06
5.1191702e-06
7.4289852e-06
1.0096374e-05
1.2884143e-05
1.5658116e-05
1.8396765e-05
2.1114933e-05
2.3816096e-05
2.6496817e-05
2.9155733e-05
3.1791876e-05
3.4403921e-05
3.6990977e-05
3.9552172e-05
4.2086641e-05
4.4592448e-05
4.7070133e-05
4.9521717e-05
5.194751e-05
5.4346959e-05
5.6718342e-05
5.9059835e-05
6.1370364e-05
6.3650164e-05
6.5899351e-05
6.8122887e-05
7.0303903e-05
7.252773e-05
7.4402173e-05
7.7747124e-05
1.464841e-06
1.4643369e-06
1.4638102e-06
1.4632647e-06
1.4627011e-06
1.4621189e-06
1.4615178e-06
1.460897e-06
1.4602561e-06
1.4595943e-06
1.458911e-06
1.4582057e-06
1.4574776e-06
1.4567263e-06
1.4559509e-06
1.4551509e-06
1.4543255e-06
1.4534739e-06
1.4525953e-06
1.4516888e-06
1.4507534e-06
1.4497881e-06
1.4487918e-06
1.4477634e-06
1.4467019e-06
1.445606e-06
1.4444747e-06
1.4433067e-06
1.4421008e-06
1.4408557e-06
1.4395701e-06
1.4382425e-06
1.4368715e-06
1.4354556e-06
1.4339932e-06
1.4324828e-06
1.4309227e-06
1.4293112e-06
1.4276465e-06
1.4259269e-06
1.4241504e-06
1.4223152e-06
1.4204191e-06
1.4184599e-06
1.4164354e-06
1.4143434e-06
1.4121812e-06
1.4099463e-06
1.4076362e-06
1.4052482e-06
1.4027795e-06
1.4002275e-06
1.3975893e-06
1.3948619e-06
1.3920414e-06
1.3891246e-06
1.3861048e-06
1.3829759e-06
1.3797237e-06
1.3763348e-06
1.3728096e-06
1.3690733e-06
1.3651975e-06
1.3614275e-06
1.3582395e-06
1.3555827e-06
1.3568133e-06
1.3646705e-06
1.3933441e-06
1.4783391e-06
1.7405703e-06
2.3712706e-06
3.6286891e-06
5.6107007e-06
8.1881258e-06
1.1100991e-05
1.409799e-05
1.7066883e-05
2.0004765e-05
2.2925482e-05
2.5828562e-05
2.8711332e-05
3.157283e-05
3.4411385e-05
3.722527e-05
4.0011682e-05
4.2770787e-05
4.5504346e-05
4.8212098e-05
5.0893382e-05
5.3546602e-05
5.6169906e-05
5.8761803e-05
6.1321863e-05
6.3849609e-05
6.634984e-05
6.8804322e-05
7.1306206e-05
7.342248e-05
7.7190698e-05
1.4659303e-06
1.4655033e-06
1.4650577e-06
1.4645964e-06
1.4641198e-06
1.4636276e-06
1.4631193e-06
1.4625945e-06
1.4620527e-06
1.4614933e-06
1.4609158e-06
1.4603198e-06
1.4597046e-06
1.4590697e-06
1.4584147e-06
1.4577389e-06
1.4570417e-06
1.4563224e-06
1.4555804e-06
1.4548149e-06
1.4540251e-06
1.4532101e-06
1.4523691e-06
1.4515011e-06
1.4506052e-06
1.4496805e-06
1.448726e-06
1.4477407e-06
1.4467236e-06
1.4456735e-06
1.4445895e-06
1.4434702e-06
1.4423145e-06
1.4411212e-06
1.4398889e-06
1.4386163e-06
1.4373021e-06
1.4359449e-06
1.4345431e-06
1.4330953e-06
1.4315999e-06
1.4300554e-06
1.4284598e-06
1.4268116e-06
1.4251088e-06
1.4233494e-06
1.4215315e-06
1.4196529e-06
1.4177115e-06
1.415705e-06
1.4136312e-06
1.4114877e-06
1.4092722e-06
1.4069821e-06
1.4046146e-06
1.402167e-06
1.3996362e-06
1.397019e-06
1.3943122e-06
1.3915107e-06
1.3886099e-06
1.3855966e-06
1.3824581e-06
1.3791911e-06
1.3757274e-06
1.3721099e-06
1.3685947e-06
1.3656083e-06
1.3632743e-06
1.3647185e-06
1.3736917e-06
1.4074095e-06
1.5086608e-06
1.8394956e-06
2.6112706e-06
4.188843e-06
6.5075163e-06
9.4099837e-06
1.2578519e-05
1.5777229e-05
1.8940414e-05
2.2081979e-05
2.5209049e-05
2.8318057e-05
3.1406709e-05
3.4471414e-05
3.7511747e-05
4.0529129e-05
4.3522437e-05
4.6490431e-05
4.9431277e-05
5.2343004e-05
5.5223792e-05
5.80726e-05
6.0888287e-05
6.3675299e-05
6.6413884e-05
6.9204859e-05
7.1573595e-05
7.5782313e-05
1.4669744e-06
1.4666098e-06
1.4662297e-06
1.4658364e-06
1.4654301e-06
1.4650104e-06
1.4645772e-06
1.4641298e-06
1.463668e-06
1.4631912e-06
1.4626991e-06
1.4621912e-06
1.4616671e-06
1.4611262e-06
1.4605682e-06
1.4599925e-06
1.4593987e-06
1.4587861e-06
1.4581542e-06
1.4575023e-06
1.4568298e-06
1.4561359e-06
1.4554199e-06
1.4546811e-06
1.4539186e-06
1.4531317e-06
1.4523196e-06
1.4514813e-06
1.4506161e-06
1.449723e-06
1.448801e-06
1.4478493e-06
1.4468668e-06
1.4458524e-06
1.4448051e-06
1.4437236e-06
1.442607e-06
1.441454e-06
1.4402633e-06
1.4390338e-06
1.437764e-06
1.4364527e-06
1.4350984e-06
1.4336996e-06
1.4322547e-06
1.4307622e-06
1.4292202e-06
1.4276271e-06
1.4259811e-06
1.4242803e-06
1.4225227e-06
1.4207065e-06
1.4188296e-06
1.4168899e-06
1.4148851e-06
1.4128128e-06
1.4106703e-06
1.4084553e-06
1.406165e-06
1.4037968e-06
1.4013479e-06
1.3988153e-06
1.3961948e-06
1.3934819e-06
1.3906644e-06
1.3877296e-06
1.3846743e-06
1.3814295e-06
1.3780484e-06
1.3747908e-06
1.3720128e-06
1.3703976e-06
1.3725615e-06
1.3848485e-06
1.4293348e-06
1.5723693e-06
2.0386559e-06
3.0998915e-06
5.0823904e-06
7.8506634e-06
1.1121287e-05
1.4543325e-05
1.7944368e-05
2.1313166e-05
2.4666134e-05
2.8000683e-05
3.1315812e-05
3.4613195e-05
3.7890615e-05
4.1145848e-05
4.4376408e-05
4.7579979e-05
5.0754369e-05
5.3897926e-05
5.7008783e-05
6.0090846e-05
6.3122672e-05
6.6212556e-05
6.8843435e-05
7.3509193e-05
1.4679846e-06
1.4676711e-06
1.4673446e-06
1.4670068e-06
1.4666578e-06
1.4662974e-06
1.4659253e-06
1.4655412e-06
1.4651446e-06
1.4647353e-06
1.4643128e-06
1.4638768e-06
1.4634268e-06
1.4629626e-06
1.4624836e-06
1.4619896e-06
1.46148e-06
1.4609543e-06
1.4604121e-06
1.4598528e-06
1.4592759e-06
1.4586807e-06
1.4580666e-06
1.4574329e-06
1.4567791e-06
1.4561044e-06
1.4554081e-06
1.4546895e-06
1.4539479e-06
1.4531825e-06
1.4523925e-06
1.4515771e-06
1.4507354e-06
1.4498665e-06
1.4489695e-06
1.4480435e-06
1.4470874e-06
1.4461003e-06
1.4450812e-06
1.4440289e-06
1.4429425e-06
1.4418206e-06
1.4406621e-06
1.4394657e-06
1.4382301e-06
1.436954e-06
1.4356359e-06
1.4342744e-06
1.4328678e-06
1.4314147e-06
1.4299134e-06
1.4283623e-06
1.4267598e-06
1.4251039e-06
1.4233928e-06
1.4216244e-06
1.4197966e-06
1.4179073e-06
1.4159541e-06
1.4139348e-06
1.4118472e-06
1.4096886e-06
1.4074566e-06
1.4051486e-06
1.4027617e-06
1.4002921e-06
1.3977356e-06
1.3950804e-06
1.3923131e-06
1.3894333e-06
1.3863661e-06
1.3831746e-06
1.3803593e-06
1.3770361e-06
1.3772155e-06
1.3810741e-06
1.4006335e-06
1.4666793e-06
1.7140076e-06
2.4125117e-06
3.9775347e-06
6.5067786e-06
9.7843964e-06
1.3395465e-05
1.7037927e-05
2.0637709e-05
2.421661e-05
2.778483e-05
3.1338874e-05
3.4876092e-05
3.8393284e-05
4.1887591e-05
4.5356324e-05
4.8797124e-05
5.2207307e-05
5.5590055e-05
5.8922041e-05
6.2318809e-05
6.5220027e-05
7.0357662e-05
1.468972e-06
1.4687006e-06
1.4684183e-06
1.4681262e-06
1.4678245e-06
1.467513e-06
1.4671913e-06
1.4668593e-06
1.4665165e-06
1.4661627e-06
1.4657975e-06
1.4654207e-06
1.4650319e-06
1.4646307e-06
1.4642169e-06
1.46379e-06
1.4633497e-06
1.4628956e-06
1.4624273e-06
1.4619442e-06
1.4614459e-06
1.4609318e-06
1.4604015e-06
1.4598544e-06
1.4592899e-06
1.4587075e-06
1.4581065e-06
1.4574863e-06
1.4568464e-06
1.4561859e-06
1.4555043e-06
1.4548009e-06
1.4540749e-06
1.4533255e-06
1.452552e-06
1.4517536e-06
1.4509293e-06
1.4500785e-06
1.4492001e-06
1.4482934e-06
1.4473572e-06
1.4463907e-06
1.4453928e-06
1.4443625e-06
1.4432985e-06
1.4421998e-06
1.4410652e-06
1.4398933e-06
1.4386829e-06
1.4374327e-06
1.4361413e-06
1.4348072e-06
1.4334292e-06
1.4320056e-06
1.4305347e-06
1.429015e-06
1.4274445e-06
1.4258214e-06
1.424144e-06
1.4224101e-06
1.4206178e-06
1.4187651e-06
1.4168496e-06
1.4148692e-06
1.4128215e-06
1.4107042e-06
1.4085147e-06
1.4062504e-06
1.4039077e-06
1.4014818e-06
1.3989638e-06
1.3963266e-06
1.3936187e-06
1.3906159e-06
1.387662e-06
1.3850428e-06
1.3826736e-06
1.3837135e-06
1.3919104e-06
1.4267029e-06
1.547682e-06
2.0017492e-06
3.1424398e-06
5.3985157e-06
8.6018309e-06
1.2353527e-05
1.6232562e-05
2.00791e-05
2.3899672e-05
2.7708468e-05
3.1503278e-05
3.5281518e-05
3.9040124e-05
4.2775933e-05
4.6485377e-05
5.0170746e-05
5.3806624e-05
5.7515566e-05
6.0693098e-05
6.631483e-05
1.4699453e-06
1.4697091e-06
1.4694635e-06
1.4692095e-06
1.4689471e-06
1.4686762e-06
1.4683965e-06
1.4681077e-06
1.4678096e-06
1.467502e-06
1.4671845e-06
1.4668569e-06
1.4665189e-06
1.4661701e-06
1.4658104e-06
1.4654393e-06
1.4650566e-06
1.464662e-06
1.4642549e-06
1.4638351e-06
1.4634021e-06
1.4629555e-06
1.4624948e-06
1.4620195e-06
1.4615292e-06
1.4610233e-06
1.4605014e-06
1.4599629e-06
1.4594072e-06
1.4588338e-06
1.4582422e-06
1.4576316e-06
1.4570015e-06
1.4563512e-06
1.4556801e-06
1.4549874e-06
1.4542724e-06
1.4535344e-06
1.4527727e-06
1.4519864e-06
1.4511748e-06
1.450337e-06
1.449472e-06
1.448579e-06
1.4476571e-06
1.4467052e-06
1.4457223e-06
1.4447073e-06
1.4436591e-06
1.4425767e-06
1.4414587e-06
1.440304e-06
1.4391115e-06
1.4378797e-06
1.4366073e-06
1.4352928e-06
1.4339347e-06
1.4325314e-06
1.4310813e-06
1.4295829e-06
1.4280343e-06
1.4264337e-06
1.4247794e-06
1.4230693e-06
1.4213015e-06
1.4194738e-06
1.4175842e-06
1.4156303e-06
1.41361e-06
1.4115207e-06
1.4093602e-06
1.4071241e-06
1.4048085e-06
1.4024035e-06
1.3998825e-06
1.3972652e-06
1.3944401e-06
1.3917198e-06
1.389346e-06
1.3885324e-06
1.3915981e-06
1.409774e-06
1.4778272e-06
1.7560375e-06
2.5810121e-06
4.562693e-06
7.6264327e-06
1.1468426e-05
1.5574262e-05
1.9670845e-05
2.3735235e-05
2.778712e-05
3.1826084e-05
3.5849149e-05
3.9852493e-05
4.3837543e-05
4.77767e-05
5.1799325e-05
5.5256008e-05
6.1370201e-05
1.4709115e-06
1.4707048e-06
1.47049e-06
1.4702679e-06
1.4700385e-06
1.4698017e-06
1.4695571e-06
1.4693047e-06
1.4690441e-06
1.4687751e-06
1.4684976e-06
1.4682112e-06
1.4679157e-06
1.4676109e-06
1.4672965e-06
1.4669722e-06
1.4666377e-06
1.4662928e-06
1.4659372e-06
1.4655703e-06
1.465192e-06
1.4648018e-06
1.4643994e-06
1.4639842e-06
1.463556e-06
1.4631142e-06
1.4626584e-06
1.4621882e-06
1.4617031e-06
1.4612026e-06
1.4606861e-06
1.4601532e-06
1.4596033e-06
1.4590359e-06
1.4584503e-06
1.457846e-06
1.4572223e-06
1.4565787e-06
1.4559144e-06
1.4552288e-06
1.4545211e-06
1.4537907e-06
1.4530368e-06
1.4522585e-06
1.4514551e-06
1.4506257e-06
1.4497694e-06
1.4488853e-06
1.4479724e-06
1.4470298e-06
1.4460564e-06
1.4450512e-06
1.4440132e-06
1.4429413e-06
1.4418341e-06
1.4406906e-06
1.4395093e-06
1.438289e-06
1.4370282e-06
1.4357256e-06
1.4343796e-06
1.4329888e-06
1.4315516e-06
1.4300662e-06
1.428531e-06
1.4269442e-06
1.4253039e-06
1.4236082e-06
1.4218551e-06
1.4200424e-06
1.4181682e-06
1.4162302e-06
1.4142257e-06
1.4121535e-06
1.4100081e-06
1.4077851e-06
1.4054679e-06
1.4030605e-06
1.4004592e-06
1.3978257e-06
1.395449e-06
1.3933501e-06
1.3945656e-06
1.4040673e-06
1.4459674e-06
1.6087502e-06
2.2380232e-06
3.8598309e-06
6.7901737e-06
1.0722127e-05
1.5062956e-05
1.9422681e-05
2.373963e-05
2.8040214e-05
3.2327691e-05
3.6604137e-05
4.0840653e-05
4.5173543e-05
4.8908007e-05
5.5517589e-05
1.4718764e-06
1.4716946e-06
1.4715059e-06
1.4713108e-06
1.4711092e-06
1.4709011e-06
1.4706863e-06
1.4704645e-06
1.4702356e-06
1.4699993e-06