/*--------------------------------*- C++ -*----------------------------------*\
  =========                 |
  \\      /  F ield         | OpenFOAM: The Open Source CFD Toolbox
   \\    /   O peration     | Website:  https://openfoam.org
    \\  /    A nd           | Version:  12
     \\/     M anipulation  |
\*---------------------------------------------------------------------------*/
FoamFile
{
    format      ascii;
    class       volScalarField;
    location    "1800";
    object      nut;
}
// * * * * * * * * * * * * * * * * * * * * * * * * * * * * * * * * * * * * * //

dimensions      [0 2 -1 0 0 0 0];

internalField   nonuniform List<scalar> 
13056
(
1.4725735e-06
1.4725964e-06
1.4727116e-06
1.4729872e-06
1.4734121e-06
1.4739619e-06
1.4746121e-06
1.4753414e-06
1.4761321e-06
1.4769689e-06
1.4778395e-06
1.478734e-06
1.4796447e-06
1.4805663e-06
1.4814954e-06
1.4824308e-06
1.4833736e-06
1.4843269e-06
1.4852945e-06
1.4862971e-06
1.4872887e-06
1.4884951e-06
1.4889553e-06
1.4873083e-06
2.8079668e-13
8.1220565e-14
6.569392e-14
6.0765316e-14
5.7729647e-14
5.5259451e-14
5.3132851e-14
5.1271893e-14
4.9623821e-14
4.8146902e-14
4.681059e-14
4.5592556e-14
4.4475615e-14
4.3445961e-14
4.2492276e-14
4.1605259e-14
4.0777158e-14
4.000143e-14
3.9272431e-14
3.8585318e-14
3.7935919e-14
3.7320563e-14
3.6736139e-14
3.6179862e-14
3.5649223e-14
3.5142105e-14
3.4656576e-14
3.419085e-14
3.3743395e-14
3.3312855e-14
3.2897936e-14
3.2497465e-14
3.2110458e-14
3.1735994e-14
3.1373167e-14
3.1021176e-14
3.0679347e-14
3.0347038e-14
3.0023598e-14
2.9708441e-14
2.9401093e-14
2.9101093e-14
2.8807962e-14
2.8521262e-14
2.8240622e-14
2.7965707e-14
2.7696177e-14
2.7431686e-14
2.7171922e-14
2.6916639e-14
2.6665589e-14
2.6418502e-14
2.6175122e-14
2.593523e-14
2.5698639e-14
2.5465153e-14
2.5234557e-14
2.5006647e-14
2.4781263e-14
2.4558253e-14
2.4337449e-14
2.4118672e-14
2.3901751e-14
2.3686561e-14
2.3472972e-14
2.3260825e-14
2.3049962e-14
2.2840241e-14
2.2631548e-14
2.2423757e-14
2.2216712e-14
2.2010255e-14
2.1804273e-14
2.1598649e-14
2.1393228e-14
2.1187848e-14
2.0982367e-14
2.0776662e-14
2.0570583e-14
2.0363949e-14
2.0156599e-14
1.9948392e-14
1.9739153e-14
1.9528671e-14
1.9316762e-14
1.9103246e-14
1.8887896e-14
1.8670443e-14
1.8450726e-14
1.8233247e-14
1.802481e-14
1.7827247e-14
1.7639662e-14
1.7461214e-14
1.7291146e-14
1.7128813e-14
1.6973636e-14
1.6825063e-14
1.6682591e-14
1.6545801e-14
1.6414311e-14
1.6287752e-14
1.6165776e-14
1.6048046e-14
1.5934295e-14
1.582414e-14
1.5717506e-14
1.5613154e-14
1.5512762e-14
1.5408739e-14
1.5318655e-14
1.516893e-14
1.4725734e-06
1.4725964e-06
1.4727115e-06
1.4729871e-06
1.4734119e-06
1.4739616e-06
1.4746118e-06
1.4753411e-06
1.4761317e-06
1.4769684e-06
1.477839e-06
1.4787334e-06
1.479644e-06
1.4805655e-06
1.4814946e-06
1.4824298e-06
1.4833725e-06
1.4843258e-06
1.4852933e-06
1.4862957e-06
1.4872872e-06
1.4884934e-06
1.4889539e-06
1.4873149e-06
2.0680327e-11
6.6973352e-12
5.4240428e-12
5.0174794e-12
4.7669919e-12
4.5632775e-12
4.3878894e-12
4.2343776e-12
4.0983972e-12
3.9765198e-12
3.8662332e-12
3.7656992e-12
3.6735023e-12
3.5885047e-12
3.5097739e-12
3.4365433e-12
3.3681739e-12
3.3041261e-12
3.2439345e-12
3.1871997e-12
3.1335775e-12
3.0827651e-12
3.0345059e-12
2.98857e-12
2.9447505e-12
2.9028727e-12
2.862777e-12
2.8243162e-12
2.7873638e-12
2.7518078e-12
2.7175415e-12
2.6844681e-12
2.6525064e-12
2.6215801e-12
2.5916147e-12
2.5625441e-12
2.5343125e-12
2.5068669e-12
2.4801536e-12
2.4541243e-12
2.4287398e-12
2.403962e-12
2.3797514e-12
2.3560718e-12
2.3328927e-12
2.3101862e-12
2.2879244e-12
2.2660788e-12
2.2446234e-12
2.2235381e-12
2.2028023e-12
2.1823937e-12
2.1622914e-12
2.142477e-12
2.1229351e-12
2.1036497e-12
2.084603e-12
2.065778e-12
2.0471615e-12
2.0287412e-12
2.010503e-12
1.9924322e-12
1.9745145e-12
1.9567399e-12
1.9390974e-12
1.921574e-12
1.9041566e-12
1.8868335e-12
1.8695953e-12
1.8524315e-12
1.8353293e-12
1.8182756e-12
1.8012612e-12
1.7842762e-12
1.767308e-12
1.7503431e-12
1.7333699e-12
1.7163781e-12
1.6993553e-12
1.6822868e-12
1.665159e-12
1.6479604e-12
1.6306765e-12
1.6132898e-12
1.5957853e-12
1.578148e-12
1.5603591e-12
1.5423965e-12
1.5242468e-12
1.506282e-12
1.489064e-12
1.4727443e-12
1.4572488e-12
1.442508e-12
1.4284594e-12
1.4150498e-12
1.4022313e-12
1.3899582e-12
1.3781892e-12
1.3668895e-12
1.3560276e-12
1.345573e-12
1.335497e-12
1.3257717e-12
1.3163752e-12
1.3072757e-12
1.2984672e-12
1.2898472e-12
1.2815542e-12
1.2729623e-12
1.2655208e-12
1.2531522e-12
1.4725733e-06
1.4725962e-06
1.4727112e-06
1.4729867e-06
1.4734113e-06
1.4739608e-06
1.4746108e-06
1.4753399e-06
1.4761303e-06
1.4769669e-06
1.4778372e-06
1.4787314e-06
1.4796418e-06
1.480563e-06
1.4814918e-06
1.4824268e-06
1.4833692e-06
1.4843221e-06
1.4852893e-06
1.4862913e-06
1.4872824e-06
1.4884878e-06
1.4889486e-06
1.4873167e-06
1.4975042e-10
5.3549275e-11
4.347577e-11
4.0222258e-11
3.821806e-11
3.6589177e-11
3.5186499e-11
3.3958251e-11
3.2869813e-11
3.1893964e-11
3.1010725e-11
3.0205448e-11
2.9466839e-11
2.8785816e-11
2.8154935e-11
2.7568071e-11
2.702012e-11
2.6506767e-11
2.6024291e-11
2.5569497e-11
2.5139632e-11
2.4732273e-11
2.4345366e-11
2.3977071e-11
2.3625733e-11
2.3289951e-11
2.2968449e-11
2.2660048e-11
2.2363734e-11
2.207861e-11
2.1803823e-11
2.1538597e-11
2.1282279e-11
2.1034261e-11
2.0793945e-11
2.0560801e-11
2.0334382e-11
2.0114263e-11
1.9900015e-11
1.969125e-11
1.9487654e-11
1.928892e-11
1.9094734e-11
1.8904806e-11
1.8718889e-11
1.8536761e-11
1.8358198e-11
1.8182972e-11
1.8010875e-11
1.7841744e-11
1.7675415e-11
1.751171e-11
1.7350459e-11
1.7191518e-11
1.7034761e-11
1.688006e-11
1.6727272e-11
1.6576262e-11
1.6426925e-11
1.6279159e-11
1.6132853e-11
1.5987889e-11
1.5844153e-11
1.5701564e-11
1.5560033e-11
1.5419457e-11
1.5279731e-11
1.5140761e-11
1.5002469e-11
1.4864775e-11
1.4727574e-11
1.4590762e-11
1.4454264e-11
1.4318001e-11
1.4181872e-11
1.4045769e-11
1.3909598e-11
1.3773278e-11
1.3636708e-11
1.3499771e-11
1.3362357e-11
1.3224375e-11
1.3085707e-11
1.2946215e-11
1.2805776e-11
1.2664271e-11
1.252155e-11
1.2377434e-11
1.2231816e-11
1.2087681e-11
1.1949536e-11
1.1818599e-11
1.1694274e-11
1.1576003e-11
1.1463286e-11
1.1355696e-11
1.1252847e-11
1.1154374e-11
1.1059946e-11
1.0969283e-11
1.0882132e-11
1.079825e-11
1.0717405e-11
1.0639374e-11
1.056398e-11
1.049097e-11
1.0420294e-11
1.0351134e-11
1.0284595e-11
1.0215671e-11
1.0155963e-11
1.0056719e-11
1.4725731e-06
1.4725959e-06
1.4727108e-06
1.472986e-06
1.4734103e-06
1.4739595e-06
1.4746091e-06
1.4753379e-06
1.4761279e-06
1.4769641e-06
1.4778341e-06
1.4787279e-06
1.4796379e-06
1.4805587e-06
1.4814871e-06
1.4824216e-06
1.4833634e-06
1.4843158e-06
1.4852823e-06
1.4862837e-06
1.4872741e-06
1.488478e-06
1.4889392e-06
1.4873138e-06
5.4897913e-10
2.168338e-10
1.7672271e-10
1.6353504e-10
1.5541515e-10
1.4882002e-10
1.431382e-10
1.3815949e-10
1.3374465e-10
1.2978461e-10
1.2619912e-10
1.229292e-10
1.1992928e-10
1.1716269e-10
1.1459934e-10
1.122145e-10
1.0998749e-10
1.0790086e-10
1.0593953e-10
1.0409057e-10
1.0234281e-10
1.0068645e-10
9.9113124e-11
9.7615398e-11
9.6186553e-11
9.4820897e-11
9.3513255e-11
9.2258846e-11
9.1053551e-11
8.9893727e-11
8.877591e-11
8.7696953e-11
8.6654198e-11
8.5645178e-11
8.4667466e-11
8.3718909e-11
8.2797686e-11
8.1902075e-11
8.1030331e-11
8.0180882e-11
7.9352441e-11
7.854377e-11
7.7753592e-11
7.6980725e-11
7.6224166e-11
7.5483013e-11
7.4756354e-11
7.4043264e-11
7.3342897e-11
7.2654591e-11
7.1977674e-11
7.131143e-11
7.0655168e-11
7.0008293e-11
6.93703e-11
6.8740664e-11
6.8118812e-11
6.7504189e-11
6.6896363e-11
6.6294925e-11
6.5699425e-11
6.5109382e-11
6.452433e-11
6.3943937e-11
6.3367847e-11
6.2795639e-11
6.2226884e-11
6.1661199e-11
6.1098273e-11
6.0537772e-11
5.9979273e-11
5.9422352e-11
5.8866703e-11
5.8312006e-11
5.7757849e-11
5.7203795e-11
5.664946e-11
5.609451e-11
5.5538539e-11
5.4981066e-11
5.4421651e-11
5.3859914e-11
5.3295383e-11
5.2727491e-11
5.2155738e-11
5.157964e-11
5.0998584e-11
5.0411847e-11
4.9818989e-11
4.923216e-11
4.8669719e-11
4.8136617e-11
4.763043e-11
4.7148892e-11
4.6689964e-11
4.6251903e-11
4.5833147e-11
4.5432206e-11
4.504773e-11
4.4678584e-11
4.4323735e-11
4.3982192e-11
4.3653017e-11
4.3335297e-11
4.3028316e-11
4.2731042e-11
4.244327e-11
4.2161681e-11
4.1890751e-11
4.161018e-11
4.136707e-11
4.0962947e-11
1.4725727e-06
1.4725955e-06
1.4727102e-06
1.472985e-06
1.4734088e-06
1.4739575e-06
1.4746067e-06
1.475335e-06
1.4761245e-06
1.4769602e-06
1.4778296e-06
1.4787229e-06
1.4796323e-06
1.4805525e-06
1.4814801e-06
1.4824139e-06
1.4833551e-06
1.4843066e-06
1.4852722e-06
1.4862726e-06
1.487262e-06
1.4884639e-06
1.4889253e-06
1.487306e-06
1.450355e-09
6.3453513e-10
5.2005689e-10
4.8145173e-10
4.5768909e-10
4.3839667e-10
4.2176207e-10
4.0717043e-10
3.9421909e-10
3.8259382e-10
3.7206254e-10
3.624541e-10
3.5363595e-10
3.4550118e-10
3.3796208e-10
3.3094642e-10
3.2439383e-10
3.1825323e-10
3.1248051e-10
3.0703778e-10
3.0189232e-10
2.9701539e-10
2.923825e-10
2.8797182e-10
2.8376364e-10
2.7974124e-10
2.7588943e-10
2.7219419e-10
2.6864341e-10
2.6522638e-10
2.6193293e-10
2.5875382e-10
2.5568123e-10
2.5270789e-10
2.498267e-10
2.4703131e-10
2.4431636e-10
2.4167679e-10
2.3910748e-10
2.366038e-10
2.3416195e-10
2.3177829e-10
2.2944909e-10
2.2717085e-10
2.2494061e-10
2.2275573e-10
2.2061352e-10
2.1851127e-10
2.1644647e-10
2.1441718e-10
2.1242142e-10
2.1045709e-10
2.0852215e-10
2.0661485e-10
2.0473369e-10
2.0287714e-10
2.010435e-10
1.9923115e-10
1.9743881e-10
1.9566527e-10
1.939092e-10
1.921692e-10
1.904439e-10
1.887323e-10
1.8703335e-10
1.8534583e-10
1.8366847e-10
1.8200014e-10
1.8033991e-10
1.7868681e-10
1.7703959e-10
1.7539701e-10
1.7375814e-10
1.7212206e-10
1.7048755e-10
1.6885331e-10
1.6721823e-10
1.655813e-10
1.6394134e-10
1.6229693e-10
1.6064676e-10
1.5898973e-10
1.5732442e-10
1.5564917e-10
1.5396252e-10
1.5226301e-10
1.5054886e-10
1.4881793e-10
1.470689e-10
1.4533764e-10
1.4367831e-10
1.4210551e-10
1.406121e-10
1.3919139e-10
1.3783738e-10
1.3654492e-10
1.353094e-10
1.3412644e-10
1.3299204e-10
1.3190286e-10
1.3085586e-10
1.2984812e-10
1.2887686e-10
1.2793939e-10
1.2703361e-10
1.2615646e-10
1.2530735e-10
1.2447653e-10
1.236771e-10
1.2284947e-10
1.2213214e-10
1.2093961e-10
1.4725723e-06
1.472595e-06
1.4727093e-06
1.4729836e-06
1.4734068e-06
1.4739549e-06
1.4746034e-06
1.475331e-06
1.4761199e-06
1.4769549e-06
1.4778236e-06
1.4787161e-06
1.4796247e-06
1.480544e-06
1.4814708e-06
1.4824037e-06
1.4833438e-06
1.4842943e-06
1.4852587e-06
1.4862577e-06
1.4872458e-06
1.4884449e-06
1.4889065e-06
1.4872934e-06
3.161092e-09
1.5378563e-09
1.2704649e-09
1.1770887e-09
1.1195558e-09
1.072841e-09
1.0325035e-09
9.970631e-10
9.6556333e-10
9.3725969e-10
9.1159956e-10
8.8817343e-10
8.6666292e-10
8.4681063e-10
8.2840512e-10
8.1127197e-10
7.9526521e-10
7.8026112e-10
7.6615283e-10
7.5284836e-10
7.4026833e-10
7.2834293e-10
7.1701258e-10
7.0622421e-10
6.9592994e-10
6.8608897e-10
6.7666437e-10
6.6762201e-10
6.5893233e-10
6.5056923e-10
6.4250798e-10
6.3472602e-10
6.2720422e-10
6.1992491e-10
6.1287076e-10
6.060263e-10
5.9937837e-10
5.9291465e-10
5.8662268e-10
5.8049113e-10
5.745107e-10
5.6867251e-10
5.6296744e-10
5.5738698e-10
5.5192388e-10
5.4657164e-10
5.4132374e-10
5.3617353e-10
5.3111493e-10
5.2614312e-10
5.2125328e-10
5.1644029e-10
5.1169918e-10
5.0702563e-10
5.02416e-10
4.9786652e-10
4.9337308e-10
4.8893168e-10
4.8453917e-10
4.8019262e-10
4.7588879e-10
4.7162422e-10
4.6739556e-10
4.6320036e-10
4.5903608e-10
4.5489971e-10
4.5078814e-10
4.466986e-10
4.4262883e-10
4.3857642e-10
4.3453835e-10
4.3051154e-10
4.2649375e-10
4.2248269e-10
4.1847539e-10
4.1446869e-10
4.1045981e-10
4.0644631e-10
4.0242529e-10
3.9839327e-10
3.9434704e-10
3.9028387e-10
3.8620034e-10
3.8209234e-10
3.7795627e-10
3.737886e-10
3.695849e-10
3.6533997e-10
3.6105057e-10
3.5680462e-10
3.52735e-10
3.4887752e-10
3.4521469e-10
3.4173011e-10
3.3840905e-10
3.352389e-10
3.3220838e-10
3.2930672e-10
3.2652415e-10
3.2385246e-10
3.212842e-10
3.1881219e-10
3.1642966e-10
3.1413e-10
3.1190805e-10
3.0975635e-10
3.0767339e-10
3.0563538e-10
3.0367429e-10
3.0164463e-10
2.9988494e-10
2.9695914e-10
1.4725717e-06
1.4725943e-06
1.4727082e-06
1.4729819e-06
1.4734043e-06
1.4739516e-06
1.4745992e-06
1.475326e-06
1.476114e-06
1.4769481e-06
1.4778159e-06
1.4787074e-06
1.479615e-06
1.4805333e-06
1.4814589e-06
1.4823906e-06
1.4833294e-06
1.4842784e-06
1.4852413e-06
1.4862386e-06
1.487225e-06
1.4884205e-06
1.4888824e-06
1.4872757e-06
6.0677528e-09
3.2959078e-09
2.7535457e-09
2.554867e-09
2.4319331e-09
2.3319976e-09
2.2454953e-09
2.1693095e-09
2.101458e-09
2.0403987e-09
1.9849783e-09
1.9343364e-09
1.8878001e-09
1.8448236e-09
1.8049571e-09
1.7678291e-09
1.7331278e-09
1.7005884e-09
1.6699819e-09
1.641111e-09
1.613805e-09
1.587914e-09
1.5633095e-09
1.5398774e-09
1.5175146e-09
1.4961329e-09
1.4756527e-09
1.4560005e-09
1.4371121e-09
1.4189314e-09
1.4014048e-09
1.3844837e-09
1.3681264e-09
1.352295e-09
1.3369519e-09
1.3220635e-09
1.3076014e-09
1.2935389e-09
1.279849e-09
1.2665073e-09
1.2534933e-09
1.2407881e-09
1.2283717e-09
1.2162259e-09
1.2043347e-09
1.1926841e-09
1.18126e-09
1.170048e-09
1.1590348e-09
1.14821e-09
1.1375631e-09
1.1270831e-09
1.1167591e-09
1.1065818e-09
1.0965431e-09
1.086635e-09
1.0768486e-09
1.0671751e-09
1.0576077e-09
1.0481399e-09
1.0387649e-09
1.029475e-09
1.0202631e-09
1.0111236e-09
1.0020512e-09
9.9303918e-10
9.8408093e-10
9.7517035e-10
9.6630251e-10
9.5747218e-10
9.486728e-10
9.3989767e-10
9.3114188e-10
9.2240044e-10
9.1366691e-10
9.049344e-10
8.9619683e-10
8.874489e-10
8.7868428e-10
8.6989539e-10
8.6107525e-10
8.5221785e-10
8.4331577e-10
8.3436008e-10
8.2534287e-10
8.1625645e-10
8.0709119e-10
7.9783571e-10
7.8848294e-10
7.7922459e-10
7.7035042e-10
7.6193861e-10
7.5395098e-10
7.4635189e-10
7.3910919e-10
7.3219542e-10
7.25586e-10
7.1925748e-10
7.1318856e-10
7.0736137e-10
7.0175962e-10
6.9636773e-10
6.9117092e-10
6.861548e-10
6.813081e-10
6.766146e-10
6.7207099e-10
6.6762561e-10
6.6334774e-10
6.589218e-10
6.5508332e-10
6.4870002e-10
1.4725709e-06
1.4725934e-06
1.4727069e-06
1.4729797e-06
1.4734012e-06
1.4739474e-06
1.474594e-06
1.4753197e-06
1.4761066e-06
1.4769396e-06
1.4778062e-06
1.4786965e-06
1.4796029e-06
1.4805198e-06
1.481444e-06
1.4823742e-06
1.4833114e-06
1.4842587e-06
1.4852197e-06
1.4862148e-06
1.487199e-06
1.4883902e-06
1.4888522e-06
1.4872531e-06
1.06329e-08
6.469736e-09
5.4911346e-09
5.1078155e-09
4.8681317e-09
4.6726652e-09
4.5027883e-09
4.3526136e-09
4.2184662e-09
4.097475e-09
3.9874683e-09
3.8868094e-09
3.7942067e-09
3.7086061e-09
3.629136e-09
3.5550736e-09
3.4858105e-09
3.4208282e-09
3.3596774e-09
3.3019699e-09
3.2473699e-09
3.1955817e-09
3.1463516e-09
3.0994541e-09
3.0546851e-09
3.0118699e-09
2.9708507e-09
2.9314818e-09
2.893636e-09
2.8572013e-09
2.8220717e-09
2.7881504e-09
2.7553545e-09
2.7236081e-09
2.6928371e-09
2.6629743e-09
2.6339629e-09
2.6057497e-09
2.5782812e-09
2.5515085e-09
2.5253909e-09
2.4998901e-09
2.474967e-09
2.4505847e-09
2.4267115e-09
2.4033193e-09
2.38038e-09
2.3578649e-09
2.3357474e-09
2.3140065e-09
2.2926214e-09
2.2715699e-09
2.2508305e-09
2.2303844e-09
2.2102155e-09
2.1903076e-09
2.170643e-09
2.1512042e-09
2.1319773e-09
2.1129496e-09
2.0941071e-09
2.0754348e-09
2.056918e-09
2.0385459e-09
2.0203075e-09
2.0021897e-09
1.984179e-09
1.9662632e-09
1.9484324e-09
1.9306761e-09
1.9129811e-09
1.8953341e-09
1.877725e-09
1.8601438e-09
1.8425778e-09
1.8250129e-09
1.807437e-09
1.7898393e-09
1.7722072e-09
1.7545255e-09
1.73678e-09
1.7189586e-09
1.7010465e-09
1.6830257e-09
1.6648801e-09
1.6465944e-09
1.6281491e-09
1.6095213e-09
1.5906967e-09
1.5720612e-09
1.5541981e-09
1.537265e-09
1.521185e-09
1.5058866e-09
1.491305e-09
1.4773852e-09
1.4640777e-09
1.4513352e-09
1.4391152e-09
1.4273814e-09
1.4161013e-09
1.4052434e-09
1.3947782e-09
1.3846765e-09
1.3749159e-09
1.3654636e-09
1.356313e-09
1.3473606e-09
1.3387448e-09
1.3298342e-09
1.3221036e-09
1.3092447e-09
1.4725701e-06
1.4725924e-06
1.4727052e-06
1.472977e-06
1.4733973e-06
1.4739423e-06
1.4745876e-06
1.475312e-06
1.4760976e-06
1.4769292e-06
1.4777944e-06
1.4786832e-06
1.479588e-06
1.4805033e-06
1.4814258e-06
1.4823541e-06
1.4832893e-06
1.4842345e-06
1.4851931e-06
1.4861856e-06
1.4871673e-06
1.488353e-06
1.4888154e-06
1.4872255e-06
1.7378673e-08
1.1859931e-08
1.0290293e-08
9.6123511e-09
9.1791647e-09
8.8234329e-09
8.5121867e-09
8.2354467e-09
7.9871202e-09
7.7623841e-09
7.5575197e-09
7.3696775e-09
7.1965777e-09
7.0363398e-09
6.8873995e-09
6.748452e-09
6.6183933e-09
6.4962779e-09
6.3812837e-09
6.2726979e-09
6.1699028e-09
6.0723534e-09
5.9795803e-09
5.8911666e-09
5.8067343e-09
5.7259583e-09
5.6485458e-09
5.5742261e-09
5.5027616e-09
5.4339434e-09
5.3675747e-09
5.3034742e-09
5.2414867e-09
5.1814705e-09
5.1232873e-09
5.0668113e-09
5.0119355e-09
4.9585605e-09
4.9065866e-09
4.8559216e-09
4.8064888e-09
4.7582166e-09
4.7110319e-09
4.6648652e-09
4.6196567e-09
4.5753536e-09
4.5319031e-09
4.4892516e-09
4.4473488e-09
4.4061548e-09
4.3656307e-09
4.325735e-09
4.2864271e-09
4.2476712e-09
4.2094371e-09
4.1716943e-09
4.1344095e-09
4.0975497e-09
4.0610886e-09
4.0250021e-09
3.9892639e-09
3.9538456e-09
3.9187197e-09
3.8838653e-09
3.8492618e-09
3.8148846e-09
3.7807081e-09
3.7467091e-09
3.7128688e-09
3.6791673e-09
3.64558e-09
3.6120812e-09
3.578652e-09
3.5452734e-09
3.5119211e-09
3.4785689e-09
3.4451932e-09
3.4117739e-09
3.3782868e-09
3.3447032e-09
3.3109961e-09
3.2771426e-09
3.2431142e-09
3.2088769e-09
3.1744002e-09
3.1396546e-09
3.1046034e-09
3.069203e-09
3.0334259e-09
2.9980055e-09
2.964051e-09
2.931862e-09
2.9012929e-09
2.8722078e-09
2.8444841e-09
2.818017e-09
2.7927127e-09
2.7684819e-09
2.7452433e-09
2.7229285e-09
2.7014755e-09
2.6808247e-09
2.6609198e-09
2.641706e-09
2.6231399e-09
2.6051601e-09
2.5877535e-09
2.5707247e-09
2.5543347e-09
2.5373903e-09
2.5226847e-09
2.4982161e-09
1.472569e-06
1.4725911e-06
1.4727033e-06
1.4729738e-06
1.4733927e-06
1.4739361e-06
1.4745799e-06
1.4753027e-06
1.4760867e-06
1.4769166e-06
1.4777801e-06
1.4786671e-06
1.47957e-06
1.4804833e-06
1.4814038e-06
1.4823298e-06
1.4832626e-06
1.4842053e-06
1.4851611e-06
1.4861504e-06
1.487129e-06
1.4883082e-06
1.4887711e-06
1.4871933e-06
2.6854961e-08
2.0514287e-08
1.8340872e-08
1.7248211e-08
1.6520479e-08
1.5914535e-08
1.5378353e-08
1.4897252e-08
1.4462526e-08
1.4067034e-08
1.3705071e-08
1.337214e-08
1.3064551e-08
1.2779207e-08
1.2513503e-08
1.2265245e-08
1.2032561e-08
1.1813835e-08
1.1607653e-08
1.1412785e-08
1.1228158e-08
1.1052826e-08
1.0885967e-08
1.0726853e-08
1.0574821e-08
1.0429298e-08
1.028977e-08
1.0155758e-08
1.0026843e-08
9.9026542e-09
9.782844e-09
9.6670908e-09
9.5551179e-09
9.446674e-09
9.3415134e-09
9.2394121e-09
9.1401781e-09
9.0436352e-09
8.9496056e-09
8.8579244e-09
8.7684539e-09
8.6810666e-09
8.5956317e-09
8.5120251e-09
8.4301393e-09
8.3498791e-09
8.2711507e-09
8.1938577e-09
8.1179102e-09
8.0432356e-09
7.9697646e-09
7.8974227e-09
7.826137e-09
7.7558428e-09
7.6864858e-09
7.6180111e-09
7.550359e-09
7.48347e-09
7.4172963e-09
7.3517945e-09
7.2869174e-09
7.222614e-09
7.1588342e-09
7.0955403e-09
7.032695e-09
6.970254e-09
6.9081711e-09
6.8464041e-09
6.7849188e-09
6.7236794e-09
6.6626414e-09
6.6017582e-09
6.5409952e-09
6.480318e-09
6.4196827e-09
6.3590415e-09
6.2983518e-09
6.2375766e-09
6.1766722e-09
6.1155863e-09
6.0542698e-09
5.9926807e-09
5.9307674e-09
5.8684681e-09
5.8057268e-09
5.74249e-09
5.6786905e-09
5.614249e-09
5.5491151e-09
5.4846239e-09
5.4227957e-09
5.3641768e-09
5.308503e-09
5.2555274e-09
5.2050276e-09
5.1568129e-09
5.1107131e-09
5.066566e-09
5.0242238e-09
4.9835623e-09
4.9444685e-09
4.9068346e-09
4.8705581e-09
4.8355392e-09
4.8016992e-09
4.7689265e-09
4.7371973e-09
4.7061577e-09
4.6762793e-09
4.645403e-09
4.6185963e-09
4.5739745e-09
1.4725677e-06
1.4725896e-06
1.4727009e-06
1.47297e-06
1.4733872e-06
1.4739288e-06
1.4745707e-06
1.4752917e-06
1.4760737e-06
1.4769016e-06
1.477763e-06
1.4786479e-06
1.4795486e-06
1.4804595e-06
1.4813774e-06
1.4823008e-06
1.4832308e-06
1.4841704e-06
1.4851229e-06
1.4861084e-06
1.4870833e-06
1.4882548e-06
1.4887185e-06
1.4871568e-06
3.9586663e-08
3.3664042e-08
3.1281841e-08
2.9720775e-08
2.8596679e-08
2.763541e-08
2.6768333e-08
2.5978837e-08
2.5257562e-08
2.4595985e-08
2.3986713e-08
2.3423565e-08
2.2901218e-08
2.2415054e-08
2.1961102e-08
2.1535962e-08
2.1136691e-08
2.0760711e-08
2.0405748e-08
2.0069804e-08
1.9751128e-08
1.9448164e-08
1.9159557e-08
1.8884099e-08
1.8620689e-08
1.8368366e-08
1.8126269e-08
1.7893598e-08
1.7669643e-08
1.745378e-08
1.724542e-08
1.7044021e-08
1.6849109e-08
1.666026e-08
1.6477056e-08
1.6299115e-08
1.6126108e-08
1.5957734e-08
1.5793691e-08
1.5633697e-08
1.5477512e-08
1.532492e-08
1.5175698e-08
1.5029631e-08
1.4886534e-08
1.4746243e-08
1.4608598e-08
1.4473432e-08
1.4340589e-08
1.4209946e-08
1.408138e-08
1.3954766e-08
1.3829976e-08
1.3706899e-08
1.3585439e-08
1.3465503e-08
1.3346987e-08
1.3229788e-08
1.3113823e-08
1.2999015e-08
1.2885284e-08
1.277254e-08
1.2660698e-08
1.254969e-08
1.2439452e-08
1.2329906e-08
1.2220973e-08
1.2112579e-08
1.2004662e-08
1.1897162e-08
1.1790001e-08
1.1683096e-08
1.1576387e-08
1.1469814e-08
1.13633e-08
1.1256761e-08
1.1150122e-08
1.1043318e-08
1.0936273e-08
1.0828894e-08
1.0721095e-08
1.0612802e-08
1.0503925e-08
1.0394353e-08
1.0283989e-08
1.0172738e-08
1.0060482e-08
9.9470806e-09
9.8324443e-09
9.718923e-09
9.6100746e-09
9.506863e-09
9.4088246e-09
9.315527e-09
9.2265796e-09
9.1416482e-09
9.0604338e-09
8.9826521e-09
8.9080437e-09
8.8363902e-09
8.7674936e-09
8.7011644e-09
8.6372228e-09
8.5754935e-09
8.5158383e-09
8.4580611e-09
8.4021201e-09
8.3473962e-09
8.2947125e-09
8.2402933e-09
8.1930288e-09
8.114311e-09
1.4725662e-06
1.4725878e-06
1.4726982e-06
1.4729655e-06
1.4733806e-06
1.4739201e-06
1.4745598e-06
1.4752785e-06
1.4760582e-06
1.4768838e-06
1.4777428e-06
1.4786251e-06
1.4795231e-06
1.4804312e-06
1.4813462e-06
1.4822664e-06
1.483193e-06
1.484129e-06
1.4850776e-06
1.4860587e-06
1.4870292e-06
1.4881915e-06
1.4886571e-06
1.4871167e-06
5.5996832e-08
5.2578859e-08
5.1162948e-08
4.9322941e-08
4.7774744e-08
4.6380807e-08
4.5080791e-08
4.3868152e-08
4.2740556e-08
4.1692688e-08
4.0718083e-08
3.9810281e-08
3.8963001e-08
3.8170356e-08
3.7427046e-08
3.6728385e-08
3.607019e-08
3.5448716e-08
3.4860593e-08
3.4302817e-08
3.3772728e-08
3.3267938e-08
3.2786349e-08
3.2326079e-08
3.1885399e-08
3.1462792e-08
3.1056892e-08
3.0666427e-08
3.0290257e-08
2.9927379e-08
2.9576852e-08
2.9237793e-08
2.8909437e-08
2.8591093e-08
2.8282086e-08
2.7981788e-08
2.7689663e-08
2.7405218e-08
2.712796e-08
2.6857422e-08
2.6593213e-08
2.6334974e-08
2.6082338e-08
2.5834952e-08
2.5592508e-08
2.5354734e-08
2.5121364e-08
2.4892126e-08
2.4666759e-08
2.4445052e-08
2.4226808e-08
2.4011816e-08
2.3799863e-08
2.3590763e-08
2.3384356e-08
2.3180486e-08
2.297898e-08
2.2779665e-08
2.2582401e-08
2.2387059e-08
2.2193506e-08
2.2001591e-08
2.1811168e-08
2.1622125e-08
2.1434351e-08
2.1247719e-08
2.1062092e-08
2.0877345e-08
2.0693376e-08
2.0510079e-08
2.0327324e-08
2.0144972e-08
1.9962918e-08
1.978106e-08
1.9599269e-08
1.9417401e-08
1.9235328e-08
1.9052938e-08
1.8870102e-08
1.8686663e-08
1.8502471e-08
1.83174e-08
1.8131295e-08
1.794397e-08
1.7755254e-08
1.7564984e-08
1.737296e-08
1.717894e-08
1.6982769e-08
1.6788468e-08
1.6602131e-08
1.6425412e-08
1.6257522e-08
1.6097726e-08
1.5945358e-08
1.5799847e-08
1.5660686e-08
1.5527389e-08
1.5399515e-08
1.527669e-08
1.5158577e-08
1.5044853e-08
1.4935211e-08
1.4829352e-08
1.4727041e-08
1.4627942e-08
1.4531984e-08
1.4438114e-08
1.434773e-08
1.4254411e-08
1.4173331e-08
1.4038199e-08
1.4725644e-06
1.4725857e-06
1.4726949e-06
1.4729603e-06
1.473373e-06
1.4739099e-06
1.474547e-06
1.4752631e-06
1.4760401e-06
1.4768629e-06
1.4777189e-06
1.4785982e-06
1.479493e-06
1.4803979e-06
1.4813093e-06
1.4822259e-06
1.4831486e-06
1.4840803e-06
1.4850242e-06
1.4860001e-06
1.4869655e-06
1.4881171e-06
1.4885871e-06
1.4870743e-06
7.6320391e-08
7.834498e-08
8.0228123e-08
7.8829732e-08
7.7061239e-08
7.5288388e-08
7.3530947e-08
7.1822802e-08
7.018762e-08
6.8635566e-08
6.7168938e-08
6.578594e-08
6.4482368e-08
6.3252947e-08
6.2092246e-08
6.0995042e-08
5.9956353e-08
5.8971479e-08
5.8036024e-08
5.7145959e-08
5.6297643e-08
5.5487741e-08
5.471328e-08
5.3971563e-08
5.3260078e-08
5.2576592e-08
5.1919093e-08
5.1285681e-08
5.0674641e-08
5.0084459e-08
4.9513709e-08
4.8961043e-08
4.8425282e-08
4.7905368e-08
4.7400259e-08
4.6908981e-08
4.6430693e-08
4.5964633e-08
4.5510031e-08
4.5066152e-08
4.4632377e-08
4.4208144e-08
4.3792877e-08
4.3386015e-08
4.2987066e-08
4.2595601e-08
4.2211197e-08
4.1833421e-08
4.1461856e-08
4.1096163e-08
4.0736026e-08
4.038111e-08
4.0031073e-08
3.9685611e-08
3.9344469e-08
3.9007395e-08
3.8674112e-08
3.8344339e-08
3.8017845e-08
3.7694425e-08
3.7373861e-08
3.7055911e-08
3.6740334e-08
3.6426944e-08
3.6115565e-08
3.5805988e-08
3.5497989e-08
3.5191361e-08
3.4885936e-08
3.4581541e-08
3.4277963e-08
3.3974972e-08
3.3672393e-08
3.3370057e-08
3.3067752e-08
3.276524e-08
3.2462307e-08
3.2158766e-08
3.1854402e-08
3.1548956e-08
3.1242178e-08
3.0933854e-08
3.0623727e-08
3.0311486e-08
2.9996845e-08
2.9679532e-08
2.9359208e-08
2.9035469e-08
2.8708055e-08
2.8383676e-08
2.8072512e-08
2.7777338e-08
2.7496848e-08
2.722982e-08
2.6975152e-08
2.6731898e-08
2.6499213e-08
2.6276295e-08
2.6062408e-08
2.5856932e-08
2.5659308e-08
2.5468999e-08
2.5285495e-08
2.5108298e-08
2.4937016e-08
2.4771094e-08
2.4610411e-08
2.4453223e-08
2.4301842e-08
2.414562e-08
2.4009835e-08
2.3783327e-08
1.4725623e-06
1.4725833e-06
1.4726911e-06
1.4729542e-06
1.4733641e-06
1.473898e-06
1.4745321e-06
1.475245e-06
1.4760188e-06
1.4768383e-06
1.4776909e-06
1.4785667e-06
1.4794578e-06
1.4803588e-06
1.4812661e-06
1.4821784e-06
1.4830964e-06
1.4840232e-06
1.4849618e-06
1.4859316e-06
1.4868911e-06
1.4880302e-06
1.4885084e-06
1.4870313e-06
1.0052271e-07
1.1160415e-07
1.2052473e-07
1.2113815e-07
1.1981676e-07
1.1802226e-07
1.1599785e-07
1.1387502e-07
1.1173866e-07
1.0963849e-07
1.0760217e-07
1.0564385e-07
1.0376898e-07
1.0197812e-07
1.0026943e-07
9.8639823e-08
9.7085416e-08
9.5601887e-08
9.4184748e-08
9.2829596e-08
9.1532259e-08
9.0288765e-08
8.9095451e-08
8.794893e-08
8.6845951e-08
8.5783571e-08
8.4759107e-08
8.3769985e-08
8.2813844e-08
8.1888586e-08
8.0992222e-08
8.0122843e-08
7.9278765e-08
7.8458477e-08
7.7660485e-08
7.6883366e-08
7.6125889e-08
7.5386944e-08
7.4665404e-08
7.3960176e-08
7.3270333e-08
7.2595043e-08
7.1933451e-08
7.1284714e-08
7.0648084e-08
7.0022913e-08
6.9408568e-08
6.8804392e-08
6.8209746e-08
6.7624108e-08
6.7047002e-08
6.6477913e-08
6.5916318e-08
6.5361744e-08
6.4813795e-08
6.4272085e-08
6.3736188e-08
6.3205664e-08
6.268015e-08
6.2159326e-08
6.1642855e-08
6.1130357e-08
6.0621453e-08
6.0115846e-08
5.961326e-08
5.9113369e-08
5.8615816e-08
5.812027e-08
5.7626462e-08
5.7134119e-08
5.6642902e-08
5.6152442e-08
5.5662455e-08
5.5172671e-08
5.4682749e-08
5.4192307e-08
5.3700995e-08
5.3208513e-08
5.2714511e-08
5.2218568e-08
5.1720279e-08
5.1219293e-08
5.0715192e-08
5.0207469e-08
4.9695655e-08
4.9179301e-08
4.8657856e-08
4.813066e-08
4.7597276e-08
4.7068639e-08
4.6561357e-08
4.607998e-08
4.5622399e-08
4.5186649e-08
4.4770948e-08
4.4373767e-08
4.3993743e-08
4.3629579e-08
4.3280085e-08
4.2944257e-08
4.262119e-08
4.2310016e-08
4.2009909e-08
4.1720063e-08
4.1439839e-08
4.1168339e-08
4.0905368e-08
4.0648104e-08
4.0400282e-08
4.0144663e-08
3.9922393e-08
3.9551207e-08
1.4725599e-06
1.4725804e-06
1.4726868e-06
1.4729471e-06
1.4733537e-06
1.4738842e-06
1.4745147e-06
1.4752239e-06
1.475994e-06
1.4768096e-06
1.4776583e-06
1.4785299e-06
1.4794167e-06
1.4803132e-06
1.4812158e-06
1.482123e-06
1.4830357e-06
1.4839567e-06
1.484889e-06
1.4858519e-06
1.4868044e-06
1.4879291e-06
1.488421e-06
1.4869904e-06
1.2823827e-07
1.5232015e-07
1.734345e-07
1.7870027e-07
1.7918536e-07
1.7822339e-07
1.7651026e-07
1.7436212e-07
1.7197652e-07
1.6947936e-07
1.6695047e-07
1.6443927e-07
1.6197474e-07
1.5957335e-07
1.5724444e-07
1.5499288e-07
1.5282032e-07
1.5072615e-07
1.4870837e-07
1.4676418e-07
1.4489044e-07
1.4308373e-07
1.4134064e-07
1.3965783e-07
1.3803186e-07
1.3645951e-07
1.3493776e-07
1.3346361e-07
1.3203424e-07
1.3064709e-07
1.2929973e-07
1.2798972e-07
1.2671492e-07
1.2547339e-07
1.2426319e-07
1.2308242e-07
1.2192943e-07
1.2080276e-07
1.1970088e-07
1.1862228e-07
1.1756569e-07
1.1652998e-07
1.1551395e-07
1.1451643e-07
1.1353636e-07
1.1257282e-07
1.1162493e-07
1.1069175e-07
1.0977236e-07
1.0886601e-07
1.0797201e-07
1.0708963e-07
1.0621811e-07
1.0535675e-07
1.0450496e-07
1.036622e-07
1.0282782e-07
1.0200119e-07
1.0118175e-07
1.0036904e-07
9.9562539e-08
9.8761699e-08
9.7965936e-08
9.7174802e-08
9.638788e-08
9.5604678e-08
9.4824655e-08
9.40473e-08
9.3272196e-08
9.2498929e-08
9.1726978e-08
9.0955771e-08
9.018486e-08
8.9413829e-08
8.8642149e-08
8.7869221e-08
8.7094492e-08
8.6317488e-08
8.5537663e-08
8.4754352e-08
8.396691e-08
8.3174776e-08
8.2377292e-08
8.1573649e-08
8.0763095e-08
7.9944913e-08
7.9118222e-08
7.8281964e-08
7.7435433e-08
7.6595981e-08
7.5790022e-08
7.5024844e-08
7.4297153e-08
7.3603874e-08
7.2942216e-08
7.2309783e-08
7.1704441e-08
7.1124152e-08
7.0567048e-08
7.0031551e-08
6.9516238e-08
6.9019746e-08
6.8540774e-08
6.8078051e-08
6.7630571e-08
6.7196919e-08
6.6776786e-08
6.6365726e-08
6.5969624e-08
6.5561261e-08
6.5206018e-08
6.4611958e-08
1.4725571e-06
1.4725771e-06
1.4726817e-06
1.4729389e-06
1.4733418e-06
1.4738682e-06
1.4744945e-06
1.4751995e-06
1.4759652e-06
1.4767763e-06
1.4776204e-06
1.4784872e-06
1.479369e-06
1.4802601e-06
1.4811572e-06
1.4820586e-06
1.4829651e-06
1.4838795e-06
1.4848046e-06
1.4857594e-06
1.486704e-06
1.4878119e-06
1.488325e-06
1.4869549e-06
1.5874017e-07
1.9965223e-07
2.3924831e-07
2.5293659e-07
2.574078e-07
2.5875671e-07
2.5845252e-07
2.5711276e-07
2.5511108e-07
2.5269475e-07
2.500304e-07
2.4722901e-07
2.4436263e-07
2.4147859e-07
2.3860915e-07
2.3577649e-07
2.3299522e-07
2.3027439e-07
2.2761917e-07
2.2503222e-07
2.2251452e-07
2.2006581e-07
2.1768499e-07
2.1537048e-07
2.131201e-07
2.1093147e-07
2.088022e-07
2.0672968e-07
2.0471125e-07
2.0274446e-07
2.0082687e-07
1.9895592e-07
1.9712927e-07
1.9534484e-07
1.9360044e-07
1.9189388e-07
1.9022322e-07
1.8858674e-07
1.8698264e-07
1.8540906e-07
1.8386441e-07
1.8234731e-07
1.8085627e-07
1.793898e-07
1.7794651e-07
1.7652524e-07
1.7512486e-07
1.7374413e-07
1.7238185e-07