/*--------------------------------*- C++ -*----------------------------------*\
  =========                 |
  \\      /  F ield         | OpenFOAM: The Open Source CFD Toolbox
   \\    /   O peration     | Website:  https://openfoam.org
    \\  /    A nd           | Version:  12
     \\/     M anipulation  |
\*---------------------------------------------------------------------------*/
FoamFile
{
    format      ascii;
    class       volScalarField;
    location    "1800";
    object      nuTilda;
}
// * * * * * * * * * * * * * * * * * * * * * * * * * * * * * * * * * * * * * //

dimensions      [0 2 -1 0 0 0 0];

internalField   nonuniform List<scalar> 
7480
(
1.7134497e-06
1.4356331e-06
1.3059194e-06
1.2754115e-06
1.2976169e-06
1.3601132e-06
1.4658582e-06
1.6238325e-06
1.8501133e-06
2.1695401e-06
2.6148107e-06
3.222307e-06
4.0134103e-06
4.9521137e-06
5.9132334e-06
6.7325085e-06
7.3047575e-06
7.619542e-06
7.7540649e-06
7.7246012e-06
7.6339402e-06
7.5062301e-06
7.3615012e-06
7.2208348e-06
7.1141149e-06
7.0469802e-06
7.0110906e-06
6.9956872e-06
6.9931642e-06
6.9992821e-06
7.0103123e-06
7.0227108e-06
7.0345836e-06
7.0133735e-06
6.9772706e-06
6.9414415e-06
6.9102742e-06
6.8845897e-06
6.863342e-06
6.8447358e-06
6.8272321e-06
6.8100349e-06
6.7929594e-06
6.7765006e-06
6.7635389e-06
6.7619274e-06
6.8010306e-06
6.9510341e-06
7.32398e-06
7.9586116e-06
8.5877233e-06
9.0180325e-06
9.3327832e-06
9.5474665e-06
9.6839944e-06
9.7684718e-06
9.8229628e-06
9.8620341e-06
9.892185e-06
9.9171616e-06
9.9386375e-06
9.9574646e-06
9.9743118e-06
9.9898071e-06
1.0004342e-05
1.0018249e-05
1.0031906e-05
1.0045535e-05
1.0059239e-05
1.0073119e-05
1.0087302e-05
1.0101924e-05
1.0117114e-05
1.0132992e-05
1.0149674e-05
1.0167274e-05
1.0185899e-05
1.0205655e-05
1.0226639e-05
1.0248938e-05
1.0272625e-05
1.0297741e-05
1.0324201e-05
1.0350974e-05
1.0365705e-05
1.010636e-05
4.3237905e-06
4.0198193e-06
4.0424624e-06
4.058608e-06
4.0684259e-06
4.0760369e-06
4.0812314e-06
4.0844804e-06
4.0862857e-06
4.0870253e-06
4.08692e-06
4.0862002e-06
4.0849157e-06
4.0807903e-06
1.9458848e-06
1.8953619e-06
1.8402283e-06
1.7854572e-06
1.7326564e-06
1.6831045e-06
1.6362905e-06
1.5996505e-06
1.5633596e-06
1.5749251e-06
1.6119604e-06
1.6815722e-06
1.7944511e-06
1.967768e-06
2.2210413e-06
2.5683214e-06
3.0306417e-06
3.5915946e-06
4.237884e-06
4.9641638e-06
5.7624393e-06
6.5336815e-06
7.2468119e-06
7.9039924e-06
8.5015647e-06
9.0392215e-06
9.5204904e-06
9.9516885e-06
1.0344476e-05
1.0710666e-05
1.1053506e-05
1.1372913e-05
1.1665204e-05
1.1924659e-05
1.2154257e-05
1.2363249e-05
1.2561505e-05
1.2763204e-05
1.2973391e-05
1.3190955e-05
1.3412756e-05
1.3636272e-05
1.3859483e-05
1.4080032e-05
1.4298992e-05
1.4499536e-05
1.4691996e-05
1.4905128e-05
1.5184195e-05
1.5556967e-05
1.5964536e-05
1.6334871e-05
1.6653689e-05
1.6920223e-05
1.7144369e-05
1.7336943e-05
1.7506921e-05
1.7662256e-05
1.7808671e-05
1.7950173e-05
1.8087029e-05
1.8218887e-05
1.8346001e-05
1.8469203e-05
1.8588722e-05
1.8705116e-05
1.8819399e-05
1.8931997e-05
1.904294e-05
1.9152313e-05
1.9260332e-05
1.9367262e-05
1.9473366e-05
1.9578889e-05
1.9684064e-05
1.9789116e-05
1.9894257e-05
1.9999694e-05
2.0105616e-05
2.0212191e-05
2.0319564e-05
2.0427824e-05
2.0536808e-05
2.0644627e-05
2.0729066e-05
2.054774e-05
1.7381597e-05
1.5978247e-05
1.4923273e-05
1.4266666e-05
1.3831601e-05
1.3537116e-05
1.3329553e-05
1.3179401e-05
1.3068269e-05
1.2984395e-05
1.2919715e-05
1.2869122e-05
1.2828518e-05
1.2795047e-05
1.9704829e-06
1.9527736e-06
1.9331279e-06
1.9125374e-06
1.891285e-06
1.8689591e-06
1.84536e-06
1.8204495e-06
1.7941774e-06
1.7683229e-06
1.7437625e-06
1.7215262e-06
1.702987e-06
1.6895179e-06
1.6768369e-06
1.6784781e-06
1.6906446e-06
1.7348502e-06
1.8194363e-06
1.9541603e-06
2.1542972e-06
2.4387453e-06
2.8200264e-06
3.3268405e-06
3.9402752e-06
4.6544243e-06
5.4793392e-06
6.3633339e-06
7.2651886e-06
8.1542904e-06
9.0059036e-06
9.8002526e-06
1.0511351e-05
1.1154503e-05
1.1759058e-05
1.2343818e-05
1.291141e-05
1.3460868e-05
1.398702e-05
1.4493068e-05
1.498296e-05
1.546041e-05
1.5925993e-05
1.6378053e-05
1.6817009e-05
1.7240129e-05
1.7645929e-05
1.8037764e-05
1.8434882e-05
1.8848784e-05
1.9273283e-05
1.9696295e-05
2.0100964e-05
2.0483322e-05
2.0845766e-05
2.1189428e-05
2.1514955e-05
2.182689e-05
2.2130843e-05
2.243028e-05
2.2722183e-05
2.3005407e-05
2.328018e-05
2.3547529e-05
2.3806995e-05
2.4059604e-05
2.4306941e-05
2.4549176e-05
2.4786058e-05
2.5017595e-05
2.5243997e-05
2.5465529e-05
2.5682448e-05
2.5894989e-05
2.6103378e-05
2.6307832e-05
2.6508561e-05
2.6705775e-05
2.6899675e-05
2.709045e-05
2.7278285e-05
2.746333e-05
2.7645552e-05
2.7823843e-05
2.7984507e-05
2.8003771e-05
2.6872338e-05
2.6277319e-05
2.5824473e-05
2.5548354e-05
2.5380987e-05
2.5286173e-05
2.5235012e-05
2.5210296e-05
2.5201356e-05
2.5202175e-05
2.520705e-05
2.5218034e-05
2.5218279e-05
2.5252298e-05
1.9778032e-06
1.9689044e-06
1.9591968e-06
1.9490414e-06
1.9385186e-06
1.9276309e-06
1.916378e-06
1.9046529e-06
1.8924254e-06
1.8795424e-06
1.8659416e-06
1.8515501e-06
1.8363642e-06
1.8206198e-06
1.804929e-06
1.7896436e-06
1.7749379e-06
1.7614358e-06
1.7505048e-06
1.7427559e-06
1.7385363e-06
1.7418978e-06
1.7539961e-06
1.7852386e-06
1.8529463e-06
1.9680999e-06
2.1480288e-06
2.413827e-06
2.7876074e-06
3.3054873e-06
3.9752452e-06
4.7812156e-06
5.7198513e-06
6.7344914e-06
7.7740573e-06
8.8015443e-06
9.7928696e-06
1.073617e-05
1.1630914e-05
1.2483062e-05
1.3301141e-05
1.4094015e-05
1.4857379e-05
1.5590994e-05
1.6311793e-05
1.7021783e-05
1.7709594e-05
1.837277e-05
1.9017209e-05
1.9647652e-05
2.0266216e-05
2.0872169e-05
2.1464636e-05
2.204181e-05
2.2601478e-05
2.3142137e-05
2.3663367e-05
2.4174546e-05
2.4679709e-05
2.5179763e-05
2.5664999e-05
2.6136991e-05
2.6596856e-05
2.7045903e-05
2.7482155e-05
2.7908651e-05
2.832713e-05
2.8736765e-05
2.9137165e-05
2.9528459e-05
2.9910908e-05
3.0284762e-05
3.0650244e-05
3.1007552e-05
3.1356863e-05
3.1698345e-05
3.203215e-05
3.2358425e-05
3.267731e-05
3.2988934e-05
3.3293427e-05
3.3590907e-05
3.388139e-05
3.4164575e-05
3.4434951e-05
3.4651441e-05
3.4507597e-05
3.4475434e-05
3.4464398e-05
3.4504784e-05
3.4585052e-05
3.4695803e-05
3.4825082e-05
3.4964004e-05
3.5106335e-05
3.5249236e-05
3.5387171e-05
3.5529876e-05
3.5635911e-05
3.5848897e-05
1.9814514e-06
1.9761578e-06
1.9704442e-06
1.9644802e-06
1.9583005e-06
1.9519077e-06
1.9452982e-06
1.9384644e-06
1.9313992e-06
1.9240856e-06
1.9165012e-06
1.9086169e-06
1.9004008e-06
1.8918142e-06
1.8828702e-06
1.8735442e-06
1.8638514e-06
1.8536926e-06
1.8430333e-06
1.8321037e-06
1.8212517e-06
1.8106785e-06
1.8005785e-06
1.7914408e-06
1.7847633e-06
1.7785066e-06
1.7793976e-06
1.784843e-06
1.8015938e-06
1.8340005e-06
1.9062678e-06
2.0354173e-06
2.2453063e-06
2.5654023e-06
3.0259508e-06
3.6801921e-06
4.502689e-06
5.4816776e-06
6.5887718e-06
7.7619746e-06
8.9519718e-06
1.012267e-05
1.1253153e-05
1.2336958e-05
1.3379631e-05
1.4392268e-05
1.5380842e-05
1.6344214e-05
1.7280821e-05
1.8191216e-05
1.9078121e-05
1.9939074e-05
2.0785574e-05
2.1611559e-05
2.2417197e-05
2.3202597e-05
2.396733e-05
2.4714662e-05
2.5447723e-05
2.6169062e-05
2.6875794e-05
2.7567218e-05
2.8243406e-05
2.8905502e-05
2.9547972e-05
3.0181225e-05
3.0803998e-05
3.1413286e-05
3.2009617e-05
3.2593518e-05
3.3165341e-05
3.3725359e-05
3.4273813e-05
3.4810914e-05
3.5336851e-05
3.5851799e-05
3.635591e-05
3.6849328e-05
3.7332185e-05
3.7804602e-05
3.8266698e-05
3.8718585e-05
3.9160311e-05
3.959195e-05
4.0011667e-05
4.0409231e-05
4.0702869e-05
4.1006881e-05
4.1294957e-05
4.1582345e-05
4.1874488e-05
4.2173667e-05
4.2477118e-05
4.2780989e-05
4.3081549e-05
4.3377733e-05
4.3663205e-05
4.3954886e-05
4.4183294e-05
4.4610248e-05
1.9837794e-06
1.9803183e-06
1.9766056e-06
1.9727347e-06
1.9687242e-06
1.9645745e-06
1.9602814e-06
1.9558405e-06
1.951247e-06
1.9464963e-06
1.9415838e-06
1.9365048e-06
1.9312551e-06
1.9258291e-06
1.9202198e-06
1.9144176e-06
1.908413e-06
1.9021905e-06
1.8957269e-06
1.8890001e-06
1.8820022e-06
1.8747063e-06
1.8671554e-06
1.8590926e-06
1.8507476e-06
1.8422846e-06
1.8339801e-06
1.8260037e-06
1.8185216e-06
1.8126651e-06
1.8064593e-06
1.8066329e-06
1.8102081e-06
1.822471e-06
1.8500419e-06
1.906255e-06
2.0198808e-06
2.217154e-06
2.5346595e-06
3.0104124e-06
3.7169408e-06
4.6284275e-06
5.7297357e-06
6.9810429e-06
8.3104051e-06
9.65955e-06
1.0988431e-05
1.227833e-05
1.3527559e-05
1.4742184e-05
1.5928069e-05
1.7086281e-05
1.8217097e-05
1.9321838e-05
2.0401774e-05
2.1458167e-05
2.2490968e-05
2.3500686e-05
2.4489339e-05
2.545968e-05
2.6412155e-05
2.7346497e-05
2.8262544e-05
2.9161118e-05
3.0039697e-05
3.0902187e-05
3.1749685e-05
3.2581497e-05
3.3397532e-05
3.4198086e-05
3.4983508e-05
3.5754111e-05
3.6510177e-05
3.7251961e-05
3.7979691e-05
3.8693577e-05
3.9393806e-05
4.0080547e-05
4.0753958e-05
4.1414181e-05
4.2061352e-05
4.2695602e-05
4.3317009e-05
4.3925778e-05
4.4521477e-05
4.5103138e-05
4.5654625e-05
4.6196814e-05
4.6716108e-05
4.7216572e-05
4.7705275e-05
4.8188082e-05
4.8666638e-05
4.9140095e-05
4.9606247e-05
5.0065157e-05
5.050928e-05
5.0962556e-05
5.1325167e-05
5.1991199e-05
1.9854965e-06
1.9830815e-06
1.9805048e-06
1.9778219e-06
1.9750436e-06
1.9721696e-06
1.969197e-06
1.9661224e-06
1.9629422e-06
1.9596526e-06
1.9562503e-06
1.9527321e-06
1.9490951e-06
1.9453372e-06
1.9414561e-06
1.9374494e-06
1.9333138e-06
1.9290451e-06
1.9246379e-06
1.9200857e-06
1.9153796e-06
1.9105085e-06
1.9054646e-06
1.9002292e-06
1.8947803e-06
1.8891142e-06
1.8832108e-06
1.8770702e-06
1.8706683e-06
1.8640024e-06
1.8570588e-06
1.8502049e-06
1.8436048e-06
1.8373867e-06
1.8325822e-06
1.8277075e-06
1.828173e-06
1.8322162e-06
1.8454446e-06
1.8756801e-06
1.9363138e-06
2.0645869e-06
2.2957634e-06
2.6766209e-06
3.2680523e-06
4.1321356e-06
5.2373758e-06
6.5585515e-06
8.0136344e-06
9.5249745e-06
1.1033031e-05
1.2505786e-05
1.3937147e-05
1.5334112e-05
1.6703461e-05
1.804691e-05
1.9363309e-05
2.0652343e-05
2.1915576e-05
2.3155255e-05
2.4372579e-05
2.5568057e-05
2.6742043e-05
2.7895278e-05
2.9026969e-05
3.013802e-05
3.1229811e-05
3.2302837e-05
3.3357216e-05
3.4393184e-05
3.5411069e-05
3.6411208e-05
3.7393924e-05
3.8359522e-05
3.9308278e-05
4.0240445e-05
4.1156253e-05
4.2055914e-05
4.293962e-05
4.3807547e-05
4.4659863e-05
4.5496722e-05
4.6318236e-05
4.7124637e-05
4.7915987e-05
4.869325e-05
4.9457169e-05
5.0208773e-05
5.0938429e-05
5.16442e-05
5.2330468e-05
5.3003042e-05
5.3665375e-05
5.4318472e-05
5.4961233e-05
5.5594649e-05
5.6209874e-05
5.6837968e-05
5.7346876e-05
5.8275236e-05
1.986882e-06
1.985117e-06
1.9832422e-06
1.9812924e-06
1.9792743e-06
1.9771874e-06
1.9750296e-06
1.9727986e-06
1.9704917e-06
1.9681065e-06
1.9656401e-06
1.9630903e-06
1.9604548e-06
1.9577314e-06
1.9549182e-06
1.9520134e-06
1.9490146e-06
1.9459189e-06
1.942723e-06
1.9394234e-06
1.936016e-06
1.9324964e-06
1.9288603e-06
1.9251033e-06
1.9212199e-06
1.9172043e-06
1.9130486e-06
1.9087443e-06
1.9042825e-06
1.899647e-06
1.8948316e-06
1.8898141e-06
1.8845925e-06
1.8791525e-06
1.8734768e-06
1.8675715e-06
1.8617677e-06
1.8561991e-06
1.8511774e-06
1.8474547e-06
1.844701e-06
1.8462867e-06
1.8531777e-06
1.8730293e-06
1.9155614e-06
2.0092815e-06
2.1974349e-06
2.5356628e-06
3.0879752e-06
3.9610438e-06
5.1243305e-06
6.546447e-06
8.142121e-06
9.8137046e-06
1.1488094e-05
1.3129124e-05
1.4731783e-05
1.6303526e-05
1.7849424e-05
1.9369625e-05
2.0863485e-05
2.2331992e-05
2.3776467e-05
2.5197565e-05
2.6594964e-05
2.7968856e-05
2.9320141e-05
3.0649513e-05
3.1957357e-05
3.3244018e-05
3.4509833e-05
3.5755128e-05
3.6980247e-05
3.8185522e-05
3.937126e-05
4.0537748e-05
4.1685254e-05
4.2814024e-05
4.3924286e-05
4.5016251e-05
4.6090116e-05
4.7146058e-05
4.8184222e-05
4.9204832e-05
5.0208109e-05
5.1194905e-05
5.2168932e-05
5.3129368e-05
5.4069573e-05
5.4985242e-05
5.5877714e-05
5.6751299e-05
5.7609807e-05
5.8455329e-05
5.9287648e-05
6.0108643e-05
6.0908214e-05
6.172475e-05
6.2392349e-05
6.3605221e-05
1.9880798e-06
1.9867442e-06
1.9853307e-06
1.9838621e-06
1.9823427e-06
1.980772e-06
1.9791485e-06
1.9774704e-06
1.9757358e-06
1.9739429e-06
1.9720897e-06
1.9701745e-06
1.9681954e-06
1.9661509e-06
1.9640393e-06
1.9618591e-06
1.9596083e-06
1.9572848e-06
1.9548861e-06
1.9524093e-06
1.9498515e-06
1.9472095e-06
1.9444804e-06
1.9416608e-06
1.9387476e-06
1.9357375e-06
1.9326271e-06
1.9294128e-06
1.9260908e-06
1.9226567e-06
1.9191061e-06
1.9154324e-06
1.9116278e-06
1.9076843e-06
1.903587e-06
1.8993299e-06
1.8948905e-06
1.8902878e-06
1.885409e-06
1.8803557e-06
1.8752384e-06
1.870287e-06
1.8655992e-06
1.8619348e-06
1.858666e-06
1.8595192e-06
1.8644576e-06
1.8802009e-06
1.9177026e-06
1.9996401e-06
2.1815362e-06
2.5281014e-06
3.1185012e-06
4.0800507e-06
5.3789445e-06
6.9719959e-06
8.7471603e-06
1.0592451e-05
1.243097e-05
1.4233199e-05
1.6001328e-05
1.7744131e-05
1.9463944e-05
2.1159077e-05
2.2828793e-05
2.4473692e-05
2.6094237e-05
2.7690587e-05
2.9263117e-05
3.0812271e-05
3.2338309e-05
3.3841468e-05
3.5322057e-05
3.6780374e-05
3.8216697e-05
3.963131e-05
4.1024482e-05
4.2396465e-05
4.3747501e-05
4.5077819e-05
4.6387629e-05
4.7677121e-05
4.894646e-05
5.0195846e-05
5.1425547e-05
5.2635918e-05
5.383022e-05
5.5008918e-05
5.6168073e-05
5.7303114e-05
5.8413156e-05
5.9500651e-05
6.0568929e-05
6.1620573e-05
6.2656038e-05
6.3678062e-05
6.467538e-05
6.5693922e-05
6.6532589e-05
6.8051199e-05
1.9891725e-06
1.9881341e-06
1.9870385e-06
1.9859011e-06
1.9847246e-06
1.9835088e-06
1.9822524e-06
1.9809542e-06
1.9796126e-06
1.9782264e-06
1.9767939e-06
1.975314e-06
1.9737851e-06
1.972206e-06
1.9705755e-06
1.9688922e-06
1.9671547e-06
1.9653613e-06
1.96351e-06
1.9615988e-06
1.9596253e-06
1.9575873e-06
1.9554822e-06
1.9533077e-06
1.9510612e-06
1.9487401e-06
1.946342e-06
1.9438641e-06
1.9413037e-06
1.938658e-06
1.935924e-06
1.9330988e-06
1.9301787e-06
1.9271602e-06
1.9240392e-06
1.9208117e-06
1.9174711e-06
1.9140121e-06
1.910423e-06
1.9066903e-06
1.9028085e-06
1.8987675e-06
1.8945635e-06
1.8901613e-06
1.8855965e-06
1.8811549e-06
1.8769263e-06
1.8735548e-06
1.8706181e-06
1.8714437e-06
1.8764459e-06
1.8925971e-06
1.9328526e-06
2.0252452e-06
2.237538e-06
2.650365e-06
3.3782006e-06
4.5348811e-06
6.072913e-06
7.9084859e-06
9.8973734e-06
1.1921875e-05
1.3920864e-05
1.5884346e-05
1.7821572e-05
1.9737054e-05
2.1628921e-05
2.349581e-05
2.5338323e-05
2.7156796e-05
2.8950976e-05
3.0720866e-05
3.2466656e-05
3.4188441e-05
3.5886347e-05
3.756057e-05
3.9211293e-05
4.0838704e-05
4.2443007e-05
4.4024399e-05
4.5583061e-05
4.7119161e-05
4.863286e-05
5.0124314e-05
5.1593774e-05
5.3041148e-05
5.446875e-05
5.5878147e-05
5.7267526e-05
5.8633083e-05
5.99727e-05
6.1287145e-05
6.2578831e-05
6.3850353e-05
6.5102587e-05
6.6339059e-05
6.754741e-05
6.8781297e-05
6.9803262e-05
7.1648059e-05
1.9902065e-06
1.9893813e-06
1.988513e-06
1.9876121e-06
1.9866805e-06
1.985718e-06
1.9847236e-06
1.9836962e-06
1.9826349e-06
1.9815384e-06
1.9804057e-06
1.9792357e-06
1.9780273e-06
1.9767796e-06
1.9754914e-06
1.9741617e-06
1.9727894e-06
1.9713731e-06
1.9699114e-06
1.9684025e-06
1.9668447e-06
1.9652363e-06
1.9635754e-06
1.96186e-06
1.9600882e-06
1.958258e-06
1.9563673e-06
1.9544142e-06
1.9523963e-06
1.9503115e-06
1.9481575e-06
1.9459317e-06
1.9436317e-06
1.9412547e-06
1.9387981e-06
1.9362591e-06
1.9336349e-06
1.9309224e-06
1.9281186e-06
1.9252195e-06
1.9222208e-06
1.9191161e-06
1.9158993e-06
1.9125579e-06
1.9090842e-06
1.9054643e-06
1.9016989e-06
1.8977425e-06
1.8936337e-06
1.8896402e-06
1.885883e-06
1.8829092e-06
1.8808831e-06
1.8823229e-06
1.8891928e-06
1.9106965e-06
1.9637926e-06
2.0959594e-06
2.3945946e-06
2.9614194e-06
3.9943624e-06
5.4805218e-06
7.3581794e-06
9.4738787e-06
1.1673056e-05
1.386221e-05
1.6017108e-05
1.8146043e-05
2.0255084e-05
2.2342257e-05
2.440554e-05
2.6445063e-05
2.846073e-05
3.0451994e-05
3.2418668e-05
3.4360708e-05
3.6278023e-05
3.8170608e-05
4.0038519e-05
4.1881819e-05
4.3700576e-05
4.5494863e-05
4.7264777e-05
4.9010398e-05
5.0731894e-05
5.2428801e-05
5.4102688e-05
5.5755653e-05
5.7387293e-05
5.8994918e-05
6.0575992e-05
6.2130008e-05
6.3658319e-05
6.5163165e-05
6.6645578e-05
6.8109735e-05
6.9542216e-05
7.100454e-05
7.2221876e-05
7.4412722e-05
1.9911995e-06
1.9905321e-06
1.9898313e-06
1.9891047e-06
1.9883534e-06
1.9875773e-06
1.9867757e-06
1.9859476e-06
1.9850923e-06
1.9842088e-06
1.9832964e-06
1.9823541e-06
1.9813811e-06
1.9803766e-06
1.9793397e-06
1.9782696e-06
1.9771653e-06
1.9760257e-06
1.9748497e-06
1.9736359e-06
1.9723831e-06
1.9710897e-06
1.9697544e-06
1.9683755e-06
1.9669516e-06
1.9654811e-06
1.9639623e-06
1.9623937e-06
1.9607734e-06
1.9590997e-06
1.9573708e-06
1.9555846e-06
1.9537392e-06
1.9518325e-06
1.9498622e-06
1.9478262e-06
1.9457221e-06
1.9435477e-06
1.9413005e-06
1.9389783e-06
1.9365783e-06
1.9340978e-06
1.9315338e-06
1.9288828e-06
1.9261412e-06
1.923303e-06
1.9203628e-06
1.9173083e-06
1.9141316e-06
1.9108191e-06
1.9073743e-06
1.9037441e-06
1.900037e-06
1.8964098e-06
1.8933532e-06
1.8901423e-06
1.890368e-06
1.8935408e-06
1.905679e-06
1.9410826e-06
2.0285817e-06
2.2580719e-06
2.7417292e-06
3.6645497e-06
5.1356347e-06
7.0812964e-06
9.3405224e-06
1.1721643e-05
1.410294e-05
1.6450275e-05
1.8772362e-05
2.1076017e-05
2.3358864e-05
2.5618718e-05
2.7855436e-05
3.0068461e-05
3.2257024e-05
3.4420771e-05
3.6559417e-05
3.8672686e-05
4.0760387e-05
4.2822372e-05
4.4858572e-05
4.6868907e-05
4.8853376e-05
5.081114e-05
5.2743299e-05
5.465209e-05
5.6537853e-05
5.8398943e-05
6.0232938e-05
6.2038527e-05
6.3816062e-05
6.556719e-05
6.729284e-05
6.899766e-05
7.0667156e-05
7.237078e-05
7.3795435e-05
7.6351734e-05
1.9921522e-06
1.9916045e-06
1.9910304e-06
1.9904354e-06
1.9898204e-06
1.9891852e-06
1.9885291e-06
1.9878515e-06
1.9871517e-06
1.986429e-06
1.9856828e-06
1.9849122e-06
1.9841167e-06
1.9832955e-06
1.982448e-06
1.9815734e-06
1.980671e-06
1.9797398e-06
1.978779e-06
1.9777875e-06
1.9767642e-06
1.975708e-06
1.9746176e-06
1.9734919e-06
1.9723297e-06
1.9711296e-06
1.9698904e-06
1.9686107e-06
1.9672892e-06
1.9659243e-06
1.9645147e-06
1.9630587e-06
1.9615548e-06
1.9600012e-06
1.9583961e-06
1.9567378e-06
1.9550245e-06
1.9532542e-06
1.951425e-06
1.949535e-06
1.9475819e-06
1.9455637e-06
1.9434781e-06
1.9413225e-06
1.9390947e-06
1.9367919e-06
1.9344111e-06
1.9319492e-06
1.9294027e-06
1.9267658e-06
1.9240339e-06
1.9211949e-06
1.918242e-06
1.915164e-06
1.9119491e-06
1.9085161e-06
1.9051632e-06
1.901996e-06
1.8994226e-06
1.8979116e-06
1.8995532e-06
1.9075654e-06
1.9336604e-06
2.0029368e-06
2.1957081e-06
2.6398003e-06
3.5311829e-06
5.0484188e-06
7.1135939e-06
9.5450058e-06
1.2117734e-05
1.4691827e-05
1.72321e-05
1.9749436e-05
2.2249662e-05
2.4729616e-05
2.7187406e-05
2.9622612e-05
3.2034198e-05
3.4421221e-05
3.6783042e-05
3.9119076e-05
4.1428924e-05
4.3712206e-05
4.5968604e-05
4.8196812e-05
5.0397633e-05
5.2573247e-05
5.4724189e-05
5.6849562e-05
5.8947299e-05
6.1015696e-05
6.3054281e-05
6.5064001e-05
6.7045457e-05
6.9003564e-05
7.092269e-05
7.2880249e-05
7.4524012e-05
7.7464764e-05
1.9930613e-06
1.9926063e-06
1.9921301e-06
1.9916369e-06
1.9911271e-06
1.9906006e-06
1.9900568e-06
1.9894953e-06
1.9889155e-06
1.9883168e-06
1.9876987e-06
1.9870605e-06
1.9864017e-06
1.9857218e-06
1.9850201e-06
1.9842961e-06
1.9835491e-06
1.9827784e-06
1.9819833e-06
1.9811628e-06
1.9803161e-06
1.9794423e-06
1.9785404e-06
1.9776094e-06
1.9766484e-06
1.9756562e-06
1.9746318e-06
1.9735741e-06
1.972482e-06
1.9713543e-06
1.9701898e-06
1.9689873e-06
1.9677453e-06
1.9664626e-06
1.9651376e-06
1.963769e-06
1.9623553e-06
1.9608948e-06
1.9593861e-06
1.9578274e-06
1.9562172e-06
1.9545534e-06
1.9528344e-06
1.9510581e-06
1.9492224e-06
1.9473253e-06
1.9453644e-06
1.9433375e-06
1.9412421e-06
1.9390758e-06
1.9368361e-06
1.9345202e-06
1.9321247e-06
1.9296451e-06
1.9270729e-06
1.9244e-06
1.9216095e-06
1.9187088e-06
1.9156363e-06
1.9125074e-06
1.9094845e-06
1.9069556e-06
1.9049843e-06
1.9060674e-06
1.9123578e-06
1.934356e-06
1.9966987e-06
2.1800599e-06
2.6300187e-06
3.5747119e-06
5.2221598e-06
7.4798423e-06
1.0124244e-05
1.2901329e-05
1.5669772e-05
1.8405215e-05
2.1121351e-05
2.3821142e-05
2.6500894e-05
2.9159101e-05
3.1794709e-05
3.440634e-05
3.699307e-05
3.9554002e-05
4.2088258e-05
4.4593888e-05
4.7071425e-05
4.9522884e-05
5.1948571e-05
5.4347928e-05
5.6719232e-05
5.9060656e-05
6.1371124e-05
6.365087e-05
6.5900011e-05
6.8123504e-05
7.0304482e-05
7.2528275e-05
7.440269e-05
7.7747597e-05
1.9939273e-06
1.9935453e-06
1.9931461e-06
1.9927328e-06
1.9923057e-06
1.9918645e-06
1.991409e-06
1.9909387e-06
1.990453e-06
1.9899516e-06
1.989434e-06
1.9888997e-06
1.9883482e-06
1.987779e-06
1.9871917e-06
1.9865858e-06
1.9859607e-06
1.9853157e-06
1.9846504e-06
1.983964e-06
1.9832557e-06
1.9825248e-06
1.9817705e-06
1.980992e-06
1.9801884e-06
1.979359e-06
1.9785027e-06
1.9776187e-06
1.9767062e-06
1.975764e-06
1.9747912e-06
1.9737868e-06
1.9727496e-06
1.9716786e-06
1.9705725e-06
1.9694301e-06
1.9682503e-06
1.9670318e-06
1.9657731e-06
1.9644731e-06
1.9631303e-06
1.9617431e-06
1.9603101e-06
1.9588296e-06
1.9573e-06
1.9557194e-06
1.9540861e-06
1.952398e-06
1.9506532e-06
1.9488497e-06
1.9469854e-06
1.9450585e-06
1.9430668e-06
1.9410082e-06
1.9388798e-06
1.9366792e-06
1.9344013e-06
1.9320416e-06
1.9295893e-06
1.9270343e-06
1.9243772e-06
1.9215612e-06
1.9186409e-06
1.9158016e-06
1.9134013e-06
1.9114024e-06
1.9123367e-06
1.9182569e-06
1.9398894e-06
2.0042112e-06
2.205372e-06
2.711899e-06
3.8158202e-06
5.697614e-06
8.2302037e-06
1.1124092e-05
1.4112358e-05
1.7076699e-05
2.0011914e-05
2.2930928e-05
2.5832852e-05
2.8714805e-05
3.1575701e-05
3.4413803e-05
3.7227336e-05
4.001347e-05
4.2772352e-05
4.5505728e-05
4.8213329e-05
5.0894487e-05
5.3547601e-05
5.6170814e-05
5.8762632e-05
6.1322624e-05
6.3850311e-05
6.635049e-05
6.8804927e-05
7.1306769e-05
7.3423011e-05
7.7191179e-05
1.994753e-06
1.9944294e-06
1.9940917e-06
1.9937421e-06
1.9933809e-06
1.9930078e-06
1.9926227e-06
1.992225e-06
1.9918144e-06
1.9913905e-06
1.990953e-06
1.9905014e-06
1.9900353e-06
1.9895543e-06
1.9890581e-06
1.9885462e-06
1.988018e-06
1.9874732e-06
1.9869112e-06
1.9863315e-06
1.9857333e-06
1.9851161e-06
1.9844792e-06
1.9838219e-06
1.9831436e-06
1.9824435e-06
1.9817208e-06
1.9809749e-06
1.980205e-06
1.9794101e-06
1.9785896e-06
1.9777425e-06
1.976868e-06
1.975965e-06
1.9750325e-06
1.9740697e-06
1.9730755e-06
1.9720487e-06
1.9709884e-06
1.9698934e-06
1.9687625e-06
1.9675945e-06
1.9663881e-06
1.965142e-06
1.9638547e-06
1.9625248e-06
1.9611508e-06
1.959731e-06
1.9582638e-06
1.9567475e-06
1.9551805e-06
1.953561e-06
1.9518874e-06
1.9501578e-06
1.94837e-06
1.9465221e-06
1.9446117e-06
1.9426363e-06
1.9405937e-06
1.93848e-06
1.9362917e-06
1.9340189e-06
1.931652e-06
1.9291886e-06
1.9265773e-06
1.9238507e-06
1.9212022e-06
1.9189528e-06
1.9171961e-06
1.9182919e-06
1.9250574e-06
1.9505093e-06
2.0272464e-06
2.2825707e-06
2.9137261e-06
4.3360673e-06
6.5731672e-06
9.442009e-06
1.2596546e-05
1.5788711e-05
1.8948388e-05
2.2087847e-05
2.5213553e-05
2.8321627e-05
3.1409612e-05
3.4473822e-05
3.751378e-05
4.0530871e-05
4.3523948e-05
4.6491755e-05
4.9432449e-05
5.2344049e-05
5.5224731e-05
5.8073448e-05
6.088906e-05
6.3676006e-05
6.6414533e-05
6.9205457e-05
7.1574154e-05
7.5782811e-05
1.9955445e-06
1.9952681e-06
1.9949801e-06
1.994682e-06
1.994374e-06
1.9940559e-06
1.9937276e-06
1.9933885e-06
1.9930386e-06
1.9926773e-06
1.9923044e-06
1.9919195e-06
1.9915223e-06
1.9911125e-06
1.9906897e-06
1.9902535e-06
1.9898036e-06
1.9893396e-06
1.9888609e-06
1.988367e-06
1.9878576e-06
1.987332e-06
1.9867897e-06
1.9862302e-06
1.9856527e-06
1.9850568e-06
1.9844418e-06
1.983807e-06
1.9831519e-06
1.9824757e-06
1.9817777e-06
1.9810572e-06
1.9803135e-06
1.9795456e-06
1.9787529e-06
1.9779344e-06
1.9770894e-06
1.9762168e-06
1.9753159e-06
1.9743856e-06
1.973425e-06
1.972433e-06
1.9714086e-06
1.9703505e-06
1.9692578e-06
1.9681291e-06
1.9669631e-06
1.9657585e-06
1.9645139e-06
1.963228e-06
1.9618992e-06
1.9605263e-06
1.9591078e-06
1.9576419e-06
1.9561272e-06
1.9545616e-06
1.9529433e-06
1.9512704e-06
1.949541e-06
1.947753e-06
1.9459043e-06
1.9439927e-06
1.9420151e-06
1.939968e-06
1.9378423e-06
1.9356284e-06
1.9333239e-06
1.9308768e-06
1.9283275e-06
1.9258725e-06
1.9237795e-06
1.922564e-06
1.9242038e-06
1.9334737e-06
1.9670975e-06
2.0758245e-06
2.4404765e-06
3.3385963e-06
5.1867639e-06
7.8963492e-06
1.1144306e-05
1.4556831e-05
1.7953251e-05
2.1319466e-05
2.4670837e-05
2.8004332e-05
3.1318727e-05
3.4615582e-05
3.7892607e-05
4.1147537e-05
4.4377861e-05
4.7581243e-05
5.075548e-05
5.3898911e-05
5.7009664e-05
6.0091639e-05
6.3123391e-05
6.6213209e-05
6.8844039e-05
7.3509723e-05
1.9963104e-06
1.9960727e-06
1.9958252e-06
1.9955691e-06
1.9953046e-06
1.9950315e-06
1.9947494e-06
1.9944583e-06
1.9941577e-06
1.9938475e-06
1.9935273e-06
1.9931969e-06
1.9928559e-06
1.9925041e-06
1.9921412e-06
1.9917668e-06
1.9913806e-06
1.9909824e-06
1.9905715e-06
1.9901478e-06
1.9897107e-06
1.9892598e-06
1.9887946e-06
1.9883146e-06
1.9878193e-06
1.9873083e-06
1.9867809e-06
1.9862367e-06
1.985675e-06
1.9850954e-06
1.9844971e-06
1.9838797e-06
1.9832423e-06
1.9825845e-06
1.9819053e-06
1.9812043e-06
1.9804806e-06
1.9797334e-06
1.978962e-06
1.9781656e-06
1.9773433e-06
1.9764943e-06
1.9756177e-06
1.9747125e-06
1.9737777e-06
1.9728123e-06
1.9718152e-06
1.9707852e-06
1.9697213e-06
1.9686222e-06
1.9674867e-06
1.9663137e-06
1.9651019e-06
1.96385e-06
1.9625564e-06
1.9612198e-06
1.9598385e-06
1.9584108e-06
1.956935e-06
1.9554096e-06
1.9538326e-06
1.9522024e-06
1.9505169e-06
1.9487742e-06
1.9469721e-06
1.9451079e-06
1.9431783e-06
1.9411745e-06
1.9390865e-06
1.9369138e-06
1.9346e-06
1.9321931e-06
1.9300709e-06
1.9275664e-06
1.9277099e-06
1.9306152e-06
1.9454114e-06
1.9954301e-06
2.1848526e-06
2.7462867e-06
4.1383639e-06
6.5724515e-06
9.8140533e-06
1.3411373e-05
1.7047775e-05
2.0644419e-05
2.4221481e-05
2.7788531e-05
3.1341784e-05
3.4878443e-05
3.8395224e-05
4.1889222e-05
4.5357715e-05
4.8798326e-05
5.2208357e-05
5.5590981e-05
5.8922866e-05
6.2319546e-05
6.52207e-05
7.035824e-05
1.997059e-06
1.9968533e-06
1.9966392e-06
1.9964178e-06
1.9961891e-06
1.995953e-06
1.9957092e-06
1.9954574e-06
1.9951976e-06
1.9949295e-06
1.9946527e-06
1.9943671e-06
1.9940724e-06
1.9937684e-06
1.9934547e-06
1.9931312e-06
1.9927976e-06
1.9924535e-06
1.9920985e-06
1.9917325e-06
1.9913549e-06
1.9909654e-06
1.9905636e-06
1.9901491e-06
1.9897215e-06
1.9892802e-06
1.9888249e-06
1.9883551e-06
1.9878704e-06
1.9873701e-06
1.9868539e-06
1.9863211e-06
1.9857713e-06
1.9852037e-06
1.984618e-06
1.9840134e-06
1.9833893e-06
1.9827451e-06
1.9820801e-06
1.9813936e-06
1.9806849e-06
1.9799533e-06
1.979198e-06
1.9784181e-06
1.9776129e-06
1.9767814e-06
1.9759228e-06
1.975036e-06
1.9741201e-06
1.9731742e-06
1.972197e-06
1.9711878e-06
1.9701453e-06
1.9690686e-06
1.9679562e-06
1.966807e-06
1.9656195e-06
1.9643925e-06
1.9631244e-06
1.9618139e-06
1.9604594e-06
1.9590593e-06
1.9576121e-06
1.9561159e-06
1.9545691e-06
1.9529698e-06
1.9513163e-06
1.9496064e-06
1.9478376e-06
1.9460062e-06
1.9441055e-06
1.9421151e-06
1.9400717e-06
1.9378059e-06
1.9355781e-06
1.9336029e-06
1.931819e-06
1.9326205e-06
1.9388015e-06
1.9651681e-06
2.0569685e-06
2.4109912e-06
3.376421e-06
5.4919148e-06
8.6400207e-06
1.237217e-05
1.6243374e-05
2.0086174e-05
2.390467e-05
2.771219e-05
3.1506159e-05
3.5283816e-05
3.9042002e-05
4.2777497e-05
4.6486702e-05
5.0171883e-05
5.3807613e-05
5.7516431e-05
6.0693876e-05
6.6315481e-05
1.997797e-06
1.9976179e-06
1.9974317e-06
1.9972391e-06
1.9970402e-06
1.9968349e-06
1.9966228e-06
1.9964039e-06
1.996178e-06
1.9959448e-06
1.9957041e-06
1.9954558e-06
1.9951995e-06
1.9949352e-06
1.9946625e-06
1.9943813e-06
1.9940913e-06
1.9937922e-06
1.9934837e-06
1.9931655e-06
1.9928374e-06
1.9924989e-06
1.9921498e-06
1.9917897e-06
1.9914182e-06
1.9910349e-06
1.9906394e-06
1.9902314e-06
1.9898104e-06
1.989376e-06
1.9889278e-06
1.9884653e-06
1.987988e-06
1.9874954e-06
1.9869871e-06
1.9864624e-06
1.985921e-06
1.9853621e-06
1.9847852e-06
1.9841898e-06
1.9835753e-06
1.9829409e-06
1.982286e-06
1.9816099e-06
1.980912e-06
1.9801914e-06
1.9794474e-06
1.9786791e-06
1.9778857e-06
1.9770664e-06
1.9762203e-06
1.9753464e-06
1.974444e-06
1.9735119e-06
1.9725493e-06
1.9715549e-06
1.9705276e-06
1.9694663e-06
1.9683697e-06
1.9672366e-06
1.9660657e-06
1.9648557e-06
1.9636051e-06
1.9623125e-06
1.9609765e-06
1.9595953e-06
1.9581674e-06
1.9566912e-06
1.9551649e-06
1.9535867e-06
1.951955e-06
1.9502663e-06
1.9485178e-06
1.946702e-06
1.944799e-06
1.9428236e-06
1.9406916e-06
1.9386403e-06
1.9368506e-06
1.9362436e-06
1.9385612e-06
1.952313e-06
2.0040719e-06
2.2174708e-06
2.887792e-06
4.6889241e-06
7.6744585e-06
1.1489961e-05
1.5585993e-05
1.9678216e-05
2.3740305e-05
2.7790823e-05
3.1828908e-05
3.5851376e-05
3.9854295e-05
4.3839033e-05
4.7777954e-05
5.1800392e-05
5.5256945e-05
6.1370961e-05
1.9985297e-06
1.9983729e-06
1.9982101e-06
1.9980417e-06
1.9978678e-06
1.9976882e-06
1.9975028e-06
1.9973114e-06
1.9971139e-06
1.99691e-06
1.9966996e-06
1.9964825e-06
1.9962585e-06
1.9960274e-06
1.9957891e-06
1.9955433e-06
1.9952898e-06
1.9950284e-06
1.9947588e-06
1.9944807e-06
1.994194e-06
1.9938983e-06
1.9935933e-06
1.9932787e-06
1.9929541e-06
1.9926193e-06
1.992274e-06
1.9919177e-06
1.9915501e-06
1.9911708e-06
1.9907795e-06
1.9903757e-06
1.9899591e-06
1.9895292e-06
1.9890856e-06
1.9886278e-06
1.9881554e-06
1.9876679e-06
1.9871647e-06
1.9866454e-06
1.9861094e-06
1.9855563e-06
1.9849853e-06
1.984396e-06
1.9837876e-06
1.9831596e-06
1.9825112e-06
1.9818418e-06
1.9811507e-06
1.980437e-06
1.9797001e-06
1.9789392e-06
1.9781534e-06
1.9773421e-06
1.9765042e-06
1.9756388e-06
1.974745e-06
1.9738217e-06
1.9728679e-06
1.9718825e-06
1.9708644e-06
1.9698125e-06
1.9687256e-06
1.9676024e-06
1.9664416e-06
1.9652419e-06
1.9640019e-06
1.9627201e-06
1.9613951e-06
1.9600252e-06
1.9586088e-06
1.9571446e-06
1.9556302e-06
1.9540648e-06
1.9524443e-06
1.9507655e-06
1.9490157e-06
1.9471982e-06
1.9452344e-06
1.9432469e-06
1.9414541e-06
1.9398728e-06
1.9408408e-06
1.9479471e-06
1.9797343e-06
2.1026541e-06
2.6000689e-06
4.0274848e-06
6.850222e-06
1.0746743e-05
1.5075505e-05
1.9430247e-05
2.3744702e-05
2.8043851e-05
3.2330429e-05
3.6606273e-05
4.0842369e-05
4.5174946e-05
4.8909204e-05
5.5518518e-05
1.9992614e-06
1.9991236e-06
1.9989805e-06
1.9988325e-06
1.9986797e-06
1.9985219e-06
1.998359e-06
1.9981909e-06
1.9980173e-06
1.9978382e-06
1.9976533e-06