/*--------------------------------*- C++ -*----------------------------------*\
  =========                 |
  \\      /  F ield         | OpenFOAM: The Open Source CFD Toolbox
   \\    /   O peration     | Website:  https://openfoam.org
    \\  /    A nd           | Version:  12
     \\/     M anipulation  |
\*---------------------------------------------------------------------------*/
FoamFile
{
    format      ascii;
    class       volScalarField;
    location    "1800";
    object      p;
}
// * * * * * * * * * * * * * * * * * * * * * * * * * * * * * * * * * * * * * //

dimensions      [0 2 -2 0 0 0 0];

internalField   nonuniform List<scalar> 
13056
(
0.0040830804
0.0041028917
0.004146147
0.0042008069
0.0042652171
0.0043393163
0.0044224453
0.0045138843
0.0046132958
0.0047207267
0.0048365241
0.004961337
0.0050961973
0.0052426656
0.0054030291
0.0055807224
0.0057807395
0.0060114625
0.0062845014
0.0066275921
0.0070655654
0.0077617953
0.0086467654
0.012585548
0.0091150756
0.0040412764
0.0039466601
0.004394274
0.0045163742
0.0044651238
0.0043917943
0.0043235329
0.0042550439
0.0041859982
0.004118298
0.0040533269
0.0039917366
0.0039332653
0.0038776395
0.0038246505
0.0037741441
0.003725963
0.0036797846
0.0036356134
0.0035930608
0.0035521532
0.0035127725
0.0034745115
0.0034375784
0.0034018284
0.0033669025
0.0033329458
0.0032999348
0.0032676259
0.0032359027
0.003204957
0.0031746644
0.0031447531
0.0031152788
0.0030863824
0.0030579307
0.0030296995
0.0030017258
0.0029741791
0.0029469585
0.0029198145
0.0028928091
0.0028660258
0.0028394813
0.0028129885
0.0027864958
0.0027600214
0.0027337071
0.0027074529
0.0026810528
0.002654568
0.0026280402
0.0026015331
0.0025748973
0.0025480282
0.0025209408
0.0024937454
0.0024664262
0.0024387768
0.0024107931
0.0023824592
0.0023539134
0.0023250633
0.0022956848
0.0022658222
0.0022354901
0.0022047559
0.0021734587
0.0021414505
0.0021087105
0.0020753834
0.0020413751
0.0020064007
0.0019704591
0.0019335817
0.0018957624
0.0018567596
0.0018163973
0.0017747059
0.0017316745
0.001687033
0.0016405101
0.0015921627
0.0015418683
0.0014892225
0.0014340045
0.0013762064
0.001315645
0.0012528364
0.001189887
0.0011279519
0.0010668379
0.001006484
0.00094704013
0.00088840091
0.00083036299
0.00077297075
0.00071644611
0.00066077756
0.0006057989
0.00055165982
0.00049849209
0.00044661299
0.00039632659
0.00034762562
0.00030223988
0.00025856033
0.00022878586
0.00019037457
0.00031234247
-0.00024362889
0.0040830804
0.0041028917
0.004146147
0.0042008069
0.0042652171
0.0043393163
0.0044224453
0.0045138843
0.0046132958
0.0047207267
0.0048365241
0.004961337
0.0050961974
0.0052426656
0.0054030291
0.0055807224
0.0057807395
0.0060114625
0.0062845014
0.0066275921
0.0070655653
0.0077617951
0.0086467656
0.012568463
0.0091158803
0.0040419387
0.0039467579
0.0043943108
0.0045164003
0.004465146
0.0043918137
0.00432355
0.0042550593
0.0041860121
0.0041183106
0.0040533385
0.0039917473
0.0039332752
0.0038776487
0.003824659
0.0037741521
0.0037259704
0.0036797915
0.0036356199
0.003593067
0.003552159
0.003512778
0.0034745167
0.0034375833
0.0034018331
0.0033669069
0.0033329501
0.0032999388
0.0032676297
0.0032359063
0.0032049605
0.0031746677
0.0031447563
0.0031152819
0.0030863853
0.0030579335
0.0030297022
0.0030017284
0.0029741816
0.0029469609
0.0029198168
0.0028928114
0.0028660279
0.0028394833
0.0028129905
0.0027864977
0.0027600232
0.0027337089
0.0027074547
0.0026810545
0.0026545696
0.0026280417
0.0026015346
0.0025748987
0.0025480296
0.0025209421
0.0024937467
0.0024664275
0.002438778
0.0024107942
0.0023824603
0.0023539144
0.0023250643
0.0022956858
0.0022658231
0.002235491
0.0022047568
0.0021734595
0.0021414514
0.0021087113
0.0020753841
0.0020413759
0.0020064014
0.0019704597
0.0019335823
0.001895763
0.0018567602
0.0018163979
0.0017747064
0.0017316751
0.0016870336
0.0016405106
0.0015921632
0.0015418687
0.0014892229
0.0014340049
0.0013762068
0.0013156454
0.0012528368
0.0011898873
0.0011279522
0.0010668382
0.0010064843
0.0009470404
0.00088840118
0.00083036325
0.00077297099
0.00071644635
0.00066077779
0.00060579912
0.00055166003
0.00049849229
0.00044661319
0.00039632678
0.0003476258
0.00030224007
0.00025856051
0.00022878604
0.00019037475
0.00031234268
-0.00024362875
0.0040830804
0.0041028917
0.004146147
0.0042008069
0.0042652171
0.0043393163
0.0044224453
0.0045138843
0.0046132958
0.0047207267
0.0048365241
0.004961337
0.0050961974
0.0052426656
0.0054030291
0.0055807224
0.0057807395
0.0060114625
0.0062845013
0.006627592
0.0070655652
0.0077617947
0.0086467657
0.012552226
0.0091167544
0.0040427037
0.003946874
0.0043943549
0.0045164316
0.0044651724
0.0043918369
0.0043235706
0.0042550777
0.0041860287
0.0041183258
0.0040533524
0.0039917601
0.003933287
0.0038776596
0.0038246692
0.0037741616
0.0037259793
0.0036797998
0.0036356277
0.0035930744
0.003552166
0.0035127846
0.0034745229
0.0034375892
0.0034018387
0.0033669123
0.0033329551
0.0032999437
0.0032676343
0.0032359107
0.0032049647
0.0031746717
0.0031447602
0.0031152856
0.0030863888
0.0030579369
0.0030297054
0.0030017315
0.0029741846
0.0029469638
0.0029198195
0.002892814
0.0028660304
0.0028394858
0.0028129929
0.0027865
0.0027600254
0.002733711
0.0027074567
0.0026810564
0.0026545715
0.0026280435
0.0026015364
0.0025749004
0.0025480312
0.0025209437
0.0024937482
0.0024664289
0.0024387794
0.0024107956
0.0023824617
0.0023539157
0.0023250655
0.002295687
0.0022658243
0.0022354921
0.0022047579
0.0021734606
0.0021414523
0.0021087122
0.002075385
0.0020413767
0.0020064023
0.0019704606
0.0019335831
0.0018957638
0.0018567609
0.0018163986
0.0017747071
0.0017316757
0.0016870342
0.0016405111
0.0015921638
0.0015418693
0.0014892234
0.0014340054
0.0013762073
0.0013156458
0.0012528372
0.0011898877
0.0011279526
0.0010668386
0.0010064847
0.00094704073
0.0008884015
0.00083036355
0.00077297128
0.00071644663
0.00066077806
0.00060579939
0.00055166028
0.00049849254
0.00044661343
0.00039632701
0.00034762603
0.00030224029
0.00025856072
0.00022878626
0.00019037496
0.00031234293
-0.00024362859
0.0040830804
0.0041028917
0.004146147
0.0042008069
0.0042652171
0.0043393163
0.0044224453
0.0045138843
0.0046132958
0.0047207267
0.0048365241
0.004961337
0.0050961974
0.0052426656
0.0054030291
0.0055807224
0.0057807395
0.0060114625
0.0062845013
0.006627592
0.0070655651
0.007761794
0.0086467659
0.012537748
0.0091177341
0.0040434088
0.0039469834
0.0043943983
0.0045164623
0.0044651984
0.0043918596
0.0043235907
0.0042550957
0.004186045
0.0041183406
0.004053366
0.0039917726
0.0039332985
0.0038776703
0.0038246792
0.0037741709
0.003725988
0.003679808
0.0036356354
0.0035930816
0.0035521728
0.003512791
0.003474529
0.003437595
0.0034018442
0.0033669175
0.0033329601
0.0032999484
0.0032676388
0.003235915
0.0032049688
0.0031746757
0.0031447639
0.0031152892
0.0030863923
0.0030579402
0.0030297086
0.0030017346
0.0029741876
0.0029469666
0.0029198223
0.0028928166
0.002866033
0.0028394882
0.0028129952
0.0027865022
0.0027600275
0.0027337131
0.0027074587
0.0026810584
0.0026545734
0.0026280453
0.0026015381
0.0025749021
0.0025480328
0.0025209453
0.0024937497
0.0024664304
0.0024387808
0.002410797
0.002382463
0.002353917
0.0023250667
0.0022956881
0.0022658254
0.0022354932
0.0022047589
0.0021734616
0.0021414533
0.0021087131
0.0020753859
0.0020413776
0.0020064031
0.0019704614
0.0019335839
0.0018957645
0.0018567616
0.0018163992
0.0017747077
0.0017316763
0.0016870348
0.0016405117
0.0015921643
0.0015418698
0.0014892239
0.0014340059
0.0013762077
0.0013156463
0.0012528376
0.0011898881
0.0011279529
0.0010668389
0.001006485
0.00094704106
0.00088840181
0.00083036385
0.00077297157
0.00071644691
0.00066077833
0.00060579964
0.00055166053
0.00049849278
0.00044661367
0.00039632724
0.00034762625
0.0003022405
0.00025856093
0.00022878647
0.00019037516
0.00031234318
-0.00024362843
0.0040830804
0.0041028917
0.004146147
0.0042008069
0.0042652171
0.0043393163
0.0044224453
0.0045138843
0.0046132958
0.0047207267
0.0048365241
0.004961337
0.0050961974
0.0052426656
0.0054030291
0.0055807224
0.0057807395
0.0060114625
0.0062845012
0.0066275918
0.0070655649
0.0077617931
0.0086467663
0.012523456
0.0091188729
0.0040440527
0.0039470948
0.0043944432
0.0045164939
0.0044652251
0.004391883
0.0043236114
0.0042551142
0.0041860618
0.0041183559
0.00405338
0.0039917855
0.0039333104
0.0038776813
0.0038246894
0.0037741804
0.0037259969
0.0036798164
0.0036356433
0.003593089
0.0035521798
0.0035127977
0.0034745353
0.0034376009
0.0034018498
0.0033669228
0.0033329652
0.0032999532
0.0032676434
0.0032359194
0.003204973
0.0031746797
0.0031447678
0.0031152929
0.0030863958
0.0030579436
0.0030297119
0.0030017377
0.0029741906
0.0029469695
0.002919825
0.0028928193
0.0028660355
0.0028394907
0.0028129976
0.0027865045
0.0027600298
0.0027337152
0.0027074608
0.0026810603
0.0026545753
0.0026280472
0.0026015399
0.0025749038
0.0025480345
0.0025209469
0.0024937512
0.0024664319
0.0024387822
0.0024107983
0.0023824643
0.0023539182
0.002325068
0.0022956893
0.0022658265
0.0022354943
0.00220476
0.0021734626
0.0021414543
0.0021087141
0.0020753869
0.0020413785
0.0020064039
0.0019704622
0.0019335846
0.0018957653
0.0018567623
0.0018163999
0.0017747084
0.001731677
0.0016870354
0.0016405123
0.0015921649
0.0015418703
0.0014892244
0.0014340063
0.0013762082
0.0013156467
0.001252838
0.0011898885
0.0011279533
0.0010668393
0.0010064854
0.00094704139
0.00088840212
0.00083036416
0.00077297187
0.00071644719
0.0006607786
0.00060579991
0.00055166079
0.00049849303
0.00044661391
0.00039632747
0.00034762648
0.00030224072
0.00025856115
0.00022878668
0.00019037537
0.00031234344
-0.00024362827
0.0040830804
0.0041028917
0.004146147
0.0042008069
0.0042652171
0.0043393163
0.0044224453
0.0045138843
0.0046132958
0.0047207267
0.0048365241
0.004961337
0.0050961974
0.0052426656
0.0054030291
0.0055807224
0.0057807395
0.0060114624
0.0062845012
0.0066275917
0.0070655647
0.0077617917
0.0086467669
0.012508771
0.0091200058
0.0040446298
0.0039472149
0.0043944918
0.0045165278
0.0044652538
0.0043919081
0.0043236337
0.0042551341
0.0041860797
0.0041183722
0.0040533949
0.0039917992
0.0039333231
0.0038776931
0.0038247004
0.0037741907
0.0037260065
0.0036798254
0.0036356517
0.003593097
0.0035521873
0.0035128047
0.003474542
0.0034376073
0.0034018559
0.0033669286
0.0033329706
0.0032999584
0.0032676484
0.0032359242
0.0032049776
0.003174684
0.0031447719
0.0031152968
0.0030863996
0.0030579473
0.0030297154
0.003001741
0.0029741938
0.0029469726
0.002919828
0.0028928221
0.0028660383
0.0028394933
0.0028130001
0.002786507
0.0027600321
0.0027337175
0.0027074629
0.0026810625
0.0026545773
0.0026280491
0.0026015418
0.0025749056
0.0025480362
0.0025209486
0.0024937529
0.0024664335
0.0024387838
0.0024107998
0.0023824657
0.0023539196
0.0023250693
0.0022956906
0.0022658278
0.0022354955
0.0022047611
0.0021734637
0.0021414553
0.0021087151
0.0020753878
0.0020413794
0.0020064049
0.001970463
0.0019335855
0.0018957661
0.0018567631
0.0018164007
0.0017747091
0.0017316776
0.001687036
0.0016405129
0.0015921655
0.0015418709
0.001489225
0.0014340069
0.0013762087
0.0013156472
0.0012528385
0.0011898889
0.0011279537
0.0010668397
0.0010064857
0.00094704174
0.00088840246
0.00083036448
0.00077297218
0.00071644749
0.00066077889
0.00060580019
0.00055166106
0.00049849329
0.00044661416
0.00039632772
0.00034762672
0.00030224096
0.00025856138
0.00022878691
0.00019037559
0.00031234371
-0.0002436281
0.0040830804
0.0041028917
0.004146147
0.0042008069
0.0042652171
0.0043393163
0.0044224453
0.0045138843
0.0046132958
0.0047207267
0.0048365241
0.004961337
0.0050961974
0.0052426656
0.0054030291
0.0055807224
0.0057807394
0.0060114624
0.0062845011
0.0066275915
0.0070655644
0.0077617899
0.0086467677
0.012493667
0.0091211591
0.0040452126
0.0039473479
0.0043945458
0.0045165653
0.0044652853
0.0043919356
0.004323658
0.0042551559
0.0041860994
0.0041183901
0.0040534113
0.0039918143
0.003933337
0.003877706
0.0038247124
0.0037742018
0.0037260169
0.0036798352
0.0036356609
0.0035931056
0.0035521954
0.0035128124
0.0034745493
0.0034376142
0.0034018624
0.0033669348
0.0033329766
0.0032999641
0.0032676538
0.0032359293
0.0032049825
0.0031746887
0.0031447764
0.0031153011
0.0030864037
0.0030579512
0.0030297191
0.0030017447
0.0029741973
0.0029469759
0.0029198312
0.0028928253
0.0028660413
0.0028394962
0.0028130029
0.0027865096
0.0027600347
0.00273372
0.0027074653
0.0026810648
0.0026545795
0.0026280513
0.0026015438
0.0025749076
0.0025480381
0.0025209504
0.0024937547
0.0024664352
0.0024387854
0.0024108014
0.0023824672
0.0023539211
0.0023250707
0.002295692
0.0022658291
0.0022354968
0.0022047624
0.0021734649
0.0021414565
0.0021087162
0.0020753889
0.0020413804
0.0020064058
0.001970464
0.0019335864
0.0018957669
0.0018567639
0.0018164015
0.0017747099
0.0017316784
0.0016870367
0.0016405136
0.0015921661
0.0015418715
0.0014892256
0.0014340074
0.0013762092
0.0013156477
0.001252839
0.0011898894
0.0011279541
0.0010668401
0.0010064861
0.00094704212
0.00088840283
0.00083036483
0.00077297252
0.00071644782
0.00066077921
0.00060580049
0.00055166135
0.00049849358
0.00044661444
0.00039632799
0.00034762698
0.00030224121
0.00025856162
0.00022878716
0.00019037582
0.000312344
-0.00024362792
0.0040830804
0.0041028917
0.004146147
0.0042008069
0.0042652171
0.0043393163
0.0044224453
0.0045138843
0.0046132958
0.0047207267
0.0048365241
0.004961337
0.0050961974
0.0052426656
0.005403029
0.0055807223
0.0057807394
0.0060114623
0.0062845009
0.0066275912
0.007065564
0.0077617875
0.0086467686
0.012478192
0.0091223435
0.0040459293
0.0039474997
0.0043946075
0.0045166076
0.0044653207
0.0043919665
0.0043236853
0.0042551803
0.0041861214
0.0041184101
0.0040534296
0.0039918311
0.0039333525
0.0038777204
0.0038247257
0.0037742143
0.0037260286
0.003679846
0.0036356711
0.0035931152
0.0035522045
0.003512821
0.0034745574
0.0034376219
0.0034018697
0.0033669417
0.0033329831
0.0032999703
0.0032676597
0.003235935
0.0032049879
0.0031746939
0.0031447814
0.0031153059
0.0030864083
0.0030579556
0.0030297233
0.0030017487
0.0029742011
0.0029469796
0.0029198348
0.0028928287
0.0028660445
0.0028394994
0.0028130059
0.0027865126
0.0027600375
0.0027337227
0.002707468
0.0026810673
0.002654582
0.0026280536
0.0026015461
0.0025749098
0.0025480402
0.0025209525
0.0024937566
0.0024664371
0.0024387872
0.0024108032
0.0023824689
0.0023539227
0.0023250723
0.0022956935
0.0022658306
0.0022354982
0.0022047637
0.0021734662
0.0021414578
0.0021087174
0.0020753901
0.0020413816
0.0020064069
0.001970465
0.0019335874
0.0018957679
0.0018567648
0.0018164023
0.0017747107
0.0017316792
0.0016870375
0.0016405143
0.0015921668
0.0015418722
0.0014892262
0.001434008
0.0013762098
0.0013156482
0.0012528395
0.0011898899
0.0011279546
0.0010668406
0.0010064866
0.00094704254
0.00088840323
0.00083036522
0.00077297289
0.00071644818
0.00066077956
0.00060580083
0.00055166168
0.00049849389
0.00044661474
0.00039632828
0.00034762726
0.00030224149
0.0002585619
0.00022878743
0.00019037608
0.00031234432
-0.00024362772
0.0040830804
0.0041028917
0.004146147
0.0042008069
0.0042652171
0.0043393163
0.0044224453
0.0045138843
0.0046132958
0.0047207267
0.0048365241
0.004961337
0.0050961973
0.0052426655
0.005403029
0.0055807223
0.0057807393
0.0060114622
0.0062845007
0.0066275908
0.0070655635
0.0077617845
0.0086467699
0.012462395
0.0091232414
0.0040468823
0.0039476812
0.0043946805
0.0045166571
0.0044653619
0.0043920023
0.0043237169
0.0042552084
0.0041861467
0.0041184331
0.0040534506
0.0039918504
0.0039333703
0.0038777368
0.003824741
0.0037742285
0.0037260418
0.0036798585
0.0036356828
0.0035931262
0.0035522148
0.0035128308
0.0034745666
0.0034376306
0.003401878
0.0033669496
0.0033329906
0.0032999774
0.0032676665
0.0032359415
0.0032049941
0.0031746998
0.003144787
0.0031153113
0.0030864134
0.0030579605
0.0030297281
0.0030017532
0.0029742055
0.0029469838
0.0029198388
0.0028928326
0.0028660483
0.002839503
0.0028130094
0.0027865159
0.0027600407
0.0027337258
0.0027074709
0.0026810701
0.0026545847
0.0026280563
0.0026015487
0.0025749122
0.0025480426
0.0025209547
0.0024937588
0.0024664392
0.0024387893
0.0024108051
0.0023824708
0.0023539246
0.0023250741
0.0022956952
0.0022658322
0.0022354998
0.0022047652
0.0021734677
0.0021414592
0.0021087188
0.0020753914
0.0020413828
0.0020064081
0.0019704662
0.0019335885
0.001895769
0.0018567658
0.0018164033
0.0017747117
0.0017316801
0.0016870384
0.0016405152
0.0015921676
0.0015418729
0.0014892269
0.0014340087
0.0013762104
0.0013156488
0.0012528401
0.0011898905
0.0011279552
0.0010668411
0.0010064871
0.00094704301
0.00088840368
0.00083036565
0.00077297331
0.00071644858
0.00066077994
0.0006058012
0.00055166204
0.00049849424
0.00044661508
0.00039632861
0.00034762758
0.0003022418
0.0002585622
0.00022878773
0.00019037637
0.00031234468
-0.00024362749
0.0040830804
0.0041028917
0.004146147
0.0042008069
0.0042652171
0.0043393163
0.0044224453
0.0045138843
0.0046132958
0.0047207267
0.0048365241
0.004961337
0.0050961973
0.0052426655
0.005403029
0.0055807223
0.0057807392
0.006011462
0.0062845005
0.0066275903
0.0070655629
0.0077617806
0.0086467716
0.012446357
0.0091235234
0.0040481613
0.0039479115
0.0043947713
0.0045167177
0.0044654119
0.0043920456
0.0043237549
0.0042552423
0.0041861772
0.0041184607
0.0040534757
0.0039918734
0.0039333915
0.0038777564
0.0038247591
0.0037742454
0.0037260576
0.0036798732
0.0036356966
0.0035931392
0.003552227
0.0035128422
0.0034745774
0.0034376409
0.0034018877
0.0033669588
0.0033329994
0.0032999858
0.0032676744
0.003235949
0.0032050013
0.0031747067
0.0031447936
0.0031153176
0.0030864195
0.0030579663
0.0030297336
0.0030017585
0.0029742106
0.0029469887
0.0029198435
0.0028928371
0.0028660526
0.0028395071
0.0028130134
0.0027865197
0.0027600444
0.0027337293
0.0027074744
0.0026810734
0.0026545879
0.0026280593
0.0026015516
0.0025749151
0.0025480454
0.0025209574
0.0024937614
0.0024664417
0.0024387917
0.0024108074
0.002382473
0.0023539267
0.0023250761
0.0022956972
0.0022658341
0.0022355016
0.002204767
0.0021734693
0.0021414608
0.0021087204
0.0020753929
0.0020413843
0.0020064095
0.0019704675
0.0019335898
0.0018957702
0.001856767
0.0018164045
0.0017747128
0.0017316811
0.0016870393
0.0016405161
0.0015921685
0.0015418738
0.0014892277
0.0014340095
0.0013762112
0.0013156495
0.0012528407
0.0011898911
0.0011279558
0.0010668417
0.0010064876
0.00094704355
0.00088840419
0.00083036614
0.00077297378
0.00071644903
0.00066078038
0.00060580162
0.00055166245
0.00049849463
0.00044661546
0.00039632898
0.00034762794
0.00030224215
0.00025856254
0.00022878808
0.0001903767
0.00031234508
-0.00024362724
0.0040830804
0.0041028917
0.004146147
0.0042008069
0.0042652171
0.0043393163
0.0044224453
0.0045138843
0.0046132958
0.0047207267
0.0048365241
0.004961337
0.0050961973
0.0052426655
0.0054030289
0.0055807222
0.0057807391
0.0060114619
0.0062845002
0.0066275896
0.0070655621
0.0077617756
0.0086467739
0.012430182
0.0091234936
0.0040498743
0.0039482221
0.0043948912
0.004516796
0.0044654758
0.0043921007
0.0043238031
0.004255285
0.0041862154
0.0041184952
0.0040535071
0.003991902
0.0039334178
0.0038777807
0.0038247816
0.0037742662
0.003726077
0.0036798913
0.0036357136
0.0035931551
0.003552242
0.0035128563
0.0034745907
0.0034376534
0.0034018996
0.0033669701
0.0033330101
0.0032999959
0.0032676841
0.0032359582
0.00320501
0.003174715
0.0031448016
0.0031153252
0.0030864268
0.0030579733
0.0030297403
0.0030017649
0.0029742167
0.0029469946
0.0029198491
0.0028928425
0.0028660578
0.0028395121
0.0028130182
0.0027865244
0.0027600489
0.0027337336
0.0027074785
0.0026810774
0.0026545917
0.002628063
0.0026015551
0.0025749185
0.0025480486
0.0025209605
0.0024937644
0.0024664446
0.0024387945
0.0024108102
0.0023824757
0.0023539292
0.0023250785
0.0022956995
0.0022658363
0.0022355038
0.0022047691
0.0021734714
0.0021414627
0.0021087222
0.0020753947
0.002041386
0.0020064112
0.0019704691
0.0019335913
0.0018957716
0.0018567684
0.0018164058
0.001774714
0.0017316823
0.0016870405
0.0016405172
0.0015921696
0.0015418748
0.0014892287
0.0014340104
0.0013762121
0.0013156504
0.0012528415
0.0011898918
0.0011279565
0.0010668423
0.0010064883
0.00094704417
0.00088840479
0.00083036672
0.00077297433
0.00071644957
0.00066078089
0.00060580212
0.00055166292
0.0004984951
0.00044661591
0.00039632941
0.00034762836
0.00030224256
0.00025856294
0.00022878848
0.00019037708
0.00031234555
-0.00024362694
0.0040830804
0.0041028917
0.004146147
0.0042008069
0.0042652171
0.0043393163
0.0044224453
0.0045138843
0.0046132958
0.0047207267
0.0048365241
0.004961337
0.0050961973
0.0052426655
0.0054030289
0.0055807221
0.005780739
0.0060114616
0.0062844998
0.0066275888
0.007065561
0.0077617691
0.0086467768
0.012413979
0.0091235953
0.0040521658
0.0039486657
0.0043950601
0.0045169037
0.0044655625
0.0043921749
0.0043238676
0.0042553418
0.004186266
0.0041185408
0.0040535484
0.0039919397
0.0039334523
0.0038778124
0.0038248109
0.0037742933
0.0037261022
0.0036799148
0.0036357355
0.0035931756
0.0035522613
0.0035128745
0.0034746078
0.0034376695
0.0034019148
0.0033669845
0.0033330237
0.0033000089
0.0032676964
0.0032359699
0.0032050212
0.0031747256
0.0031448117
0.0031153349
0.003086436
0.0030579821
0.0030297487
0.003001773
0.0029742245
0.002947002
0.0029198563
0.0028928493
0.0028660644
0.0028395184
0.0028130242
0.0027865302
0.0027600544
0.002733739
0.0027074836
0.0026810824
0.0026545965
0.0026280676
0.0026015596
0.0025749228
0.0025480527
0.0025209645
0.0024937682
0.0024664482
0.002438798
0.0024108135
0.0023824789
0.0023539323
0.0023250815
0.0022957024
0.0022658391
0.0022355064
0.0022047717
0.0021734738
0.0021414651
0.0021087245
0.0020753968
0.0020413881
0.0020064132
0.001970471
0.0019335932
0.0018957734
0.0018567701
0.0018164074
0.0017747156
0.0017316838
0.0016870419
0.0016405186
0.0015921709
0.0015418761
0.0014892299
0.0014340115
0.0013762131
0.0013156514
0.0012528425
0.0011898928
0.0011279573
0.0010668432
0.0010064891
0.00094704492
0.00088840551
0.00083036741
0.000772975
0.00071645021
0.00066078151
0.00060580271
0.0005516635
0.00049849565
0.00044661645
0.00039632994
0.00034762887
0.00030224306
0.00025856342
0.00022878896
0.00019037753
0.00031234612
-0.00024362659
0.0040830804
0.0041028917
0.004146147
0.0042008069
0.0042652171
0.0043393163
0.0044224453
0.0045138843
0.0046132958
0.0047207267
0.0048365241
0.0049613369
0.0050961973
0.0052426654
0.0054030288
0.005580722
0.0057807388
0.0060114613
0.0062844992
0.0066275878
0.0070655596
0.0077617609
0.0086467807
0.012397834
0.009123883
0.0040552882
0.003949324
0.0043953123
0.0045170606
0.0044656869
0.0043922803
0.0043239586
0.0042554214
0.0041863366
0.004118604
0.0040536054
0.0039919915
0.0039334996
0.0038778558
0.0038248509
0.0037743303
0.0037261365
0.0036799467
0.0036357652
0.0035932034
0.0035522873
0.0035128989
0.0034746308
0.0034376912
0.0034019353
0.0033670038
0.003333042
0.0033000262
0.0032677129
0.0032359855
0.003205036
0.0031747398
0.0031448252
0.0031153477
0.0030864483
0.0030579938
0.0030297599
0.0030017837
0.0029742347
0.0029470118
0.0029198657
0.0028928583
0.002866073
0.0028395267
0.0028130322
0.0027865378
0.0027600618
0.002733746
0.0027074904
0.0026810889
0.0026546027
0.0026280736
0.0026015653
0.0025749283
0.0025480581
0.0025209696
0.0024937731
0.002466453
0.0024388025
0.0024108179
0.0023824831
0.0023539364
0.0023250854
0.0022957061
0.0022658427
0.0022355099
0.002204775
0.002173477
0.0021414682
0.0021087274
0.0020753997
0.0020413908
0.0020064158
0.0019704735
0.0019335955
0.0018957757
0.0018567723
0.0018164095
0.0017747176
0.0017316857
0.0016870438
0.0016405203
0.0015921725
0.0015418776
0.0014892314
0.001434013
0.0013762145
0.0013156527
0.0012528437
0.0011898939
0.0011279584
0.0010668442
0.00100649
0.00094704588
0.00088840643
0.00083036829
0.00077297584
0.00071645102
0.00066078229
0.00060580346
0.00055166422
0.00049849635
0.00044661712
0.00039633059
0.0003476295
0.00030224368
0.00025856402
0.00022878956
0.00019037811
0.00031234683
-0.00024362614
0.0040830804
0.0041028917
0.004146147
0.0042008069
0.0042652171
0.0043393164
0.0044224453
0.0045138843
0.0046132958
0.0047207267
0.0048365241
0.0049613369
0.0050961972
0.0052426654
0.0054030287
0.0055807218
0.0057807386
0.0060114609
0.0062844985
0.0066275864
0.0070655579
0.0077617504
0.0086467857
0.012381772
0.0091242653
0.0040595907
0.003950309
0.0043957012
0.0045172986
0.0044658726
0.0043924362
0.0043240921
0.0042555376
0.0041864391
0.0041186953
0.0040536876
0.0039920659
0.0039335673
0.0038779177
0.0038249078
0.0037743828
0.003726185
0.0036799918
0.0036358072
0.0035932426
0.0035523239
0.0035129332
0.003474663
0.0034377215
0.0034019639
0.0033670308
0.0033330675
0.0033000504
0.0032677358
0.0032360073
0.0032050567
0.0031747594
0.0031448438
0.0031153655
0.0030864652
0.00305801
0.0030297754
0.0030017985
0.0029742488
0.0029470253
0.0029198786
0.0028928707
0.0028660848
0.0028395381
0.0028130431
0.0027865482
0.0027600718
0.0027337556
0.0027074996
0.0026810977
0.0026546112
0.0026280818
0.0026015732
0.0025749359
0.0025480653
0.0025209766
0.0024937798
0.0024664594
0.0024388087
0.0024108239
0.0023824889
0.0023539419
0.0023250907
0.0022957112
0.0022658476
0.0022355146
0.0022047795
0.0021734813
0.0021414723
0.0021087314
0.0020754035
0.0020413944
0.0020064193
0.0019704769
0.0019335987
0.0018957788
0.0018567752
0.0018164123
0.0017747203
0.0017316883
0.0016870462
0.0016405226
0.0015921747
0.0015418797
0.0014892334
0.0014340149
0.0013762163
0.0013156544
0.0012528453
0.0011898954
0.0011279599
0.0010668456
0.0010064914
0.00094704714
0.00088840763
0.00083036944
0.00077297694
0.00071645208
0.00066078331
0.00060580445
0.00055166517
0.00049849727
0.00044661801
0.00039633145
0.00034763034
0.00030224449
0.00025856481
0.00022879034
0.00019037885
0.00031234775
-0.00024362556
0.0040830804
0.0041028917
0.0041461469
0.0042008069
0.0042652171
0.0043393164
0.0044224453
0.0045138843
0.0046132958
0.0047207267
0.0048365241
0.0049613369
0.0050961972
0.0052426653
0.0054030286
0.0055807216
0.0057807382
0.0060114604
0.0062844977
0.0066275847
0.0070655557
0.007761737
0.0086467922
0.012365748
0.0091246426
0.0040652422
0.0039517514
0.0043963022
0.0045176641
0.0044661541
0.0043926708
0.0043242919
0.0042557106
0.004186591
0.0041188303
0.0040538085
0.003992175
0.0039336664
0.0038780082
0.0038249907
0.0037744592
0.0037262556
0.0036800571
0.003635868
0.0035932992
0.0035523768
0.0035129828
0.0034747095
0.0034377652
0.003402005
0.0033670696
0.0033331041
0.003300085
0.0032677685
0.0032360384
0.0032050862
0.0031747874
0.0031448705
0.0031153909
0.0030864894
0.003058033
0.0030297974
0.0030018195
0.0029742689
0.0029470445
0.0029198969
0.0028928882
0.0028661017
0.0028395542
0.0028130585
0.002786563
0.002760086
0.0027337692
0.0027075127
0.0026811103
0.0026546233
0.0026280933
0.0026015843
0.0025749465
0.0025480756
0.0025209864
0.0024937893
0.0024664685
0.0024388174
0.0024108322
0.0023824969
0.0023539496
0.0023250981
0.0022957183
0.0022658544
0.0022355211
0.0022047858
0.0021734874
0.0021414781
0.0021087369
0.0020754088
0.0020413995
0.0020064241
0.0019704815
0.0019336032
0.001895783
0.0018567793
0.0018164162
0.001774724
0.0017316918
0.0016870496
0.0016405259
0.0015921778
0.0015418826
0.0014892361
0.0014340175
0.0013762187
0.0013156567
0.0012528475
0.0011898975
0.0011279619
0.0010668475
0.0010064932
0.00094704886
0.00088840928
0.00083037102
0.00077297846
0.00071645353
0.00066078471
0.00060580579
0.00055166647
0.00049849852
0.00044661922
0.00039633262
0.00034763147
0.00030224559
0.00025856588
0.00022879141
0.00019037987
0.00031234901
-0.00024362477
0.0040830803
0.0041028917
0.0041461469
0.0042008069
0.0042652171
0.0043393163
0.0044224453
0.0045138843
0.0046132958
0.0047207267
0.0048365241
0.0049613368
0.0050961971
0.0052426652
0.0054030284
0.0055807214
0.0057807378
0.0060114597
0.0062844965
0.0066275825
0.0070655528
0.0077617199
0.0086468006
0.012349634
0.0091249154
0.0040720758
0.0039537806
0.00439721
0.0045182162
0.0044665754
0.0043930204
0.0043245888
0.0042559669
0.0041868156
0.0041190293
0.0040539865
0.0039923354
0.0039338118
0.0038781407
0.0038251121
0.0037745707
0.0037263585
0.0036801525
0.0036359565
0.0035933816
0.0035524538
0.0035130547
0.003474777
0.0034378286
0.0034020646
0.0033671257
0.0033331572
0.0033001351
0.003267816
0.0032360833
0.0032051289
0.003174828
0.003144909
0.0031154275
0.0030865243
0.0030580663
0.0030298291
0.0030018498
0.0029742978
0.0029470722
0.0029199234
0.0028929135
0.0028661259
0.0028395774
0.0028130807
0.0027865843
0.0027601064
0.0027337888
0.0027075315
0.0026811283
0.0026546406
0.0026281099
0.0026016002
0.0025749618
0.0025480902
0.0025210005
0.0024938028
0.0024664815
0.0024388299
0.0024108442
0.0023825084
0.0023539606
0.0023251087
0.0022957285
0.0022658642
0.0022355305
0.0022047947
0.002173496
0.0021414863
0.0021087448
0.0020754164
0.0020414068
0.0020064311
0.0019704882
0.0019336096
0.0018957891
0.0018567851
0.0018164217
0.0017747293
0.0017316969
0.0016870544
0.0016405304
0.0015921821
0.0015418868
0.0014892401
0.0014340212
0.0013762223
0.00131566
0.0012528507
0.0011899005
0.0011279647
0.0010668502
0.0010064957
0.0009470513
0.00088841161
0.00083037325
0.0007729806
0.00071645559
0.00066078668
0.00060580769
0.0005516683
0.00049850028
0.00044662092
0.00039633427
0.00034763307
0.00030224715
0.00025856739
0.00022879292
0.0001903813
0.00031235078
-0.00024362366
0.0040830803
0.0041028917
0.0041461469
0.0042008069
0.0042652171
0.0043393163
0.0044224453
0.0045138843
0.0046132958
0.0047207267
0.004836524
0.0049613368
0.005096197
0.005242665
0.0054030282
0.005580721
0.0057807373
0.0060114588
0.0062844951
0.0066275796
0.0070655492
0.0077616981
0.0086468114
0.012333277
0.0091249419
0.0040799124
0.0039565199
0.0043985267
0.0045190212
0.0044671855
0.0043935254
0.0043250174
0.0042563369
0.0041871394
0.0041193162
0.0040542429
0.0039925663
0.003934021
0.0038783313
0.0038252865
0.003774731
0.0037265064
0.0036802893
0.0036360835
0.0035934998
0.0035525641
0.0035131579
0.0034748737
0.0034379194
0.00340215
0.0033672063
0.0033332332
0.003300207
0.003267884
0.0032361477
0.00320519
0.003174886
0.0031449642
0.00311548
0.0030865743
0.003058114
0.0030298746
0.0030018932
0.0029743393
0.0029471118
0.0029199612
0.0028929498
0.0028661606
0.0028396106
0.0028131125
0.0027866148
0.0027601356
0.0027338169
0.0027075583
0.0026811541