/*--------------------------------*- C++ -*----------------------------------*\
  =========                 |
  \\      /  F ield         | OpenFOAM: The Open Source CFD Toolbox
   \\    /   O peration     | Website:  https://openfoam.org
    \\  /    A nd           | Version:  12
     \\/     M anipulation  |
\*---------------------------------------------------------------------------*/
FoamFile
{
    format      ascii;
    class       volScalarField;
    location    "1800";
    object      p;
}
// * * * * * * * * * * * * * * * * * * * * * * * * * * * * * * * * * * * * * //

dimensions      [0 2 -2 0 0 0 0];

internalField   nonuniform List<scalar> 
7480
(
0.0087170893
0.0081282931
0.0070201886
0.0064119932
0.0061121945
0.0058667464
0.0056062776
0.0053527052
0.0051126156
0.0048747108
0.0046318768
0.0043831787
0.0041396046
0.0039209378
0.0037506424
0.0036395436
0.0035862742
0.0035514011
0.0035270347
0.0035140333
0.0035033705
0.0034928223
0.0034811954
0.0034549568
0.0034161345
0.0033732531
0.0033304695
0.0032902044
0.0032498113
0.0032099452
0.0031715291
0.0031345536
0.0030995842
0.0030646408
0.0030263608
0.0029852578
0.0029430947
0.0029014322
0.0028616228
0.0028235289
0.002786472
0.0027504469
0.0027155077
0.0026815975
0.0026483157
0.0026150711
0.0025814098
0.0025476649
0.0025139344
0.002478894
0.0024411498
0.0024032437
0.002367622
0.0023346224
0.0023020438
0.0022684839
0.0022331561
0.0021953633
0.0021561882
0.0021170055
0.0020777915
0.002038085
0.0019979619
0.0019574753
0.0019163984
0.0018747562
0.0018326857
0.0017901102
0.0017469954
0.0017034007
0.0016592043
0.0016143636
0.0015689372
0.0015228057
0.0014759766
0.0014284605
0.0013801193
0.0013309911
0.0012810455
0.0012301035
0.0011783748
0.0011255254
0.0010712377
0.0010158439
0.00095826833
0.0008906084
0.00081686447
0.00076201279
0.00070787042
0.00065015966
0.000592095
0.00053549621
0.00048021617
0.00042550779
0.00037321266
0.00032032185
0.00028390948
0.00022600731
0.00038489989
-0.00027975472
0.0082807095
0.0076994618
0.0068348835
0.0063081387
0.0060393357
0.0058145101
0.0055723225
0.0053354441
0.0051150031
0.0049027041
0.0046924869
0.0044828748
0.0042820815
0.0041015447
0.0039515568
0.00383788
0.0037545456
0.0037000011
0.0036592255
0.0036251815
0.0035934653
0.0035602686
0.0035208177
0.0034757063
0.0034287198
0.0033816306
0.0033375774
0.0032968704
0.0032569371
0.0032178101
0.0031799837
0.0031433495
0.0031081017
0.0030724324
0.0030337543
0.0029926951
0.0029508269
0.0029095129
0.0028699122
0.0028317856
0.0027944882
0.0027581116
0.0027227748
0.0026884615
0.0026546967
0.0026208887
0.0025866804
0.0025522236
0.0025176335
0.0024817961
0.0024443566
0.0024072537
0.0023724385
0.0023394132
0.0023063146
0.0022722239
0.0022365484
0.0021985865
0.0021593184
0.0021200453
0.0020807394
0.0020409448
0.0020007393
0.001960173
0.0019190153
0.0018772922
0.0018351395
0.0017924787
0.0017492769
0.0017055953
0.0016613132
0.0016163888
0.0015708806
0.0015246693
0.0014777627
0.0014301714
0.0013817591
0.0013325652
0.001282558
0.0012315573
0.0011797724
0.0011268686
0.001072526
0.0010170683
0.0009592503
0.00089012462
0.00081948566
0.00076662936
0.00071216252
0.00065347833
0.00059474319
0.00053765698
0.00048199143
0.00042699089
0.00037449258
0.00032145263
0.00028492744
0.00022701781
0.00038595621
-0.00027898763
0.0079896879
0.0075790554
0.0069020178
0.0063869663
0.0060969439
0.0058591014
0.0056106703
0.0053669483
0.0051393386
0.0049197053
0.0047017362
0.0044826211
0.0042704908
0.004076242
0.0039117832
0.0037860045
0.0036992698
0.0036490507
0.0036198996
0.0035972807
0.0035744529
0.0035485882
0.0035177748
0.0034843168
0.0034478386
0.0034081351
0.0033670561
0.0033253661
0.0032834882
0.003241786
0.0032007904
0.0031605454
0.0031216892
0.0030833643
0.0030433096
0.0030016357
0.0029595023
0.0029180902
0.0028784559
0.0028402709
0.0028028389
0.0027662692
0.0027306918
0.0026961117
0.0026619576
0.002627642
0.0025929348
0.0025580424
0.0025229909
0.0024868392
0.0024494211
0.0024121664
0.002376976
0.0023434909
0.002310056
0.0022757839
0.0022400176
0.0022020284
0.0021627392
0.0021234133
0.0020840253
0.0020441313
0.0020038219
0.0019631507
0.0019218891
0.0018800683
0.0018378224
0.0017950687
0.0017517743
0.0017080023
0.001663632
0.0016186222
0.0015730315
0.0015267402
0.0014797564
0.0014320906
0.0013836056
0.0013343404
0.0012842637
0.0012331962
0.0011813478
0.0011283831
0.0010739837
0.0010184836
0.00096052685
0.00089094524
0.00082372281
0.00077107962
0.0007161451
0.00065693329
0.00059775203
0.00054024387
0.00048420038
0.00042889486
0.00037615879
0.00032291363
0.00028623166
0.00022831997
0.00038717315
-0.00027802711
0.0077640066
0.0074468281
0.0068507674
0.0063462874
0.0060458389
0.0058103996
0.0055700569
0.0053330296
0.0051112202
0.0048983624
0.0046882799
0.004478559
0.0042770867
0.0040939401
0.0039400316
0.0038227935
0.0037417856
0.003691755
0.0036581787
0.0036280953
0.0035971212
0.0035641406
0.0035283611
0.0034909958
0.0034510707
0.0034093432
0.0033668601
0.0033243127
0.0032834546
0.0032441099
0.003206048
0.0031689424
0.0031321072
0.0030944111
0.003054656
0.003012836
0.0029699891
0.00292746
0.0028866875
0.002847656
0.0028096865
0.0027727473
0.0027368827
0.0027021272
0.0026678463
0.0026333555
0.0025984113
0.0025633351
0.0025280073
0.0024915563
0.0024538541
0.0024162503
0.0023806989
0.0023469273
0.0023133151
0.0022789229
0.0022430745
0.0022050683
0.0021657821
0.0021264237
0.0020869685
0.0020469941
0.0020066074
0.001965858
0.0019245159
0.0018826208
0.0018403026
0.0017974723
0.0017540994
0.0017102489
0.0016658001
0.0016207128
0.0015750459
0.0015286789
0.0014816209
0.0014338825
0.0013853243
0.0013359858
0.0012858371
0.001234699
0.0011827829
0.001129752
0.0010752921
0.0010197384
0.00096177109
0.00089337346
0.00082724622
0.00077408298
0.00071881977
0.00065937354
0.00059995022
0.00054219975
0.00048594528
0.00043045182
0.00037754318
0.00032414722
0.00028735153
0.00022932994
0.00038821966
-0.00027721872
0.0075576178
0.0072962569
0.0067813166
0.0063227425
0.0060321203
0.0058053664
0.0055737209
0.0053417013
0.005122477
0.0049120538
0.0047049341
0.0044990891
0.0043013857
0.0041209096
0.0039670985
0.0038467423
0.0037598253
0.0037017295
0.0036608159
0.0036260084
0.0035929568
0.0035597635
0.0035248157
0.003488214
0.003449158
0.003408269
0.0033663136
0.0033241495
0.0032834469
0.0032440135
0.0032058034
0.0031688849
0.0031320908
0.0030943602
0.0030554408
0.0030152122
0.0029743838
0.002933821
0.0028941203
0.002855368
0.002817368
0.0027799933
0.0027433779
0.0027078973
0.0026731217
0.0026383186
0.002603139
0.0025679023
0.0025324344
0.0024958314
0.0024579796
0.0024202378
0.0023845029
0.0023505062
0.0023166851
0.0022821142
0.0022461347
0.0022080802
0.0021687768
0.0021293714
0.0020898476
0.002049802
0.0020093501
0.0019685309
0.0019271165
0.0018851596
0.0018427784
0.0017998771
0.0017564309
0.0017125073
0.0016679846
0.0016228234
0.0015770832
0.0015306427
0.001483512
0.0014357015
0.0013870716
0.0013376626
0.0012874443
0.0012362375
0.0011842552
0.001131159
0.0010766362
0.0010210196
0.00096305257
0.00089569394
0.00083021962
0.00077689985
0.00072144614
0.00066179736
0.0006021408
0.00054415936
0.0004877005
0.00043201631
0.00037893299
0.00032539529
0.00028848509
0.00023031782
0.00038923853
-0.00027632486
0.0073686511
0.0071507379
0.0067135071
0.0063004178
0.0060145615
0.0057877492
0.0055593715
0.0053301419
0.0051127128
0.0049052602
0.0047011287
0.0045004909
0.0043080656
0.0041320971
0.0039812644
0.003861847
0.0037742051
0.003714169
0.0036716365
0.0036361634
0.0036027239
0.0035689641
0.0035332892
0.0034957347
0.0034559167
0.0034144013
0.0033719266
0.003329377
0.003288125
0.0032480943
0.0032092404
0.0031715017
0.0031337528
0.0030951921
0.0030557172
0.0030151891
0.0029743455
0.0029339754
0.0028943142
0.0028558154
0.0028187139
0.0027826769
0.0027474256
0.0027127219
0.0026781873
0.0026433846
0.0026079273
0.002572248
0.0025364055
0.0024995688
0.002461596
0.0024238029
0.0023879741
0.0023538127
0.0023198226
0.002285117
0.0022490461
0.0022109566
0.0021716362
0.0021321941
0.0020926224
0.0020525232
0.0020120208
0.001971145
0.0019296712
0.0018876647
0.0018452312
0.0018022694
0.0017587605
0.0017147738
0.0016701862
0.0016249596
0.0015791539
0.0015326468
0.0014854497
0.0014375731
0.0013888768
0.0013394025
0.0012891193
0.0012378479
0.0011858033
0.0011326451
0.0010780616
0.0010223813
0.00096439409
0.00089773375
0.000832978
0.00077978835
0.00072427543
0.00066446678
0.00060457999
0.00054634726
0.00048964749
0.00043374539
0.0003804725
0.00032677572
0.00028972514
0.0002313999
0.0003902758
-0.00027523545
0.0071961113
0.0070121803
0.0066408011
0.0062686284
0.0059899349
0.0057654419
0.0055438177
0.0053212519
0.0051085591
0.004906049
0.0047058973
0.0045108094
0.0043236397
0.0041519555
0.0040037766
0.0038847836
0.0037955192
0.0037321625
0.0036858464
0.0036470205
0.003610636
0.0035744257
0.0035370048
0.0034982521
0.0034578129
0.003416011
0.0033734705
0.0033309699
0.0032896601
0.0032495904
0.0032106758
0.0031727936
0.0031349921
0.0030965316
0.0030572065
0.0030168385
0.0029760486
0.0029355146
0.0028955278
0.0028566941
0.0028193096
0.0027831139
0.00274781
0.0027129787
0.0026785666
0.0026444238
0.0026100612
0.0025752452
0.0025397624
0.0025031377
0.002465181
0.002427212
0.0023911064
0.0023566734
0.0023224791
0.002287654
0.0022515404
0.002213462
0.0021741608
0.0021347191
0.0020951353
0.0020550118
0.0020144853
0.001973579
0.0019320686
0.0018900283
0.0018475588
0.0018045544
0.0017609996
0.0017169654
0.0016723271
0.0016270481
0.0015811891
0.0015346264
0.0014873732
0.0014394398
0.0013906854
0.0013411533
0.0012908119
0.0012394819
0.0011873808
0.0011341656
0.0010795254
0.0010237841
0.0009657674
0.00089967539
0.00083563936
0.00078262517
0.00072711798
0.00066720529
0.0006071191
0.00054864501
0.0004917021
0.00043557726
0.00038210817
0.00032824396
0.00029103607
0.0002325448
0.00039128572
-0.00027393578
0.0070379676
0.006880212
0.0065637599
0.0062303354
0.005963032
0.0057428195
0.0055280665
0.0053118382
0.005103297
0.0049039466
0.0047080609
0.0045174107
0.0043347757
0.0041669429
0.0040211757
0.0039025863
0.003811865
0.0037456052
0.0036960802
0.0036546927
0.0036164592
0.0035790278
0.0035409641
0.0035018608
0.0034613091
0.003419491
0.0033769756
0.0033344892
0.0032930478
0.0032527981
0.0032136379
0.003175427
0.0031373492
0.0030986812
0.0030591843
0.0030187363
0.0029778935
0.0029373167
0.0028973514
0.0028585356
0.0028210867
0.0027847218
0.0027491078
0.0027138867
0.0026791244
0.0026447323
0.0026103143
0.0025753932
0.0025398418
0.0025036362
0.0024665506
0.0024294123
0.0023936786
0.0023593267
0.0023250203
0.0022899705
0.0022536891
0.002215559
0.0021762541
0.0021368209
0.0020972562
0.0020571437
0.0020166289
0.0019757282
0.0019342113
0.0018921624
0.0018496806
0.001806656
0.0017630759
0.0017190134
0.0016743421
0.0016290271
0.0015831301
0.0015365258
0.0014892295
0.0014412512
0.0013924494
0.0013428694
0.0012924787
0.0012410979
0.0011889478
0.001135682
0.001080991
0.0010251931
0.00096714781
0.0009015936
0.00083822079
0.00078535134
0.00072987526
0.00066990051
0.00060964845
0.00055095552
0.000493784
0.00043744501
0.00038378265
0.00032975264
0.00029237913
0.00023371438
0.00039221988
-0.00027241172
0.0068922875
0.0067549113
0.0064843024
0.006187058
0.0059334691
0.005718304
0.0055099627
0.0053001813
0.0050963132
0.0049008407
0.0047098062
0.0045239161
0.0043461359
0.0041824637
0.0040393991
0.0039215673
0.0038297771
0.0037610373
0.0037086049
0.0036647501
0.0036245771
0.0035856306
0.0035464482
0.0035064675
0.0034652943
0.0034230495
0.0033802498
0.0033375626
0.0032958716
0.0032553688
0.0032159403
0.0031774232
0.0031390979
0.0031002684
0.0030606864
0.0030202656
0.0029794882
0.0029389749
0.0028990734
0.0028602496
0.0028227133
0.0027862332
0.0027505068
0.0027152245
0.0026804084
0.0026459156
0.0026113127
0.0025761193
0.002540307
0.0025039432
0.0024668764
0.0024297526
0.0023939407
0.0023597473
0.0023259703
0.0022914271
0.0022554059
0.0022174558
0.0021781775
0.0021386628
0.0020990339
0.0020588967
0.0020183878
0.0019775136
0.0019360193
0.0018939918
0.0018515276
0.0018085101
0.0017649298
0.0017208624
0.001676179
0.0016308474
0.0015849304
0.0015383011
0.001490977
0.0014429682
0.0013941321
0.0013445163
0.0012940874
0.0012426658
0.0011904762
0.0011371682
0.0010824338
0.0010265857
0.0009685171
0.00090348495
0.00084072187
0.00078796795
0.00073253378
0.00067252498
0.00061213465
0.00055324541
0.00049586208
0.0004393206
0.00038547151
0.00033128095
0.00029373603
0.00023489072
0.00039304204
-0.00027063233
0.0067572861
0.0066361109
0.0064036577
0.0061393854
0.0059008144
0.0056917583
0.0054899779
0.005287091
0.0050885589
0.0048974243
0.0047111566
0.0045299571
0.0043568166
0.004197066
0.0040565234
0.0039393992
0.0038465884
0.0037754983
0.0037202457
0.0036739091
0.0036317545
0.0035912716
0.0035509925
0.0035102431
0.0034686086
0.0034261272
0.0033832274
0.0033404995
0.0032987029
0.0032580528
0.0032184377
0.0031796786
0.0031411407
0.00310217
0.0030625127
0.0030221031
0.0029813599
0.0029408636
0.0029009661
0.0028620908
0.0028244525
0.0027878584
0.0027520204
0.002716644
0.0026817096
0.0026470753
0.0026123451
0.0025770865
0.0025412618
0.0025048932
0.0024678082
0.002430575
0.002394527
0.0023600734
0.0023261547
0.0022914729
0.0022553881
0.0022177558
0.0021790474
0.0021399695
0.0021005425
0.0020604804
0.0020199333
0.0019790151
0.0019375048
0.0018954858
0.0018530493
0.0018100602
0.0017665053
0.0017224593
0.0016777884
0.001632463
0.0015865471
0.0015399118
0.0014925777
0.0014445548
0.0013956996
0.0013460623
0.0012956082
0.0012441577
0.00119194
0.0011386
0.0010838315
0.0010279417
0.00096985695
0.00090533037
0.00084313607
0.00079047615
0.00073508951
0.00067506792
0.0006145632
0.00055549903
0.0004979208
0.00044118951
0.0003871617
0.00033281712
0.00029509563
0.00023606259
0.00039372045
-0.00026855741
0.0066315258
0.0065235087
0.0063227599
0.0060880677
0.0058652192
0.0056634055
0.0054683962
0.0052725806
0.005079748
0.0048931911
0.0047116321
0.0045351637
0.0043666142
0.0042107567
0.0040727998
0.0039565699
0.0038630106
0.0037898984
0.0037321078
0.003683463
0.003639444
0.0035975111
0.0035561809
0.0035146825
0.0034725611
0.003429782
0.0033866952
0.0033438272
0.0033018377
0.0032609572
0.0032210856
0.0031820329
0.0031432371
0.0031040883
0.0030643267
0.0030238998
0.0029831736
0.0029426886
0.0029027982
0.0028638892
0.0028261699
0.002789474
0.0027535255
0.0027180458
0.0026829926
0.0026482329
0.0026134005
0.0025780858
0.0025422206
0.0025058159
0.0024687441
0.0024315512
0.0023954806
0.002360912
0.0023268077
0.0022918899
0.0022555998
0.0022178841
0.0021791804
0.0021400706
0.0021007098
0.0020610257
0.0020208848
0.0019801976
0.0019388056
0.0018967919
0.0018543318
0.0018113315
0.0017677879
0.0017237695
0.0016791283
0.0016338309
0.0015879389
0.0015413188
0.0014939949
0.0014459764
0.0013971189
0.0013474761
0.0012970116
0.0012455457
0.0011933131
0.001139953
0.0010851612
0.0010292401
0.0009711477
0.00090710994
0.00084544869
0.00079286417
0.0007375291
0.00067751376
0.00061691729
0.00055769969
0.00049994451
0.00044303753
0.00038884037
0.00033434953
0.00029644685
0.00023721834
0.00039422209
-0.00026614077
0.006513844
0.0064167097
0.0062423188
0.0060338686
0.0058269009
0.0056332826
0.0054452453
0.0052565716
0.0050697511
0.0048880793
0.0047113168
0.004539653
0.0043756694
0.0042236631
0.0040883054
0.0039730723
0.0038789356
0.0038040181
0.0037438688
0.0036929984
0.0036471382
0.0036037479
0.0035613287
0.0035190383
0.0034763836
0.0034332705
0.0033899766
0.0033469643
0.0033048024
0.0032637197
0.0032236249
0.003184319
0.0031452992
0.0031059995
0.0030661563
0.003025726
0.0029850301
0.0029445685
0.0029046918
0.0028657539
0.0028279536
0.002791151
0.0027550866
0.0027194998
0.0026843305
0.0026494488
0.0026145099
0.0025791239
0.0025432035
0.0025067622
0.0024697126
0.0024325619
0.0023964492
0.002361741
0.0023274811
0.0022924639
0.0022561404
0.0022184245
0.0021796714
0.0021404293
0.0021009364
0.0020612117
0.0020210251
0.0019803234
0.0019391698
0.0018975152
0.0018553105
0.0018124285
0.0017689033
0.0017248723
0.001680226
0.0016349438
0.0015890807
0.0015424902
0.0014951953
0.0014472009
0.0013983592
0.0013487283
0.0012982696
0.0012468031
0.0011945699
0.0011412027
0.0010863998
0.0010304595
0.00097236916
0.00090880282
0.00084763901
0.00079511255
0.00073983335
0.000679843
0.00061917743
0.00055982874
0.00050191601
0.00044484913
0.00039049354
0.00033586559
0.00029777783
0.00023834579
0.00039448805
-0.00026333257
0.0064032723
0.0063152792
0.0061628534
0.0059774904
0.005786116
0.0056014251
0.0054205938
0.0052391125
0.005058565
0.004882069
0.0047101944
0.004543352
0.004383886
0.0042356772
0.0041029269
0.0039887954
0.0038942691
0.0038177871
0.0037554984
0.0037025392
0.0036549159
0.0036101155
0.003566628
0.0035235582
0.0034803753
0.0034369298
0.0033934281
0.0033502668
0.0033079322
0.0032666425
0.0032263168
0.0031867524
0.0031474981
0.0031080324
0.0030680924
0.0030276399
0.0029869582
0.002946507
0.0029066308
0.0028676549
0.0028297687
0.0027928561
0.0027566747
0.0027209797
0.0026856942
0.0026506889
0.0026156402
0.0025801797
0.0025442074
0.0025077361
0.0024707076
0.0024335893
0.0023974264
0.0023625807
0.0023281774
0.002293066
0.0022566925
0.0022189623
0.0021802104
0.002140971
0.0021014792
0.002061711
0.0020214161
0.0019805865
0.001939367
0.0018976792
0.0018554545
0.0018127309
0.0017695057
0.0017257059
0.001681166
0.0016359042
0.001590037
0.0015434484
0.0014961726
0.0014482087
0.0013993958
0.0013497928
0.0012993566
0.0012479051
0.0011956868
0.0011423265
0.0010875255
0.0010315793
0.00097350151
0.0009103877
0.00084968394
0.00079719891
0.00074198059
0.00068203442
0.00062132297
0.00056186656
0.0005038172
0.00044660792
0.00039210641
0.00033735201
0.00029907595
0.00023943112
0.0003944831
-0.00026008295
0.0062989954
0.0062187854
0.0060847294
0.0059195582
0.0057431657
0.0055679042
0.0053945185
0.0052202578
0.0050461668
0.0048750905
0.0047081989
0.0045461891
0.0043912126
0.0042467733
0.0041166573
0.0040037419
0.0039090158
0.0038312033
0.0037669874
0.0037120736
0.0036627582
0.0036165828
0.0035720337
0.0035281775
0.0034844488
0.0034406477
0.0033969136
0.0033535801
0.0033110601
0.003269556
0.0032289962
0.0031891786
0.0031496949
0.0031100662
0.003070033
0.0030295585
0.0029888922
0.0029484548
0.0029085812
0.0028695721
0.0028316061
0.0027945884
0.0027582936
0.0027224906
0.0026870893
0.0026519609
0.0026168027
0.0025812673
0.0025452437
0.0025087417
0.002471728
0.0024346357
0.0023984241
0.0023634469
0.0023289018
0.0022936892
0.002257257
0.002219512
0.0021807691
0.0021415319
0.0021020259
0.0020622261
0.0020219136
0.0019810829
0.0019398397
0.0018980746
0.0018557352
0.0018129384
0.001769681
0.0017258607
0.001681455
0.0016364482
0.001590773
0.0015442716
0.0014970086
0.001449046
0.0014002437
0.0013506629
0.0013002561
0.0012488314
0.0011966424
0.0011433034
0.0010885181
0.0010325803
0.00097452619
0.0009118443
0.00085156098
0.00079910062
0.00074394846
0.00068406613
0.00062333261
0.00056379289
0.00050562925
0.00044829671
0.00039366341
0.00033879473
0.00030032793
0.00024045953
0.00039416016
-0.00025633105
0.0062003234
0.0061268182
0.0060081913
0.005860612
0.0056983751
0.0055328181
0.0053670879
0.0052000594
0.0050325439
0.0048670913
0.0047052864
0.0045481252
0.0043976181
0.0042569275
0.0041294725
0.0040178796
0.0039231328
0.003844212
0.0037782761
0.0037215486
0.003670622
0.0036231168
0.0035775246
0.0035328862
0.0034886061
0.0034444386
0.0034004613
0.0033569464
0.0033142405
0.0032725251
0.0032317359
0.0031916733
0.0031519661
0.0031121752
0.0030720472
0.0030315448
0.0029908876
0.0029504593
0.0029105829
0.0028715373
0.0028334904
0.0027963657
0.002759955
0.0027240402
0.0026885208
0.0026532683
0.0026179994
0.0025823865
0.0025463096
0.0025097752
0.0024727719
0.0024357018
0.0023994425
0.0023643357
0.0023296473
0.0022943309
0.0022578404
0.0022200822
0.002181347
0.0021421063
0.0021025816
0.0020627555
0.0020224303
0.0019815887
0.001940321
0.0018985361
0.0018561929
0.0018133803
0.0017700586
0.0017261345
0.0016816614
0.0016366222
0.0015909346
0.0015445807
0.0014975348
0.0014497107
0.0014009752
0.0013514018
0.0013009993
0.0012495892
0.0011974291
0.0011441186
0.0010893604
0.0010334455
0.00097542643
0.00091315457
0.00085325014
0.00080079686
0.00074571559
0.00068591666
0.00062518513
0.00056558722
0.00050733282
0.00044989761
0.00039514816
0.00034017885
0.00030151971
0.00024141614
0.0003934634
-0.00025200807
0.0061066684
0.0060389975
0.005933391
0.0058011078
0.0056520738
0.0054962895
0.0053383708
0.0051785737
0.0050177016
0.0048580338
0.004701416
0.0045491194
0.0044030624
0.0042661051
0.004141341
0.0040311757
0.0039365842
0.0038567731
0.0037893253
0.0037309336
0.0036784866
0.0036297042
0.0035830935
0.0035376802
0.0034928443
0.0034482994
0.0034040657
0.0033603568
0.003317459
0.0032755298
0.0032345104
0.0031942062
0.0031542776
0.0031143234
0.0030740981
0.0030335624
0.0029929095
0.0029524879
0.0029126062
0.0028735239
0.0028353982
0.0027981683
0.0027616428
0.0027256161
0.0026899795
0.0026546042
0.0026192251
0.0025835334
0.0025474026
0.0025108357
0.0024738398
0.0024367881
0.0024004809
0.0023652461
0.0023304147
0.0022949939
0.0022584448
0.0022206712
0.0021819407
0.0021426952
0.0021031535
0.0020633035
0.0020229621
0.0019821042
0.0019408136
0.0018990144
0.0018566628
0.0018138313
0.0017704885
0.0017265563
0.0016820664
0.0016369673
0.0015911871
0.0015447828
0.0014977038
0.0014498846
0.0014013126
0.0013519235
0.0013016162
0.0012502416
0.0011980927
0.0011447911
0.0010900525
0.0010341657
0.00097618956
0.00091430359
0.00085473485
0.0008022701
0.00074726325
0.00068756644
0.00062686054
0.00056722964
0.00050890864
0.00045139243
0.0003965437
0.00034148876
0.00030263637
0.00024228468
0.00039235735
-0.0002470489
0.0060175263
0.0059549763
0.0058604128
0.0057414222
0.0056045817
0.0054584623
0.0053084412
0.0051558603
0.0050016568
0.0048478904
0.0046965487
0.0045491331
0.0044075092
0.0042742757
0.0041522371
0.0040436034
0.0039493382
0.0038688482
0.0038000931
0.003740191
0.0036863207
0.0036363188
0.0035887194
0.0035425427
0.0034971501
0.0034522194
0.0034077184
0.0033638055
0.0033207114
0.0032785688
0.0032373215
0.0031967816
0.003156637
0.0031165213
0.0030761983
0.003035626
0.0029949736
0.0029545562
0.0029146668
0.002875547
0.0028373436
0.0028000093
0.0027633691
0.002727229
0.0026914742
0.002655976
0.0026204858
0.0025847132
0.0025485271
0.0025119266
0.0024749342
0.002437896
0.0024015401
0.0023661794
0.0023312054
0.0022956793
0.0022590701
0.0022212787
0.002182551
0.0021433005
0.002103742
0.0020638674
0.002023508
0.001982634
0.0019413229
0.0018995081
0.0018571431
0.0018142926
0.0017709331
0.0017269901
0.0016824823
0.0016373644
0.0015915763
0.0015451509
0.0014980096
0.0014501097
0.0014014985
0.0013520843
0.0013018251
0.0012506134
0.0011986098
0.001145371
0.0010906463
0.0010347686
0.00097682377
0.00091528768
0.00085600532
0.00080350769
0.00074857661
0.0006889991
0.00062834132
0.00056870195
0.00051033844
0.00045276336
0.00039783305
0.00034270852
0.0003036625
0.00024304801
0.00039077641
-0.00024138616
0.0059324625
0.0058744412
0.0057892923
0.0056818603
0.0055561984
0.0054194949
0.00527738
0.0051319803
0.0049844358
0.0048366448
0.0046906515
0.0045481323
0.0044109267
0.0042814118
0.0041621357
0.0040551351
0.0039613613
0.0038803969
0.0038105359
0.0037492807
0.0036940917
0.0036429351
0.0035943835
0.0035474603
0.003501514
0.0034561923
0.0034114155
0.00336729
0.0033239961
0.0032816403
0.0032401676
0.0031993971
0.0031590412
0.0031187649
0.0030783429
0.0030377298
0.0029970731
0.0029566568
0.0029167568
0.0028775984
0.0028393183
0.0028018806
0.002765126
0.0027288718
0.0026929988
0.0026573782
0.0026217769
0.0025859221
0.0025496796
0.002513045
0.0024760526
0.0024390236
0.0024026189
0.0023671344
0.0023320188
0.0022963865
0.002259716
0.0022219047
0.0021831782
0.0021439223
0.0021043465
0.0020644469
0.002024069
0.0019831791
0.0019418472
0.0019000153
0.0018576366
0.0018147685
0.0017713921
0.0017274343
0.0016829081
0.0016377749
0.0015919761
0.0015455328
0.0014983762
0.0014504683
0.001401828
0.0013523476
0.0013020245
0.001250777
0.0011987753
0.0011456451
0.0010910663
0.0010352737
0.00097737508
0.00091614171
0.00085707743
0.00080451173
0.00074964917
0.00069020341
0.00062961358
0.00056998871
0.00051160601
0.000453994
0.00039900002
0.00034382245
0.00030458268
0.00024368819
0.00038866193
-0.00023495066
0.0058511004
0.0057971106
0.0057200301
0.005622665
0.0055071968
0.0053795546
0.005245276
0.0051069973
0.0049660721
0.0048242911
0.0046836979
0.0045460875
0.0044132864
0.0042874874
0.0041710124
0.0040657441
0.0039726211
0.00389138
0.003820611
0.0037581632
0.0037017665
0.0036495264
0.0036000649
0.0035524168
0.003505924
0.0034602088
0.0034151496
0.0033708047
0.0033273078
0.0032847398
0.0032430446
0.0032020491
0.0031614869
0.003121052
0.0030805304
0.0030398732
0.0029992081
0.0029587903
0.0029188776
0.0028796798
0.0028413244
0.0028037848
0.0027669165
0.0027305477
0.0026945563
0.0026588139
0.0026231016
0.002587163
0.002550863
0.0025141931
0.0024771971
0.0024401729
0.0024037186
0.0023681126
0.0023328562
0.0022971167
0.0022603836
0.0022225505
0.0021838233
0.0021445611
0.0021049676
0.0020650428
0.0020246458
0.0019837395
0.0019423865
0.0019005368
0.0018581442
0.0018152586
0.001771864
0.001727891
0.0016833475
0.0016381985
0.0015923856
0.0015459249
0.0014987555
0.0014508366
0.0014021789
0.0013526867
0.0013023525
0.0012510608
0.0011989969
0.0011458305
0.0010912265
0.0010354809
0.00097772756
0.00091686163
0.00085799624
0.00080532377
0.00075050178
0.00069118406
0.00063067214
0.00057107948
0.00051269826
0.00045507012
0.00040003002
0.00034481598
0.00030538207
0.00024418769
0.00038596052
-0.00022767581
0.0057731123
0.005722732
0.0056526036
0.0055640263
0.0054578197
0.00533881
0.0052122254
0.0050809774
0.0049466056
0.0048108336
0.0046756693
0.0045429739
0.0044145637
0.0042924792
0.0041788444
0.0040754049
0.0039830862
0.0039017592
0.0038302761
0.0037667977
0.00370931
0.0036560639
0.0036057407
0.0035573944
0.0035103662
0.0034642586
0.003418913
0.0033743435
0.0033306418
0.0032878634
0.0032459495
0.0032047347
0.0031639719
0.0031233807
0.003082759
0.0030420548
0.0030013775
0.0029609553
0.0029210276
0.0028817898
0.0028433601
0.0028057199
0.0027687387
0.0027322548
0.0026961451
0.0026602814
0.0026244581
0.0025884346
0.0025520759
0.0025153696
0.0024783666
0.0024413429
0.0024048383
0.0023691129
0.002333717
0.0022978696
0.0022610727
0.0022232157
0.002184486
0.0021452168
0.0021056052
0.0020656553
0.0020252385
0.0019843152
0.001942941
0.0019010732
0.0018586661
0.0018157626
0.0017723495
0.0017283608
0.0016838
0.0016386342
0.0015928069
0.0015463298
0.0014991463
0.0014512138
0.0014025401
0.0013530373
0.0013026899
0.0012513905
0.0011993096
0.0011461181
0.0010914756
0.0010356857
0.00097791466
0.0009172814
0.00085863482
0.00080592249
0.00075116666
0.00069197879
0.00063153803
0.00057197994
0.00051361071
0.00045598206
0.00040091109
0.00034567624
0.00030604679
0.0002445303
0.00038262522
-0.0002195033
0.0056982119
0.00565108
0.0055869736
0.0055060899
0.0054082784
0.0052974267
0.0051783302
0.0050539899
0.0049260812
0.0047962855
0.0046665547
0.004538772
0.004414738
0.0042963671
0.0041856113
0.0040840937
0.0039927264
0.0039114973
0.0038394891
0.0037751432
0.0037166861
0.0036625171
0.0036113863
0.0035623738
0.0035148259
0.0034683303
0.0034226969
0.0033779
0.0033339926
0.0032910063
0.0032488783
0.0032074503
0.0031664926
0.0031257481
0.0030850264
0.0030442725
0.0030035795
0.0029631501
0.0029232054
0.002883927
0.0028454244
0.0028076851
0.0027705919
0.0027339931
0.0026977652
0.0026617811
0.002625847
0.0025897376
0.0025533189
0.0025165752
0.0024795618
0.0024425342
0.0024059785
0.002370136
0.0023346019
0.0022986461
0.0022617841
0.0022239013
0.002185167
0.0021458899
0.0021062598
0.0020662847
0.0020258475
0.0019849067
0.0019435112
0.0019016246
0.0018592025
0.0018162809
0.0017728488
0.0017288442
0.0016842657
0.0016390826
0.0015932406
0.0015467468
0.0014995485
0.0014516023
0.0014029132
0.0013533979
0.0013030366
0.0012517307
0.001199629
0.0011464229
0.0010917877
0.001035987
0.00097822615
0.00091770005
0.00085913362
0.00080622303
0.0007515182
0.00069254846
0.00063223118
0.00057272335
0.00051436407
0.00045673563
0.00040163954
0.00034639454
0.00030656525
0.00024469817
0.00037862479
-0.00021039124
0.0056261482
0.0055819528
0.0055230909
0.0054489653
0.0053587541
0.005255562
0.0051436959
0.0050261072
0.0049045481
0.0047806679
0.0046563513
0.0045334681
0.0044137931
0.0042991341
0.0041912944
0.0040917881
0.0040015129
0.0039205581
0.0038482089
0.0037831582
0.0037238573
0.0036688545
0.0036169756
0.0035673341
0.0035192865
0.0034724111
0.0034264913
0.0033814662
0.0033373539
0.003294163
0.0032518262
0.0032101917
0.0031690454
0.003128151
0.0030873298
0.0030465243
0.0030058122
0.0029653732
0.0029254098
0.0028860902
0.0028475159
0.0028096793
0.0027724753
0.0027357618
0.0026994161
0.0026633123
0.0026272679
0.0025910717
0.0025545919
0.0025178094
0.0024807823
0.0024437466
0.002407139
0.0023711816
0.0023355108
0.0022994461
0.0022625178
0.0022246071
0.0021858664
0.0021465806
0.0021069316
0.0020669312
0.0020264728
0.0019855141
0.0019440971
0.0019021914
0.0018597537
0.0018168137
0.0017733624
0.0017293412
0.0016847447
0.0016395441
0.0015936869
0.0015471761
0.0014999625
0.0014520024
0.0014032976
0.0013537692
0.0013033945
0.0012520808
0.0011999575
0.0011467387
0.0010921111
0.0010362935
0.00097860388
0.00091818107
0.00085965496
0.00080655313
0.00075176541
0.00069286885
0.00063264478
0.00057326084
0.00051496988
0.00045735943
0.00040223535
0.00034697727
0.00030693712
0.0002446634
0.00037395657
-0.00020032254
0.0055567
0.0055151702
0.0054609
0.0053927325
0.0053093995
0.0052133625
0.005108429
0.0049974045
0.0048820591
0.0047640087
0.0046450641
0.0045270548
0.0044117174
0.0043007668
0.0041958781
0.0040984676
0.0040094184
0.0039289066
0.0038563952
0.0037908015
0.0037307855
0.0036750429
0.003622481
0.0035722527
0.0035237299
0.0034764868
0.0034302852
0.0033850335
0.0033407186
0.0032973277
0.0032547882
0.0032129544
0.0031716262
0.003130586
0.0030896663
0.0030488076
0.0030080735
0.0029676225
0.0029276389
0.0028882778
0.0028496331
0.0028117012
0.0027743878
0.0027375601
0.0027010972
0.0026648747