/*--------------------------------*- C++ -*----------------------------------*\
  =========                 |
  \\      /  F ield         | OpenFOAM: The Open Source CFD Toolbox
   \\    /   O peration     | Website:  https://openfoam.org
    \\  /    A nd           | Version:  12
     \\/     M anipulation  |
\*---------------------------------------------------------------------------*/
FoamFile
{
    format      ascii;
    class       surfaceScalarField;
    location    "1800";
    object      phi;
}
// * * * * * * * * * * * * * * * * * * * * * * * * * * * * * * * * * * * * * //

dimensions      [0 3 -1 0 0 0 0];

internalField   nonuniform List<scalar> 
25880
(
2.0046355e-06
1.8625489e-11
2.0045772e-06
5.8338797e-11
2.0044861e-06
9.1078567e-11
2.0043755e-06
1.106043e-10
2.0042492e-06
1.2632299e-10
2.0041083e-06
1.4092269e-10
2.0039534e-06
1.5487773e-10
2.0037847e-06
1.6865288e-10
2.0036019e-06
1.8284917e-10
2.0034039e-06
1.980213e-10
2.0031892e-06
2.1469518e-10
2.0029557e-06
2.33506e-10
2.0027004e-06
2.5528718e-10
2.002419e-06
2.8135213e-10
2.0021057e-06
3.1329942e-10
2.0017508e-06
3.5488192e-10
2.0013427e-06
4.0816507e-10
2.000852e-06
4.9070284e-10
2.0002624e-06
5.8953776e-10
1.9994319e-06
8.3055944e-10
1.9984087e-06
1.0231956e-09
1.9956438e-06
2.7648682e-09
1.9934243e-06
2.2195096e-09
1.025542e-06
9.6788228e-07
4.3154612e-08
9.8238741e-07
2.7392838e-08
1.5761774e-08
2.5370046e-08
2.0227913e-09
2.4557017e-08
8.1302931e-10
2.3976597e-08
5.8041999e-10
2.34793e-08
4.9729743e-10
2.3039439e-08
4.398609e-10
2.2645926e-08
3.93513e-10
2.2290144e-08
3.5578233e-10
2.1965247e-08
3.248965e-10
2.1666247e-08
2.9899984e-10
2.1389437e-08
2.7680994e-10
2.11319e-08
2.575372e-10
2.0891241e-08
2.4065902e-10
2.0665472e-08
2.2576856e-10
2.0452937e-08
2.1253555e-10
2.0252235e-08
2.0070228e-10
2.006216e-08
1.900748e-10
1.9881662e-08
1.8049809e-10
1.9709831e-08
1.7183059e-10
1.9545866e-08
1.6396544e-10
1.938907e-08
1.5679573e-10
1.9238836e-08
1.5023431e-10
1.9094604e-08
1.442314e-10
1.8955891e-08
1.3871342e-10
1.8822269e-08
1.3362173e-10
1.8693336e-08
1.2893299e-10
1.8568734e-08
1.2460232e-10
1.8448153e-08
1.2058108e-10
1.8331301e-08
1.1685132e-10
1.8217904e-08
1.1339777e-10
1.8107723e-08
1.101807e-10
1.800055e-08
1.0717315e-10
1.7896175e-08
1.0437493e-10
1.7794402e-08
1.0177302e-10
1.7695066e-08
9.9335984e-11
1.7598018e-08
9.7047457e-11
1.7503107e-08
9.491186e-11
1.7410183e-08
9.2923388e-11
1.7319127e-08
9.1056236e-11
1.722983e-08
8.9296816e-11
1.7142178e-08
8.7651695e-11
1.7056059e-08
8.6119011e-11
1.6971376e-08
8.4683339e-11
1.6888045e-08
8.3331076e-11
1.6805983e-08
8.2061599e-11
1.6725104e-08
8.087913e-11
1.6645324e-08
7.9780501e-11
1.6566574e-08
7.8749905e-11
1.6488794e-08
7.7780134e-11
1.6411915e-08
7.6878492e-11
1.6335869e-08
7.6046431e-11
1.6260592e-08
7.5276713e-11
1.6186033e-08
7.4558959e-11
1.6112142e-08
7.3891615e-11
1.603886e-08
7.3281192e-11
1.5966131e-08
7.2729795e-11
1.5893902e-08
7.2228181e-11
1.5822134e-08
7.1768661e-11
1.5750779e-08
7.1355174e-11
1.5679785e-08
7.0993116e-11
1.5609102e-08
7.068357e-11
1.5538685e-08
7.0416846e-11
1.5468497e-08
7.0187773e-11
1.5398493e-08
7.0004277e-11
1.5328622e-08
6.9871133e-11
1.5258836e-08
6.9786011e-11
1.5189094e-08
6.9741669e-11
1.5119357e-08
6.9736749e-11
1.5049577e-08
6.9780124e-11
1.4979699e-08
6.9877887e-11
1.4909677e-08
7.0022064e-11
1.483947e-08
7.0207072e-11
1.4769028e-08
7.044225e-11
1.4698292e-08
7.0735782e-11
1.4627206e-08
7.1085831e-11
1.455572e-08
7.1486518e-11
1.4483779e-08
7.194125e-11
1.4411317e-08
7.2461339e-11
1.4338268e-08
7.3049479e-11
1.4264568e-08
7.3699711e-11
1.4190152e-08
7.441641e-11
1.4114937e-08
7.5214217e-11
1.4038842e-08
7.6095654e-11
1.3961785e-08
7.7056833e-11
1.3883677e-08
7.8108313e-11
1.3804408e-08
7.9268432e-11
1.3723881e-08
8.0527713e-11
1.3641956e-08
8.1924603e-11
1.3561993e-08
7.9962692e-11
1.3485829e-08
7.6163778e-11
1.3413178e-08
7.2651368e-11
1.3343766e-08
6.9412145e-11
1.3277338e-08
6.6427511e-11
1.3213672e-08
6.3666659e-11
1.315257e-08
6.1101832e-11
1.3093849e-08
5.8720905e-11
1.3037336e-08
5.6513121e-11
1.298288e-08
5.4456082e-11
1.2930349e-08
5.2530463e-11
1.287962e-08
5.0729615e-11
1.2830571e-08
4.9049181e-11
1.2783085e-08
4.7485923e-11
1.2737059e-08
4.6025272e-11
1.269238e-08
4.4679202e-11
1.2648969e-08
4.3411152e-11
1.2606569e-08
4.2399667e-11
1.2565284e-08
4.1285729e-11
1.2523898e-08
4.1385923e-11
1.2484428e-08
3.9469783e-11
1.2435772e-08
4.8656108e-11
3.0832876e-11
2.0345092e-06
3.7529027e-11
2.0344499e-06
1.1755416e-10
2.0343575e-06
1.8353602e-10
2.0342452e-06
2.2289429e-10
2.0341169e-06
2.5457894e-10
2.0339739e-06
2.8400552e-10
2.0338166e-06
3.1213057e-10
2.0336454e-06
3.3989134e-10
2.0334597e-06
3.6849931e-10
2.0332587e-06
3.9907247e-10
2.0330407e-06
4.3267073e-10
2.0328036e-06
4.7057409e-10
2.0325444e-06
5.1446203e-10
2.0322588e-06
5.6698107e-10
2.0319408e-06
6.3135233e-10
2.0315805e-06
7.1513765e-10
2.0311662e-06
8.2249884e-10
2.0306681e-06
9.8880538e-10
2.0300697e-06
1.1879502e-09
2.0292266e-06
1.6735832e-09
2.0281881e-06
2.0617415e-09
2.0253822e-06
5.5707859e-09
2.0231287e-06
4.4730095e-09
1.096875e-06
1.8941359e-06
1.2952882e-07
1.9497336e-06
8.3817799e-08
6.1472796e-08
7.763035e-08
8.2102395e-09
7.5141039e-08
3.3023403e-09
7.3363459e-08
2.358e-09
7.1841554e-08
2.0192024e-09
7.0495691e-08
1.7857244e-09
6.9291641e-08
1.5975626e-09
6.8203032e-08
1.4443921e-09
6.7208939e-08
1.3189888e-09
6.6294097e-08
1.2138422e-09
6.5447156e-08
1.1237512e-09
6.4659183e-08
1.0455103e-09
6.392285e-08
9.7699172e-10
6.3232076e-08
9.1654232e-10
6.258179e-08
8.6282131e-10
6.196771e-08
8.1478301e-10
6.1386144e-08
7.7164047e-10
6.083388e-08
7.3276241e-10
6.0308133e-08
6.9757704e-10
5.9806452e-08
6.6564705e-10
5.9326706e-08
6.365411e-10
5.8867035e-08
6.0990575e-10
5.8425731e-08
5.8553497e-10
5.800131e-08
5.6313444e-10
5.7592466e-08
5.4246554e-10
5.7197969e-08
5.2343009e-10
5.6816723e-08
5.0584893e-10
5.6447778e-08
4.8952524e-10
5.6090246e-08
4.7438404e-10
5.5743281e-08
4.6036276e-10
5.5406158e-08
4.4730302e-10
5.5078237e-08
4.3509457e-10
5.4758878e-08
4.2373439e-10
5.444748e-08
4.1317069e-10
5.4143538e-08
4.0327767e-10
5.3846598e-08
3.9398797e-10
5.3556192e-08
3.8531786e-10
5.3271871e-08
3.7724447e-10
5.2993262e-08
3.6966482e-10
5.2720036e-08
3.6252313e-10
5.2451843e-08
3.5584421e-10
5.2188341e-08
3.4962149e-10
5.1929231e-08
3.4379304e-10
5.1674258e-08
3.3830395e-10
5.1423169e-08
3.331505e-10
5.1175699e-08
3.2834982e-10
5.093159e-08
3.2388918e-10
5.0690634e-08
3.1970563e-10
5.0452645e-08
3.1576933e-10
5.0217415e-08
3.1210876e-10
4.9984731e-08
3.0873055e-10
4.9754402e-08
3.0560553e-10
4.9526269e-08
3.0269211e-10
4.9300177e-08
2.9998323e-10
4.9075953e-08
2.9750498e-10
4.8853417e-08
2.9526609e-10
4.8632415e-08
2.9322974e-10
4.8412819e-08
2.9136475e-10
4.8194488e-08
2.8968618e-10
4.7977265e-08
2.8821624e-10
4.7760989e-08
2.8695922e-10
4.754553e-08
2.8587662e-10
4.733077e-08
2.8494714e-10
4.7116572e-08
2.8420213e-10
4.6902782e-08
2.8366146e-10
4.6689252e-08
2.8331575e-10
4.6475858e-08
2.8313604e-10
4.6262478e-08
2.8311636e-10
4.6048966e-08
2.8329242e-10
4.5835155e-08
2.8368902e-10
4.5620903e-08
2.8427449e-10
4.5406084e-08
2.8502601e-10
4.5190545e-08
2.8598076e-10
4.4974109e-08
2.8717229e-10
4.4756601e-08
2.8859338e-10
4.4537867e-08
2.9022037e-10
4.4317742e-08
2.9206665e-10
4.4096025e-08
2.9417797e-10
4.3872509e-08
2.9656564e-10
4.3647003e-08
2.9920568e-10
4.3419304e-08
3.021155e-10
4.3189164e-08
3.0535429e-10
4.2956327e-08
3.0893274e-10
4.2720548e-08
3.1283517e-10
4.2481553e-08
3.1710401e-10
4.2239007e-08
3.218137e-10
4.1992609e-08
3.2692618e-10
4.1741936e-08
3.3259776e-10
4.1497266e-08
3.2463281e-10
4.126422e-08
3.0920974e-10
4.1041921e-08
2.9495013e-10
4.0829534e-08
2.8179955e-10
4.0626279e-08
2.6968243e-10
4.0431471e-08
2.5847398e-10
4.0244512e-08
2.4806142e-10
4.0064837e-08
2.3839528e-10
3.9891919e-08
2.2943194e-10
3.9725294e-08
2.2108075e-10
3.9564561e-08
2.132632e-10
3.9409339e-08
2.05952e-10
3.9259258e-08
1.991296e-10
3.9113962e-08
1.927828e-10
3.8973134e-08
1.8685258e-10
3.8836426e-08
1.8138752e-10
3.8703599e-08
1.762385e-10
3.8573867e-08
1.7213129e-10
3.8447549e-08
1.6760382e-10
3.8320922e-08
1.6801303e-10
3.8200228e-08
1.6016337e-10
3.8051065e-08
1.9781933e-10
1.2473762e-10
2.0947016e-06
5.699234e-11
2.0946406e-06
1.7852958e-10
2.0945454e-06
2.7875347e-10
2.0944298e-06
3.3854905e-10
2.0942977e-06
3.8668689e-10
2.0941503e-06
4.3139004e-10
2.0939883e-06
4.7411236e-10
2.0938119e-06
5.1627844e-10
2.0936207e-06
5.5972886e-10
2.0934136e-06
6.0616191e-10
2.0931891e-06
6.5718755e-10
2.0929449e-06
7.1474995e-10
2.092678e-06
7.813998e-10
2.0923838e-06
8.6115643e-10
2.0920562e-06
9.5891164e-10
2.0916852e-06
1.0861492e-09
2.0912585e-06
1.2491893e-09
2.0907456e-06
1.5017449e-09
2.0901294e-06
1.8041688e-09
2.0892613e-06
2.5416562e-09
2.0881919e-06
3.131116e-09
2.0853031e-06
8.4595932e-09
2.0829829e-06
6.7932652e-09
1.1857806e-06
2.7913382e-06
2.2104067e-07
2.9144735e-06
1.4525669e-07
1.3725678e-07
1.3453308e-07
1.8933842e-08
1.3021701e-07
7.6184159e-09
1.2713449e-07
5.44052e-09
1.2449685e-07
4.6568365e-09
1.2216471e-07
4.1178695e-09
1.2007832e-07
3.6839481e-09
1.1819196e-07
3.3307599e-09
1.1646938e-07
3.0415619e-09
1.1488415e-07
2.7990755e-09
1.1341658e-07
2.5913191e-09
1.1205119e-07
2.4109007e-09
1.1077528e-07
2.2529043e-09
1.0957831e-07
2.1135139e-09
1.0845149e-07
1.989638e-09
1.0738741e-07
1.8788663e-09
1.0637966e-07
1.7793847e-09
1.0542269e-07
1.6897351e-09
1.0451166e-07
1.6086023e-09
1.0364234e-07
1.5349737e-09
1.0281102e-07
1.4678582e-09
1.0201449e-07
1.4064413e-09
1.0124978e-07
1.3502423e-09
1.0051432e-07
1.2985887e-09
9.980586e-08
1.2509298e-09
9.9122256e-08
1.207034e-09
9.8461612e-08
1.1664925e-09
9.7822285e-08
1.1288528e-09
9.720273e-08
1.0939384e-09
9.6601489e-08
1.0616044e-09
9.6017302e-08
1.03149e-09
9.5449057e-08
1.0033397e-09
9.4895648e-08
9.7714307e-10
9.4356036e-08
9.5278228e-10
9.3829344e-08
9.2997023e-10
9.3314782e-08
9.0855009e-10
9.2811543e-08
8.8855667e-10
9.2318849e-08
8.6993834e-10
9.1836053e-08
8.5246056e-10
9.1362583e-08
8.3599363e-10
9.0897835e-08
8.2059193e-10
9.0441215e-08
8.062416e-10
8.9992207e-08
7.9280127e-10
8.9550366e-08
7.8014469e-10
8.9115255e-08
7.6826145e-10
8.8686414e-08
7.5719077e-10
8.8263399e-08
7.4690383e-10
8.7845848e-08
7.3725722e-10
8.7433436e-08
7.2818134e-10
8.7025805e-08
7.1973996e-10
8.6622586e-08
7.1194937e-10
8.6223448e-08
7.047429e-10
8.5828115e-08
6.9802537e-10
8.5436319e-08
6.9177941e-10
8.5047759e-08
6.8606446e-10
8.4662124e-08
6.8090105e-10
8.4279149e-08
6.7620542e-10
8.3898608e-08
6.7190571e-10
8.3520259e-08
6.680352e-10
8.314383e-08
6.6464542e-10
8.2769043e-08
6.6174632e-10
8.2395669e-08
6.5925031e-10
8.2023508e-08
6.5710785e-10
8.165232e-08
6.5538991e-10
8.1281839e-08
6.5414297e-10
8.0911809e-08
6.5334571e-10
8.0542013e-08
6.5293194e-10
8.0172242e-08
6.5288722e-10
7.9802241e-08
6.532933e-10
7.9431723e-08
6.5420757e-10
7.9060439e-08
6.5555809e-10
7.8688173e-08
6.5729199e-10
7.831466e-08
6.5949389e-10
7.7939591e-08
6.6224152e-10
7.7562665e-08
6.6551879e-10
7.7183614e-08
6.6927136e-10
7.6802151e-08
6.7352948e-10
7.6417931e-08
6.783983e-10
7.6030592e-08
6.8390449e-10
7.5639805e-08
6.8999318e-10
7.5245216e-08
6.9670394e-10
7.4846398e-08
7.0417276e-10
7.4442905e-08
7.1242515e-10
7.4034316e-08
7.2142505e-10
7.362015e-08
7.3126962e-10
7.3199833e-08
7.4213049e-10
7.2772839e-08
7.5392058e-10
7.2338436e-08
7.6700067e-10
7.1914436e-08
7.48633e-10
7.151058e-08
7.1306578e-10
7.1125348e-08
6.8018202e-10
7.0757292e-08
6.4985576e-10
7.0405061e-08
6.2191252e-10
7.006747e-08
5.96065e-10
6.9743479e-08
5.7205298e-10
6.9432112e-08
5.4976195e-10
6.9132453e-08
5.2909144e-10
6.8843701e-08
5.0983286e-10
6.8565159e-08
4.9180502e-10
6.8296166e-08
4.7494459e-10
6.8036085e-08
4.5921122e-10
6.7784293e-08
4.4457442e-10
6.7540247e-08
4.3089835e-10
6.730334e-08
4.1829478e-10
6.7073159e-08
4.0641926e-10
6.6848346e-08
3.9694493e-10
6.6629451e-08
3.8649841e-10
6.6410029e-08
3.8743536e-10
6.6200935e-08
3.6925661e-10
6.5942248e-08
4.5650626e-10
2.8717448e-10
2.1861099e-06
7.7305559e-11
2.1860463e-06
2.4217521e-10
2.1859469e-06
3.7815442e-10
2.1858261e-06
4.5930008e-10
2.1856882e-06
5.2462641e-10
2.1855343e-06
5.8528561e-10
2.1853651e-06
6.4325157e-10
2.185181e-06
7.0045848e-10
2.1849813e-06
7.5940414e-10
2.1847651e-06
8.223929e-10
2.1845306e-06
8.9160909e-10
2.1842757e-06
9.6969025e-10
2.183997e-06
1.0600966e-09
2.1836899e-06
1.1682803e-09
2.1833479e-06
1.3008771e-09
2.1829606e-06
1.4734639e-09
2.1825152e-06
1.6946139e-09
2.1819797e-06
2.0371841e-09
2.1813365e-06
2.4473959e-09
2.1804304e-06
3.4477344e-09
2.1793143e-06
4.2472753e-09
2.1762996e-06
1.1474253e-08
2.173878e-06
9.214862e-09
1.2958794e-06
3.6693368e-06
3.2279676e-07
3.8875562e-06
2.1536041e-07
2.4469313e-07
1.9946677e-07
3.4827479e-08
1.9306327e-07
1.4021916e-08
1.8849069e-07
1.0013098e-08
1.8458033e-07
8.5671948e-09
1.8112345e-07
7.5747555e-09
1.7803087e-07
6.7765215e-09
1.7523473e-07
6.1269047e-09
1.7268137e-07
5.5949169e-09
1.703316e-07
5.1488467e-09
1.6815624e-07
4.7666798e-09
1.6613232e-07
4.434818e-09
1.6424102e-07
4.1442038e-09
1.6246673e-07
3.8878114e-09
1.6079641e-07
3.6599543e-09
1.5921908e-07
3.4562016e-09
1.5772524e-07
3.2732164e-09
1.5630666e-07
3.108314e-09
1.5495619e-07
2.9590794e-09
1.5366752e-07
2.8236446e-09
1.5243518e-07
2.7001915e-09
1.512544e-07
2.5872222e-09
1.501208e-07
2.4838452e-09
1.4903056e-07
2.3888322e-09
1.4798032e-07
2.3011694e-09
1.4696693e-07
2.2204234e-09
1.4598757e-07
2.1458484e-09
1.4503981e-07
2.0766142e-09
1.4412136e-07
2.0123911e-09
1.4323005e-07
1.9529113e-09
1.4236402e-07
1.8975176e-09
1.4152162e-07
1.8457389e-09
1.4070122e-07
1.7975497e-09
1.3990126e-07
1.7527364e-09
1.3912046e-07
1.7107753e-09
1.3835763e-07
1.6713759e-09
1.3761159e-07
1.6345974e-09
1.3688118e-07
1.600347e-09
1.3616545e-07
1.5681978e-09
1.3546353e-07
1.5379096e-09
1.3477454e-07
1.5095779e-09
1.3409761e-07
1.483179e-09
1.3343195e-07
1.4584555e-09
1.3277692e-07
1.4351755e-09
1.3213187e-07
1.4133173e-09
1.314961e-07
1.392952e-09
1.3086898e-07
1.374028e-09
1.3024995e-07
1.3562841e-09
1.2963854e-07
1.339591e-09
1.2903422e-07
1.324063e-09
1.2843644e-07
1.3097314e-09
1.2784471e-07
1.2964749e-09
1.2725861e-07
1.2841194e-09
1.2667776e-07
1.2726312e-09
1.2610171e-07
1.2621185e-09
1.2552999e-07
1.2526197e-09
1.2496221e-07
1.2439826e-09
1.2439804e-07
1.236075e-09
1.2383712e-07
1.2289561e-09
1.2327905e-07
1.2227206e-09
1.227234e-07
1.2173874e-09
1.2216986e-07
1.2127971e-09
1.2161811e-07
1.2088579e-09
1.210678e-07
1.2056984e-09
1.2051854e-07
1.2034048e-09
1.1996994e-07
1.2019387e-09
1.194217e-07
1.2011792e-09
1.1887349e-07
1.2010987e-09
1.1832493e-07
1.2018464e-09
1.1777561e-07
1.2035285e-09
1.1722516e-07
1.2060142e-09
1.1667324e-07
1.209206e-09
1.1611948e-07
1.2132577e-09
1.1556341e-07
1.2183129e-09
1.1500458e-07
1.2243428e-09
1.1444261e-07
1.231248e-09
1.1387705e-07
1.2390829e-09
1.1330741e-07
1.2480406e-09
1.1273314e-07
1.258171e-09
1.1215376e-07
1.2693738e-09
1.1156875e-07
1.2817208e-09
1.1097746e-07
1.2954618e-09
1.1037924e-07
1.3106446e-09
1.0977346e-07
1.3272032e-09
1.0915941e-07
1.3453153e-09
1.0853625e-07
1.3652966e-09
1.0790318e-07
1.3869881e-09
1.0725913e-07
1.4110538e-09
1.066305e-07
1.3772638e-09
1.0603173e-07
1.3118309e-09
1.0546058e-07
1.2513354e-09
1.0491489e-07
1.1955448e-09
1.0439266e-07
1.1441378e-09
1.0389214e-07
1.0965867e-09
1.0341178e-07
1.0524124e-09
1.0295014e-07
1.0114037e-09
1.0250586e-07
9.7337595e-10
1.0207774e-07
9.3794608e-10
1.0166477e-07
9.0478058e-10
1.0126595e-07
8.7376228e-10
1.0088034e-07
8.4481712e-10
1.0050703e-07
8.1788897e-10
1.001452e-07
7.9272839e-10
9.9793953e-08
7.6954028e-10
9.9452682e-08
7.4769085e-10
9.9119372e-08
7.3025457e-10
9.879484e-08
7.1103024e-10
9.8469546e-08
7.1272927e-10
9.8159593e-08
6.792103e-10
9.7775936e-08
8.4016259e-10
5.2783755e-10
2.3100962e-06
9.8771513e-11
2.3100289e-06
3.0944152e-10
2.3099239e-06
4.8322637e-10
2.3097962e-06
5.8695772e-10
2.3096504e-06
6.7046793e-10
2.3094877e-06
7.4800338e-10
2.3093088e-06
8.2208863e-10
2.3091141e-06
8.9519762e-10
2.308903e-06
9.7052339e-10
2.3086743e-06
1.0510112e-09
2.3084265e-06
1.1394528e-09
2.308157e-06
1.2392186e-09
2.3078623e-06
1.3547303e-09
2.3075377e-06
1.4929545e-09
2.3071762e-06
1.6623698e-09
2.3067668e-06
1.8828789e-09
2.3062959e-06
2.1654356e-09
2.30573e-06
2.6031282e-09
2.3050501e-06
3.1272431e-09
2.3040925e-06
4.4053471e-09
2.3029129e-06
5.42688e-09
2.2997276e-06
1.4659577e-08
2.2971686e-06
1.177387e-08
1.4310446e-06
4.5354608e-06
4.4017386e-07
4.8784269e-06
2.9826414e-07
3.8660286e-07
2.7626975e-07
5.6821861e-08
2.6739233e-07
2.2899335e-08
2.6105787e-07
1.6347565e-08
2.5564422e-07
1.3980839e-08
2.5085917e-07
1.2359806e-08
2.4657839e-07
1.1057306e-08
2.4270779e-07
9.997504e-09
2.3917322e-07
9.1294867e-09
2.3592043e-07
8.401633e-09
2.3290904e-07
7.7780705e-09
2.3010725e-07
7.2366124e-09
2.2748899e-07
6.7624585e-09
2.2503267e-07
6.3441342e-09
2.2272026e-07
5.9723628e-09
2.2053654e-07
5.6399191e-09
2.184684e-07
5.341359e-09
2.1650442e-07
5.0722993e-09
2.1463469e-07
4.8288045e-09
2.1285052e-07
4.6078207e-09
2.1114432e-07
4.406388e-09
2.0950948e-07
4.222063e-09
2.0793994e-07
4.0533807e-09
2.0643043e-07
3.8983496e-09
2.0497628e-07
3.7553151e-09
2.0357314e-07
3.6235583e-09
2.0221712e-07
3.5018716e-09
2.0090483e-07
3.3889046e-09
1.9963311e-07
3.2841106e-09
1.9839897e-07
3.1870514e-09
1.9719982e-07
3.0966646e-09
1.9603338e-07
3.0121794e-09
1.9489739e-07
2.9335453e-09
1.9378971e-07
2.8604174e-09
1.9270853e-07
2.7919491e-09
1.9165225e-07
2.7276625e-09
1.906192e-07
2.6676475e-09
1.8960779e-07
2.6117553e-09
1.8861669e-07
2.5592968e-09
1.8764472e-07
2.5098774e-09
1.8669065e-07
2.4636459e-09
1.8575327e-07
2.4205663e-09
1.848315e-07
2.3802231e-09
1.8392444e-07
2.3422384e-09
1.8303118e-07
2.3065723e-09
1.8215079e-07
2.2733397e-09
1.8128236e-07
2.2424582e-09
1.8042514e-07
2.213506e-09
1.7957846e-07
2.1862699e-09
1.7874159e-07
2.1609319e-09
1.7791378e-07
2.1375449e-09
1.7709434e-07
2.1159134e-09
1.7628271e-07
2.0957547e-09
1.7547833e-07
2.0770113e-09
1.7468059e-07
2.0598574e-09
1.7388885e-07
2.0443571e-09
1.7310257e-07
2.0302651e-09
1.7232128e-07
2.0173653e-09
1.7154448e-07
2.005751e-09
1.7077163e-07
1.9955771e-09
1.7000214e-07
1.9868752e-09
1.6923555e-07
1.979388e-09
1.6847144e-07
1.9729645e-09
1.6770933e-07
1.9678113e-09
1.6694866e-07
1.9640704e-09
1.6618892e-07
1.9616806e-09
1.6542965e-07
1.9604455e-09
1.6467043e-07
1.9603188e-09
1.6391074e-07
1.9615423e-09
1.6314998e-07
1.9642897e-09
1.6238764e-07
1.9683506e-09
1.6162328e-07
1.973565e-09
1.6085636e-07
1.9801813e-09
1.6008624e-07
1.9884343e-09
1.593123e-07
1.9982792e-09
1.5853399e-07
2.0095538e-09
1.5775073e-07
2.0223455e-09
1.569618e-07
2.0369684e-09
1.5616647e-07
2.0535057e-09
1.5536405e-07
2.0717946e-09
1.5455382e-07
2.091951e-09
1.537349e-07
2.1143811e-09
1.5290638e-07
2.1391653e-09
1.5206738e-07
2.1661961e-09
1.5121694e-07
2.1957618e-09
1.5035386e-07
2.2283775e-09
1.4947706e-07
2.2637857e-09
1.4858504e-07
2.3030705e-09
1.4771438e-07
2.2479239e-09
1.4688508e-07
2.1411291e-09
1.4609403e-07
2.0423935e-09
1.4533823e-07
1.9513366e-09
1.4461494e-07
1.8674339e-09
1.439217e-07
1.7898247e-09
1.4325639e-07
1.7177272e-09
1.4261699e-07
1.6507954e-09
1.4200164e-07
1.5887282e-09
1.4140869e-07
1.5309017e-09
1.408367e-07
1.4767712e-09
1.4028431e-07
1.4261445e-09
1.3975023e-07
1.3789009e-09
1.3923317e-07
1.3349488e-09
1.3873202e-07
1.2938818e-09
1.3824552e-07
1.2560329e-09
1.3777285e-07
1.2203684e-09
1.373112e-07
1.1918979e-09
1.3686172e-07
1.1605148e-09
1.3641121e-07
1.1632363e-09
1.3598197e-07
1.1084546e-09
1.3545049e-07
1.3716348e-09
8.6105861e-10
2.4685082e-06
1.2171024e-10
2.4684363e-06
3.8133363e-10
2.468324e-06
5.9554343e-10
2.4681875e-06
7.2343893e-10
2.4680316e-06
8.2640462e-10
2.4678576e-06
9.2199195e-10
2.4676664e-06
1.0133152e-09
2.4674582e-06
1.1034266e-09
2.4672324e-06
1.196263e-09
2.466988e-06
1.2954552e-09
2.466723e-06
1.4044442e-09
2.4664348e-06
1.5273843e-09
2.4661198e-06
1.6697247e-09
2.4657727e-06
1.8400506e-09
2.4653863e-06
2.0488102e-09
2.4649486e-06
2.3205291e-09
2.4644454e-06
2.668705e-09
2.4638405e-06
3.2080453e-09
2.4631138e-06
3.8538769e-09
2.4620904e-06
5.4288008e-09
2.4608297e-06
6.6875454e-09
2.4574264e-06
1.806288e-08
2.4546919e-06
1.4508365e-08
1.5955088e-06
5.3946439e-06
5.7901706e-07
5.8949187e-06
3.9878003e-07
5.6683989e-07
3.6941836e-07
8.6183523e-08
3.5753403e-07
3.4783673e-08
3.4906697e-07
2.4814619e-08
3.418359e-07
2.121191e-08
3.3544545e-07
1.8750261e-08
3.2972825e-07
1.6774499e-08
3.2455855e-07
1.5167212e-08
3.1983745e-07
1.3850584e-08
3.1549258e-07
1.2746505e-08
3.1147e-07
1.1800646e-08
3.0772726e-07
1.0979356e-08
3.0422956e-07
1.0260156e-08
3.0094807e-07
9.625624e-09
2.9785874e-07
9.0616929e-09
2.9494125e-07
8.5574113e-09
2.9217808e-07
8.1045221e-09
2.8955401e-07
7.6963747e-09
2.8705581e-07
7.327007e-09
2.8467185e-07
6.991775e-09
2.8239204e-07
6.6862031e-09
2.8020752e-07
6.4065838e-09
2.7811022e-07
6.150681e-09
2.7609307e-07
5.9154917e-09
2.7414988e-07
5.6985054e-09
2.7227483e-07
5.4986156e-09
2.7046269e-07
5.314003e-09
2.6870897e-07
5.1426262e-09
2.6700944e-07
4.9836423e-09
2.6536011e-07
4.836385e-09
2.6375751e-07
4.699258e-09
2.6219861e-07
4.5710885e-09
2.6068036e-07
4.4517862e-09
2.5919995e-07
4.340834e-09
2.5775494e-07
4.2369595e-09
2.5634317e-07
4.1394317e-09
2.5496244e-07
4.0483765e-09
2.5361062e-07
3.9635727e-09
2.5228593e-07
3.8839863e-09
2.509868e-07
3.809014e-09
2.4971157e-07
3.7388717e-09
2.4845863e-07
3.6735081e-09
2.4722655e-07
3.6123002e-09
2.4601411e-07
3.554675e-09
2.4482012e-07
3.5005657e-09
2.4364332e-07
3.4501444e-09
2.4248249e-07
3.4032893e-09
2.4133662e-07
3.359367e-09
2.4020484e-07
3.3180505e-09
2.3908617e-07
3.2796095e-09
2.3797958e-07
3.2441265e-09
2.3688419e-07
3.2113092e-09
2.3579921e-07
3.1807303e-09
2.3472393e-07
3.1522988e-09
2.3365751e-07
3.1262758e-09
2.325991e-07
3.1027603e-09
2.3154798e-07
3.081385e-09
2.3050353e-07
3.0618216e-09
2.2946507e-07
3.044207e-09
2.2843187e-07
3.0287756e-09
2.2740317e-07
3.0155775e-09
2.2637833e-07
3.0042262e-09
2.2535681e-07
2.9944909e-09
2.2433794e-07
2.9866804e-09
2.23321e-07
2.9810116e-09
2.2230528e-07
2.9773942e-09
2.212902e-07
2.9755321e-09
2.2027516e-07
2.9753523e-09
2.1925949e-07
2.9772191e-09
2.1824238e-07
2.9813975e-09
2.1722316e-07
2.9875723e-09
2.1620122e-07
2.9954997e-09
2.1517585e-07
3.0055526e-09
2.141462e-07
3.0180883e-09
2.1311143e-07
3.0330413e-09
2.1207082e-07
3.0501663e-09
2.1102357e-07
3.0695937e-09
2.0996874e-07
3.0917987e-09
2.0890534e-07
3.11691e-09
2.0783245e-07
3.1446821e-09
2.0674911e-07
3.1752886e-09
2.0565415e-07
3.2093447e-09
2.0454634e-07
3.246975e-09
2.0342452e-07
3.2880173e-09
2.0228737e-07
3.3329064e-09
2.0113333e-07
3.3824242e-09
1.9996093e-07
3.4361828e-09
1.9876817e-07
3.4958284e-09
1.9760396e-07
3.4121339e-09
1.9649505e-07
3.2500394e-09
1.9543727e-07
3.1001778e-09
1.9442663e-07
2.9619706e-09
1.9345945e-07
2.8346207e-09
1.9253245e-07
2.7168239e-09
1.9164278e-07
2.6073929e-09
1.9078778e-07
2.505801e-09
1.8996491e-07
2.4115917e-09
1.8917199e-07
2.3238198e-09
1.8840711e-07
2.2416583e-09
1.8766844e-07
2.1648136e-09
1.8695424e-07
2.0931029e-09
1.862628e-07
2.0263874e-09
1.8559263e-07
1.9640512e-09
1.8494206e-07
1.9065977e-09
1.8430997e-07
1.8524591e-09
1.8369265e-07
1.8092246e-09
1.8309158e-07
1.7615828e-09
1.8248919e-07
1.7656235e-09
1.8191525e-07
1.6824002e-09
1.8120445e-07
2.0824267e-09
1.3065984e-09
2.6637066e-06
1.4646379e-10
2.663629e-06
4.589264e-10
2.6635078e-06
7.1679028e-10
2.6633604e-06
8.7079679e-10
2.663192e-06
9.947865e-10
2.6630042e-06
1.1098755e-09
2.6627977e-06
1.2198163e-09
2.6625728e-06
1.3282866e-09
2.662329e-06
1.4400271e-09
2.6620651e-06
1.5594091e-09
2.661779e-06
1.6905749e-09
2.6614678e-06
1.838525e-09
2.6611277e-06
2.0098177e-09
2.660753e-06
2.2147853e-09
2.6603358e-06
2.4660016e-09
2.6598633e-06
2.7929811e-09
2.6593201e-06
3.2119667e-09
2.6586671e-06
3.8609958e-09
2.6578828e-06
4.6381719e-09
2.6567782e-06
6.5333944e-09
2.6554177e-06
8.0481066e-09
2.6517459e-06
2.1734664e-08
2.6487953e-06
1.7459011e-08
1.7939227e-06
6.2495164e-06
7.4578105e-07
6.9430603e-06
5.225823e-07
7.9003864e-07
4.8420432e-07
1.245615e-07
4.6861269e-07
5.0375302e-08
4.5753026e-07
3.5897048e-08
4.480733e-07
3.0668869e-08
4.3971685e-07
2.710672e-08
4.3224018e-07
2.4251167e-08
4.254787e-07
2.1928685e-08
4.1930343e-07
2.0025861e-08
4.1361983e-07
1.8430104e-08
4.0835744e-07
1.7063032e-08
4.0346077e-07
1.5876026e-08
3.9888437e-07
1.4836556e-08
3.9459057e-07
1.3919423e-08
3.9054797e-07
1.3104302e-08
3.8673e-07
1.2375381e-08
3.8311379e-07
1.172073e-08
3.7967943e-07
1.1130734e-08
3.7640965e-07
1.0596785e-08
3.7328926e-07
1.0112166e-08
3.7030505e-07
9.6704175e-09
3.6744545e-07
9.2661842e-09
3.6469991e-07
8.896214e-09
3.6205921e-07
8.5561928e-09
3.5951523e-07
8.2424915e-09
3.5706035e-07
7.953487e-09
3.5468779e-07
7.6865685e-09
3.5239162e-07
7.4387955e-09
3.5016633e-07
7.2089301e-09
3.4800671e-07
6.9960068e-09
3.4590823e-07
6.7977404e-09
3.4386689e-07
6.6124306e-09
3.4187874e-07
6.4399271e-09
3.3994009e-07
6.2794912e-09
3.3804775e-07
6.1293007e-09
3.3619889e-07
5.9882906e-09
3.3439064e-07
5.8566272e-09
3.3262021e-07
5.7339974e-09
3.3088527e-07
5.6189232e-09
3.2918376e-07
5.5105259e-09
3.2751353e-07
5.4091026e-09
3.2587246e-07
5.3145842e-09
3.2425867e-07
5.2260812e-09
3.2267058e-07
5.1427653e-09
3.2110662e-07
5.0645307e-09
3.1956514e-07
4.9916228e-09
3.1804456e-07
4.9238709e-09
3.1654356e-07
4.8603683e-09
3.1506097e-07
4.8006373e-09
3.1359552e-07
4.7450579e-09
3.121459e-07
4.6937531e-09
3.107109e-07
4.6463066e-09
3.0928953e-07
4.602103e-09
3.0788082e-07
4.561005e-09
3.0648371e-07
4.5233853e-09
3.0509708e-07
4.4893903e-09
3.0371997e-07
4.4584956e-09
3.0235157e-07
4.4302259e-09
3.00991e-07
4.4047722e-09
2.996373e-07
4.3824729e-09
2.9828948e-07
4.3634035e-09
2.9694669e-07
4.3470109e-09
2.9560822e-07
4.3329586e-09
2.9427322e-07
4.3216867e-09
2.9294072e-07
4.3135107e-09
2.9160981e-07
4.3083043e-09
2.902797e-07
4.3056413e-09
2.8894964e-07
4.305413e-09
2.8761872e-07
4.308142e-09
2.862859e-07
4.3142139e-09
2.8495029e-07
4.3231788e-09
2.8361111e-07
4.3346826e-09
2.822674e-07
4.3492585e-09
2.8091807e-07
4.367425e-09
2.7956202e-07
4.3890917e-09
2.7819828e-07
4.4139047e-09
2.7682582e-07
4.4420489e-09
2.7544341e-07
4.47421e-09
2.7404974e-07
4.5105779e-09
2.7264363e-07
4.5508e-09
2.7122379e-07
4.5951238e-09
2.697887e-07
4.6444378e-09
2.6833675e-07
4.698926e-09
2.6686641e-07
4.7583553e-09
2.6537596e-07
4.8233511e-09
2.6386334e-07
4.8950445e-09
2.6232665e-07
4.9728791e-09
2.6076324e-07
5.059238e-09
2.5923722e-07
4.9381477e-09
2.5778368e-07
4.7035883e-09
2.5639712e-07
4.4867305e-09
2.5507236e-07
4.2867357e-09
2.5380453e-07
4.10245e-09
2.5258936e-07
3.9319883e-09
2.5142313e-07
3.7736322e-09
2.5030231e-07
3.6266173e-09
2.4922362e-07
3.4902837e-09
2.4818417e-07
3.3632667e-09
2.4718146e-07
3.2443685e-09
2.4621311e-07
3.1331625e-09
2.4527683e-07
3.0293842e-09
2.4437038e-07
2.9328331e-09
2.4349182e-07
2.8426197e-09
2.4263894e-07
2.7594689e-09
2.4181029e-07
2.6811148e-09
2.41001e-07
2.6185161e-09
2.4021302e-07
2.5495637e-09
2.3942337e-07
2.5552674e-09
2.3867101e-07
2.4347586e-09
2.377391e-07
3.0143405e-09
1.8906811e-09
2.8986003e-06
1.7340129e-10
2.8985159e-06
5.4338076e-10
2.8983839e-06
8.4878803e-10
2.8982234e-06
1.0312524e-09
2.8980401e-06
1.1781571e-09
2.8978354e-06
1.3144952e-09
2.8976105e-06
1.4447153e-09
2.8973656e-06
1.5731782e-09
2.8971002e-06
1.7055007e-09
2.8968127e-06
1.8468608e-09
2.8965011e-06
2.0021647e-09
2.8961623e-06
2.177334e-09
2.895792e-06
2.3801347e-09
2.895384e-06
2.6228005e-09
2.8949298e-06
2.9202189e-09
2.8944154e-06
3.3073337e-09
2.893824e-06
3.8033753e-09
2.8931132e-06
4.5717694e-09
2.8922595e-06
5.4918766e-09
2.8910573e-06
7.7356503e-09
2.8895765e-06
9.5289029e-09
2.8855818e-06
2.5729346e-08
2.8823711e-06
2.0669668e-08
2.0313651e-06
7.1005225e-06
9.4759156e-07
8.0268338e-06
6.7634521e-07
1.061285e-06
6.2687303e-07
1.7403368e-07
6.0668822e-07
7.0560116e-08
5.9238487e-07
5.0200399e-08
5.80191e-07
4.2862734e-08
5.6941724e-07
3.7880483e-08
5.5977632e-07
3.3892088e-08
5.5105597e-07
3.0649032e-08
5.430904e-07
2.7991434e-08
5.3575802e-07
2.576248e-08
5.2896814e-07
2.3852917e-08
5.226493e-07
2.2194867e-08
5.1674301e-07
2.0742847e-08
5.1120079e-07
1.9461635e-08
5.0598224e-07
1.832286e-08
5.0105315e-07
1.7304463e-08
4.963841e-07
1.6389786e-08
4.9194943e-07
1.5565406e-08
4.877269e-07
1.4819309e-08
4.8369696e-07
1.4142104e-08
4.7984259e-07
1.352479e-08
4.7614889e-07
1.2959887e-08
4.7260228e-07
1.2442826e-08
4.6919085e-07
1.1967619e-08
4.6590415e-07
1.1529195e-08
4.6273238e-07
1.1125254e-08
4.5966678e-07
1.0752175e-08
4.566997e-07
1.0405867e-08
4.5382406e-07
1.008457e-08
4.5103314e-07
9.7869349e-09
4.4832108e-07
9.5097987e-09
4.4568273e-07
9.2507795e-09
4.4311302e-07
9.0096385e-09
4.4060715e-07
8.7853571e-09
4.3816104e-07
8.5754136e-09
4.3577102e-07
8.378308e-09
4.334334e-07
8.1942495e-09
4.3114458e-07
8.0228113e-09
4.2890156e-07
7.8619519e-09
4.2670165e-07
7.7104337e-09
4.245421e-07
7.5686503e-09
4.2242017e-07
7.4365128e-09
4.2033346e-07
7.3127942e-09
4.1827989e-07
7.196337e-09
4.1625744e-07
7.0869802e-09
4.14264e-07
6.9850612e-09
4.1229752e-07
6.8903503e-09
4.1035629e-07
6.801593e-09
4.0843882e-07
6.7181139e-09
4.0654344e-07
6.6404304e-09
4.0466848e-07
6.5687196e-09
4.0281238e-07
6.5024093e-09
4.0097384e-07
6.4406423e-09
3.9915162e-07
6.3832186e-09
3.9734436e-07
6.3306521e-09
3.9555059e-07
6.2831522e-09
3.9376909e-07
6.2399962e-09
3.919988e-07
6.2005181e-09
3.902386e-07
6.164975e-09
3.8848723e-07
6.1338394e-09
3.8674341e-07
6.1072217e-09
3.8500607e-07
6.0843566e-09
3.8327426e-07
6.0647698e-09
3.8154688e-07
6.0490672e-09
3.7982269e-07
6.0376931e-09
3.7810052e-07
6.030477e-09
3.7637934e-07
6.0268261e-09
3.7465817e-07
6.0265835e-09
3.7293583e-07
6.0304742e-09
3.7121101e-07
6.039041e-09
3.6948252e-07
6.0516637e-09
3.6774936e-07
6.0678443e-09
3.660103e-07
6.0883205e-09
3.642639e-07
6.11382e-09
3.6250877e-07
6.1442226e-09
3.6074364e-07
6.1790347e-09
3.5896718e-07
6.2185096e-09
3.5717779e-07
6.2636046e-09
3.5537377e-07
6.3145911e-09
3.5355359e-07
6.3709791e-09
3.5171561e-07
6.4331103e-09
3.4985782e-07
6.5022253e-09
3.4797816e-07
6.5785882e-09