/*--------------------------------*- C++ -*----------------------------------*\
  =========                 |
  \\      /  F ield         | OpenFOAM: The Open Source CFD Toolbox
   \\    /   O peration     | Website:  https://openfoam.org
    \\  /    A nd           | Version:  12
     \\/     M anipulation  |
\*---------------------------------------------------------------------------*/
FoamFile
{
    format      ascii;
    class       volVectorField;
    location    "1800";
    object      U;
}
// * * * * * * * * * * * * * * * * * * * * * * * * * * * * * * * * * * * * * //

dimensions      [0 1 -1 0 0 0 0];

internalField   nonuniform List<vector> 
13056
(
(1 2.3242822e-10 8.768154e-25)
(0.99998252 8.2631153e-10 0)
(0.99994318 1.463911e-09 0)
(0.99989237 2.0168241e-09 0)
(0.99983334 2.6123532e-09 0)
(0.9997668 3.3036606e-09 0)
(0.99969316 4.1136015e-09 0)
(0.99961268 5.0713935e-09 0)
(0.99952529 6.2189564e-09 0)
(0.99943064 7.6085706e-09 0)
(0.99932813 9.3048754e-09 0)
(0.99921686 1.1392823e-08 0)
(0.99909561 1.3987096e-08 0)
(0.99896264 1.7256497e-08 0)
(0.99881542 2.1426955e-08 0)
(0.99865062 2.6931701e-08 0)
(0.99846203 3.4165394e-08 0)
(0.99824405 4.4974807e-08 0)
(0.99797366 5.8649291e-08 0)
(0.99765618 8.8767055e-08 0)
(0.99714881 1.1609404e-07 0)
(0.9966322 3.2862702e-07 0)
(0.99441347 2.7228597e-07 -2.5926467e-21)
(0.99438389 0.00011935395 2.7949252e-16)
(0.028569191 0.00012493783 0)
(0.014419778 4.6832496e-07 -9.8640942e-20)
(0.012903172 1.8949298e-07 1.6214151e-17)
(0.012406815 1.9910009e-08 1.6389648e-21)
(0.012091799 1.4132546e-08 0)
(0.011827878 1.2017593e-08 0)
(0.01159581 1.0539165e-08 0)
(0.011389154 9.3378921e-09 0)
(0.011203282 8.3598549e-09 0)
(0.011034256 7.5580245e-09 0)
(0.01087919 6.88437e-09 0)
(0.010735993 6.3063295e-09 0)
(0.01060306 5.8036643e-09 0)
(0.010479086 5.3630307e-09 0)
(0.010362987 4.9738912e-09 0)
(0.010253866 4.6277126e-09 0)
(0.010150967 4.3178119e-09 0)
(0.010053649 4.0390795e-09 0)
(0.0099613507 3.7875314e-09 0)
(0.009873586 3.5593555e-09 0)
(0.0097899328 3.3518873e-09 0)
(0.0097100139 3.1622868e-09 0)
(0.0096335126 2.9882989e-09 0)
(0.0095601381 2.8286758e-09 0)
(0.0094896253 2.6814059e-09 0)
(0.0094217551 2.5450452e-09 0)
(0.0093563208 2.4189655e-09 0)
(0.009293128 2.301919e-09 0)
(0.0092320136 2.1927439e-09 0)
(0.0091728319 2.0909452e-09 0)
(0.0091154379 1.9960558e-09 0)
(0.0090597013 1.9070801e-09 0)
(0.0090055164 1.8234065e-09 0)
(0.0089527796 1.744938e-09 0)
(0.0089013859 1.6712604e-09 0)
(0.0088512448 1.6016648e-09 0)
(0.0088022819 1.5357905e-09 0)
(0.0087544234 1.4736339e-09 0)
(0.0087075908 1.4149661e-09 0)
(0.0086617158 1.359238e-09 0)
(0.0086167456 1.3061724e-09 0)
(0.0085726254 1.2558267e-09 0)
(0.0085292962 1.2080524e-09 0)
(0.0084867048 1.1625369e-09 0)
(0.0084448076 1.1190103e-09 0)
(0.0084035648 1.0774294e-09 0)
(0.0083629337 1.0377771e-09 0)
(0.0083228702 9.9994586e-10 0)
(0.0082833349 9.6364737e-10 0)
(0.0082442992 9.2875483e-10 0)
(0.008205731 8.9533192e-10 0)
(0.0081675944 8.6332152e-10 0)
(0.0081298558 8.3259005e-10 0)
(0.0080924869 8.0296457e-10 0)
(0.0080554639 7.7440529e-10 0)
(0.0080187602 7.4694465e-10 0)
(0.0079823457 7.2055747e-10 0)
(0.0079461917 6.9509911e-10 0)
(0.0079102771 6.7045981e-10 0)
(0.0078745809 6.4666252e-10 0)
(0.0078390784 6.2371298e-10 0)
(0.0078037427 6.0158847e-10 0)
(0.0077685484 5.801585e-10 0)
(0.0077334781 5.5935789e-10 0)
(0.0076985116 5.392358e-10 0)
(0.0076636236 5.1978841e-10 0)
(0.007628789 5.0096749e-10 0)
(0.0075939852 4.8268591e-10 0)
(0.0075591938 4.6491682e-10 0)
(0.0075243939 4.4769706e-10 0)
(0.0074895581 4.3103556e-10 0)
(0.0074546595 4.148455e-10 0)
(0.0074196786 3.9907208e-10 0)
(0.007384594 3.8375356e-10 0)
(0.007349377 3.6890259e-10 0)
(0.0073139978 3.5447859e-10 0)
(0.0072784298 3.4042412e-10 0)
(0.007242649 3.2673617e-10 0)
(0.0072066252 3.1344152e-10 0)
(0.007170323 3.0051964e-10 0)
(0.0071337098 2.879169e-10 0)
(0.0070967562 2.7562863e-10 0)
(0.0070594248 2.6368388e-10 0)
(0.0070216715 2.5205694e-10 0)
(0.0069834568 2.4070589e-10 0)
(0.0069447403 2.2963925e-10 0)
(0.0069054716 2.1887932e-10 0)
(0.0068655919 2.0836504e-10 0)
(0.006825061 1.9816122e-10 0)
(0.0067847055 1.8852027e-10 0)
(0.0067458012 1.795652e-10 0)
(0.0067087186 1.7128417e-10 0)
(0.0066733185 1.6364745e-10 0)
(0.0066394676 1.5661148e-10 0)
(0.0066070452 1.5010239e-10 0)
(0.0065759488 1.4405515e-10 0)
(0.0065460852 1.3844213e-10 0)
(0.0065173642 1.332378e-10 0)
(0.0064897033 1.2838821e-10 0)
(0.0064630345 1.2384803e-10 0)
(0.0064372948 1.1960285e-10 0)
(0.0064124227 1.1564155e-10 0)
(0.0063883595 1.1195701e-10 0)
(0.006365047 1.0851432e-10 0)
(0.0063424411 1.0534109e-10 0)
(0.0063204714 1.0235629e-10 0)
(0.006299131 9.9969747e-11 0)
(0.0062781692 9.7372689e-11 0)
(0.0062579435 9.7537202e-11 0)
(0.0062368718 3.5123056e-10 0)
(0.0062186057 1.1302824e-10 1.5772316e-22)
(0.0061881379 2.7563418e-10 0)
(1 7.0075653e-10 0)
(0.99998252 2.4914227e-09 0)
(0.99994317 4.4141509e-09 0)
(0.99989235 6.0817114e-09 0)
(0.99983329 7.8777967e-09 0)
(0.99976673 9.9626503e-09 0)
(0.99969306 1.2405187e-08 0)
(0.99961254 1.529351e-08 0)
(0.99952512 1.8754015e-08 0)
(0.99943043 2.2944328e-08 0)
(0.99932788 2.8059336e-08 0)
(0.99921657 3.4355165e-08 0)
(0.99909527 4.2177577e-08 0)
(0.99896227 5.2035497e-08 0)
(0.99881501 6.4610081e-08 0)
(0.99865017 8.1207479e-08 0)
(0.99846154 1.0301754e-07 0)
(0.99824351 1.3560808e-07 0)
(0.99797308 1.768365e-07 0)
(0.99765555 2.6763931e-07 0)
(0.99714814 3.500251e-07 0)
(0.99663148 9.907552e-07 0)
(0.99441284 8.2106051e-07 9.4992094e-21)
(0.99438313 0.00035972826 -2.8265048e-21)
(0.083680925 0.00036769189 0)
(0.043474657 8.1837488e-06 0)
(0.038901693 1.0674724e-06 2.178033e-20)
(0.037406282 4.1939802e-07 0)
(0.036455345 2.9680468e-07 -2.1559979e-21)
(0.035659364 2.5197973e-07 0)
(0.034959676 2.2080528e-07 0)
(0.034336654 1.9565887e-07 0)
(0.033776281 1.7516787e-07 0)
(0.033266699 1.5835373e-07 0)
(0.03279921 1.4422861e-07 0)
(0.03236751 1.3211201e-07 0)
(0.031966753 1.2158017e-07 0)
(0.031593006 1.1234847e-07 0)
(0.031243001 1.0419562e-07 0)
(0.030914029 9.6942879e-08 0)
(0.030603817 9.045049e-08 0)
(0.030310429 8.4612018e-08 0)
(0.030032173 7.934171e-08 0)
(0.029767585 7.456287e-08 0)
(0.029515391 7.0216104e-08 0)
(0.029274455 6.6244371e-08 0)
(0.029043821 6.2600908e-08 0)
(0.028822615 5.9255891e-08 0)
(0.028610035 5.6171123e-08 0)
(0.028405421 5.3315709e-08 0)
(0.028208151 5.0673756e-08 0)
(0.028017639 4.8221687e-08 0)
(0.027833392 4.5935323e-08 0)
(0.027654971 4.3802996e-08 0)
(0.02748194 4.1814403e-08 0)
(0.027313906 3.9950767e-08 0)
(0.027150549 3.8198643e-08 0)
(0.026991558 3.6554537e-08 0)
(0.026836616 3.5010568e-08 0)
(0.026685451 3.3552929e-08 0)
(0.026537837 3.2173472e-08 0)
(0.026393552 3.0871172e-08 0)
(0.026252361 2.9641649e-08 0)
(0.026114056 2.8474409e-08 0)
(0.025978479 2.7363268e-08 0)
(0.025845464 2.6308382e-08 0)
(0.025714835 2.5307318e-08 0)
(0.025586429 2.4353751e-08 0)
(0.025460116 2.3442246e-08 0)
(0.025335776 2.2571227e-08 0)
(0.02521328 2.1740464e-08 0)
(0.025092496 2.094766e-08 0)
(0.024973304 2.0187385e-08 0)
(0.024855617 1.9456708e-08 0)
(0.02473934 1.8756403e-08 0)
(0.024624365 1.8085715e-08 0)
(0.024510589 1.7441813e-08 0)
(0.024397928 1.6821356e-08 0)
(0.024286309 1.6223166e-08 0)
(0.024175653 1.5647838e-08 0)
(0.024065869 1.5094905e-08 0)
(0.023956871 1.4561577e-08 0)
(0.023848594 1.4045584e-08 0)
(0.023740975 1.3547034e-08 0)
(0.023633941 1.3066242e-08 0)
(0.023527409 1.2602624e-08 0)
(0.023421303 1.215374e-08 0)
(0.023315572 1.1718119e-08 0)
(0.023210153 1.1296524e-08 0)
(0.023104971 1.0889079e-08 0)
(0.02299995 1.0494738e-08 0)
(0.022895021 1.0111819e-08 0)
(0.02279013 9.7396183e-09 0)
(0.022685213 9.3788567e-09 0)
(0.022580188 9.0297262e-09 0)
(0.022474974 8.6905757e-09 0)
(0.022369512 8.3602134e-09 0)
(0.022263736 8.0392773e-09 0)
(0.022157562 7.728126e-09 0)
(0.022050899 7.4259364e-09 0)
(0.021943666 7.131546e-09 0)
(0.021835792 6.8448094e-09 0)
(0.021727185 6.5662651e-09 0)
(0.021617739 6.2955417e-09 0)
(0.021507355 6.031549e-09 0)
(0.021395945 5.774136e-09 0)
(0.021283395 5.5238715e-09 0)
(0.021169575 5.2802909e-09 0)
(0.021054362 5.0425191e-09 0)
(0.020937637 4.8106808e-09 0)
(0.020819247 4.5852479e-09 0)
(0.020699015 4.3649782e-09 0)
(0.020576819 4.1512651e-09 0)
(0.020455153 3.9492989e-09 0)
(0.020337861 3.7616735e-09 0)
(0.020226062 3.5881994e-09 0)
(0.020119335 3.4282162e-09 0)
(0.020017279 3.2808086e-09 0)
(0.01991953 3.1444529e-09 0)
(0.019825778 3.0177788e-09 0)
(0.019735743 2.9001868e-09 0)
(0.019649153 2.7911458e-09 0)
(0.019565759 2.6895505e-09 0)
(0.019485356 2.5944461e-09 0)
(0.019407754 2.5055035e-09 0)
(0.019332768 2.4225079e-09 0)
(0.01926022 2.3452992e-09 0)
(0.019189937 2.2731581e-09 0)
(0.019121783 2.206677e-09 0)
(0.019055548 2.1440445e-09 0)
(0.01899121 2.0940924e-09 0)
(0.018928017 2.0390463e-09 0)
(0.01886704 2.0440791e-09 0)
(0.018803527 1.9774499e-09 0)
(0.018748457 2.4048392e-09 -2.4225418e-22)
(0.0186566 1.5422319e-09 3.7105431e-23)
(1 1.179538e-09 0)
(0.99998252 4.1938649e-09 0)
(0.99994316 7.4308751e-09 0)
(0.99989233 1.0238617e-08 0)
(0.99983325 1.3262762e-08 0)
(0.99976665 1.6772976e-08 0)
(0.99969295 2.088527e-08 0)
(0.99961239 2.5747965e-08 0)
(0.99952493 3.1573826e-08 0)
(0.9994302 3.8628184e-08 0)
(0.9993276 4.7239084e-08 0)
(0.99921625 5.7837648e-08 0)
(0.99909491 7.1005874e-08 0)
(0.99896186 8.7600401e-08 0)
(0.99881455 1.0876776e-07 0)
(0.99864966 1.367065e-07 0)
(0.99846099 1.7341937e-07 0)
(0.99824291 2.2827822e-07 0)
(0.99797243 2.9767649e-07 0)
(0.99765485 4.5051852e-07 0)
(0.99714738 5.8919659e-07 0)
(0.99663069 1.6675987e-06 0)
(0.99441219 1.3822243e-06 -4.969551e-21)
(0.99438237 0.00058796746 9.8034718e-55)
(0.13759434 0.00060773705 -8.2298376e-54)
(0.073177853 2.2831763e-05 0)
(0.065478533 3.0498272e-06 -1.1511351e-20)
(0.062961922 1.2181457e-06 0)
(0.061359754 8.6230754e-07 0)
(0.060019682 7.3165716e-07 0)
(0.058842039 6.4103596e-07 0)
(0.057793498 5.6802709e-07 0)
(0.056850373 5.0854118e-07 0)
(0.055992734 4.5972211e-07 0)
(0.055205946 4.1871017e-07 0)
(0.054479398 3.8353195e-07 0)
(0.053804926 3.5295703e-07 0)
(0.05317591 3.2615708e-07 0)
(0.05258685 3.0248899e-07 0)
(0.052033189 2.8143386e-07 0)
(0.051511098 2.6258617e-07 0)
(0.051017322 2.4563701e-07 0)
(0.050549011 2.3033695e-07 0)
(0.050103702 2.1646402e-07 0)
(0.049679252 2.0384496e-07 0)
(0.049273749 1.9231485e-07 0)
(0.048885583 1.8173801e-07 0)
(0.048513283 1.7202686e-07 0)
(0.048155502 1.6307163e-07 0)
(0.047811126 1.5478251e-07 0)
(0.04747911 1.4711248e-07 0)
(0.047158467 1.3999384e-07 0)
(0.046848369 1.3335659e-07 0)
(0.046548075 1.271663e-07 0)
(0.046256853 1.2139296e-07 0)
(0.045974041 1.1598273e-07 0)
(0.045699099 1.1089641e-07 0)
(0.045431505 1.061233e-07 0)
(0.045170726 1.0164078e-07 0)
(0.044916303 9.7409208e-08 0)
(0.044667857 9.3404696e-08 0)
(0.044425013 8.962389e-08 0)
(0.044187376 8.6054244e-08 0)
(0.043954598 8.266568e-08 0)
(0.04372641 7.9440096e-08 0)
(0.043502534 7.6377571e-08 0)
(0.043282671 7.3471233e-08 0)
(0.043066553 7.0702883e-08 0)
(0.042853957 6.8056784e-08 0)
(0.04264468 6.5528139e-08 0)
(0.042438507 6.3116262e-08 0)
(0.042235215 6.081454e-08 0)
(0.042034603 5.8607407e-08 0)
(0.041836524 5.6486256e-08 0)
(0.041640817 5.4453137e-08 0)
(0.041447301 5.2505968e-08 0)
(0.041255805 5.0636591e-08 0)
(0.041066184 4.8835373e-08 0)
(0.040878318 4.7098784e-08 0)
(0.040692071 4.5428493e-08 0)
(0.040507292 4.3823182e-08 0)
(0.040323835 4.227485e-08 0)
(0.040141593 4.0776904e-08 0)
(0.039960458 3.9329538e-08 0)
(0.039780306 3.79337e-08 0)
(0.039601 3.6587694e-08 0)
(0.039422412 3.5284531e-08 0)
(0.039244453 3.4019903e-08 0)
(0.03906702 3.279593e-08 0)
(0.038889986 3.1613024e-08 0)
(0.038713222 3.0468167e-08 0)
(0.038536614 2.9356514e-08 0)
(0.03836007 2.8275977e-08 0)
(0.038183481 2.7228614e-08 0)
(0.038006711 2.6214997e-08 0)
(0.037829621 2.5230392e-08 0)
(0.037652114 2.4271324e-08 0)
(0.03747408 2.3339585e-08 0)
(0.037295375 2.2436241e-08 0)
(0.037115846 2.1558925e-08 0)
(0.03693536 2.0704273e-08 0)
(0.036753792 1.9871833e-08 0)
(0.036570992 1.9063156e-08 0)
(0.036386779 1.827719e-08 0)
(0.036200988 1.7510782e-08 0)
(0.036013469 1.6763471e-08 0)
(0.035824032 1.6036897e-08 0)
(0.035632456 1.5329735e-08 0)
(0.035438537 1.4639447e-08 0)
(0.035242072 1.3966377e-08 0)
(0.035042804 1.3311894e-08 0)
(0.034840436 1.2672409e-08 0)
(0.034634763 1.2051973e-08 0)
(0.03442998 1.1465624e-08 0)
(0.034232561 1.0920901e-08 0)
(0.034044386 1.0417273e-08 0)
(0.033864749 9.9528095e-09 0)
(0.033692973 9.524853e-09 0)
(0.033528446 9.128987e-09 0)
(0.033370647 8.7612308e-09 0)
(0.033219105 8.4198355e-09 0)
(0.03307336 8.1032614e-09 0)
(0.032932996 7.8083086e-09 0)
(0.032797665 7.5322039e-09 0)
(0.032667049 7.2739815e-09 0)
(0.032540836 7.033022e-09 0)
(0.032418728 6.8088588e-09 0)
(0.03230043 6.5994092e-09 0)
(0.032185718 6.406388e-09 0)
(0.032074236 6.224523e-09 0)
(0.031965946 6.0794549e-09 0)
(0.031859586 5.919507e-09 0)
(0.031756954 5.9339793e-09 0)
(0.031650074 5.6474045e-09 0)
(0.031557382 6.9891678e-09 0)
(0.031402772 4.3950995e-09 0)
(1 1.6759125e-09 1.878603e-24)
(0.99998252 5.9590698e-09 0)
(0.99994315 1.055924e-08 0)
(0.9998923 1.4549877e-08 0)
(0.99983319 1.8848088e-08 0)
(0.99976657 2.3836928e-08 0)
(0.99969283 2.9681239e-08 0)
(0.99961222 3.6591792e-08 0)
(0.99952471 4.4870914e-08 0)
(0.99942994 5.4895603e-08 0)
(0.99932729 6.713196e-08 0)
(0.99921589 8.2192536e-08 0)
(0.9990945 1.0090425e-07 0)
(0.9989614 1.2448423e-07 0)
(0.99881404 1.5456149e-07 0)
(0.9986491 1.9425974e-07 0)
(0.99846037 2.464245e-07 0)
(0.99824224 3.2437142e-07 0)
(0.99797171 4.2297603e-07 0)
(0.99765408 6.4013838e-07 0)
(0.99714655 8.371802e-07 0)
(0.99662981 2.3692548e-06 0)
(0.99441152 1.9640133e-06 0)
(0.99438157 0.00080929833 -5.1100622e-55)
(0.19099237 0.00085027792 4.2741149e-54)
(0.10395547 4.5548547e-05 0)
(0.093023486 6.2878407e-06 0)
(0.089446822 2.5100944e-06 0)
(0.087168735 1.7770059e-06 0)
(0.085264865 1.5071136e-06 0)
(0.083592212 1.3202781e-06 0)
(0.082103006 1.1698999e-06 0)
(0.08076348 1.0473917e-06 0)
(0.079545362 9.4683902e-07 0)
(0.07842788 8.6236552e-07 0)
(0.077395958 7.8991089e-07 0)
(0.076437997 7.2694067e-07 0)
(0.075544589 6.7174601e-07 0)
(0.074707926 6.230012e-07 0)
(0.073921535 5.7963761e-07 0)
(0.07317998 5.4082038e-07 0)
(0.072478637 5.0591339e-07 0)
(0.07181346 4.7440236e-07 0)
(0.071180951 4.4583092e-07 0)
(0.070578065 4.1984127e-07 0)
(0.070002089 3.9609459e-07 0)
(0.069450736 3.7431153e-07 0)
(0.068921914 3.5431042e-07 0)
(0.068413715 3.3586669e-07 0)
(0.067924555 3.187952e-07 0)
(0.067452947 3.0299792e-07 0)
(0.066997494 2.8833643e-07 0)
(0.066557016 2.7466686e-07 0)
(0.066130463 2.6191753e-07 0)
(0.065716794 2.5002643e-07 0)
(0.065315071 2.3888371e-07 0)
(0.064924525 2.2840834e-07 0)
(0.064544414 2.1857748e-07 0)
(0.064173985 2.0934498e-07 0)
(0.063812582 2.0062976e-07 0)
(0.063459668 1.9238234e-07 0)
(0.063114711 1.8459523e-07 0)
(0.062777149 1.7724284e-07 0)
(0.06244649 1.702638e-07 0)
(0.062122348 1.636206e-07 0)
(0.06180433 1.5731288e-07 0)
(0.061492015 1.5132671e-07 0)
(0.061185017 1.4562491e-07 0)
(0.060883021 1.401751e-07 0)
(0.060585739 1.3496708e-07 0)
(0.060292866 1.2999939e-07 0)
(0.060004084 1.2525852e-07 0)
(0.05971911 1.207127e-07 0)
(0.059437734 1.1634405e-07 0)
(0.059159726 1.121565e-07 0)
(0.058884829 1.0814591e-07 0)
(0.058612802 1.042956e-07 0)
(0.058343437 1.0058581e-07 0)
(0.058076565 9.7009107e-08 0)
(0.057811993 9.3568839e-08 0)
(0.057549506 9.0262351e-08 0)
(0.057288896 8.7073318e-08 0)
(0.057030011 8.3988149e-08 0)
(0.056772699 8.1007075e-08 0)
(0.056516782 7.8132074e-08 0)
(0.056262067 7.535968e-08 0)
(0.056008372 7.2675626e-08 0)
(0.055755569 7.0070983e-08 0)
(0.055503513 6.7549982e-08 0)
(0.055252023 6.5113539e-08 0)
(0.055000918 6.2755479e-08 0)
(0.054750033 6.0465868e-08 0)
(0.054499238 5.8240345e-08 0)
(0.054248379 5.6083094e-08 0)
(0.053997263 5.3995317e-08 0)
(0.053745693 5.1967354e-08 0)
(0.053493529 4.9992019e-08 0)
(0.053240615 4.8072921e-08 0)
(0.052986748 4.6212287e-08 0)
(0.052731711 4.440528e-08 0)
(0.052475313 4.2644984e-08 0)
(0.052217378 4.0930423e-08 0)
(0.051957692 3.9264779e-08 0)
(0.051695999 3.7645917e-08 0)
(0.051432064 3.6067362e-08 0)
(0.051165672 3.4528136e-08 0)
(0.050896557 3.3031594e-08 0)
(0.050624402 3.1575048e-08 0)
(0.050348918 3.0153272e-08 0)
(0.050069816 2.8766944e-08 0)
(0.049786733 2.7418888e-08 0)
(0.049499246 2.6101738e-08 0)
(0.049207062 2.482384e-08 0)
(0.048916142 2.3616129e-08 0)
(0.048635683 2.2494143e-08 0)
(0.048368356 2.1456812e-08 0)
(0.048113158 2.0500161e-08 0)
(0.047869128 1.9618673e-08 0)
(0.047635396 1.8803302e-08 0)
(0.047411222 1.8045833e-08 0)
(0.047195935 1.734265e-08 0)
(0.046988885 1.6690586e-08 0)
(0.046789477 1.6083064e-08 0)
(0.046597222 1.5514367e-08 0)
(0.046411663 1.4982494e-08 0)
(0.04623236 1.4486172e-08 0)
(0.046058888 1.4024441e-08 0)
(0.04589083 1.3593017e-08 0)
(0.045727865 1.3195422e-08 0)
(0.04556949 1.2820788e-08 0)
(0.04541565 1.252188e-08 0)
(0.045264557 1.219229e-08 0)
(0.045118754 1.2221736e-08 0)
(0.044966946 1.1641339e-08 0)
(0.044835262 1.4403568e-08 0)
(0.044615614 9.0501641e-09 0)
(1 2.1972784e-09 0)
(0.99998252 7.8133821e-09 0)
(0.99994314 1.3846005e-08 0)
(0.99989227 1.9080021e-08 0)
(0.99983313 2.4717449e-08 0)
(0.99976647 3.1260372e-08 0)
(0.99969269 3.892493e-08 0)
(0.99961204 4.7987516e-08 0)
(0.99952448 5.8844539e-08 0)
(0.99942965 7.1990298e-08 0)
(0.99932695 8.8035904e-08 0)
(0.99921549 1.0778448e-07 0)
(0.99909404 1.3232019e-07 0)
(0.99896088 1.6323881e-07 0)
(0.99881347 2.0267611e-07 0)
(0.99864847 2.5472756e-07 0)
(0.99845969 3.2312385e-07 0)
(0.9982415 4.2532296e-07 0)
(0.99797091 5.5460589e-07 0)
(0.99765321 8.3932846e-07 0)
(0.99714561 1.0976709e-06 0)
(0.99662882 3.1061587e-06 0)
(0.99441082 2.5750813e-06 0)
(0.99438077 0.0010268435 0)
(0.24439498 0.0010949424 0)
(0.13623621 7.632988e-05 0)
(0.12192861 1.0907194e-05 0)
(0.11723564 4.3551789e-06 3.2260001e-21)
(0.11424793 3.0828035e-06 0)
(0.11175327 2.6134818e-06 0)
(0.1095622 2.2892124e-06 0)
(0.1076115 2.0284633e-06 0)
(0.10585678 1.8160734e-06 0)
(0.10426107 1.641726e-06 0)
(0.10279717 1.4952546e-06 0)
(0.10144535 1.3696273e-06 0)
(0.10019039 1.2604495e-06 0)
(0.099019973 1.164754e-06 0)
(0.097923878 1.0802404e-06 0)
(0.096893627 1.005056e-06 0)
(0.095922101 9.377541e-07 0)
(0.095003243 8.7723172e-07 0)
(0.094131756 8.2259669e-07 0)
(0.093303057 7.7305865e-07 0)
(0.09251316 7.2799609e-07 0)
(0.091758513 6.8682272e-07 0)
(0.091036116 6.490543e-07 0)
(0.090343233 6.1437406e-07 0)
(0.089677366 5.8239477e-07 0)
(0.089036436 5.5279526e-07 0)
(0.088418498 5.2540377e-07 0)
(0.087821723 4.9998177e-07 0)
(0.087244566 4.7628039e-07 0)
(0.086685647 4.5417405e-07 0)
(0.086143608 4.3355505e-07 0)
(0.085617218 4.142344e-07 0)
(0.085105469 3.9607125e-07 0)
(0.08460739 3.7902475e-07 0)
(0.084121994 3.6301547e-07 0)
(0.083648424 3.4790382e-07 0)
(0.083185973 3.3360351e-07 0)
(0.082733945 3.2010065e-07 0)
(0.082291607 3.0735127e-07 0)
(0.081858312 2.9524988e-07 0)
(0.081433553 2.8373108e-07 0)
(0.081016817 2.7279341e-07 0)
(0.08060755 2.6241307e-07 0)
(0.080205252 2.5252607e-07 0)
(0.079809505 2.4307633e-07 0)
(0.079419934 2.3404567e-07 0)
(0.079036138 2.2543145e-07 0)
(0.078657702 2.1721044e-07 0)
(0.078284254 2.0932799e-07 0)
(0.077915519 2.0175287e-07 0)
(0.077551195 1.9449146e-07 0)
(0.077190949 1.8753678e-07 0)
(0.076834461 1.8086011e-07 0)
(0.076481461 1.7442731e-07 0)
(0.076131724 1.6822526e-07 0)
(0.075785001 1.6225959e-07 0)
(0.075441009 1.5652581e-07 0)
(0.075099477 1.5099585e-07 0)
(0.074760203 1.4564612e-07 0)
(0.074422988 1.4047678e-07 0)
(0.0740876 1.3549126e-07 0)
(0.073753788 1.3068363e-07 0)
(0.073421311 1.2602933e-07 0)
(0.073090001 1.215128e-07 0)
(0.072759668 1.1714116e-07 0)
(0.072430076 1.129161e-07 0)
(0.072100988 1.0882698e-07 0)
(0.071772188 1.0485665e-07 0)
(0.071443502 1.0099745e-07 0)
(0.071114733 9.7256544e-08 0)
(0.070785624 9.3636064e-08 0)
(0.070455921 9.0119391e-08 0)
(0.070125437 8.6694027e-08 0)
(0.06979397 8.3366102e-08 0)
(0.069461251 8.0139517e-08 0)
(0.069126999 7.7005955e-08 0)
(0.068790961 7.3953438e-08 0)
(0.068452909 7.0980208e-08 0)
(0.068112559 6.8091755e-08 0)
(0.067769578 6.5284433e-08 0)
(0.067423657 6.2547046e-08 0)
(0.067074516 5.9877847e-08 0)
(0.066721804 5.7282626e-08 0)
(0.066365105 5.4756774e-08 0)
(0.066004044 5.2291241e-08 0)
(0.065638238 4.9887156e-08 0)
(0.065267213 4.7549416e-08 0)
(0.064890415 4.5265292e-08 0)
(0.06450746 4.3049261e-08 0)
(0.064126158 4.0954908e-08 0)
(0.063758567 3.9009191e-08 0)
(0.063408188 3.7210297e-08 0)
(0.063073703 3.555131e-08 0)
(0.062753856 3.4022661e-08 0)
(0.062447505 3.2608679e-08 0)
(0.06215368 3.1295111e-08 0)
(0.061871504 3.007567e-08 0)
(0.061600123 2.8944865e-08 0)
(0.061338759 2.7891314e-08 0)
(0.061086767 2.69051e-08 0)
(0.060843554 2.5982731e-08 0)
(0.060608539 2.5122003e-08 0)
(0.060381167 2.4321251e-08 0)
(0.060160891 2.3573061e-08 0)
(0.05994729 2.2883516e-08 0)
(0.059739706 2.2233774e-08 0)
(0.059538067 2.1715206e-08 0)
(0.059340033 2.1143491e-08 0)
(0.059148928 2.1193696e-08 0)
(0.058949989 2.019574e-08 0)
(0.058777387 2.4986613e-08 -3.1185577e-22)
(0.058489483 1.5691321e-08 4.7767287e-23)
(1 2.7514083e-09 0)
(0.99998252 9.784499e-09 0)
(0.99994313 1.7340377e-08 0)
(0.99989224 2.3897007e-08 0)
(0.99983307 3.0959004e-08 0)
(0.99976636 3.9154874e-08 0)
(0.99969253 4.8755292e-08 0)
(0.99961183 6.0106419e-08 0)
(0.99952421 7.370468e-08 0)
(0.99942932 9.0169055e-08 0)
(0.99932656 1.1026479e-07 0)
(0.99921505 1.3499755e-07 0)
(0.99909353 1.6572492e-07 0)
(0.99896031 2.0444511e-07 0)
(0.99881283 2.538325e-07 0)
(0.99864777 3.1901538e-07 0)
(0.99845892 4.0466516e-07 0)
(0.99824066 5.326425e-07 0)
(0.99797 6.9453342e-07 0)
(0.99765224 1.0510633e-06 0)
(0.99714457 1.3745513e-06 0)
(0.99662772 3.8892643e-06 0)
(0.99441009 3.2245356e-06 0)
(0.99438 0.0012422362 0)
(0.29814965 0.0013453045 0)
(0.17043572 0.00011598462 0)
(0.15258113 1.7161529e-05 0)
(0.14669805 6.8605024e-06 0)
(0.14295898 4.8539715e-06 0)
(0.13984026 4.1131254e-06 0)
(0.13710184 3.6023549e-06 0)
(0.13466386 3.1920443e-06 0)
(0.13247065 2.8578898e-06 0)
(0.13047608 2.5835508e-06 0)
(0.12864622 2.3530667e-06 0)
(0.12695637 2.155387e-06 0)
(0.12538756 1.9835969e-06 0)
(0.12392438 1.8330217e-06 0)
(0.12255406 1.7000387e-06 0)
(0.12126602 1.5817332e-06 0)
(0.12005135 1.4758301e-06 0)
(0.1189025 1.3805942e-06 0)
(0.11781284 1.2946209e-06 0)
(0.11677666 1.2166681e-06 -6.212336e-33)
(0.11578897 1.145756e-06 0)
(0.11484533 1.080964e-06 0)
(0.113942 1.0215303e-06 0)
(0.11307556 9.6695386e-07 0)
(0.11224288 9.166285e-07 0)
(0.11144137 8.7004865e-07 0)
(0.11066859 8.2694147e-07 0)
(0.10992228 7.8693367e-07 0)
(0.10920048 7.4963464e-07 0)
(0.10850147 7.1484473e-07 0)
(0.10782357 6.8239428e-07 0)
(0.10716523 6.5198809e-07 0)
(0.10652519 6.23404e-07 0)
(0.10590224 5.9657583e-07 0)
(0.10529514 5.7137947e-07 0)
(0.10470283 5.4759681e-07 0)
(0.10412441 5.2509127e-07 0)
(0.10355902 5.0383962e-07 0)
(0.10300575 4.837733e-07 0)
(0.10246378 4.647277e-07 0)
(0.10193249 4.4659932e-07 0)
(0.10141122 4.2938464e-07 0)
(0.10089928 4.1304669e-07 0)
(0.10039606 3.9748558e-07 0)
(0.099901035 3.8261306e-07 0)
(0.099413723 3.6839986e-07 0)
(0.098933631 3.5484156e-07 0)
(0.098460239 3.4190199e-07 0)
(0.097993085 3.2949579e-07 0)
(0.097531818 3.1757342e-07 0)
(0.097076066 3.0614432e-07 0)
(0.096625411 2.9519774e-07 0)
(0.096179453 2.8468886e-07 0)
(0.095737856 2.7456411e-07 0)
(0.095300336 2.6480249e-07 0)
(0.094866582 2.5541258e-07 0)
(0.094436241 2.463875e-07 0)
(0.094008975 2.3768345e-07 0)
(0.09358453 2.2926325e-07 0)
(0.093162656 2.2112678e-07 0)
(0.092743065 2.1327945e-07 0)
(0.092325443 2.0571204e-07 0)
(0.091909487 1.9838619e-07 0)
(0.091494988 1.9127726e-07 0)
(0.091081707 1.8439618e-07 0)
(0.090669351 1.7774569e-07 0)
(0.090257621 1.7130922e-07 0)
(0.08984625 1.6505985e-07 0)
(0.089435017 1.5898539e-07 0)
(0.089023677 1.5309697e-07 0)
(0.08861191 1.4739802e-07 0)
(0.088199395 1.4186259e-07 0)
(0.087785901 1.3647095e-07 0)
(0.087371173 1.3123255e-07 0)
(0.086954876 1.2615359e-07 0)
(0.086536658 1.2122109e-07 0)
(0.086116201 1.1641623e-07 0)
(0.085693221 1.1173612e-07 0)
(0.085267363 1.0718937e-07 0)
(0.08483821 1.0277034e-07 0)
(0.084405375 9.8461435e-08 0)
(0.083968506 9.425984e-08 0)
(0.083527167 9.0174623e-08 0)
(0.083080836 8.6198616e-08 0)
(0.082629042 8.2317584e-08 0)
(0.082171308 7.8533235e-08 0)
(0.08170704 7.4853279e-08 0)
(0.081235544 7.125775e-08 0)
(0.08075634 6.7769439e-08 0)
(0.0802792 6.4472606e-08 0)
(0.079819214 6.1409707e-08 0)
(0.079380763 5.857795e-08 0)
(0.078962199 5.5966411e-08 0)
(0.078561949 5.3560055e-08 0)
(0.078178586 5.1334201e-08 0)
(0.077810896 4.9266422e-08 0)
(0.07745778 4.7346786e-08 0)
(0.077118171 4.5566662e-08 0)
(0.076791097 4.3908167e-08 0)
(0.07647575 4.2355679e-08 0)
(0.076171387 4.0903673e-08 0)
(0.075877282 3.9548685e-08 0)
(0.075592742 3.8288094e-08 0)
(0.07531708 3.7110251e-08 0)
(0.075049772 3.602469e-08 0)
(0.074789993 3.5001772e-08 0)
(0.074537653 3.4185074e-08 0)
(0.074289833 3.3284927e-08 0)
(0.074050674 3.3362343e-08 0)
(0.073801764 3.1791029e-08 0)
(0.073585757 3.9343647e-08 0)
(0.073225448 2.4692295e-08 -2.7236129e-23)
(1 3.3465642e-09 0)
(0.99998252 1.1901882e-08 0)
(0.99994312 2.1094736e-08 0)
(0.99989221 2.9073233e-08 0)
(0.999833 3.7666713e-08 0)
(0.99976624 4.7639367e-08 0)
(0.99969235 5.9320451e-08 0)
(0.99961159 7.3131094e-08 0)
(0.99952391 8.9675163e-08 0)
(0.99942896 1.0970557e-07 0)
(0.99932613 1.3415309e-07 0)
(0.99921454 1.6424096e-07 0)
(0.99909295 2.0162042e-07 0)
(0.99895966 2.4872192e-07 0)
(0.99881211 3.0879829e-07 0)
(0.99864697 3.8808712e-07 0)
(0.99845805 4.9227016e-07 0)
(0.99823972 6.4793664e-07 0)
(0.99796899 8.4485191e-07 0)
(0.99765115 1.278507e-06 0)
(0.99714339 1.6719653e-06 0)
(0.99662647 4.73019e-06 0)
(0.99440933 3.9220402e-06 0)
(0.99437925 0.0014563246 0)
(0.35240831 0.0016032331 0)
(0.20693609 0.00016589577 0)
(0.18534292 2.5409559e-05 0)
(0.17818238 1.0175942e-05 -8.4695625e-21)
(0.17364444 7.193421e-06 7.265504e-21)
(0.16986411 6.0924366e-06 0)
(0.16654568 5.3352571e-06 0)
(0.16359123 4.7276563e-06 0)
(0.16093306 4.2329236e-06 0)
(0.1585154 3.8266871e-06 0)
(0.15629721 3.4853702e-06 0)
(0.15424861 3.1926346e-06 0)
(0.15234659 2.9382429e-06 0)
(0.15057251 2.7152646e-06 0)
(0.14891091 2.5183311e-06 0)
(0.14734896 2.3431281e-06 0)
(0.14587592 2.1862889e-06 0)
(0.14448261 2.0452444e-06 0)
(0.14316102 1.9179147e-06 0)
(0.14190422 1.8024616e-06 6.6689189e-33)
(0.14070619 1.6974328e-06 0)
(0.13956153 1.6014676e-06 0)
(0.13846572 1.5134378e-06 0)
(0.13741461 1.4325984e-06 0)
(0.13640443 1.3580558e-06 0)
(0.13543202 1.2890613e-06 0)
(0.13449444 1.2252071e-06 0)
(0.13358893 1.1659434e-06 0)
(0.13271314 1.1106933e-06 0)
(0.13186498 1.059158e-06 0)
(0.1310424 1.0110861e-06 0)
(0.13024353 9.6604358e-07 0)
(0.12946685 9.2370071e-07 0)
(0.12871088 8.8395667e-07 0)
(0.12797413 8.4662894e-07 0)
(0.12725531 8.113968e-07 0)
(0.12655333 7.7805682e-07 0)
(0.12586715 7.4657254e-07 0)
(0.12519565 7.1684335e-07 0)
(0.12453786 6.8862752e-07 0)
(0.12389301 6.6177094e-07 0)
(0.12326031 6.3626654e-07 0)
(0.12263894 6.1206025e-07 0)
(0.12202813 5.8900538e-07 0)
(0.12142724 5.6697121e-07 0)
(0.12083571 5.4591336e-07 0)
(0.12025294 5.2582491e-07 0)
(0.11967828 5.066529e-07 0)
(0.11911119 4.882718e-07 0)
(0.11855124 4.7060772e-07 0)
(0.11799796 4.5367365e-07 0)
(0.11745087 4.3745406e-07 0)
(0.11690947 4.2188315e-07 0)
(0.11637335 4.0688178e-07 0)
(0.11584218 3.924183e-07 0)
(0.11531557 3.7850503e-07 0)
(0.11479309 3.6513203e-07 0)
(0.11427434 3.5223501e-07 0)
(0.113759 3.397588e-07 0)
(0.11324678 3.2770266e-07 0)
(0.11273732 3.1607461e-07 0)
(0.11223024 3.048612e-07 0)
(0.11172518 2.9400601e-07 0)
(0.11122188 2.8347234e-07 0)
(0.11072006 2.7327592e-07 0)
(0.11021934 2.6342097e-07 0)
(0.10971938 2.5388319e-07 0)
(0.10921985 2.4462283e-07 0)
(0.10872048 2.356216e-07 0)
(0.10822097 2.2689579e-07 0)
(0.10772094 2.1845059e-07 0)
(0.10721999 2.1024786e-07 0)
(0.10671784 2.0225828e-07 0)
(0.10621419 1.9449556e-07 0)
(0.10570862 1.8696897e-07 0)
(0.10520071 1.7965946e-07 0)
(0.10469008 1.7253915e-07 0)
(0.10417638 1.6560364e-07 0)
(0.10365917 1.5886561e-07 0)
(0.10313795 1.5231683e-07 0)
(0.10261226 1.4593131e-07 0)
(0.10208165 1.3970476e-07 0)
(0.10154561 1.3365055e-07 0)
(0.1010035 1.2775818e-07 0)
(0.10045475 1.2200659e-07 0)
(0.099898768 1.163982e-07 0)
(0.099334844 1.1094444e-07 0)
(0.098762132 1.0561582e-07 0)
(0.098180048 1.0044614e-07 0)
(0.097600462 9.5560124e-08 0)
(0.097041705 9.1020729e-08 0)
(0.096509099 8.6823914e-08 0)
(0.096000644 8.2953458e-08 0)
(0.09551443 7.9387048e-08 0)
(0.095048725 7.6088169e-08 0)
(0.094602053 7.3023568e-08 0)
(0.094173081 7.0178479e-08 0)
(0.093760514 6.7540126e-08 0)
(0.093363171 6.5082058e-08 0)
(0.09298007 6.2781109e-08 0)
(0.092610309 6.0629047e-08 0)
(0.092253008 5.8620745e-08 0)
(0.091907325 5.6752324e-08 0)
(0.091572425 5.500655e-08 0)
(0.091247672 5.3397489e-08 0)
(0.090932066 5.1881258e-08 0)
(0.090625496 5.0670215e-08 0)
(0.090324426 4.933592e-08 0)
(0.090033866 4.9447976e-08 0)
(0.089731521 4.7116759e-08 -4.2051417e-23)
(0.089469082 5.8325643e-08 0)
(0.089031312 3.6589422e-08 0)
(1 3.9916211e-09 0)
(0.99998252 1.41972e-08 0)
(0.99994311 2.5165433e-08 0)
(0.99989217 3.4686639e-08 0)
(0.99983291 4.4941779e-08 0)
(0.9997661 5.6841979e-08 0)
(0.99969215 7.078e-08 0)
(0.99961133 8.7258263e-08 0)
(0.99952357 1.0699711e-07 0)
(0.99942854 1.3089463e-07 0)
(0.99932564 1.6006104e-07 0)
(0.99921397 1.9595536e-07 0)
(0.9990923 2.4054713e-07 0)
(0.99895893 2.9673527e-07 0)
(0.9988113 3.6839957e-07 0)
(0.99864608 4.6297989e-07 0)
(0.99845707 5.8725302e-07 0)
(0.99823866 7.7293312e-07 0)
(0.99796784 1.0078121e-06 0)
(0.99764991 1.5250607e-06 0)
(0.99714206 1.9943569e-06 0)
(0.99662507 5.6414088e-06 0)
(0.99440853 4.6779633e-06 0)
(0.99437854 0.0016694479 -1.3483176e-54)
(0.40710131 0.0018702001 1.0638121e-53)
(0.24604548 0.00022714078 -5.9499187e-19)
(0.22051445 3.610882e-05 0)
(0.21198297 1.4494604e-05 -9.8883399e-21)
(0.20659713 1.0232811e-05 0)
(0.20211717 8.6616766e-06 0)