/*--------------------------------*- C++ -*----------------------------------*\
  =========                 |
  \\      /  F ield         | OpenFOAM: The Open Source CFD Toolbox
   \\    /   O peration     | Website:  https://openfoam.org
    \\  /    A nd           | Version:  12
     \\/     M anipulation  |
\*---------------------------------------------------------------------------*/
FoamFile
{
    format      ascii;
    class       volVectorField;
    location    "1800";
    object      wallShearStress;
}
// * * * * * * * * * * * * * * * * * * * * * * * * * * * * * * * * * * * * * //

dimensions      [0 2 -2 0 0 0 0];

internalField   uniform (0 0 0);

boundaryField
{
    bottom
    {
        type            calculated;
        value           nonuniform List<vector> 
112
(
(-0.0057006079 -3.5138609e-05 0)
(-0.0028772668 -3.8367196e-07 -1.8550412e-17)
(-0.0025746482 -8.339001e-08 -5.1405863e-19)
(-0.0024756068 -1.8460201e-08 -9.8581552e-19)
(-0.0024127496 -1.3064559e-08 0)
(-0.0023600877 -1.1096087e-08 0)
(-0.0023137816 -9.7258567e-09 0)
(-0.0022725462 -8.6182927e-09 0)
(-0.002235458 -7.7156537e-09 0)
(-0.0022017311 -6.9751693e-09 -7.4351901e-19)
(-0.0021707898 -6.3531241e-09 0)
(-0.0021422168 -5.8194766e-09 -6.2029305e-19)
(-0.0021156918 -5.35557e-09 5.7084273e-19)
(-0.0020909545 -4.9489386e-09 -5.2749734e-19)
(-0.0020677885 -4.5898089e-09 0)
(-0.0020460149 -4.2703268e-09 4.5516386e-19)
(-0.0020254828 -3.9843467e-09 0)
(-0.0020060643 -3.7271523e-09 -1.9863415e-19)
(-0.0019876475 -3.4949951e-09 0)
(-0.0019701352 -3.2844795e-09 -3.5008599e-19)
(-0.0019534434 -3.0930071e-09 3.2967664e-19)
(-0.0019374966 -2.9180494e-09 0)
(-0.0019222318 -2.757544e-09 0)
(-0.001907591 -2.6102038e-09 0)
(-0.0018935211 -2.4743152e-09 -2.6373336e-19)
(-0.0018799785 -2.3485244e-09 0)
(-0.001866922 -2.2321523e-09 0)
(-0.0018543128 -2.1241407e-09 0)
(-0.0018421182 -2.0234188e-09 0)
(-0.0018303093 -1.9294873e-09 -2.0566365e-19)
(-0.0018188571 -1.841899e-09 1.9632621e-19)
(-0.0018077357 -1.7598025e-09 0)
(-0.0017969238 -1.6826147e-09 0)
(-0.0017864009 -1.6101957e-09 0)
(-0.001776146 -1.5421882e-09 1.6438108e-19)
(-0.001766141 -1.4779776e-09 0)
(-0.0017563712 -1.4172078e-09 0)
(-0.0017468217 -1.359843e-09 -1.4494632e-19)
(-0.0017374769 -1.3056893e-09 0)
(-0.0017283231 -1.2542711e-09 0)
(-0.00171935 -1.2053202e-09 0)
(-0.0017105464 -1.1588545e-09 1.2352315e-19)
(-0.0017019006 -1.1147608e-09 -5.9411382e-20)
(-0.0016934021 -1.0727576e-09 1.1434553e-19)
(-0.0016850421 -1.0326035e-09 0)
(-0.0016768127 -9.9423518e-10 0)
(-0.0016687053 -9.576417e-10 -1.5311379e-19)
(-0.0016607112 -9.2272202e-10 0)
(-0.0016528225 -8.892312e-10 9.4783739e-20)
(-0.0016450334 -8.5704173e-10 0)
(-0.0016373377 -8.2619559e-10 0)
(-0.001629728 -7.9665422e-10 -4.2458012e-20)
(-0.0016221978 -7.68291e-10 -4.0946344e-20)
(-0.0016147414 -7.4095877e-10 0)
(-0.0016073539 -7.1460861e-10 -7.6171107e-20)
(-0.0016000302 -6.8926646e-10 0)
(-0.0015927642 -6.6491144e-10 0)
(-0.0015855502 -6.4141932e-10 0)
(-0.0015783839 -6.1868875e-10 0)
(-0.0015712612 -5.9672735e-10 0)
(-0.0015641772 -5.7554951e-10 0)
(-0.0015571265 -5.5512907e-10 0)
(-0.0015501039 -5.3535601e-10 0)
(-0.0015431061 -5.1616578e-10 0)
(-0.0015361291 -4.9759545e-10 -5.303948e-20)
(-0.0015291676 -4.7964877e-10 0)
(-0.0015222169 -4.6227853e-10 -2.4637427e-20)
(-0.0015152723 -4.4541126e-10 0)
(-0.0015083301 -4.2901574e-10 -2.286475e-20)
(-0.0015013863 -4.131247e-10 4.4035633e-20)
(-0.0014944353 -3.9774677e-10 4.2396325e-20)
(-0.0014874718 -3.8280765e-10 -2.0401979e-20)
(-0.0014804918 -3.6825492e-10 0)
(-0.0014734912 -3.5411807e-10 0)
(-0.0014664641 -3.4041288e-10 3.6285072e-20)
(-0.0014594047 -3.2710204e-10 -3.4866215e-20)
(-0.0014523076 -3.1413396e-10 0)
(-0.001445168 -3.0150331e-10 0)
(-0.00143798 -2.8923444e-10 -3.0829898e-20)
(-0.0014307364 -2.7730982e-10 0)
(-0.0014234307 -2.6568082e-10 0)
(-0.0014160571 -2.5434185e-10 0)
(-0.0014086082 -2.4331866e-10 0)
(-0.001401075 -2.3258943e-10 0)
(-0.0013934498 -2.2211553e-10 0)
(-0.0013857245 -2.119033e-10 0)
(-0.001377889 -2.0197356e-10 0)
(-0.0013699315 -1.9227116e-10 2.0494388e-20)
(-0.0013618441 -1.8285692e-10 -1.9490999e-20)
(-0.0013537918 -1.7396042e-10 0)
(-0.001346029 -1.6569605e-10 0)
(-0.0013386296 -1.5805478e-10 0)
(-0.001331566 -1.5100781e-10 0)
(-0.0013248116 -1.4451485e-10 0)
(-0.0013183421 -1.3850844e-10 0)
(-0.0013121373 -1.3292862e-10 0)
(-0.0013061784 -1.2774893e-10 0)
(-0.0013004475 -1.2294599e-10 -1.3104939e-20)
(-0.0012949282 -1.1847098e-10 0)
(-0.0012896068 -1.1428159e-10 0)
(-0.0012844708 -1.1036389e-10 0)
(-0.0012795079 -1.0670826e-10 0)
(-0.0012747065 -1.0330767e-10 0)
(-0.0012700548 -1.0013018e-10 0)
(-0.0012655441 -9.7202077e-11 0)
(-0.0012611603 -9.4444064e-11 0)
(-0.0012569022 -9.2244982e-11 0)
(-0.0012527195 -8.9824151e-11 0)
(-0.0012486838 -9.0038472e-11 0)
(-0.0012444792 -1.5449194e-10 0)
(-0.0012408345 -1.0570044e-10 -1.1351879e-20)
(-0.001234755 -1.2061445e-10 0)
)
;
    }
    back
    {
        type            empty;
    }
    front
    {
        type            empty;
    }
    inlet
    {
        type            calculated;
        value           uniform (0 0 0);
    }
    outlet
    {
        type            calculated;
        value           uniform (0 0 0);
    }
    top
    {
        type            calculated;
        value           uniform (0 0 0);
    }
    slipsurface
    {
        type            calculated;
        value           uniform (0 0 0);
    }
}


// ************************************************************************* //
