/*--------------------------------*- C++ -*----------------------------------*\
  =========                 |
  \\      /  F ield         | OpenFOAM: The Open Source CFD Toolbox
   \\    /   O peration     | Website:  https://openfoam.org
    \\  /    A nd           | Version:  12
     \\/     M anipulation  |
\*---------------------------------------------------------------------------*/
FoamFile
{
    format      ascii;
    class       volScalarField;
    location    "1800";
    object      yPlus;
}
// * * * * * * * * * * * * * * * * * * * * * * * * * * * * * * * * * * * * * //

dimensions      [];

internalField   uniform 0;

boundaryField
{
    inlet
    {
        type            calculated;
        value           uniform 0;
    }
    top
    {
        type            calculated;
        value           uniform 0;
    }
    outlet
    {
        type            calculated;
        value           uniform 0;
    }
    slipsurface
    {
        type            calculated;
        value           uniform 0;
    }
    bottom
    {
        type            calculated;
        value           nonuniform List<scalar> 
100
(
116.32487
115.15008
113.8457
112.43922
110.954
109.41056
107.81652
106.17417
104.48765
102.76973
101.04025
99.32827
97.673621
96.124688
94.727073
93.505785
92.467582
91.5922
90.850412
90.213625
89.664502
89.174669
88.723835
88.29883
87.889473
87.491953
87.104835
86.727794
86.361379
86.006592
85.663862
85.332274
85.009986
84.69031
84.368766
84.04481
83.720365
83.399228
83.085294
82.781305
82.488454
82.2068
81.935771
81.67417
81.420807
81.170456
80.914743
80.639526
80.322006
79.940964
79.518545
79.106116
78.73305
78.405395
78.113007
77.844287
77.59009
77.342542
77.102944
76.869791
76.642128
76.418743
76.19853
75.980732
75.764746
75.550092
75.336569
75.124076
74.912437
74.701434
74.490868
74.280549
74.070317
73.860022
73.649509
73.438633
73.227247
73.015198
72.802359
72.588594
72.37379
72.157914
71.941076
71.724936
71.526008
71.469082
72.634268
73.226968
73.583287
73.717314
73.736272
73.69113
73.609985
73.506801
73.390116
73.263139
73.133216
72.988218
72.863986
72.616408
)
;
    }
    frontandback
    {
        type            empty;
    }
}


// ************************************************************************* //
