# Probe 0 (1.95 0 0)
# Probe 1 (1.95 1e-10 0)
# Probe 2 (1.95 1e-07 0)
# Time          0               1               2              
100             -0.00048858061  -0.00048858061  -0.00048858061 
200             -0.00035341366  -0.00035341366  -0.00035341366 
300             -0.00037663852  -0.00037663852  -0.00037663852 
400             -0.00039562158  -0.00039562158  -0.00039562158 
500             -0.00040905038  -0.00040905038  -0.00040905038 
600             -0.00041929639  -0.00041929639  -0.00041929639 
700             -0.00042749091  -0.00042749091  -0.00042749091 
800             -0.00043418154  -0.00043418154  -0.00043418154 
900             -0.0004396447   -0.0004396447   -0.0004396447  
1000            -0.00044445082  -0.00044445082  -0.00044445082 
1100            -0.00044859457  -0.00044859457  -0.00044859457 
1200            -0.00045222122  -0.00045222122  -0.00045222122 
1300            -0.00045543771  -0.00045543771  -0.00045543771 
1400            -0.00045829519  -0.00045829519  -0.00045829519 
1500            -0.00046091103  -0.00046091103  -0.00046091103 
1600            -0.00046333848  -0.00046333848  -0.00046333848 
1700            -0.00046559227  -0.00046559227  -0.00046559227 
1800            -0.00046765926  -0.00046765926  -0.00046765926 
1900            -0.00046957112  -0.00046957112  -0.00046957112 
2000            -0.00047131569  -0.00047131569  -0.00047131569 
