# Probe 0 (1.95 0 0)
# Probe 1 (1.95 1e-10 0)
# Probe 2 (1.95 1e-07 0)
# Time          0               1               2              
100             (0.50201621 0.00013438597 -2.0653662e-17) (0.50201621 0.00013438597 -2.0653662e-17) (0.50201621 0.00013438597 -2.0653662e-17)
200             (0.55535671 3.2040062e-05 -4.3549075e-18) (0.55535671 3.2040062e-05 -4.3549075e-18) (0.55535671 3.2040062e-05 -4.3549075e-18)
300             (0.55668115 3.2168432e-05 -4.3023487e-18) (0.55668115 3.2168432e-05 -4.3023487e-18) (0.55668115 3.2168432e-05 -4.3023487e-18)
400             (0.55686627 3.2494788e-05 -4.2975003e-18) (0.55686627 3.2494788e-05 -4.2975003e-18) (0.55686627 3.2494788e-05 -4.2975003e-18)
500             (0.55694623 3.2797184e-05 -4.3062529e-18) (0.55694623 3.2797184e-05 -4.3062529e-18) (0.55694623 3.2797184e-05 -4.3062529e-18)
600             (0.55699152 3.3032506e-05 -4.313599e-18) (0.55699152 3.3032506e-05 -4.313599e-18) (0.55699152 3.3032506e-05 -4.313599e-18)
700             (0.55702115 3.3175898e-05 -4.3122582e-18) (0.55702115 3.3175898e-05 -4.3122582e-18) (0.55702115 3.3175898e-05 -4.3122582e-18)
800             (0.55704215 3.3263914e-05 -4.3061601e-18) (0.55704215 3.3263914e-05 -4.3061601e-18) (0.55704215 3.3263914e-05 -4.3061601e-18)
900             (0.55705758 3.3337057e-05 -4.3012925e-18) (0.55705758 3.3337057e-05 -4.3012925e-18) (0.55705758 3.3337057e-05 -4.3012925e-18)
1000            (0.55706935 3.3401345e-05 -4.2970639e-18) (0.55706935 3.3401345e-05 -4.2970639e-18) (0.55706935 3.3401345e-05 -4.2970639e-18)
1100            (0.5570787 3.3456574e-05 -4.2933684e-18) (0.5570787 3.3456574e-05 -4.2933684e-18) (0.5570787 3.3456574e-05 -4.2933684e-18)
1200            (0.55708618 3.350494e-05 -4.2901226e-18) (0.55708618 3.350494e-05 -4.2901226e-18) (0.55708618 3.350494e-05 -4.2901226e-18)
1300            (0.55709225 3.35478e-05 -4.287232e-18) (0.55709225 3.35478e-05 -4.287232e-18) (0.55709225 3.35478e-05 -4.287232e-18)
1400            (0.55709734 3.3585661e-05 -4.2846109e-18) (0.55709734 3.3585661e-05 -4.2846109e-18) (0.55709734 3.3585661e-05 -4.2846109e-18)
1500            (0.55710153 3.3620102e-05 -4.2821928e-18) (0.55710153 3.3620102e-05 -4.2821928e-18) (0.55710153 3.3620102e-05 -4.2821928e-18)
1600            (0.55710502 3.3651852e-05 -4.2799309e-18) (0.55710502 3.3651852e-05 -4.2799309e-18) (0.55710502 3.3651852e-05 -4.2799309e-18)
1700            (0.55710798 3.3681025e-05 -4.2777952e-18) (0.55710798 3.3681025e-05 -4.2777952e-18) (0.55710798 3.3681025e-05 -4.2777952e-18)
1800            (0.55711047 3.3707628e-05 -4.2758027e-18) (0.55711047 3.3707628e-05 -4.2758027e-18) (0.55711047 3.3707628e-05 -4.2758027e-18)
1900            (0.5571126 3.3732173e-05 -4.27395e-18) (0.5571126 3.3732173e-05 -4.27395e-18) (0.5571126 3.3732173e-05 -4.27395e-18)
2000            (0.55711449 3.375437e-05 -4.2722099e-18) (0.55711449 3.375437e-05 -4.2722099e-18) (0.55711449 3.375437e-05 -4.2722099e-18)
