/*--------------------------------*- C++ -*----------------------------------*\
  =========                 |
  \\      /  F ield         | OpenFOAM: The Open Source CFD Toolbox
   \\    /   O peration     | Website:  https://openfoam.org
    \\  /    A nd           | Version:  12
     \\/     M anipulation  |
\*---------------------------------------------------------------------------*/
FoamFile
{
    format      ascii;
    class       volScalarField;
    location    "100";
    object      nut;
}
// * * * * * * * * * * * * * * * * * * * * * * * * * * * * * * * * * * * * * //

dimensions      [0 2 -1 0 0 0 0];

internalField   nonuniform List<scalar> 
7480
(
1.0994791e-06
7.347801e-07
5.753609e-07
5.3953168e-07
5.6535089e-07
6.4016683e-07
7.7227695e-07
9.7806129e-07
1.2795289e-06
1.7002454e-06
2.2597129e-06
2.9738442e-06
3.8478572e-06
4.8410091e-06
5.8330299e-06
6.6677627e-06
7.2479615e-06
7.5684989e-06
7.7035015e-06
7.6719496e-06
7.5834093e-06
7.4544205e-06
7.3071604e-06
7.1652908e-06
7.0574003e-06
6.9894677e-06
6.9532018e-06
6.9376637e-06
6.9351701e-06
6.9414303e-06
6.9526541e-06
6.9652446e-06
6.9772968e-06
6.955623e-06
6.9189016e-06
6.882492e-06
6.8508227e-06
6.8247178e-06
6.8031123e-06
6.7841818e-06
6.7663595e-06
6.7488147e-06
6.7312576e-06
6.7137906e-06
6.6979252e-06
6.6872642e-06
6.7005533e-06
6.7890878e-06
7.054815e-06
7.5849932e-06
8.2140194e-06
8.5933767e-06
8.8851084e-06
9.1049433e-06
9.2536432e-06
9.3468596e-06
9.4063625e-06
9.4483766e-06
9.4804757e-06
9.5069306e-06
9.5296295e-06
9.5494542e-06
9.5671057e-06
9.5832519e-06
9.5982971e-06
9.6125943e-06
9.626549e-06
9.6403921e-06
9.6542216e-06
9.6681348e-06
9.6822591e-06
9.6967312e-06
9.7116809e-06
9.7272281e-06
9.7434883e-06
9.7605726e-06
9.7785886e-06
9.7976403e-06
9.8178198e-06
9.8391824e-06
9.8616519e-06
9.884588e-06
9.8971915e-06
9.6361391e-06
4.3169242e-06
4.0102517e-06
4.0350079e-06
4.0521721e-06
4.0613759e-06
4.0683689e-06
4.0730973e-06
4.0760969e-06
4.0778897e-06
4.0788295e-06
4.0791286e-06
4.0789171e-06
4.0782315e-06
4.0771639e-06
4.0756883e-06
4.0714103e-06
1.4108431e-06
1.3433308e-06
1.2694482e-06
1.1959392e-06
1.1250916e-06
1.0587195e-06
9.9631291e-07
9.4755119e-07
9.0017342e-07
9.1540518e-07
9.6425656e-07
1.0566068e-06
1.207166e-06
1.4377131e-06
1.7682258e-06
2.2039907e-06
2.7546918e-06
3.3885274e-06
4.0893879e-06
4.8554303e-06
5.6816595e-06
6.4704172e-06
7.1952234e-06
7.8605483e-06
8.4639493e-06
9.0059132e-06
9.4904271e-06
9.9241861e-06
1.0319073e-05
1.0687035e-05
1.1031339e-05
1.1351945e-05
1.164522e-05
1.1905467e-05
1.2135742e-05
1.2345339e-05
1.2544185e-05
1.2746473e-05
1.2957235e-05
1.3175348e-05
1.3397665e-05
1.362166e-05
1.3845275e-05
1.406602e-05
1.4284538e-05
1.4482624e-05
1.4667468e-05
1.4862268e-05
1.5109989e-05
1.5456037e-05
1.5876887e-05
1.6263672e-05
1.6599811e-05
1.687945e-05
1.7112871e-05
1.7311375e-05
1.7484916e-05
1.7642467e-05
1.7790245e-05
1.7932574e-05
1.8069986e-05
1.8202219e-05
1.8329584e-05
1.8452947e-05
1.8572556e-05
1.8688989e-05
1.8803271e-05
1.8915831e-05
1.9026705e-05
1.913598e-05
1.9243874e-05
1.9350654e-05
1.9456582e-05
1.9561903e-05
1.9666848e-05
1.9771641e-05
1.9876493e-05
1.9981606e-05
2.0087157e-05
2.0193237e-05
2.0299611e-05
2.0404476e-05
2.0488511e-05
2.0313623e-05
1.731582e-05
1.6037615e-05
1.506629e-05
1.4458348e-05
1.4044524e-05
1.3751827e-05
1.3533499e-05
1.3364805e-05
1.3231289e-05
1.312402e-05
1.3037149e-05
1.2966612e-05
1.2909069e-05
1.2862265e-05
1.2823471e-05
1.2790796e-05
1.4435398e-06
1.4199479e-06
1.3937388e-06
1.3662299e-06
1.3377984e-06
1.3078947e-06
1.2762628e-06
1.2428321e-06
1.2075803e-06
1.1728927e-06
1.1399543e-06
1.1101531e-06
1.0853191e-06
1.0672886e-06
1.05031e-06
1.0524689e-06
1.0689468e-06
1.128113e-06
1.2411206e-06
1.4205004e-06
1.6829889e-06
2.0449097e-06
2.5088869e-06
3.0946226e-06
3.7715334e-06
4.5329787e-06
5.3924029e-06
6.299617e-06
7.2168673e-06
8.1162607e-06
8.974875e-06
9.7740079e-06
1.0488519e-05
1.1134252e-05
1.1740969e-05
1.2327512e-05
1.2896582e-05
1.3447226e-05
1.3974373e-05
1.4481283e-05
1.4971933e-05
1.5450057e-05
1.5916222e-05
1.6368751e-05
1.6807999e-05
1.7230964e-05
1.7635546e-05
1.8023702e-05
1.8414403e-05
1.8822636e-05
1.9248344e-05
1.9674093e-05
2.0082173e-05
2.046744e-05
2.0832464e-05
2.1178259e-05
2.1505426e-05
2.1818597e-05
2.2123416e-05
2.2423411e-05
2.2715708e-05
2.2999225e-05
2.3274225e-05
2.3541758e-05
2.3801367e-05
2.40541e-05
2.4301542e-05
2.4543865e-05
2.4780819e-05
2.5012417e-05
2.523887e-05
2.5460445e-05
2.56774e-05
2.5889971e-05
2.6098383e-05
2.6302853e-05
2.6503592e-05
2.6700807e-05
2.6894694e-05
2.7085387e-05
2.7272829e-05
2.7455723e-05
2.7622294e-05
2.7657184e-05
2.6627959e-05
2.6108867e-05
2.5712377e-05
2.5474449e-05
2.5331147e-05
2.5250202e-05
2.5206453e-05
2.5184938e-05
2.5176859e-05
2.5177085e-05
2.5182357e-05
2.5191087e-05
2.5200268e-05
2.5213557e-05
2.5214948e-05
2.5249171e-05
1.4531428e-06
1.4413034e-06
1.4283766e-06
1.4148423e-06
1.4008068e-06
1.386273e-06
1.3712403e-06
1.3555654e-06
1.3392053e-06
1.3219567e-06
1.3037363e-06
1.2844489e-06
1.26409e-06
1.2429717e-06
1.221917e-06
1.201405e-06
1.1816714e-06
1.1635631e-06
1.1489071e-06
1.1385213e-06
1.13284e-06
1.1373257e-06
1.1534372e-06
1.1954716e-06
1.2860504e-06
1.4392556e-06
1.6753765e-06
2.0145291e-06
2.4712073e-06
3.0718482e-06
3.8108882e-06
4.6677622e-06
5.6419072e-06
6.6795005e-06
7.7336814e-06
8.7706029e-06
9.7681972e-06
1.0715841e-05
1.1613743e-05
1.2468293e-05
1.328826e-05
1.4082655e-05
1.4847206e-05
1.5581784e-05
1.6303436e-05
1.7014087e-05
1.7702258e-05
1.8365221e-05
1.9008883e-05
1.9638686e-05
2.0257813e-05
2.0864746e-05
2.1458071e-05
2.203575e-05
2.259579e-05
2.3136838e-05
2.3658504e-05
2.4170138e-05
2.4675705e-05
2.5176032e-05
2.5661475e-05
2.6133631e-05
2.6593629e-05
2.7042792e-05
2.747913e-05
2.790572e-05
2.832428e-05
2.8733984e-05
2.9134443e-05
2.952579e-05
2.9908284e-05
3.0282179e-05
3.0647697e-05
3.1005036e-05
3.1354375e-05
3.1695881e-05
3.2029705e-05
3.2355996e-05
3.2674891e-05
3.298649e-05
3.329086e-05
3.358758e-05
3.3871737e-05
3.4106838e-05
3.4012159e-05
3.4021443e-05
3.4046934e-05
3.4117079e-05
3.4220685e-05
3.4349521e-05
3.4493362e-05
3.4644432e-05
3.479763e-05
3.4949998e-05
3.5099543e-05
3.5246091e-05
3.5385732e-05
3.5529103e-05
3.5635368e-05
3.5847798e-05
1.4578006e-06
1.450763e-06
1.4431636e-06
1.4352271e-06
1.4269995e-06
1.4184837e-06
1.4096746e-06
1.4005617e-06
1.3911351e-06
1.3813719e-06
1.3712416e-06
1.3607052e-06
1.3497198e-06
1.3382334e-06
1.3262631e-06
1.3137759e-06
1.3007909e-06
1.2871758e-06
1.2728884e-06
1.2582304e-06
1.2436748e-06
1.229493e-06
1.2159417e-06
1.2036824e-06
1.1947265e-06
1.1863355e-06
1.1875268e-06
1.1948148e-06
1.2172359e-06
1.260596e-06
1.3571426e-06
1.5282923e-06
1.8012473e-06
2.2029352e-06
2.752321e-06
3.4899196e-06
4.3751411e-06
5.3970898e-06
6.5318912e-06
7.7223226e-06
8.9230655e-06
1.0100634e-05
1.1235703e-05
1.2322729e-05
1.3367787e-05
1.438225e-05
1.5372232e-05
1.6336618e-05
1.7273923e-05
1.8184932e-05
1.9072669e-05
1.9934677e-05
2.0781938e-05
2.1608432e-05
2.2414295e-05
2.3199792e-05
2.3964621e-05
2.4712096e-05
2.544533e-05
2.6166824e-05
2.6873689e-05
2.7565223e-05
2.8241503e-05
2.8903684e-05
2.95462e-05
3.0179542e-05
3.0802372e-05
3.141171e-05
3.2008085e-05
3.2592025e-05
3.3163881e-05
3.3723928e-05
3.4272406e-05
3.4809527e-05
3.5335483e-05
3.5850444e-05
3.6354567e-05
3.6847994e-05
3.7330858e-05
3.7803265e-05
3.8265337e-05
3.8717084e-05
3.9156522e-05
3.957628e-05
3.990152e-05
4.0234033e-05
4.0549681e-05
4.0863242e-05
4.1179511e-05
4.1500484e-05
4.1823802e-05
4.2145984e-05
4.2464069e-05
4.2776221e-05
4.3080971e-05
4.3378957e-05
4.3664983e-05
4.3956553e-05
4.418475e-05
4.4610699e-05
1.4606421e-06
1.4560441e-06
1.4511105e-06
1.4459651e-06
1.4406324e-06
1.4351125e-06
1.4294001e-06
1.4234887e-06
1.417372e-06
1.4110433e-06
1.4044966e-06
1.3977254e-06
1.3907236e-06
1.3834836e-06
1.3759959e-06
1.3682475e-06
1.360225e-06
1.3519084e-06
1.3432658e-06
1.3342668e-06
1.3249024e-06
1.315136e-06
1.3050245e-06
1.2942251e-06
1.2830444e-06
1.271703e-06
1.2605721e-06
1.2498795e-06
1.2398487e-06
1.231995e-06
1.2236749e-06
1.2239087e-06
1.2287015e-06
1.2451372e-06
1.281993e-06
1.3572668e-06
1.5080716e-06
1.7654057e-06
2.1655343e-06
2.7347617e-06
3.530809e-06
4.5084149e-06
5.653349e-06
6.9315662e-06
8.2770019e-06
9.6358375e-06
1.0970768e-05
1.2264644e-05
1.3516629e-05
1.4733295e-05
1.5920846e-05
1.7080525e-05
1.8212635e-05
1.9318402e-05
2.039905e-05
2.1455892e-05
2.2488976e-05
2.3498894e-05
2.4487718e-05
2.5458218e-05
2.6410835e-05
2.7345298e-05
2.8261447e-05
2.9160109e-05
3.0038747e-05
3.0901307e-05
3.1748862e-05
3.258072e-05
3.3396793e-05
3.4197378e-05
3.4982824e-05
3.5753446e-05
3.6509525e-05
3.7251318e-05
3.7979055e-05
3.8692944e-05
3.9393173e-05
4.0079914e-05
4.0753323e-05
4.1413535e-05
4.2060703e-05
4.2695022e-05
4.3315573e-05
4.3923592e-05
4.4503995e-05
4.5072846e-05
4.5618096e-05
4.6144838e-05
4.6659902e-05
4.7168427e-05
4.7671721e-05
4.8168773e-05
4.8657922e-05
4.9137949e-05
4.9607578e-05
5.0067967e-05
5.051247e-05
5.0965489e-05
5.1327826e-05
5.1992675e-05
1.4626087e-06
1.4594029e-06
1.455982e-06
1.4524195e-06
1.4487295e-06
1.4449115e-06
1.4409615e-06
1.4368748e-06
1.4326467e-06
1.428272e-06
1.423746e-06
1.4190642e-06
1.414223e-06
1.4092191e-06
1.4040494e-06
1.3987105e-06
1.3931978e-06
1.3875058e-06
1.3816271e-06
1.3755523e-06
1.3692704e-06
1.3627659e-06
1.3560281e-06
1.3490322e-06
1.3417486e-06
1.334172e-06
1.3262756e-06
1.3180597e-06
1.3094914e-06
1.3005687e-06
1.2912721e-06
1.282094e-06
1.2732545e-06
1.2649275e-06
1.2584906e-06
1.2519678e-06
1.2525982e-06
1.2580253e-06
1.2757665e-06
1.3161761e-06
1.3972729e-06
1.5669746e-06
1.8662596e-06
2.3391047e-06
3.030991e-06
3.9815522e-06
5.1452191e-06
6.5022656e-06
7.9778956e-06
9.5010061e-06
1.1016093e-05
1.2493407e-05
1.3928004e-05
1.5327379e-05
1.6698513e-05
1.8043248e-05
1.936056e-05
2.0650227e-05
2.1913912e-05
2.3153938e-05
2.4371537e-05
2.5567236e-05
2.6741397e-05
2.7894775e-05
2.9026574e-05
3.0137715e-05
3.122958e-05
3.2302666e-05
3.335709e-05
3.439309e-05
3.5410998e-05
3.6411151e-05
3.7393874e-05
3.8359473e-05
3.9308225e-05
4.0240385e-05
4.1156184e-05
4.2055833e-05
4.2939526e-05
4.3807436e-05
4.4659739e-05
4.549671e-05
4.6317814e-05
4.7125793e-05
4.7921179e-05
4.8702271e-05
4.9460086e-05
5.0194382e-05
5.0910043e-05
5.1612315e-05
5.2304022e-05
5.2985639e-05
5.3656433e-05
5.4315642e-05
5.496209e-05
5.559735e-05
5.6213282e-05
5.6841334e-05
5.7350134e-05
5.8277337e-05
1.4640707e-06
1.4617297e-06
1.4592431e-06
1.4566569e-06
1.4539797e-06
1.4512108e-06
1.4483474e-06
1.4453863e-06
1.4423239e-06
1.4391567e-06
1.4358811e-06
1.4324938e-06
1.4289917e-06
1.4253718e-06
1.4216317e-06
1.4177683e-06
1.4137788e-06
1.4096592e-06
1.4054049e-06
1.4010112e-06
1.3964726e-06
1.3917833e-06
1.386937e-06
1.3819282e-06
1.3767494e-06
1.3713925e-06
1.3658471e-06
1.3601015e-06
1.3541439e-06
1.3479525e-06
1.3415187e-06
1.3348129e-06
1.3278326e-06
1.3205581e-06
1.3129682e-06
1.3050701e-06
1.297307e-06
1.2898571e-06
1.2831439e-06
1.2781672e-06
1.2744982e-06
1.2766328e-06
1.2858829e-06
1.3124669e-06
1.3692701e-06
1.4938522e-06
1.7399154e-06
2.1668545e-06
2.8248458e-06
3.7970295e-06
5.0277489e-06
6.4901113e-06
8.1082014e-06
9.7922302e-06
1.1473815e-05
1.3119323e-05
1.4724974e-05
1.6298766e-05
1.7846074e-05
1.9367268e-05
2.086185e-05
2.2330897e-05
2.3775777e-05
2.5197183e-05
2.6594816e-05
2.7968886e-05
2.9320309e-05
3.0649785e-05
3.1957706e-05
3.3244421e-05
3.4510272e-05
3.5755588e-05
3.6980714e-05
3.8185988e-05
3.9371717e-05
4.0538191e-05
4.168568e-05
4.2814429e-05
4.3924668e-05
4.5016607e-05
4.6090442e-05
4.7146477e-05
4.8184366e-05
4.9206298e-05
5.0215897e-05
5.1210313e-05
5.2182709e-05
5.3130397e-05
5.4055769e-05
5.4963004e-05
5.585531e-05
5.6734055e-05
5.7599243e-05
5.8450543e-05
5.9286905e-05
6.0110291e-05
6.0911084e-05
6.1727965e-05
6.2395751e-05
6.3607644e-05
1.4652192e-06
1.4634495e-06
1.4615769e-06
1.4596313e-06
1.4576182e-06
1.455537e-06
1.4533856e-06
1.4511616e-06
1.4488624e-06
1.4464855e-06
1.4440283e-06
1.4414882e-06
1.4388629e-06
1.4361502e-06
1.4333477e-06
1.4304534e-06
1.4274646e-06
1.4243784e-06
1.4211913e-06
1.4178996e-06
1.4144993e-06
1.4109863e-06
1.4073564e-06
1.4036052e-06
1.3997284e-06
1.3957216e-06
1.3915802e-06
1.3872993e-06
1.3828737e-06
1.3782975e-06
1.3735647e-06
1.3686664e-06
1.3635919e-06
1.3583309e-06
1.3528629e-06
1.3471802e-06
1.3412523e-06
1.3351054e-06
1.3285855e-06
1.3218324e-06
1.3149966e-06
1.3083824e-06
1.3021219e-06
1.2972292e-06
1.2928675e-06
1.2940253e-06
1.3006436e-06
1.3217394e-06
1.3717992e-06
1.4808705e-06
1.7190258e-06
2.1571654e-06
2.8598851e-06
3.9256463e-06
5.2923824e-06
6.9238754e-06
8.7193925e-06
1.0575519e-05
1.2420109e-05
1.4226042e-05
1.5996607e-05
1.774107e-05
1.9462031e-05
2.1157977e-05
2.2828282e-05
2.4473612e-05
2.609447e-05
2.769105e-05
2.9263748e-05
3.0813021e-05
3.233914e-05
3.3842349e-05
3.5322966e-05
3.6781293e-05
3.8217612e-05
3.9632211e-05
4.1025363e-05
4.2397319e-05
4.3748325e-05
4.5078609e-05
4.6388374e-05
4.7677918e-05
4.8947033e-05
5.0196977e-05
5.143125e-05
5.264881e-05
5.3844955e-05
5.5016252e-05
5.6163066e-05
5.7288159e-05
5.8394483e-05
5.9483867e-05
6.0556898e-05
6.1613671e-05
6.265331e-05
6.3678183e-05
6.4677241e-05
6.5696572e-05
6.6535781e-05
6.8053699e-05
1.4661662e-06
1.4647917e-06
1.4633419e-06
1.461837e-06
1.4602805e-06
1.4586719e-06
1.4570096e-06
1.4552917e-06
1.4535164e-06
1.4516816e-06
1.4497855e-06
1.4478261e-06
1.4458016e-06
1.4437102e-06
1.4415501e-06
1.4393196e-06
1.4370166e-06
1.4346388e-06
1.4321837e-06
1.4296485e-06
1.42703e-06
1.4243253e-06
1.4215309e-06
1.4186437e-06
1.4156602e-06
1.4125769e-06
1.4093905e-06
1.4060973e-06
1.4026936e-06
1.3991757e-06
1.3955396e-06
1.3917809e-06
1.3878952e-06
1.3838774e-06
1.379722e-06
1.3754237e-06
1.3709736e-06
1.3663645e-06
1.3615805e-06
1.3566036e-06
1.3514265e-06
1.3460359e-06
1.3404257e-06
1.3345534e-06
1.3284642e-06
1.3225389e-06
1.3168985e-06
1.3124026e-06
1.3084872e-06
1.3096027e-06
1.316249e-06
1.3379151e-06
1.3915987e-06
1.5143805e-06
1.7910152e-06
2.3067786e-06
3.1554357e-06
4.4108758e-06
6.0072314e-06
7.8732792e-06
9.8775322e-06
1.1910045e-05
1.3913574e-05
1.5879885e-05
1.781897e-05
1.9735694e-05
2.1628408e-05
2.349589e-05
2.5338824e-05
2.7157594e-05
2.8951978e-05
3.0722008e-05
3.2467887e-05
3.4189723e-05
3.5887652e-05
3.7561878e-05
3.9212588e-05
4.0839976e-05
4.2444247e-05
4.40256e-05
4.5584208e-05
4.7120317e-05
4.8633816e-05
5.0125124e-05
5.1596982e-05
5.3049981e-05
5.4481322e-05
5.5887761e-05
5.7268309e-05
5.8624341e-05
5.9958192e-05
6.1271801e-05
6.2566162e-05
6.3841763e-05
6.5097943e-05
6.6337494e-05
6.7547995e-05
6.878309e-05
6.9805961e-05
7.1650426e-05
1.466977e-06
1.4658862e-06
1.4647386e-06
1.4635483e-06
1.4623176e-06
1.4610461e-06
1.4597325e-06
1.4583754e-06
1.4569733e-06
1.4555247e-06
1.454028e-06
1.4524819e-06
1.4508848e-06
1.4492352e-06
1.4475319e-06
1.4457732e-06
1.4439577e-06
1.4420836e-06
1.4401487e-06
1.438151e-06
1.4360882e-06
1.4339577e-06
1.4317573e-06
1.4294842e-06
1.4271358e-06
1.4247095e-06
1.4222026e-06
1.4196122e-06
1.4169353e-06
1.4141691e-06
1.4113104e-06
1.4083557e-06
1.4053018e-06
1.402145e-06
1.3988816e-06
1.395508e-06
1.3920203e-06
1.3884142e-06
1.3846858e-06
1.3808298e-06
1.3768401e-06
1.3727082e-06
1.368426e-06
1.3639766e-06
1.3593499e-06
1.3545278e-06
1.3495097e-06
1.3442409e-06
1.3387698e-06
1.3334517e-06
1.3284468e-06
1.3244879e-06
1.3217929e-06
1.3237259e-06
1.332884e-06
1.3616661e-06
1.4323895e-06
1.6069176e-06
1.9904723e-06
2.6773079e-06
3.8340708e-06
5.3984773e-06
7.3168894e-06
9.4522313e-06
1.1661012e-05
1.3855252e-05
1.6013166e-05
1.8144028e-05
2.0254327e-05
2.2342333e-05
2.4406182e-05
2.6446091e-05
2.8462017e-05
3.045345e-05
3.2420227e-05
3.4362324e-05
3.6279662e-05
3.8172247e-05
4.0040139e-05
4.1883406e-05
4.3702108e-05
4.5496364e-05
4.7266085e-05
4.9011005e-05
5.0733118e-05
5.2434013e-05
5.4112371e-05
5.576557e-05
5.7391879e-05
5.8991506e-05
6.0565998e-05
6.2117111e-05
6.3646048e-05
6.5153616e-05
6.6639376e-05
6.8106556e-05
6.9541422e-05
7.1005292e-05
7.2223864e-05
7.4414778e-05
1.4676818e-06
1.4668006e-06
1.4658757e-06
1.464917e-06
1.4639262e-06
1.4629026e-06
1.4618455e-06
1.4607535e-06
1.4596257e-06
1.4584607e-06
1.4572574e-06
1.4560145e-06
1.454731e-06
1.4534056e-06
1.4520373e-06
1.4506247e-06
1.4491666e-06
1.4476615e-06
1.446108e-06
1.4445042e-06
1.4428485e-06
1.4411387e-06
1.4393732e-06
1.4375497e-06
1.4356663e-06
1.4337208e-06
1.4317111e-06
1.429635e-06
1.4274901e-06
1.4252741e-06
1.4229844e-06
1.4206185e-06
1.4181735e-06
1.4156468e-06
1.4130352e-06
1.4103359e-06
1.4075458e-06
1.4046617e-06
1.4016805e-06
1.3985989e-06
1.3954133e-06
1.3921201e-06
1.3887151e-06
1.3851936e-06
1.3815508e-06
1.3777787e-06
1.3738701e-06
1.3698088e-06
1.3655846e-06
1.3611795e-06
1.3565965e-06
1.3517714e-06
1.3468436e-06
1.3420192e-06
1.3379593e-06
1.3337009e-06
1.3339935e-06
1.3382661e-06
1.3544857e-06
1.4017296e-06
1.517821e-06
1.816731e-06
2.4167763e-06
3.4741777e-06
5.040899e-06
7.0360259e-06
9.3182317e-06
1.1710023e-05
1.4096677e-05
1.6447059e-05
1.8771037e-05
2.1075894e-05
2.3359513e-05
2.5619875e-05
2.7856926e-05
3.0070161e-05
3.2258851e-05
3.4422668e-05
3.6561341e-05
3.8674605e-05
4.076227e-05
4.2824199e-05
4.4860193e-05
4.686938e-05
4.8853139e-05
5.0813527e-05
5.2750202e-05
5.4661273e-05
5.6544722e-05
5.8399879e-05
6.0227462e-05
6.2028827e-05
6.3805181e-05
6.5557528e-05
6.7285627e-05
6.8993124e-05
7.0665024e-05
7.2370406e-05
7.3796556e-05
7.6353332e-05
1.4682892e-06
1.467567e-06
1.4668104e-06
1.4660267e-06
1.4652168e-06
1.4643805e-06
1.4635168e-06
1.462625e-06
1.4617039e-06
1.4607528e-06
1.4597705e-06
1.4587562e-06
1.4577089e-06
1.4566276e-06
1.4555114e-06
1.4543593e-06
1.4531702e-06
1.4519429e-06
1.4506763e-06
1.4493688e-06
1.4480191e-06
1.4466257e-06
1.445187e-06
1.4437014e-06
1.4421673e-06
1.4405829e-06
1.4389465e-06
1.4372564e-06
1.4355107e-06
1.4337074e-06
1.4318446e-06
1.4299202e-06
1.427932e-06
1.4258777e-06
1.423755e-06
1.4215614e-06
1.4192945e-06
1.4169518e-06
1.4145306e-06
1.4120283e-06
1.409442e-06
1.4067688e-06
1.4040056e-06
1.4011491e-06
1.3981961e-06
1.395143e-06
1.3919859e-06
1.3887205e-06
1.3853423e-06
1.3818437e-06
1.3782179e-06
1.3744493e-06
1.370528e-06
1.3664414e-06
1.3621627e-06
1.3576065e-06
1.3531561e-06
1.3489551e-06
1.3455384e-06
1.3435405e-06
1.3457322e-06
1.3564629e-06
1.391313e-06
1.4834087e-06
1.7359842e-06
2.2932e-06
3.3262607e-06
4.9498339e-06
7.0687195e-06
9.5240551e-06
1.2107421e-05
1.4686673e-05
1.7229812e-05
1.9748882e-05
2.2250181e-05
2.4730808e-05
2.7189026e-05
2.96245e-05
3.2036244e-05
3.4423348e-05
3.6785191e-05
3.9121175e-05
4.143079e-05
4.3712534e-05
4.5967247e-05
4.8197078e-05
5.0402151e-05
5.2581192e-05
5.4732158e-05
5.6853775e-05
5.8945982e-05
6.1009586e-05
6.3045598e-05
6.5055069e-05
6.7037887e-05
6.8998069e-05
7.0919394e-05
7.2878767e-05
7.4524179e-05
7.746579e-05
1.468804e-06
1.4682049e-06
1.4675782e-06
1.4669295e-06
1.4662593e-06
1.4655673e-06
1.4648528e-06
1.4641151e-06
1.4633534e-06
1.462567e-06
1.461755e-06
1.4609166e-06
1.4600511e-06
1.4591577e-06
1.4582355e-06
1.4572837e-06
1.4563015e-06
1.4552878e-06
1.4542417e-06
1.453162e-06
1.4520476e-06
1.4508973e-06
1.4497097e-06
1.4484836e-06
1.4472177e-06
1.4459105e-06
1.4445606e-06
1.4431667e-06
1.4417272e-06
1.4402404e-06
1.4387049e-06
1.4371189e-06
1.4354806e-06
1.4337882e-06
1.4320398e-06
1.4302335e-06
1.4283672e-06
1.4264388e-06
1.4244464e-06
1.4223875e-06
1.42026e-06
1.4180615e-06
1.4157893e-06
1.4134409e-06
1.4110135e-06
1.4085043e-06
1.4059102e-06
1.4032283e-06
1.4004554e-06
1.3975881e-06
1.3946229e-06
1.3915561e-06
1.3883828e-06
1.3850973e-06
1.3816875e-06
1.378143e-06
1.3744423e-06
1.3705936e-06
1.3665225e-06
1.3623775e-06
1.3583732e-06
1.3550214e-06
1.3524085e-06
1.3538552e-06
1.362283e-06
1.3916707e-06
1.4745817e-06
1.7151927e-06
2.2807931e-06
3.3741984e-06
5.1303243e-06
7.4400848e-06
1.010654e-05
1.2893083e-05
1.5666045e-05
1.8403984e-05
2.1121603e-05
2.3822289e-05
2.6502588e-05
2.9161123e-05
3.1796914e-05
3.440857e-05
3.6995052e-05
3.9554081e-05
4.2085924e-05
4.4592536e-05
4.7074018e-05
4.9529432e-05
5.1956776e-05
5.4354364e-05
5.6721441e-05
5.905817e-05
6.1365189e-05
6.364342e-05
6.5892772e-05
6.8117548e-05
7.0300311e-05
7.2525806e-05
7.4401899e-05
7.7747977e-05
1.4692357e-06
1.4687334e-06
1.4682088e-06
1.467666e-06
1.4671054e-06
1.4665266e-06
1.4659292e-06
1.4653124e-06
1.4646757e-06
1.4640184e-06
1.4633398e-06
1.4626393e-06
1.4619162e-06
1.4611699e-06
1.4603996e-06
1.4596048e-06
1.4587845e-06
1.4579381e-06
1.4570646e-06
1.4561632e-06
1.4552329e-06
1.4542727e-06
1.4532816e-06
1.4522585e-06
1.4512022e-06
1.4501117e-06
1.4489858e-06
1.4478233e-06
1.446623e-06
1.4453835e-06
1.4441036e-06
1.4427817e-06
1.4414166e-06
1.4400066e-06
1.4385502e-06
1.4370458e-06
1.4354918e-06
1.4338865e-06
1.4322281e-06
1.4305147e-06
1.4287446e-06
1.4269158e-06
1.425026e-06
1.4230733e-06
1.4210553e-06
1.4189698e-06
1.4168141e-06
1.4145858e-06
1.4122823e-06
1.4099009e-06
1.4074388e-06
1.4048933e-06
1.4022615e-06
1.3995405e-06
1.3967263e-06
1.3938158e-06
1.3908022e-06
1.3876793e-06
1.3844331e-06
1.3810508e-06
1.3775311e-06
1.3738078e-06
1.3699466e-06
1.3661927e-06
1.3630169e-06
1.3603694e-06
1.3616176e-06
1.3695455e-06
1.3984334e-06
1.4839239e-06
1.747353e-06
2.3794686e-06
3.6390381e-06
5.6217846e-06
8.1990274e-06
1.1110814e-05
1.4106588e-05
1.7074555e-05
2.0011781e-05
2.2931948e-05
2.5834542e-05
2.8716795e-05
3.1577518e-05
3.4413392e-05
3.7223965e-05
4.0010773e-05
4.2773427e-05
4.5510935e-05
4.8221212e-05
5.0902214e-05
5.3552547e-05
5.6171675e-05
5.8759704e-05
6.1317239e-05
6.3844059e-05
6.6344627e-05
6.8800262e-05
7.1303526e-05
7.3421341e-05
7.7190889e-05
1.4695961e-06
1.4691711e-06
1.468728e-06
1.4682696e-06
1.4677963e-06
1.4673077e-06
1.4668034e-06
1.4662829e-06
1.4657457e-06
1.4651911e-06
1.4646187e-06
1.4640278e-06
1.4634181e-06
1.4627887e-06
1.4621393e-06
1.4614691e-06
1.4607776e-06
1.4600641e-06
1.4593278e-06
1.4585681e-06
1.4577841e-06
1.456975e-06
1.4561399e-06
1.4552779e-06
1.4543882e-06
1.4534697e-06
1.4525216e-06
1.4515427e-06
1.4505322e-06
1.4494888e-06
1.4484115e-06
1.4472992e-06
1.4461505e-06
1.4449643e-06
1.4437393e-06
1.4424742e-06
1.4411675e-06
1.4398179e-06
1.4384239e-06
1.436984e-06
1.4354967e-06
1.4339603e-06
1.432373e-06
1.4307331e-06
1.4290388e-06
1.427288e-06
1.4254789e-06
1.4236091e-06
1.4216767e-06
1.4196792e-06
1.4176146e-06
1.4154803e-06
1.4132741e-06
1.4109934e-06
1.4086355e-06
1.4061974e-06
1.4036763e-06
1.4010689e-06
1.3983718e-06
1.3955802e-06
1.3926891e-06
1.3896858e-06
1.3865582e-06
1.3833008e-06
1.3798552e-06
1.3762574e-06
1.3727632e-06
1.3697927e-06
1.3674708e-06
1.3689337e-06
1.3779828e-06
1.4119179e-06
1.5137362e-06
1.8459339e-06
2.6192512e-06
4.1994726e-06
6.5188147e-06
9.4206457e-06
1.2587867e-05
1.5785333e-05
1.8947652e-05
2.2088475e-05
2.5214478e-05
2.8320195e-05
3.1404881e-05
3.4469787e-05
3.7513599e-05
4.0534894e-05
4.3531207e-05
4.650003e-05
4.9439309e-05
5.2347751e-05
5.5224785e-05
5.8070501e-05
6.0884357e-05
6.3670797e-05
6.640982e-05
6.9201736e-05
7.1571762e-05
7.5781873e-05
1.4698992e-06
1.4695369e-06
1.4691595e-06
1.4687693e-06
1.4683664e-06
1.4679506e-06
1.4675214e-06
1.4670785e-06
1.4666215e-06
1.4661497e-06
1.4656629e-06
1.4651604e-06
1.4646419e-06
1.4641068e-06
1.4635546e-06
1.4629849e-06
1.4623971e-06
1.4617906e-06
1.4611648e-06
1.4605191e-06
1.4598529e-06
1.4591654e-06
1.4584559e-06
1.4577236e-06
1.4569678e-06
1.4561877e-06
1.4553825e-06
1.4545514e-06
1.4536934e-06
1.4528076e-06
1.4518932e-06
1.4509491e-06
1.4499744e-06
1.448968e-06
1.4479288e-06
1.4468557e-06
1.4457476e-06
1.4446032e-06
1.4434214e-06
1.4422008e-06
1.4409402e-06
1.4396383e-06
1.4382934e-06
1.4369043e-06
1.4354693e-06
1.4339867e-06
1.432455e-06
1.4308723e-06
1.4292369e-06
1.4275468e-06
1.4258002e-06
1.4239951e-06
1.4221295e-06
1.4202013e-06
1.4182081e-06
1.4161476e-06
1.4140172e-06
1.4118143e-06
1.4095365e-06
1.4071809e-06
1.4047448e-06
1.402225e-06
1.3996176e-06
1.3969178e-06
1.3941137e-06
1.3911935e-06
1.3881517e-06
1.3849295e-06
1.3815729e-06
1.378341e-06
1.3755828e-06
1.3739841e-06
1.3761705e-06
1.3885496e-06
1.4332928e-06
1.5771001e-06
2.0449293e-06
3.108463e-06
5.0922507e-06
7.8609158e-06
1.1130781e-05
1.4551497e-05
1.795085e-05
2.1315589e-05
2.4663897e-05
2.7998571e-05
3.1317289e-05
3.4618534e-05
3.7899105e-05
4.1155813e-05
4.4385862e-05
4.7587133e-05
5.0758241e-05
5.3898536e-05
5.7006922e-05
6.0087597e-05
6.3119103e-05
6.6209371e-05
6.884116e-05
7.3508215e-05
1.4701603e-06
1.4698492e-06
1.4695255e-06
1.4691908e-06
1.4688454e-06
1.4684889e-06
1.4681211e-06
1.4677415e-06
1.4673497e-06
1.4669455e-06
1.4665283e-06
1.4660979e-06
1.4656537e-06
1.4651953e-06
1.4647224e-06
1.4642345e-06
1.4637311e-06
1.4632117e-06
1.4626759e-06
1.4621231e-06
1.4615527e-06
1.4609642e-06
1.4603568e-06
1.4597301e-06
1.4590833e-06
1.4584158e-06
1.4577268e-06
1.4570158e-06
1.4562818e-06
1.4555242e-06
1.4547422e-06
1.4539349e-06
1.4531015e-06
1.4522412e-06
1.4513529e-06
1.4504358e-06
1.4494888e-06
1.448511e-06
1.4475014e-06
1.4464589e-06
1.4453823e-06
1.4442705e-06
1.4431223e-06
1.4419365e-06
1.4407116e-06
1.4394465e-06
1.4381396e-06
1.4367894e-06
1.4353946e-06
1.4339533e-06
1.4324642e-06
1.4309255e-06
1.4293355e-06
1.4276925e-06
1.4259945e-06
1.4242395e-06
1.4224253e-06
1.4205498e-06
1.4186108e-06
1.416606e-06
1.414533e-06
1.4123893e-06
1.4101726e-06
1.40788e-06
1.4055088e-06
1.4030551e-06
1.4005147e-06
1.3978761e-06
1.3951268e-06
1.392264e-06
1.3892235e-06
1.3860615e-06
1.3832738e-06
1.3799867e-06
1.3801728e-06
1.3840671e-06
1.4037543e-06
1.4701819e-06
1.7185759e-06
2.4188111e-06
3.9862703e-06
6.5163126e-06
9.7928635e-06
1.339913e-05
1.7035891e-05
2.0635555e-05
2.4218197e-05
2.779024e-05
3.1347367e-05
3.4886297e-05
3.8403671e-05
4.1896573e-05
4.5362697e-05
4.8800412e-05
5.2207798e-05
5.5588519e-05
5.8919459e-05
6.2315985e-05
6.5217629e-05
7.0356297e-05
1.4703917e-06
1.4701228e-06
1.4698434e-06
1.4695545e-06
1.4692564e-06
1.4689488e-06
1.4686314e-06
1.4683039e-06
1.467966e-06
1.4676173e-06
1.4672576e-06
1.4668863e-06
1.4665033e-06
1.4661081e-06
1.4657004e-06
1.4652797e-06
1.4648458e-06
1.4643981e-06
1.4639362e-06
1.4634598e-06
1.4629682e-06
1.462461e-06
1.4619377e-06
1.4613977e-06
1.4608404e-06
1.4602654e-06
1.459672e-06
1.4590596e-06
1.4584275e-06
1.4577752e-06
1.4571019e-06
1.4564069e-06
1.4556895e-06
1.454949e-06
1.4541846e-06
1.4533954e-06
1.4525807e-06
1.4517396e-06
1.4508712e-06
1.4499746e-06
1.4490488e-06
1.4480929e-06
1.4471059e-06
1.4460866e-06
1.4450339e-06
1.4439468e-06
1.442824e-06
1.4416642e-06
1.4404662e-06
1.4392287e-06
1.4379502e-06
1.4366293e-06
1.4352647e-06
1.4338549e-06
1.4323981e-06
1.4308926e-06
1.4293368e-06
1.4277288e-06
1.4260666e-06
1.4243483e-06
1.422572e-06
1.4207356e-06
1.4188368e-06
1.4168733e-06
1.414843e-06
1.4127433e-06
1.4105718e-06
1.4083257e-06
1.4060016e-06
1.4035946e-06
1.401096e-06
1.39848e-06
1.3957919e-06
1.3928215e-06
1.3898991e-06
1.3873211e-06
1.384997e-06
1.3860494e-06
1.3943019e-06
1.4289301e-06
1.5509532e-06
2.0064487e-06
3.1490548e-06
5.4033725e-06
8.602e-06
1.235295e-05
1.6235243e-05
2.0085283e-05
2.3908645e-05
2.7719035e-05
3.1514324e-05
3.5291822e-05
3.9048533e-05
4.2781683e-05
4.6488315e-05
5.0171257e-05
5.3805474e-05
5.7513543e-05
6.069095e-05
6.6313289e-05
1.4706016e-06
1.4703679e-06
1.4701252e-06
1.4698745e-06
1.4696157e-06
1.4693488e-06
1.4690733e-06
1.4687891e-06
1.4684959e-06
1.4681934e-06
1.4678813e-06
1.4675592e-06
1.467227e-06
1.4668842e-06
1.4665306e-06
1.4661658e-06
1.4657895e-06
1.4654013e-06
1.4650009e-06
1.4645878e-06
1.4641616e-06
1.4637219e-06
1.4632683e-06
1.4628003e-06
1.4623174e-06
1.461819e-06
1.4613048e-06
1.4607742e-06
1.4602266e-06
1.4596616e-06
1.4590784e-06
1.4584765e-06
1.4578552e-06
1.457214e-06
1.4565522e-06
1.455869e-06
1.4551638e-06
1.4544358e-06
1.4536843e-06
1.4529085e-06
1.4521075e-06
1.4512806e-06
1.4504269e-06
1.4495454e-06
1.4486351e-06
1.4476952e-06
1.4467245e-06
1.4457221e-06
1.4446868e-06
1.4436174e-06
1.4425129e-06
1.4413719e-06
1.4401934e-06
1.4389759e-06
1.4377182e-06
1.4364187e-06
1.435076e-06
1.4336884e-06
1.4322544e-06
1.4307724e-06
1.4292406e-06
1.4276572e-06
1.4260205e-06
1.4243284e-06
1.4225789e-06
1.42077e-06
1.4188995e-06
1.4169651e-06
1.4149648e-06
1.4128958e-06
1.4107561e-06
1.4085411e-06
1.4062471e-06
1.4038639e-06
1.4013691e-06
1.398765e-06
1.3959751e-06
1.3932944e-06
1.3909563e-06
1.3901438e-06
1.3932436e-06
1.411535e-06
1.4795788e-06
1.7590995e-06
2.5837569e-06
4.5643588e-06
7.6311086e-06
1.1476375e-05
1.5584383e-05
1.9682059e-05
2.3746853e-05
2.779836e-05
3.1836043e-05
3.5857007e-05
3.9857787e-05
4.3840278e-05
4.7777339e-05
5.1798528e-05
5.5254513e-05
6.1368749e-05
1.4707951e-06
1.470591e-06
1.4703792e-06
1.4701604e-06
1.4699346e-06
1.4697017e-06
1.4694614e-06
1.4692135e-06
1.4689577e-06
1.4686939e-06
1.4684216e-06
1.4681408e-06
1.4678511e-06
1.4675522e-06
1.4672439e-06
1.4669259e-06
1.4665978e-06
1.4662595e-06
1.4659104e-06
1.4655503e-06
1.4651789e-06
1.4647957e-06
1.4644005e-06
1.4639926e-06
1.4635719e-06
1.4631377e-06
1.4626898e-06
1.4622276e-06
1.4617506e-06
1.4612585e-06
1.4607506e-06
1.4602265e-06
1.4596856e-06
1.4591274e-06
1.4585513e-06
1.4579567e-06
1.4573429e-06
1.4567094e-06
1.4560555e-06
1.4553806e-06
1.4546838e-06
1.4539645e-06
1.453222e-06
1.4524554e-06
1.451664e-06
1.4508468e-06
1.450003e-06
1.4491318e-06
1.448232e-06
1.4473028e-06
1.4463432e-06
1.4453522e-06
1.4443286e-06
1.4432713e-06
1.4421793e-06
1.4410512e-06
1.4398857e-06
1.4386816e-06
1.4374374e-06
1.4361517e-06
1.4348232e-06
1.4334501e-06
1.4320311e-06
1.4305643e-06
1.4290482e-06
1.4274809e-06
1.4258605e-06
1.4241852e-06
1.4224529e-06
1.4206616e-06
1.418809e-06
1.4168933e-06
1.4149116e-06
1.4128624e-06
1.410741e-06
1.4085414e-06
1.406249e-06
1.4038656e-06
1.4013018e-06
1.398707e-06
1.3963672e-06
1.3943159e-06
1.395536e-06
1.4050584e-06
1.4461814e-06
1.609337e-06
2.2395222e-06
3.865529e-06
6.7997942e-06
1.0733911e-05
1.5075205e-05
1.9434589e-05
2.3750681e-05
2.8049737e-05
3.2335086e-05
3.6609097e-05
4.0843311e-05
4.5174329e-05
4.8907568e-05
5.5516535e-05
1.4709758e-06
1.4707967e-06
1.4706109e-06
1.4704191e-06
1.4702212e-06
1.470017e-06
1.4698064e-06
1.4695891e-06
1.4693649e-06
1.4691337e-06