/*--------------------------------*- C++ -*----------------------------------*\
  =========                 |
  \\      /  F ield         | OpenFOAM: The Open Source CFD Toolbox
   \\    /   O peration     | Website:  https://openfoam.org
    \\  /    A nd           | Version:  12
     \\/     M anipulation  |
\*---------------------------------------------------------------------------*/
FoamFile
{
    format      ascii;
    class       volScalarField;
    location    "100";
    object      nuTilda;
}
// * * * * * * * * * * * * * * * * * * * * * * * * * * * * * * * * * * * * * //

dimensions      [0 2 -1 0 0 0 0];

internalField   nonuniform List<scalar> 
7480
(
1.7191114e-06
1.439741e-06
1.3093146e-06
1.2785934e-06
1.300797e-06
1.3634043e-06
1.4693374e-06
1.6275865e-06
1.8542161e-06
2.1740279e-06
2.6196266e-06
3.2271876e-06
4.0177364e-06
4.9549515e-06
5.9137809e-06
6.7303669e-06
7.3012682e-06
7.6175539e-06
7.7508735e-06
7.7196638e-06
7.6322644e-06
7.5049292e-06
7.3596396e-06
7.2198068e-06
7.1135387e-06
7.0466626e-06
7.0109734e-06
6.995685e-06
6.9932316e-06
6.9993911e-06
7.0104349e-06
7.0228244e-06
7.0346854e-06
7.0133567e-06
6.9772274e-06
6.9414136e-06
6.9102699e-06
6.8846036e-06
6.8633647e-06
6.8447584e-06
6.8272443e-06
6.8100063e-06
6.7927643e-06
6.7756385e-06
6.7601945e-06
6.7502794e-06
6.765356e-06
6.8589594e-06
7.139543e-06
7.7117088e-06
8.4335892e-06
8.9083601e-06
9.2606465e-06
9.503504e-06
9.6594288e-06
9.7549541e-06
9.8151239e-06
9.8572268e-06
9.8890836e-06
9.9150743e-06
9.9372217e-06
9.9565024e-06
9.9736594e-06
9.9893673e-06
1.0004047e-05
1.0018054e-05
1.0031779e-05
1.0045454e-05
1.005919e-05
1.0073091e-05
1.0087288e-05
1.0101919e-05
1.0117115e-05
1.0132996e-05
1.014968e-05
1.016728e-05
1.0185904e-05
1.0205657e-05
1.0226632e-05
1.0248883e-05
1.0272338e-05
1.0296418e-05
1.0309699e-05
1.0033228e-05
4.3421969e-06
4.0261205e-06
4.0476641e-06
4.0636623e-06
4.0722211e-06
4.0788071e-06
4.0832601e-06
4.0860654e-06
4.0877166e-06
4.0885512e-06
4.0887714e-06
4.0885013e-06
4.0877728e-06
4.0866759e-06
4.0851786e-06
4.0809178e-06
1.9530726e-06
1.9021755e-06
1.8466456e-06
1.7914951e-06
1.7383453e-06
1.6884652e-06
1.6413965e-06
1.604441e-06
1.5683278e-06
1.5799637e-06
1.6171231e-06
1.6868753e-06
1.7999154e-06
1.973382e-06
2.2267629e-06
2.5740069e-06
3.0364569e-06
3.5970083e-06
4.2426912e-06
4.9687632e-06
5.7665039e-06
6.5367469e-06
7.2493006e-06
7.9060921e-06
8.5033646e-06
9.0408087e-06
9.5219031e-06
9.9530063e-06
1.0345755e-05
1.071193e-05
1.1054719e-05
1.1374035e-05
1.166622e-05
1.1925566e-05
1.2155091e-05
1.2364041e-05
1.2562303e-05
1.2764024e-05
1.2974223e-05
1.3191781e-05
1.341356e-05
1.3637039e-05
1.3860164e-05
1.4080449e-05
1.4298537e-05
1.4496264e-05
1.4680834e-05
1.487549e-05
1.5123307e-05
1.546984e-05
1.5891494e-05
1.627895e-05
1.6615546e-05
1.689544e-05
1.7128986e-05
1.7327541e-05
1.7501092e-05
1.7658634e-05
1.7806393e-05
1.7948696e-05
1.8086086e-05
1.8218306e-05
1.834567e-05
1.8469044e-05
1.858868e-05
1.8705154e-05
1.8819493e-05
1.8932127e-05
1.9043091e-05
1.9152476e-05
1.92605e-05
1.9367431e-05
1.9473532e-05
1.957905e-05
1.9684217e-05
1.9789259e-05
1.9894389e-05
1.999981e-05
2.0105703e-05
2.0212158e-05
2.031894e-05
2.0424225e-05
2.0508568e-05
2.0332553e-05
1.7324351e-05
1.6044074e-05
1.5071659e-05
1.4463151e-05
1.404897e-05
1.375603e-05
1.3537523e-05
1.3368692e-05
1.3235067e-05
1.312771e-05
1.3040765e-05
1.2970166e-05
1.2912571e-05
1.2865722e-05
1.2826893e-05
1.2794183e-05
1.9777924e-06
1.9599514e-06
1.9401609e-06
1.9194197e-06
1.8980123e-06
1.8755242e-06
1.8517621e-06
1.8266702e-06
1.8002262e-06
1.77421e-06
1.7495e-06
1.7271296e-06
1.7084719e-06
1.6949132e-06
1.6821339e-06
1.6837583e-06
1.6961832e-06
1.7406106e-06
1.8253649e-06
1.9603943e-06
2.1607022e-06
2.4453157e-06
2.8268844e-06
3.3337709e-06
3.9471373e-06
4.6611437e-06
5.4859213e-06
6.3694207e-06
7.2706319e-06
8.1590468e-06
9.0100082e-06
9.8037086e-06
1.0514356e-05
1.1157206e-05
1.176163e-05
1.2346268e-05
1.2913729e-05
1.3463005e-05
1.398899e-05
1.4494898e-05
1.4984674e-05
1.5462024e-05
1.5927501e-05
1.6379417e-05
1.6818117e-05
1.7240595e-05
1.7644749e-05
1.8032538e-05
1.842293e-05
1.8830918e-05
1.9256436e-05
1.968201e-05
2.0089919e-05
2.047501e-05
2.0839858e-05
2.1185482e-05
2.1512484e-05
2.1825502e-05
2.2130172e-05
2.2430025e-05
2.2722186e-05
2.3005578e-05
2.328046e-05
2.3547883e-05
2.3807391e-05
2.406003e-05
2.4307384e-05
2.4549624e-05
2.4786503e-05
2.501803e-05
2.5244419e-05
2.5465935e-05
2.5682836e-05
2.5895358e-05
2.6103726e-05
2.6308158e-05
2.6508863e-05
2.6706048e-05
2.6899911e-05
2.7090583e-05
2.7278009e-05
2.7460889e-05
2.7627438e-05
2.7662205e-05
2.6632101e-05
2.6112609e-05
2.5715844e-05
2.5477741e-05
2.5334312e-05
2.5253274e-05
2.5209448e-05
2.5187871e-05
2.517974e-05
2.517992e-05
2.5185151e-05
2.5193845e-05
2.5202994e-05
2.5216252e-05
2.521762e-05
2.5251811e-05
1.9850623e-06
1.9761001e-06
1.9663225e-06
1.9560938e-06
1.9454951e-06
1.9345289e-06
1.9231953e-06
1.9113866e-06
1.899071e-06
1.8860959e-06
1.8723991e-06
1.8579095e-06
1.8426236e-06
1.826775e-06
1.8109792e-06
1.7955955e-06
1.7807952e-06
1.7672118e-06
1.7562168e-06
1.7484254e-06
1.7441618e-06
1.7475265e-06
1.7596152e-06
1.7911433e-06
1.8591119e-06
1.9745507e-06
2.1548219e-06
2.4210131e-06
2.7951984e-06
3.3135963e-06
3.9835084e-06
4.7894155e-06
5.7278698e-06
6.7419112e-06
7.7806921e-06
8.8073613e-06
9.7979328e-06
1.0740604e-05
1.1634856e-05
1.248663e-05
1.3304417e-05
1.4097048e-05
1.4860161e-05
1.559355e-05
1.6314187e-05
1.7023961e-05
1.7711383e-05
1.8373704e-05
1.9016812e-05
1.9646134e-05
2.0264841e-05
2.0871402e-05
2.1464393e-05
2.2041769e-05
2.2601533e-05
2.3142328e-05
2.3663768e-05
2.4175195e-05
2.4680569e-05
2.5180715e-05
2.5665992e-05
2.6137995e-05
2.6597851e-05
2.7046882e-05
2.7483099e-05
2.7909576e-05
2.832803e-05
2.8737635e-05
2.9138001e-05
2.9529262e-05
2.9911676e-05
3.0285494e-05
3.0650941e-05
3.1008214e-05
3.1357491e-05
3.1698937e-05
3.2032707e-05
3.2358946e-05
3.2677793e-05
3.2989347e-05
3.3293674e-05
3.3590354e-05
3.3874471e-05
3.4109519e-05
3.4014683e-05
3.4023861e-05
3.404927e-05
3.411935e-05
3.4222904e-05
3.4351697e-05
3.4495498e-05
3.4646533e-05
3.4799699e-05
3.4952038e-05
3.5101557e-05
3.524808e-05
3.5387698e-05
3.5531046e-05
3.5637294e-05
3.5849696e-05
1.9885902e-06
1.9832604e-06
1.9775078e-06
1.9715032e-06
1.9652815e-06
1.9588451e-06
1.9521906e-06
1.9453101e-06
1.9381966e-06
1.9308329e-06
1.9231963e-06
1.9152578e-06
1.9069852e-06
1.8983397e-06
1.8893346e-06
1.8799452e-06
1.8701855e-06
1.859958e-06
1.84923e-06
1.8382247e-06
1.8273014e-06
1.8166625e-06
1.8064976e-06
1.7973025e-06
1.7905857e-06
1.7842924e-06
1.785186e-06
1.7906521e-06
1.8074685e-06
1.840001e-06
1.9125744e-06
2.0421238e-06
2.252513e-06
2.5731583e-06
3.0343855e-06
3.6889697e-06
4.51156e-06
5.4904576e-06
6.5970325e-06
7.7694679e-06
8.9586007e-06
1.0128469e-05
1.1258248e-05
1.23415e-05
1.3383752e-05
1.4396053e-05
1.538432e-05
1.6347326e-05
1.7283505e-05
1.8193583e-05
1.908054e-05
1.9941885e-05
2.0788578e-05
2.161458e-05
2.2420013e-05
2.3205133e-05
2.396963e-05
2.471681e-05
2.544978e-05
2.6171036e-05
2.6877684e-05
2.7569023e-05
2.8245126e-05
2.8907145e-05
2.9549514e-05
3.0182721e-05
3.0805426e-05
3.1414649e-05
3.2010918e-05
3.2594759e-05
3.3166524e-05
3.3726486e-05
3.4274884e-05
3.4811931e-05
3.5337818e-05
3.5852715e-05
3.6356777e-05
3.6850147e-05
3.7332958e-05
3.7805314e-05
3.826734e-05
3.8719042e-05
3.9158439e-05
3.9578153e-05
3.9903333e-05
4.0235796e-05
4.05514e-05
4.0864921e-05
4.1181155e-05
4.1502096e-05
4.1825385e-05
4.2147538e-05
4.2465597e-05
4.2777724e-05
4.3082451e-05
4.3380415e-05
4.366642e-05
4.3957969e-05
4.4186151e-05
4.4612071e-05
1.990743e-06
1.9872598e-06
1.9835236e-06
1.9796283e-06
1.9755925e-06
1.9714166e-06
1.9670966e-06
1.9626276e-06
1.9580052e-06
1.9532244e-06
1.9482807e-06
1.9431695e-06
1.9378863e-06
1.9324254e-06
1.9267799e-06
1.9209401e-06
1.914896e-06
1.9086331e-06
1.9021273e-06
1.895355e-06
1.8883112e-06
1.8809679e-06
1.8733674e-06
1.8652528e-06
1.8568548e-06
1.8483388e-06
1.8399832e-06
1.8319585e-06
1.8244319e-06
1.8185397e-06
1.8122983e-06
1.8124738e-06
1.816069e-06
1.8283999e-06
1.856065e-06
1.912666e-06
2.026738e-06
2.2245688e-06
2.5427052e-06
3.0192601e-06
3.7262132e-06
4.6378183e-06
5.7389864e-06
6.9896858e-06
8.3181786e-06
9.6663839e-06
1.0994404e-05
1.2283592e-05
1.3532248e-05
1.4746452e-05
1.5932121e-05
1.7090325e-05
1.8221257e-05
1.9326067e-05
2.0405926e-05
2.1462108e-05
2.2494635e-05
2.3504079e-05
2.4492493e-05
2.5462637e-05
2.6414942e-05
2.7349131e-05
2.8265036e-05
2.9163481e-05
3.0041924e-05
3.0904311e-05
3.1751708e-05
3.2583424e-05
3.3399367e-05
3.4199834e-05
3.4985171e-05
3.5755694e-05
3.6511681e-05
3.7253389e-05
3.7981048e-05
3.8694865e-05
3.9395027e-05
4.0081705e-05
4.0755057e-05
4.1415214e-05
4.2062331e-05
4.2696603e-05
4.3317109e-05
4.3925086e-05
4.4505445e-05
4.5074256e-05
4.5619468e-05
4.6146176e-05
4.6661209e-05
4.7169704e-05
4.767297e-05
4.8169995e-05
4.8659119e-05
4.9139122e-05
4.9608728e-05
5.0069096e-05
5.0513579e-05
5.0966578e-05
5.1328899e-05
5.199372e-05
1.9922334e-06
1.9898043e-06
1.987213e-06
1.984515e-06
1.9817211e-06
1.978831e-06
1.9758417e-06
1.9727499e-06
1.9695518e-06
1.9662437e-06
1.9628223e-06
1.959284e-06
1.9556263e-06
1.9518468e-06
1.9479433e-06
1.9439131e-06
1.939753e-06
1.9354591e-06
1.9310257e-06
1.9264456e-06
1.921711e-06
1.9168104e-06
1.9117354e-06
1.9064677e-06
1.9009853e-06
1.8952841e-06
1.8893442e-06
1.8831659e-06
1.8767247e-06
1.8700191e-06
1.8630346e-06
1.8561412e-06
1.8495037e-06
1.8432524e-06
1.8384209e-06
1.8335255e-06
1.8339984e-06
1.8380719e-06
1.8513894e-06
1.881749e-06
1.942823e-06
2.0716218e-06
2.3034657e-06
2.6850766e-06
3.2774933e-06
4.1419838e-06
5.2471934e-06
6.5679796e-06
8.0221496e-06
9.5324225e-06
1.1039546e-05
1.2511679e-05
1.3942722e-05
1.5339541e-05
1.6708763e-05
1.805203e-05
1.9368188e-05
2.0656933e-05
2.1919868e-05
2.3159273e-05
2.4376353e-05
2.5571613e-05
2.6745399e-05
2.7898453e-05
2.902997e-05
3.0140866e-05
3.1232515e-05
3.2305409e-05
3.3359663e-05
3.4395511e-05
3.5413282e-05
3.6413311e-05
3.7395922e-05
3.8361419e-05
3.9310079e-05
4.0242154e-05
4.1157875e-05
4.2057453e-05
4.2941081e-05
4.3808929e-05
4.4661177e-05
4.5498095e-05
4.631915e-05
4.7127084e-05
4.7922427e-05
4.8703479e-05
4.9461257e-05
5.0195518e-05
5.0911147e-05
5.1613388e-05
5.2305066e-05
5.2986657e-05
5.3657425e-05
5.431661e-05
5.4963036e-05
5.5598274e-05
5.6214185e-05
5.6842218e-05
5.7351002e-05
5.8278178e-05
1.9933415e-06
1.9915675e-06
1.9896835e-06
1.9877244e-06
1.9856967e-06
1.9835999e-06
1.981432e-06
1.9791906e-06
1.9768729e-06
1.9744763e-06
1.9719983e-06
1.9694364e-06
1.9667881e-06
1.9640514e-06
1.9612244e-06
1.958305e-06
1.9552909e-06
1.9521794e-06
1.9489669e-06
1.9456498e-06
1.9422243e-06
1.9386861e-06
1.9350302e-06
1.9312528e-06
1.9273482e-06
1.9233105e-06
1.9191318e-06
1.9148035e-06
1.9103166e-06
1.9056551e-06
1.9008124e-06
1.8957665e-06
1.8905154e-06
1.8850446e-06
1.8793383e-06
1.8734019e-06
1.8675685e-06
1.8619719e-06
1.8569297e-06
1.8531925e-06
1.8504371e-06
1.8520394e-06
1.8589866e-06
1.8789611e-06
1.9217101e-06
2.0159303e-06
2.2047615e-06
2.543803e-06
3.0971766e-06
3.9707961e-06
5.1342167e-06
6.5561213e-06
8.1511107e-06
9.8218454e-06
1.1495455e-05
1.3135902e-05
1.4738147e-05
1.6309524e-05
1.785505e-05
1.9374891e-05
2.0868421e-05
2.2336632e-05
2.3780837e-05
2.5201689e-05
2.6598861e-05
2.7972544e-05
2.9323637e-05
3.0652831e-05
3.1960508e-05
3.3247011e-05
3.4512675e-05
3.5757826e-05
3.6982807e-05
3.8187951e-05
3.9373563e-05
4.0539933e-05
4.1687327e-05
4.2815991e-05
4.3926152e-05
4.501802e-05
4.609179e-05
4.7147765e-05
4.81856e-05
4.920748e-05
5.0217033e-05
5.1211405e-05
5.2183761e-05
5.3131412e-05
5.4056749e-05
5.4963952e-05
5.5856227e-05
5.6734944e-05
5.7600105e-05
5.8451381e-05
5.9287719e-05
6.0111083e-05
6.0911855e-05
6.1728716e-05
6.2396487e-05
6.3608351e-05
1.9942122e-06
1.992871e-06
1.9914519e-06
1.9899778e-06
1.9884528e-06
1.9868764e-06
1.985247e-06
1.9835629e-06
1.9818222e-06
1.9800229e-06
1.978163e-06
1.9762408e-06
1.9742544e-06
1.9722021e-06
1.9700824e-06
1.9678936e-06
1.9656337e-06
1.9633007e-06
1.9608919e-06
1.9584044e-06
1.9558355e-06
1.953182e-06
1.9504406e-06
1.9476083e-06
1.9446818e-06
1.9416579e-06
1.9385331e-06
1.9353037e-06
1.931966e-06
1.9285155e-06
1.9249478e-06
1.9212563e-06
1.917433e-06
1.91347e-06
1.9093523e-06
1.9050739e-06
1.9006121e-06
1.8959867e-06
1.8910819e-06
1.886003e-06
1.8808633e-06
1.8758914e-06
1.8711865e-06
1.8675101e-06
1.8642334e-06
1.865099e-06
1.8700768e-06
1.8859346e-06
1.923629e-06
2.006103e-06
2.1887103e-06
2.5361837e-06
3.1278635e-06
4.0901748e-06
5.3893256e-06
6.9821813e-06
8.7566062e-06
1.0600952e-05
1.2438595e-05
1.4240152e-05
1.6007775e-05
1.7750153e-05
1.9469581e-05
2.1164366e-05
2.2833771e-05
2.4478388e-05
2.6098672e-05
2.7694782e-05
2.926709e-05
3.0816035e-05
3.2341876e-05
3.3844848e-05
3.532526e-05
3.6783409e-05
3.8219572e-05
3.9634034e-05
4.1027063e-05
4.2398911e-05
4.374982e-05
4.5080017e-05
4.6389704e-05
4.7679177e-05
4.8948228e-05
5.0198113e-05
5.1432332e-05
5.2649843e-05
5.3845942e-05
5.5017198e-05
5.6163974e-05
5.7289032e-05
5.8395323e-05
5.9484677e-05
6.0557679e-05
6.1614425e-05
6.2654039e-05
6.3678889e-05
6.4677925e-05
6.5697235e-05
6.6536428e-05
6.8054317e-05
1.9949302e-06
1.9938885e-06
1.9927897e-06
1.9916494e-06
1.99047e-06
1.9892513e-06
1.9879921e-06
1.9866909e-06
1.9853464e-06
1.983957e-06
1.9825213e-06
1.981038e-06
1.9795055e-06
1.9779225e-06
1.9762879e-06
1.9746001e-06
1.9728578e-06
1.9710592e-06
1.9692024e-06
1.9672853e-06
1.9653055e-06
1.9632609e-06
1.9611488e-06
1.958967e-06
1.9567128e-06
1.9543836e-06
1.951977e-06
1.9494902e-06
1.9469204e-06
1.944265e-06
1.9415208e-06
1.9386848e-06
1.9357534e-06
1.9327232e-06
1.9295898e-06
1.9263494e-06
1.9229953e-06
1.9195221e-06
1.915918e-06
1.9121694e-06
1.908271e-06
1.9042127e-06
1.8999903e-06
1.8955715e-06
1.8909908e-06
1.8865342e-06
1.8822933e-06
1.8789133e-06
1.8759708e-06
1.8768103e-06
1.881858e-06
1.8981327e-06
1.9386126e-06
2.0316036e-06
2.2447435e-06
2.6586496e-06
3.3880494e-06
4.5455155e-06
6.0836955e-06
7.918712e-06
9.9066367e-06
1.1930136e-05
1.3928321e-05
1.5891217e-05
1.7827975e-05
1.9743038e-05
2.1634523e-05
2.3501073e-05
2.5343281e-05
2.7161474e-05
2.8955393e-05
3.072504e-05
3.2470602e-05
3.4192171e-05
3.5889875e-05
3.7563906e-05
3.921445e-05
4.0841692e-05
4.2445836e-05
4.4027077e-05
4.5585586e-05
4.7121606e-05
4.8635026e-05
5.0126263e-05
5.1598057e-05
5.3050998e-05
5.4482287e-05
5.5888678e-05
5.7269182e-05
5.8625174e-05
5.9958989e-05
6.1272564e-05
6.2566894e-05
6.3842466e-05
6.5098618e-05
6.6338144e-05
6.7548623e-05
6.8783695e-05
6.9806548e-05
7.1650984e-05
1.9955451e-06
1.9947183e-06
1.9938485e-06
1.9929465e-06
1.9920139e-06
1.9910505e-06
1.9900552e-06
1.9890271e-06
1.987965e-06
1.9868677e-06
1.9857342e-06
1.9845633e-06
1.983354e-06
1.9821051e-06
1.9808155e-06
1.9794843e-06
1.9781102e-06
1.9766919e-06
1.9752278e-06
1.9737164e-06
1.9721559e-06
1.9705444e-06
1.9688802e-06
1.9671613e-06
1.9653858e-06
1.9635517e-06
1.9616568e-06
1.9596991e-06
1.9576765e-06
1.9555867e-06
1.9534273e-06
1.9511958e-06
1.9488898e-06
1.9465065e-06
1.9440433e-06
1.9414973e-06
1.9388656e-06
1.9361452e-06
1.9333331e-06
1.9304253e-06
1.9274174e-06
1.9243028e-06
1.9210757e-06
1.9177233e-06
1.914238e-06
1.9106063e-06
1.9068279e-06
1.9028613e-06
1.8987429e-06
1.8947404e-06
1.8909769e-06
1.8879996e-06
1.8859762e-06
1.8874353e-06
1.8943681e-06
1.9160223e-06
1.9694353e-06
2.1023126e-06
2.4020191e-06
2.97015e-06
4.0051008e-06
5.4918694e-06
7.3692705e-06
9.4839726e-06
1.1681963e-05
1.3870124e-05
1.6024311e-05
1.8152714e-05
2.02613e-05
2.2348065e-05
2.4410986e-05
2.6450184e-05
2.846555e-05
3.0456536e-05
3.242295e-05
3.4364749e-05
3.6281837e-05
3.8174211e-05
4.0041925e-05
4.1885038e-05
4.3703607e-05
4.5497747e-05
4.7267367e-05
4.9012197e-05
5.073423e-05
5.2435054e-05
5.4113348e-05
5.5766491e-05
5.7392748e-05
5.8992329e-05
6.0566779e-05
6.2117853e-05
6.3646755e-05
6.515429e-05
6.6640021e-05
6.8107174e-05
6.9542014e-05
7.100586e-05
7.2224413e-05
7.4415295e-05
1.9960797e-06
1.9954118e-06
1.9947108e-06
1.9939842e-06
1.9932332e-06
1.9924576e-06
1.9916565e-06
1.9908291e-06
1.9899746e-06
1.989092e-06
1.9881805e-06
1.9872391e-06
1.986267e-06
1.9852632e-06
1.984227e-06
1.9831574e-06
1.9820534e-06
1.9809141e-06
1.9797381e-06
1.9785242e-06
1.9772711e-06
1.9759773e-06
1.9746414e-06
1.9732618e-06
1.9718371e-06
1.9703656e-06
1.9688457e-06
1.9672757e-06
1.965654e-06
1.9639787e-06
1.962248e-06
1.9604599e-06
1.9586124e-06
1.9567033e-06
1.9547305e-06
1.9526916e-06
1.9505845e-06
1.9484069e-06
1.9461562e-06
1.9438302e-06
1.9414261e-06
1.9389412e-06
1.9363725e-06
1.9337164e-06
1.9309693e-06
1.9281252e-06
1.9251788e-06
1.9221177e-06
1.918934e-06
1.9156144e-06
1.9121612e-06
1.9085258e-06
1.9048146e-06
1.9011836e-06
1.898131e-06
1.8949288e-06
1.8951614e-06
1.898368e-06
1.9106073e-06
1.9462408e-06
2.0342305e-06
2.2647541e-06
2.7498099e-06
3.6747801e-06
5.1468345e-06
7.0925226e-06
9.3508773e-06
1.17308e-05
1.4111046e-05
1.6457626e-05
1.8779154e-05
2.1082335e-05
2.3364758e-05
2.5624235e-05
2.7860614e-05
3.0073327e-05
3.2261602e-05
3.4425084e-05
3.6563482e-05
3.8676519e-05
4.0763993e-05
4.282576e-05
4.4861615e-05
4.6870683e-05
4.8854339e-05
5.0814636e-05
5.275123e-05
5.4662231e-05
5.6545618e-05
5.8400718e-05
6.0228251e-05
6.2029571e-05
6.3805884e-05
6.5558194e-05
6.728626e-05
6.8993726e-05
7.0665597e-05
7.2370953e-05
7.3797081e-05
7.6353823e-05
1.9965405e-06
1.9959931e-06
1.9954196e-06
1.9948255e-06
1.9942117e-06
1.9935779e-06
1.9929234e-06
1.9922475e-06
1.9915496e-06
1.9908289e-06
1.9900847e-06
1.9893163e-06
1.9885229e-06
1.9877039e-06
1.9868584e-06
1.9859858e-06
1.9850853e-06
1.9841559e-06
1.9831968e-06
1.9822069e-06
1.9811851e-06
1.9801303e-06
1.9790413e-06
1.977917e-06
1.976756e-06
1.9755571e-06
1.974319e-06
1.9730403e-06
1.9717197e-06
1.9703558e-06
1.968947e-06
1.9674918e-06
1.9659885e-06
1.9644354e-06
1.9628308e-06
1.9611729e-06
1.9594598e-06
1.9576896e-06
1.9558604e-06
1.9539702e-06
1.9520169e-06
1.9499982e-06
1.9479118e-06
1.9457554e-06
1.9435265e-06
1.9412224e-06
1.9388402e-06
1.9363766e-06
1.9338282e-06
1.9311891e-06
1.9284545e-06
1.9256125e-06
1.9226561e-06
1.9195758e-06
1.9163521e-06
1.9129191e-06
1.9095684e-06
1.9064061e-06
1.9038375e-06
1.9023363e-06
1.9039969e-06
1.9120751e-06
1.9383645e-06
2.0080619e-06
2.2018117e-06
2.6473088e-06
3.5409214e-06
5.0593415e-06
7.1247119e-06
9.5553254e-06
1.2126867e-05
1.4699916e-05
1.7239443e-05
1.9756217e-05
2.2255961e-05
2.4735488e-05
2.7192898e-05
2.9627762e-05
3.2039033e-05
3.4425764e-05
3.6787307e-05
3.9123046e-05
4.1432458e-05
4.3714032e-05
4.5968602e-05
4.8198311e-05
5.0403278e-05
5.2582227e-05
5.4733114e-05
5.685466e-05
5.8946806e-05
6.1010355e-05
6.3046319e-05
6.5055746e-05
6.7038524e-05
6.899867e-05
7.0919963e-05
7.2879306e-05
7.4524695e-05
7.7466267e-05
1.9969312e-06
1.9964769e-06
1.9960019e-06
1.9955101e-06
1.9950021e-06
1.9944776e-06
1.9939361e-06
1.9933771e-06
1.9927998e-06
1.9922039e-06
1.9915886e-06
1.9909534e-06
1.9902976e-06
1.9896207e-06
1.9889221e-06
1.9882011e-06
1.9874571e-06
1.9866894e-06
1.9858971e-06
1.9850794e-06
1.9842355e-06
1.9833645e-06
1.9824653e-06
1.9815371e-06
1.9805787e-06
1.9795892e-06
1.9785676e-06
1.9775126e-06
1.9764232e-06
1.9752983e-06
1.9741365e-06
1.9729366e-06
1.9716973e-06
1.9704172e-06
1.9690949e-06
1.967729e-06
1.9663178e-06
1.9648599e-06
1.9633537e-06
1.9617976e-06
1.9601897e-06
1.9585284e-06
1.9568116e-06
1.9550375e-06
1.953204e-06
1.951309e-06
1.9493501e-06
1.9473251e-06
1.9452316e-06
1.943067e-06
1.9408287e-06
1.9385141e-06
1.9361196e-06
1.933641e-06
1.9310692e-06
1.9283964e-06
1.9256064e-06
1.9227053e-06
1.9196374e-06
1.9165149e-06
1.9134998e-06
1.9109768e-06
1.9090117e-06
1.9101096e-06
1.9164574e-06
1.9386283e-06
2.0013593e-06
2.1856889e-06
2.6370883e-06
3.5841634e-06
5.2329017e-06
7.4907939e-06
1.0134354e-05
1.2910245e-05
1.5677689e-05
1.8412428e-05
2.1128017e-05
2.3827332e-05
2.6506664e-05
2.9164489e-05
3.1799745e-05
3.4410989e-05
3.6997144e-05
3.955591e-05
4.208754e-05
4.4593975e-05
4.707531e-05
4.9530599e-05
5.1957837e-05
5.4355333e-05
5.6722331e-05
5.905899e-05
6.1365949e-05
6.3644127e-05
6.5893431e-05
6.8118165e-05
7.030089e-05
7.252635e-05
7.4402417e-05
7.7748451e-05
1.9972587e-06
1.9968779e-06
1.9964802e-06
1.9960687e-06
1.9956438e-06
1.9952051e-06
1.9947522e-06
1.9942848e-06
1.9938022e-06
1.993304e-06
1.9927898e-06
1.992259e-06
1.9917111e-06
1.9911456e-06
1.990562e-06
1.9899597e-06
1.9893383e-06
1.9886971e-06
1.9880354e-06
1.9873527e-06
1.9866481e-06
1.9859208e-06
1.9851702e-06
1.9843955e-06
1.9835957e-06
1.98277e-06
1.9819176e-06
1.9810375e-06
1.9801289e-06
1.9791907e-06
1.9782219e-06
1.9772216e-06
1.9761885e-06
1.9751216e-06
1.9740197e-06
1.9728816e-06
1.9717061e-06
1.9704918e-06
1.9692376e-06
1.9679419e-06
1.9666035e-06
1.9652208e-06
1.9637922e-06
1.9623162e-06
1.960791e-06
1.9592149e-06
1.9575861e-06
1.9559026e-06
1.9541623e-06
1.9523633e-06
1.9505035e-06
1.9485809e-06
1.9465936e-06
1.9445393e-06
1.9424151e-06
1.9402186e-06
1.9379447e-06
1.9355889e-06
1.9331405e-06
1.9305899e-06
1.9279362e-06
1.9251294e-06
1.9222194e-06
1.9193916e-06
1.9169999e-06
1.9150075e-06
1.9159552e-06
1.9219302e-06
1.9437305e-06
2.0084482e-06
2.2106373e-06
2.7187087e-06
3.8253066e-06
5.7083765e-06
8.2409956e-06
1.1133874e-05
1.4120938e-05
1.7084363e-05
2.0018925e-05
2.293739e-05
2.583883e-05
2.8720267e-05
3.1580389e-05
3.4415809e-05
3.722603e-05
4.001256e-05
4.2774991e-05
4.5512317e-05
4.8222443e-05
5.0903319e-05
5.3553545e-05
5.6172583e-05
5.8760533e-05
6.1318001e-05
6.3844762e-05
6.6345278e-05
6.8800867e-05
7.1304089e-05
7.3421873e-05
7.719137e-05
1.9975321e-06
1.9972099e-06
1.996874e-06
1.9965265e-06
1.9961677e-06
1.9957974e-06
1.9954151e-06
1.9950206e-06
1.9946134e-06
1.994193e-06
1.9937592e-06
1.9933115e-06
1.9928493e-06
1.9923724e-06
1.9918803e-06
1.9913725e-06
1.9908485e-06
1.9903079e-06
1.9897502e-06
1.9891746e-06
1.9885807e-06
1.9879678e-06
1.9873352e-06
1.9866824e-06
1.9860085e-06
1.985313e-06
1.9845949e-06
1.9838537e-06
1.9830886e-06
1.9822986e-06
1.981483e-06
1.9806409e-06
1.9797714e-06
1.9788736e-06
1.9779465e-06
1.976989e-06
1.9760003e-06
1.9749791e-06
1.9739244e-06
1.9728351e-06
1.97171e-06
1.9705479e-06
1.9693474e-06
1.9681073e-06
1.9668261e-06
1.9655024e-06
1.9641347e-06
1.9627212e-06
1.9612605e-06
1.9597508e-06
1.9581903e-06
1.9565774e-06
1.9549104e-06
1.9531875e-06
1.9514064e-06
1.9495653e-06
1.9476617e-06
1.9456933e-06
1.9436575e-06
1.9415508e-06
1.9393694e-06
1.9371036e-06
1.9347443e-06
1.9322877e-06
1.9296895e-06
1.9269771e-06
1.9243439e-06
1.922106e-06
1.9203581e-06
1.9214682e-06
1.9282924e-06
1.953924e-06
2.0311089e-06
2.2876221e-06
2.9205178e-06
4.3460536e-06
6.5842475e-06
9.4525994e-06
1.2605867e-05
1.5796803e-05
1.895562e-05
2.209434e-05
2.5218979e-05
2.8323762e-05
3.1407781e-05
3.4472194e-05
3.7515631e-05
4.0536635e-05
4.3532717e-05
4.6501354e-05
4.944048e-05
5.2348796e-05
5.5225724e-05
5.807135e-05
6.0885129e-05
6.3671503e-05
6.6410469e-05
6.9202334e-05
7.1572321e-05
7.5782372e-05
1.9977621e-06
1.9974874e-06
1.9972013e-06
1.9969054e-06
1.9966e-06
1.9962848e-06
1.9959595e-06
1.9956238e-06
1.9952773e-06
1.9949198e-06
1.9945508e-06
1.99417e-06
1.993777e-06
1.9933714e-06
1.992953e-06
1.9925213e-06
1.9920758e-06
1.9916163e-06
1.9911421e-06
1.9906529e-06
1.9901481e-06
1.9896273e-06
1.9890897e-06
1.988535e-06
1.9879625e-06
1.9873716e-06
1.9867618e-06
1.9861323e-06
1.9854825e-06
1.9848117e-06
1.9841193e-06
1.9834044e-06
1.9826664e-06
1.9819045e-06
1.9811178e-06
1.9803054e-06
1.9794666e-06
1.9786005e-06
1.977706e-06
1.9767823e-06
1.9758284e-06
1.9748433e-06
1.9738258e-06
1.9727749e-06
1.9716894e-06
1.970568e-06
1.9694095e-06
1.9682126e-06
1.9669758e-06
1.9656978e-06
1.9643771e-06
1.9630123e-06
1.961602e-06
1.9601445e-06
1.9586382e-06
1.9570813e-06
1.9554717e-06
1.9538077e-06
1.9520873e-06
1.9503085e-06
1.9484691e-06
1.9465668e-06
1.9445986e-06
1.942561e-06
1.9404451e-06
1.9382417e-06
1.9359471e-06
1.9335166e-06
1.9309853e-06
1.9285492e-06
1.9264708e-06
1.9252681e-06
1.9269251e-06
1.9362661e-06
1.9701059e-06
2.0794454e-06
2.4455079e-06
3.3462023e-06
5.1962549e-06
7.9064856e-06
1.1153761e-05
1.4564987e-05
1.7959724e-05
2.132188e-05
2.4668594e-05
2.8002217e-05
3.1320204e-05
3.462092e-05
3.7901096e-05
4.1157502e-05
4.4387315e-05
4.7588397e-05
5.0759352e-05
5.3899521e-05
5.7007803e-05
6.008839e-05
6.3119821e-05
6.6210024e-05
6.8841764e-05
7.3508745e-05
1.9979602e-06
1.9977243e-06
1.9974788e-06
1.9972251e-06
1.9969633e-06
1.996693e-06
1.9964142e-06
1.9961264e-06
1.9958295e-06
1.9955231e-06
1.9952069e-06
1.9948806e-06
1.9945439e-06
1.9941965e-06
1.9938381e-06
1.9934683e-06
1.9930868e-06
1.9926933e-06
1.9922872e-06
1.9918683e-06
1.9914361e-06
1.9909902e-06
1.99053e-06
1.9900552e-06
1.9895652e-06
1.9890595e-06
1.9885376e-06
1.987999e-06
1.987443e-06
1.9868692e-06
1.9862769e-06
1.9856655e-06
1.9850344e-06
1.9843829e-06
1.9837103e-06
1.9830158e-06
1.9822989e-06
1.9815586e-06
1.9807943e-06
1.9800051e-06
1.9791902e-06
1.9783488e-06
1.9774798e-06
1.9765824e-06
1.9756556e-06
1.9746983e-06
1.9737095e-06
1.9726881e-06
1.9716328e-06
1.9705426e-06
1.9694162e-06
1.9682523e-06
1.9670498e-06
1.9658074e-06
1.9645236e-06
1.9631968e-06
1.9618255e-06
1.9604081e-06
1.9589428e-06
1.957428e-06
1.9558619e-06
1.9542426e-06
1.9525684e-06
1.950837e-06
1.9490465e-06
1.9471941e-06
1.9452763e-06
1.9432848e-06
1.9412099e-06
1.9390497e-06
1.9367558e-06
1.9343708e-06
1.9322691e-06
1.9297913e-06
1.9299425e-06
1.9328699e-06
1.9477769e-06
1.9981492e-06
2.1884258e-06
2.7515545e-06
4.1465091e-06
6.5817999e-06
9.8224527e-06
1.3414997e-05
1.7045714e-05
2.0642255e-05
2.4223065e-05
2.779394e-05
3.1350277e-05
3.4888648e-05
3.8405611e-05
4.1898204e-05
4.5364088e-05
4.8801614e-05
5.2208849e-05
5.5589446e-05
5.8920284e-05
6.2316722e-05
6.5218302e-05
7.0356875e-05
1.9981357e-06
1.9979318e-06
1.9977199e-06
1.997501e-06
1.997275e-06
1.9970418e-06
1.9968012e-06
1.9965529e-06
1.9962967e-06
1.9960324e-06
1.9957597e-06
1.9954783e-06
1.995188e-06
1.9948884e-06
1.9945794e-06
1.9942606e-06
1.9939317e-06
1.9935924e-06
1.9932424e-06
1.9928813e-06
1.9925088e-06
1.9921245e-06
1.9917279e-06
1.9913187e-06
1.9908965e-06
1.9904609e-06
1.9900113e-06
1.9895473e-06
1.9890685e-06
1.9885743e-06
1.9880643e-06
1.9875379e-06
1.9869945e-06
1.9864336e-06
1.9858547e-06
1.9852571e-06
1.9846401e-06
1.9840032e-06
1.9833456e-06
1.9826667e-06
1.9819658e-06
1.9812422e-06
1.980495e-06
1.9797234e-06
1.9789267e-06
1.9781039e-06
1.9772541e-06
1.9763764e-06
1.9754698e-06
1.9745333e-06
1.9735659e-06
1.9725666e-06
1.9715342e-06
1.9704676e-06
1.9693658e-06
1.9682273e-06
1.9670507e-06
1.9658349e-06
1.9645783e-06
1.9632794e-06
1.9619368e-06
1.9605489e-06
1.959114e-06
1.9576304e-06
1.9560965e-06
1.9545104e-06
1.9528702e-06
1.9511739e-06
1.949419e-06
1.9476016e-06
1.9457154e-06
1.9437407e-06
1.941712e-06
1.9394704e-06
1.9372663e-06
1.9353217e-06
1.9335723e-06
1.9343938e-06
1.9405994e-06
1.9668805e-06
2.0594717e-06
2.4147019e-06
3.3820539e-06
5.4962398e-06
8.6400007e-06
1.2371547e-05
1.6246046e-05
2.0092355e-05
2.3913642e-05
2.7722756e-05
3.1517204e-05
3.529412e-05
3.905041e-05
4.2783247e-05
4.648964e-05
5.0172394e-05
5.3806463e-05
5.7514409e-05
6.0691727e-05
6.631394e-05
1.9982949e-06
1.9981177e-06
1.9979337e-06
1.9977436e-06
1.9975474e-06
1.997345e-06
1.9971362e-06
1.9969208e-06
1.9966985e-06
1.9964692e-06
1.9962326e-06
1.9959885e-06
1.9957366e-06
1.9954768e-06
1.9952088e-06
1.9949323e-06
1.994647e-06
1.9943528e-06
1.9940493e-06
1.9937362e-06
1.9934133e-06
1.9930801e-06
1.9927363e-06
1.9923816e-06
1.9920157e-06
1.9916381e-06
1.9912485e-06
1.9908464e-06
1.9904316e-06
1.9900034e-06
1.9895616e-06
1.9891056e-06
1.988635e-06
1.9881493e-06
1.987648e-06
1.9871305e-06
1.9865964e-06
1.986045e-06
1.9854759e-06
1.9848884e-06
1.9842819e-06
1.9836557e-06
1.9830093e-06
1.9823418e-06
1.9816527e-06
1.9809412e-06
1.9802064e-06
1.9794476e-06
1.9786639e-06
1.9778545e-06
1.9770184e-06
1.9761549e-06
1.9752631e-06
1.9743418e-06
1.9733902e-06
1.9724071e-06
1.9713913e-06
1.9703418e-06
1.9692573e-06
1.9681365e-06
1.9669783e-06
1.9657811e-06
1.9645437e-06
1.9632646e-06
1.9619423e-06
1.9605752e-06
1.9591617e-06
1.9577001e-06
1.9561888e-06
1.9546258e-06
1.9530096e-06
1.9513368e-06
1.9496044e-06
1.947805e-06
1.9459216e-06
1.9439558e-06
1.9418505e-06
1.9398294e-06
1.9380656e-06
1.9374615e-06
1.9398045e-06
1.9536363e-06
2.0051679e-06
2.2191211e-06
2.8885968e-06
4.6900352e-06
7.6790598e-06
1.1497899e-05
1.5596111e-05
1.9689428e-05
2.3751921e-05
2.7802061e-05
3.1838866e-05
3.5859233e-05
3.9859589e-05
4.3841767e-05
4.7778594e-05
5.1799595e-05
5.525545e-05
6.136951e-05
1.9984417e-06
1.9982869e-06
1.9981263e-06
1.9979604e-06
1.9977893e-06
1.9976127e-06
1.9974305e-06
1.9972426e-06
1.9970487e-06
1.9968486e-06
1.9966423e-06
1.9964294e-06
1.9962098e-06
1.9959832e-06
1.9957495e-06
1.9955085e-06
1.9952598e-06
1.9950033e-06
1.9947387e-06
1.9944658e-06
1.9941843e-06
1.9938939e-06
1.9935944e-06
1.9932853e-06
1.9929664e-06
1.9926374e-06
1.992298e-06
1.9919477e-06
1.9915863e-06
1.9912134e-06
1.9908286e-06
1.9904315e-06
1.9900218e-06
1.9895989e-06
1.9891624e-06
1.9887119e-06
1.988247e-06
1.9877672e-06
1.9872719e-06
1.9867606e-06
1.9862329e-06
1.9856882e-06
1.9851259e-06
1.9845454e-06
1.983946e-06
1.9833273e-06
1.9826884e-06
1.9820287e-06
1.9813475e-06
1.9806441e-06
1.9799176e-06
1.9791673e-06
1.9783925e-06
1.9775923e-06
1.9767658e-06
1.9759121e-06
1.9750302e-06
1.9741191e-06
1.9731778e-06
1.9722053e-06
1.9712003e-06
1.9701618e-06
1.9690886e-06
1.9679795e-06
1.966833e-06
1.965648e-06
1.964423e-06
1.9631566e-06
1.9618472e-06
1.9604934e-06
1.9590935e-06
1.957646e-06
1.9561487e-06
1.9546007e-06
1.9529982e-06
1.951337e-06
1.9496059e-06
1.9478065e-06
1.9458709e-06
1.9439126e-06
1.9421471e-06
1.9406011e-06
1.9415194e-06
1.9486951e-06
1.9786297e-06
2.1031494e-06
2.6013898e-06
4.0331029e-06
6.8598107e-06
1.0758515e-05
1.5087748e-05
1.9442151e-05
2.375575e-05
2.8053373e-05
3.2337822e-05
3.6611233e-05
4.0845027e-05
4.5175731e-05
4.8908765e-05
5.5517464e-05
1.9985788e-06
1.998443e-06
1.9983021e-06
1.9981567e-06
1.9980066e-06
1.9978518e-06
1.9976921e-06
1.9975274e-06
1.9973575e-06
1.9971822e-06
1.9970013e-06
1.9968148e-06