/*--------------------------------*- C++ -*----------------------------------*\
  =========                 |
  \\      /  F ield         | OpenFOAM: The Open Source CFD Toolbox
   \\    /   O peration     | Website:  https://openfoam.org
    \\  /    A nd           | Version:  12
     \\/     M anipulation  |
\*---------------------------------------------------------------------------*/
FoamFile
{
    format      ascii;
    class       volScalarField;
    location    "100";
    object      nuTilda;
}
// * * * * * * * * * * * * * * * * * * * * * * * * * * * * * * * * * * * * * //

dimensions      [0 2 -1 0 0 0 0];

internalField   nonuniform List<scalar> 
13056
(
1.9999988e-06
2.0000066e-06
2.0000207e-06
2.0000386e-06
2.0000594e-06
2.0000832e-06
2.0001102e-06
2.0001409e-06
2.0001755e-06
2.0002147e-06
2.0002591e-06
2.0003097e-06
2.0003675e-06
2.0004341e-06
2.0005115e-06
2.0006028e-06
2.0007128e-06
2.0008469e-06
2.0010231e-06
2.0012418e-06
2.0016147e-06
2.0020241e-06
2.0035893e-06
2.0030831e-06
3.0035891e-08
2.2016211e-08
2.0873719e-08
2.0465032e-08
2.0188536e-08
1.9944217e-08
1.971784e-08
1.9509415e-08
1.9319676e-08
1.9147657e-08
1.899159e-08
1.8849661e-08
1.8720223e-08
1.8601813e-08
1.8493137e-08
1.839305e-08
1.8300546e-08
1.8214747e-08
1.8134894e-08
1.8060331e-08
1.7990497e-08
1.7924903e-08
1.7863128e-08
1.7804804e-08
1.7749607e-08
1.7697254e-08
1.7647499e-08
1.760012e-08
1.7554907e-08
1.75117e-08
1.7470345e-08
1.7430698e-08
1.7392635e-08
1.7356043e-08
1.7320821e-08
1.7286875e-08
1.7254118e-08
1.7222475e-08
1.7191877e-08
1.716226e-08
1.7133564e-08
1.7105735e-08
1.7078723e-08
1.7052484e-08
1.7026974e-08
1.7002153e-08
1.6977985e-08
1.6954434e-08
1.6931471e-08
1.6909063e-08
1.6887184e-08
1.6865807e-08
1.6844908e-08
1.6824463e-08
1.6804453e-08
1.6784856e-08
1.6765654e-08
1.6746826e-08
1.6728357e-08
1.6710228e-08
1.6692422e-08
1.6674925e-08
1.665772e-08
1.6640793e-08
1.662413e-08
1.6607719e-08
1.6591546e-08
1.65756e-08
1.6559869e-08
1.6544339e-08
1.6528999e-08
1.6513837e-08
1.6498838e-08
1.6483992e-08
1.6469287e-08
1.6454712e-08
1.6440258e-08
1.6425913e-08
1.6411665e-08
1.6397501e-08
1.6383407e-08
1.6369369e-08
1.6355373e-08
1.6341409e-08
1.6327466e-08
1.6313533e-08
1.6299595e-08
1.6285636e-08
1.6271668e-08
1.625789e-08
1.6244596e-08
1.6231852e-08
1.6219601e-08
1.6207806e-08
1.6196436e-08
1.6185466e-08
1.6174876e-08
1.6164651e-08
1.6154775e-08
1.6145233e-08
1.613601e-08
1.6127092e-08
1.6118466e-08
1.6110115e-08
1.6102028e-08
1.6094189e-08
1.608659e-08
1.6079184e-08
1.6072057e-08
1.6064772e-08
1.6058568e-08
1.6048266e-08
1.9999987e-06
2.0000066e-06
2.0000209e-06
2.0000388e-06
2.0000598e-06
2.0000837e-06
2.000111e-06
2.0001418e-06
2.0001767e-06
2.0002162e-06
2.0002609e-06
2.0003117e-06
2.0003699e-06
2.0004368e-06
2.0005148e-06
2.0006065e-06
2.0007171e-06
2.0008519e-06
2.0010289e-06
2.0012485e-06
2.0016229e-06
2.0020338e-06
2.0036039e-06
2.00311e-06
8.7991781e-08
6.6345266e-08
6.2923511e-08
6.1694405e-08
6.0864269e-08
6.0131396e-08
5.9452157e-08
5.8826061e-08
5.8255352e-08
5.773738e-08
5.7267039e-08
5.6839019e-08
5.6448456e-08
5.6091003e-08
5.5762804e-08
5.5460446e-08
5.518092e-08
5.4921598e-08
5.4680197e-08
5.445475e-08
5.4243571e-08
5.4045188e-08
5.3858331e-08
5.3681895e-08
5.35149e-08
5.3356494e-08
5.3205937e-08
5.3062559e-08
5.2925759e-08
5.2795022e-08
5.2669882e-08
5.254991e-08
5.2434723e-08
5.2323982e-08
5.221738e-08
5.2114633e-08
5.2015482e-08
5.1919697e-08
5.1827069e-08
5.1737406e-08
5.1650527e-08
5.1566267e-08
5.1484478e-08
5.1405023e-08
5.1327773e-08
5.1252606e-08
5.1179409e-08
5.1108081e-08
5.1038526e-08
5.0970653e-08
5.0904375e-08
5.0839614e-08
5.0776297e-08
5.0714355e-08
5.0653725e-08
5.0594344e-08
5.0536154e-08
5.0479098e-08
5.0423123e-08
5.0368177e-08
5.031421e-08
5.0261173e-08
5.0209019e-08
5.0157706e-08
5.010719e-08
5.0057435e-08
5.0008401e-08
4.9960053e-08
4.9912351e-08
4.9865261e-08
4.9818745e-08
4.9772764e-08
4.972728e-08
4.9682257e-08
4.963766e-08
4.9593458e-08
4.954962e-08
4.9506112e-08
4.94629e-08
4.9419942e-08
4.9377197e-08
4.9334621e-08
4.9292176e-08
4.9249828e-08
4.9207544e-08
4.916529e-08
4.9123026e-08
4.9080695e-08
4.9038342e-08
4.8996572e-08
4.8956287e-08
4.8917679e-08
4.8880578e-08
4.8844869e-08
4.8810453e-08
4.8777256e-08
4.8745215e-08
4.8714278e-08
4.8684401e-08
4.8655536e-08
4.862764e-08
4.8600666e-08
4.8574573e-08
4.8549316e-08
4.8524856e-08
4.8501144e-08
4.8478159e-08
4.8455755e-08
4.8434195e-08
4.8412156e-08
4.8393383e-08
4.8362206e-08
1.9999987e-06
2.0000067e-06
2.0000213e-06
2.0000396e-06
2.000061e-06
2.0000855e-06
2.0001133e-06
2.0001448e-06
2.0001804e-06
2.0002206e-06
2.0002662e-06
2.000318e-06
2.0003772e-06
2.0004453e-06
2.0005245e-06
2.0006178e-06
2.0007301e-06
2.0008668e-06
2.0010463e-06
2.0012688e-06
2.0016475e-06
2.0020629e-06
2.0036477e-06
2.0031723e-06
1.4435931e-07
1.115733e-07
1.0588519e-07
1.0382373e-07
1.024351e-07
1.0121012e-07
1.0007409e-07
9.90254e-08
9.8067938e-08
9.7197782e-08
9.6406822e-08
9.5686441e-08
9.5028661e-08
9.4426303e-08
9.3872974e-08
9.3363008e-08
9.2891393e-08
9.245374e-08
9.2046235e-08
9.1665582e-08
9.1308951e-08
9.0973873e-08
9.0658214e-08
9.0360118e-08
9.0077938e-08
8.9810241e-08
8.9555778e-08
8.9313424e-08
8.9082174e-08
8.8861153e-08
8.8649575e-08
8.8446719e-08
8.8251937e-08
8.8064659e-08
8.7884367e-08
8.7710582e-08
8.7542867e-08
8.7380833e-08
8.722413e-08
8.707243e-08
8.692543e-08
8.6782851e-08
8.6644443e-08
8.6509975e-08
8.6379229e-08
8.6251999e-08
8.6128096e-08
8.6007347e-08
8.588959e-08
8.5774672e-08
8.5662448e-08
8.5552784e-08
8.5445557e-08
8.5340651e-08
8.5237959e-08
8.5137376e-08
8.5038802e-08
8.4942143e-08
8.4847307e-08
8.4754207e-08
8.4662761e-08
8.4572884e-08
8.4484499e-08
8.4397532e-08
8.4311912e-08
8.4227575e-08
8.4144456e-08
8.4062493e-08
8.3981624e-08
8.3901786e-08
8.3822917e-08
8.3744954e-08
8.366783e-08
8.3591485e-08
8.3515861e-08
8.3440905e-08
8.3366564e-08
8.3292782e-08
8.32195e-08
8.314665e-08
8.3074162e-08
8.3001962e-08
8.2929985e-08
8.2858175e-08
8.2786476e-08
8.271483e-08
8.264317e-08
8.2571403e-08
8.2499597e-08
8.2428801e-08
8.2360553e-08
8.2295176e-08
8.2232379e-08
8.2171957e-08
8.2113741e-08
8.2057598e-08
8.2003421e-08
8.1951121e-08
8.1900616e-08
8.1851827e-08
8.1804677e-08
8.1759089e-08
8.1714989e-08
8.1672303e-08
8.1630963e-08
8.1590887e-08
8.1552037e-08
8.1514169e-08
8.1477723e-08
8.1440466e-08
8.1408721e-08
8.1355996e-08
1.9999987e-06
2.0000069e-06
2.000022e-06
2.0000409e-06
2.0000631e-06
2.0000884e-06
2.0001172e-06
2.0001498e-06
2.0001866e-06
2.0002282e-06
2.0002752e-06
2.0003286e-06
2.0003896e-06
2.0004597e-06
2.0005412e-06
2.0006369e-06
2.0007521e-06
2.0008922e-06
2.0010758e-06
2.0013031e-06
2.0016892e-06
2.0021122e-06
2.0037217e-06
2.0032713e-06
1.9981578e-07
1.5830503e-07
1.5037884e-07
1.474651e-07
1.4550964e-07
1.4378611e-07
1.4218617e-07
1.4070632e-07
1.3935229e-07
1.3811952e-07
1.369974e-07
1.3597428e-07
1.3503924e-07
1.3418234e-07
1.3339468e-07
1.3266836e-07
1.3199636e-07
1.3137253e-07
1.3079147e-07
1.3024855e-07
1.2973977e-07
1.2926162e-07
1.288111e-07
1.2838556e-07
1.2798268e-07
1.2760041e-07
1.2723699e-07
1.2689081e-07
1.2656046e-07
1.2624468e-07
1.2594235e-07
1.2565246e-07
1.2537407e-07
1.2510638e-07
1.2484865e-07
1.246002e-07
1.243604e-07
1.241287e-07
1.239046e-07
1.2368764e-07
1.2347738e-07
1.2327342e-07
1.2307541e-07
1.2288302e-07
1.2269594e-07
1.2251387e-07
1.2233654e-07
1.2216371e-07
1.2199515e-07
1.2183063e-07
1.2166996e-07
1.2151294e-07
1.2135939e-07
1.2120915e-07
1.2106206e-07
1.2091799e-07
1.2077678e-07
1.2063829e-07
1.2050241e-07
1.20369e-07
1.2023795e-07
1.2010914e-07
1.1998245e-07
1.1985778e-07
1.1973504e-07
1.1961413e-07
1.1949495e-07
1.1937742e-07
1.1926145e-07
1.1914695e-07
1.1903384e-07
1.1892202e-07
1.1881139e-07
1.1870188e-07
1.185934e-07
1.1848587e-07
1.1837923e-07
1.1827338e-07
1.1816825e-07
1.1806373e-07
1.1795974e-07
1.1785617e-07
1.1775291e-07
1.176499e-07
1.1754705e-07
1.1744429e-07
1.173415e-07
1.1723858e-07
1.171356e-07
1.170341e-07
1.1693631e-07
1.168427e-07
1.1675282e-07
1.1666638e-07
1.1658313e-07
1.1650287e-07
1.1642544e-07
1.1635071e-07
1.1627855e-07
1.1620885e-07
1.1614149e-07
1.1607637e-07
1.1601338e-07
1.1595241e-07
1.1589336e-07
1.1583611e-07
1.1578062e-07
1.1572652e-07
1.1567445e-07
1.1562121e-07
1.1557583e-07
1.1550046e-07
1.9999986e-06
2.0000072e-06
2.0000229e-06
2.0000428e-06
2.0000661e-06
2.0000927e-06
2.0001229e-06
2.0001571e-06
2.0001956e-06
2.0002391e-06
2.0002882e-06
2.000344e-06
2.0004076e-06
2.0004805e-06
2.0005652e-06
2.0006645e-06
2.0007839e-06
2.0009288e-06
2.0011183e-06
2.0013525e-06
2.0017491e-06
2.002183e-06
2.0038274e-06
2.0034097e-06
2.5490227e-07
2.0713474e-07
1.9703493e-07
1.9324475e-07
1.9071205e-07
1.8848161e-07
1.8640819e-07
1.8448544e-07
1.8272137e-07
1.8111162e-07
1.7964377e-07
1.7830357e-07
1.7707735e-07
1.7595254e-07
1.7491779e-07
1.7396299e-07
1.7307909e-07
1.7225815e-07
1.714932e-07
1.7077819e-07
1.7010793e-07
1.6947786e-07
1.6888403e-07
1.6832301e-07
1.6779173e-07
1.6728755e-07
1.6680813e-07
1.6635139e-07
1.6591544e-07
1.6549867e-07
1.6509959e-07
1.6471688e-07
1.643493e-07
1.6399581e-07
1.6365542e-07
1.6332724e-07
1.6301046e-07
1.6270434e-07
1.6240822e-07
1.621215e-07
1.618436e-07
1.6157401e-07
1.6131224e-07
1.6105787e-07
1.6081049e-07
1.6056971e-07
1.6033517e-07
1.6010656e-07
1.5988357e-07
1.596659e-07
1.5945329e-07
1.5924549e-07
1.5904227e-07
1.5884339e-07
1.5864868e-07
1.5845792e-07
1.5827093e-07
1.5808753e-07
1.5790756e-07
1.5773084e-07
1.5755723e-07
1.5738656e-07
1.5721869e-07
1.5705349e-07
1.5689081e-07
1.5673055e-07
1.5657257e-07
1.5641676e-07
1.56263e-07
1.5611118e-07
1.5596118e-07
1.5581289e-07
1.5566618e-07
1.5552094e-07
1.5537705e-07
1.5523443e-07
1.5509296e-07
1.5495255e-07
1.5481309e-07
1.5467445e-07
1.545365e-07
1.5439911e-07
1.5426215e-07
1.5412551e-07
1.539891e-07
1.538528e-07
1.5371649e-07
1.5357999e-07
1.5344344e-07
1.533089e-07
1.5317937e-07
1.5305545e-07
1.5293657e-07
1.5282228e-07
1.5271227e-07
1.5260624e-07
1.5250398e-07
1.524053e-07
1.5231004e-07
1.5221805e-07
1.5212915e-07
1.5204321e-07
1.5196008e-07
1.5187962e-07
1.5180169e-07
1.5172614e-07
1.516529e-07
1.5158149e-07
1.5151276e-07
1.5144248e-07
1.5138254e-07
1.5128298e-07
1.9999985e-06
2.0000075e-06
2.0000243e-06
2.0000454e-06
2.0000701e-06
2.0000984e-06
2.0001305e-06
2.0001668e-06
2.0002076e-06
2.0002537e-06
2.0003057e-06
2.0003646e-06
2.0004316e-06
2.0005084e-06
2.0005973e-06
2.0007014e-06
2.0008263e-06
2.0009776e-06
2.0011749e-06
2.0014183e-06
2.0018286e-06
2.0022769e-06
2.0039668e-06
2.0035907e-06
3.1002232e-07
2.5862489e-07
2.4649175e-07
2.4180578e-07
2.3868638e-07
2.3594083e-07
2.3338338e-07
2.3100393e-07
2.2881344e-07
2.2680896e-07
2.2497715e-07
2.2330178e-07
2.2176676e-07
2.2035705e-07
2.1905894e-07
2.1786013e-07
2.1674958e-07
2.1571754e-07
2.147554e-07
2.138557e-07
2.1301196e-07
2.1221855e-07
2.1147053e-07
2.1076364e-07
2.1009406e-07
2.0945847e-07
2.0885396e-07
2.0827793e-07
2.0772802e-07
2.0720219e-07
2.066986e-07
2.0621557e-07
2.0575158e-07
2.0530529e-07
2.0487548e-07
2.0446104e-07
2.0406092e-07
2.0367421e-07
2.0330009e-07
2.0293779e-07
2.0258658e-07
2.0224582e-07
2.0191491e-07
2.015933e-07
2.0128049e-07
2.0097598e-07
2.0067933e-07
2.0039013e-07
2.00108e-07
1.9983258e-07
1.9956351e-07
1.993005e-07
1.9904324e-07
1.9879145e-07
1.985449e-07
1.9830332e-07
1.9806648e-07
1.9783416e-07
1.9760614e-07
1.9738223e-07
1.9716221e-07
1.969459e-07
1.9673312e-07
1.9652368e-07
1.9631743e-07
1.9611421e-07
1.9591386e-07
1.9571624e-07
1.9552121e-07
1.9532862e-07
1.9513832e-07
1.9495016e-07
1.94764e-07
1.9457969e-07
1.9439709e-07
1.9421609e-07
1.9403654e-07
1.9385833e-07
1.9368131e-07
1.9350534e-07
1.9333024e-07
1.9315586e-07
1.9298202e-07
1.9280861e-07
1.9263549e-07
1.9246251e-07
1.9228954e-07
1.9211635e-07
1.9194309e-07
1.9177245e-07
1.916083e-07
1.914514e-07
1.9130096e-07
1.9115645e-07
1.910174e-07
1.9088344e-07
1.907543e-07
1.9062971e-07
1.9050946e-07
1.9039335e-07
1.9028117e-07
1.9017272e-07
1.9006782e-07
1.899663e-07
1.8986797e-07
1.8977263e-07
1.8968021e-07
1.8959008e-07
1.8950333e-07
1.8941461e-07
1.8933892e-07
1.8921314e-07
1.9999984e-06
2.000008e-06
2.0000259e-06
2.0000487e-06
2.0000753e-06
2.0001057e-06
2.0001403e-06
2.0001792e-06
2.0002231e-06
2.0002724e-06
2.0003281e-06
2.0003909e-06
2.0004623e-06
2.000544e-06
2.0006383e-06
2.0007486e-06
2.0008805e-06
2.0010398e-06
2.0012471e-06
2.001502e-06
2.0019297e-06
2.002396e-06
2.0041424e-06
2.0038184e-06
3.6544578e-07
3.132696e-07
2.9938679e-07
2.9380761e-07
2.900988e-07
2.8683394e-07
2.8378365e-07
2.8093361e-07
2.7829882e-07
2.7587938e-07
2.7366241e-07
2.7163051e-07
2.6976567e-07
2.6805064e-07
2.6646952e-07
2.6500789e-07
2.6365274e-07
2.623925e-07
2.6121692e-07
2.6011703e-07
2.5908509e-07
2.5811428e-07
2.5719868e-07
2.5633313e-07
2.55513e-07
2.5473428e-07
2.5399344e-07
2.5328732e-07
2.5261307e-07
2.5196819e-07
2.5135047e-07
2.5075785e-07
2.5018847e-07
2.4964071e-07
2.4911309e-07
2.4860423e-07
2.4811289e-07
2.4763793e-07
2.4717836e-07
2.4673322e-07
2.4630166e-07
2.4588286e-07
2.454761e-07
2.4508071e-07
2.4469608e-07
2.4432159e-07
2.4395671e-07
2.4360095e-07
2.4325382e-07
2.4291489e-07
2.4258374e-07
2.4225998e-07
2.4194325e-07
2.4163322e-07
2.4132958e-07
2.4103202e-07
2.4074025e-07
2.4045401e-07
2.4017302e-07
2.3989705e-07
2.3962585e-07
2.3935917e-07
2.3909681e-07
2.3883854e-07
2.3858416e-07
2.3833347e-07
2.3808631e-07
2.3784249e-07
2.3760182e-07
2.3736413e-07
2.3712926e-07
2.36897e-07
2.3666719e-07
2.3643965e-07
2.362142e-07
2.3599071e-07
2.35769e-07
2.3554893e-07
2.3533033e-07
2.3511301e-07
2.3489678e-07
2.3468142e-07
2.3446676e-07
2.3425262e-07
2.3403884e-07
2.3382526e-07
2.3361169e-07
2.3339788e-07
2.3318399e-07
2.3297343e-07
2.3277105e-07
2.3257778e-07
2.3239262e-07
2.3221486e-07
2.3204393e-07
2.3187934e-07
2.3172072e-07
2.3156774e-07
2.3142013e-07
2.3127762e-07
2.3113995e-07
2.3100688e-07
2.3087817e-07
2.307536e-07
2.3063296e-07
2.3051598e-07
2.3040257e-07
2.3029196e-07
2.301855e-07
2.3007659e-07
2.2998363e-07
2.2982912e-07
1.9999983e-06
2.0000085e-06
2.000028e-06
2.0000527e-06
2.0000817e-06
2.0001149e-06
2.0001524e-06
2.0001948e-06
2.0002424e-06
2.0002958e-06
2.000356e-06
2.0004238e-06
2.0005006e-06
2.0005883e-06
2.0006894e-06
2.0008073e-06
2.0009478e-06
2.0011172e-06
2.0013366e-06
2.0016057e-06
2.0020546e-06
2.0025427e-06
2.0043572e-06
2.0040979e-06
4.2131336e-07
3.7143231e-07
3.563373e-07
3.4991915e-07
3.4563592e-07
3.4185847e-07
3.3831316e-07
3.3498195e-07
3.3188591e-07
3.2903061e-07
3.2640552e-07
3.2399332e-07
3.2177484e-07
3.1973108e-07
3.1784418e-07
3.1609777e-07
3.1447697e-07
3.129684e-07
3.1156013e-07
3.102417e-07
3.0900402e-07
3.0783907e-07
3.0673989e-07
3.0570035e-07
3.04715e-07
3.0377908e-07
3.028884e-07
3.0203921e-07
3.0122812e-07
3.0045216e-07
2.997087e-07
2.9899527e-07
2.9830968e-07
2.9764997e-07
2.9701438e-07
2.9640127e-07
2.9580914e-07
2.9523665e-07
2.946826e-07
2.9414586e-07
2.9362538e-07
2.931202e-07
2.9262945e-07
2.9215234e-07
2.9168812e-07
2.9123607e-07
2.9079554e-07
2.9036593e-07
2.8994668e-07
2.8953726e-07
2.8913717e-07
2.8874594e-07
2.8836315e-07
2.8798838e-07
2.8762126e-07
2.8726144e-07
2.8690857e-07
2.8656231e-07
2.8622236e-07
2.8588841e-07
2.8556018e-07
2.8523739e-07
2.8491976e-07
2.8460704e-07
2.8429898e-07
2.8399536e-07
2.8369596e-07
2.8340055e-07
2.8310893e-07
2.828209e-07
2.8253622e-07
2.822547e-07
2.8197612e-07
2.8170025e-07
2.8142691e-07
2.811559e-07
2.8088705e-07
2.8062017e-07
2.8035506e-07
2.8009149e-07
2.7982924e-07
2.7956806e-07
2.7930772e-07
2.7904802e-07
2.7878877e-07
2.7852977e-07
2.782708e-07
2.7801156e-07
2.7775222e-07
2.7749705e-07
2.7725202e-07
2.7701823e-07
2.7679444e-07
2.7657976e-07
2.7637345e-07
2.7617489e-07
2.7598362e-07
2.7579922e-07
2.7562134e-07
2.7544963e-07
2.7528378e-07
2.7512349e-07
2.7496847e-07
2.7481844e-07
2.7467313e-07
2.7453224e-07
2.7439563e-07
2.7426239e-07
2.7413413e-07
2.7400289e-07
2.7389081e-07
2.7370448e-07
1.9999981e-06
2.0000092e-06
2.0000305e-06
2.0000577e-06
2.0000896e-06
2.000126e-06
2.0001674e-06
2.0002138e-06
2.000266e-06
2.0003245e-06
2.0003901e-06
2.000464e-06
2.0005475e-06
2.0006426e-06
2.0007519e-06
2.0008789e-06
2.0010299e-06
2.0012113e-06
2.0014454e-06
2.0017315e-06
2.0022057e-06
2.0027198e-06
2.0046141e-06
2.0044345e-06
4.7764558e-07
4.3325841e-07
4.179007e-07
4.1080082e-07
4.0599595e-07
4.0173599e-07
3.977087e-07
3.9389521e-07
3.9032628e-07
3.8701662e-07
3.839609e-07
3.8114382e-07
3.7854624e-07
3.7614815e-07
3.7393018e-07
3.7187434e-07
3.6996399e-07
3.6818406e-07
3.6652098e-07
3.649628e-07
3.6349904e-07
3.6212046e-07
3.6081899e-07
3.5958753e-07
3.5841975e-07
3.5731008e-07
3.5625365e-07
3.5524606e-07
3.5428337e-07
3.5336209e-07
3.5247913e-07
3.5163161e-07
3.5081693e-07
3.5003282e-07
3.4927719e-07
3.4854812e-07
3.4784383e-07
3.4716275e-07
3.4650346e-07
3.4586463e-07
3.4524502e-07
3.446435e-07
3.4405905e-07
3.4349072e-07
3.4293763e-07
3.4239894e-07
3.4187387e-07
3.4136171e-07
3.4086181e-07
3.4037354e-07
3.398963e-07
3.3942954e-07
3.3897275e-07
3.3852546e-07
3.3808722e-07
3.376576e-07
3.372362e-07
3.3682262e-07
3.3641649e-07
3.3601747e-07
3.3562521e-07
3.3523938e-07
3.3485966e-07
3.3448574e-07
3.3411734e-07
3.3375419e-07
3.3339602e-07
3.3304258e-07
3.3269362e-07
3.3234889e-07
3.3200815e-07
3.3167114e-07
3.313376e-07
3.3100729e-07
3.3067997e-07
3.3035542e-07
3.3003342e-07
3.2971376e-07
3.2939619e-07
3.2908047e-07
3.2876632e-07
3.2845345e-07
3.2814159e-07
3.278305e-07
3.2751996e-07
3.2720973e-07
3.2689955e-07
3.2658908e-07
3.262785e-07
3.2597305e-07
3.2568001e-07
3.2540069e-07
3.2513356e-07
3.2487749e-07
3.2463157e-07
3.2439503e-07
3.2416727e-07
3.2394777e-07
3.2373609e-07
3.2353181e-07
3.2333453e-07
3.2314388e-07
3.2295952e-07
3.227811e-07
3.226083e-07
3.2244075e-07
3.2227828e-07
3.221198e-07
3.2196724e-07
3.2181109e-07
3.2167768e-07
3.2145579e-07
1.9999979e-06
2.00001e-06
2.0000336e-06
2.0000637e-06
2.000099e-06
2.0001395e-06
2.0001854e-06
2.0002369e-06
2.0002946e-06
2.0003591e-06
2.0004314e-06
2.0005125e-06
2.0006041e-06
2.000708e-06
2.000827e-06
2.000965e-06
2.0011285e-06
2.0013242e-06
2.0015758e-06
2.0018819e-06
2.0023858e-06
2.0029304e-06
2.0049162e-06
2.0048342e-06
5.3436096e-07
4.98583e-07
4.845051e-07
4.7706705e-07
4.7186658e-07
4.6719948e-07
4.627338e-07
4.5845736e-07
4.5441709e-07
4.5064268e-07
4.4713845e-07
4.4389412e-07
4.4089255e-07
4.3811397e-07
4.3553833e-07
4.3314651e-07
4.3092051e-07
4.2884375e-07
4.2690116e-07
4.2507932e-07
4.2336642e-07
4.2175198e-07
4.2022681e-07
4.1878281e-07
4.1741271e-07
4.1611014e-07
4.1486948e-07
4.1368568e-07
4.1255417e-07
4.1147093e-07
4.1043237e-07
4.0943518e-07
4.0847633e-07
4.0755317e-07
4.0666329e-07
4.0580445e-07
4.0497459e-07
4.0417187e-07
4.0339462e-07
4.0264132e-07
4.019105e-07
4.0120086e-07
4.0051118e-07
3.9984038e-07
3.9918741e-07
3.985513e-07
3.9793113e-07
3.9732609e-07
3.967354e-07
3.9615832e-07
3.9559417e-07
3.9504229e-07
3.9450209e-07
3.9397301e-07
3.9345452e-07
3.9294613e-07
3.9244735e-07
3.9195773e-07
3.9147685e-07
3.9100428e-07
3.9053963e-07
3.9008251e-07
3.8963255e-07
3.8918938e-07
3.8875267e-07
3.8832211e-07
3.8789738e-07
3.8747819e-07
3.8706425e-07
3.8665526e-07
3.8625094e-07
3.85851e-07
3.8545513e-07
3.8506305e-07
3.8467448e-07
3.8428915e-07
3.8390682e-07
3.8352723e-07
3.831501e-07
3.8277515e-07
3.8240205e-07
3.8203047e-07
3.8166009e-07
3.8129063e-07
3.8092183e-07
3.805534e-07
3.8018505e-07
3.7981639e-07
3.7944759e-07
3.7908506e-07
3.787376e-07
3.7840673e-07
3.7809059e-07
3.7778779e-07
3.7749718e-07
3.7721782e-07
3.7694897e-07
3.7668997e-07
3.7644027e-07
3.7619935e-07
3.7596674e-07
3.7574198e-07
3.7552465e-07
3.7531433e-07
3.7511065e-07
3.7491314e-07
3.7472163e-07
3.7453479e-07
3.7435491e-07
3.7417077e-07
3.7401336e-07
3.7375144e-07
1.9999977e-06
2.0000109e-06
2.0000371e-06
2.0000708e-06
2.0001103e-06
2.0001557e-06
2.0002069e-06
2.0002644e-06
2.0003287e-06
2.0004005e-06
2.0004807e-06
2.0005705e-06
2.0006715e-06
2.0007859e-06
2.0009165e-06
2.0010675e-06
2.0012457e-06
2.0014582e-06
2.0017301e-06
2.0020596e-06
2.0025978e-06
2.0031775e-06
2.0052665e-06
2.0053033e-06
5.9126987e-07
5.6693543e-07
5.5634838e-07
5.4921739e-07
5.4387846e-07
5.3896192e-07
5.3415848e-07
5.2947832e-07
5.2499585e-07
5.2076501e-07
5.1680685e-07
5.1312101e-07
5.0969557e-07
5.0651312e-07
5.035544e-07
5.0080012e-07
4.9823158e-07
4.9583115e-07
4.9358254e-07
4.9147105e-07
4.8948364e-07
4.8760865e-07
4.858358e-07
4.8415601e-07
4.8256107e-07
4.8104378e-07
4.7959775e-07
4.7821726e-07
4.7689709e-07
4.7563265e-07
4.7441985e-07
4.7325487e-07
4.7213427e-07
4.7105499e-07
4.7001425e-07
4.6900949e-07
4.6803832e-07
4.6709863e-07
4.6618849e-07
4.6530612e-07
4.6444987e-07
4.6361818e-07
4.6280968e-07
4.620231e-07
4.6125723e-07
4.6051095e-07
4.5978319e-07
4.5907301e-07
4.583795e-07
4.5770182e-07
4.5703916e-07
4.5639077e-07
4.5575594e-07
4.5513404e-07
4.5452446e-07
4.5392661e-07
4.5333994e-07
4.5276391e-07
4.5219803e-07
4.5164182e-07
4.5109481e-07
4.5055656e-07
4.5002663e-07
4.495046e-07
4.4899008e-07
4.4848271e-07
4.4798212e-07
4.4748797e-07
4.4699992e-07
4.4651763e-07
4.4604077e-07
4.45569e-07
4.4510198e-07
4.4463936e-07
4.4418083e-07
4.4372609e-07
4.4327483e-07
4.4282676e-07
4.4238157e-07
4.4193891e-07
4.4149842e-07
4.4105973e-07
4.4062245e-07
4.4018626e-07
4.3975084e-07
4.3931587e-07
4.3888101e-07
4.3844582e-07
4.3801046e-07
4.375827e-07
4.371731e-07
4.3678347e-07
4.3641153e-07
4.3605556e-07
4.3571418e-07
4.3538622e-07
4.3507074e-07
4.3476696e-07
4.3447417e-07
4.3419176e-07
4.3391914e-07
4.3365576e-07
4.3340111e-07
4.331547e-07
4.3291606e-07
4.3268466e-07
4.3246027e-07
4.3224133e-07
4.3203054e-07
4.318147e-07
4.3163009e-07
4.3132277e-07
1.9999974e-06
2.000012e-06
2.0000413e-06
2.0000791e-06
2.0001237e-06
2.0001747e-06
2.0002324e-06
2.000297e-06
2.0003691e-06
2.0004495e-06
2.000539e-06
2.0006391e-06
2.0007513e-06
2.0008779e-06
2.0010221e-06
2.0011882e-06
2.0013835e-06
2.0016155e-06
2.0019109e-06
2.0022674e-06
2.0028447e-06
2.0034644e-06
2.0056676e-06
2.0058483e-06
6.4805591e-07
6.3762246e-07
6.3329161e-07
6.2752911e-07
6.2251973e-07
6.1764927e-07
6.12708e-07
6.0775596e-07
6.0291323e-07
5.9827241e-07
5.9388227e-07
5.8976023e-07
5.8590496e-07
5.8230502e-07
5.7894445e-07
5.7580558e-07
5.7287027e-07
5.7012067e-07
5.6753988e-07
5.6511233e-07
5.6282404e-07
5.6066239e-07
5.5861614e-07
5.5667529e-07
5.5483079e-07
5.530746e-07
5.5139963e-07
5.4979944e-07
5.4826818e-07
5.468007e-07
5.4539236e-07
5.4403887e-07
5.427363e-07
5.4148118e-07
5.4027038e-07
5.3910094e-07
5.3797017e-07
5.3687562e-07
5.3581512e-07
5.3478663e-07
5.3378823e-07
5.3281817e-07
5.3187484e-07
5.3095681e-07
5.3006268e-07
5.2919116e-07
5.2834103e-07
5.2751119e-07
5.2670062e-07
5.2590833e-07
5.251334e-07
5.2437495e-07
5.2363219e-07
5.2290435e-07
5.2219076e-07
5.2149072e-07
5.2080359e-07
5.2012877e-07
5.1946568e-07
5.1881377e-07
5.1817251e-07
5.1754136e-07
5.1691984e-07
5.1630746e-07
5.1570377e-07
5.1510833e-07
5.1452074e-07
5.1394059e-07
5.133675e-07
5.1280107e-07
5.1224092e-07
5.1168666e-07
5.1113791e-07
5.1059425e-07
5.1005533e-07
5.0952079e-07
5.0899029e-07
5.0846349e-07
5.0794001e-07
5.0741949e-07
5.0690149e-07
5.0638559e-07
5.0587134e-07
5.0535837e-07
5.0484631e-07
5.0433477e-07
5.0382339e-07
5.0331164e-07
5.0279969e-07
5.0229689e-07
5.018159e-07
5.0135883e-07
5.009229e-07
5.0050606e-07
5.0010658e-07
4.9972305e-07
4.9935431e-07
4.9899938e-07
4.9865742e-07
4.9832766e-07
4.980094e-07
4.9770198e-07
4.9740477e-07
4.971172e-07
4.9683871e-07
4.9656866e-07
4.9630679e-07
4.9605124e-07
4.9580519e-07
4.955532e-07
4.9533755e-07
4.9497832e-07
1.999997e-06
2.0000132e-06
2.0000462e-06
2.0000889e-06
2.0001393e-06
2.0001971e-06
2.0002623e-06
2.0003353e-06
2.0004166e-06
2.000507e-06
2.0006075e-06
2.0007195e-06
2.0008448e-06
2.0009857e-06
2.0011457e-06
2.0013292e-06
2.0015443e-06
2.0017987e-06
2.002121e-06
2.0025081e-06
2.0031296e-06
2.0037941e-06
2.0061213e-06
2.0064754e-06
7.0428511e-07
7.0978737e-07
7.148151e-07
7.1193834e-07
7.0801381e-07
7.0368663e-07
6.9896164e-07
6.9398894e-07
6.8895956e-07
6.8402501e-07
6.7927791e-07
6.7476534e-07
6.7050499e-07
6.6649737e-07
6.6273402e-07
6.5920198e-07
6.5588584e-07
6.5276918e-07
6.498356e-07
6.4706955e-07
6.4445669e-07
6.419839e-07
6.3963934e-07
6.3741234e-07
6.3529316e-07
6.3327309e-07
6.313444e-07
6.2950005e-07
6.277336e-07
6.2603934e-07
6.2441215e-07
6.2284724e-07
6.2134024e-07
6.1988725e-07
6.1848475e-07
6.1712946e-07
6.158183e-07
6.1454853e-07
6.1331768e-07
6.1212346e-07
6.1096368e-07
6.0983636e-07
6.0873967e-07
6.0767197e-07
6.0663169e-07
6.0561736e-07
6.0462757e-07
6.0366108e-07
6.0271671e-07
6.0179335e-07
6.0088994e-07
6.0000548e-07
5.9913904e-07
5.9828977e-07
5.9745686e-07
5.9663954e-07
5.9583708e-07
5.9504877e-07
5.9427396e-07
5.93512e-07
5.927623e-07
5.9202425e-07
5.9129728e-07
5.9058083e-07
5.8987439e-07
5.8917745e-07
5.8848954e-07
5.8781021e-07
5.8713899e-07
5.8647544e-07
5.8581914e-07
5.8516962e-07
5.8452645e-07
5.8388917e-07
5.8325735e-07
5.8263058e-07
5.8200846e-07
5.813906e-07
5.8077659e-07
5.8016599e-07
5.7955832e-07
5.7895308e-07
5.7834979e-07
5.7774797e-07
5.771472e-07
5.7654706e-07
5.759471e-07
5.7534675e-07
5.7474615e-07
5.7415653e-07
5.7359299e-07
5.7305803e-07
5.7254829e-07
5.7206128e-07
5.7159489e-07
5.711474e-07
5.7071739e-07
5.7030366e-07
5.6990518e-07
5.6952102e-07
5.6915032e-07
5.687923e-07
5.6844622e-07
5.6811137e-07
5.677871e-07
5.6747266e-07
5.6716773e-07
5.6687009e-07
5.6658353e-07
5.6628997e-07
5.6603863e-07
5.6561958e-07
1.9999966e-06
2.0000146e-06
2.0000517e-06
2.0001002e-06
2.0001575e-06
2.0002231e-06
2.0002971e-06
2.0003799e-06
2.000472e-06
2.0005741e-06
2.0006874e-06
2.0008132e-06
2.0009536e-06
2.001111e-06
2.0012891e-06
2.0014926e-06
2.0017303e-06
2.0020102e-06
2.0023629e-06
2.0027847e-06
2.0034553e-06
2.0041695e-06
2.0066287e-06
2.0071903e-06
7.5941897e-07
7.8244601e-07
8.0009204e-07
8.01993e-07
8.0022043e-07
7.9717414e-07
7.9321826e-07
7.8864148e-07
7.837347e-07
7.7873231e-07
7.7379125e-07
7.6900439e-07
7.6442037e-07
7.6006044e-07
7.5593018e-07
7.5202615e-07
7.483393e-07
7.4485729e-07
7.4156629e-07
7.3845223e-07
7.3550163e-07
7.3270172e-07
7.3004074e-07
7.2750791e-07
7.2509321e-07
7.2278756e-07
7.2058287e-07
7.1847168e-07
7.1644711e-07
7.1450303e-07
7.1263391e-07
7.1083458e-07
7.0910024e-07
7.0742663e-07
7.058099e-07
7.0424642e-07
7.0273279e-07
7.0126596e-07
6.9984319e-07
6.9846193e-07
6.9711975e-07
6.9581439e-07
6.9454385e-07
6.9330626e-07
6.9209988e-07
6.9092303e-07
6.8977415e-07
6.8865181e-07
6.8755471e-07
6.8648158e-07
6.8543123e-07
6.8440251e-07
6.8339438e-07
6.8240587e-07
6.8143605e-07
6.8048407e-07
6.7954906e-07
6.7863025e-07
6.7772687e-07
6.7683821e-07
6.7596358e-07
6.7510229e-07
6.742537e-07
6.7341716e-07
6.7259209e-07
6.7177792e-07
6.7097409e-07
6.7018008e-07
6.6939537e-07
6.6861946e-07
6.6785186e-07
6.6709205e-07
6.6633952e-07
6.6559376e-07
6.6485427e-07
6.6412058e-07
6.6339224e-07
6.6266877e-07
6.6194973e-07
6.6123461e-07
6.6052288e-07
6.5981396e-07
6.5910729e-07
6.5840232e-07
6.5769857e-07
6.5699554e-07
6.5629272e-07
6.5558947e-07
6.5488592e-07
6.5419546e-07
6.5353614e-07
6.5291086e-07
6.5231563e-07
6.5174738e-07
6.512036e-07
6.5068216e-07
6.5018134e-07
6.4969968e-07
6.4923591e-07
6.4878891e-07
6.4835766e-07
6.479412e-07
6.4753865e-07
6.4714918e-07
6.4677202e-07
6.4640626e-07
6.4605154e-07
6.4570525e-07
6.4537182e-07
6.4503017e-07
6.4473748e-07
6.4424902e-07
1.9999961e-06
2.0000161e-06
2.0000581e-06
2.0001132e-06
2.0001784e-06
2.0002532e-06
2.0003375e-06
2.0004316e-06
2.0005361e-06
2.0006518e-06
2.0007797e-06
2.0009215e-06
2.0010792e-06
2.0012555e-06
2.0014543e-06
2.0016807e-06
2.0019439e-06
2.0022526e-06
2.0026394e-06
2.0030997e-06
2.0038244e-06
2.004593e-06
2.0071895e-06
2.0079982e-06
8.1282581e-07
8.545123e-07
8.8810612e-07
8.9694067e-07
8.9865955e-07
8.9785761e-07
8.9542516e-07
8.9184236e-07
8.875273e-07
8.8282073e-07
8.7796577e-07
8.7311961e-07
8.683765e-07
8.6378964e-07
8.5938732e-07
8.5518234e-07
8.5117715e-07
8.4736746e-07
8.4374499e-07
8.402996e-07
8.3702047e-07
8.338967e-07
8.3091775e-07
8.2807364e-07
8.2535483e-07
8.2275249e-07
8.2025861e-07
8.1786572e-07
8.1556683e-07
8.1335565e-07
8.1122648e-07
8.0917391e-07
8.0719288e-07
8.0527889e-07
8.0342784e-07
8.0163586e-07
7.9989929e-07
7.9821483e-07
7.9657951e-07
7.9499057e-07
7.9344535e-07
7.9194138e-07
7.9047646e-07
7.8904854e-07
7.8765572e-07
7.8629613e-07
7.8496804e-07
7.8366988e-07
7.824002e-07
7.811576e-07
7.7994075e-07
7.7874837e-07
7.7757928e-07
7.7643239e-07
7.753067e-07
7.742012e-07
7.7311496e-07
7.7204708e-07
7.7099672e-07
7.6996308e-07
7.6894538e-07
7.6794284e-07
7.6695475e-07
7.6598037e-07
7.6501903e-07
7.640701e-07
7.6313294e-07
7.6220695e-07
7.6129156e-07
7.6038618e-07
7.5949027e-07
7.5860325e-07
7.5772454e-07
7.5685357e-07
7.5598975e-07
7.5513254e-07
7.5428142e-07
7.5343587e-07
7.5259537e-07
7.5175934e-07
7.5092719e-07
7.5009828e-07
7.4927195e-07
7.4844756e-07
7.4762455e-07
7.4680234e-07
7.4598036e-07
7.451579e-07
7.4433504e-07
7.4352774e-07
7.4275746e-07
7.4202765e-07
7.4133352e-07
7.4067136e-07
7.4003813e-07
7.3943127e-07
7.3884866e-07
7.3828853e-07
7.3774934e-07
7.3722974e-07
7.3672849e-07
7.3624447e-07
7.3577663e-07
7.3532397e-07
7.3488559e-07
7.3446042e-07
7.3404803e-07
7.3364534e-07
7.3325755e-07
7.3286012e-07
7.3251944e-07
7.3195016e-07
1.9999955e-06
2.0000177e-06
2.0000652e-06
2.000128e-06
2.0002024e-06
2.0002877e-06
2.0003838e-06
2.000491e-06
2.0006098e-06
2.0007411e-06
2.0008859e-06
2.0010459e-06
2.0012234e-06
2.0014211e-06
2.0016433e-06
2.0018955e-06
2.0021874e-06
2.0025282e-06
2.0029528e-06
2.0034556e-06
2.0042391e-06
2.0050665e-06
2.0078023e-06
2.0089019e-06
8.6378711e-07
9.2482984e-07
9.7770988e-07
9.958776e-07
1.0026558e-06
1.0052469e-06
1.0052619e-06
1.0034321e-06
1.0003284e-06
9.9641834e-07
9.9205183e-07
9.8746927e-07
9.8282622e-07
9.7822047e-07
9.7371314e-07
9.693413e-07
9.6512527e-07
9.6107382e-07
9.5718826e-07
9.5346548e-07
9.4989993e-07
9.464846e-07
9.4321186e-07
9.4007389e-07
9.3706271e-07
9.3417066e-07
9.3139058e-07
9.2871561e-07
9.2613917e-07
9.2365523e-07
9.2125828e-07
9.1894299e-07
9.1670432e-07
9.1453773e-07
9.1243907e-07
9.1040439e-07
9.0842989e-07
9.0651213e-07
9.0464805e-07
9.0283473e-07
9.0106938e-07
8.9934936e-07
8.9767233e-07
8.9603614e-07
8.9443871e-07
8.9287808e-07
8.9135236e-07