/*--------------------------------*- C++ -*----------------------------------*\
  =========                 |
  \\      /  F ield         | OpenFOAM: The Open Source CFD Toolbox
   \\    /   O peration     | Website:  https://openfoam.org
    \\  /    A nd           | Version:  12
     \\/     M anipulation  |
\*---------------------------------------------------------------------------*/
FoamFile
{
    format      ascii;
    class       volScalarField;
    location    "100";
    object      p;
}
// * * * * * * * * * * * * * * * * * * * * * * * * * * * * * * * * * * * * * //

dimensions      [0 2 -2 0 0 0 0];

internalField   nonuniform List<scalar> 
7480
(
0.0087120074
0.0081230017
0.0070152342
0.006406393
0.0061070227
0.0058613258
0.0056007712
0.0053476163
0.0051076127
0.0048692748
0.0046262011
0.0043779863
0.0041353145
0.0039172728
0.0037469024
0.0036351842
0.0035800835
0.0035475844
0.0035240789
0.0035077788
0.0034985555
0.003488693
0.0034760686
0.0034495525
0.0034106474
0.0033677915
0.0033251779
0.003285022
0.0032447068
0.0032048571
0.0031663625
0.0031292523
0.0030941655
0.0030591474
0.0030208278
0.0029797311
0.0029376126
0.0028960222
0.0028562834
0.0028182226
0.0027811421
0.002745034
0.0027099771
0.0026759452
0.0026425591
0.0026092253
0.002575427
0.0025414501
0.0025076632
0.0024732601
0.0024366869
0.0023981462
0.0023614711
0.0023278757
0.0022956191
0.0022625674
0.0022275276
0.0021897777
0.0021505468
0.0021114245
0.0020723265
0.002032674
0.0019925262
0.0019519826
0.0019108484
0.0018691593
0.0018270449
0.0017844201
0.0017412505
0.001697594
0.0016533259
0.0016084038
0.0015628835
0.0015166405
0.0014696787
0.0014220016
0.0013734579
0.0013240775
0.0012737861
0.0012224091
0.0011699268
0.001116381
0.0010613729
0.00099628218
0.00092657824
0.00086992383
0.00081532727
0.00075934491
0.00070344008
0.00064813379
0.00059315935
0.00053819608
0.00048336736
0.00042853003
0.0003758443
0.00032258094
0.00028562629
0.00022734669
0.00038611388
-0.00027922049
0.0082756661
0.0076942685
0.0068297689
0.0063029531
0.0060341655
0.0058091721
0.0055670172
0.0053305
0.0051101361
0.0048974665
0.0046870087
0.0044777674
0.004277714
0.0040976264
0.0039474979
0.0038333126
0.0037496434
0.0036943988
0.0036540164
0.0036205754
0.0035884268
0.0035550947
0.0035155387
0.0034701312
0.0034230517
0.0033760443
0.0033321463
0.0032916101
0.0032518048
0.0032127136
0.0031748111
0.003138035
0.0031026574
0.0030669026
0.0030281836
0.0029871384
0.0029453276
0.0029040972
0.0028645726
0.0028264786
0.0027891541
0.0027526913
0.0027172361
0.0026828044
0.002648945
0.002615076
0.0025807863
0.002546278
0.0025116974
0.0024764095
0.0024394559
0.0024018314
0.0023661215
0.0023327725
0.0023000496
0.0022664016
0.0022309517
0.0021930001
0.0021536658
0.002114451
0.0020752563
0.0020355151
0.0019952861
0.001954665
0.0019134527
0.001871685
0.0018294904
0.0017867819
0.0017435265
0.0016997843
0.0016554314
0.0016104262
0.0015648247
0.0015185024
0.0014714635
0.0014237115
0.0013750969
0.001325651
0.0012752976
0.0012238589
0.0011712979
0.0011175372
0.0010612246
0.00099657301
0.00093047356
0.0008746879
0.00081949572
0.00076267065
0.00070614909
0.00065037888
0.0005950473
0.00053982106
0.00048479831
0.00042980783
0.00037700162
0.00032363409
0.00028658841
0.00022833177
0.00038715313
-0.00027846183
0.0079845998
0.0075738885
0.0068966337
0.0063820143
0.0060915938
0.0058536971
0.0056054143
0.0053618901
0.0051342994
0.004914413
0.0046962641
0.0044774467
0.004265967
0.0040721986
0.0039077369
0.003781458
0.0036944877
0.0036438968
0.0036146868
0.0035928414
0.0035699258
0.0035436595
0.0035124916
0.0034787017
0.0034420388
0.0034023769
0.0033614525
0.0033200126
0.0032783236
0.0032366731
0.0031955971
0.0031551979
0.0031161991
0.0030777815
0.003037689
0.0029960416
0.0029539832
0.0029126707
0.0028731198
0.0028349652
0.0027974995
0.0027608378
0.0027251399
0.0026904431
0.0026562003
0.0026218313
0.0025870656
0.0025521291
0.0025171119
0.0024814305
0.0024443838
0.0024068326
0.0023707652
0.0023369213
0.0023037808
0.0022699115
0.002234371
0.0021964076
0.0021570624
0.0021177968
0.0020785272
0.0020386928
0.001998365
0.0019576404
0.0019163244
0.0018744592
0.0018321715
0.0017893703
0.0017460227
0.0017021903
0.0016577494
0.001612659
0.0015669753
0.001520573
0.0014734569
0.0014256305
0.0013769432
0.0013274259
0.0012770033
0.0012254992
0.0011728787
0.0011189984
0.0010623016
0.00099857342
0.00093473933
0.00087900346
0.0008234633
0.00076618073
0.00070920486
0.00065302025
0.00059734225
0.00054183261
0.00048657197
0.00043138405
0.00037841843
0.00032491813
0.00028777258
0.00022955228
0.00038832209
-0.00027753401
0.0077589085
0.0074416848
0.0068454866
0.006341295
0.0060404819
0.0058051177
0.0055649173
0.005327913
0.0051061306
0.0048932039
0.0046830155
0.0044734771
0.0042725085
0.0040898111
0.0039359522
0.0038182755
0.0037369738
0.0036865968
0.0036530792
0.0036235587
0.0035924318
0.0035590566
0.0035228973
0.0034851835
0.0034451215
0.0034035066
0.0033612699
0.0033190445
0.0032783936
0.0032390742
0.0032008938
0.0031636004
0.003126588
0.0030887741
0.00304898
0.0030071996
0.0029644477
0.0029220365
0.002881357
0.0028423537
0.0028043422
0.0027673035
0.0027313158
0.0026964459
0.0026620811
0.0026275434
0.0025925555
0.0025574058
0.0025221761
0.002486197
0.0024489
0.0024110194
0.002374525
0.0023403333
0.0023069895
0.0022730071
0.0022373947
0.0021994242
0.0021600836
0.002120783
0.0020814545
0.0020415449
0.0020011411
0.0019603387
0.0019189432
0.0018770048
0.0018346457
0.0017917688
0.0017483435
0.0017044334
0.0016599148
0.0016147475
0.0015689879
0.0015225104
0.0014753205
0.0014274216
0.0013786613
0.0013290711
0.0012785771
0.0012270067
0.0011743333
0.0011204506
0.0010641205
0.0010009417
0.00093781236
0.00088195381
0.00082628791
0.00076879706
0.00071157308
0.00065514597
0.00059924077
0.00054351967
0.00048807401
0.0004327331
0.00037964175
0.00032603579
0.00028881325
0.00023050455
0.00038933755
-0.00027674419
0.0075525255
0.00729113
0.0067760684
0.0063175925
0.0060268618
0.0058001915
0.0055685414
0.0053364419
0.0051173268
0.0049070016
0.0046997983
0.004493987
0.0042966375
0.0041165982
0.0039629184
0.0038422438
0.0037550441
0.0036966109
0.0036557259
0.0036213673
0.0035881726
0.0035546496
0.0035193837
0.003482487
0.0034433356
0.0034025846
0.0033608917
0.0033190096
0.0032784459
0.0032389767
0.0032006134
0.0031634979
0.0031265235
0.0030886779
0.0030497363
0.0030095671
0.0029688523
0.0029284136
0.0028888004
0.0028500663
0.0028120118
0.002774529
0.0027377893
0.0027022002
0.0026673487
0.002632506
0.0025972901
0.0025619967
0.002526649
0.0024905024
0.002453047
0.0024150089
0.002378338
0.0023439224
0.0023103687
0.0022762026
0.0022404506
0.0022024278
0.0021630664
0.002123715
0.0020843199
0.0020443413
0.0020038731
0.0019630019
0.0019215352
0.0018795362
0.001837115
0.0017941679
0.0017506703
0.0017066879
0.0016620961
0.0016168556
0.0015710232
0.0015244726
0.0014772102
0.0014292397
0.0013804079
0.0013307474
0.0012801839
0.0012285454
0.0011758062
0.0011218786
0.0010657509
0.0010031015
0.00094063416
0.00088480237
0.00082901844
0.00077134634
0.00071390566
0.00065725971
0.00060113836
0.00054521414
0.00048959292
0.00043410623
0.00038089312
0.00032718327
0.00028987398
0.00023144158
0.00039032303
-0.00027587028
0.0073635597
0.0071456052
0.0067082724
0.006295241
0.0060094324
0.0057825867
0.0055540982
0.0053248361
0.005107623
0.0049003393
0.0046960974
0.0044953645
0.0043031922
0.0041276758
0.0039770668
0.0038574348
0.0037694993
0.0037090951
0.0036665255
0.0036314041
0.0035978801
0.0035638677
0.0035279164
0.0034900973
0.0034501856
0.0034087829
0.0033665233
0.0033241786
0.0032830121
0.0032429333
0.0032039462
0.0031660447
0.003128148
0.0030894997
0.0030500245
0.0030095721
0.0029688513
0.0029286019
0.0028890164
0.0028505235
0.0028133556
0.0027772038
0.0027418243
0.002707013
0.0026724085
0.0026375714
0.002602084
0.0025663644
0.0025306457
0.0024942415
0.0024566408
0.0024185572
0.0023818375
0.0023472662
0.0023135303
0.0022792131
0.0022433582
0.002205298
0.0021659184
0.0021265264
0.0020870837
0.0020470538
0.0020065365
0.0019656092
0.0019240836
0.0018820355
0.0018395626
0.0017965554
0.0017529957
0.0017089508
0.0016642948
0.0016189895
0.0015730921
0.0015264752
0.0014791469
0.0014311105
0.0013822126
0.0013324869
0.0012818587
0.001230156
0.0011773519
0.0011233539
0.0010672365
0.0010051344
0.00094341715
0.00088774976
0.00083190308
0.00077407842
0.00071642516
0.00065954759
0.00060319927
0.00054706502
0.00049125732
0.00043561109
0.00038226249
0.00032843734
0.0002910218
0.00023245974
0.00039131652
-0.00027480709
0.0071910146
0.0070070443
0.0066356003
0.0062634655
0.0059848165
0.005760221
0.0055385159
0.0053160115
0.0051035454
0.0049011592
0.0047008629
0.0045056285
0.0043186747
0.0041474596
0.0039995641
0.0038804195
0.0037908341
0.0037270772
0.0036806817
0.0036421465
0.0036057396
0.003569344
0.0035316826
0.0034926849
0.003452138
0.0034104053
0.0033680274
0.0033256903
0.0032844683
0.0032443852
0.0032053811
0.0031673713
0.003129443
0.0030909028
0.0030515749
0.0030112733
0.00297059
0.0029301569
0.0028902263
0.0028513839
0.0028139265
0.0027776188
0.0027421938
0.0027072651
0.0026727947
0.002638624
0.0026042362
0.0025693857
0.0025340192
0.002497799
0.0024601901
0.0024219497
0.0023850033
0.0023501632
0.0023162044
0.002281754
0.0022458498
0.0022078008
0.0021684397
0.0021290429
0.0020895876
0.0020495361
0.0020089961
0.0019680386
0.0019264764
0.0018843947
0.001841886
0.0017988365
0.0017552312
0.0017111392
0.001666433
0.0016210759
0.0015751256
0.0015284536
0.0014810694
0.0014329764
0.0013840207
0.0013342376
0.0012835517
0.0012317918
0.0011789315
0.0011248694
0.0010686948
0.0010071016
0.00094610937
0.00089064319
0.00083478339
0.0007768529
0.00071901772
0.00066192311
0.00060535319
0.00054900968
0.00049301288
0.00043720212
0.0003837113
0.00032976543
0.00029223026
0.00023353263
0.00039227716
-0.00027353707
0.0070328661
0.006875081
0.0065585877
0.0062251682
0.0059578833
0.0057376001
0.00552283
0.0053066767
0.0050982813
0.0048989999
0.004702998
0.0045122404
0.0043298112
0.0041624234
0.0040169427
0.0038982295
0.0038071702
0.003740504
0.0036908833
0.0036497464
0.0036115418
0.0035739798
0.0035357033
0.0034963622
0.0034556792
0.0034138875
0.0033715017
0.00332917
0.0032878364
0.0032476024
0.0032083737
0.0031700439
0.0031318394
0.0030930864
0.003053576
0.0030131796
0.0029724258
0.0029319332
0.0028920126
0.0028531842
0.0028156677
0.0027792027
0.0027434827
0.0027081782
0.0026733672
0.0026389509
0.0026045103
0.0025695584
0.0025341165
0.0024982873
0.0024615258
0.0024241331
0.002387604
0.0023528469
0.002318758
0.0022840733
0.0022479978
0.0022098984
0.0021705336
0.0021311386
0.0020917004
0.0020516629
0.0020111364
0.0019701845
0.0019286158
0.0018865256
0.0018440047
0.001800935
0.0017573044
0.0017131844
0.0016684455
0.0016230529
0.0015770651
0.0015303518
0.0014829248
0.0014347871
0.0013857843
0.0013359536
0.0012852189
0.00123341
0.0011805021
0.001126385
0.0010701527
0.0010090301
0.00094869881
0.00089341638
0.00083756565
0.00077956769
0.00072158613
0.00066430066
0.00060752571
0.00055098328
0.00049480391
0.0004388322
0.0003851996
0.00033113342
0.0002934698
0.00023462867
0.00039316146
-0.0002720434
0.0068871843
0.006749787
0.0064791452
0.0061818859
0.0059283106
0.0057131202
0.0055047754
0.0052950281
0.0050912414
0.0048958407
0.0047047693
0.0045188244
0.0043412065
0.0041778991
0.0040350865
0.0039171574
0.0038250496
0.0037559328
0.0037034064
0.0036597666
0.0036196512
0.0035806075
0.0035412254
0.0035010055
0.0034596821
0.0034174378
0.0033747543
0.0033322228
0.0032906501
0.0032501731
0.0032106809
0.003172047
0.0031335973
0.0030946829
0.0030550819
0.0030147023
0.0029740014
0.0029335627
0.0028937033
0.0028548733
0.0028172827
0.0027807185
0.0027449006
0.0027095432
0.0026746787
0.0026401567
0.0026055255
0.0025703016
0.0025345915
0.0024985756
0.0024618098
0.0024244516
0.0023878939
0.0023533018
0.0023197255
0.0022855365
0.0022497149
0.0022117958
0.0021724588
0.0021329758
0.0020934702
0.002053411
0.0020128928
0.0019719678
0.0019304216
0.001888353
0.0018458497
0.0018027869
0.0017591559
0.0017150309
0.0016702801
0.0016248712
0.0015788639
0.001532126
0.0014846716
0.0014365036
0.0013874668
0.0013376006
0.0012868281
0.0012349803
0.0011820337
0.0011278685
0.0010715941
0.001010918
0.00095119434
0.00089606975
0.00084023392
0.00078219358
0.00072409477
0.00066664414
0.00060968358
0.00055295623
0.00049660436
0.00044047865
0.00038670769
0.00033252415
0.00029472471
0.00023573197
0.0003939362
-0.00027029403
0.0067521827
0.0066309915
0.0063985098
0.0061342175
0.0058956582
0.0056865965
0.0054848065
0.0052819324
0.005083467
0.0048924266
0.0047061751
0.0045249342
0.0043518866
0.0041924126
0.0040520986
0.0039349286
0.0038418548
0.0037704318
0.0037150809
0.0036689096
0.0036268125
0.0035862474
0.003545779
0.0035047986
0.0034630137
0.0034205247
0.0033777345
0.0033351573
0.003293476
0.0032528522
0.0032131767
0.0031743069
0.0031356518
0.0030965992
0.0030569185
0.0030165407
0.0029758641
0.0029354371
0.0028955837
0.0028567107
0.0028190299
0.0027823622
0.0027464388
0.0027109865
0.0026759974
0.0026413256
0.0026065619
0.0025712748
0.0025355473
0.0024995001
0.0024626943
0.0024252479
0.0023885062
0.0023536627
0.0023199272
0.0022855885
0.0022496986
0.0022120991
0.0021733348
0.0021342806
0.0020949712
0.0020549888
0.0020144352
0.0019734674
0.0019319057
0.0018898458
0.0018473703
0.0018043357
0.0017607299
0.001716626
0.0016718876
0.0016264851
0.0015804792
0.0015337357
0.0014862716
0.0014380899
0.0013890341
0.0013391467
0.0012883496
0.001236475
0.0011835009
0.0011292961
0.0010729945
0.001012746
0.00095358968
0.0008986035
0.00084278412
0.000784719
0.00072652664
0.0006689345
0.00061180823
0.00055491149
0.0004983987
0.00044212745
0.00038822293
0.0003339262
0.0002959841
0.00023683139
0.00039456988
-0.00026824833
0.0066264229
0.0065183934
0.0063176204
0.006082908
0.0058600654
0.0056582526
0.0054632367
0.0052674347
0.0050746634
0.0048881979
0.0047066693
0.0045301612
0.0043616597
0.0042060224
0.0040682896
0.0039520691
0.0038583
0.0037848858
0.0037269749
0.0036784351
0.0036344606
0.0035924605
0.0035509631
0.0035092571
0.0034669972
0.0034242061
0.0033812161
0.0033384839
0.0032965992
0.0032557434
0.0032158165
0.0031766617
0.0031377565
0.0030985285
0.00305874
0.0030183382
0.0029776724
0.0029372543
0.0028974103
0.0028585091
0.0028207532
0.0027839876
0.002747954
0.0027123949
0.0026772814
0.0026424794
0.002607613
0.0025722759
0.0025365062
0.0025004007
0.0024635896
0.0024262047
0.0023894908
0.0023545409
0.0023205989
0.0022860109
0.002249911
0.0022122289
0.0021734733
0.0021343817
0.002095133
0.0020555304
0.002015385
0.0019746481
0.001933205
0.0018911507
0.0018486519
0.0018056065
0.0017620118
0.0017179351
0.0016732261
0.0016278515
0.0015818697
0.0015351418
0.0014876883
0.0014395113
0.0013904535
0.0013405608
0.0012897539
0.0012378664
0.0011848778
0.0011306449
0.00107433
0.0010144893
0.00095586484
0.00090100432
0.00084520372
0.00078712859
0.00072886387
0.00067115312
0.00061388184
0.00055683259
0.00050017186
0.0004437649
0.00038973284
0.00033532826
0.00029723711
0.00023791528
0.00039501811
-0.00026586075
0.0065087421
0.0064115984
0.0062371871
0.006028717
0.005821749
0.0056281361
0.0054401012
0.0052514438
0.0050646726
0.0048830763
0.0047063511
0.0045346644
0.004370714
0.0042188878
0.0040837394
0.0039685457
0.0038742348
0.0037990353
0.0037387436
0.0036879283
0.0036421052
0.0035986698
0.0035561142
0.0035136439
0.0034708618
0.0034277281
0.0033845121
0.0033416169
0.0032995485
0.0032584899
0.0032183464
0.0031789472
0.0031398258
0.0031004507
0.0030605797
0.0030201705
0.0029795302
0.0029391321
0.0028993006
0.0028603711
0.002822536
0.0027856649
0.0027495159
0.0027138493
0.0026786189
0.0026436949
0.0026087249
0.0025733237
0.0025374977
0.0025013347
0.0024645275
0.0024272031
0.0023904929
0.0023554107
0.002321291
0.0022865896
0.0022504514
0.0022127684
0.0021739673
0.0021347393
0.0020953523
0.0020557103
0.0020155225
0.0019747727
0.00193357
0.0018918749
0.0018496304
0.0018067031
0.0017631266
0.0017190371
0.0016743227
0.0016289632
0.0015830105
0.0015363124
0.0014888882
0.0014407357
0.0013916941
0.0013418137
0.0012910132
0.0012391278
0.0011861391
0.0011318917
0.0010755778
0.0010161229
0.00095799453
0.0009032512
0.00084747386
0.00078940284
0.00073108597
0.00067327967
0.0006158853
0.00055870202
0.00050190788
0.00044537649
0.00039122421
0.00033671828
0.00029847219
0.00023897264
0.00039523367
-0.00026308427
0.0063981719
0.006310172
0.0061577287
0.005972346
0.0057809674
0.0055962852
0.0054154641
0.0052339998
0.0050534899
0.0048770559
0.0047052263
0.0045383815
0.0043789412
0.0042308708
0.0040982998
0.0039842208
0.0038895531
0.0038128177
0.0037503796
0.0036974422
0.0036498521
0.0036050256
0.0035614277
0.0035181995
0.0034748952
0.0034314178
0.0033879741
0.0033449118
0.0033026602
0.0032613945
0.0032210265
0.0031813778
0.0031420304
0.0031024947
0.0030625276
0.003022093
0.0029814614
0.0029410683
0.0029012335
0.0028622649
0.0028243451
0.0027873669
0.0027511045
0.0027153324
0.0026799876
0.0026449413
0.0026098642
0.002574394
0.0025385133
0.0025022988
0.0024654933
0.0024282161
0.0023914974
0.0023562855
0.0023220018
0.0022871925
0.002251
0.0022133029
0.0021745081
0.0021352803
0.0020958885
0.0020562029
0.0020159097
0.0019750345
0.0019337675
0.0018920396
0.0018497751
0.0018070071
0.0017637302
0.0017198706
0.001675262
0.0016299225
0.0015839656
0.0015372697
0.0014898651
0.0014417435
0.001392731
0.0013428789
0.0012921017
0.0012402344
0.0011872609
0.0011330143
0.0010767171
0.0010176235
0.00095995264
0.00090532024
0.00084957302
0.00079152053
0.00073317129
0.0006752928
0.00061779856
0.00056050142
0.00050359005
0.00044694703
0.00039268317
0.00033808364
0.00029967719
0.00023999002
0.00039517746
-0.00025986639
0.0062938969
0.0062136824
0.0060796111
0.0059144204
0.0057380217
0.0055627708
0.0053894005
0.0052151574
0.0050410964
0.0048700718
0.0047032285
0.0045412309
0.004386274
0.0042419361
0.0041119692
0.0039991159
0.0039042846
0.0038262542
0.0037618896
0.0037069688
0.0036576749
0.0036114811
0.0035668388
0.0035228411
0.0034789967
0.0034351558
0.0033914641
0.0033482149
0.0033057697
0.0032642902
0.0032236953
0.003183803
0.0031442357
0.0031045429
0.0030644835
0.0030240231
0.0029834
0.0029430138
0.002903177
0.0028641738
0.0028261765
0.0027890972
0.0027527259
0.0027168493
0.0026813902
0.0026462213
0.0026110361
0.0025754945
0.0025395586
0.0025032923
0.0024664824
0.0024292444
0.0023925171
0.0023571841
0.0023227401
0.0022878164
0.0022515616
0.0022138504
0.0021750698
0.0021358429
0.0020964309
0.0020567129
0.0020164051
0.0019755309
0.0019342407
0.0018924352
0.0018500559
0.0018072151
0.0017639062
0.0017200259
0.0016755517
0.0016304668
0.001584701
0.001538092
0.0014907005
0.0014425806
0.0013935794
0.0013437499
0.001293003
0.0012411661
0.0011882222
0.0011339919
0.0010777287
0.0010189701
0.00096171459
0.00090718749
0.00085147941
0.00079346042
0.00073509811
0.00067717078
0.0006196009
0.00056221167
0.00050520094
0.00044846066
0.00039409519
0.00033941103
0.00030083935
0.00024095183
0.00039480037
-0.0002561441
0.0061952271
0.0061217193
0.0060030786
0.0058554804
0.0056932364
0.0055276907
0.0053619795
0.0051949699
0.0050274795
0.0048620695
0.0047003115
0.0045431718
0.0043926819
0.0042520657
0.0041247332
0.0040132075
0.003918387
0.003839281
0.0037731977
0.0037164358
0.0036655145
0.0036179933
0.0035723237
0.0035275631
0.003483178
0.003438969
0.0033950231
0.0033515801
0.0033089409
0.0032672493
0.0032264302
0.0031863008
0.0031465171
0.0031066663
0.0030665115
0.0030260182
0.002985397
0.0029450132
0.0029051694
0.0028661292
0.0028280536
0.002790872
0.0027543895
0.0027184045
0.0026828288
0.0026475362
0.0026122413
0.0025766253
0.002540632
0.0025043136
0.0024674959
0.0024302925
0.0023935563
0.0023581062
0.0023235018
0.0022884604
0.0022521436
0.0022144202
0.0021756524
0.0021364203
0.0020969833
0.0020572376
0.0020169197
0.0019760368
0.0019347224
0.0018928968
0.0018505137
0.001807657
0.0017642836
0.0017202993
0.0016757581
0.0016306409
0.0015848625
0.0015384015
0.001491227
0.0014432452
0.0013943111
0.0013444898
0.0012937482
0.0012419299
0.0011890151
0.0011348101
0.0010785968
0.001020145
0.00096325877
0.00090883078
0.00085317264
0.00079520285
0.00073684606
0.00067889241
0.00062127143
0.00056381315
0.00050672251
0.00044990082
0.00039544505
0.00034068647
0.00030194519
0.0002418437
0.00039405869
-0.00025185146
0.0061015746
0.0060339025
0.0059282836
0.0057959822
0.0056469407
0.0054911678
0.0053332705
0.0051734938
0.0050126434
0.0048530103
0.0046964356
0.0045441663
0.0043981269
0.0042612242
0.0041365587
0.0040264597
0.0039318193
0.0038518528
0.0037842619
0.0037258146
0.003673358
0.003624561
0.0035778885
0.0035323729
0.0034874443
0.0034428575
0.0033986443
0.0033549935
0.0033121517
0.0032702426
0.003229196
0.0031888308
0.003148832
0.0031088219
0.0030685703
0.0030280407
0.0029874188
0.0029470368
0.0029071851
0.0028681084
0.002829957
0.0027926745
0.0027560816
0.0027199875
0.0026842957
0.0026488805
0.0026134762
0.0025777837
0.0025417322
0.0025053625
0.0024685351
0.0024313616
0.0023946146
0.00235905
0.0023242863
0.0022891261
0.002252747
0.0022150093
0.0021762505
0.0021370121
0.0020975518
0.0020577802
0.0020174488
0.0019765516
0.0019352146
0.0018933746
0.0018509832
0.0018081079
0.0017647133
0.0017207209
0.001676163
0.0016309858
0.0015851146
0.0015386036
0.0014913962
0.0014434195
0.0013946496
0.0013450129
0.0012943673
0.0012425892
0.0011896857
0.0011354884
0.0010793226
0.0010211398
0.00096456979
0.00091023147
0.00085463481
0.00079673077
0.00073839738
0.00068043839
0.00062279017
0.00056528638
0.00050813646
0.00045125057
0.00039671705
0.00034189538
0.00030298058
0.0002426501
0.00039290527
-0.00024692267
0.0060124351
0.0059498852
0.0058553106
0.0057363023
0.0055994539
0.0054533459
0.0053033479
0.0051507888
0.0049966046
0.0048428662
0.0046915628
0.0045441771
0.0044025719
0.004269379
0.0041474179
0.0040388459
0.0039445513
0.0038639336
0.0037950433
0.0037350702
0.0036811765
0.0036311589
0.0035835101
0.0035372485
0.0034917744
0.0034468015
0.0034023109
0.0033584426
0.0033153939
0.0032732675
0.0032319957
0.0031914014
0.003151194
0.003111028
0.003070681
0.0030301134
0.002989488
0.0029491057
0.0029092428
0.0028701276
0.0028318998
0.0027945158
0.0027578112
0.0027216061
0.0026857969
0.002650259
0.0026147445
0.002578973
0.0025428621
0.0025064417
0.002469602
0.0024324528
0.0023956924
0.002360016
0.0023250947
0.0022898144
0.0022533715
0.002215617
0.0021768647
0.00213762
0.0020981369
0.0020583386
0.0020179916
0.0019770803
0.0019357231
0.0018938677
0.0018514633
0.0018085689
0.0017651578
0.0017211549
0.0016765793
0.0016313833
0.001585504
0.0015389718
0.001491702
0.0014436447
0.0013948362
0.0013451751
0.0012945792
0.0012429688
0.0011902106
0.0011360763
0.0010799578
0.0010219829
0.0009656558
0.00091138363
0.00085585434
0.00079803116
0.00073973801
0.00068179256
0.00062413927
0.00056661309
0.00050942508
0.00045249315
0.0003978954
0.00034302294
0.000303931
0.00024335443
0.00039127808
-0.00024128937
0.0059273741
0.0058693539
0.0057841948
0.0056767457
0.0055510758
0.0054143837
0.0052722929
0.0051269159
0.0049793889
0.0048316204
0.0046856602
0.0045431712
0.004405985
0.0042765009
0.004157285
0.00405034
0.0039565516
0.0038754841
0.0038054976
0.0037441605
0.0036889351
0.0036377595
0.0035891678
0.0035421753
0.0034961589
0.0034507966
0.0034060222
0.0033619296
0.0033186714
0.0032763281
0.0032348333
0.0031940146
0.0031536029
0.0031132815
0.0030728374
0.0030322272
0.0029915928
0.0029512062
0.0029113284
0.0028721725
0.0028338688
0.002796384
0.0027595683
0.0027232519
0.0026873263
0.0026516671
0.0026160431
0.0025801916
0.0025440207
0.0025075502
0.0024706958
0.0024335656
0.0023967892
0.0023610037
0.0023259269
0.0022905251
0.0022540167
0.0022162433
0.0021774955
0.0021382444
0.0020987383
0.0020589127
0.0020185492
0.0019776242
0.0019362469
0.0018943746
0.0018519567
0.0018090449
0.001765617
0.0017215997
0.0016770058
0.0016317943
0.0015859042
0.0015393541
0.0014920688
0.0014440036
0.0013951663
0.0013454394
0.0012947812
0.0012431407
0.0011903838
0.0011363624
0.0010804305
0.0010226951
0.00096656533
0.00091232202
0.00085684524
0.00079910489
0.00074086179
0.00068294391
0.00062530428
0.00056777713
0.00051057198
0.00045361267
0.0003989649
0.00034405462
0.00030478204
0.0002439395
0.00038912014
-0.00023488194
0.0058460148
0.0057920269
0.0057149372
0.0056175554
0.0055020791
0.0053744483
0.0052401944
0.0051019387
0.0049610296
0.0048192669
0.0046787017
0.0045411198
0.0044083382
0.0042825632
0.004166135
0.0040609154
0.0039677884
0.0038864651
0.0038155813
0.0037530446
0.0036966002
0.0036443367
0.0035948424
0.003547139
0.0035005874
0.0034548344
0.0034097714
0.0033654486
0.0033219779
0.0032794179
0.003237702
0.0031966632
0.0031560513
0.003115576
0.003075034
0.0030343783
0.0029937316
0.0029533386
0.0029134443
0.0028742475
0.0028358695
0.0027982856
0.00276136
0.0027249323
0.0026888905
0.0026531109
0.0026173773
0.0025814437
0.0025452111
0.0025086902
0.0024718178
0.0024347007
0.0023979054
0.0023620132
0.0023267827
0.0022912584
0.002254683
0.0022168888
0.0021781435
0.0021388854
0.0020993564
0.0020595033
0.0020191226
0.0019781835
0.0019367859
0.001894896
0.0018524644
0.0018095352
0.0017660893
0.0017220569
0.0016774458
0.0016322184
0.0015863142
0.0015397465
0.0014924483
0.0014443722
0.001395518
0.00134578
0.0012951115
0.0012434337
0.0011906175
0.0011365628
0.0010806501
0.0010230842
0.00096719154
0.00091304802
0.00085765015
0.00079999037
0.00074178909
0.00068389713
0.00062627937
0.00056876691
0.00051156323
0.00045459471
0.00039991146
0.00034497678
0.00030551991
0.00024438875
0.00038637816
-0.00022763329
0.0057680295
0.0057176519
0.0056475149
0.0055589212
0.0054527065
0.0053337084
0.0052071487
0.0050759236
0.0049415668
0.0048058098
0.0046706686
0.0045379988
0.0044096072
0.0042875422
0.0041739441
0.0040705467
0.003978231
0.0038968392
0.0038252521
0.0037616813
0.0037041366
0.0036508622
0.0036005115
0.0035521222
0.003505046
0.003458904
0.0034135495
0.0033689925
0.0033253077
0.0032825324
0.0032405985
0.003199345
0.0031585381
0.0031179114
0.0030772716
0.0030365681
0.002995906
0.0029555043
0.0029155914
0.0028763529
0.0028379013
0.0028002192
0.0027631839
0.0027266441
0.0026904859
0.0026545862
0.0026187427
0.0025827252
0.0025464296
0.0025098579
0.002472965
0.002435856
0.0023990394
0.0023630432
0.0023276617
0.0022920145
0.0022553708
0.0022175541
0.0021788093
0.0021395438
0.0020999918
0.002060111
0.0020197122
0.0019787584
0.0019373403
0.0018954324
0.0018529864
0.0018100394
0.0017665751
0.0017225273
0.0016778988
0.0016326546
0.0015867359
0.0015401516
0.0014928394
0.0014447499
0.0013958801
0.0013461319
0.0012954526
0.0012437639
0.0011909455
0.0011368814
0.0010809634
0.0010234642
0.00096758013
0.00091341797
0.00085814045
0.00080066089
0.000742551
0.00068468993
0.00062708538
0.000569587
0.00051239316
0.00045542877
0.00040072289
0.00034577705
0.00030613155
0.00024468729
0.00038300537
-0.0002194848
0.0056931319
0.0056460034
0.0055818889
0.0055009889
0.0054031695
0.0052923294
0.0051732576
0.00504894
0.0049210454
0.0047912621
0.0046615498
0.0045337889
0.0044097718
0.0042914174
0.004180691
0.0040792097
0.0039878498
0.0039065698
0.0038344681
0.0037700287
0.0037115075
0.0036573055
0.0036061508
0.0035571057
0.0035095197
0.0034629937
0.0034173476
0.0033725547
0.0033286556
0.0032856674
0.0032435195
0.0032020568
0.0031610605
0.0031202851
0.0030795476
0.003038794
0.0029981132
0.0029577003
0.0029177668
0.0028784855
0.0028399611
0.0028021821
0.0027650378
0.0027283859
0.0026921116
0.0026560929
0.0026201399
0.0025840374
0.0025476777
0.0025110555
0.0024741398
0.002437034
0.0024001933
0.0023640956
0.0023285658
0.0022927951
0.0022560815
0.0022182403
0.0021794937
0.0021402201
0.0021006449
0.0020607359
0.002020318
0.0019793489
0.0019379102
0.0018959837
0.0018535228
0.0018105577
0.0017670746
0.001723011
0.0016783648
0.0016331034
0.00158717
0.001540569
0.0014932419
0.001445139
0.0013962542
0.0013464943
0.0012958031
0.0012441053
0.0011912833
0.0011372234
0.0010813439
0.0010239326
0.00096800773
0.00091377666
0.00085847018
0.00080102842
0.00074302256
0.00068528657
0.00062774574
0.00057027158
0.00051308165
0.00045612014
0.00040139486
0.00034644672
0.00030660578
0.00024481814
0.000378972
-0.00021039521
0.0056210708
0.0055768797
0.00551801
0.0054438682
0.0053536492
0.0052504686
0.0051386268
0.0050210604
0.0048995147
0.0047756447
0.0046513424
0.0045284767
0.0044088164
0.0042941718
0.0041863566
0.0040868817
0.0039966164
0.0039156213
0.0038431883
0.0037780452
0.0037186749
0.0036636348
0.0036117344
0.003562069
0.0035139923
0.0034670907
0.0034211557
0.0033761271
0.0033320151
0.0032888175
0.0032464604
0.0032047945
0.0031636145
0.0031226936
0.003081859
0.0030410535
0.0030003511
0.0029599248
0.0029199691
0.0028806446
0.0028420485
0.0028041741
0.0027669219
0.0027301581
0.0026937683
0.0026576316
0.0026215696
0.0025853809
0.0025489561
0.0025122828
0.002475342
0.0024382343
0.0024013667
0.0023651695
0.0023294941
0.0022935996
0.0022568146
0.0022189466
0.0021801962
0.0021409135
0.0021013151
0.0020613777
0.0020209399
0.0019799549
0.0019384958
0.0018965503
0.0018540739
0.0018110906
0.0017675884
0.0017235084
0.0016788443
0.0016335654
0.001587617
0.0015409989
0.0014936566
0.00144554
0.0013966399
0.0013468677
0.0012961649
0.0012444578
0.0011916313
0.0011375752
0.0010817369
0.0010243984
0.000968453
0.00091420453
0.00085886015
0.00080140675
0.00074338737
0.00068564299
0.00062814774
0.00057077094
0.00051363828
0.00045669774
0.00040194711
0.00034699194
0.00030694263
0.00024475233
0.00037427812
-0.00020034745
0.0055516253
0.0055101002
0.0054558225
0.005387639
0.0053042983
0.0052082726
0.0051033628
0.0049923602
0.0048770276
0.0047589853
0.0046400511
0.004522055
0.0044067298
0.0042957921
0.0041909246
0.0040935418
0.0040045036
0.0039239594
0.0038513727
0.0037856889
0.0037256005
0.0036698169
0.003617235
0.0035669899
0.0035184462
0.003471181
0.0034249624
0.0033797009
0.003335379
0.0032919765
0.0032494161
0.0032075536
0.0031661961
0.0031251336
0.0030842028
0.0030433441
0.0030026177
0.002962176
0.0029221967
0.0028828287
0.0028441621
0.0028061939
0.0027688349
0.0027319598
0.0026954551
0.0026592013
0.0026230309