/*--------------------------------*- C++ -*----------------------------------*\
  =========                 |
  \\      /  F ield         | OpenFOAM: The Open Source CFD Toolbox
   \\    /   O peration     | Website:  https://openfoam.org
    \\  /    A nd           | Version:  12
     \\/     M anipulation  |
\*---------------------------------------------------------------------------*/
FoamFile
{
    format      ascii;
    class       volScalarField;
    location    "100";
    object      p;
}
// * * * * * * * * * * * * * * * * * * * * * * * * * * * * * * * * * * * * * //

dimensions      [0 2 -2 0 0 0 0];

internalField   nonuniform List<scalar> 
13056
(
0.0027757723
0.0027935979
0.0028326805
0.0028830519
0.0029428797
0.0030119122
0.0030897215
0.0031758585
0.0032701128
0.0033725799
0.0034836512
0.0036040237
0.0037347658
0.0038774555
0.0040343873
0.0042089869
0.0044062631
0.0046345184
0.0049055759
0.0052464238
0.0056846016
0.0063729949
0.0072715282
0.011278109
0.007809473
0.0026964997
0.0025922107
0.0030794136
0.0032033073
0.0031206688
0.0030034672
0.0028997035
0.002798123
0.002693778
0.0025920745
0.002497856
0.0024122958
0.0023344558
0.0022632485
0.0021978882
0.0021377808
0.0020824114
0.0020311276
0.0019836321
0.0019393164
0.0018979504
0.0018593412
0.0018229394
0.0017886698
0.0017564321
0.0017257893
0.0016965709
0.0016688403
0.0016424239
0.0016170161
0.0015926157
0.0015693059
0.0015469163
0.0015252157
0.001504184
0.00148393
0.0014643852
0.0014453392
0.0014267071
0.0014085748
0.0013910049
0.0013738654
0.0013570194
0.0013404267
0.001324172
0.0013083003
0.0012927002
0.0012772636
0.0012619502
0.0012468214
0.0012319324
0.0012172134
0.0012025683
0.0011879465
0.00117337
0.0011588995
0.0011445181
0.0011301412
0.0011157038
0.0011011846
0.0010866277
0.0010720556
0.0010574061
0.0010426072
0.0010276104
0.0010124294
0.00099709988
0.00098159185
0.00096583446
0.00094976337
0.00093335393
0.0009166273
0.00089957071
0.00088211112
0.00086417167
0.00084570649
0.00082672006
0.00080719204
0.00078703588
0.00076615033
0.00074447273
0.00072197367
0.00069857577
0.00067414588
0.00064854962
0.00062166446
0.00059334534
0.00056309278
0.00053161769
0.00050086762
0.0004713566
0.0004426418
0.00041450277
0.00038691932
0.00035990076
0.00033341849
0.00030743978
0.00028194984
0.00025697195
0.00023255519
0.00020874186
0.00018557667
0.00016311833
0.00014148925
0.00012081236
0.00010162272
8.3677067e-05
7.0942403e-05
5.4913226e-05
9.9533752e-05
-7.8988558e-05
0.0027757723
0.0027935979
0.0028326805
0.0028830519
0.0029428797
0.0030119122
0.0030897215
0.0031758585
0.0032701128
0.0033725799
0.0034836512
0.0036040238
0.0037347659
0.0038774556
0.0040343874
0.0042089871
0.0044062634
0.0046345187
0.0049055763
0.0052464245
0.0056846026
0.0063729974
0.0072715305
0.011261039
0.0078102869
0.002697167
0.0025923097
0.003079452
0.003203336
0.0031206943
0.0030034902
0.002899724
0.0027981412
0.0026937941
0.0025920888
0.0024978688
0.0024123073
0.0023344661
0.0022632577
0.0021978966
0.0021377885
0.0020824184
0.002031134
0.001983638
0.0019393217
0.0018979554
0.0018593459
0.0018229437
0.0017886738
0.0017564358
0.0017257927
0.0016965741
0.0016688433
0.0016424268
0.0016170188
0.0015926182
0.0015693083
0.0015469185
0.0015252178
0.001504186
0.0014839319
0.001464387
0.0014453409
0.0014267087
0.0014085764
0.0013910064
0.0013738668
0.0013570207
0.0013404279
0.0013241731
0.0013083014
0.0012927013
0.0012772646
0.0012619512
0.0012468224
0.0012319333
0.0012172142
0.0012025691
0.0011879473
0.0011733707
0.0011589001
0.0011445188
0.0011301418
0.0011157044
0.0011011851
0.0010866283
0.0010720561
0.0010574066
0.0010426076
0.0010276108
0.0010124299
0.00099710027
0.00098159221
0.00096583481
0.00094976371
0.00093335424
0.00091662759
0.00089957099
0.00088211138
0.00086417193
0.00084570673
0.00082672029
0.00080719225
0.00078703608
0.00076615052
0.00074447291
0.00072197384
0.00069857593
0.00067414603
0.00064854976
0.00062166459
0.00059334546
0.0005630929
0.00053161781
0.00050086772
0.0004713567
0.0004426419
0.00041450287
0.00038691941
0.00035990085
0.00033341857
0.00030743987
0.00028194992
0.00025697203
0.00023255526
0.00020874194
0.00018557674
0.0001631184
0.00014148932
0.00012081243
0.00010162279
8.3677126e-05
7.0942462e-05
5.4913284e-05
9.9533819e-05
-7.8988513e-05
0.0027757723
0.0027935979
0.0028326805
0.0028830519
0.0029428797
0.0030119122
0.0030897216
0.0031758586
0.0032701128
0.00337258
0.0034836512
0.0036040238
0.003734766
0.0038774557
0.0040343875
0.0042089872
0.0044062636
0.004634519
0.0049055768
0.0052464253
0.0056846038
0.0063730003
0.0072715321
0.01124482
0.0078111765
0.0026979396
0.0025924283
0.003079499
0.0032033711
0.0031207252
0.0030035179
0.0028997486
0.0027981628
0.0026938132
0.0025921057
0.0024978839
0.0024123207
0.0023344782
0.0022632686
0.0021979064
0.0021377974
0.0020824265
0.0020311414
0.0019836448
0.0019393281
0.0018979613
0.0018593513
0.0018229487
0.0017886785
0.0017564402
0.0017257968
0.0016965779
0.0016688469
0.0016424301
0.0016170219
0.0015926212
0.001569311
0.0015469212
0.0015252203
0.0015041883
0.0014839341
0.0014643891
0.0014453429
0.0014267106
0.0014085781
0.001391008
0.0013738684
0.0013570222
0.0013404294
0.0013241745
0.0013083027
0.0012927025
0.0012772658
0.0012619523
0.0012468234
0.0012319343
0.0012172152
0.00120257
0.0011879481
0.0011733715
0.0011589009
0.0011445195
0.0011301425
0.0011157051
0.0011011858
0.0010866289
0.0010720567
0.0010574071
0.0010426082
0.0010276113
0.0010124303
0.00099710072
0.00098159264
0.00096583522
0.00094976409
0.0009333546
0.00091662794
0.00089957132
0.00088211169
0.00086417222
0.00084570701
0.00082672055
0.0008071925
0.00078703632
0.00076615074
0.00074447312
0.00072197404
0.00069857611
0.00067414621
0.00064854992
0.00062166475
0.00059334561
0.00056309304
0.00053161794
0.00050086785
0.00047135682
0.00044264201
0.00041450298
0.00038691951
0.00035990096
0.00033341867
0.00030743996
0.00028195001
0.00025697212
0.00023255535
0.00020874202
0.00018557682
0.00016311848
0.0001414894
0.0001208125
0.00010162286
8.3677196e-05
7.0942531e-05
5.4913352e-05
9.9533898e-05
-7.8988462e-05
0.0027757723
0.0027935979
0.0028326805
0.0028830519
0.0029428797
0.0030119123
0.0030897216
0.0031758586
0.0032701129
0.00337258
0.0034836513
0.0036040239
0.003734766
0.0038774558
0.0040343876
0.0042089874
0.0044062638
0.0046345193
0.0049055773
0.0052464261
0.0056846049
0.0063730028
0.0072715336
0.01123036
0.0078121718
0.0026986521
0.0025925393
0.0030795444
0.003203405
0.0031207551
0.0030035449
0.0028997727
0.0027981842
0.0026938321
0.0025921225
0.0024978988
0.0024123341
0.0023344902
0.0022632795
0.0021979162
0.0021378064
0.0020824347
0.0020311489
0.0019836517
0.0019393344
0.0018979671
0.0018593567
0.0018229537
0.0017886832
0.0017564445
0.0017258009
0.0016965817
0.0016688504
0.0016424335
0.0016170251
0.0015926241
0.0015693138
0.0015469238
0.0015252228
0.0015041907
0.0014839363
0.0014643912
0.0014453448
0.0014267124
0.0014085799
0.0013910097
0.00137387
0.0013570237
0.0013404308
0.0013241759
0.001308304
0.0012927037
0.001277267
0.0012619534
0.0012468245
0.0012319353
0.0012172161
0.001202571
0.001187949
0.0011733723
0.0011589017
0.0011445203
0.0011301432
0.0011157057
0.0011011864
0.0010866295
0.0010720573
0.0010574077
0.0010426087
0.0010276118
0.0010124308
0.00099710117
0.00098159307
0.00096583562
0.00094976448
0.00093335497
0.00091662829
0.00089957165
0.00088211201
0.00086417252
0.00084570729
0.00082672081
0.00080719275
0.00078703656
0.00076615096
0.00074447333
0.00072197424
0.0006985763
0.00067414639
0.00064855009
0.0006216649
0.00059334576
0.00056309317
0.00053161807
0.00050086797
0.00047135694
0.00044264213
0.00041450309
0.00038691962
0.00035990106
0.00033341877
0.00030744006
0.00028195011
0.00025697221
0.00023255544
0.00020874211
0.0001855769
0.00016311856
0.00014148947
0.00012081258
0.00010162293
8.3677265e-05
7.09426e-05
5.4913417e-05
9.9533976e-05
-7.8988412e-05
0.0027757723
0.0027935979
0.0028326805
0.0028830519
0.0029428797
0.0030119123
0.0030897216
0.0031758586
0.0032701129
0.00337258
0.0034836513
0.0036040239
0.0037347661
0.0038774559
0.0040343878
0.0042089876
0.0044062641
0.0046345197
0.0049055777
0.0052464268
0.005684606
0.0063730053
0.0072715354
0.011216091
0.0078133253
0.0026992992
0.002592652
0.0030795912
0.0032034397
0.0031207858
0.0030035725
0.0028997974
0.0027982061
0.0026938515
0.0025921398
0.0024979143
0.0024123479
0.0023345026
0.0022632907
0.0021979264
0.0021378156
0.0020824431
0.0020311566
0.0019836588
0.0019393409
0.0018979731
0.0018593622
0.0018229589
0.001788688
0.001756449
0.0017258051
0.0016965856
0.0016688541
0.0016424369
0.0016170283
0.0015926272
0.0015693167
0.0015469265
0.0015252254
0.0015041931
0.0014839386
0.0014643933
0.0014453469
0.0014267144
0.0014085818
0.0013910115
0.0013738716
0.0013570253
0.0013404323
0.0013241773
0.0013083053
0.001292705
0.0012772682
0.0012619546
0.0012468256
0.0012319364
0.0012172171
0.0012025719
0.0011879499
0.0011733732
0.0011589025
0.0011445211
0.0011301439
0.0011157065
0.0011011871
0.0010866301
0.0010720579
0.0010574082
0.0010426092
0.0010276123
0.0010124313
0.00099710164
0.00098159351
0.00096583605
0.00094976488
0.00093335535
0.00091662865
0.00089957199
0.00088211233
0.00086417282
0.00084570758
0.00082672109
0.00080719301
0.0007870368
0.0007661512
0.00074447355
0.00072197444
0.00069857649
0.00067414657
0.00064855026
0.00062166506
0.00059334591
0.00056309332
0.0005316182
0.0005008681
0.00047135707
0.00044264225
0.0004145032
0.00038691973
0.00035990117
0.00033341888
0.00030744016
0.0002819502
0.0002569723
0.00023255553
0.00020874219
0.00018557699
0.00016311864
0.00014148955
0.00012081265
0.000101623
8.3677337e-05
7.0942671e-05
5.4913483e-05
9.9534057e-05
-7.8988361e-05
0.0027757723
0.0027935979
0.0028326805
0.0028830519
0.0029428797
0.0030119123
0.0030897216
0.0031758586
0.0032701129
0.0033725801
0.0034836514
0.003604024
0.0037347662
0.003877456
0.0040343879
0.0042089878
0.0044062643
0.00463452
0.0049055782
0.0052464276
0.0056846071
0.0063730078
0.0072715375
0.011201436
0.0078144736
0.0026998752
0.0025927737
0.0030796419
0.003203477
0.0031208186
0.0030036021
0.0028998238
0.0027982295
0.0026938723
0.0025921583
0.0024979308
0.0024123627
0.0023345159
0.0022633027
0.0021979372
0.0021378254
0.0020824521
0.0020311648
0.0019836663
0.0019393479
0.0018979796
0.0018593682
0.0018229644
0.0017886931
0.0017564538
0.0017258095
0.0016965898
0.0016688581
0.0016424406
0.0016170318
0.0015926304
0.0015693198
0.0015469294
0.0015252281
0.0015041957
0.001483941
0.0014643956
0.0014453491
0.0014267165
0.0014085837
0.0013910133
0.0013738734
0.0013570269
0.0013404339
0.0013241788
0.0013083068
0.0012927064
0.0012772695
0.0012619558
0.0012468268
0.0012319375
0.0012172182
0.0012025729
0.0011879509
0.0011733741
0.0011589034
0.0011445219
0.0011301447
0.0011157072
0.0011011878
0.0010866308
0.0010720586
0.0010574089
0.0010426098
0.0010276129
0.0010124318
0.00099710214
0.00098159399
0.0009658365
0.0009497653
0.00093335576
0.00091662903
0.00089957236
0.00088211268
0.00086417315
0.00084570789
0.00082672138
0.00080719329
0.00078703706
0.00076615144
0.00074447379
0.00072197467
0.0006985767
0.00067414676
0.00064855045
0.00062166524
0.00059334607
0.00056309347
0.00053161835
0.00050086824
0.0004713572
0.00044264238
0.00041450333
0.00038691985
0.00035990128
0.00033341899
0.00030744027
0.00028195031
0.0002569724
0.00023255562
0.00020874228
0.00018557707
0.00016311872
0.00014148963
0.00012081273
0.00010162308
8.3677413e-05
7.0942746e-05
5.4913553e-05
9.9534144e-05
-7.8988307e-05
0.0027757723
0.0027935979
0.0028326805
0.0028830519
0.0029428797
0.0030119123
0.0030897216
0.0031758586
0.003270113
0.0033725801
0.0034836514
0.0036040241
0.0037347663
0.0038774561
0.0040343881
0.004208988
0.0044062646
0.0046345204
0.0049055788
0.0052464285
0.0056846084
0.0063730106
0.0072715401
0.011186366
0.0078156454
0.0027004606
0.0025929085
0.0030796982
0.003203518
0.0031208546
0.0030036344
0.0028998527
0.0027982552
0.0026938951
0.0025921785
0.0024979488
0.0024123789
0.0023345304
0.0022633157
0.0021979491
0.0021378362
0.0020824619
0.0020311738
0.0019836746
0.0019393555
0.0018979866
0.0018593747
0.0018229705
0.0017886987
0.0017564591
0.0017258144
0.0016965944
0.0016688623
0.0016424446
0.0016170355
0.001592634
0.0015693231
0.0015469326
0.0015252311
0.0015041985
0.0014839437
0.0014643982
0.0014453515
0.0014267187
0.0014085859
0.0013910154
0.0013738753
0.0013570288
0.0013404356
0.0013241805
0.0013083083
0.0012927079
0.0012772709
0.0012619571
0.001246828
0.0012319387
0.0012172194
0.001202574
0.0011879519
0.0011733751
0.0011589043
0.0011445228
0.0011301456
0.001115708
0.0011011886
0.0010866315
0.0010720593
0.0010574095
0.0010426105
0.0010276135
0.0010124324
0.00099710269
0.00098159451
0.00096583699
0.00094976577
0.0009333562
0.00091662945
0.00089957275
0.00088211305
0.00086417351
0.00084570823
0.0008267217
0.00080719359
0.00078703735
0.00076615171
0.00074447404
0.00072197491
0.00069857693
0.00067414698
0.00064855065
0.00062166542
0.00059334625
0.00056309363
0.0005316185
0.00050086839
0.00047135734
0.00044264251
0.00041450346
0.00038691998
0.00035990141
0.00033341911
0.00030744038
0.00028195042
0.00025697251
0.00023255573
0.00020874239
0.00018557717
0.00016311882
0.00014148973
0.00012081282
0.00010162317
8.3677496e-05
7.0942829e-05
5.491363e-05
9.9534238e-05
-7.8988249e-05
0.0027757723
0.0027935979
0.0028326805
0.0028830519
0.0029428798
0.0030119123
0.0030897217
0.0031758587
0.003270113
0.0033725802
0.0034836515
0.0036040242
0.0037347664
0.0038774562
0.0040343882
0.0042089882
0.0044062649
0.0046345209
0.0049055794
0.0052464295
0.0056846098
0.0063730136
0.0072715432
0.01117093
0.0078168498
0.0027011854
0.0025930624
0.0030797624
0.0032035642
0.003120895
0.0030036707
0.0028998851
0.0027982839
0.0026939205
0.0025922011
0.002497969
0.0024123969
0.0023345466
0.0022633304
0.0021979623
0.0021378482
0.0020824729
0.0020311839
0.0019836838
0.001939364
0.0018979944
0.001859382
0.0018229772
0.001788705
0.0017564649
0.0017258199
0.0016965995
0.0016688671
0.0016424491
0.0016170398
0.001592638
0.0015693269
0.0015469361
0.0015252344
0.0015042016
0.0014839467
0.001464401
0.0014453541
0.0014267212
0.0014085882
0.0013910176
0.0013738775
0.0013570308
0.0013404376
0.0013241823
0.0013083101
0.0012927095
0.0012772725
0.0012619586
0.0012468295
0.00123194
0.0012172207
0.0012025752
0.0011879531
0.0011733762
0.0011589054
0.0011445238
0.0011301465
0.0011157089
0.0011011895
0.0010866324
0.00107206
0.0010574103
0.0010426112
0.0010276141
0.001012433
0.00099710329
0.00098159508
0.00096583754
0.00094976629
0.00093335669
0.00091662992
0.00089957319
0.00088211347
0.00086417391
0.0008457086
0.00082672206
0.00080719392
0.00078703767
0.00076615201
0.00074447432
0.00072197517
0.00069857718
0.00067414721
0.00064855087
0.00062166563
0.00059334644
0.00056309382
0.00053161868
0.00050086855
0.0004713575
0.00044264267
0.00041450361
0.00038692012
0.00035990154
0.00033341924
0.00030744051
0.00028195054
0.00025697263
0.00023255584
0.0002087425
0.00018557728
0.00016311892
0.00014148983
0.00012081292
0.00010162326
8.3677588e-05
7.0942919e-05
5.4913715e-05
9.9534341e-05
-7.8988184e-05
0.0027757723
0.0027935979
0.0028326805
0.002883052
0.0029428798
0.0030119123
0.0030897217
0.0031758587
0.003270113
0.0033725802
0.0034836516
0.0036040243
0.0037347665
0.0038774564
0.0040343884
0.0042089885
0.0044062653
0.0046345214
0.0049055801
0.0052464306
0.0056846114
0.0063730169
0.007271547
0.011155175
0.0078177564
0.0027021498
0.0025932464
0.0030798382
0.003203618
0.0031209418
0.0030037127
0.0028999225
0.0027983171
0.0026939499
0.0025922272
0.0024979922
0.0024124177
0.0023345652
0.0022633472
0.0021979775
0.002137862
0.0020824855
0.0020311954
0.0019836944
0.0019393737
0.0018980034
0.0018593903
0.0018229849
0.0017887122
0.0017564716
0.0017258261
0.0016966053
0.0016688726
0.0016424542
0.0016170446
0.0015926425
0.0015693311
0.0015469401
0.0015252382
0.0015042052
0.00148395
0.0014644042
0.0014453571
0.0014267241
0.001408591
0.0013910202
0.0013738799
0.0013570331
0.0013404398
0.0013241844
0.0013083121
0.0012927114
0.0012772743
0.0012619603
0.0012468311
0.0012319416
0.0012172221
0.0012025766
0.0011879544
0.0011733775
0.0011589066
0.0011445249
0.0011301476
0.00111571
0.0011011904
0.0010866333
0.0010720609
0.0010574111
0.001042612
0.0010276149
0.0010124338
0.00099710398
0.00098159574
0.00096583815
0.00094976688
0.00093335725
0.00091663045
0.0008995737
0.00088211395
0.00086417436
0.00084570903
0.00082672246
0.0008071943
0.00078703803
0.00076615235
0.00074447464
0.00072197547
0.00069857746
0.00067414748
0.00064855112
0.00062166587
0.00059334666
0.00056309403
0.00053161887
0.00050086874
0.00047135768
0.00044264284
0.00041450377
0.00038692028
0.0003599017
0.00033341939
0.00030744065
0.00028195068
0.00025697276
0.00023255597
0.00020874262
0.0001855774
0.00016311904
0.00014148994
0.00012081303
0.00010162337
8.3677691e-05
7.0943022e-05
5.4913811e-05
9.9534458e-05
-7.898811e-05
0.0027757723
0.0027935979
0.0028326805
0.002883052
0.0029428798
0.0030119124
0.0030897217
0.0031758588
0.0032701131
0.0033725803
0.0034836517
0.0036040244
0.0037347666
0.0038774566
0.0040343887
0.0042089888
0.0044062657
0.0046345219
0.0049055808
0.0052464319
0.0056846131
0.0063730205
0.0072715517
0.011139179
0.0078180345
0.0027034422
0.0025934801
0.0030799323
0.0032036837
0.0031209984
0.0030037632
0.0028999675
0.0027983569
0.0026939851
0.0025922584
0.0024980199
0.0024124424
0.0023345875
0.0022633671
0.0021979956
0.0021378784
0.0020825004
0.002031209
0.0019837069
0.0019393852
0.001898014
0.0018594001
0.001822994
0.0017887206
0.0017564794
0.0017258335
0.0016966122
0.001668879
0.0016424602
0.0016170502
0.0015926478
0.0015693361
0.0015469448
0.0015252426
0.0015042094
0.001483954
0.0014644079
0.0014453607
0.0014267274
0.0014085941
0.0013910232
0.0013738827
0.0013570358
0.0013404423
0.0013241868
0.0013083144
0.0012927136
0.0012772764
0.0012619623
0.001246833
0.0012319434
0.0012172238
0.0012025783
0.001187956
0.001173379
0.001158908
0.0011445263
0.0011301489
0.0011157112
0.0011011916
0.0010866344
0.001072062
0.0010574121
0.0010426129
0.0010276158
0.0010124346
0.00099710478
0.00098159649
0.00096583888
0.00094976756
0.0009333579
0.00091663106
0.00089957428
0.0008821145
0.00086417488
0.00084570952
0.00082672293
0.00080719475
0.00078703844
0.00076615275
0.00074447502
0.00072197582
0.00069857779
0.00067414779
0.00064855141
0.00062166614
0.00059334692
0.00056309427
0.0005316191
0.00050086896
0.00047135789
0.00044264304
0.00041450397
0.00038692047
0.00035990188
0.00033341956
0.00030744082
0.00028195084
0.00025697292
0.00023255612
0.00020874277
0.00018557754
0.00016311917
0.00014149007
0.00012081316
0.00010162349
8.3677811e-05
7.094314e-05
5.4913921e-05
9.9534593e-05
-7.8988025e-05
0.0027757723
0.0027935979
0.0028326805
0.002883052
0.0029428798
0.0030119124
0.0030897217
0.0031758588
0.0032701131
0.0033725804
0.0034836517
0.0036040245
0.0037347668
0.0038774568
0.0040343889
0.0042089892
0.0044062661
0.0046345226
0.0049055817
0.0052464332
0.005684615
0.0063730246
0.0072715574
0.011123045
0.0078180082
0.0027051677
0.0025937954
0.0030800565
0.0032037686
0.0031210707
0.0030038275
0.0029000245
0.0027984071
0.0026940293
0.0025922975
0.0024980546
0.0024124734
0.0023346151
0.002263392
0.002198018
0.0021378987
0.0020825188
0.0020312259
0.0019837223
0.0019393993
0.0018980271
0.0018594121
0.0018230052
0.001788731
0.0017564891
0.0017258424
0.0016966206
0.0016688868
0.0016424676
0.0016170571
0.0015926542
0.0015693422
0.0015469505
0.001525248
0.0015042145
0.0014839588
0.0014644124
0.001445365
0.0014267315
0.001408598
0.0013910269
0.0013738862
0.0013570391
0.0013404454
0.0013241898
0.0013083172
0.0012927163
0.0012772789
0.0012619647
0.0012468353
0.0012319456
0.0012172259
0.0012025802
0.0011879578
0.0011733807
0.0011589097
0.0011445279
0.0011301504
0.0011157126
0.001101193
0.0010866357
0.0010720632
0.0010574133
0.001042614
0.0010276169
0.0010124356
0.00099710574
0.00098159741
0.00096583974
0.00094976838
0.00093335868
0.0009166318
0.00089957498
0.00088211516
0.00086417551
0.00084571011
0.00082672349
0.00080719528
0.00078703894
0.00076615322
0.00074447546
0.00072197624
0.00069857819
0.00067414816
0.00064855176
0.00062166647
0.00059334723
0.00056309455
0.00053161937
0.00050086922
0.00047135814
0.00044264328
0.0004145042
0.00038692069
0.00035990209
0.00033341977
0.00030744102
0.00028195103
0.0002569731
0.0002325563
0.00020874294
0.00018557771
0.00016311933
0.00014149023
0.00012081331
0.00010162364
8.3677952e-05
7.094328e-05
5.4914053e-05
9.9534753e-05
-7.8987925e-05
0.0027757723
0.0027935979
0.0028326806
0.002883052
0.0029428798
0.0030119124
0.0030897218
0.0031758589
0.0032701132
0.0033725805
0.0034836519
0.0036040246
0.003734767
0.003877457
0.0040343893
0.0042089896
0.0044062667
0.0046345233
0.0049055827
0.0052464348
0.0056846172
0.006373029
0.0072715644
0.011106878
0.0078181236
0.0027074756
0.0025942463
0.0030802318
0.0032038856
0.0031211688
0.0030039141
0.0029001007
0.002798474
0.002694088
0.0025923491
0.0024981003
0.0024125139
0.0023346513
0.0022634244
0.0021980471
0.0021379251
0.0020825427
0.0020312476
0.0019837422
0.0019394176
0.0018980438
0.0018594276
0.0018230195
0.0017887442
0.0017565014
0.0017258539
0.0016966313
0.0016688968
0.0016424769
0.0016170659
0.0015926625
0.0015693499
0.0015469578
0.0015252548
0.0015042209
0.0014839649
0.0014644182
0.0014453704
0.0014267367
0.0014086028
0.0013910315
0.0013738906
0.0013570432
0.0013404494
0.0013241935
0.0013083207
0.0012927196
0.0012772821
0.0012619678
0.0012468381
0.0012319483
0.0012172285
0.0012025827
0.0011879602
0.001173383
0.0011589118
0.0011445299
0.0011301523
0.0011157144
0.0011011947
0.0010866373
0.0010720648
0.0010574148
0.0010426154
0.0010276182
0.0010124369
0.00099710694
0.00098159855
0.00096584082
0.00094976941
0.00093335965
0.00091663272
0.00089957585
0.00088211599
0.00086417629
0.00084571085
0.00082672419
0.00080719594
0.00078703957
0.00076615381
0.00074447601
0.00072197677
0.00069857868
0.00067414863
0.0006485522
0.00062166688
0.00059334761
0.00056309491
0.00053161971
0.00050086954
0.00047135845
0.00044264357
0.00041450448
0.00038692096
0.00035990235
0.00033342002
0.00030744126
0.00028195127
0.00025697333
0.00023255652
0.00020874315
0.00018557791
0.00016311953
0.00014149042
0.00012081349
0.00010162382
8.3678126e-05
7.0943452e-05
5.4914214e-05
9.953495e-05
-7.8987801e-05
0.0027757723
0.002793598
0.0028326806
0.002883052
0.0029428799
0.0030119125
0.0030897218
0.0031758589
0.0032701133
0.0033725806
0.003483652
0.0036040248
0.0037347672
0.0038774573
0.0040343896
0.00420899
0.0044062673
0.0046345241
0.0049055838
0.0052464365
0.0056846195
0.0063730338
0.0072715731
0.011090758
0.0078184232
0.0027106398
0.0025949163
0.0030804941
0.0032040564
0.0031213097
0.0030040372
0.0029002083
0.0027985676
0.0026941697
0.0025924207
0.0024981633
0.0024125697
0.0023347008
0.0022634687
0.0021980869
0.0021379609
0.0020825751
0.0020312771
0.001983769
0.0019394422
0.0018980664
0.0018594484
0.0018230387
0.001788762
0.0017565179
0.0017258692
0.0016966455
0.0016689101
0.0016424894
0.0016170775
0.0015926734
0.0015693602
0.0015469674
0.0015252639
0.0015042295
0.0014839729
0.0014644258
0.0014453776
0.0014267434
0.0014086092
0.0013910375
0.0013738963
0.0013570487
0.0013404545
0.0013241984
0.0013083253
0.001292724
0.0012772862
0.0012619717
0.0012468419
0.0012319518
0.0012172319
0.0012025859
0.0011879632
0.0011733859
0.0011589146
0.0011445325
0.0011301548
0.0011157168
0.0011011969
0.0010866395
0.0010720668
0.0010574167
0.0010426173
0.0010276199
0.0010124385
0.0009971085
0.00098160002
0.00096584222
0.00094977073
0.0009333609
0.00091663391
0.00089957698
0.00088211705
0.00086417729
0.00084571181
0.00082672509
0.00080719679
0.00078704037
0.00076615456
0.00074447673
0.00072197744
0.00069857931
0.00067414922
0.00064855275
0.0006216674
0.0005933481
0.00056309537
0.00053162014
0.00050086995
0.00047135884
0.00044264395
0.00041450484
0.00038692131
0.00035990269
0.00033342034
0.00030744157
0.00028195157
0.00025697362
0.0002325568
0.00020874342
0.00018557817
0.00016311979
0.00014149066
0.00012081373
0.00010162405
8.3678349e-05
7.0943673e-05
5.491442e-05
9.9535202e-05
-7.8987642e-05
0.0027757723
0.002793598
0.0028326806
0.0028830521
0.0029428799
0.0030119125
0.0030897219
0.003175859
0.0032701134
0.0033725807
0.0034836521
0.003604025
0.0037347674
0.0038774576
0.00403439
0.0042089905
0.004406268
0.0046345251
0.004905585
0.0052464383
0.0056846221
0.0063730388
0.0072715837
0.011074708
0.0078188133
0.0027150121
0.00259592
0.0030808993
0.0032043161
0.0031215203
0.0030042192
0.0029003659
0.002798704
0.0026942879
0.0025925237
0.0024982536
0.0024126492
0.0023347714
0.0022635314
0.002198143
0.0021380114
0.0020826207
0.0020313184
0.0019838067
0.0019394766
0.0018980979
0.0018594774
0.0018230654
0.0017887867
0.0017565407
0.0017258904
0.0016966653
0.0016689285
0.0016425066
0.0016170936
0.0015926884
0.0015693743
0.0015469806
0.0015252763
0.0015042412
0.001483984
0.0014644362
0.0014453874
0.0014267527
0.001408618
0.0013910458
0.0013739041
0.0013570561
0.0013404615
0.001324205
0.0013083316
0.00129273
0.0012772919
0.0012619771
0.001246847
0.0012319567
0.0012172365
0.0012025903
0.0011879673
0.0011733898
0.0011589183
0.001144536
0.0011301582
0.00111572
0.0011011999
0.0010866423
0.0010720695
0.0010574193
0.0010426197
0.0010276222
0.0010124407
0.00099711059
0.000981602
0.0009658441
0.00094977251
0.00093336259
0.00091663551
0.00089957849
0.00088211848
0.00086417864
0.00084571308
0.00082672629
0.00080719792
0.00078704144
0.00076615557
0.00074447768
0.00072197833
0.00069858016
0.00067415001
0.0006485535
0.0006216681
0.00059334875
0.00056309598
0.00053162072
0.0005008705
0.00047135937
0.00044264446
0.00041450533
0.00038692178
0.00035990314
0.00033342078
0.00030744199
0.00028195197
0.000256974
0.00023255717
0.00020874378
0.00018557852
0.00016312012
0.00014149099
0.00012081404
0.00010162435
8.3678645e-05
7.0943965e-05
5.4914694e-05
9.9535536e-05
-7.8987432e-05
0.0027757723
0.002793598
0.0028326806
0.0028830521
0.0029428799
0.0030119126
0.003089722
0.0031758591
0.0032701135
0.0033725808
0.0034836523
0.0036040252
0.0037347677
0.0038774579
0.0040343904
0.0042089911
0.0044062687
0.0046345261
0.0049055863
0.0052464403
0.0056846248
0.0063730439
0.0072715968
0.011058676
0.007819195
0.0027207221
0.0025973901
0.0030815266
0.0032047148
0.0031218389
0.003004492
0.0029006008
0.0027989061
0.0026944623
0.002592675
0.0024983857
0.0024127653
0.0023348738
0.0022636224
0.0021982242
0.0021380842
0.0020826864
0.0020313778
0.0019838606
0.0019395258
0.001898143
0.0018595187
0.0018231034
0.0017888218
0.0017565732
0.0017259206
0.0016966933
0.0016689546
0.0016425308
0.0016171163
0.0015927097
0.0015693941
0.0015469993
0.0015252939
0.0015042576
0.0014839995
0.0014644508
0.0014454011
0.0014267657
0.0014086302
0.0013910574
0.0013739151
0.0013570664
0.0013404713
0.0013242143
0.0013083404
0.0012927383
0.0012772998
0.0012619845
0.0012468541
0.0012319634
0.0012172428
0.0012025963
0.0011879731
0.0011733952
0.0011589234
0.0011445409
0.0011301628
0.0011157244
0.0011012041
0.0010866463
0.0010720733
0.0010574228
0.0010426231
0.0010276255
0.0010124438
0.00099711347
0.00098160473
0.00096584668
0.00094977496
0.0009333649
0.0009166377
0.00089958056
0.00088212044
0.00086418049
0.00084571483
0.00082672794
0.00080719948
0.00078704291
0.00076615696
0.00074447898
0.00072197956
0.00069858131
0.0006741511
0.00064855451
0.00062166905
0.00059334964
0.00056309681
0.00053162151
0.00050087125
0.00047136008
0.00044264514
0.00041450599
0.00038692241
0.00035990375
0.00033342137
0.00030744256
0.00028195252
0.00025697453
0.00023255768
0.00020874427
0.000185579
0.00016312058
0.00014149143
0.00012081447
0.00010162477
8.3679048e-05
7.0944365e-05
5.4915067e-05
9.953599e-05
-7.8987145e-05
0.0027757723
0.002793598
0.0028326807
0.0028830521
0.00294288
0.0030119126
0.003089722
0.0031758592
0.0032701136
0.003372581
0.0034836525
0.0036040254
0.003734768
0.0038774583
0.0040343909
0.0042089918
0.0044062696
0.0046345272
0.0049055878
0.0052464424
0.0056846276
0.0063730489
0.0072716129
0.011042532
0.0078194683
0.0027275943
0.0025994577
0.0030824735
0.0032053155
0.0031223138
0.0030048962
0.0029009473
0.0027992033
0.002694718
0.0025928963
0.0024985785
0.0024129343
0.0023350228
0.0022637545
0.0021983419
0.0021381896
0.0020827812
0.0020314635
0.0019839384
0.0019395966
0.0018982077
0.0018595781
0.001823158
0.0017888721
0.0017566197
0.0017259637
0.0016967333
0.0016689918
0.0016425655
0.0016171486
0.0015927399
0.0015694224
0.0015470258
0.0015253187
0.001504281
0.0014840214
0.0014644714
0.0014454206
0.001426784
0.0014086476
0.0013910737
0.0013739305
0.001357081
0.0013404851
0.0013242273
0.0013083528
0.00129275
0.0012773109
0.001261995
0.001246864
0.0012319728
0.0012172518
0.0012026048
0.0011879811
0.0011734028
0.0011589307
0.0011445478
0.0011301693
0.0011157305
0.00110121
0.0010866518
0.0010720785
0.0010574278
0.0010426278
0.0010276299
0.001012448
0.00099711749
0.00098160854
0.00096585028
0.00094977837
0.00093336813
0.00091664075
0.00089958344
0.00088212317
0.00086418307
0.00084571726
0.00082673024
0.00080720164
0.00078704495
0.00076615888
0.0007444808
0.00072198127
0.00069858291
0.0006741526
0.00064855592
0.00062167037
0.00059335088
0.00056309797
0.0005316226
0.00050087229
0.00047136108
0.0004426461
0.00041450691
0.0003869233
0.0003599046
0.00033342219
0.00030744335
0.00028195328
0.00025697527
0.00023255839
0.00020874496
0.00018557966
0.00016312122
0.00014149205
0.00012081507
0.00010162535
8.3679608e-05
7.0944918e-05
5.4915584e-05
9.953662e-05
-7.8986747e-05
0.0027757723
0.002793598
0.0028326807
0.0028830522
0.00294288
0.0030119127
0.0030897221
0.0031758593
0.0032701137
0.0033725811
0.0034836527
0.0036040257
0.0037347684
0.0038774587
0.0040343915
0.0042089925
0.0044062705
0.0046345284
0.0049055893
0.0052464446
0.0056846304
0.0063730533
0.0072716326
0.011026121
0.0078194875
0.0027354834
0.0026022469
0.0030838445
0.0032061877
0.0031229974
0.0030054757
0.0029014434
0.0027996285
0.0026950836
0.0025932126
0.0024988538
0.0024131754
0.0023352353
0.0022639427
0.0021985095
0.0021383395
0.0020829161
0.0020315853
0.0019840489