/*--------------------------------*- C++ -*----------------------------------*\
  =========                 |
  \\      /  F ield         | OpenFOAM: The Open Source CFD Toolbox
   \\    /   O peration     | Website:  https://openfoam.org
    \\  /    A nd           | Version:  12
     \\/     M anipulation  |
\*---------------------------------------------------------------------------*/
FoamFile
{
    format      ascii;
    class       surfaceScalarField;
    location    "100";
    object      phi;
}
// * * * * * * * * * * * * * * * * * * * * * * * * * * * * * * * * * * * * * //

dimensions      [0 3 -1 0 0 0 0];

internalField   nonuniform List<scalar> 
14782
(
0.00078635992
7.153783e-06
-0.0007935137
0.00077670791
9.6520099e-06
0.00076587536
1.0832545e-05
0.00075456351
1.1311852e-05
0.00074278106
1.178245e-05
0.00073057683
1.2204231e-05
0.00071799014
1.2586691e-05
0.00070506867
1.2921465e-05
0.00069188467
1.3184008e-05
0.00067856189
1.3322772e-05
0.00066529051
1.3271379e-05
0.00065233301
1.2957508e-05
0.00064002471
1.2308301e-05
0.00062872012
1.130459e-05
0.00061868882
1.0031299e-05
0.00061004049
8.6483289e-06
0.00060270487
7.3356168e-06
0.00059654869
6.156178e-06
0.00059131784
5.2308527e-06
0.00058675872
4.5591238e-06
0.00058280455
3.9541674e-06
0.00057923891
3.5656389e-06
0.00057590728
3.3316254e-06
0.00057273798
3.1693003e-06
0.00056967523
3.062752e-06
0.00056669961
2.975626e-06
0.00056380271
2.896898e-06
0.00056098807
2.8146402e-06
0.00055825863
2.7294407e-06
0.00055562006
2.6385689e-06
0.00055307092
2.5491433e-06
0.00055059962
2.4712926e-06
0.00054817506
2.4245657e-06
0.00054575575
2.4193064e-06
0.00054332092
2.4348342e-06
0.00054087602
2.4449007e-06
0.00053844286
2.4331602e-06
0.00053605011
2.3927409e-06
0.00053372322
2.3268937e-06
0.00053147697
2.2462468e-06
0.00052931565
2.1613201e-06
0.00052723743
2.0782203e-06
0.00052523594
2.0014953e-06
0.00052330341
1.9325285e-06
0.0005214196
1.8838051e-06
0.00051954307
1.8765361e-06
0.00051760753
1.9355345e-06
0.00051549633
2.1112051e-06
0.000513033
2.463332e-06
0.00051011732
2.9156752e-06
0.00050697026
3.1470587e-06
0.00050394489
3.0253718e-06
0.00050122314
2.7217502e-06
0.00049882699
2.3961523e-06
0.0004966791
2.1478845e-06
0.00049469378
1.9853266e-06
0.0004927997
1.8940754e-06
0.00049096725
1.8324509e-06
0.00048919358
1.7736674e-06
0.00048746825
1.725337e-06
0.00048578203
1.6862154e-06
0.00048412572
1.6563102e-06
0.00048249201
1.633714e-06
0.00048087562
1.6163822e-06
0.00047927216
1.6034659e-06
0.00047767887
1.5932918e-06
0.00047609458
1.5842814e-06
0.00047451814
1.5764436e-06
0.00047294795
1.5701952e-06
0.00047138248
1.5654663e-06
0.00046982022
1.5622626e-06
0.00046825979
1.5604264e-06
0.00046670014
1.5596531e-06
0.00046514006
1.5600804e-06
0.00046357844
1.5616199e-06
0.00046201429
1.5641478e-06
0.00046044643
1.5678549e-06
0.00045887393
1.5725033e-06
0.00045729615
1.5777795e-06
0.00045571365
1.582502e-06
0.00045413286
1.5807934e-06
0.00045260726
1.5255971e-06
0.00045166007
9.4718817e-07
0.00045538677
-3.726695e-06
0.00046142218
-6.0354097e-06
0.00046469509
-3.2729148e-06
0.00046642289
-1.7278004e-06
0.00046695038
-5.2748639e-07
0.00046683275
1.176331e-07
0.00046635454
4.7820425e-07
0.00046566929
6.8525655e-07
0.00046485858
8.1070462e-07
0.00046396937
8.8920876e-07
0.00046302956
9.3981423e-07
0.0004620543
9.7525693e-07
0.00046105387
1.0004363e-06
0.00046002086
1.0330036e-06
0.00045893713
1.0837305e-06
0.00045782959
1.1075393e-06
1.3396646e-06
0.00082497977
6.7728341e-06
-0.00082459882
0.00082537684
9.2549389e-06
0.00082558665
1.062274e-05
0.00082567998
1.1218522e-05
0.00082565112
1.1811311e-05
0.00082549626
1.2359093e-05
0.00082520898
1.2873964e-05
0.00082476727
1.3363183e-05
0.00082411548
1.3835788e-05
0.0008231587
1.427956e-05
0.00082177258
1.4657492e-05
0.00081978831
1.4941784e-05
0.00081700531
1.5091298e-05
0.00081322715
1.5082745e-05
0.00080833235
1.4926109e-05
0.00080232401
1.4656666e-05
0.00079531418
1.4345442e-05
0.00078747329
1.3997066e-05
0.00077902587
1.3678278e-05
0.00077019087
1.3394119e-05
0.00076119389
1.2951146e-05
0.00075230052
1.2459017e-05
0.00074370015
1.1931991e-05
0.00073551283
1.1356625e-05
0.00072781359
1.0761988e-05
0.00072063259
1.0156629e-05
0.00071397173
9.5577603e-06
0.00070780168
8.9846817e-06
0.00070206543
8.4656956e-06
0.00069669498
8.009015e-06
0.00069162401
7.6201191e-06
0.00068679054
7.3047566e-06
0.0006821565
7.0586064e-06
0.00067771064
6.8651689e-06
0.00067344354
6.7019292e-06
0.00066934286
6.5455858e-06
0.00066539184
6.3841839e-06
0.00066157097
6.213603e-06
0.00065786407
6.0337934e-06
0.00065426106
5.8492579e-06
0.00065075713
5.6652512e-06
0.00064735057
5.4847809e-06
0.00064403939
5.3126762e-06
0.00064082082
5.1511005e-06
0.00063769538
5.0092478e-06
0.00063467026
4.9016471e-06
0.00063176388
4.8419226e-06
0.00062902303
4.8520485e-06
0.00062652636
4.9600014e-06
0.00062429868
5.1433576e-06
0.00062217753
5.2682125e-06
0.00061996269
5.2402106e-06
0.00061759462
5.0898166e-06
0.00061510816
4.8826123e-06
0.00061257657
4.6794778e-06
0.00061005164
4.5102585e-06
0.00060755597
4.3897511e-06
0.00060509806
4.2903603e-06
0.00060268336
4.1883671e-06
0.00060031442
4.0942739e-06
0.00059799086
4.009772e-06
0.00059571071
3.936461e-06
0.00059347183
3.8725919e-06
0.00059127202
3.8161951e-06
0.00058910869
3.7667987e-06
0.00058698007
3.7219146e-06
0.00058488524
3.6791033e-06
0.00058282313
3.6385545e-06
0.0005807924
3.6009269e-06
0.00057879182
3.5660479e-06
0.00057682015
3.5339375e-06
0.00057487621
3.50436e-06
0.00057295908
3.4767875e-06
0.00057106775
3.4514087e-06
0.00056920132
3.4280454e-06
0.00056735901
3.4064579e-06
0.00056553993
3.3869428e-06
0.0005637433
3.3691272e-06
0.00056196845
3.3526373e-06
0.0005602145
3.3364484e-06
0.00055847992
3.3153769e-06
0.00055675623
3.2492791e-06
0.00055496675
2.73667e-06
0.00055213771
-8.9765595e-07
0.00054940408
-3.3017811e-06
0.00054795992
-1.8287594e-06
0.00054674756
-5.154416e-07
0.00054556293
6.5714646e-07
0.00054429734
1.383222e-06
0.00054295886
1.8166815e-06
0.00054157521
2.0689092e-06
0.00054016853
2.2173894e-06
0.00053875219
2.305542e-06
0.00053733453
2.3574806e-06
0.00053591646
2.3933234e-06
0.00053450537
2.4115252e-06
0.00053307125
2.4671239e-06
0.00053165311
2.501865e-06
0.00053000504
2.7556174e-06
2.7373424e-06
0.00085269518
6.4992428e-06
-0.00085242159
0.0008530995
8.8506186e-06
0.00085347217
1.0250071e-05
0.00085376228
1.0928413e-05
0.00085402536
1.1548231e-05
0.00085425008
1.2134376e-05
0.00085444799
1.2676049e-05
0.00085462991
1.3181261e-05
0.00085480218
1.3663527e-05
0.00085496334
1.4118394e-05
0.00085511339
1.4507446e-05
0.00085524056
1.4814608e-05
0.00085532886
1.5003003e-05
0.00085535233
1.5059277e-05
0.00085527848
1.4999958e-05
0.00085506524
1.4869901e-05
0.00085466574
1.4744948e-05
0.00085401564
1.4647158e-05
0.00085304252
1.4651397e-05
0.00085166085
1.4775796e-05
0.00084971013
1.4901861e-05
0.00084707704
1.5092108e-05
0.00084370031
1.5308723e-05
0.00083954912
1.5507813e-05
0.00083463723
1.5673885e-05
0.00082901008
1.5783773e-05
0.00082278442
1.578342e-05
0.0008161358
1.5633305e-05
0.00080923706
1.5364433e-05
0.00080225506
1.4991014e-05
0.00079533831
1.4536874e-05
0.0007886038
1.4039268e-05
0.00078213183
1.3530568e-05
0.00077596004
1.3036966e-05
0.00077008615
1.2575814e-05
0.00076448374
1.2147998e-05
0.00075911499
1.1752937e-05
0.00075394204
1.1386553e-05
0.00074893668
1.1039147e-05
0.00074408094
1.0704996e-05
0.00073936431
1.0381884e-05
0.00073477927
1.0069818e-05
0.00073031794
9.7740102e-06
0.00072597478
9.4942562e-06
0.0007217523
9.2317299e-06
0.00071765973
8.9942164e-06
0.00071370908
8.7925723e-06
0.00070992126
8.6398672e-06
0.00070632669
8.5545761e-06
0.00070293805
8.5319982e-06
0.00069970551
8.5007503e-06
0.00069654904
8.3966816e-06
0.00069341337
8.22549e-06
0.0006902748
8.0211763e-06
0.00068713924
7.8150372e-06
0.00068402345
7.6260555e-06
0.00068094346
7.4697418e-06
0.00067791027
7.3235455e-06
0.00067492989
7.1687517e-06
0.00067200464
7.0195202e-06
0.0006691347
6.8797105e-06
0.00066631975
6.7514125e-06
0.00066355935
6.63299e-06
0.00066085231
6.5232392e-06
0.00065819664
6.4224693e-06
0.00065559106
6.3274942e-06
0.00065303455
6.235615e-06
0.00065052551
6.1475881e-06
0.00064806235
6.0640889e-06
0.00064564372
5.9846753e-06
0.00064326831
5.9093477e-06
0.00064093483
5.8378403e-06
0.00063864216
5.7694598e-06
0.00063638914
5.7044305e-06
0.0006341747
5.6424858e-06
0.00063199789
5.5832702e-06
0.00062985767
5.5271568e-06
0.00062775313
5.4736694e-06
0.00062568334
5.4224321e-06
0.00062364693
5.3728501e-06
0.0006216404
5.3219074e-06
0.00061964537
5.2443082e-06
0.00061752267
4.8593703e-06
0.00061440114
2.2238753e-06
0.00061102835
7.1015066e-08
0.00060854854
6.5104643e-07
0.00060646637
1.5667282e-06
0.00060460132
2.5221906e-06
0.00060280222
3.1823268e-06
0.00060102125
3.5976512e-06
0.0005992485
3.8416581e-06
0.00059748644
3.9794527e-06
0.00059573792
4.0540538e-06
0.00059400539
4.0900168e-06
0.00059228551
4.1131973e-06
0.00059058487
4.1121671e-06
0.00058886592
4.1860703e-06
0.0005871905
4.1772861e-06
0.00058519678
4.7493417e-06
4.2888208e-06
0.00088128056
6.2963064e-06
-0.00088107763
0.00088165826
8.4729169e-06
0.00088203217
9.8761681e-06
0.00088232629
1.0634289e-05
0.00088259682
1.1277707e-05
0.00088283558
1.1895608e-05
0.00088304961
1.2462026e-05
0.00088324945
1.2981423e-05
0.0008834432
1.3469772e-05
0.00088363181
1.3929783e-05
0.00088381811
1.4321148e-05
0.0008839968
1.4635921e-05
0.00088416204
1.4837756e-05
0.00088430405
1.4917275e-05
0.00088441636
1.4887643e-05
0.00088449529
1.4790971e-05
0.00088454601
1.4694229e-05
0.0008845701
1.4623072e-05
0.00088457349
1.4648009e-05
0.00088456508
1.4784199e-05
0.00088452533
1.4941617e-05
0.00088444347
1.5173961e-05
0.0008842948
1.5457399e-05
0.00088403947
1.5763139e-05
0.00088362247
1.609089e-05
0.00088297607
1.6430171e-05
0.0008819881
1.677139e-05
0.00088051889
1.7102518e-05
0.00087845914
1.7424174e-05
0.00087572521
1.7724952e-05
0.00087227102
1.7991058e-05
0.00086809518
1.8215111e-05
0.00086327294
1.8352804e-05
0.00085794336
1.8366552e-05
0.00085225774
1.8261436e-05
0.00084636828
1.8037456e-05
0.00084041087
1.771035e-05
0.00083449219
1.7305226e-05
0.00082868209
1.6849254e-05
0.00082301171
1.637537e-05
0.00081748358
1.591002e-05
0.00081208678
1.5466611e-05
0.0008068097
1.5051093e-05
0.00080164627
1.4657688e-05
0.00079659685
1.428115e-05
0.00079166788
1.3923187e-05
0.00078686905
1.3591399e-05
0.00078221122
1.3297701e-05
0.00077770497
1.3060822e-05
0.00077335541
1.2881562e-05
0.00076914982
1.2706334e-05
0.00076506323
1.2483278e-05
0.00076107167
1.2217048e-05
0.00075715501
1.1937831e-05
0.00075330182
1.1668236e-05
0.00074950976
1.1418107e-05
0.00074578233
1.1197171e-05
0.00074212209
1.0983787e-05
0.00073852945
1.076139e-05
0.00073500507
1.0543901e-05
0.00073154935
1.0335439e-05
0.00072816195
1.0138811e-05
0.00072484223
9.9527087e-06
0.00072158884
9.7766322e-06
0.00071839986
9.6114419e-06
0.00071527405
9.4533076e-06
0.00071220987
9.2997938e-06
0.00070920517
9.152287e-06
0.00070625811
9.0111542e-06
0.00070336715
8.8756331e-06
0.00070053076
8.7457326e-06
0.00069774742
8.6211878e-06
0.00069501571
8.5011655e-06
0.00069233421
8.3859256e-06
0.00068970159
8.2751138e-06
0.0006871166
8.1682542e-06
0.00068457798
8.0657801e-06
0.00068208454
7.9671087e-06
0.00067963513
7.8718422e-06
0.0006772283
7.7796798e-06
0.0006748609
7.6893059e-06
0.00067251916
7.5860538e-06
0.00067011779
7.2607324e-06
0.00066721384
5.1278337e-06
0.00066411419
3.1706609e-06
0.00066141673
3.3485026e-06
0.00065899427
3.9891931e-06
0.0006567632
4.7532539e-06
0.00065462294
5.3225937e-06
0.00065252639
5.6942032e-06
0.00065045599
5.9120554e-06
0.00064840838
6.027058e-06
0.00064638339
6.0790427e-06
0.00064438199
6.0914173e-06
0.00064239966
6.095525e-06
0.00064044325
6.0685816e-06
0.00063847105
6.1582721e-06
0.00063656171
6.0866197e-06
0.0006342628
7.0482528e-06
6.0070926e-06
0.00091084155
6.1334903e-06
-0.00091067874
0.00091118269
8.1317774e-06
0.00091153231
9.5265469e-06
0.00091181594
1.0350658e-05
0.00091207476
1.1018888e-05
0.00091231061
1.1659765e-05
0.00091252584
1.2246796e-05
0.00091272856
1.27787e-05
0.00091292633
1.3271997e-05
0.00091312001
1.3736108e-05
0.00091331165
1.4129509e-05
0.00091349638
1.445119e-05
0.0009136688
1.4665333e-05
0.00091382081
1.4765267e-05
0.00091394565
1.4762807e-05
0.00091403987
1.4696748e-05
0.00091410886
1.4625239e-05
0.0009141559
1.4576029e-05
0.00091419068
1.4613238e-05
0.0009142257
1.4749179e-05
0.00091425406
1.4913255e-05
0.00091428177
1.5146254e-05
0.00091431061
1.5428554e-05
0.00091433845
1.5735296e-05
0.00091436315
1.6066188e-05
0.00091438106
1.6412263e-05
0.0009143852
1.6767257e-05
0.00091436274
1.7124975e-05
0.00091429527
1.749164e-05
0.00091415202
1.7868207e-05
0.00091388596
1.825712e-05
0.00091343573
1.8665333e-05
0.00091269858
1.9089957e-05
0.00091154294
1.9522189e-05
0.00090985382
1.9950555e-05
0.00090754045
2.0350832e-05
0.00090454985
2.070095e-05
0.00090088514
2.0969937e-05
0.00089662238
2.1112012e-05
0.00089188643
2.1111319e-05
0.00088681519
2.0981257e-05
0.0008815419
2.07399e-05
0.00087617891
2.0414092e-05
0.00087080432
2.0032279e-05
0.00086545934
1.962612e-05
0.00086016216
1.9220374e-05
0.00085492364
1.8829921e-05
0.00084975681
1.8464528e-05
0.00084467806
1.8139566e-05
0.00083970174
1.7857884e-05
0.00083483272
1.7575359e-05
0.00083006708
1.7248914e-05
0.00082539853
1.6885602e-05
0.00082082041
1.6515953e-05
0.00081632707
1.6161572e-05
0.00081191577
1.5829406e-05
0.00080758644
1.5526501e-05
0.00080333686
1.5233372e-05
0.00079916392
1.4934325e-05
0.00079506748
1.4640337e-05
0.00079104841
1.4354513e-05
0.00078710665
1.4080572e-05
0.00078324155
1.3817809e-05
0.00077945217
1.3566007e-05
0.00077573716
1.3326456e-05
0.0007720948
1.3095666e-05
0.00076852332
1.2871275e-05
0.00076502093
1.265467e-05
0.00076158591
1.2446174e-05
0.00075821669
1.2244861e-05
0.00075491164
1.2050782e-05
0.00075166914
1.1863685e-05
0.00074848769
1.1682614e-05
0.00074536573
1.1507884e-05
0.00074230178
1.1339069e-05
0.00073929445
1.1175585e-05
0.0007363423
1.1017927e-05
0.000733444
1.0865408e-05
0.00073059825
1.0717596e-05
0.00072780358
1.0574346e-05
0.00072505737
1.0435521e-05
0.00072235049
1.0292932e-05
0.00071963941
9.9718095e-06
0.00071671026
8.0569841e-06
0.00071367806
6.2028598e-06
0.00071083385
6.1927181e-06
0.00070816595
6.6570882e-06
0.00070564301
7.2761922e-06
0.00070320689
7.7587198e-06
0.00070082167
8.0794196e-06
0.00069847041
8.263318e-06
0.00069614807
8.3493902e-06
0.0006938535
8.373615e-06
0.00069158738
8.3575404e-06
0.00068934489
8.338013e-06
0.00068713353
8.2799426e-06
0.00068490841
8.3833963e-06
0.00068276349
8.2315326e-06
0.00068016132
9.6504296e-06
7.9040142e-06
0.00094139067
6.0020906e-06
-0.00094125927
0.00094169113
7.8313167e-06
0.00094201738
9.2002986e-06
0.00094229581
1.0072228e-05
0.00094255005
1.0764643e-05
0.00094278759
1.1422233e-05
0.00094300732
1.2027064e-05
0.00094321427
1.2571751e-05
0.00094341467
1.3071596e-05
0.00094361154
1.3539234e-05
0.00094380364
1.3937407e-05
0.00094398901
1.4265824e-05
0.00094416155
1.4492794e-05
0.00094431397
1.4612846e-05
0.00094444008
1.4636695e-05
0.00094453725
1.4599576e-05
0.00094460986
1.4552635e-05
0.00094466084
1.4525051e-05
0.00094469977
1.4574304e-05
0.00094473802
1.4710925e-05
0.00094477106
1.4880222e-05
0.00094480437
1.5112944e-05
0.00094484015
1.5392771e-05
0.00094487733
1.569812e-05
0.00094491566
1.6027858e-05
0.00094495483
1.6373092e-05
0.00094499401
1.6728074e-05
0.00094503152
1.7087465e-05
0.0009450672
1.745596e-05
0.00094509994
1.7835472e-05
0.00094512814
1.8228915e-05
0.00094514987
1.8643608e-05
0.00094515965
1.9080177e-05
0.00094514658
1.9535258e-05
0.00094509113
2.0005997e-05
0.00094495874
2.0483223e-05
0.0009446978
2.096189e-05
0.00094422806
2.1439677e-05
0.0009434302
2.1909872e-05
0.00094217368
2.2367842e-05
0.0009403495
2.2805434e-05
0.00093788252
2.3206886e-05
0.00093475527
2.3541334e-05
0.00093102563
2.376192e-05
0.00092680281
2.3848939e-05
0.00092221374
2.3809444e-05
0.00091738243
2.3661236e-05
0.00091241297
2.3433984e-05
0.00090737983
2.3172705e-05
0.00090232765
2.2910066e-05
0.00089727931
2.2623701e-05
0.00089224811
2.228011e-05
0.00088724709
2.1886626e-05
0.0008822893
2.1473746e-05
0.00087738463
2.1066238e-05
0.00087253978
2.0674253e-05
0.00086776025
2.0306036e-05
0.00086304852
1.9945095e-05
0.00085840522
1.9577625e-05
0.00085383196
1.9213599e-05
0.00084933078
1.8855693e-05
0.00084490338
1.8507969e-05
0.000840551
1.8170194e-05
0.00083627462
1.7842388e-05
0.00083207457
1.7526507e-05
0.00082794984
1.7220398e-05
0.00082389936
1.6921753e-05
0.00081992245
1.6631575e-05
0.00081601816
1.6350468e-05
0.00081218545
1.6077569e-05
0.00080842313
1.5813099e-05
0.00080472993
1.555689e-05
0.00080110461
1.5307936e-05
0.00079754582
1.506667e-05
0.00079405224
1.4832651e-05
0.00079062259
1.460523e-05
0.00078725551
1.4385009e-05
0.0007839497
1.4171218e-05
0.00078070389
1.396341e-05
0.00077751671
1.3761522e-05
0.000774386
1.3566236e-05
0.0007713057
1.3373233e-05
0.00076825603
1.3021477e-05
0.00076512893
1.1184081e-05
0.00076196481
9.366984e-06
0.00075890831
9.2492181e-06
0.00075597327
9.5921269e-06
0.00075315164
1.0097825e-05
0.00075041145
1.0498903e-05
0.00074772708
1.0763797e-05
0.00074508363
1.0906766e-05
0.00074247528
1.0957741e-05
0.0007399
1.0948894e-05
0.00073735814
1.0899403e-05
0.00073484461
1.0851539e-05
0.0007323675
1.0757053e-05
0.00072987892
1.0871974e-05
0.00072748759
1.0622868e-05
0.00072457277
1.2565245e-05
9.9932844e-06
0.00097295816
5.8947497e-06
-0.00097285081
0.00097322221
7.5672587e-06
0.00097352722
8.8952964e-06
0.00097379988
9.799567e-06
0.00097404932
1.05152e-05
0.00097428565
1.11859e-05
0.00097450714
1.1805577e-05
0.00097471643
1.2362463e-05
0.00097491815
1.2869873e-05
0.00097511803
1.3339354e-05
0.00097531095
1.3744492e-05
0.00097549783
1.4078941e-05
0.0009756717
1.4318919e-05
0.00097582602
1.445853e-05
0.00097595491
1.4507801e-05
0.00097605595
1.4498537e-05
0.00097613275
1.447584e-05
0.00097618829
1.4469511e-05
0.00097623176
1.4530827e-05
0.00097627313
1.4669564e-05
0.00097630937
1.484398e-05
0.00097634539
1.5076921e-05
0.00097638333
1.5354833e-05
0.00097642244
1.5659011e-05
0.00097646282
1.5987477e-05
0.0009765042
1.6331712e-05
0.000976546
1.6686273e-05
0.00097658706
1.7046401e-05
0.00097662733
1.7415697e-05
0.00097666631
1.7796493e-05
0.00097670381
1.8191413e-05
0.00097674071
1.8606702e-05
0.00097677751
1.9043381e-05
0.00097681412
1.9498645e-05
0.00097685053
1.9969589e-05
0.00097688535
2.0448402e-05
0.00097691627
2.0930977e-05
0.00097693881
2.1417132e-05
0.00097694349
2.1905193e-05
0.00097691312
2.2398216e-05
0.00097681689
2.290166e-05
0.00097660546
2.3418313e-05
0.00097619762
2.3949174e-05
0.00097547141
2.4488128e-05
0.00097429251
2.502784e-05
0.00097254807
2.5553886e-05
0.0009701622
2.6047108e-05
0.00096713501
2.6461174e-05
0.00096354487
2.6762843e-05
0.00095950522
2.6949719e-05
0.00095513852
2.6990391e-05
0.00095055223
2.6866403e-05
0.00094582591
2.6612951e-05
0.0009410099
2.6289757e-05
0.00093613499
2.594114e-05
0.00093122505
2.5584196e-05
0.00092630332
2.5227767e-05
0.00092138919
2.4859221e-05
0.00091649643
2.4470384e-05
0.00091163533
2.4074708e-05
0.00090681415
2.3676872e-05
0.00090204021
2.3281901e-05
0.00089731992
2.2890485e-05
0.00089265853
2.2503779e-05
0.00088806008
2.2124961e-05
0.00088352705
2.1753423e-05
0.00087906111
2.1387701e-05
0.00087466361
2.1029074e-05
0.00087033552
2.0678551e-05
0.00086607753
2.0335563e-05
0.00086188984
2.000079e-05
0.00085777234
1.9674391e-05
0.00085372479
1.9355483e-05
0.00084974667
1.9044787e-05
0.00084583735
1.8741975e-05
0.00084199613
1.844645e-05
0.00083822212
1.8159017e-05
0.00083451443
1.7878904e-05
0.00083087213
1.7605716e-05
0.00082729418
1.7339472e-05
0.00082377894
1.708147e-05
0.00082032229
1.6829883e-05
0.00081691671
1.6427061e-05
0.00081350193
1.4598865e-05
0.00081009127
1.2777636e-05
0.00080676203
1.2578459e-05
0.00080352721
1.2826952e-05
0.00080038785
1.3237182e-05
0.00079732719
1.3559562e-05
0.00079432756
1.3763426e-05
0.00079137638
1.3857946e-05
0.00078846734
1.3866783e-05
0.00078559748
1.3818754e-05
0.00078276657
1.3730318e-05
0.0007799691
1.3649009e-05
0.00077721358
1.351257e-05
0.00077444913
1.3636422e-05
0.00077179893
1.3273073e-05
0.00076855938
1.5804787e-05
1.2288077e-05
0.001005578
5.8048385e-06
-0.0010054881
0.0010058105
7.3347383e-06
0.0010060942
8.6116691e-06
0.0010063588
9.5349345e-06
0.001006603
1.0271029e-05
0.001006837
1.095183e-05
0.0010070598
1.158286e-05
0.0010072715
1.2150693e-05
0.0010074761
1.2665285e-05
0.001007678
1.3137498e-05
0.0010078731
1.3549326e-05
0.0010080616
1.3890481e-05
0.0010082371
1.4143379e-05
0.0010083936
1.4302075e-05
0.0010085255
1.4375913e-05
0.0010086305
1.4393502e-05
0.0010087116
1.439473e-05
0.0010087718
1.4409357e-05
0.0010088196
1.4483003e-05
0.0010088639
1.4625283e-05
0.0010089029
1.4804926e-05
0.0010089412
1.503865e-05
0.0010089809
1.5315182e-05
0.0010090215
1.5618421e-05
0.0010090632
1.5945718e-05
0.0010091059
1.6289074e-05
0.0010091488
1.6643322e-05
0.001009191
1.7004205e-05
0.0010092324
1.737433e-05
0.0010092727
1.775616e-05
0.001009312
1.815214e-05
0.001009351
1.8567666e-05
0.0010093904
1.900401e-05
0.0010094305
1.9458531e-05
0.0010094716
1.9928433e-05
0.0010095131
2.0406968e-05
0.0010095541
2.0889968e-05
0.0010095943
2.1376926e-05
0.0010096329
2.1866567e-05
0.0010096693
2.2361845e-05
0.0010097028
2.2868175e-05
0.0010097319
2.3389216e-05
0.0010097526
2.3928403e-05
0.0010097553
2.4485439e-05
0.0010097206
2.5062569e-05
0.0010096116
2.5662889e-05
0.0010093698
2.6288877e-05
0.0010088905
2.6940483e-05
0.0010080332
2.7620123e-05
0.0010066688
2.8314122e-05
0.0010046959
2.896334e-05
0.0010020808
2.9481478e-05
0.00099887467
2.9819103e-05
0.0009951789
2.9985523e-05
0.00099111198
3.0008065e-05
0.00098678198
2.9914198e-05
0.00098226976
2.9739979e-05
0.00097762652
2.9502467e-05
0.00097288583
2.9211069e-05
0.00096807633
2.8884212e-05
0.00096322434
2.8528862e-05
0.00095835214
2.8154094e-05
0.00095347736
2.7765273e-05
0.00094861403
2.7367103e-05
0.00094377404
2.6964957e-05
0.0009389672
2.6560261e-05
0.00093420122
2.6153682e-05
0.00092948218
2.5748109e-05
0.00092481513
2.5345598e-05
0.00092020431
2.4946388e-05
0.00091565294
2.4552154e-05
0.00091116351
2.4163826e-05
0.00090673798
2.3781015e-05
0.0009023777
2.3405066e-05
0.00089808363
2.3036039e-05
0.00089385647
2.2673618e-05
0.00088969646
2.231902e-05
0.00088560373
2.1971633e-05
0.00088157819
2.1631257e-05
0.00087761957
2.1298095e-05
0.00087372706
2.0973985e-05
0.00086989796
2.0658978e-05
0.00086613095
2.0194068e-05
0.00086238781
1.8342007e-05
0.00085867333
1.649212e-05
0.00085503417
1.6217615e-05
0.00085147704
1.6384083e-05
0.00084800557
1.6708652e-05
0.00084461165
1.6953489e-05
0.00084128369
1.709138e-05
0.00083801155
1.713009e-05
0.00083478887
1.7089462e-05
0.0008316119
1.6995724e-05
0.00082847972
1.6862496e-05
0.00082538631
1.6742425e-05
0.00082234046
1.6558412e-05
0.00081928827
1.6688617e-05
0.00081636726
1.6194083e-05
0.00081279059
1.9381459e-05
1.480046e-05
0.0010392849
5.7274134e-06
-0.0010392075
0.0010394903
7.1294249e-06
0.0010397527
8.3492649e-06
0.001040008
9.2795839e-06
0.0010402472
1.003189e-05
0.0010404787
1.0720299e-05
0.001040702
1.1359578e-05
0.0010409158
1.1936885e-05
0.0010411226
1.2458475e-05
0.0010413258
1.2934291e-05
0.0010415228
1.3352303e-05
0.0010417124
1.3700891e-05
0.0010418893
1.3966478e-05
0.0010420477
1.4143706e-05
0.0010421824
1.4241203e-05
0.0010422913
1.4284623e-05
0.0010423766
1.4309346e-05
0.0010424415
1.4344543e-05
0.0010424937
1.4430744e-05
0.0010425413
1.4577716e-05
0.0010425836
1.476262e-05
0.0010426247
1.4997554e-05
0.0010426667
1.5273167e-05
0.0010427094
1.5575701e-05
0.0010427531
1.5902012e-05
0.0010427975
1.6244666e-05
0.0010428421
1.6598737e-05
0.0010428859
1.6960393e-05
0.0010429288
1.7331445e-05
0.0010429706
1.7714344e-05
0.0010430114
1.8111403e-05
0.0010430518
1.8527277e-05
0.0010430924
1.896339e-05
0.0010431335
1.9417377e-05
0.0010431756
1.9886415e-05
0.001043218
2.0364496e-05
0.0010432605
2.0847504e-05
0.0010433027
2.1334761e-05
0.001043344
2.1825252e-05
0.0010433842
2.2321576e-05
0.0010434234
2.2828997e-05
0.0010434613
2.335134e-05
0.001043498
2.389165e-05
0.0010435335
2.4449983e-05
0.0010435673
2.5028815e-05
0.0010435985
2.5631625e-05
0.0010436252
2.6262176e-05
0.0010436411
2.6924649e-05
0.0010436323
2.7628905e-05
0.0010435701
2.8376314e-05
0.0010434003
2.913316e-05
0.0010430214
2.9860357e-05
0.0010422898
3.0550654e-05
0.0010410635
3.1211849e-05
0.0010392317
3.1839886e-05
0.0010367607
3.2385219e-05
0.0010337042
3.2796416e-05
0.0010301617
3.3045009e-05
0.0010262466
3.3126168e-05
0.0010220583
3.3072491e-05
0.0010176672
3.2919986e-05
0.0010131193
3.2701948e-05
0.0010084503
3.2434274e-05
0.0010036927
3.2124778e-05
0.00099887519
3.1782425e-05
0.00099402151
3.1413936e-05
0.00098915036
3.1024834e-05
0.00098427721
3.0621253e-05
0.00097941522
3.0207592e-05
0.00097457537
2.9786235e-05
0.00096976661
2.9360918e-05
0.00096499633
2.8934108e-05
0.00096027074
2.8506606e-05
0.00095559478
2.8081021e-05
0.00095097251
2.7658311e-05
0.00094640726
2.723887e-05
0.00094190156
2.6824714e-05
0.0009374575
2.64157e-05
0.00093307666
2.6012096e-05
0.00092876024
2.5614515e-05
0.00092450882
2.5225406e-05
0.00092032128
2.4846513e-05
0.00091619971
2.4315641e-05
0.00091211669
2.2425031e-05
0.00090807559
2.0533217e-05
0.00090410971
2.0183491e-05
0.00090022012
2.0273674e-05
0.00089641025
2.0518518e-05
0.00089267683
2.0686916e-05
0.00088901295
2.0755259e-05
0.00088541102
2.0732023e-05
0.00088186522
2.0635261e-05
0.00087837137
2.0489572e-05
0.00087492799
2.0305878e-05
0.00087152852
2.0141896e-05
0.00086818203
1.9904896e-05
0.00086483154
2.003911e-05
0.00086162895
1.9396667e-05
0.0008577034
2.3307012e-05
1.75414e-05
0.001074115
5.6590364e-06
-0.0010740466
0.0010742971
6.9473029e-06
0.0010745391
8.1072226e-06
0.0010747844
9.034326e-06
0.0010750184
9.7979097e-06
0.0010752468
1.0491812e-05
0.0010754697
1.1136693e-05
0.0010756848
1.1721795e-05
0.0010758933
1.2249992e-05
0.0010760977
1.2729848e-05
0.0010762964
1.3153655e-05
0.0010764872
1.3510097e-05
0.0010766655
1.3788131e-05
0.0010768259
1.3983314e-05
0.0010769636
1.4103583e-05
0.0010770763
1.4171857e-05
0.0010771661
1.4219608e-05
0.0010772356
1.4274974e-05
0.0010772924
1.4373967e-05
0.0010773435
1.4526652e-05
0.0010773891
1.4716951e-05
0.0010774331
1.4953567e-05
0.0010774775
1.5228777e-05
0.0010775223
1.5530899e-05
0.0010775679
1.5856448e-05
0.001077614
1.6198567e-05
0.0010776602
1.6552562e-05
0.0010777056
1.6914968e-05
0.00107775
1.7286977e-05
0.0010777935
1.7670932e-05
0.0010778358
1.8069039e-05
0.0010778778
1.8485312e-05
0.0010779199
1.8921242e-05
0.0010779626
1.937475e-05
0.0010780059
1.984303e-05
0.0010780497
2.0320704e-05
0.0010780935
2.0803766e-05
0.0010781368
2.1291388e-05
0.0010781793
2.1782804e-05
0.0010782206
2.2280309e-05
0.0010782608
2.2788797e-05
0.0010783001
2.3312043e-05
0.0010783387
2.3852963e-05
0.0010783769
2.4411871e-05
0.0010784146
2.4991068e-05
0.001078452
2.5594212e-05
0.0010784889
2.6225276e-05
0.0010785253
2.688828e-05
0.001078562
2.7592144e-05
0.0010786005
2.8337906e-05
0.0010786383
2.9095321e-05
0.0010786672
2.9831484e-05
0.001078671
3.0546809e-05
0.0010786184
3.1264465e-05
0.0010784535
3.2004769e-05
0.001078069
3.2769756e-05
0.0010773138
3.3551623e-05
0.0010760416
3.4317129e-05
0.0010741502
3.5017583e-05
0.0010716271
3.5595641e-05
0.0010685418
3.6005233e-05
0.0010649997
3.6244092e-05
0.0010611078
3.6326164e-05
0.00105695
3.6282533e-05
0.0010525835
3.6149015e-05
0.0010480504
3.5946975e-05
0.0010433885
3.5686723e-05
0.0010386315
3.5378277e-05
0.0010338073
3.5031776e-05
0.0010289388
3.4654795e-05
0.0010240449
3.4254745e-05
0.0010191421
3.383691e-05
0.0010142441
3.3404663e-05
0.0010093621
3.2963038e-05
0.0010045056
3.2514748e-05
0.00099968281
3.206168e-05
0.00099490019
3.1607336e-05
0.00099016331
3.1152583e-05
0.00098547676
3.0698641e-05
0.00098084433
3.0246952e-05
0.0009762689
2.9800833e-05
0.00097175161
2.9363799e-05
0.00096729711
2.8770142e-05
0.00096288404
2.6838102e-05
0.0009585172
2.4900057e-05
0.00095422499
2.4475701e-05
0.00095000502
2.449364e-05
0.00094585971
2.4663833e-05
0.0009417884
2.4758222e-05
0.00093778783
2.475583e-05
0.00093385306
2.4666799e-05
0.00092997941
2.450891e-05
0.00092616281
2.4306166e-05
0.00092240153
2.4067159e-05
0.00091868864
2.3854791e-05
0.00091503353
2.3560005e-05
0.00091137618
2.3696455e-05
0.00090788297
2.2889877e-05
0.00090359824
2.7591749e-05
2.0520657e-05
0.0011101055
5.5973125e-06
-0.0011100437
0.001110268
6.7847463e-06
0.001110491
7.884277e-06
0.0011107255
8.7997818e-06
0.001110954
9.5694699e-06
0.001111179
1.0266794e-05
0.0011114007
1.0914961e-05
0.0011116165
1.1506029e-05
0.0011118263
1.2040188e-05
0.0011120318
1.2524285e-05
0.0011122318
1.2953664e-05
0.0011124238
1.331815e-05
0.0011126035
1.3608428e-05
0.0011127658
1.3820998e-05
0.0011129062
1.3963158e-05
0.0011130227
1.4055333e-05
0.0011131168
1.412558e-05
0.0011131911
1.4200687e-05
0.0011132523
1.431269e-05
0.001113307
1.4471974e-05
0.0011133561
1.4667851e-05
0.0011134031
1.4906611e-05
0.0011134499
1.5181908e-05
0.001113497
1.5483892e-05
0.0011135445
1.5808892e-05
0.0011135924
1.6150625e-05
0.0011136404
1.6504642e-05
0.0011136875
1.6867791e-05
0.0011137337
1.7240787e-05
0.0011137789
1.7625802e-05
0.001113823
1.802494e-05
0.0011138666
1.8441663e-05
0.0011139104
1.8877466e-05
0.0011139546
1.9330543e-05
0.0011139995
1.9798145e-05
0.0011140447
2.0275438e-05
0.0011140899
2.0758576e-05
0.0011141347
2.1246599e-05
0.0011141786
2.1738941e-05
0.0011142212
2.2237649e-05
0.0011142628
2.2747252e-05
0.0011143034
2.3271449e-05
0.0011143433
2.3813051e-05
0.0011143825
2.4372637e-05
0.0011144212
2.4952376e-05
0.0011144596
2.5555817e-05
0.001114498
2.6186913e-05
0.0011145365
2.6849743e-05
0.0011145765
2.7552123e-05
0.00111462
2.8294437e-05
0.0011146661
2.9049235e-05
0.0011147118
2.9785787e-05
0.001114755
3.0503625e-05
0.0011147948
3.1224683e-05
0.00111483
3.1969529e-05
0.0011148549
3.2744841e-05
0.001114853
3.3553527e-05
0.0011147863
3.4383877e-05
0.0011145796
3.5224293e-05
0.0011141015
3.6073687e-05
0.0011131893
3.6917404e-05
0.0011117021
3.7731365e-05
0.0011095762
3.8452037e-05
0.0011068455