/*--------------------------------*- C++ -*----------------------------------*\
  =========                 |
  \\      /  F ield         | OpenFOAM: The Open Source CFD Toolbox
   \\    /   O peration     | Website:  https://openfoam.org
    \\  /    A nd           | Version:  12
     \\/     M anipulation  |
\*---------------------------------------------------------------------------*/
FoamFile
{
    format      ascii;
    class       surfaceScalarField;
    location    "100";
    object      phi;
}
// * * * * * * * * * * * * * * * * * * * * * * * * * * * * * * * * * * * * * //

dimensions      [0 3 -1 0 0 0 0];

internalField   nonuniform List<scalar> 
25880
(
2.0046526e-06
1.5872149e-12
2.004649e-06
3.5270154e-12
2.0046448e-06
4.2060472e-12
2.0046402e-06
4.661919e-12
2.0046349e-06
5.2778374e-12
2.0046288e-06
6.0607063e-12
2.0046218e-06
7.0084535e-12
2.0046137e-06
8.1413145e-12
2.0046042e-06
9.4993369e-12
2.004593e-06
1.1140659e-11
2.0045799e-06
1.3143975e-11
2.0045643e-06
1.5619902e-11
2.0045455e-06
1.8727658e-11
2.0045228e-06
2.2720991e-11
2.0044949e-06
2.7967393e-11
2.0044596e-06
3.5217896e-11
2.0044143e-06
4.5311424e-11
2.0043526e-06
6.1701109e-11
2.004268e-06
8.465326e-11
2.0041272e-06
1.4074746e-10
2.0039264e-06
2.0081956e-10
2.0033361e-06
5.9026715e-10
2.0032681e-06
6.8067216e-11
1.0308728e-06
9.7239531e-07
4.3425458e-08
9.874473e-07
2.7525607e-08
1.5899851e-08
2.547357e-08
2.0520364e-09
2.4622398e-08
8.5117253e-10
2.3982189e-08
6.4020919e-10
2.3409987e-08
5.7220181e-10
2.2888975e-08
5.2101186e-10
2.2419406e-08
4.6956902e-10
2.1999139e-08
4.2026704e-10
2.1622936e-08
3.7620244e-10
2.1285095e-08
3.3784139e-10
2.0980541e-08
3.0455408e-10
2.0704917e-08
2.7562416e-10
2.0454468e-08
2.5044913e-10
2.0225952e-08
2.2851602e-10
2.0016573e-08
2.0937872e-10
1.9823932e-08
1.9264116e-10
1.9645981e-08
1.7795118e-10
1.9480974e-08
1.650062e-10
1.9327433e-08
1.5354104e-10
1.918409e-08
1.4334361e-10
1.9049854e-08
1.3423521e-10
1.8923794e-08
1.2606037e-10
1.8805093e-08
1.1870159e-10
1.8693039e-08
1.120531e-10
1.8587022e-08
1.0601715e-10
1.84865e-08
1.0052277e-10
1.8390988e-08
9.5511685e-11
1.8300065e-08
9.0922709e-11
1.821336e-08
8.6705005e-11
1.8130535e-08
8.2824721e-11
1.8051287e-08
7.9248688e-11
1.7975347e-08
7.5940161e-11
1.7902476e-08
7.2870288e-11
1.7832456e-08
7.0020097e-11
1.7765085e-08
6.7370791e-11
1.7700186e-08
6.4899795e-11
1.7637598e-08
6.2587986e-11
1.7577174e-08
6.0423323e-11
1.7518778e-08
5.8395828e-11
1.7462285e-08
5.6493329e-11
1.7407582e-08
5.4702929e-11
1.7354567e-08
5.3015211e-11
1.7303143e-08
5.1424097e-11
1.7253219e-08
4.9923999e-11
1.7204711e-08
4.850756e-11
1.7157544e-08
4.716708e-11
1.7111647e-08
4.5897169e-11
1.7066953e-08
4.4694092e-11
1.7023399e-08
4.3554259e-11
1.6980926e-08
4.2473041e-11
1.693948e-08
4.1445205e-11
1.6899014e-08
4.0466671e-11
1.6859479e-08
3.9534822e-11
1.6820831e-08
3.8647765e-11
1.6783028e-08
3.7803472e-11
1.6746028e-08
3.6999501e-11
1.6709794e-08
3.6233771e-11
1.667429e-08
3.5504861e-11
1.6639478e-08
3.4811612e-11
1.6605325e-08
3.4152976e-11
1.6571798e-08
3.3527444e-11
1.6538865e-08
3.2933048e-11
1.6506497e-08
3.2367873e-11
1.6474666e-08
3.183021e-11
1.6443347e-08
3.1318995e-11
1.6412514e-08
3.0833694e-11
1.638214e-08
3.0373831e-11
1.6352201e-08
2.9939067e-11
1.6322671e-08
2.9529513e-11
1.6293526e-08
2.9145853e-11
1.6264737e-08
2.8788529e-11
1.623628e-08
2.8456631e-11
1.6208132e-08
2.8148112e-11
1.6180271e-08
2.7861156e-11
1.6152676e-08
2.7595226e-11
1.6125325e-08
2.7350994e-11
1.6098195e-08
2.7129752e-11
1.6071262e-08
2.6933535e-11
1.6044497e-08
2.6764892e-11
1.6017872e-08
2.6624854e-11
1.599136e-08
2.6511371e-11
1.596494e-08
2.6420912e-11
1.5938588e-08
2.6351334e-11
1.5912285e-08
2.6303527e-11
1.5886005e-08
2.6280028e-11
1.5859717e-08
2.6287588e-11
1.5833418e-08
2.6298745e-11
1.5807004e-08
2.6414671e-11
1.5781315e-08
2.568905e-11
1.5756736e-08
2.457877e-11
1.5733116e-08
2.3619768e-11
1.5710376e-08
2.2740317e-11
1.5688456e-08
2.1919933e-11
1.5667309e-08
2.1146925e-11
1.5646898e-08
2.0410888e-11
1.5627193e-08
1.9705512e-11
1.5608165e-08
1.9027411e-11
1.558979e-08
1.8375409e-11
1.557204e-08
1.7750024e-11
1.5554888e-08
1.7151726e-11
1.5538308e-08
1.6580159e-11
1.5522273e-08
1.6035056e-11
1.5506757e-08
1.5515794e-11
1.5491733e-08
1.5024027e-11
1.5477179e-08
1.4554184e-11
1.5463043e-08
1.4136185e-11
1.544936e-08
1.3682752e-11
1.5435797e-08
1.3562308e-11
1.5423101e-08
1.2696679e-11
1.5407684e-08
1.5416952e-11
9.7536164e-12
2.0345264e-06
3.2827895e-12
2.0345226e-06
7.3023227e-12
2.0345181e-06
8.7125341e-12
2.0345131e-06
9.6545517e-12
2.0345074e-06
1.09278e-11
2.034501e-06
1.2544103e-11
2.0344935e-06
1.4497648e-11
2.0344848e-06
1.6830155e-11
2.0344747e-06
1.9624171e-11
2.0344628e-06
2.2998978e-11
2.0344488e-06
2.7115715e-11
2.0344322e-06
3.2200809e-11
2.0344124e-06
3.8580151e-11
2.0343883e-06
4.6773185e-11
2.0343588e-06
5.7531733e-11
2.0343216e-06
7.239288e-11
2.0342738e-06
9.3069498e-11
2.0342089e-06
1.2662807e-10
2.03412e-06
1.7357883e-10
2.0339724e-06
2.8829422e-10
2.0337622e-06
4.1111094e-10
2.0331443e-06
1.2080708e-09
2.0330685e-06
1.4392062e-10
1.1026388e-06
1.902825e-06
1.3033157e-07
1.9597546e-06
8.4224275e-08
6.200715e-08
7.7948494e-08
8.3278173e-09
7.5343853e-08
3.4558128e-09
7.3384834e-08
2.5992287e-09
7.1635058e-08
2.3219779e-09
7.0042023e-08
2.1140465e-09
6.860589e-08
1.9057022e-09
6.7320174e-08
1.7059834e-09
6.6169049e-08
1.527327e-09
6.5135169e-08
1.3717211e-09
6.4203051e-08
1.2366724e-09
6.3359385e-08
1.1192906e-09
6.2592704e-08
1.0171301e-09
6.1893109e-08
9.2811112e-10
6.1252059e-08
8.5042791e-10
6.0662223e-08
7.8247761e-10
6.0117339e-08
7.2283544e-10
5.9612072e-08
6.7027296e-10
5.9141895e-08
6.2371751e-10
5.8702932e-08
5.8230698e-10
5.8291851e-08
5.4531657e-10
5.7905793e-08
5.1211788e-10
5.7542263e-08
4.8223141e-10
5.7199088e-08
4.552282e-10
5.6874392e-08
4.3071372e-10
5.6566516e-08
4.0839844e-10
5.6273984e-08
3.8804407e-10
5.5995502e-08
3.6940433e-10
5.5729933e-08
3.5227365e-10
5.5476245e-08
3.3651262e-10
5.5233508e-08
3.2198609e-10
5.5000902e-08
3.0854662e-10
5.4777694e-08
2.9607764e-10
5.4563214e-08
2.845005e-10
5.4356846e-08
2.7373822e-10
5.4158046e-08
2.6370032e-10
5.3966324e-08
2.5431018e-10
5.3781229e-08
2.455177e-10
5.3602343e-08
2.3728185e-10
5.3429284e-08
2.295531e-10
5.3261706e-08
2.2228012e-10
5.3099296e-08
2.1542507e-10
5.2941758e-08
2.0896227e-10
5.2788814e-08
2.028687e-10
5.2640207e-08
1.9711452e-10
5.2495704e-08
1.9166926e-10
5.235509e-08
1.8651123e-10
5.221816e-08
1.816246e-10
5.208472e-08
1.7699463e-10
5.195459e-08
1.7260232e-10
5.1827609e-08
1.6842696e-10
5.1703623e-08
1.6445244e-10
5.158249e-08
1.6066758e-10
5.1464073e-08
1.5706463e-10
5.1348242e-08
1.5363499e-10
5.1234872e-08
1.5036896e-10
5.1123847e-08
1.4725866e-10
5.1015054e-08
1.4429806e-10
5.0908383e-08
1.4148229e-10
5.0803729e-08
1.3880689e-10
5.0700991e-08
1.3626568e-10
5.0600073e-08
1.3385105e-10
5.0500886e-08
1.3155535e-10
5.0403345e-08
1.2937143e-10
5.0307369e-08
1.2729495e-10
5.0212879e-08
1.2532346e-10
5.0119798e-08
1.2345514e-10
5.0028048e-08
1.2168898e-10
4.9937552e-08
1.2002525e-10
4.9848231e-08
1.1846667e-10
4.9760005e-08
1.1701484e-10
4.9672795e-08
1.1566608e-10
4.9586531e-08
1.144124e-10
4.9501146e-08
1.132464e-10
4.9416575e-08
1.1216585e-10
4.9332753e-08
1.1117329e-10
4.9249609e-08
1.1027391e-10
4.9167066e-08
1.0947616e-10
4.9085041e-08
1.0879038e-10
4.9003445e-08
1.0822076e-10
4.8922197e-08
1.0775885e-10
4.8841228e-08
1.0739037e-10
4.8760472e-08
1.0710683e-10
4.8679864e-08
1.0691176e-10
4.8599329e-08
1.0681534e-10
4.8518771e-08
1.0684482e-10
4.8438181e-08
1.068893e-10
4.8357238e-08
1.0735742e-10
4.8278527e-08
1.0440064e-10
4.8203226e-08
9.9879833e-11
4.813087e-08
9.5975613e-11
4.8061214e-08
9.2396231e-11
4.7994076e-08
8.9058144e-11
4.7929309e-08
8.591366e-11
4.7866799e-08
8.2920381e-11
4.7806452e-08
8.0052535e-11
4.7748184e-08
7.7296179e-11
4.7691913e-08
7.4646414e-11
4.7637557e-08
7.2105122e-11
4.7585035e-08
6.9674121e-11
4.7534263e-08
6.7351983e-11
4.7485161e-08
6.5137541e-11
4.7437648e-08
6.3028209e-11
4.7391642e-08
6.1030696e-11
4.7347074e-08
5.9122194e-11
4.7303785e-08
5.7424423e-11
4.7261886e-08
5.5581694e-11
4.7220355e-08
5.5093803e-11
4.7181494e-08
5.1557644e-11
4.7134202e-08
6.2709434e-11
3.9512189e-11
2.0947192e-06
5.12416e-12
2.0947151e-06
1.1411645e-11
2.0947102e-06
1.3623686e-11
2.0947048e-06
1.5093204e-11
2.0946986e-06
1.7079896e-11
2.0946916e-06
1.9598544e-11
2.0946834e-06
2.2637607e-11
2.094674e-06
2.6261946e-11
2.094663e-06
3.0599951e-11
2.0946502e-06
3.5836277e-11
2.0946351e-06
4.2219849e-11
2.0946172e-06
5.0100319e-11
2.0945958e-06
5.9980894e-11
2.0945699e-06
7.2663743e-11
2.0945381e-06
8.9309118e-11
2.0944982e-06
1.1229021e-10
2.094447e-06
1.4424462e-10
2.0943776e-06
1.9608188e-10
2.0942826e-06
2.6852981e-10
2.0941254e-06
4.4550152e-10
2.0939017e-06
6.3488009e-10
2.0932445e-06
1.8651983e-09
2.0931595e-06
2.2895169e-10
1.1920593e-06
2.8039252e-06
2.2239639e-07
2.9294174e-06
1.459617e-07
1.3844184e-07
1.350875e-07
1.920202e-08
1.3057522e-07
7.9680858e-09
1.2718237e-07
5.9920812e-09
1.2415327e-07
5.3510792e-09
1.2139538e-07
4.8719384e-09
1.1890824e-07
4.3928428e-09
1.1668076e-07
3.9334592e-09
1.1468591e-07
3.5221742e-09
1.1289388e-07
3.1637544e-09
1.1127795e-07
2.8525996e-09
1.0981515e-07
2.5820993e-09
1.0848564e-07
2.3466308e-09
1.0727234e-07
2.1414117e-09
1.0616048e-07
1.9622936e-09
1.0513736e-07
1.8055944e-09
1.0419216e-07
1.6680397e-09
1.0331563e-07
1.546801e-09
1.0249993e-07
1.439412e-09
1.0173836e-07
1.343883e-09
1.0102513e-07
1.2585463e-09
1.0035529e-07
1.1819557e-09
9.9724521e-08
1.1130013e-09
9.9129052e-08
1.0506975e-09
9.8565629e-08
9.941364e-10
9.8031381e-08
9.4264653e-10
9.7523747e-08
8.9567866e-10
9.7040483e-08
8.5266813e-10
9.6579617e-08
8.1313988e-10
9.613936e-08
7.7676954e-10
9.5718099e-08
7.4324702e-10
9.5314411e-08
7.1223449e-10
9.4927027e-08
6.8346163e-10
9.4554782e-08
6.5674513e-10
9.4196612e-08
6.3190822e-10
9.3851568e-08
6.0874417e-10
9.3518803e-08
5.8707578e-10
9.3197535e-08
5.667858e-10
9.2887037e-08
5.477792e-10
9.2586647e-08
5.2994315e-10
9.2295767e-08
5.1316011e-10
9.2013851e-08
4.9734157e-10
9.1740385e-08
4.8242756e-10
9.1474889e-08
4.6836491e-10
9.1216918e-08
4.5508582e-10
9.0966067e-08
4.4252049e-10
9.072196e-08
4.3061801e-10
9.0484243e-08
4.193414e-10
9.0252581e-08
4.0865655e-10
9.0026663e-08
3.9852034e-10
8.9806205e-08
3.8888549e-10
8.9590943e-08
3.7971428e-10
8.938063e-08
3.7098057e-10
8.9175028e-08
3.6266628e-10
8.8973911e-08
3.5475183e-10
8.8777065e-08
3.4721526e-10
8.8584285e-08
3.4003828e-10
8.8395377e-08
3.3320659e-10
8.821015e-08
3.2670883e-10
8.8028423e-08
3.205347e-10
8.7850018e-08
3.1467028e-10
8.7674771e-08
3.0909819e-10
8.7502526e-08
3.0380057e-10
8.7333136e-08
2.9876081e-10
8.7166462e-08
2.9396874e-10
8.7002367e-08
2.8941885e-10
8.6840715e-08
2.8510716e-10
8.6681373e-08
2.8103119e-10
8.6524207e-08
2.771914e-10
8.6369079e-08
2.7359393e-10
8.6215852e-08
2.7024248e-10
8.6064389e-08
2.6712884e-10
8.5914567e-08
2.6423469e-10
8.576627e-08
2.6154288e-10
8.5619388e-08
2.5904809e-10
8.5473805e-08
2.5675612e-10
8.53294e-08
2.5467905e-10
8.518604e-08
2.5283632e-10
8.5043579e-08
2.5125163e-10
8.4901865e-08
2.499346e-10
8.4760758e-08
2.4886597e-10
8.4620135e-08
2.4801306e-10
8.4479886e-08
2.4735623e-10
8.4339894e-08
2.4690345e-10
8.4200031e-08
2.4667799e-10
8.4060133e-08
2.4674266e-10
8.392018e-08
2.4684268e-10
8.3779622e-08
2.4791526e-10
8.3642956e-08
2.410666e-10
8.3512232e-08
2.3060357e-10
8.3386639e-08
2.2156874e-10
8.3265747e-08
2.1328847e-10
8.3149236e-08
2.0556898e-10
8.303685e-08
1.9829975e-10
8.2928388e-08
1.9138247e-10
8.2823684e-08
1.847571e-10
8.2722589e-08
1.7839097e-10
8.2624963e-08
1.7227232e-10
8.2530663e-08
1.6640515e-10
8.2439544e-08
1.607934e-10
8.2351462e-08
1.5543358e-10
8.2266277e-08
1.5032286e-10
8.218385e-08
1.4545511e-10
8.2104035e-08
1.4084572e-10
8.2026715e-08
1.3644183e-10
8.1951615e-08
1.3252459e-10
8.1878925e-08
1.2827164e-10
8.1806871e-08
1.2714736e-10
8.1739469e-08
1.1896003e-10
8.165733e-08
1.4484876e-10
9.1034235e-11
2.1861282e-06
7.1562604e-12
2.1861236e-06
1.5958192e-11
2.1861182e-06
1.906518e-11
2.1861122e-06
2.1116849e-11
2.1861054e-06
2.3890721e-11
2.1860976e-06
2.7402463e-11
2.1860886e-06
3.1632366e-11
2.1860782e-06
3.6670598e-11
2.1860661e-06
4.2695782e-11
2.1860519e-06
4.9963584e-11
2.1860353e-06
5.8817884e-11
2.1860157e-06
6.9741507e-11
2.1859923e-06
8.3429253e-11
2.1859639e-06
1.0098886e-10
2.1859292e-06
1.2402139e-10
2.1858857e-06
1.5580331e-10
2.18583e-06
1.9996554e-10
2.1857545e-06
2.7156901e-10
2.1856515e-06
3.7152821e-10
2.1854814e-06
6.1564377e-10
2.1852395e-06
8.7671934e-10
2.1845297e-06
2.5749971e-09
2.1844327e-06
3.2595067e-10
1.3027745e-06
3.6855834e-06
3.247555e-07
3.9074364e-06
2.1640675e-07
2.4679059e-07
2.002949e-07
3.5313868e-08
1.936085e-07
1.465449e-08
1.8858485e-07
1.1015735e-08
1.8410167e-07
9.8342538e-09
1.8001923e-07
8.9543824e-09
1.7633568e-07
8.0763912e-09
1.7303492e-07
7.2342179e-09
1.7007764e-07
6.4794591e-09
1.6742016e-07
5.8212284e-09
1.6502321e-07
5.2495502e-09
1.6285289e-07
4.7524161e-09
1.6087998e-07
4.3195465e-09
1.590792e-07
3.9421862e-09
1.5742876e-07
3.6127418e-09
1.5590988e-07
3.3244747e-09
1.5450653e-07
3.0713873e-09
1.5320504e-07
2.8482911e-09
1.5199379e-07
2.6506627e-09
1.5086283e-07
2.4748434e-09
1.498036e-07
2.3177717e-09
1.4880876e-07
2.1767923e-09
1.4787191e-07
2.0498585e-09
1.4698744e-07
1.9351623e-09
1.4615054e-07
1.8310372e-09
1.4535695e-07
1.7362421e-09
1.4460286e-07
1.6497675e-09
1.4388495e-07
1.5705791e-09
1.4320029e-07
1.4978014e-09
1.4254622e-07
1.4308338e-09
1.4192036e-07
1.3691081e-09
1.4132059e-07
1.3120057e-09
1.4074502e-07
1.2590271e-09
1.4019194e-07
1.2098322e-09
1.3965975e-07
1.164097e-09
1.3914705e-07
1.1214439e-09
1.3865258e-07
1.081546e-09
1.3817518e-07
1.044185e-09
1.3771377e-07
1.0091855e-09
1.3726737e-07
9.7634197e-10
1.3683509e-07
9.4543926e-10
1.3641612e-07
9.1631261e-10
1.360097e-07
8.8885054e-10
1.3561511e-07
8.6295512e-10
1.3523169e-07
8.3850312e-10
1.3485885e-07
8.153667e-10
1.3449601e-07
7.934508e-10
1.3414267e-07
7.7268674e-10
1.3379831e-07
7.5301158e-10
1.3346249e-07
7.3434704e-10
1.3313477e-07
7.1660679e-10
1.3281476e-07
6.9972057e-10
1.325021e-07
6.8363978e-10
1.3219644e-07
6.6833069e-10
1.3189743e-07
6.5375774e-10
1.3160476e-07
6.3988113e-10
1.3131814e-07
6.2666678e-10
1.3103725e-07
6.14088e-10
1.3076184e-07
6.0212359e-10
1.3049162e-07
5.9075456e-10
1.3022633e-07
5.7995586e-10
1.2996574e-07
5.6969572e-10
1.297096e-07
5.5994097e-10
1.294577e-07
5.506609e-10
1.2920983e-07
5.4183653e-10
1.2896579e-07
5.3345793e-10
1.2872538e-07
5.2551804e-10
1.284884e-07
5.1801197e-10
1.2825465e-07
5.1094039e-10
1.2802393e-07
5.0431424e-10
1.2779603e-07
4.9814048e-10
1.2757075e-07
4.9240444e-10
1.2734792e-07
4.8707261e-10
1.2712735e-07
4.8211331e-10
1.2690888e-07
4.7751652e-10
1.2669234e-07
4.7329276e-10
1.2647756e-07
4.694643e-10
1.2626432e-07
4.660668e-10
1.2605243e-07
4.6314354e-10
1.2584166e-07
4.6071227e-10
1.2563178e-07
4.5873806e-10
1.2542264e-07
4.5716126e-10
1.2521405e-07
4.5594565e-10
1.2500584e-07
4.5510546e-10
1.2479784e-07
4.5468317e-10
1.2458979e-07
4.5479397e-10
1.2438166e-07
4.5497148e-10
1.2417265e-07
4.56928e-10
1.2396946e-07
4.4425536e-10
1.2377515e-07
4.2491377e-10
1.235885e-07
4.0821452e-10
1.2340887e-07
3.9291707e-10
1.2323578e-07
3.7866213e-10
1.2306883e-07
3.6524497e-10
1.2290773e-07
3.5248336e-10
1.2275222e-07
3.4026525e-10
1.2260209e-07
3.2852937e-10
1.2245711e-07
3.1725299e-10
1.2231707e-07
3.0644255e-10
1.2218176e-07
2.961047e-10
1.2205096e-07
2.8623253e-10
1.2192446e-07
2.7682045e-10
1.2180206e-07
2.6785685e-10
1.2168353e-07
2.5936991e-10
1.2156871e-07
2.5126182e-10
1.2145719e-07
2.4405064e-10
1.2134924e-07
2.362206e-10
1.2124224e-07
2.341514e-10
1.2114214e-07
2.1905233e-10
1.2102009e-07
2.6690491e-10
1.6749796e-10
2.3101154e-06
9.4334357e-12
2.3101103e-06
2.1067418e-11
2.3101042e-06
2.5190221e-11
2.3100974e-06
2.7894816e-11
2.3100897e-06
3.1550934e-11
2.310081e-06
3.6172827e-11
2.3100709e-06
4.1729546e-11
2.3100592e-06
4.8339325e-11
2.3100457e-06
5.6236678e-11
2.3100299e-06
6.5755571e-11
2.3100113e-06
7.7344126e-11
2.3099894e-06
9.1631227e-11
2.3099634e-06
1.0952176e-10
2.3099319e-06
1.3245862e-10
2.3098934e-06
1.6252558e-10
2.3098452e-06
2.039894e-10
2.3097836e-06
2.6156328e-10
2.3097003e-06
3.5485895e-10
2.3095869e-06
4.8493861e-10
2.3094e-06
8.0252973e-10
2.3091348e-06
1.1419512e-09
2.3083569e-06
3.3529067e-09
2.3082444e-06
4.3841725e-10
1.4386762e-06
4.5551516e-06
4.4281371e-07
4.9032989e-06
2.9971467e-07
3.8988963e-07
2.7742719e-07
5.760135e-08
2.6817254e-07
2.3909139e-08
2.6123013e-07
1.7958141e-08
2.550374e-07
1.6026987e-08
2.4939659e-07
1.4595188e-08
2.4430342e-07
1.3169564e-08
2.3973622e-07
1.1801418e-08
2.3564191e-07
1.057377e-08
2.3196103e-07
9.5021067e-09
2.2863979e-07
8.5707907e-09
2.2563164e-07
7.7605653e-09
2.2289637e-07
7.0548174e-09
2.203992e-07
6.4393589e-09
2.1811006e-07
5.9018808e-09
2.1600307e-07
5.431459e-09
2.140561e-07
5.0183617e-09
2.1225023e-07
4.654156e-09
2.1056941e-07
4.3314865e-09
2.0899986e-07
4.04439e-09
2.0752975e-07
3.787882e-09
2.0614891e-07
3.5576379e-09
2.0484845e-07
3.350314e-09
2.0362065e-07
3.1629666e-09
2.024588e-07
2.9928814e-09
2.0135702e-07
2.8380262e-09
2.0031003e-07
2.6967542e-09
1.9931323e-07
2.5673837e-09
1.9836255e-07
2.4484844e-09
1.9745431e-07
2.3390703e-09
1.965852e-07
2.238217e-09
1.9575229e-07
2.1449193e-09
1.9495295e-07
2.0583586e-09
1.9418481e-07
1.9779762e-09
1.9344566e-07
1.9032446e-09
1.9273356e-07
1.8335511e-09
1.9204674e-07
1.7683611e-09
1.9138361e-07
1.7073147e-09
1.9074267e-07
1.6501245e-09
1.9012256e-07
1.5964578e-09
1.8952203e-07
1.5459647e-09
1.8893997e-07
1.498374e-09
1.8837532e-07
1.4535018e-09
1.8782709e-07
1.411188e-09
1.8729435e-07
1.3712334e-09
1.8677629e-07
1.3334302e-09
1.8627212e-07
1.2976214e-09
1.8578111e-07
1.2636939e-09
1.8530258e-07
1.2315446e-09
1.8483588e-07
1.2010472e-09
1.8438043e-07
1.1720617e-09
1.8393567e-07
1.1444722e-09
1.8350111e-07
1.1181987e-09
1.8307626e-07
1.0931853e-09
1.8266064e-07
1.0693747e-09
1.8225382e-07
1.0467023e-09
1.8185538e-07
1.0251122e-09
1.814649e-07
1.0045603e-09
1.8108202e-07
9.8501133e-10
1.8070634e-07
9.6643441e-10
1.803375e-07
9.4878924e-10
1.7997517e-07
9.3202431e-10
1.7961903e-07
9.160852e-10
1.7926877e-07
9.0092158e-10
1.789241e-07
8.8650205e-10
1.7858475e-07
8.7281055e-10
1.7825043e-07
8.5983576e-10
1.7792088e-07
8.4756934e-10
1.7759581e-07
8.3601204e-10
1.7727494e-07
8.2518124e-10
1.7695799e-07
8.1508837e-10
1.7664468e-07
8.0571022e-10
1.7633476e-07
7.9699251e-10
1.7602799e-07
7.8888348e-10
1.7572414e-07
7.8136632e-10
1.7542298e-07
7.7445787e-10
1.7512425e-07
7.6819445e-10
1.7482768e-07
7.6263389e-10
1.7453298e-07
7.5784643e-10
1.7423983e-07
7.5386113e-10
1.7394795e-07
7.5062206e-10
1.7365708e-07
7.4803264e-10
1.7336699e-07
7.4603362e-10
1.7307745e-07
7.4464749e-10
1.7278819e-07
7.4394284e-10
1.7249887e-07
7.4410677e-10
1.7220946e-07
7.4438286e-10
1.7191885e-07
7.4754175e-10
1.716364e-07
7.2670527e-10
1.7136637e-07
6.9494183e-10
1.7110706e-07
6.6752161e-10
1.7085756e-07
6.4241795e-10
1.7061718e-07
6.1903927e-10
1.7038538e-07
5.9704769e-10
1.7016172e-07
5.7614294e-10
1.6994585e-07
5.5613901e-10
1.6973744e-07
5.369333e-10
1.6953621e-07
5.1848653e-10
1.6934185e-07
5.0080724e-10
1.6915405e-07
4.839049e-10
1.6897251e-07
4.6776731e-10
1.6879695e-07
4.5238459e-10
1.6862707e-07
4.3773706e-10
1.6846257e-07
4.2387042e-10
1.683032e-07
4.1062411e-10
1.6814841e-07
3.9884529e-10
1.6799857e-07
3.8605512e-10
1.6785005e-07
3.8267598e-10
1.6771111e-07
3.5798996e-10
1.6754162e-07
4.3640139e-10
2.7361669e-10
2.4685286e-06
1.202196e-11
2.4685228e-06
2.6893151e-11
2.4685158e-06
3.218731e-11
2.468508e-06
3.5635388e-11
2.4684993e-06
4.0294879e-11
2.4684893e-06
4.617599e-11
2.4684778e-06
5.3232597e-11
2.4684645e-06
6.161447e-11
2.4684491e-06
7.1619193e-11
2.4684312e-06
8.3668283e-11
2.4684102e-06
9.832588e-11
2.4683855e-06
1.1638327e-10
2.468356e-06
1.3897885e-10
2.4683205e-06
1.6792815e-10
2.4682772e-06
2.0585075e-10
2.4682231e-06
2.5811394e-10
2.468154e-06
3.3062562e-10
2.4680608e-06
4.4805447e-10
2.4679342e-06
6.1155911e-10
2.4677261e-06
1.0106427e-09
2.4674312e-06
1.4368179e-09
2.4665671e-06
4.2169884e-09
2.4664348e-06
5.7076982e-10
1.6040144e-06
5.417572e-06
5.8244342e-07
5.9248699e-06
4.0072015e-07
5.716129e-07
3.7098162e-07
8.7339879e-08
3.5861702e-07
3.6273744e-08
3.493654e-07
2.7209765e-08
3.4111699e-07
2.4275388e-08
3.3360065e-07
2.2111531e-08
3.26808e-07
1.9962213e-08
3.2071121e-07
1.7898206e-08
3.1524158e-07
1.6043403e-08
3.1032136e-07
1.4422332e-08
3.0587972e-07
1.3012425e-08
3.0185516e-07
1.1785128e-08
2.981944e-07
1.0715575e-08
2.9485132e-07
9.7824444e-09
2.9178598e-07
8.9672189e-09
2.8896398e-07
8.2534619e-09
2.8635582e-07
7.6265141e-09
2.8393633e-07
7.0736487e-09
2.8168406e-07
6.5837555e-09
2.7958065e-07
6.1478021e-09
2.7761028e-07
5.7582488e-09
2.7575937e-07
5.4085482e-09
2.7401606e-07
5.0936248e-09
2.7237001e-07
4.8090225e-09
2.7081226e-07
4.5506304e-09
2.6933493e-07
4.3153574e-09
2.6793097e-07
4.1007051e-09
2.6659423e-07
3.9041304e-09
2.6531925e-07
3.7234608e-09
2.6410113e-07
3.5571929e-09
2.6293542e-07
3.4039273e-09
2.6181819e-07
3.2621443e-09
2.6074595e-07
3.1305978e-09
2.597155e-07
3.0084343e-09
2.5872389e-07
2.894855e-09
2.577685e-07
2.7889349e-09
2.56847e-07
2.6898609e-09
2.5595724e-07
2.5970822e-09
2.550972e-07
2.5101608e-09
2.5426506e-07
2.4285952e-09
2.5345917e-07
2.3518559e-09
2.5267802e-07
2.2795281e-09
2.5192019e-07
2.2113302e-09
2.5118436e-07
2.1470187e-09
2.504693e-07
2.0862937e-09
2.4977389e-07
2.0288404e-09
2.4909709e-07
1.9744187e-09
2.4843793e-07
1.9228551e-09
2.4779548e-07
1.8739929e-09
2.4716889e-07
1.827642e-09
2.4655736e-07
1.7835909e-09
2.4596017e-07
1.7416629e-09
2.4537663e-07
1.7017349e-09
2.4480609e-07
1.6637214e-09
2.4424793e-07
1.6275354e-09
2.4370155e-07
1.5930799e-09
2.431664e-07
1.5602693e-09
2.4264192e-07
1.5290359e-09
2.4212761e-07
1.4993258e-09
2.4162295e-07
1.4710916e-09
2.4112747e-07
1.4442731e-09
2.406407e-07
1.4187925e-09
2.4016222e-07
1.3945671e-09
2.3969162e-07
1.3715203e-09
2.3922852e-07
1.3496037e-09
2.3877253e-07
1.328793e-09
2.383233e-07
1.309071e-09
2.3788044e-07
1.2904248e-09
2.374436e-07
1.2728548e-09
2.3701239e-07
1.2563866e-09
2.3658645e-07
1.2410379e-09
2.3616538e-07
1.2267742e-09
2.3574886e-07
1.2135142e-09
2.3533656e-07
1.2011793e-09
2.3492819e-07
1.1897433e-09
2.3452341e-07
1.1792311e-09
2.3412191e-07
1.1696975e-09
2.3372331e-07
1.1612295e-09
2.3332723e-07
1.1539332e-09
2.3293324e-07
1.1478531e-09
2.3254095e-07
1.142906e-09
2.3215004e-07
1.1389468e-09
2.3176019e-07
1.1358853e-09
2.3137108e-07
1.1337545e-09
2.3098237e-07
1.1326569e-09
2.305936e-07
1.1328748e-09
2.3020471e-07
1.1332689e-09
2.2981425e-07
1.1380001e-09
2.2943487e-07
1.1060868e-09
2.2907231e-07
1.0575068e-09
2.2872425e-07
1.0155757e-09
2.2838946e-07
9.7721499e-10
2.2806698e-07
9.4151656e-10
2.2775606e-07
9.0796096e-10
2.2745612e-07
8.760868e-10
2.2716665e-07
8.4560588e-10
2.2688723e-07
8.1635771e-10
2.2661744e-07
7.8827848e-10
2.2635687e-07
7.6137744e-10
2.2610511e-07
7.3566634e-10
2.2586175e-07
7.111249e-10
2.256264e-07
6.8773669e-10
2.2539866e-07
6.6547059e-10
2.2517814e-07
6.4439545e-10
2.249645e-07
6.2426587e-10
2.2475697e-07
6.0637106e-10
2.2455609e-07
5.8693933e-10
2.2435695e-07
5.8180897e-10
2.2417065e-07
5.442891e-10
2.2394331e-07
6.6374888e-10
4.1591167e-10
2.6637284e-06
1.5003225e-11
2.6637217e-06
3.362541e-11
2.6637136e-06
4.029017e-11
2.6637046e-06
4.459679e-11
2.6636945e-06
5.04129e-11
2.6636829e-06
5.7741586e-11
2.6636696e-06
6.6516447e-11
2.6636543e-06
7.6923119e-11
2.6636366e-06
8.9331286e-11
2.663616e-06
1.0426163e-10
2.6635919e-06
1.2240903e-10
2.6635636e-06
1.447476e-10
2.6635299e-06
1.7267854e-10
2.6634894e-06
2.0843685e-10
2.66344e-06
2.5524419e-10
2.6633784e-06
3.197061e-10
2.6632999e-06
4.0906501e-10
2.6631943e-06
5.5367899e-10
2.6630511e-06
7.5473365e-10
2.6628165e-06
1.2453129e-09
2.6624846e-06
1.7687129e-09
2.661513e-06
5.1885709e-09
2.6613551e-06
7.2866546e-10
1.8034556e-06
6.2754716e-06
7.5012573e-07
6.9781997e-06
5.2512238e-07
7.9661625e-07
4.8627358e-07
1.2618868e-07
4.7009009e-07
5.2457236e-08
4.5802417e-07
3.9275686e-08
4.4727322e-07
3.5026336e-08
4.3747119e-07
3.1913557e-08
4.2860325e-07
2.8830162e-08
4.206347e-07
2.5866753e-08
4.1347911e-07
2.3198994e-08
4.0703745e-07
2.0863993e-08
4.012188e-07
1.8831075e-08
3.9594378e-07
1.7060147e-08
3.9114346e-07
1.5515895e-08
3.8675803e-07
1.4167871e-08
3.8273566e-07
1.298959e-08
3.7903159e-07
1.1957529e-08
3.7560742e-07
1.1050683e-08
3.7243029e-07
1.0250775e-08
3.6947223e-07
9.5418234e-09
3.6670922e-07
8.910813e-09
3.641206e-07
8.3468692e-09
3.6168859e-07
7.8405526e-09
3.5939769e-07
7.3845272e-09
3.5723435e-07
6.9723641e-09
3.5518685e-07
6.5981306e-09
3.5324486e-07
6.2573485e-09
3.5139916e-07
5.9464057e-09
3.4964165e-07
5.6616355e-09
3.4796522e-07
5.3998944e-09
3.4636341e-07
5.1589988e-09
3.4483041e-07
4.9369291e-09
3.4336106e-07
4.7314941e-09
3.4195077e-07
4.5408868e-09
3.4059534e-07
4.3638657e-09
3.3929092e-07
4.1992771e-09
3.3803406e-07
4.0457889e-09
3.368217e-07
3.902223e-09
3.3565101e-07
3.7677762e-09
3.3451935e-07
3.6418126e-09
3.3342434e-07
3.5236104e-09
3.3236379e-07
3.4124055e-09
3.3133572e-07
3.3075941e-09
3.3033829e-07
3.2087651e-09
3.2936974e-07
3.1155652e-09
3.2842847e-07
3.0275633e-09
3.2751301e-07
2.9443054e-09
3.2662199e-07
2.8654408e-09
3.2575412e-07
2.7907169e-09
3.2490821e-07
2.7199064e-09
3.2408312e-07
2.6527359e-09
3.2327781e-07
2.588901e-09
3.2249132e-07
2.5281448e-09
3.2172277e-07
2.4702873e-09
3.2097129e-07
2.4152033e-09
3.2023606e-07
2.3627671e-09
3.195163e-07
2.3128391e-09
3.1881127e-07
2.2652946e-09
3.1812028e-07
2.2200348e-09
3.1744262e-07
2.1769808e-09
3.1677765e-07
2.1360638e-09
3.1612472e-07
2.0971972e-09
3.1548325e-07
2.0602696e-09
3.1485265e-07
2.025161e-09
3.1423241e-07
1.9917605e-09
3.1362202e-07
1.9599973e-09
3.1302098e-07
1.9298355e-09
3.124288e-07
1.9012505e-09
3.11845e-07
1.8742227e-09
3.112691e-07
1.8487522e-09
3.1070061e-07
1.8248749e-09
3.1013904e-07
1.8026161e-09
3.0958388e-07
1.7819279e-09
3.090347e-07
1.7626938e-09
3.0849108e-07
1.7448005e-09
3.0795262e-07
1.728209e-09
3.0741889e-07
1.7129541e-09
3.0688948e-07
1.6991144e-09
3.0636389e-07
1.6868146e-09
3.0584162e-07
1.6762071e-09
3.0532211e-07
1.6673571e-09
3.0480487e-07
1.6601475e-09
3.0428945e-07
1.6543703e-09
3.0377544e-07
1.6498952e-09
3.0326243e-07
1.6467672e-09
3.0274995e-07
1.6451326e-09
3.0223743e-07
1.6453962e-09
3.0172477e-07
1.6459253e-09
3.0121011e-07
1.6526643e-09
3.0071021e-07
1.6059845e-09
3.0023267e-07
1.5350425e-09
2.9977443e-07
1.4738194e-09
2.9933379e-07
1.4178572e-09
2.9890948e-07
1.3658247e-09
2.9850048e-07
1.3169583e-09
2.9810599e-07
1.2705806e-09
2.9772533e-07
1.2262643e-09
2.9735792e-07
1.183769e-09
2.970032e-07
1.1429951e-09
2.9666063e-07
1.1039494e-09
2.9632965e-07
1.0666444e-09
2.9600973e-07
1.0310475e-09
2.9570033e-07
9.9713273e-10
2.9540095e-07
9.6485265e-10
2.9511104e-07
9.3430623e-10
2.9483017e-07
9.0513534e-10
2.9455733e-07
8.7921208e-10
2.9429321e-07
8.5106154e-10
2.9403138e-07
8.4363922e-10
2.9378639e-07
7.8928134e-10
2.9348733e-07
9.6280282e-10
6.0306292e-10
2.8986238e-06
1.8477759e-11
2.8986159e-06
4.1500316e-11
2.8986064e-06
4.9790426e-11
2.8985959e-06
5.510124e-11
2.8985841e-06
6.2267053e-11
2.8985705e-06
7.128022e-11
2.898555e-06
8.2047411e-11
2.8985371e-06
9.4795491e-11
2.8985165e-06
1.0997754e-10
2.8984925e-06
1.2822786e-10
2.8984645e-06
1.5039035e-10
2.8984316e-06
1.7764725e-10
2.8983926e-06
2.1169883e-10
2.8983458e-06
2.5525757e-10
2.8982888e-06
3.1222921e-10
2.8982179e-06
3.9062804e-10
2.8981277e-06
4.99203e-10
2.8980066e-06
6.7478475e-10
2.8978429e-06
9.1849059e-10
2.8975753e-06
1.5129284e-09
2.8971975e-06
2.1464636e-09
2.8960931e-06
6.2930312e-09
2.8959023e-06
9.1938283e-10
2.0420915e-06
7.1292824e-06
9.5301029e-07
8.067281e-06
6.7962175e-07
1.0700048e-06
6.2957386e-07
1.7623657e-07
6.0867856e-07
7.3352536e-08
5.9316976e-07
5.4784481e-08
5.7936183e-07
4.8834265e-08
5.6676446e-07
4.4510929e-08
5.5535263e-07
4.0241987e-08
5.4508416e-07
3.6135228e-08
5.3585263e-07
3.2430523e-08
5.2753441e-07
2.9182217e-08
5.200149e-07
2.635058e-08
5.1319347e-07
2.3881576e-08
5.069824e-07
2.172697e-08
5.0130539e-07
1.9844876e-08
4.9609622e-07
1.8198766e-08
4.9129757e-07
1.6756177e-08
4.8686018e-07
1.5488074e-08
4.8274183e-07
1.4369124e-08
4.7890652e-07
1.3377135e-08
4.7532334e-07
1.2493991e-08
4.7196566e-07
1.1704545e-08
4.6881057e-07
1.0995647e-08
4.6583804e-07
1.0357055e-08
4.630306e-07
9.7798045e-09
4.6037311e-07
9.2556198e-09
4.5785223e-07
8.7782332e-09
4.5545604e-07
8.3425965e-09
4.5317407e-07
7.9435983e-09
4.5099713e-07
7.576842e-09
4.4891686e-07
7.2392637e-09
4.4692575e-07
6.9280443e-09
4.4501711e-07
6.6401287e-09
4.4318502e-07
6.372984e-09
4.4142402e-07
6.1248653e-09
4.3972913e-07
5.8941613e-09
4.380959e-07
5.6790159e-09
4.3652035e-07
5.477779e-09
4.3499881e-07
5.2893186e-09
4.3352788e-07
5.1127425e-09
4.3210444e-07
4.9470449e-09
4.3072569e-07
4.7911592e-09
4.2938905e-07
4.6442361e-09
4.2809212e-07
4.5056954e-09
4.2683264e-07
4.3750414e-09
4.2560853e-07
4.2516743e-09
4.2441787e-07
4.13496e-09
4.2325891e-07
4.0244047e-09
4.2212997e-07
3.9196521e-09
4.210295e-07
3.8203835e-09
4.1995601e-07
3.7262188e-09
4.1890818e-07
3.6367336e-09
4.1788476e-07
3.551567e-09
4.1688458e-07
3.4704649e-09
4.1590654e-07
3.3932499e-09
4.1494956e-07
3.319746e-09
4.1401264e-07
3.2497582e-09
4.1309482e-07
3.1831112e-09
4.1219519e-07
3.1196654e-09
4.1131286e-07
3.0593097e-09
4.1044698e-07
3.001947e-09
4.0959672e-07
2.947457e-09
4.087613e-07
2.8956846e-09
4.0794e-07
2.8464626e-09
4.0713213e-07
2.7996356e-09
4.0633702e-07
2.7551033e-09
4.0555404e-07
2.7128145e-09
4.0478256e-07
2.672734e-09
4.0402195e-07
2.6348341e-09
4.0327159e-07
2.5991135e-09
4.0253084e-07
2.565621e-09
4.0179906e-07
2.5343919e-09
4.0107563e-07
2.5053614e-09
4.0035995e-07
2.4783689e-09
3.996515e-07
2.4532565e-09
3.9894974e-07
2.4299681e-09
3.9825414e-07
2.4085505e-09
3.9756415e-07
2.3891119e-09
3.9687914e-07
2.3718253e-09
3.9619844e-07
2.3569021e-09
3.9552136e-07
2.3444353e-09
3.9484724e-07
2.3342656e-09
3.9417551e-07
2.326106e-09