/*--------------------------------*- C++ -*----------------------------------*\
  =========                 |
  \\      /  F ield         | OpenFOAM: The Open Source CFD Toolbox
   \\    /   O peration     | Website:  https://openfoam.org
    \\  /    A nd           | Version:  12
     \\/     M anipulation  |
\*---------------------------------------------------------------------------*/
FoamFile
{
    format      ascii;
    class       volVectorField;
    location    "100";
    object      U;
}
// * * * * * * * * * * * * * * * * * * * * * * * * * * * * * * * * * * * * * //

dimensions      [0 1 -1 0 0 0 0];

internalField   nonuniform List<vector> 
7480
(
(0.98683291 0.00053309405 1.0343704e-16)
(0.9753265 0.0012563906 0)
(0.96256801 0.0017339771 0)
(0.94883178 0.002008111 0)
(0.93435022 0.0021848332 0)
(0.919327 0.0023139063 0)
(0.90383976 0.0024164665 0)
(0.88791361 0.0025130613 0)
(0.87159214 0.0026184724 0)
(0.85500189 0.0027401277 0)
(0.83833639 0.0028783645 0)
(0.82187581 0.0030268167 0)
(0.8060009 0.003161049 0)
(0.79116991 0.0032313316 0)
(0.77781663 0.0031587948 0)
(0.7661698 0.0029409054 0)
(0.75625124 0.003016245 0)
(0.74791442 0.002136053 0)
(0.74088723 0.0013497177 1.9136362e-17)
(0.73482738 0.0019372338 -7.4561379e-17)
(0.72958267 0.0011737344 -9.0671918e-17)
(0.72494632 0.00048350651 0)
(0.72067917 0.00033972784 0)
(0.71664148 9.1458076e-05 0)
(0.71276394 -2.1830997e-05 0)
(0.70900184 -6.1303155e-05 0)
(0.70533981 -4.5282507e-05 0)
(0.70177586 -1.216978e-05 0)
(0.69831457 2.478288e-05 0)
(0.69496515 5.7599366e-05 0)
(0.69173135 8.2754584e-05 0)
(0.68860419 0.0001006372 0)
(0.6855661 0.00010981946 0)
(0.68255388 0.00011195544 0)
(0.67952548 0.0001142519 0)
(0.67647596 0.00011892173 0)
(0.67342349 0.00012398403 0)
(0.67040381 0.00012668674 0)
(0.66745341 0.00012551811 0)
(0.66459791 0.00012075539 0)
(0.66184833 0.00011374106 0)
(0.65920514 0.0001058225 0)
(0.65666299 9.8003954e-05 0)
(0.65421121 9.0493451e-05 0)
(0.65184088 8.3281554e-05 0)
(0.64950968 7.4955177e-05 0)
(0.64715588 5.8887437e-05 0)
(0.64467658 2.0808967e-05 0)
(0.64188471 -4.9230439e-05 0)
(0.63852434 -0.00013219122 0)
(0.63459617 -0.00017112509 0)
(0.63066522 -0.00016202725 0)
(0.62705063 -0.0001270049 0)
(0.62388035 -9.8565071e-05 0)
(0.62107583 -7.859258e-05 0)
(0.61852272 -6.2916965e-05 0)
(0.61612318 -4.7965815e-05 0)
(0.61379591 -3.4214037e-05 0)
(0.61155068 -2.2511757e-05 0)
(0.60937099 -1.285905e-05 0)
(0.60724552 -5.0958248e-06 0)
(0.60516285 1.5754501e-06 0)
(0.60311213 7.1983323e-06 0)
(0.60108586 1.1702892e-05 0)
(0.59907807 1.5192366e-05 0)
(0.59708403 1.7748896e-05 0)
(0.59510173 1.9482927e-05 0)
(0.59313005 2.0537595e-05 0)
(0.59116726 2.1057217e-05 0)
(0.58921126 2.1151051e-05 0)
(0.58726012 2.0903994e-05 0)
(0.58531209 2.0376738e-05 0)
(0.58336563 1.9611761e-05 0)
(0.58141938 1.865438e-05 0)
(0.57947189 1.7539683e-05 0)
(0.57752184 1.6295815e-05 0)
(0.57556789 1.5050508e-05 0)
(0.57360869 1.3900596e-05 0)
(0.57164313 1.278995e-05 0)
(0.56967062 1.1708669e-05 0)
(0.56769315 1.0781466e-05 0)
(0.56572897 1.1514193e-05 0)
(0.56391573 3.2275288e-05 0)
(0.56332444 0.00028973248 0)
(0.57336309 0.00038355311 0)
(0.57837351 0.00034927366 0)
(0.58149043 0.00030044264 0)
(0.58265383 0.00023940988 0)
(0.58278937 0.00018952466 0)
(0.58235086 0.00015094084 0)
(0.58159038 0.00012075518 0)
(0.58063712 9.7314013e-05 0)
(0.57956501 8.0225924e-05 0)
(0.57841598 6.7386381e-05 0)
(0.57721967 5.755239e-05 0)
(0.57597643 4.9868024e-05 0)
(0.57473554 4.4097966e-05 0)
(0.57337222 7.1824192e-05 6.562211e-20)
(0.57221337 3.5167272e-05 -1.5226929e-19)
(0.56992383 5.5349921e-05 -9.5087608e-18)
(0.99589768 0.0022870322 0)
(0.99632233 0.003446388 0)
(0.99686857 0.0040215378 0)
(0.99714042 0.0040893112 0)
(0.9971448 0.004120786 0)
(0.99699758 0.0041169757 0)
(0.99673168 0.0040954613 0)
(0.9963069 0.0040491902 0)
(0.99566998 0.0039734616 0)
(0.99472687 0.0038549329 0)
(0.99335066 0.0036765935 0)
(0.99136596 0.0034242205 0)
(0.98854437 0.0030904946 0)
(0.98462833 0.002688617 0)
(0.97940163 0.0022656505 0)
(0.97279038 0.0018637818 0)
(0.96487214 0.0015687607 0)
(0.95583906 0.0014659649 0)
(0.94592786 0.0013132449 0)
(0.93542737 0.0011796832 0)
(0.92457311 0.0012001322 0)
(0.91370544 0.0011431779 0)
(0.90309649 0.0010630777 0)
(0.89293524 0.0010501614 0)
(0.88333371 0.001007237 0)
(0.87434868 0.00093654281 0)
(0.86600094 0.00085023978 0)
(0.85827188 0.00076734921 0)
(0.85110636 0.00069306098 0)
(0.84442476 0.0006288446 0)
(0.83814191 0.00057649659 0)
(0.83218209 0.00053666714 0)
(0.82647274 0.00050986621 0)
(0.82099368 0.00049353482 0)
(0.81573707 0.00048058634 0)
(0.8106906 0.00046570116 0)
(0.8058361 0.00044730719 0)
(0.80115074 0.00042590106 0)
(0.79661069 0.00040250153 0)
(0.79219989 0.00037850008 0)
(0.7879102 0.00035524729 0)
(0.78373896 0.00033346685 0)
(0.77968448 0.00031348748 0)
(0.77574365 0.00029531762 0)
(0.7719126 0.00027957186 0)
(0.76819651 0.00026809058 0)
(0.76460758 0.0002641641 0)
(0.76117895 0.0002727905 0)
(0.75799288 0.00029670225 0)
(0.75515703 0.00032631851 0)
(0.75261671 0.00033314783 0)
(0.750031 0.00031318415 0)
(0.74726453 0.00027668031 0)
(0.74430894 0.00024179387 0)
(0.74125751 0.00021515866 0)
(0.73819398 0.00019715278 0)
(0.73515996 0.00018527326 0)
(0.73216679 0.00017577647 0)
(0.7292242 0.00016649729 0)
(0.72633622 0.00015793116 0)
(0.72350369 0.00015013731 0)
(0.72072504 0.00014311002 0)
(0.71799748 0.00013669299 0)
(0.71531853 0.00013082839 0)
(0.71268512 0.00012548055 0)
(0.71009428 0.00012055147 0)
(0.70754475 0.00011592174 0)
(0.70503546 0.00011156899 0)
(0.7025649 0.00010749717 0)
(0.70013144 0.00010368608 0)
(0.6977336 0.00010012079 0)
(0.69536993 9.6778795e-05 0)
(0.69303915 9.3630949e-05 0)
(0.69074011 9.0671831e-05 0)
(0.68847167 8.7886508e-05 0)
(0.68623281 8.5258767e-05 0)
(0.68402252 8.2778046e-05 0)
(0.6818398 8.0403522e-05 0)
(0.67968376 7.8116897e-05 0)
(0.67755351 7.58783e-05 0)
(0.67544772 7.3452117e-05 0)
(0.67336791 6.9071342e-05 0)
(0.67131005 4.1987345e-05 0)
(0.66899134 -0.00012684156 0)
(0.66442816 -0.00015794788 0)
(0.66247975 -8.2532139e-05 0)
(0.66093902 -4.3709057e-05 0)
(0.65955177 -8.9650121e-06 0)
(0.65807474 1.0043253e-05 0)
(0.65649275 2.0013034e-05 0)
(0.65484038 2.5159559e-05 0)
(0.65314992 2.8178523e-05 0)
(0.65144251 2.969717e-05 0)
(0.64972868 3.016266e-05 0)
(0.64801909 3.0173602e-05 0)
(0.64630098 2.9862226e-05 0)
(0.64461857 2.99494e-05 0)
(0.64282699 3.1748148e-05 0)
(0.64129623 3.1433281e-05 0)
(0.63849243 3.3538332e-05 0)
(0.99617324 0.0021848158 0)
(0.99654099 0.0028425769 0)
(0.99711251 0.0030011407 0)
(0.99757809 0.002979605 0)
(0.99788961 0.0029840558 0)
(0.99814087 0.0030082254 0)
(0.99837977 0.0030363705 0)
(0.99860521 0.003065194 0)
(0.99881319 0.0030964589 0)
(0.9990066 0.003128495 0)
(0.99918812 0.0031572311 0)
(0.99935248 0.0031799716 0)
(0.99948383 0.0031943307 0)
(0.99955758 0.0032007602 0)
(0.99953932 0.0032059945 0)
(0.99938485 0.0032111859 0)
(0.99904386 0.0032004158 0)
(0.99844844 0.0031573558 0)
(0.99751632 0.0031145803 0)
(0.99617376 0.0030198871 0)
(0.99426772 0.0029032254 0)
(0.99160478 0.0028015893 0)
(0.9881014 0.0026897618 0)
(0.98369893 0.0025547168 0)
(0.97838581 0.0024123981 0)
(0.97220505 0.0022735854 0)
(0.96522264 0.0021270798 0)
(0.95764576 0.0019659783 0)
(0.94967778 0.0018060891 0)
(0.94151931 0.0016519125 0)
(0.93335989 0.0015053371 0)
(0.92535586 0.0013678217 0)
(0.91762498 0.0012457442 0)
(0.91023549 0.0011444334 0)
(0.90320495 0.0010605712 0)
(0.89651198 0.00098973569 0)
(0.89011569 0.00092878262 0)
(0.88396815 0.00087517308 0)
(0.87802931 0.00082648645 0)
(0.87227267 0.00078070531 0)
(0.86668287 0.00073669757 0)
(0.86125151 0.00069437798 0)
(0.85596919 0.00065422863 0)
(0.85082694 0.00061628405 0)
(0.84582053 0.00058120899 0)
(0.84096027 0.00055037496 0)
(0.83625744 0.00052496627 0)
(0.83172933 0.00050709146 0)
(0.82740859 0.00049853823 0)
(0.82333352 0.00049505431 0)
(0.81949236 0.00048442521 0)
(0.81577925 0.00046132256 0)
(0.81211571 0.00043268675 0)
(0.80845076 0.0004041248 0)
(0.80478002 0.00037833458 0)
(0.80112228 0.00035574163 0)
(0.79749852 0.00033679723 0)
(0.79392435 0.00031978107 0)
(0.79041024 0.00030335539 0)
(0.78696013 0.00028816241 0)
(0.78357453 0.00027418195 0)
(0.78025348 0.00026122762 0)
(0.77699654 0.00024927338 0)
(0.77380302 0.0002382086 0)
(0.77067062 0.00022796315 0)
(0.76759717 0.0002183416 0)
(0.76458188 0.00020919101 0)
(0.76162303 0.00020050347 0)
(0.75871866 0.0001922807 0)
(0.75586705 0.00018448803 0)
(0.75306669 0.000177105 0)
(0.75031606 0.00017010202 0)
(0.74761373 0.00016343834 0)
(0.7449584 0.0001571051 0)
(0.74234874 0.00015107895 0)
(0.73978359 0.00014533535 0)
(0.73726181 0.00013984394 0)
(0.73478223 0.00013457227 0)
(0.73234381 0.00012952765 0)
(0.72994535 0.0001246897 0)
(0.72758476 0.00011996169 0)
(0.7252585 0.00011447323 0)
(0.72293762 0.00010000565 0)
(0.72026095 1.4157358e-05 0)
(0.71560098 -4.3760429e-05 0)
(0.71243287 -1.5054787e-05 0)
(0.70981025 1.5809397e-05 0)
(0.70757088 4.0827649e-05 0)
(0.70545196 5.4920347e-05 0)
(0.703366 6.1778391e-05 0)
(0.70128922 6.4427985e-05 0)
(0.6992226 6.4763981e-05 0)
(0.69717107 6.3642271e-05 0)
(0.69513596 6.1905626e-05 0)
(0.69312254 6.0066799e-05 0)
(0.69111435 5.8023595e-05 0)
(0.68915402 5.7093629e-05 0)
(0.68708841 5.5094126e-05 0)
(0.68531909 6.0123531e-05 0)
(0.6821488 5.4710766e-05 3.203334e-20)
(0.9963694 0.0020429123 0)
(0.99666478 0.0026450999 0)
(0.99717678 0.0029789713 0)
(0.9976301 0.0031496514 0)
(0.99794951 0.003286944 0)
(0.99820811 0.0034021255 0)
(0.99845417 0.0034844382 0)
(0.99869057 0.0035395405 0)
(0.99891399 0.0035742506 0)
(0.99912843 0.0035927529 0)
(0.99933874 0.0035826421 0)
(0.99954542 0.0035470042 0)
(0.99974199 0.0034776884 0)
(0.99991859 0.0033739794 0)
(1.0000647 0.0032366218 0)
(1.0001741 0.0030772313 0)
(1.0002482 0.0029121503 0)
(1.0002886 0.0027528126 0)
(1.0003006 0.0026233324 0)
(1.0002979 0.0025390806 0)
(1.0002734 0.0024735931 0)
(1.0002091 0.0024359363 0)
(1.0000877 0.0024169733 0)
(0.99987134 0.0024031325 0)
(0.99950774 0.0023935724 0)
(0.99892474 0.0023822098 0)
(0.99804144 0.0023665433 0)
(0.99668265 0.0023445535 0)
(0.99471009 0.0023122205 0)
(0.99201327 0.0022676349 0)
(0.98851481 0.0022117354 0)
(0.98418877 0.0021496172 0)
(0.97905854 0.0020731911 0)
(0.97327266 0.0019763717 0)
(0.96699701 0.0018685766 0)
(0.96040868 0.0017545284 0)
(0.95367484 0.0016378705 0)
(0.94693503 0.0015230928 0)
(0.94029089 0.001416699 0)
(0.9337971 0.0013217349 0)
(0.92746876 0.0012371067 0)
(0.92129675 0.0011617358 0)
(0.91526527 0.0010946088 0)
(0.90936404 0.0010339989 0)
(0.90358929 0.0009781121 0)
(0.89794578 0.00092597137 0)
(0.89244342 0.00087796177 0)
(0.88709473 0.00083514022 0)
(0.88191224 0.00079921598 0)
(0.87690702 0.00076985143 0)
(0.8720777 0.00074112223 0)
(0.86739673 0.00070827061 0)
(0.86283702 0.00067248108 0)
(0.85837085 0.00063627486 0)
(0.85397983 0.00060154219 0)
(0.84965697 0.00056923191 0)
(0.84540469 0.00054021781 0)
(0.84122775 0.00051324849 0)
(0.83712756 0.0004872321 0)
(0.83310404 0.00046275458 0)
(0.82915792 0.00043990496 0)
(0.82528947 0.00041874107 0)
(0.82149803 0.00039901031 0)
(0.81778267 0.00038054673 0)
(0.81414108 0.00036328809 0)
(0.81057143 0.00034699971 0)
(0.80707272 0.00033151849 0)
(0.80364237 0.00031684934 0)
(0.80027814 0.00030297153 0)
(0.79697816 0.00028982064 0)
(0.79374075 0.00027736032 0)
(0.79056417 0.00026554619 0)
(0.78744673 0.00025431878 0)
(0.78438687 0.00024365856 0)
(0.78138299 0.0002335275 0)
(0.77843365 0.00022388643 0)
(0.77553745 0.0002147318 0)
(0.77269299 0.00020602541 0)
(0.76989897 0.00019772686 0)
(0.767154 0.00018979901 0)
(0.7644561 0.0001821495 0)
(0.76180219 0.00017414621 0)
(0.75917165 0.00015882419 0)
(0.75634529 9.0259269e-05 0)
(0.75258106 3.3912891e-05 0)
(0.74936693 4.6296642e-05 0)
(0.74648363 6.5145366e-05 0)
(0.74389152 8.3908244e-05 0)
(0.74143899 9.5389827e-05 0)
(0.73905153 0.00010112635 0)
(0.73669746 0.00010285769 0)
(0.73436912 0.00010194401 0)
(0.73206676 9.9777891e-05 0)
(0.72978942 9.7053054e-05 0)
(0.72754106 9.4252667e-05 0)
(0.72530448 9.1071263e-05 0)
(0.72312186 8.9663652e-05 0)
(0.72083642 8.6156595e-05 0)
(0.7188743 9.5923331e-05 0)
(0.71539108 8.1446177e-05 -2.6416558e-20)
(0.9965557 0.0019822474 0)
(0.99680345 0.0025641889 0)
(0.99724932 0.0029217193 0)
(0.99766158 0.0030774684 0)
(0.99796308 0.0031645051 0)
(0.99820938 0.0032259394 0)
(0.99844599 0.0032633428 0)
(0.99867676 0.0032822709 0)
(0.99889724 0.0032905719 0)
(0.99910996 0.0032875961 0)
(0.99931937 0.0032729179 0)
(0.99952561 0.0032393228 0)
(0.99972283 0.0031826456 0)
(0.99990273 0.0031031854 0)
(1.0000566 0.0030071039 0)
(1.0001775 0.0029054893 0)
(1.0002668 0.00281288 0)
(1.0003279 0.0027351942 0)
(1.0003688 0.002682118 0)
(1.0004053 0.0026515325 0)
(1.0004391 0.0026237153 0)
(1.0004688 0.0026020202 0)
(1.0005 0.0025814191 0)
(1.0005314 0.0025595181 0)
(1.0005607 0.0025374509 0)
(1.0005853 0.0025146313 0)
(1.0005997 0.0024913627 0)
(1.0005937 0.0024671911 0)
(1.0005508 0.002442392 0)
(1.000445 0.002417288 0)
(1.0002356 0.0023917134 0)
(0.99986073 0.0023640847 0)
(0.99924662 0.0023343026 0)
(0.99824116 0.0023024274 0)
(0.99670942 0.0022653436 0)
(0.99453433 0.0022204587 0)
(0.99163544 0.0021676401 0)
(0.98797784 0.0021051083 0)
(0.98360433 0.0020257065 0)
(0.97863965 0.0019312372 0)
(0.97323266 0.0018298612 0)
(0.96753643 0.0017252195 0)
(0.96168936 0.0016215424 0)
(0.95579878 0.0015242276 0)
(0.94992705 0.0014354955 0)
(0.94410141 0.0013550239 0)
(0.93833424 0.001282619 0)
(0.93263756 0.0012180458 0)
(0.92702829 0.0011611129 0)
(0.92152494 0.0011107107 0)
(0.91613894 0.0010625326 0)
(0.91086959 0.0010128572 0)
(0.90571068 0.00096191179 0)
(0.90065392 0.0009118345 0)
(0.89569238 0.00086433367 0)
(0.89082099 0.00082005753 0)
(0.88603936 0.00077945016 0)
(0.88134708 0.00074115914 0)
(0.87674004 0.00070418436 0)
(0.87221596 0.00066915625 0)
(0.86777607 0.00063616308 0)
(0.86342112 0.00060524795 0)
(0.85915058 0.0005762101 0)
(0.85496342 0.00054890522 0)
(0.85085848 0.00052328002 0)
(0.84683408 0.00049907538 0)
(0.84288816 0.00047609477 0)
(0.83901881 0.00045433102 0)
(0.83522408 0.00043374412 0)
(0.83150217 0.00041423712 0)
(0.82785136 0.00039575428 0)
(0.82426988 0.00037823376 0)
(0.82075599 0.00036159519 0)
(0.81730804 0.00034580574 0)
(0.81392435 0.00033081038 0)
(0.81060334 0.00031655299 0)
(0.80734351 0.00030301568 0)
(0.8041433 0.0002901443 0)
(0.80100129 0.0002778918 0)
(0.797916 0.00026622049 0)
(0.79488565 0.00025507628 0)
(0.79190805 0.00024402361 0)
(0.78897128 0.00022744778 0)
(0.78595469 0.00016661185 0)
(0.78254761 0.00011236698 0)
(0.77934079 0.00011298169 0)
(0.77632447 0.00012418523 0)
(0.77350404 0.00013729664 0)
(0.77080397 0.00014537591 0)
(0.76817311 0.00014863656 0)
(0.76558409 0.00014836794 0)
(0.76302744 0.00014592382 0)
(0.76050186 0.00014224486 0)
(0.75800581 0.00013786764 0)
(0.75554309 0.0001335301 0)
(0.7530966 0.00012872164 0)
(0.75070851 0.0001265008 0)
(0.74821957 0.00012086379 4.8706303e-20)
(0.74607878 0.00013655275 0)
(0.74229887 0.0001106024 0)
(0.99672901 0.0019374421 0)
(0.99693666 0.0024695997 0)
(0.99732033 0.0028117306 0)
(0.99769437 0.0029724717 0)
(0.99798455 0.0030715275 0)
(0.99822691 0.0031567286 0)
(0.9984597 0.0032252534 0)
(0.99868717 0.0032754934 0)
(0.99890438 0.0033100493 0)
(0.99911337 0.0033367625 0)
(0.99931811 0.0033345739 0)
(0.99951831 0.0033173933 0)
(0.99970929 0.0032739186 0)
(0.9998835 0.0032055339 0)
(1.0000329 0.0031170343 0)
(1.0001521 0.0030173925 0)
(1.0002421 0.002917898 0)
(1.0003055 0.0028233967 0)
(1.0003497 0.0027437445 0)
(1.0003888 0.0026792871 0)
(1.0004254 0.0026184717 0)
(1.0004595 0.0025688622 0)
(1.0004961 0.0025283561 0)
(1.0005348 0.0024935335 0)
(1.0005747 0.0024640516 0)
(1.0006159 0.0024378972 0)
(1.0006576 0.0024138429 0)
(1.0006986 0.0023905792 0)
(1.0007377 0.0023687345 0)
(1.0007741 0.0023485508 0)
(1.000807 0.0023301214 0)
(1.0008343 0.0023143311 0)
(1.0008527 0.0023016968 0)
(1.0008544 0.0022912862 0)
(1.0008246 0.0022813831 0)
(1.0007357 0.0022699376 0)
(1.0005426 0.0022551183 0)
(1.0001808 0.0022353076 0)
(0.99954347 0.0022106555 0)
(0.99848476 0.0021807399 0)
(0.99687422 0.0021437673 0)
(0.99461153 0.0020999322 0)
(0.99163875 0.0020474503 0)
(0.98797814 0.0019806048 0)
(0.98373104 0.0019011215 0)
(0.97902781 0.0018150506 0)
(0.97400676 0.0017253468 0)
(0.96879286 0.0016375173 0)
(0.9634815 0.0015572893 0)
(0.95813379 0.0014849366 0)
(0.95278149 0.001417245 0)
(0.94744144 0.0013507845 0)
(0.94212656 0.0012849849 0)
(0.93685083 0.0012210808 0)
(0.93162727 0.0011603067 0)
(0.92646409 0.0011030781 0)
(0.92136766 0.0010496709 0)
(0.91634259 0.00099893962 0)
(0.91138994 0.00095005675 0)
(0.90651025 0.00090354797 0)
(0.90170568 0.00085944075 0)
(0.89697848 0.00081781117 0)
(0.89233035 0.00077849863 0)
(0.88776206 0.00074137089 0)
(0.8832748 0.00070638163 0)
(0.87886821 0.00067327173 0)
(0.87454047 0.00064183668 0)
(0.87029108 0.00061204536 0)
(0.86611914 0.00058382766 0)
(0.86202356 0.00055706484 0)
(0.85800317 0.00053168798 0)
(0.85405664 0.0005076191 0)
(0.85018264 0.00048475728 0)
(0.84637981 0.00046305675 0)
(0.84264672 0.00044244558 0)
(0.83898199 0.00042285044 0)
(0.83538424 0.00040424057 0)
(0.83185203 0.00038654558 0)
(0.82838402 0.00036970829 0)
(0.8249788 0.00035368577 0)
(0.82163485 0.00033844819 0)
(0.81835073 0.00032374654 0)
(0.81511985 0.00030497228 0)
(0.81187546 0.00024630664 0)
(0.80848888 0.00019176627 0)
(0.80519237 0.00018501549 0)
(0.80201644 0.00018996492 0)
(0.79897774 0.00019794098 0)
(0.7960416 0.00020234024 0)
(0.7931752 0.00020285577 0)
(0.79035695 0.00020030856 0)
(0.78757712 0.00019574232 0)
(0.78483329 0.00019003838 0)
(0.78212335 0.00018370581 0)
(0.77945084 0.00017756575 0)
(0.77679887 0.00017087088 0)
(0.77420962 0.00016765074 0)
(0.77152147 0.00015930814 0)
(0.769206 0.00018195656 3.6998078e-20)
(0.76513472 0.00014241017 0)
(0.99688913 0.0018995619 0)
(0.99706448 0.002381736 0)
(0.99739514 0.0027142799 0)
(0.99773453 0.0028929389 0)
(0.99801261 0.0030080404 0)
(0.99824905 0.0031032027 0)
(0.99847519 0.0031758975 0)
(0.99869662 0.0032238185 0)
(0.99890874 0.0032527865 0)
(0.99911328 0.0032652201 0)
(0.99931358 0.0032610525 0)
(0.99950864 0.0032359727 0)
(0.99969465 0.0031877241 0)
(0.99986477 0.0031171787 0)
(1.0000116 0.0030286038 0)
(1.0001303 0.0029304951 0)
(1.0002215 0.002833398 0)
(1.0002876 0.0027432327 0)
(1.0003353 0.0026698801 0)
(1.000377 0.0026143951 0)
(1.0004156 0.0025674773 0)
(1.0004517 0.0025330239 0)
(1.0004896 0.0025071852 0)
(1.000529 0.0024853883 0)
(1.0005697 0.0024663862 0)
(1.0006117 0.0024483207 0)
(1.0006544 0.0024301491 0)
(1.0006972 0.002411079 0)
(1.0007391 0.0023917778 0)
(1.0007797 0.0023724947 0)
(1.0008189 0.0023535234 0)
(1.0008569 0.0023357638 0)
(1.0008945 0.0023192212 0)
(1.0009321 0.0023032083 0)
(1.0009695 0.0022873512 0)
(1.0010063 0.0022710512 0)
(1.0010408 0.0022541962 0)
(1.0010698 0.0022374332 0)
(1.0010867 0.0022211005 0)
(1.0010791 0.0022048801 0)
(1.001024 0.002188279 0)
(1.0008806 0.0021703158 0)
(1.0005884 0.0021499285 0)
(1.0000407 0.0021269593 0)
(0.99909411 0.0021004549 0)
(0.99761668 0.0020684788 0)
(0.99550916 0.0020314587 0)
(0.9927165 0.0019839618 0)
(0.9892963 0.0019237534 0)
(0.98535192 0.0018566634 0)
(0.98101111 0.001782401 0)
(0.97639768 0.0017024739 0)
(0.97160928 0.0016220344 0)
(0.96671003 0.0015443554 0)
(0.96173794 0.0014711725 0)
(0.95671831 0.0014027182 0)
(0.95167509 0.0013384991 0)
(0.94663135 0.0012768676 0)
(0.94160416 0.0012170266 0)
(0.93660485 0.0011595655 0)
(0.93164236 0.0011045829 0)
(0.92672479 0.0010522561 0)
(0.92185942 0.0010025017 0)
(0.91705189 0.00095521675 0)
(0.91230718 0.00091040101 0)
(0.90762875 0.00086785938 0)
(0.90301819 0.00082739221 0)
(0.89847719 0.00078894157 0)
(0.89400694 0.00075243335 0)
(0.88960825 0.00071773979 0)
(0.8852816 0.00068478743 0)
(0.881027 0.00065348874 0)
(0.87684424 0.00062372735 0)
(0.87273294 0.00059544898 0)
(0.86869249 0.00056856816 0)
(0.86472219 0.00054299682 0)
(0.86082125 0.00051869511 0)
(0.85698873 0.00049557796 0)
(0.8532237 0.00047357637 0)
(0.8495251 0.00045263749 0)
(0.84589184 0.0004327399 0)
(0.84232324 0.00041373181 0)
(0.83881551 0.00039139005 0)
(0.83532939 0.00033178034 0)
(0.83181132 0.00027539524 0)
(0.8283555 0.0002632687 0)
(0.82498873 0.00026284131 0)
(0.82172689 0.00026598821 0)
(0.81855571 0.00026648142 0)
(0.81545513 0.00026383225 0)
(0.81240881 0.00025857722 0)
(0.8094074 0.00025153436 0)
(0.80644749 0.00024349874 0)
(0.80352622 0.00023492363 0)
(0.80064666 0.00022671857 0)
(0.79779195 0.00021787947 0)
(0.79500429 0.00021346152 0)
(0.79211957 0.00020195735 0)
(0.78963177 0.0002325282 3.5644896e-20)
(0.78527309 0.00017732221 0)
(0.99703745 0.0018683967 0)
(0.99718731 0.0023054826 0)
(0.99747289 0.0026268087 0)
(0.99777926 0.0028162421 0)
(0.99804301 0.0029391208 0)
(0.99827202 0.0030370195 0)
(0.99849116 0.0031123412 0)
(0.99870663 0.0031640179 0)
(0.99891452 0.0031970695 0)
(0.99911532 0.0032161652 0)
(0.9993114 0.0032177078 0)
(0.99950195 0.0031998419 0)
(0.9996835 0.0031604048 0)
(0.99984986 0.0030998354 0)
(0.99999439 0.0030219725 0)
(1.0001127 0.0029345183 0)
(1.0002051 0.002846779 0)
(1.0002736 0.0027645898 0)
(1.0003245 0.0026964396 0)
(1.0003685 0.0026428827 0)
(1.0004086 0.0025961981 0)
(1.0004461 0.0025588627 0)
(1.0004846 0.0025278751 0)
(1.0005243 0.0024999339 0)
(1.000565 0.0024745797 0)
(1.000607 0.0024506058 0)
(1.0006496 0.0024273007 0)
(1.000692 0.0024040892 0)
(1.0007336 0.0023814509 0)
(1.0007741 0.002359669 0)
(1.0008136 0.0023390457 0)
(1.0008523 0.002320246 0)
(1.000891 0.0023032146 0)
(1.0009302 0.0022874565 0)
(1.0009705 0.0022726153 0)
(1.0010115 0.0022578416 0)
(1.0010526 0.0022426436 0)
(1.001093 0.0022269503 0)
(1.0011322 0.0022104391 0)
(1.0011697 0.0021932408 0)
(1.0012045 0.0021760145 0)
(1.001236 0.0021593986 0)
(1.0012622 0.0021441043 0)
(1.0012769 0.0021302793 0)
(1.0012672 0.0021173667 0)
(1.0012073 0.0021045311 0)
(1.0010493 0.0020903033 0)
(1.000725 0.0020747185 0)
(1.0000946 0.0020581727 0)
(0.99901937 0.0020383247 0)
(0.99738011 0.002011923 0)
(0.99509584 0.0019722726 0)
(0.99218427 0.0019162511 0)
(0.98872949 0.0018491444 0)
(0.98484815 0.0017754677 0)
(0.98065898 0.0017000119 0)
(0.97625776 0.0016271348 0)
(0.97170786 0.0015567322 0)
(0.96704753 0.0014885756 0)
(0.96230533 0.0014231193 0)
(0.95750862 0.0013599917 0)
(0.95268227 0.001299087 0)
(0.947846 0.0012404259 0)
(0.94301476 0.0011840401 0)
(0.93820129 0.0011300794 0)
(0.93341655 0.0010784905 0)
(0.92866899 0.0010291456 0)
(0.92396531 0.00098202945 0)
(0.91931095 0.00093709891 0)
(0.91471049 0.00089424163 0)
(0.91016763 0.00085340321 0)
(0.90568514 0.00081450572 0)
(0.90126517 0.00077743215 0)
(0.89690939 0.00074213195 0)
(0.89261887 0.00070851562 0)
(0.88839444 0.00067648822 0)
(0.88423655 0.00064600768 0)
(0.88014536 0.00061697914 0)
(0.8761209 0.00058932566 0)
(0.8721629 0.00056298646 0)
(0.86827106 0.00053794375 0)
(0.86444559 0.00051409767 0)
(0.86068434 0.00048725415 0)
(0.85696189 0.00042489688 0)
(0.85325633 0.00036566037 0)
(0.84961008 0.00034878673 0)
(0.84603951 0.00034343436 0)
(0.84255624 0.00034187887 0)
(0.83915565 0.00033824195 0)
(0.83582626 0.00033202915 0)
(0.83255635 0.00032364152 0)
(0.82933753 0.00031373789 0)
(0.82616577 0.00030302544 0)
(0.82303742 0.00029189117 0)
(0.819955 0.00028133208 0)
(0.81690157 0.00027006947 0)
(0.81391932 0.00026423945 0)
(0.81084158 0.00024913894 -2.0497976e-20)
(0.80818441 0.00028856398 0)
(0.80354329 0.00021563452 8.6350169e-21)
(0.99717527 0.0018415923 0)
(0.9973049 0.0022381336 0)
(0.99755207 0.0025452403 0)
(0.99782751 0.0027403117 0)
(0.99807598 0.0028699765 0)
(0.99829712 0.0029722867 0)
(0.99850936 0.0030528081 0)
(0.9987187 0.0031100951 0)
(0.99892185 0.0031477445 0)
(0.99911827 0.0031696811 0)
(0.99930964 0.0031733239 0)
(0.99949537 0.0031575736 0)
(0.99967222 0.003120807 0)
(0.99983464 0.0030636307 0)
(0.99997666 0.0029897831 0)
(1.0000943 0.0029063445 0)
(1.0001876 0.0028216753 0)
(1.0002583 0.0027416415 0)
(1.0003122 0.0026738809 0)
(1.0003585 0.0026192108 0)
(1.0004004 0.0025719353 0)
(1.0004396 0.0025339523 0)
(1.0004793 0.0025029392 0)
(1.0005199 0.0024760807 0)
(1.0005613 0.0024526381 0)
(1.0006036 0.0024311559 0)
(1.0006464 0.0024106468 0)
(1.000689 0.0023903647 0)
(1.0007308 0.0023705117 0)
(1.0007714 0.0023513175 0)
(1.000811 0.0023330061 0)
(1.0008499 0.0023160843 0)
(1.0008885 0.0023005439 0)
(1.0009276 0.0022859493 0)
(1.0009675 0.0022718695 0)
(1.001008 0.0022574959 0)
(1.0010489 0.0022423575 0)
(1.0010896 0.0022264085 0)
(1.0011298 0.0022095627 0)
(1.001169 0.0021922124 0)
(1.0012072 0.0021750091 0)
(1.0012442 0.0021583269 0)
(1.0012799 0.0021423795 0)
(1.0013146 0.0021269578 0)
(1.0013479 0.0021120968 0)
(1.0013793 0.002098143 0)
(1.0014077 0.0020856784 0)
(1.0014302 0.0020754262 0)
(1.0014384 0.0020677789 0)
(1.0014141 0.0020616954 0)
(1.0013179 0.0020532213 0)
(1.0010851 0.0020391553 0)
(1.0005865 0.0020193685 0)
(0.99967529 0.0019939811 0)
(0.99822484 0.001963813 0)
(0.99614992 0.0019245463 0)
(0.99347348 0.0018733904 0)
(0.99027614 0.0018131133 0)
(0.9866686 0.0017459716 0)
(0.98275849 0.0016767485 0)
(0.97862764 0.0016086046 0)
(0.97432871 0.0015423736 0)
(0.96989784 0.0014783187 0)
(0.96536694 0.001416173 0)
(0.96076619 0.0013558055 0)
(0.956121 0.0012972559 0)
(0.9514511 0.0012405711 0)
(0.94677255 0.0011859041 0)
(0.94209904 0.0011333364 0)
(0.93744211 0.0010828409 0)
(0.93281119 0.0010344374 0)
(0.92821403 0.0009880995 0)
(0.92365711 0.00094374307 0)
(0.91914574 0.00090134903 0)
(0.91468417 0.00086084489 0)
(0.9102759 0.00082214607 0)
(0.90592375 0.0007852225 0)
(0.90162986 0.00074998063 0)
(0.897396 0.00071634522 0)
(0.89322342 0.00068425529 0)
(0.88911314 0.00065370035 0)
(0.8850667 0.00062462209 0)
(0.88108333 0.00059271904 0)
(0.87714489 0.000526546 0)
(0.87324359 0.00046363326 0)
(0.86940345 0.00044201779 0)
(0.865633 0.00043187578 0)
(0.86193938 0.00042563752 0)
(0.8583221 0.00041767894 0)
(0.85477535 0.00040756835 0)
(0.85129144 0.00039566377 0)
(0.84786349 0.00038252752 0)
(0.84448735 0.00036879745 0)
(0.8411589 0.00035479128 0)
(0.83788011 0.00034159103 0)
(0.83463398 0.00032762715 0)
(0.8314627 0.00032017352 0)
(0.82819701 0.00030103894 0)
(0.82537464 0.00035032689 3.5206554e-20)
(0.82045761 0.0002575269 0)
(0.99730384 0.0018181892 0)
(0.99741725 0.0021785208 0)
(0.99763186 0.0024698392 0)
(0.99787892 0.0026673412 0)
(0.99811173 0.002802997 0)
(0.99832437 0.0029094091 0)
(0.99852939 0.0029938436 0)
(0.99873212 0.0030550209 0)
(0.99892994 0.0030956388 0)
(0.99912165 0.0031194388 0)
(0.99930828 0.0031254911 0)
(0.99948929 0.0031128203 0)
(0.99966162 0.0030802835 0)
(0.99982028 0.0030286011 0)
(0.99995991 0.0029612341 0)
(1.0000769 0.0028845432 0)
(1.000171 0.0028059966 0)
(1.0002438 0.0027313349 0)
(1.0003005 0.0026673777 0)
(1.000349 0.0026151084 0)
(1.0003928 0.0025702479 0)
(1.0004336 0.0025339454 0)
(1.0004744 0.0025040813 0)
(1.0005157 0.0024780515 0)
(1.0005575 0.0024549332 0)
(1.0006002 0.0024333394 0)
(1.0006431 0.0024123936 0)
(1.0006858 0.0023915197 0)
(1.0007277 0.002370933 0)
(1.0007685 0.0023509452 0)
(1.0008083 0.0023318151 0)
(1.0008474 0.0023140088 0)
(1.0008862 0.0022975833 0)
(1.0009255 0.0022821581 0)
(1.0009653 0.0022673109 0)
(1.0010058 0.0022523448 0)
(1.0010466 0.0022368291 0)
(1.0010872 0.0022207249 0)
(1.0011271 0.0022039939 0)
(1.0011661 0.0021869359 0)
(1.0012039 0.0021700393 0)
(1.0012407 0.0021535929 0)
(1.0012769 0.0021377744 0)
(1.0013124 0.0021225081 0)
(1.0013476 0.0021079734 0)
(1.0013825 0.002094465 0)
(1.0014169 0.002082226 0)
(1.0014508 0.0020713673 0)
(1.001485 0.00206228 0)
(1.0015203 0.0020549227 0)
(1.0015563 0.002047206 0)
(1.0015895 0.0020372974 0)
(1.0016095 0.0020254024 0)
(1.0015965 0.0020123475 0)
(1.0015107 0.0019980425 0)
(1.0012877 0.0019822846 0)
(1.0007922 0.0019645705 0)
(0.99987874 0.0019423134 0)
(0.99842148 0.0019132717 0)
(0.9963574 0.0018735701 0)
(0.99372729 0.0018224227 0)
(0.99062041 0.0017632685 0)
(0.9871436 0.0016998938 0)
(0.98338869 0.0016360229 0)
(0.9794189 0.0015729151 0)
(0.97527689 0.0015111417 0)
(0.97099857 0.0014506576 0)
(0.96661769 0.0013914405 0)
(0.96216315 0.0013336088 0)
(0.95765796 0.0012773014 0)
(0.95312122 0.0012227194 0)
(0.94856936 0.0011699756 0)
(0.94401622 0.0011190902 0)
(0.93947328 0.0010701337 0)
(0.93495011 0.0010230934 0)
(0.93045482 0.00097793051 0)
(0.92599414 0.00093465617 0)
(0.92157362 0.00089319957 0)
(0.91719795 0.00085350567 0)
(0.91287092 0.00081552853 0)
(0.90859574 0.00077927464 0)
(0.90437598 0.00074473027 0)
(0.90021266 0.00070746648 0)
(0.89609209 0.00063687159 0)
(0.89201354 0.00056968834 0)
(0.88799563 0.00054312754 0)
(0.88404291 0.00052815492 0)
(0.88015911 0.00051718454 0)
(0.8763452 0.00050473974 0)
(0.87259908 0.00049045835 0)
(0.86891649 0.00047470605 0)
(0.86529249 0.00045799887 0)
(0.86172348 0.00044093047 0)
(0.85820524 0.00042375367 0)
(0.85473945 0.00040763523 0)
(0.85130909 0.00039070017 0)
(0.84795649 0.00038141795 0)
(0.84450984 0.00035780248 0)
(0.84152804 0.0004177402 0)
(0.83634367 0.00030314808 0)
(0.99742423 0.0017973301 0)
(0.99752447 0.0021254443 0)
(0.99771157 0.0024003331 0)
(0.99793292 0.0025975058 0)
(0.99814998 0.0027375966 0)
(0.99835352 0.0028472193 0)
(0.99855103 0.0029345965 0)
(0.99874689 0.0029991547 0)
(0.99893905 0.003042941 0)
(0.99912588 0.0030694008 0)
(0.99930775 0.00307853 0)
(0.99948402 0.0030693537 0)
(0.99965186 0.0030410619 0)
(0.99980677 0.0029944602 0)
(0.99994393 0.0029327587 0)
(1.0000601 0.0028617161 0)
(1.0001547 0.0027880844 0)
(1.0002293 0.0027174432 0)
(1.0002885 0.0026559113 0)
(1.0003392 0.0026046498 0)
(1.0003847 0.0025605385 0)
(1.0004271 0.0025242479 0)
(1.000469 0.0024939692 0)
(1.000511 0.0024674825 0)
(1.0005534 0.0024439056 0)
(1.0005963 0.0024220231 0)
(1.0006395 0.0024010474 0)
(1.0006823 0.0023804561 0)
(1.0007244 0.0023603555 0)
(1.0007655 0.0023409915 0)
(1.0008055 0.0023225624 0)
(1.0008449 0.002305428 0)
(1.000884 0.0022896299 0)
(1.0009234 0.0022748004 0)
(1.0009634 0.0022605093 0)
(1.0010039 0.002246117 0)
(1.0010446 0.0022311871 0)