#      distance             U_x             U_y             U_z wallShearStr... wallShearStr... wallShearStr...               p             nut         nuTilda
              0      0.99962792               0               0               0               0               0    0.0046986284   1.4776322e-06   2.0036272e-06
   0.0021021021      0.99961712               0               0               0               0               0    0.0047166584   1.4777777e-06   2.0037376e-06
   0.0042042042      0.99960633               0               0               0               0               0    0.0047346885   1.4779232e-06   2.0038479e-06
   0.0063063063      0.99959553               0               0               0               0               0    0.0047527186   1.4780686e-06   2.0039583e-06
   0.0084084084      0.99958474               0               0               0               0               0    0.0047707487   1.4782141e-06   2.0040687e-06
    0.010510511      0.99957231               0               0               0               0               0    0.0047911797   1.4783762e-06   2.0041916e-06
    0.012612613      0.99955887               0               0               0               0               0    0.0048131019   1.4785485e-06   2.0043224e-06
    0.014714715      0.99954544               0               0               0               0               0    0.0048350241   1.4787208e-06   2.0044531e-06
    0.016816817        0.999532               0               0               0               0               0    0.0048569463   1.4788932e-06   2.0045839e-06
    0.018918919      0.99951856               0               0               0               0               0    0.0048788684   1.4790655e-06   2.0047147e-06
    0.021021021      0.99950469               0               0               0               0               0     0.004901401   1.4792418e-06   2.0048484e-06
    0.023123123      0.99948792               0               0               0               0               0    0.0049280368   1.4794447e-06   2.0050024e-06
    0.025225225      0.99947115               0               0               0               0               0    0.0049546726   1.4796476e-06   2.0051564e-06
    0.027327327      0.99945437               0               0               0               0               0    0.0049813083   1.4798505e-06   2.0053103e-06
    0.029429429       0.9994376               0               0               0               0               0    0.0050079441   1.4800534e-06   2.0054643e-06
    0.031531532      0.99941974               0               0               0               0               0    0.0050360519   1.4802652e-06    2.005625e-06
    0.033633634      0.99939872               0               0               0               0               0    0.0050684591   1.4805031e-06   2.0058056e-06
    0.035735736       0.9993777               0               0               0               0               0    0.0051008663    1.480741e-06   2.0059861e-06
    0.037837838      0.99935668               0               0               0               0               0    0.0051332734   1.4809789e-06   2.0061666e-06
     0.03993994      0.99933566               0               0               0               0               0    0.0051656806   1.4812168e-06   2.0063471e-06
    0.042042042      0.99930962               0               0               0               0               0     0.005204636   1.4814915e-06   2.0065556e-06
    0.044144144      0.99928311               0               0               0               0               0     0.005244205   1.4817697e-06   2.0067667e-06
    0.046246246      0.99925661               0               0               0               0               0     0.005283774   1.4820479e-06   2.0069778e-06
    0.048348348      0.99922984               0               0               0               0               0     0.005323675   1.4823278e-06   2.0071902e-06
     0.05045045      0.99919616               0               0               0               0               0    0.0053722896   1.4826527e-06   2.0074368e-06
    0.052552553      0.99916249               0               0               0               0               0    0.0054209042   1.4829776e-06   2.0076833e-06
    0.054654655      0.99912881               0               0               0               0               0    0.0054695189   1.4833025e-06   2.0079299e-06
    0.056756757      0.99908973               0               0               0               0               0    0.0055246538   1.4836583e-06   2.0081999e-06
    0.058858859      0.99904637               0               0               0               0               0    0.0055849294   1.4840383e-06   2.0084883e-06
    0.060960961      0.99900301               0               0               0               0               0    0.0056452049   1.4844183e-06   2.0087768e-06
    0.063063063       0.9989541               0               0               0               0               0    0.0057120898   1.4848259e-06   2.0090862e-06
    0.065165165      0.99889769               0               0               0               0               0    0.0057879106   1.4852707e-06   2.0094238e-06
    0.067267267      0.99884128               0               0               0               0               0    0.0058637313   1.4857156e-06   2.0097614e-06
    0.069369369      0.99877326               0               0               0               0               0     0.005951976   1.4862078e-06   2.0101351e-06
    0.071471471      0.99869695               0               0               0               0               0    0.0060490788    1.486734e-06   2.0105344e-06
    0.073573574      0.99862065               0               0               0               0               0    0.0061461816   1.4872601e-06   2.0109338e-06
    0.075675676       0.9985186               0               0               0               0               0    0.0062747302   1.4878803e-06   2.0114045e-06
    0.077777778      0.99841626               0               0               0               0               0    0.0064036358   1.4885015e-06   2.0118761e-06
     0.07987988       0.9982796               0               0               0               0               0    0.0065604685   1.4892033e-06   2.0124088e-06
    0.081981982      0.99811986               0               0               0               0               0    0.0067360771   1.4899591e-06   2.0129826e-06
    0.084084084       0.9979388               0               0               0               0               0    0.0069470415   1.4907822e-06   2.0136075e-06
    0.086186186      0.99772184               0               0               0               0               0    0.0072175625   1.4917187e-06   2.0143184e-06
    0.088288288       0.9973898               0  -1.8125015e-22               0               0               0    0.0075222683    1.492694e-06   2.0150588e-06
     0.09039039      0.99675622               0   -8.374761e-22               0               0               0    0.0079165573    1.493771e-06   2.0158763e-06
    0.092492492       0.9961625               0   1.9864463e-17               0               0               0    0.0085453276   1.4951305e-06   2.0169082e-06
    0.094594595      0.99567385               0   9.2113495e-17               0               0               0    0.0097923921   1.4972347e-06   2.0185057e-06
    0.096696697      0.90763443               0   1.4006835e-16   -0.0005032938  -3.1002453e-06               0     0.010663397   1.3668153e-06   1.8417755e-06
    0.098798799       0.6467789               0   1.4006903e-16   -0.0020000371  -1.2320051e-05               0       0.0107921   9.7480843e-07   1.3130449e-06
      0.1009009      0.38595198               0   1.0861573e-16   -0.0031789127  -1.7631682e-05  -2.0873543e-18    0.0099044148   5.8220563e-07   7.8390462e-07
       0.103003      0.12516319               0   3.5223787e-17   -0.0039339648  -1.7732412e-05  -6.9578478e-18    0.0076615443   1.8880833e-07   2.5421815e-07
     0.10510511               0               0               0   -0.0038729459  -1.3037744e-05  -9.3652496e-18    0.0058820747   7.8527671e-13               0
     0.10720721               0               0               0   -0.0030588095  -3.9176063e-06  -9.4995675e-18    0.0045302584   5.4032224e-13               0
     0.10930931               0               0               0   -0.0026679554  -1.7794188e-07  -6.8499578e-18    0.0040412133   4.2639913e-13               0
     0.11141141               0               0               0   -0.0025638819  -8.3633991e-08  -2.3141929e-18    0.0041367096   4.0125186e-13               0
     0.11351351               0               0               0   -0.0025007758    -3.93514e-08  -6.6789286e-19    0.0042690049   3.8623895e-13               0
     0.11561562               0               0               0   -0.0024591386  -2.1284617e-08  -5.3581982e-19    0.0044205849   3.7653696e-13               0
     0.11771772               0               0               0   -0.0024260452  -1.4540402e-08  -3.2031549e-19    0.0044773801   3.6890158e-13               0
     0.11981982               0               0               0    -0.002396622  -1.2659929e-08  -6.8972274e-20    0.0044934596   3.6215395e-13               0
     0.12192192               0               0               0   -0.0023704311  -1.1532389e-08               0    0.0044737148   3.5619622e-13               0
     0.12402402               0               0               0   -0.0023454625  -1.0689606e-08               0    0.0044404214   3.5053724e-13               0
     0.12612613               0               0               0   -0.0023227535  -1.0010529e-08               0    0.0044052564   3.4542779e-13               0
     0.12822823               0               0               0   -0.0023008645  -9.3908707e-09               0    0.0043694122    3.405178e-13               0
     0.13033033               0               0               0   -0.0022807844  -8.8574317e-09               0    0.0043352119   3.3604288e-13               0
     0.13243243               0               0               0   -0.0022613968  -8.3569979e-09               0    0.0043016409   3.3173451e-13               0
     0.13453453               0               0               0   -0.0022434268  -7.9226225e-09  -1.2617087e-19    0.0042681048   3.2776395e-13               0
     0.13663664               0               0               0   -0.0022260841  -7.5174701e-09  -3.0815738e-19    0.0042345842   3.2394285e-13               0
     0.13873874               0               0               0   -0.0022098181  -7.1596406e-09  -3.7306026e-19      0.00420129   3.2037644e-13               0
     0.14084084               0               0               0   -0.0021941491  -6.8280436e-09  -3.7306029e-19    0.0041681214   3.1695122e-13               0
     0.14294294               0               0               0   -0.0021792824  -6.5273442e-09  -3.5610786e-19    0.0041357133   3.1371443e-13               0
     0.14504505               0               0               0   -0.0021650146  -6.2497054e-09  -3.2650286e-19     0.004103873   3.1061826e-13               0
     0.14714715               0               0               0   -0.0021513231  -5.9916505e-09  -2.4609387e-19    0.0040729158   3.0765646e-13               0
     0.14924925               0               0               0   -0.0021382552  -5.7547861e-09  -1.1071268e-19     0.004042914   3.0484004e-13               0
     0.15135135               0               0               0   -0.0021255686  -5.5297735e-09  -1.6858663e-20    0.0040135946   3.0211185e-13               0
     0.15345345               0               0               0   -0.0021135433  -5.3253268e-09   4.9350863e-21    0.0039854592   2.9953677e-13               0
     0.15555556               0               0               0   -0.0021017262  -5.1269272e-09  -8.3856783e-21    0.0039577097   2.9700954e-13               0
     0.15765766               0               0               0   -0.0020906152  -4.9490382e-09  -1.4080818e-19    0.0039312689   2.9464462e-13               0
     0.15975976               0               0               0   -0.0020795572  -4.7725969e-09  -2.4971147e-19    0.0039049306   2.9229183e-13               0
     0.16186186               0               0               0   -0.0020692538  -4.6167271e-09  -2.4407262e-20    0.0038800495   2.9011136e-13               0
     0.16396396               0               0               0   -0.0020589504  -4.4608573e-09   2.0089694e-19    0.0038551685    2.879309e-13               0
     0.16606607               0               0               0   -0.0020492784  -4.3211898e-09   2.2818922e-19    0.0038315652   2.8589377e-13               0
     0.16816817               0               0               0   -0.0020396934  -4.1837554e-09   2.2818925e-19     0.003808138   2.8387639e-13               0
     0.17027027               0               0               0   -0.0020305369  -4.0567357e-09   1.3070175e-19    0.0037856167   2.8195567e-13               0
     0.17237237               0               0               0    -0.002021595  -3.9349357e-09  -1.5645093e-20    0.0037635496   2.8008339e-13               0
     0.17447447               0               0               0   -0.0020128998  -3.8188688e-09  -9.9556392e-20    0.0037420066   2.7826646e-13               0
     0.17657658               0               0               0   -0.0020045361  -3.7105071e-09  -9.9556404e-20    0.0037211679   2.7652391e-13               0
     0.17867868               0               0               0   -0.0019962555  -3.6039918e-09  -1.0482185e-19    0.0037005104   2.7479991e-13               0
     0.18078078               0               0               0   -0.0019884136  -3.5072175e-09  -1.3786582e-19    0.0036808084   2.7317381e-13               0
     0.18288288               0               0               0   -0.0019805717  -3.4104433e-09  -1.7090979e-19    0.0036611064   2.7154771e-13               0
     0.18498498               0               0               0   -0.0019731382  -3.3223333e-09   -1.141176e-19    0.0036422987   2.7001227e-13               0
     0.18708709               0               0               0   -0.0019657693  -3.2355955e-09  -4.3098009e-20    0.0036236327    2.684912e-13               0
     0.18918919               0               0               0   -0.0019586316  -3.1535451e-09   2.9756128e-20    0.0036054715   2.6702121e-13               0
     0.19129129               0               0               0   -0.0019516929    -3.07553e-09    1.041896e-19    0.0035877451   2.6559519e-13               0
     0.19339339               0               0               0   -0.0019448252  -2.9988804e-09   1.5270111e-19    0.0035701818   2.6418478e-13               0
      0.1954955               0               0               0   -0.0019382796  -2.9284289e-09   8.3554571e-20    0.0035533591   2.6284519e-13               0
      0.1975976               0               0               0   -0.0019317339  -2.8579773e-09   1.4408038e-20    0.0035365363    2.615056e-13               0
      0.1996997               0               0               0   -0.0019254736  -2.7928273e-09               0    0.0035203302   2.6022848e-13               0
      0.2018018               0               0               0   -0.0019192885  -2.7290727e-09               0    0.0035042864   2.5896779e-13               0
      0.2039039               0               0               0   -0.0019132256  -2.6675092e-09  -1.9867456e-20    0.0034885101   2.5773376e-13               0
     0.20600601               0               0               0   -0.0019073713  -2.6096847e-09  -7.3641027e-20    0.0034731904   2.5654521e-13               0
     0.20810811               0               0               0   -0.0019015171  -2.5518603e-09   -1.274146e-19    0.0034578706   2.5535666e-13               0
     0.21021021               0               0               0   -0.0018959413  -2.4987569e-09  -1.3210295e-19    0.0034432129   2.5422855e-13               0
     0.21231231               0               0               0   -0.0018903922  -2.4461044e-09  -1.3210297e-19    0.0034286184   2.5310622e-13               0
     0.21441441               0               0               0   -0.0018849618  -2.3954044e-09  -1.1014812e-19    0.0034142814   2.5200955e-13               0
     0.21651652               0               0               0    -0.001879695  -2.3473963e-09  -5.7923626e-20    0.0034002992   2.5094825e-13               0
     0.21861862               0               0               0   -0.0018744283  -2.2993882e-09  -5.6991296e-21    0.0033863171   2.4988696e-13               0
     0.22072072               0               0               0   -0.0018693943   -2.255118e-09               0     0.003372833   2.4887578e-13               0
     0.22282282               0               0               0   -0.0018643889  -2.2113056e-09               0    0.0033594099   2.4787074e-13               0
     0.22492492               0               0               0   -0.0018594617  -2.1686831e-09               0    0.0033461717   2.4688249e-13               0
     0.22702703               0               0               0   -0.0018546988  -2.1285559e-09               0    0.0033333216   2.4592945e-13               0
     0.22912913               0               0               0   -0.0018499358  -2.0884288e-09               0    0.0033204714   2.4497642e-13               0
     0.23123123               0               0               0   -0.0018453345  -2.0506571e-09  -2.7788839e-20    0.0033079887   2.4405792e-13               0
     0.23333333               0               0               0   -0.0018407976  -2.0138247e-09  -6.6659747e-20    0.0032956525   2.4315319e-13               0
     0.23543544               0               0               0   -0.0018362744  -1.9771911e-09   -1.005941e-19     0.003283345    2.422514e-13               0
     0.23753754               0               0               0   -0.0018319484  -1.9433941e-09  -6.4083037e-20    0.0032714461   2.4139155e-13               0
     0.23963964               0               0               0   -0.0018276223  -1.9095971e-09  -2.7571972e-20    0.0032595472    2.405317e-13               0
     0.24174174               0               0               0   -0.0018233695  -1.8768156e-09   9.3547021e-21    0.0032478136   2.3968742e-13               0
     0.24384384               0               0               0   -0.0018192401   -1.845741e-09   4.6979886e-20    0.0032363579   2.3886929e-13               0
     0.24594595               0               0               0   -0.0018151106  -1.8146664e-09   8.4605069e-20    0.0032249022   2.3805115e-13               0
     0.24804805               0               0               0   -0.0018110983  -1.7851136e-09   7.5846627e-20     0.003213732   2.3725779e-13               0
     0.25015015               0               0               0    -0.001807153  -1.7564322e-09   4.0530419e-20    0.0032027252   2.3647862e-13               0
     0.25225225               0               0               0   -0.0018032077  -1.7277508e-09   5.2142108e-21    0.0031917185   2.3569944e-13               0
     0.25435435               0               0               0   -0.0017994101  -1.7009462e-09               0    0.0031810279   2.3495137e-13               0
     0.25645646               0               0               0   -0.0017956381  -1.6744667e-09               0     0.003170392   2.3420868e-13               0
     0.25855856               0               0               0   -0.0017918694  -1.6480296e-09   5.8809475e-22    0.0031597629    2.334667e-13               0
     0.26066066               0               0               0   -0.0017882598  -1.6236088e-09   2.9143469e-20    0.0031494539   2.3275815e-13               0
     0.26276276               0               0               0   -0.0017846503  -1.5991879e-09   5.7698843e-20    0.0031391449    2.320496e-13               0
     0.26486486               0               0               0   -0.0017810619   -1.575022e-09   8.2292745e-20    0.0031288852   2.3134549e-13               0
     0.26696697               0               0               0    -0.001777605  -1.5524387e-09   8.2292764e-20    0.0031189323   2.3066889e-13               0
     0.26906907               0               0               0   -0.0017741481  -1.5298554e-09   8.2292784e-20    0.0031089793    2.299923e-13               0
     0.27117117               0               0               0   -0.0017707206  -1.5076046e-09   7.6653048e-20    0.0030990985   2.2932187e-13               0
     0.27327327               0               0               0   -0.0017674078  -1.4866452e-09   4.9112883e-20    0.0030894981   2.2867535e-13               0
     0.27537538               0               0               0   -0.0017640949  -1.4656859e-09   2.1572718e-20    0.0030798976   2.2802883e-13               0
     0.27747748               0               0               0   -0.0017608116  -1.4450549e-09  -5.1638769e-21    0.0030703595   2.2738845e-13               0
     0.27957958               0               0               0    -0.001757635  -1.4256112e-09  -2.8995511e-20    0.0030610466    2.267703e-13               0
     0.28168168               0               0               0   -0.0017544585  -1.4061674e-09  -5.2827145e-20    0.0030517337   2.2615214e-13               0
     0.28378378               0               0               0   -0.0017513041  -1.3869712e-09  -7.2553724e-20    0.0030424643   2.2553858e-13               0
     0.28588589               0               0               0   -0.0017482563  -1.3689646e-09  -7.2553744e-20    0.0030334041   2.2494712e-13               0
     0.28798799               0               0               0   -0.0017452084  -1.3509579e-09  -7.2553763e-20    0.0030243439   2.2435566e-13               0
     0.29009009               0               0               0    -0.001742169  -1.3330406e-09  -7.0966649e-20    0.0030153032   2.2376594e-13               0
     0.29219219               0               0               0   -0.0017392427  -1.3163244e-09   -4.803593e-20    0.0030065259   2.2319962e-13               0
     0.29429429               0               0               0   -0.0017363163  -1.2996083e-09   -2.510521e-20    0.0029977485    2.226333e-13               0
      0.2963964               0               0               0     -0.00173339  -1.2828921e-09  -2.1744903e-21    0.0029889712   2.2206697e-13               0
      0.2984985               0               0               0    -0.001730568   -1.267206e-09               0    0.0029804565   2.2152219e-13               0
      0.3006006               0               0               0   -0.0017277569  -1.2516279e-09               0    0.0029719694   2.2097965e-13               0
      0.3027027               0               0               0   -0.0017249459  -1.2360498e-09               0    0.0029634822   2.2043712e-13               0
      0.3048048               0               0               0   -0.0017222093  -1.2211945e-09   1.2718236e-20    0.0029551523   2.1990988e-13               0
     0.30690691               0               0               0    -0.001719508  -1.2066832e-09   3.1487591e-20    0.0029468971   2.1938992e-13               0
     0.30900901               0               0               0   -0.0017168067  -1.1921718e-09   5.0256947e-20     0.002938642   2.1886996e-13               0
     0.31111111               0               0               0   -0.0017141455  -1.1780527e-09    5.842702e-20    0.0029304642   2.1835821e-13               0
     0.31321321               0               0               0   -0.0017115484  -1.1645631e-09   4.9584887e-20    0.0029224104   2.1785962e-13               0
     0.31531532               0               0               0   -0.0017089514  -1.1510736e-09   4.0742755e-20    0.0029143566   2.1736103e-13               0
     0.31741742               0               0               0   -0.0017063565  -1.1376038e-09   3.2059569e-20    0.0029063075   2.1686287e-13               0
     0.31951952               0               0               0   -0.0017038583  -1.1250486e-09   3.0721148e-20    0.0028984745   2.1638452e-13               0
     0.32162162               0               0               0   -0.0017013602  -1.1124934e-09   2.9382727e-20    0.0028906415   2.1590616e-13               0
     0.32372372               0               0               0   -0.0016988621  -1.0999382e-09   2.8044305e-20    0.0028828085    2.154278e-13               0
     0.32582583               0               0               0   -0.0016964192  -1.0878708e-09   3.2460791e-20     0.002875112   2.1496072e-13               0
     0.32792793               0               0               0   -0.0016940152  -1.0761473e-09   4.0932936e-20    0.0028675119   2.1450157e-13               0
     0.33003003               0               0               0   -0.0016916113  -1.0644237e-09    4.940508e-20    0.0028599117   2.1404243e-13               0
     0.33213213               0               0               0   -0.0016892142   -1.052759e-09   5.5995735e-20    0.0028523275    2.135847e-13               0
     0.33423423               0               0               0   -0.0016869003  -1.0417989e-09   4.0046011e-20    0.0028449344   2.1314387e-13               0
     0.33633634               0               0               0   -0.0016845864  -1.0308387e-09   2.4096287e-20    0.0028375413   2.1270304e-13               0
     0.33843844               0               0               0   -0.0016822724  -1.0198786e-09   8.1465629e-21    0.0028301482   2.1226221e-13               0
     0.34054054               0               0               0   -0.0016800006  -1.0092757e-09  -1.0215336e-20    0.0028228393   2.1182991e-13               0
     0.34264264               0               0               0   -0.0016777727  -9.9904554e-10  -3.1095565e-20    0.0028156182   2.1140654e-13               0
     0.34474474               0               0               0   -0.0016755448  -9.8881543e-10  -5.1975794e-20    0.0028083971   2.1098316e-13               0
     0.34684685               0               0               0   -0.0016733169  -9.7858531e-10  -7.2856023e-20    0.0028011759   2.1055978e-13               0
     0.34894895               0               0               0   -0.0016711562  -9.6892358e-10  -7.6619911e-20    0.0027940909   2.1015001e-13               0
     0.35105105               0               0               0   -0.0016690103  -9.5938684e-10   -7.661994e-20    0.0027870359   2.0974323e-13               0
     0.35315315               0               0               0   -0.0016668645  -9.4985009e-10   -7.661997e-20    0.0027799808   2.0933645e-13               0
     0.35525526               0               0               0   -0.0016647237    -9.40354e-10  -7.4524997e-20    0.0027729378    2.089307e-13               0
     0.35735736               0               0               0   -0.0016626561  -9.3144355e-10  -4.2254195e-20    0.0027660695   2.0853973e-13               0
     0.35945946               0               0               0   -0.0016605885  -9.2253309e-10  -9.9833926e-21    0.0027592012   2.0814875e-13               0
     0.36156156               0               0               0   -0.0016585209  -9.1362263e-10    2.228741e-20    0.0027523329   2.0775778e-13               0
     0.36366366               0               0               0     -0.00165647  -9.0483557e-10   4.7428788e-20    0.0027455068   2.0737014e-13               0
     0.36576577               0               0               0   -0.0016544775  -8.9648366e-10   4.7428808e-20    0.0027388295   2.0699428e-13               0
     0.36786787               0               0               0    -0.001652485  -8.8813174e-10   4.7428828e-20    0.0027321523   2.0661842e-13               0
     0.36996997               0               0               0   -0.0016504925  -8.7977983e-10   4.7428848e-20    0.0027254751   2.0624256e-13               0
     0.37207207               0               0               0   -0.0016485204  -8.7157838e-10   4.4094144e-20    0.0027188406   2.0587081e-13               0
     0.37417417               0               0               0   -0.0016466001  -8.6375686e-10   3.2339184e-20    0.0027123144   2.0550943e-13               0
     0.37627628               0               0               0   -0.0016446797  -8.5593534e-10   2.0584224e-20    0.0027057881   2.0514806e-13               0
     0.37837838               0               0               0   -0.0016427594  -8.4811383e-10   8.8292636e-21    0.0026992618   2.0478668e-13               0
     0.38048048               0               0               0   -0.0016408562   -8.404202e-10  -1.2781233e-21    0.0026927686   2.0442875e-13               0
     0.38258258               0               0               0    -0.001639005  -8.3311253e-10  -6.4134095e-21    0.0026863755   2.0408122e-13               0
     0.38468468               0               0               0   -0.0016371538  -8.2580486e-10  -1.1548696e-20    0.0026799823   2.0373369e-13               0
     0.38678679               0               0               0   -0.0016353026  -8.1849718e-10  -1.6683982e-20    0.0026735892   2.0338616e-13               0
     0.38888889               0               0               0   -0.0016334588    -8.11243e-10  -2.1784811e-20    0.0026672123   2.0304011e-13               0