#      distance             U_x             U_y             U_z wallShearStr... wallShearStr... wallShearStr...               p         epsilon               k             nut
              0      0.99944568               0               0               0               0               0    0.0079939966    0.0019083457    6.340119e-05   1.8957547e-07
   0.0021021021      0.99942927               0               0               0               0               0     0.008027806    0.0019076364   6.3347015e-05   1.8932204e-07
   0.0042042042      0.99941287               0               0               0               0               0    0.0080616155    0.0019069271   6.3292841e-05   1.8906862e-07
   0.0063063063      0.99939646               0               0               0               0               0     0.008095425    0.0019062179   6.3238667e-05   1.8881519e-07
   0.0084084084      0.99938005               0               0               0               0               0    0.0081292344    0.0019055086   6.3184493e-05   1.8856176e-07
    0.010510511      0.99936106               0               0               0               0               0    0.0081674813    0.0019048627   6.3133828e-05   1.8832332e-07
    0.012612613      0.99934046               0               0               0               0               0    0.0082084843    0.0019042562   6.3085343e-05   1.8809418e-07
    0.014714715      0.99931986               0               0               0               0               0    0.0082494872    0.0019036496   6.3036859e-05   1.8786504e-07
    0.016816817      0.99929927               0               0               0               0               0    0.0082904901    0.0019030431   6.2988374e-05   1.8763589e-07
    0.018918919      0.99927867               0               0               0               0               0    0.0083314931    0.0019024365   6.2939889e-05   1.8740675e-07
    0.021021021      0.99925738               0               0               0               0               0    0.0083736154    0.0019018421   6.2892016e-05    1.871801e-07
    0.023123123      0.99923146               0               0               0               0               0    0.0084232632    0.0019013294   6.2848256e-05   1.8697023e-07
    0.025225225      0.99920554               0               0               0               0               0     0.008472911    0.0019008168   6.2804496e-05   1.8676035e-07
    0.027327327      0.99917962               0               0               0               0               0    0.0085225587    0.0019003041   6.2760736e-05   1.8655047e-07
    0.029429429       0.9991537               0               0               0               0               0    0.0085722065    0.0018997915   6.2716976e-05   1.8634059e-07
    0.031531532      0.99912605               0               0               0               0               0    0.0086245306     0.001899302   6.2674262e-05   1.8613473e-07
    0.033633634      0.99909333               0               0               0               0               0    0.0086846715    0.0018988804   6.2634606e-05    1.859406e-07
    0.035735736      0.99906061               0               0               0               0               0    0.0087448124    0.0018984589   6.2594949e-05   1.8574648e-07
    0.037837838      0.99902789               0               0               0               0               0    0.0088049534    0.0018980373   6.2555292e-05   1.8555235e-07
     0.03993994      0.99899517               0               0               0               0               0    0.0088650943    0.0018976157   6.2515636e-05   1.8535822e-07
    0.042042042      0.99895439               0               0               0               0               0    0.0089370042    0.0018972795   6.2479397e-05   1.8517626e-07
    0.044144144      0.99891286               0               0               0               0               0     0.009010017    0.0018969512   6.2443478e-05   1.8499544e-07
    0.046246246      0.99887133               0               0               0               0               0    0.0090830299     0.001896623   6.2407559e-05   1.8481462e-07
    0.048348348      0.99882938               0               0               0               0               0    0.0091566325    0.0018962984   6.2371771e-05   1.8463423e-07
     0.05045045      0.99877638               0               0               0               0               0    0.0092457183    0.0018960702   6.2339424e-05   1.8446504e-07
    0.052552553      0.99872339               0               0               0               0               0     0.009334804    0.0018958419   6.2307077e-05   1.8429585e-07
    0.054654655       0.9986704               0               0               0               0               0    0.0094238897    0.0018956136   6.2274731e-05   1.8412666e-07
    0.056756757       0.9986087               0               0               0               0               0    0.0095243387    0.0018954478   6.2244401e-05   1.8396344e-07
    0.058858859      0.99854015               0               0               0               0               0    0.0096337463    0.0018953313   6.2215661e-05   1.8380492e-07
    0.060960961       0.9984716               0               0               0               0               0    0.0097431538    0.0018952148   6.2186921e-05    1.836464e-07
    0.063063063      0.99839434               0               0               0               0               0    0.0098639555    0.0018951531   6.2159782e-05   1.8349211e-07
    0.065165165      0.99830533               0               0               0               0               0     0.010000162    0.0018951654   6.2134807e-05   1.8334353e-07
    0.067267267      0.99821631               0               0               0               0               0     0.010136368    0.0018951777   6.2109832e-05   1.8319495e-07
    0.069369369      0.99810877               0               0               0               0               0     0.010293128    0.0018952779   6.2087441e-05   1.8305322e-07
    0.071471471      0.99798801               0               0               0               0               0     0.010464543    0.0018954406   6.2066893e-05   1.8291637e-07
    0.073573574      0.99786726               0               0               0               0               0     0.010635959    0.0018956034   6.2046345e-05   1.8277953e-07
    0.075675676      0.99770831               0               0               0               0               0     0.010859651    0.0018960022   6.2030093e-05   1.8264543e-07
    0.077777778      0.99754893               0               0               0               0               0     0.011083937    0.0018964037   6.2013889e-05   1.8251136e-07
     0.07987988      0.99733668               0               0               0               0               0     0.011349899    0.0018967511   6.2003041e-05   1.8241405e-07
    0.081981982       0.9970889               0               0               0               0               0     0.011643881    0.0018970622   6.1995792e-05   1.8234146e-07
    0.084084084      0.99681136               0               0               0               0               0     0.011994267    0.0018983491   6.1989585e-05   1.8218201e-07
    0.086186186      0.99648371               0               0               0               0               0     0.012439665    0.0019012795   6.1985132e-05   1.8187623e-07
    0.088288288      0.99600144               0  -1.0233096e-21               0               0               0     0.012928744    0.0019010791   6.1983426e-05   1.8189107e-07
     0.09039039        0.995114               0  -4.7282572e-21               0               0               0     0.013532287     0.001892674   6.1988921e-05   1.8274612e-07
    0.092492492      0.99429494               0   1.4340919e-17               0               0               0     0.014475014    0.0019706389   6.2061985e-05   1.7870049e-07
    0.094594595      0.99365622               0   6.6523791e-17               0               0               0     0.016312117    0.0022763495   6.2313224e-05   1.6173247e-07
    0.096696697       0.9057135               0   1.0116099e-16  -0.00068571876  -3.1408791e-06               0      0.01772775        5.875328   5.7015313e-05   1.3410259e-07
    0.098798799      0.64544181               0   1.0116487e-16   -0.0027249748  -1.2481526e-05               0     0.018311446       23.340567   4.0763962e-05   8.5427335e-08
      0.1009009      0.38517384               0   7.8449225e-17   -0.0045574781  -1.7843983e-05  -1.6209103e-18     0.017542185       42.557557   2.4411394e-05   4.4675874e-08
       0.103003      0.12491084               0   2.5440872e-17   -0.0061143111  -1.7902187e-05  -5.4030343e-18     0.014968981       64.110214    7.923872e-06   1.4489476e-08
     0.10510511               0               0               0    -0.006549492  -1.3123667e-05  -5.8654531e-18     0.012719185       75.750861   1.1195173e-08   1.6715384e-12
     0.10720721               0               0               0   -0.0059495473  -3.8815366e-06   -3.264255e-18     0.010767846       78.244131   1.1883302e-08   1.4400228e-12
     0.10930931               0               0               0   -0.0055875404  -1.2274318e-07  -5.1066802e-19     0.009701283       77.399426   1.1615865e-08   1.3043532e-12
     0.11141141               0               0               0   -0.0053867402  -7.8998064e-08   2.3461648e-18    0.0092341694       74.293188   1.0701017e-08   1.2336208e-12
     0.11351351               0               0               0   -0.0052290691  -5.7889317e-08   1.6502482e-18    0.0089071433       71.466696   9.9041602e-09   1.1791035e-12
     0.11561562               0               0               0   -0.0050939998  -4.8643182e-08  -9.0749021e-19    0.0086535301       68.786805   9.1691369e-09   1.1330838e-12
     0.11771772               0               0               0    -0.004983114  -4.2292571e-08  -1.0820979e-18    0.0084137302       66.544511   8.5808564e-09   1.0958899e-12
     0.11981982               0               0               0   -0.0048826165  -3.7185765e-08  -2.3300388e-19    0.0081798639       64.490192   8.0556108e-09   1.0624871e-12
     0.12192192               0               0               0   -0.0047953953  -3.3633559e-08               0    0.0079804764       62.699913   7.6157696e-09   1.0338846e-12
     0.12402402               0               0               0   -0.0047131951  -3.0669299e-08               0    0.0077941287       61.009494   7.2082282e-09   1.0070975e-12
     0.12612613               0               0               0   -0.0046400915  -2.8302048e-08               0    0.0076405426       59.509497   6.8593318e-09   9.8355487e-13
     0.12822823               0               0               0   -0.0045702897   -2.615149e-08               0    0.0074988478       58.078616   6.5317213e-09   9.6118989e-13
     0.13033033               0               0               0   -0.0045076598  -2.4311628e-08               0    0.0073754203       56.801215   6.2484063e-09   9.4132935e-13
     0.13243243               0               0               0   -0.0044477753  -2.2590703e-08               0    0.0072589857       55.582567   5.9820477e-09   9.2242753e-13
     0.13453453               0               0               0   -0.0043934514  -2.1111077e-08  -3.7987083e-19    0.0071505684       54.483528   5.7483418e-09   9.0543202e-13
     0.13663664               0               0               0   -0.0043415873  -1.9738199e-08  -9.2778945e-19    0.0070456979       53.437401   5.5290807e-09   8.8927984e-13
     0.13873874               0               0               0   -0.0042938353  -1.8545822e-08  -1.1231968e-18     0.006947559       52.479857   5.3329567e-09   8.7451773e-13
     0.14084084               0               0               0   -0.0042483629  -1.7453503e-08  -1.1231969e-18    0.0068531516       51.571417   5.1496584e-09   8.6052616e-13
     0.14294294               0               0               0   -0.0042058505   -1.647799e-08  -1.0588221e-18    0.0067657766       50.726462   4.9823159e-09   8.4752291e-13
     0.14504505               0               0               0   -0.0041655473  -1.5589657e-08   -9.464008e-19    0.0066836501       49.928891   4.8268822e-09   8.3525729e-13
     0.14714715               0               0               0   -0.0041273169  -1.4772761e-08  -7.0685652e-19    0.0066068767       49.175224   4.6820838e-09   8.2367511e-13
     0.14924925               0               0               0   -0.0040913294  -1.4033163e-08  -3.2975945e-19    0.0065358957       48.469064   4.5487933e-09   8.1283242e-13
     0.15135135               0               0               0   -0.0040566776  -1.3338582e-08  -6.2106646e-20    0.0064670216       47.790894   4.4220526e-09   8.0242505e-13
     0.15345345               0               0               0   -0.0040243438  -1.2722119e-08   1.5632311e-20    0.0064018037       47.161292   4.3066773e-09   7.9277307e-13
     0.15555556               0               0               0   -0.0039927054  -1.2129372e-08  -8.3168345e-21    0.0063375007       46.546262   4.1946132e-09   7.8334575e-13
     0.15765766               0               0               0    -0.003963426  -1.1617069e-08  -3.7717264e-19    0.0062763011       45.980652   4.0937803e-09    7.746804e-13
     0.15975976               0               0               0   -0.0039343162  -1.1109929e-08   -6.819643e-19     0.006215521        45.41858   3.9937307e-09   7.6606938e-13
     0.16186186               0               0               0   -0.0039076151   -1.067614e-08  -7.6405848e-20     0.006160702       44.906772   3.9048104e-09   7.5823018e-13
     0.16396396               0               0               0   -0.0038809139  -1.0242351e-08   5.2915261e-19     0.006105883       44.394964   3.8158901e-09   7.5039098e-13
     0.16606607               0               0               0   -0.0038561812  -9.8618694e-09   6.0250709e-19    0.0060552875       43.923747   3.7357246e-09   7.4317696e-13
     0.16816817               0               0               0   -0.0038317197  -9.4887346e-09   6.0250716e-19    0.0060052742       43.458126   3.6567659e-09   7.3604911e-13
     0.17027027               0               0               0   -0.0038085569   -9.149983e-09   3.4711626e-19    0.0059572794       43.019163   3.5834161e-09   7.2933052e-13
     0.17237237               0               0               0   -0.0037860449  -8.8284637e-09  -3.6272896e-20    0.0059102963       42.593561   3.5128775e-09   7.2281703e-13
     0.17447447               0               0               0   -0.0037642588  -8.5250113e-09  -2.5609781e-19    0.0058648299       42.182811   3.4453936e-09   7.1653071e-13
     0.17657658               0               0               0   -0.0037434483    -8.24584e-09  -2.5609784e-19    0.0058214019       41.792021   3.3820153e-09   7.1054971e-13
     0.17867868               0               0               0   -0.0037228775  -7.9722017e-09  -2.6899785e-19    0.0057784524         41.4061   3.3196169e-09   7.0464322e-13
     0.18078078               0               0               0   -0.0037035714  -7.7277535e-09  -3.4995339e-19    0.0057380272       41.045866   3.2623879e-09   6.9912979e-13
     0.18288288               0               0               0   -0.0036842654  -7.4833053e-09  -4.3090894e-19     0.005697602       40.685632    3.205159e-09   6.9361637e-13
     0.18498498               0               0               0   -0.0036661129  -7.2642006e-09  -2.8888141e-19    0.0056593908       40.348697    3.152523e-09   6.8845909e-13
     0.18708709               0               0               0    -0.003648143  -7.0491095e-09  -1.1153993e-19    0.0056215302       40.015451   3.1006144e-09   6.8335821e-13
     0.18918919               0               0               0   -0.0036308147  -6.8473626e-09   7.1276534e-20      0.00558494       39.695096   3.0511969e-09    6.784542e-13
     0.19129129               0               0               0   -0.0036140387  -6.6571034e-09   2.5880634e-19    0.0055494433       39.385837   3.0039241e-09   6.7371968e-13
     0.19339339               0               0               0   -0.0035974563  -6.4706614e-09   3.8130662e-19    0.0055143084       39.080448    2.957385e-09   6.6904419e-13
      0.1954955               0               0               0   -0.0035817522  -6.3015459e-09   2.0864231e-19    0.0054808156       38.792617   2.9141761e-09   6.6463664e-13
      0.1975976               0               0               0   -0.0035660482  -6.1324305e-09   3.5977998e-20    0.0054473228       38.504787   2.8709671e-09    6.602291e-13
      0.1996997               0               0               0   -0.0035511105  -5.9773541e-09               0    0.0054154141       38.232203   2.8305971e-09   6.5605401e-13
      0.2018018               0               0               0   -0.0035363747  -5.8259731e-09               0    0.0053839225       37.963633   2.7909743e-09   6.5194011e-13
      0.2039039               0               0               0   -0.0035219646  -5.6802625e-09  -4.8203445e-20    0.0053530467       37.701507   2.7525296e-09   6.4792445e-13
     0.20600601               0               0               0   -0.0035081106   -5.544229e-09  -1.7867165e-19    0.0053232219        37.45038   2.7160956e-09   6.4407646e-13
     0.20810811               0               0               0   -0.0034942566  -5.4081955e-09  -3.0913985e-19    0.0052933972       37.199253   2.6796615e-09   6.4022847e-13
     0.21021021               0               0               0   -0.0034811356  -5.2844892e-09  -3.2051498e-19    0.0052648928        36.96257   2.6458229e-09   6.3660034e-13
     0.21231231               0               0               0   -0.0034680847  -5.1619603e-09  -3.2051504e-19    0.0052365144       36.727268   2.6122322e-09   6.3299321e-13
     0.21441441               0               0               0    -0.003455343  -5.0442255e-09  -2.6724704e-19    0.0052088135        36.49803   2.5797129e-09   6.2947836e-13
     0.21651652               0               0               0   -0.0034430278  -4.9331006e-09  -1.4053728e-19    0.0051820467       36.277155   2.5486707e-09   6.2609072e-13
     0.21861862               0               0               0   -0.0034307126  -4.8219757e-09  -1.3827521e-20    0.0051552799        36.05628   2.5176285e-09   6.2270308e-13
     0.22072072               0               0               0   -0.0034190026  -4.7199572e-09               0    0.0051296542       35.847196    2.488634e-09   6.1949499e-13
     0.22282282               0               0               0   -0.0034073668  -4.6190542e-09               0    0.0051041684       35.639558   2.4598903e-09   6.1630889e-13
     0.22492492               0               0               0   -0.0033959325  -4.5212022e-09               0    0.0050790392       35.435832   2.4318157e-09   6.1318231e-13
     0.22702703               0               0               0   -0.0033849208  -4.4297493e-09               0    0.0050546579       35.240315   2.4051443e-09   6.1018055e-13
     0.22912913               0               0               0   -0.0033739092  -4.3382963e-09               0    0.0050302766       35.044798   2.3784729e-09   6.0717879e-13
     0.23123123               0               0               0   -0.0033633086  -4.2526532e-09  -6.5539573e-20    0.0050067854        34.85723   2.3531403e-09   6.0429784e-13
     0.23333333               0               0               0   -0.0033528719  -4.1693271e-09  -1.5721604e-19    0.0049836493       34.672831   2.3283415e-09   6.0146507e-13
     0.23543544               0               0               0   -0.0033424702  -4.0864687e-09  -2.3727826e-19    0.0049605822       34.489104   2.3036542e-09   5.9864254e-13
     0.23753754               0               0               0   -0.0033325677  -4.0102862e-09  -1.5160308e-19    0.0049385008        34.31497   2.2805581e-09   5.9596602e-13
     0.23963964               0               0               0   -0.0033226653  -3.9341037e-09   -6.592791e-20    0.0049164195       34.140836   2.2574621e-09    5.932895e-13
     0.24174174               0               0               0   -0.0033129477   -3.860421e-09   2.0889981e-20    0.0048946486       33.970241   2.2349445e-09   5.9066682e-13
     0.24384384               0               0               0    -0.003303541  -3.7909396e-09   1.0962843e-19    0.0048733996       33.805593   2.2133992e-09   5.8813465e-13
     0.24594595               0               0               0   -0.0032941343  -3.7214581e-09   1.9836688e-19    0.0048521505       33.640945   2.1918539e-09   5.8560247e-13
     0.24804805               0               0               0   -0.0032850193  -3.6557759e-09   1.7797818e-19    0.0048314672       33.481864   2.1712065e-09    5.831549e-13
     0.25015015               0               0               0   -0.0032760714   -3.592269e-09   9.5106803e-20    0.0048111078       33.325969   2.1510733e-09   5.8075578e-13
     0.25225225               0               0               0   -0.0032671235  -3.5287622e-09   1.2235426e-20    0.0047907484       33.170075     2.13094e-09   5.7835666e-13
     0.25435435               0               0               0   -0.0032585404  -3.4695572e-09               0    0.0047711853       33.021105   2.1119085e-09   5.7606287e-13
     0.25645646               0               0               0   -0.0032500204  -3.4110974e-09               0    0.0047517602       32.873334   2.0930679e-09   5.7378733e-13
     0.25855856               0               0               0   -0.0032415088  -3.3527323e-09   1.3556179e-21    0.0047323501       32.725719   2.0742517e-09   5.7151417e-13
     0.26066066               0               0               0   -0.0032333908  -3.2988692e-09   6.7178643e-20    0.0047136601       32.585534   2.0566009e-09   5.6935417e-13
     0.26276276               0               0               0   -0.0032252728  -3.2450061e-09   1.3300167e-19    0.0046949701       32.445348   2.0389501e-09   5.6719417e-13
     0.26486486               0               0               0   -0.0032172069  -3.1917526e-09    1.896931e-19    0.0046763675       32.306142   2.0214512e-09   5.6504909e-13
     0.26696697               0               0               0   -0.0032094647  -3.1422831e-09   1.8969314e-19    0.0046583074       32.173027   2.0048952e-09   5.6299669e-13
     0.26906907               0               0               0   -0.0032017226  -3.0928136e-09   1.8969319e-19    0.0046402474       32.039911   1.9883391e-09   5.6094429e-13
     0.27117117               0               0               0   -0.0031940523  -3.0441406e-09   1.7669303e-19    0.0046223366       31.908144   1.9719892e-09    5.589124e-13
     0.27327327               0               0               0   -0.0031866612  -2.9985603e-09   1.1321016e-19    0.0046050049       31.781612     1.95644e-09   5.5696013e-13
     0.27537538               0               0               0   -0.0031792701    -2.95298e-09   4.9727295e-20    0.0045876733       31.655081   1.9408908e-09   5.5500787e-13
     0.27747748               0               0               0   -0.0031719506  -2.9081219e-09  -1.1759957e-20    0.0045704956       31.529885   1.9255432e-09   5.5307595e-13
     0.27957958               0               0               0   -0.0031648901  -2.8658745e-09  -6.6032936e-20    0.0045538746        31.40952    1.910925e-09   5.5121762e-13
     0.28168168               0               0               0   -0.0031578296   -2.823627e-09  -1.2030591e-19    0.0045372537       31.289154   1.8963067e-09   5.4935929e-13
     0.28378378               0               0               0    -0.003150823  -2.7819176e-09  -1.6523025e-19    0.0045207289       31.169788   1.8818373e-09    5.475162e-13
     0.28588589               0               0               0   -0.0031440753  -2.7427935e-09  -1.6523029e-19    0.0045046663       31.055223   1.8680834e-09   5.4574633e-13
     0.28798799               0               0               0   -0.0031373276  -2.7036694e-09  -1.6523033e-19    0.0044886036       30.940659   1.8543295e-09   5.4397646e-13
     0.29009009               0               0               0   -0.0031306002  -2.6647558e-09  -1.6161592e-19    0.0044725756       30.826471    1.840631e-09   5.4221233e-13
     0.29219219               0               0               0   -0.0031241467  -2.6286721e-09  -1.0939464e-19    0.0044570126       30.717349   1.8276783e-09   5.4052539e-13
     0.29429429               0               0               0   -0.0031176932  -2.5925885e-09  -5.7173358e-20    0.0044414496       30.608227   1.8147256e-09   5.3883845e-13
      0.2963964               0               0               0   -0.0031112397  -2.5565048e-09  -4.9520761e-21    0.0044258866       30.499105   1.8017729e-09   5.3715151e-13
      0.2984985               0               0               0   -0.0031050363  -2.5228782e-09               0    0.0044108438       30.394596   1.7894917e-09   5.3553484e-13
      0.3006006               0               0               0   -0.0030988591  -2.4895089e-09               0    0.0043958555        30.29057   1.7772809e-09   5.3392553e-13
      0.3027027               0               0               0   -0.0030926819  -2.4561397e-09               0    0.0043808673       30.186544   1.7650701e-09   5.3231622e-13
      0.3048048               0               0               0   -0.0030866821  -2.4243371e-09   2.8524211e-20    0.0043662659       30.085771   1.7533271e-09   5.3075653e-13
     0.30690691               0               0               0   -0.0030807665  -2.3932799e-09   7.0619755e-20    0.0043518486       29.986544   1.7418067e-09   5.2922044e-13
     0.30900901               0               0               0    -0.003074851  -2.3622227e-09    1.127153e-19    0.0043374312       29.887318   1.7302863e-09   5.2768435e-13
     0.31111111               0               0               0    -0.003069031  -2.3319941e-09   1.3106837e-19    0.0043231873       29.789837   1.7190138e-09   5.2617491e-13
     0.31321321               0               0               0   -0.0030633646  -2.3030953e-09   1.1131395e-19    0.0043092218       29.695155   1.7081392e-09   5.2470823e-13
     0.31531532               0               0               0   -0.0030576981  -2.2741965e-09   9.1559541e-20    0.0042952563       29.600474   1.6972646e-09   5.2324156e-13
     0.31741742               0               0               0   -0.0030520366  -2.2453431e-09   7.2154109e-20     0.004281299       29.505884   1.6864027e-09   5.2177628e-13
     0.31951952               0               0               0   -0.0030466059  -2.2185832e-09   6.8874659e-20    0.0042677168       29.415495    1.676131e-09   5.2037513e-13
     0.32162162               0               0               0   -0.0030411753  -2.1918234e-09   6.5595209e-20    0.0042541346       29.325106   1.6658593e-09   5.1897397e-13
     0.32372372               0               0               0   -0.0030357447  -2.1650636e-09   6.2315758e-20    0.0042405525       29.234718   1.6555875e-09   5.1757282e-13
     0.32582583               0               0               0   -0.0030304446  -2.1394471e-09   7.2063156e-20    0.0042272303       29.146699   1.6456452e-09   5.1620783e-13
     0.32792793               0               0               0   -0.0030252366  -2.1146365e-09   9.0990968e-20    0.0042140914        29.06035    1.635935e-09   5.1486832e-13
     0.33003003               0               0               0   -0.0030200285  -2.0898258e-09   1.0991878e-19    0.0042009524       28.974002   1.6262248e-09    5.135288e-13
     0.33213213               0               0               0   -0.0030148368  -2.0651428e-09   1.2465295e-19    0.0041878509       28.887948   1.6165551e-09   5.1219379e-13
     0.33423423               0               0               0   -0.0030098403   -2.041989e-09   8.9147032e-20    0.0041751979       28.805422   1.6073703e-09   5.1091266e-13
     0.33633634               0               0               0   -0.0030048438  -2.0188352e-09    5.364111e-20    0.0041625449       28.722896   1.5981855e-09   5.0963154e-13
     0.33843844               0               0               0   -0.0029998473  -1.9956813e-09   1.8135187e-20    0.0041498918        28.64037   1.5890007e-09   5.0835041e-13
     0.34054054               0               0               0   -0.0029949499  -1.9732768e-09  -2.2496799e-20    0.0041374262       28.559623   1.5800575e-09   5.0709651e-13
     0.34264264               0               0               0   -0.0029901557  -1.9516545e-09  -6.8480438e-20    0.0041251561       28.480732   1.5713666e-09   5.0587101e-13
     0.34474474               0               0               0   -0.0029853616  -1.9300321e-09  -1.1446408e-19    0.0041128861       28.401841   1.5626758e-09   5.0464551e-13
     0.34684685               0               0               0   -0.0029805675  -1.9084098e-09  -1.6044772e-19    0.0041006161       28.322951   1.5539849e-09   5.0342002e-13
     0.34894895               0               0               0   -0.0029759314  -1.8880271e-09  -1.6873677e-19     0.004088598       28.246891   1.5456743e-09   5.0223783e-13
     0.35105105               0               0               0   -0.0029713301   -1.867917e-09  -1.6873683e-19    0.0040766354       28.171454   1.5374474e-09   5.0106516e-13
     0.35315315               0               0               0   -0.0029667288  -1.8478069e-09   -1.687369e-19    0.0040646728       28.096017   1.5292204e-09   4.9989249e-13