#      distance             U_x             U_y             U_z wallShearStr... wallShearStr... wallShearStr...               p         epsilon               k             nut
  3.0219182e-06      0.03215443   4.6781835e-09   -4.060893e-23               0               0               0   0.00032813824       9.5328491   0.00047760519   4.7386229e-09
  5.0865428e-06     0.053140264   1.1785284e-08  -1.7343977e-23               0               0               0   0.00032813871       6.3598992    0.0010069605   1.8893383e-08
  7.2269684e-06     0.072966119   2.2499616e-08  -3.1510103e-23               0               0               0   0.00032813928       5.3483294    0.0015984011     4.80514e-08
  9.4750924e-06     0.091045561   3.6474559e-08  -4.7260099e-23               0               0               0   0.00032813997       4.8785337    0.0021771512   9.2067354e-08
  1.1864417e-05      0.10728956   5.3488477e-08  -1.8906755e-23               0               0               0   0.00032814083       4.5805364    0.0027012149   1.4742578e-07
  1.4430548e-05      0.12197885   7.3625973e-08   3.8939038e-23               0               0               0   0.00032814186       4.3378264    0.0031600094   2.1085205e-07
  1.7211727e-05      0.13548856   9.7189902e-08   6.4714816e-23               0               0               0   0.00032814305       4.1130544    0.0035589262   2.8062726e-07
  2.0249401e-05      0.14814619   1.2463502e-07   1.5595951e-23               0               0               0   0.00032814441       3.8945681    0.0039073798   3.5625441e-07
  2.3588836e-05      0.16020369   1.5654855e-07  -1.4046134e-23               0               0               0   0.00032814594       3.6790441    0.0042141082   4.3793928e-07
  2.7279799e-05      0.17184813   1.9364996e-07  -7.0230672e-24               0               0               0   0.00032814768       3.4659334    0.0044861123    5.262794e-07
  3.1377293e-05      0.18321803   2.3679809e-07               0               0               0               0   0.00032814966       3.2556465    0.0047287581   6.2211434e-07
  3.5942381e-05      0.19441664   2.8700438e-07   2.4029933e-23               0               0               0   0.00032815189       3.0489295    0.0049461271   7.2646106e-07
  4.1043091e-05      0.20552161   3.4545162e-07   3.6041044e-23               0               0               0   0.00032815443       2.8466334      0.00514135   8.4049123e-07
  4.6755437e-05      0.21659175   4.1351781e-07   4.2405156e-23               0               0               0   0.00032815731        2.649617    0.0053168703   9.6552952e-07
  5.3164546e-05      0.22767176   4.9280486e-07   4.5586192e-23               0               0               0   0.00032816059       2.4586979    0.0054746389   1.1030632e-06
  6.0365928e-05      0.23879556   5.8517238e-07  -7.9517291e-23               0               0               0   0.00032816433       2.2746222    0.0056162539   1.2547585e-06
    6.84669e-05      0.24998875   6.9277731e-07  -1.6916316e-22               0               0               0   0.00032816859       2.0980442    0.0057430611   1.4224822e-06
  7.7588184e-05      0.26127036   8.1811984e-07    -9.32908e-23               0               0               0   0.00032817347       1.9295119    0.0058562236   1.6083257e-06
   8.786571e-05      0.27265422   9.6409688e-07   2.6810815e-23               0               0               0   0.00032817906       1.7694574    0.0059567711   1.8146345e-06
  9.9452634e-05      0.28414997   1.1340639e-06   1.2849562e-22               0               0               0   0.00032818545       1.6181932    0.0060456337   2.0440395e-06
  0.00011252163      0.29576387   1.3319065e-06   2.8694426e-23               0               0               0   0.00032819279       1.4759124    0.0061236647   2.2994929e-06
  0.00012726745      0.30749946   1.5621239e-06   -6.571859e-23               0               0               0    0.0003282012       1.3426933    0.0061916556   2.5843078e-06
  0.00014390985      0.31935806   1.8299243e-06  -1.1565286e-23               0               0               0   0.00032821087        1.218507     0.006250346   2.9022027e-06
  0.00016269684      0.33133921   2.1413373e-06   4.7880352e-23               0               0               0   0.00032822198       1.1032279    0.0063004292   3.2573495e-06
  0.00018390838      0.34344107   2.5033419e-06   3.5440113e-22               0               0               0   0.00032823475      0.99664572    0.0063425561   3.6544286e-06
  0.00020786057      0.35566066    2.924017e-06    4.357995e-22               0               0               0   0.00032824945      0.89847878    0.0063773369   4.0986879e-06
  0.00023491035      0.36799418   3.4127147e-06   1.2927872e-22               0               0               0   0.00032826637      0.80838718    0.0064053422   4.5960095e-06
  0.00026546084      0.38043722   3.9802611e-06               0               0               0               0   0.00032828586      0.72598606    0.0064271035   5.1529817e-06
   0.0002999673      0.39298495   4.6391909e-06               0               0               0               0   0.00032830831      0.65085804    0.0064431137    5.776979e-06
  0.00033894396      0.40563231   5.4040183e-06  -1.5976556e-22               0               0               0   0.00032833418      0.58256453    0.0064538273   6.4762484e-06
  0.00038297165      0.41837412   6.2915525e-06  -3.1953113e-22               0               0               0   0.00032836399      0.52065587    0.0064596604   7.2600034e-06
  0.00043270649      0.43120524   7.3212655e-06   6.3443924e-22               0               0               0   0.00032839836      0.46468001    0.0064609918   8.1385247e-06
  0.00048888965       0.4441207   8.5157198e-06   1.2605465e-21               0               0               0   0.00032843798      0.41418989    0.0064581627   9.1232672e-06
  0.00055235838      0.45711575   9.9010677e-06   4.6634168e-22               0               0               0   0.00032848366      0.36874931    0.0064514774   1.0226972e-05
   0.0006240585      0.47018604   1.1507634e-05               0               0               0               0   0.00032853632      0.32793768    0.0064412036   1.1463781e-05
  0.00070505852       0.4833276   1.3370598e-05    2.343904e-22               0               0               0   0.00032859702      0.29135344    0.0064275725   1.2849353e-05
  0.00079656552      0.49653703   1.5530797e-05    4.687808e-22               0               0               0   0.00032866699       0.2586166    0.0064107788   1.4400973e-05
  0.00089994316       0.5098115   1.8035663e-05    2.343904e-22               0               0               0   0.00032874761      0.22937028    0.0063909797   1.6137652e-05
    0.001016732      0.52314891   2.0940336e-05               0               0               0               0   0.00032884048      0.20328159    0.0063682945   1.8080205e-05
   0.0011486725      0.53654792   2.4308976e-05   9.3496019e-22               0               0               0   0.00032894743      0.18004183    0.0063428028   2.0251302e-05
   0.0012977308      0.55000808   2.8216323e-05   -7.290972e-22               0               0               0   0.00032907052      0.15936628    0.0063145419   2.2675463e-05
   0.0014661282      0.56352994    3.274956e-05  -3.2427743e-21               0               0               0    0.0003292121       0.1409935    0.0062835042   2.5378991e-05
   0.0016563743      0.57711519    3.801054e-05  -2.6773382e-21               0               0               0   0.00032937483      0.12468449    0.0062496321     2.83898e-05
   0.0018713042      0.59076676   4.4118482e-05  -1.6838775e-21               0               0               0   0.00032956172      0.11022151    0.0062128131   3.1737111e-05
   0.0021141207      0.60448905    5.121322e-05  -5.8525619e-22               0               0               0   0.00032977611     0.097406884    0.0061728722    3.545097e-05
   0.0023884425      0.61828806    5.945918e-05   -4.346087e-22               0               0               0   0.00033002175     0.086061612    0.0061295627   3.9561516e-05
   0.0026983575      0.63217165   6.9050242e-05   9.8875746e-22               0               0               0   0.00033030277     0.076024053     0.006082555    4.409795e-05
   0.0030484842      0.64614981   8.0215737e-05    -2.14773e-21               0               0               0    0.0003306237     0.067148531    0.0060314216   4.9087087e-05
   0.0034440402       0.6602349   9.3227868e-05  -5.1284948e-21               0               0               0   0.00033098939     0.059303994    0.0059756192    5.455141e-05
   0.0038909203      0.67444205   0.00010841095  -1.5573985e-21               0               0               0   0.00033140499     0.052372706    0.0059144658   6.0506481e-05
    0.004395784      0.68878951   0.00012615297   3.4113749e-21               0               0               0   0.00033187576     0.046248994    0.0058471121   6.6957578e-05
   0.0049661549      0.70329915   0.00014692001  -3.4985435e-21               0               0               0   0.00033240685     0.040838052    0.0057725054    7.389539e-05
   0.0056105328      0.71799687   0.00017127451  -1.2558729e-20               0               0               0   0.00033300288     0.036054807    0.0056893446   8.1290599e-05
   0.0063385204      0.73291324   0.00019989794   4.1943924e-21               0               0               0   0.00033366733     0.031822834    0.0055960225   8.9087181e-05
   0.0071609664      0.74808407   0.00023361938   1.6458943e-20               0               0               0   0.00033440159     0.028073341    0.0054905536   9.7194246e-05
   0.0080901272      0.76355107   0.00027345245   2.2876039e-20               0               0               0   0.00033520398      0.02474418    0.0053704819    0.0001054763
   0.0091398493      0.77936249   0.00032064649   2.5166238e-20               0               0               0   0.00033606856     0.021778899    0.0052327649   0.00011374181
    0.010325776      0.79557367   0.00037674503   1.2910826e-20               0               0               0   0.00033697857     0.019125823    0.0050736258    0.0001217301
     0.01166558      0.81224744   0.00044354192   4.0048873e-21               0               0               0   0.00033790149     0.016737134    0.0048883694    0.0001290966
    0.013179228      0.82945395   0.00052341116   1.2478534e-20               0               0               0   0.00033878974     0.014567973     0.004671155   0.00013539683
    0.014889277      0.84726942   0.00061930361   9.9128507e-21               0               0               0   0.00033957364     0.012575594      0.00441473   0.00014006947
    0.016821209      0.86577282   0.00073459491   3.2823685e-20               0               0               0   0.00034014781     0.010718655    0.0041101426    0.0001424197
    0.019003816       0.8850381    0.0008734408   5.1895399e-20               0               0               0   0.00034035307    0.0089569402    0.0037465059   0.00014160496
    0.021469624      0.90511687    0.0010407361   2.3887074e-20               0               0               0   0.00033995508    0.0072522364    0.0033110326   0.00013662948
    0.024255377      0.92599787    0.0012415841   5.2900996e-21               0               0               0   0.00033861632    0.0055724843    0.0027900302   0.00012636775
    0.027402591      0.94750165    0.0014798476  -2.0909758e-21               0               0               0   0.00033591648    0.0039059853    0.0021733234   0.00010969269
    0.030958166      0.96896135    0.0017592859               0               0               0               0    0.0003316621    0.0023075859    0.0014717748   8.6009961e-05
    0.034975088      0.98789133    0.0020424722               0               0               0               0   0.00032461724    0.0010103928   0.00079335083   5.9620325e-05
    0.039513219       1.0001717    0.0022312326   2.5303556e-20               0               0               0   0.00031348253     0.000285954   0.00033962163    4.724263e-05
    0.044640187       1.0050463    0.0022940132   3.2026934e-20               0               0               0   0.00030032321   5.6239221e-05   0.00016569993   6.4029129e-05
    0.050432395       1.0061575    0.0022970228   -2.764878e-21               0               0               0    0.0002877768   1.7633021e-05   0.00013099423   9.8621413e-05
    0.056976161       1.0063812    0.0022870459  -1.3051981e-20               0               0               0    0.0002760594   1.1353755e-05   0.00012584729   0.00012802291
    0.064369002        1.006445    0.0022729924  -3.5637707e-21               0               0               0   0.00026454982   9.7825391e-06   0.00012538886   0.00014513497
    0.072721087       1.0064675    0.0022560158               0               0               0               0   0.00025293386   9.2334002e-06   0.00012585126   0.00015451046
    0.082156882       1.0064687     0.002235887               0               0               0               0   0.00024143627   8.9801069e-06   0.00012641559   0.00016021082
    0.092817002       1.0064549    0.0022130304               0               0               0               0   0.00023046204   8.8365694e-06   0.00012686132   0.00016393452
