#      distance             U_x             U_y             U_z wallShearStr... wallShearStr... wallShearStr...               p           omega               k             nut
  3.0219182e-06     0.019267246    9.074937e-10  -1.3199501e-23               0               0               0   7.1165395e-05       5570608.5   4.1800065e-07   3.9117336e-13
  5.0865428e-06     0.032434388   2.3121551e-09  -5.3692897e-24               0               0               0   7.1165466e-05       1240868.4   1.9105886e-06   3.6188385e-12
  7.2269684e-06     0.046087767   4.5725353e-09  -1.3832475e-23               0               0               0   7.1165541e-05       495719.26   6.0323603e-06   2.0255942e-11
  9.4750924e-06     0.060430218   7.8206012e-09  -2.0746493e-23               0               0               0   7.1165618e-05       256828.88   1.5126234e-05   8.2689363e-11
  1.1864417e-05     0.075670174   1.2259298e-08  -8.9384162e-24               0               0               0     7.11657e-05       152902.43   3.2657816e-05   2.7285624e-10
  1.4430548e-05     0.092017229   1.8174654e-08    2.829437e-23               0               0               0    7.116579e-05       99202.095   6.3663618e-05   7.7345521e-10
  1.7211727e-05      0.10966887   2.5944504e-08   4.6485161e-23               0               0               0   7.1165891e-05       68334.403   0.00011522153   1.9529144e-09
  2.0249401e-05      0.12878194   3.6047528e-08   9.4540722e-24               0               0               0   7.1166007e-05       49301.803   0.00019661653    4.483465e-09
  2.3588836e-05      0.14942419   4.9061144e-08  -1.3424643e-23               0               0               0   7.1166147e-05       36974.785   0.00031854034   9.4577586e-09
  2.7279799e-05      0.17151347   6.5635695e-08  -6.7123217e-24               0               0               0   7.1166322e-05       28675.062    0.0004905128   1.8418499e-08
  3.1377293e-05      0.19477592   8.6444498e-08               0               0               0               0   7.1166545e-05       22878.841   0.00071653955   3.3203605e-08
  3.5942381e-05      0.21876684   1.1213419e-07   2.6365718e-23               0               0               0   7.1166835e-05       18670.258   0.00099109351   5.5612583e-08
  4.1043091e-05      0.24296795   1.4330155e-07   3.9544347e-23               0               0               0   7.1167207e-05       15489.272    0.0012987924   8.7068948e-08
  4.6755437e-05        0.266929   1.8057202e-07   4.4956992e-23               0               0               0   7.1167677e-05       12996.608    0.0016189882   1.2803559e-07
  5.3164546e-05      0.29037635   2.2475065e-07   4.7662446e-23               0               0               0   7.1168264e-05       10986.327    0.0019326193   1.7805669e-07
  6.0365928e-05       0.3131906   2.7687919e-07  -7.6461635e-23               0               0               0   7.1168991e-05       9329.2007     0.002226451   2.3771159e-07
    6.84669e-05      0.33529833   3.3815907e-07  -1.6500525e-22               0               0               0   7.1169888e-05       7942.1352    0.0024924955    3.092832e-07
  7.7588184e-05      0.35663022    4.099094e-07   -9.080664e-23               0               0               0   7.1170991e-05       6771.1338    0.0027261552   3.9499505e-07
   8.786571e-05      0.37714859   4.9366957e-07   1.9630561e-23               0               0               0   7.1172339e-05       5779.1244    0.0029257518    4.964552e-07
  9.9452634e-05      0.39685854   5.9129099e-07   1.0411029e-22               0               0               0   7.1173973e-05       4938.1253    0.0030920704   6.1516071e-07
  0.00011252163      0.41579631   7.0497269e-07   2.8287393e-23               0               0               0   7.1175936e-05       4225.2934    0.0032274195   7.5262067e-07
  0.00012726745      0.43401658   8.3731565e-07  -4.4774397e-23               0               0               0   7.1178278e-05       3621.1748    0.0033348232   9.1039209e-07
  0.00014390985      0.45158273   9.9138934e-07   -6.729169e-24               0               0               0   7.1181051e-05        3108.986    0.0034174756   1.0901138e-06
  0.00016269684      0.46856007   1.1708082e-06   3.3980847e-23               0               0               0   7.1184318e-05       2674.2854    0.0034784278   1.2935545e-06
  0.00018390838      0.48501153   1.3798191e-06   2.3878242e-22               0               0               0   7.1188146e-05       2304.7503    0.0035204379   1.5226528e-06
  0.00020786057      0.50099524   1.6234036e-06   2.9018453e-22               0               0               0   7.1192616e-05        1989.966    0.0035459242   1.7795496e-06
  0.00023491035      0.51656345   1.9073979e-06   8.5382959e-23               0               0               0   7.1197815e-05       1721.2019     0.003556975   2.0666148e-06
  0.00026546084      0.53176224   2.2386333e-06               0               0               0               0   7.1203845e-05       1491.1748    0.0035553856   2.3864686e-06
   0.0002999673       0.5466318   2.6250991e-06               0               0               0               0    7.121082e-05       1293.8239     0.003542702    2.741999e-06
  0.00033894396      0.56120692    3.076133e-06  -1.0009322e-22               0               0               0   7.1218871e-05       1124.1103    0.0035202642   3.1363764e-06
  0.00038297165       0.5755176   3.6026439e-06  -2.0018644e-22               0               0               0   7.1228144e-05       977.84138    0.0034892431   3.5730669e-06
  0.00043270649      0.58958971   4.2173694e-06   3.7304637e-22               0               0               0   7.1238802e-05       851.52155    0.0034506707   4.0558443e-06
  0.00048888965      0.60344552   4.9351776e-06   7.5239806e-22               0               0               0   7.1251027e-05       742.22863    0.0034054634   4.5888002e-06
  0.00055235838      0.61710435   5.7734177e-06   2.7925847e-22               0               0               0   7.1265024e-05        647.5116      0.00335444   5.1763511e-06
   0.0006240585      0.63058298   6.7523297e-06               0               0               0               0    7.128102e-05        565.3073    0.0032983348   5.8232411e-06
  0.00070505852      0.64389611   7.8955229e-06   1.4386145e-22               0               0               0   7.1299265e-05        493.8727    0.0032378071    6.534534e-06
  0.00079656552      0.65705675   9.2305376e-06    2.877229e-22               0               0               0   7.1320036e-05        431.7299    0.0031734479   7.3155932e-06
  0.00089994316      0.67007659   1.0789507e-05   1.4386145e-22               0               0               0   7.1343634e-05       377.62146    0.0031057843   8.1720391e-06
    0.001016732      0.68296627   1.2609943e-05               0               0               0               0   7.1370388e-05       330.47398    0.0030352823    9.109675e-06
   0.0011486725      0.69573574   1.4735673e-05   5.6369895e-22               0               0               0   7.1400654e-05       289.36849    0.0029623484   1.0134369e-05
   0.0012977308      0.70839454   1.7217971e-05  -4.5131025e-22               0               0               0   7.1434811e-05       253.51609    0.0028873301   1.1251873e-05
   0.0014661282      0.72095212    2.011694e-05  -1.9916488e-21               0               0               0   7.1473259e-05       222.23802    0.0028105151   1.2467562e-05
   0.0016563743      0.73341819   2.3503201e-05   -1.683629e-21               0               0               0   7.1516416e-05        194.9492      0.00273213   1.3786053e-05
   0.0018713042      0.74580308   2.7460015e-05  -1.0855154e-21               0               0               0   7.1564704e-05       171.14474    0.0026523378   1.5210681e-05
   0.0021141207      0.75811818   3.2085967e-05  -3.7852593e-22               0               0               0   7.1618542e-05       150.38871    0.0025712362   1.6742746e-05
   0.0023884425      0.77037647   3.7498474e-05  -2.9178064e-22               0               0               0   7.1678333e-05       132.30503     0.002488854   1.8380412e-05
   0.0026983575      0.78259326   4.3838508e-05    6.231398e-22               0               0               0   7.1744453e-05       116.56979    0.0024051476   2.0117043e-05
   0.0030484842      0.79478736   5.1277368e-05  -1.4588104e-21               0               0               0   7.1817239e-05       102.90485    0.0023199934   2.1938562e-05
   0.0034440402      0.80698289   6.0025915e-05  -3.3848195e-21               0               0               0   7.1896959e-05        91.07217    0.0022331726   2.3819274e-05
   0.0038909203      0.81921236   7.0352303e-05  -1.0110886e-21               0               0               0   7.1983782e-05        80.86829     0.002144335   2.5715414e-05
    0.004395784      0.83152142   8.2589231e-05   2.4957083e-21               0               0               0    7.207772e-05       72.118604    0.0020529254   2.7555861e-05
   0.0049661549      0.84397604   9.7250291e-05   7.7348318e-21               0               0               0   7.2178884e-05       64.670542    0.0019580386   2.9230393e-05
   0.0056105328       0.8566726   0.00011490333   6.2424678e-21               0               0               0   7.2287435e-05        58.38483    0.0018581586   3.0578504e-05
   0.0063385204      0.86975042   0.00013647839   8.7943663e-21               0               0               0   7.2401951e-05       53.123702    0.0017507196   3.1387342e-05
   0.0071609664      0.88340322    0.0001634217   1.3163617e-20               0               0               0   7.2515311e-05       48.735775    0.0016314789   3.1414105e-05
   0.0080901272      0.89787832   0.00019755074   1.9621402e-20               0               0               0   7.2606958e-05       45.040253    0.0014939084   3.0447115e-05
   0.0091398493       0.9134398   0.00024124514   2.2278579e-20               0               0               0   7.2635436e-05       41.818992    0.0013291899   2.8400903e-05
    0.010325776      0.93025139   0.00029706566   1.1730255e-20               0               0               0   7.2547125e-05       38.831257    0.0011278302   2.5419875e-05
     0.01166558      0.94812462   0.00036669623   3.7004838e-21               0               0               0   7.2324646e-05       35.901367   0.00088546304   2.1828264e-05
    0.013179228      0.96662633   0.00045411374   1.1817748e-20               0               0               0   7.1947539e-05       32.555607   0.00059986261   1.6948557e-05
    0.014889277      0.98428932   0.00055205323   1.1267945e-20               0               0               0    7.119096e-05       25.161359   0.00030234915   1.0462779e-05
    0.016821209      0.99681506   0.00062437972   2.1364161e-20               0               0               0   6.9937527e-05        13.82809   9.0742832e-05   4.5793382e-06
    0.019003816       1.0017671   0.00065011229   3.4645452e-20               0               0               0   6.8526824e-05       6.6734013   1.1902536e-05   1.2297234e-06
    0.021469624        1.002527   0.00065153313   2.3598105e-20               0               0               0   6.7221197e-05       5.2991006   1.0159953e-06   1.9003401e-07
    0.024255377       1.0025525   0.00064863839   1.6712537e-20               0               0               0   6.5955501e-05       5.2590271   6.5684274e-07   1.2489704e-07
    0.027402591       1.0025503   0.00064545632   5.8459015e-21               0               0               0   6.4651569e-05       5.2596239   6.5369183e-07   1.2428355e-07
    0.030958166       1.0025471   0.00064319267               0               0               0               0   6.3309519e-05       5.2597454   6.5378716e-07   1.2429871e-07
    0.034975088       1.0025433   0.00064059401               0               0               0               0    6.194533e-05       5.2597247   6.5379325e-07   1.2430036e-07
    0.039513219       1.0025409   0.00063796521   6.9416188e-21               0               0               0   6.0561313e-05        5.259705   6.5378924e-07   1.2430006e-07
    0.044640187       1.0025394   0.00063500545    1.041134e-20               0               0               0   5.9169137e-05       5.2596824   6.5378541e-07   1.2429987e-07
    0.050432395        1.002537   0.00063165687   3.4697084e-21               0               0               0   5.7796847e-05        5.259658   6.5378146e-07    1.242997e-07
    0.056976161       1.0025326   0.00062822548               0               0               0               0   5.6474663e-05       5.2596324   6.5377742e-07   1.2429954e-07
    0.064369002       1.0025264   0.00062414528               0               0               0               0   5.5219802e-05       5.2596033   6.5377299e-07   1.2429938e-07
    0.072721087       1.0025181   0.00061992425               0               0               0               0   5.4046404e-05       5.2595678   6.5376775e-07   1.2429922e-07
    0.082156882       1.0025077   0.00061552451               0               0               0               0   5.2989798e-05        5.259524   6.5376144e-07   1.2429906e-07
    0.092817002        1.002495   0.00061059149               0               0               0               0   5.2085338e-05       5.2594698   6.5375378e-07   1.2429888e-07
