/*--------------------------------*- C++ -*----------------------------------*\
  =========                 |
  \\      /  F ield         | OpenFOAM: The Open Source CFD Toolbox
   \\    /   O peration     | Website:  https://openfoam.org
    \\  /    A nd           | Version:  12
     \\/     M anipulation  |
\*---------------------------------------------------------------------------*/
FoamFile
{
    format      ascii;
    class       surfaceScalarField;
    location    "700";
    object      phi;
}
// * * * * * * * * * * * * * * * * * * * * * * * * * * * * * * * * * * * * * //

dimensions      [0 3 -1 0 0 0 0];

internalField   nonuniform List<scalar> 
14782
(
0.00078250031
8.847777e-06
-0.00079134809
0.00077193919
1.0561122e-05
0.00076078847
1.1150719e-05
0.00074959699
1.1191479e-05
0.00073861309
1.0983903e-05
0.00072801877
1.0594318e-05
0.00071784379
1.0174977e-05
0.00070802908
9.8147161e-06
0.00069850786
9.5212132e-06
0.00068916272
9.3451463e-06
0.00067988254
9.2801782e-06
0.00067061118
9.2713579e-06
0.00066133758
9.2736041e-06
0.00065207474
9.2628423e-06
0.0006428492
9.2255389e-06
0.00063370751
9.141688e-06
0.00062473406
8.9734454e-06
0.00061594701
8.7870511e-06
0.00060737181
8.5751991e-06
0.00059909728
8.2745342e-06
0.00059117032
7.9269562e-06
0.00058363983
7.5304885e-06
0.00057654801
7.0918215e-06
0.0005699278
6.620217e-06
0.00056381538
6.1124172e-06
0.00055823414
5.5812352e-06
0.0005531767
5.0574469e-06
0.00054862892
4.5477783e-06
0.00054456782
4.0611021e-06
0.00054095946
3.6083547e-06
0.00053776346
3.1959968e-06
0.00053494407
2.8193981e-06
0.00053247219
2.4718789e-06
0.00053030448
2.1677112e-06
0.00052839162
1.9128574e-06
0.00052668633
1.7052898e-06
0.00052514072
1.5456054e-06
0.00052371445
1.4262704e-06
0.00052238719
1.3272684e-06
0.00052113316
1.2540219e-06
0.00051991868
1.2144846e-06
0.00051872079
1.197892e-06
0.0005175216
1.1991845e-06
0.00051630841
1.2131904e-06
0.00051507673
1.2316825e-06
0.00051381825
1.2584768e-06
0.00051251836
1.2998904e-06
0.00051116346
1.354902e-06
0.00050974638
1.4170832e-06
0.00050827198
1.4743978e-06
0.0005067427
1.5292771e-06
0.00050515923
1.5834737e-06
0.00050352805
1.6311831e-06
0.00050186467
1.6633705e-06
0.00050018439
1.680288e-06
0.00049849229
1.6920965e-06
0.00049679068
1.7016066e-06
0.0004950839
1.7067838e-06
0.00049337951
1.7043884e-06
0.00049167981
1.6996994e-06
0.00048998288
1.6969349e-06
0.00048829455
1.6883244e-06
0.00048662232
1.6722324e-06
0.00048496796
1.6543588e-06
0.00048332925
1.6387066e-06
0.00048171101
1.6182494e-06
0.00048011493
1.5960716e-06
0.00047853446
1.5804687e-06
0.00047696738
1.5670801e-06
0.0004754165
1.5508845e-06
0.00047388171
1.5347931e-06
0.0004723592
1.5225041e-06
0.0004708548
1.5044026e-06
0.00046937096
1.4838419e-06
0.0004679009
1.4700633e-06
0.00046644662
1.4542778e-06
0.00046500937
1.4372437e-06
0.00046358274
1.4266289e-06
0.00046216953
1.4132104e-06
0.00046077327
1.3962687e-06
0.00045938959
1.3836727e-06
0.00045802101
1.3685828e-06
0.00045666843
1.3525798e-06
0.0004553261
1.3423323e-06
0.00045399617
1.3299324e-06
0.00045267963
1.3165369e-06
0.00045137504
1.3045881e-06
0.00045008416
1.290879e-06
0.00044880429
1.2798729e-06
0.00044753584
1.2684526e-06
0.00044627874
1.2570978e-06
0.0004450312
1.2475349e-06
0.00044379504
1.2361599e-06
0.00044256752
1.2275243e-06
0.00044134737
1.2201511e-06
0.0004401329
1.2144672e-06
0.00043894817
1.1847347e-06
0.00043762482
1.3233427e-06
0.00043659693
1.0278937e-06
1.4098707e-06
0.00082549878
8.0465766e-06
-0.00082469758
0.0008259977
1.0062197e-05
0.00082622939
1.0919032e-05
0.00082611407
1.1306795e-05
0.00082531433
1.1783647e-05
0.00082379895
1.2109698e-05
0.00082164367
1.233026e-05
0.00081890292
1.2555467e-05
0.00081566204
1.2762091e-05
0.00081202604
1.2981148e-05
0.0008081109
1.3195315e-05
0.00080397136
1.3410894e-05
0.00079962884
1.3616126e-05
0.00079509115
1.3800533e-05
0.0007903573
1.3959392e-05
0.00078542158
1.4077403e-05
0.00078025445
1.4140584e-05
0.00077487415
1.4167347e-05
0.00076928545
1.4163899e-05
0.00076348563
1.4074353e-05
0.00075753935
1.3873237e-05
0.0007514839
1.358594e-05
0.00074534894
1.3226778e-05
0.00073916489
1.2804267e-05
0.00073297061
1.23067e-05
0.00072680161
1.1750237e-05
0.00072068442
1.1174633e-05
0.00071465293
1.0579268e-05
0.00070874261
9.9714269e-06
0.00070298672
9.364242e-06
0.00069741625
8.7664635e-06
0.00069206674
8.1689064e-06
0.00068694244
7.5961835e-06
0.00068202015
7.0900037e-06
0.00067730039
6.6326169e-06
0.00067279044
6.2152334e-06
0.00066849431
5.841739e-06
0.00066440773
5.5128533e-06
0.00066052572
5.2092721e-06
0.00065683426
4.945487e-06
0.00065331177
4.7369783e-06
0.00064994168
4.5679821e-06
0.00064670833
4.4325287e-06
0.00064359963
4.3218865e-06
0.00064060838
4.2229407e-06
0.00063772471
4.1421461e-06
0.00063491279
4.111812e-06
0.00063213539
4.1322942e-06
0.00062938936
4.1631213e-06
0.00062668613
4.1776214e-06
0.00062403087
4.1845363e-06
0.00062142002
4.1943297e-06
0.0006188485
4.2026969e-06
0.00061631774
4.1941376e-06
0.00061383009
4.1679353e-06
0.00061137683
4.1453559e-06
0.00060894689
4.1315406e-06
0.00060653715
4.1165272e-06
0.00060415247
4.0890653e-06
0.00060179635
4.0558261e-06
0.00059946796
4.0253246e-06
0.00059717021
3.9860721e-06
0.00059490756
3.9348836e-06
0.00059268072
3.8811953e-06
0.00059048678
3.8326489e-06
0.00058832595
3.7790835e-06
0.00058619647
3.7255476e-06
0.00058409275
3.6841841e-06
0.00058201309
3.6467408e-06
0.00057996056
3.6034159e-06
0.00057793663
3.5587221e-06
0.00057593869
3.5204472e-06
0.00057397018
3.4729162e-06
0.00057203278
3.4212379e-06
0.00057012015
3.3826937e-06
0.00056823132
3.343113e-06
0.00056636718
3.3013744e-06
0.00056452402
3.2697919e-06
0.00056270339
3.2338473e-06
0.00056090817
3.1914808e-06
0.00055913548
3.1563653e-06
0.00055738539
3.1186774e-06
0.00055565775
3.0802153e-06
0.00055394849
3.0515921e-06
0.00055225847
3.0199554e-06
0.00055058876
2.9862453e-06
0.00054893863
2.9547214e-06
0.00054730835
2.9211518e-06
0.00054569538
2.8928449e-06
0.00054409945
2.8643874e-06
0.00054252052
2.8360199e-06
0.00054095758
2.8104771e-06
0.00053941078
2.7829642e-06
0.00053787907
2.7592328e-06
0.00053635567
2.7435454e-06
0.00053485306
2.7170858e-06
0.00053335213
2.6856583e-06
0.00053183232
2.8431519e-06
0.00053016541
2.6948084e-06
2.9198945e-06
0.00085292511
7.6014066e-06
-0.00085247994
0.00085335272
9.6345824e-06
0.0008537136
1.0558149e-05
0.00085400222
1.1018175e-05
0.00085429148
1.1494388e-05
0.00085452156
1.1879626e-05
0.00085464891
1.2202905e-05
0.00085467441
1.2529965e-05
0.00085460101
1.2835496e-05
0.0008544178
1.3164353e-05
0.00085411679
1.349633e-05
0.00085369222
1.3835465e-05
0.00085313073
1.417761e-05
0.00085242118
1.4510087e-05
0.00085154894
1.4831629e-05
0.0008504954
1.5130942e-05
0.00084923078
1.5405211e-05
0.00084773915
1.5658978e-05
0.00084599519
1.5907855e-05
0.00084394462
1.6124928e-05
0.00084155341
1.626444e-05
0.00083880078
1.633857e-05
0.00083566759
1.6359968e-05
0.00083214473
1.6327134e-05
0.00082819349
1.6257942e-05
0.00082379678
1.6146946e-05
0.00081900849
1.5962919e-05
0.00081388081
1.5706944e-05
0.00080845857
1.5393671e-05
0.0008027911
1.5031712e-05
0.00079693543
1.4622138e-05
0.00079095938
1.4144952e-05
0.00078494031
1.3615255e-05
0.0007789421
1.3088214e-05
0.00077301571
1.2559004e-05
0.00076720715
1.2023797e-05
0.00076155919
1.1489701e-05
0.00075607092
1.1001119e-05
0.00075073183
1.0548363e-05
0.00074555861
1.0118713e-05
0.00074056277
9.7328108e-06
0.00073575753
9.373227e-06
0.00073114944
9.0406214e-06
0.00072673267
8.7386524e-06
0.00072249679
8.4588177e-06
0.00071842692
8.2120212e-06
0.00071450957
8.0291582e-06
0.00071073548
7.9063873e-06
0.00070709499
7.8036131e-06
0.00070358245
7.6901586e-06
0.00070018646
7.5805262e-06
0.00069689013
7.4906627e-06
0.00069367862
7.4142053e-06
0.00069054724
7.3255133e-06
0.0006874902
7.2249817e-06
0.00068448725
7.1483035e-06
0.00068152578
7.0930067e-06
0.00067860792
7.0343925e-06
0.00067573917
6.9578135e-06
0.00067292185
6.8731419e-06
0.00067015351
6.7936651e-06
0.00066743419
6.7053936e-06
0.00066476529
6.6037832e-06
0.00066214547
6.5010145e-06
0.00065957055
6.407568e-06
0.00065703686
6.3127772e-06
0.00065454012
6.2222859e-06
0.00065207687
6.1474329e-06
0.00064964719
6.0764199e-06
0.00064725453
5.9960791e-06
0.00064490034
5.9129077e-06
0.00064258185
5.8389367e-06
0.00064030133
5.7534392e-06
0.00063805905
5.663516e-06
0.00063584764
5.5941072e-06
0.00063366538
5.5253749e-06
0.00063151375
5.4530025e-06
0.0006293903
5.3932419e-06
0.00062729622
5.3279231e-06
0.00062523399
5.2537098e-06
0.00062320064
5.1897214e-06
0.00062119475
5.1245618e-06
0.00061921568
5.0592868e-06
0.00061726022
5.0070545e-06
0.00061532909
4.9510903e-06
0.00061342339
4.8919376e-06
0.00061154236
4.8357503e-06
0.00060968535
4.7781673e-06
0.00060784965
4.7285427e-06
0.00060603492
4.6791175e-06
0.00060424128
4.6296612e-06
0.00060246792
4.5838362e-06
0.00060071423
4.5366565e-06
0.00059897937
4.4940929e-06
0.00059725495
4.4679676e-06
0.00059555764
4.4143876e-06
0.00059385417
4.3891366e-06
0.00059217259
4.5247224e-06
0.00059019869
4.6687082e-06
4.5208746e-06
0.00088145779
7.2578364e-06
-0.00088111422
0.00088188843
9.2039364e-06
0.00088224928
1.0197307e-05
0.00088254117
1.0726285e-05
0.00088281033
1.1225222e-05
0.00088302584
1.166412e-05
0.00088320839
1.2020351e-05
0.00088336913
1.2369225e-05
0.00088350561
1.2699016e-05
0.00088363939
1.3030574e-05
0.00088376874
1.3366983e-05
0.00088387978
1.3724424e-05
0.00088397153
1.4085857e-05
0.00088404399
1.4437632e-05
0.00088409407
1.4781548e-05
0.000884117
1.5108013e-05
0.00088410754
1.5414667e-05
0.00088405692
1.5709603e-05
0.00088395941
1.6005358e-05
0.00088380184
1.6282505e-05
0.00088356076
1.6505514e-05
0.00088321646
1.668287e-05
0.00088274608
1.6830344e-05
0.00088212177
1.6951444e-05
0.00088130568
1.7074037e-05
0.00088024575
1.7206871e-05
0.00087889202
1.7316655e-05
0.00087720336
1.7395604e-05
0.00087513988
1.745715e-05
0.0008726605
1.7511089e-05
0.00086973188
1.755076e-05
0.00086628832
1.7588511e-05
0.00086228496
1.7618618e-05
0.00085776951
1.7603662e-05
0.00085281027
1.7518239e-05
0.00084747025
1.7363825e-05
0.00084182475
1.7135193e-05
0.00083597401
1.6851865e-05
0.00083002743
1.6494938e-05
0.00082406227
1.6083875e-05
0.00081813748
1.5657599e-05
0.00081231307
1.5197638e-05
0.00080661316
1.4740532e-05
0.00080102738
1.4324436e-05
0.00079557134
1.3914857e-05
0.00079027123
1.3512131e-05
0.00078515741
1.314298e-05
0.0007802606
1.2803193e-05
0.00077557904
1.2485169e-05
0.00077109265
1.217655e-05
0.00076677612
1.189706e-05
0.00076260709
1.1659696e-05
0.00075857225
1.1449047e-05
0.00075466961
1.1228151e-05
0.0007508973
1.0997287e-05
0.00074724252
1.0803087e-05
0.00074368805
1.0647477e-05
0.00074022043
1.050201e-05
0.00073683561
1.0342636e-05
0.00073353153
1.0177223e-05
0.00073030218
1.0023014e-05
0.00072714337
9.8642028e-06
0.00072405234
9.6948128e-06
0.0007210252
9.5281561e-06
0.00071805588
9.376885e-06
0.00071513475
9.2339054e-06
0.00071225723
9.0998048e-06
0.00070942598
8.9786862e-06
0.0007066423
8.8600977e-06
0.00070390882
8.729559e-06
0.00070122588
8.5958545e-06
0.00069858953
8.475279e-06
0.00069600089
8.3420823e-06
0.00069345769
8.2067176e-06
0.00069095064
8.1011585e-06
0.00068847903
7.9969862e-06
0.00068604582
7.8862087e-06
0.00068364925
7.7898154e-06
0.00068129004
7.6871285e-06
0.00067897015
7.5736048e-06
0.00067668557
7.4742977e-06
0.00067443325
7.3768841e-06
0.0006722125
7.280032e-06
0.00067002113
7.1984247e-06
0.00066786002
7.1122029e-06
0.00066573022
7.0217371e-06
0.00066363045
6.9355171e-06
0.00066155898
6.8496379e-06
0.00065951294
6.774583e-06
0.00065749224
6.6998212e-06
0.00065549723
6.6246731e-06
0.00065352711
6.5539558e-06
0.00065158052
6.4832406e-06
0.00064965638
6.4182336e-06
0.0006477457
6.3786499e-06
0.00064586707
6.2930149e-06
0.00064398014
6.276069e-06
0.00064213785
6.3670136e-06
0.00063992459
6.8819706e-06
6.2249827e-06
0.00091100146
6.9705351e-06
-0.00091071416
0.00091140238
8.8030161e-06
0.00091174584
9.8538415e-06
0.00091202485
1.0447272e-05
0.00091227852
1.0971552e-05
0.00091249538
1.1447267e-05
0.00091267893
1.1836794e-05
0.00091284629
1.2201874e-05
0.00091299639
1.2548913e-05
0.00091313569
1.289127e-05
0.00091326367
1.3239005e-05
0.0009133878
1.3600297e-05
0.00091350773
1.3965928e-05
0.00091362206
1.4323299e-05
0.00091373217
1.4671443e-05
0.00091383738
1.5002795e-05
0.00091393556
1.5316486e-05
0.00091403131
1.5613853e-05
0.00091413056
1.5906116e-05
0.00091422538
1.6187678e-05
0.00091430474
1.642616e-05
0.00091436606
1.6621551e-05
0.00091440748
1.6788925e-05
0.00091442529
1.6933633e-05
0.00091442013
1.7079191e-05
0.0009143867
1.7240308e-05
0.00091431073
1.739262e-05
0.00091417799
1.7528344e-05
0.00091397091
1.7664231e-05
0.00091366622
1.7815779e-05
0.0009132334
1.7983575e-05
0.00091262819
1.8193721e-05
0.00091178773
1.8459082e-05
0.00091064275
1.8748643e-05
0.00090912707
1.9033921e-05
0.00090717593
1.9314964e-05
0.00090472121
1.9589916e-05
0.00090173522
1.9837855e-05
0.00089814514
2.0085011e-05
0.00089392369
2.0305329e-05
0.00088917173
2.0409553e-05
0.00088397245
2.0396925e-05
0.00087842752
2.0285455e-05
0.00087265782
2.0094144e-05
0.00086677241
1.9800263e-05
0.00086085263
1.9431915e-05
0.00085496799
1.9027614e-05
0.00084918528
1.8585906e-05
0.00084351018
1.8160266e-05
0.0008379357
1.7751034e-05
0.00083249776
1.7335003e-05
0.00082722326
1.6934192e-05
0.00082213168
1.6540625e-05
0.00081723182
1.6128011e-05
0.00081251671
1.5712399e-05
0.00080797521
1.5344591e-05
0.00080359212
1.5030559e-05
0.00079935146
1.4742671e-05
0.00079524911
1.4444994e-05
0.0007912787
1.4147631e-05
0.00078742403
1.3877682e-05
0.00078367143
1.3616802e-05
0.00078001294
1.3353299e-05
0.0007764444
1.3096705e-05
0.00077296142
1.2859858e-05
0.00076956185
1.2633481e-05
0.00076624137
1.2420286e-05
0.00076299195
1.2228105e-05
0.00075980943
1.2042612e-05
0.0007566941
1.1844892e-05
0.00075364435
1.16456e-05
0.00075065422
1.1465416e-05
0.00074772333
1.1272969e-05
0.00074484508
1.1084967e-05
0.00074200861
1.0937629e-05
0.0007392174
1.07882e-05
0.00073647602
1.0627582e-05
0.00073378225
1.0483591e-05
0.00073113585
1.0333525e-05
0.00072853796
1.0171496e-05
0.00072598242
1.0029835e-05
0.00072346426
9.8950458e-06
0.00072098389
9.7604017e-06
0.00071854046
9.6418541e-06
0.00071613488
9.5177903e-06
0.00071376786
9.3887516e-06
0.00071143707
9.2663082e-06
0.00070913935
9.1473574e-06
0.00070687193
9.0420014e-06
0.00070463536
8.9363912e-06
0.00070243022
8.8298161e-06
0.00070025545
8.7287219e-06
0.00069810871
8.6299812e-06
0.00069598845
8.5384968e-06
0.00069388559
8.4815067e-06
0.00069182002
8.3585901e-06
0.00068974637
8.3497206e-06
0.00068773544
8.3779411e-06
0.00068529181
9.3255949e-06
8.0510818e-06
0.0009415355
6.7322037e-06
-0.00094129717
0.00094189618
8.4423344e-06
0.00094222437
9.5256518e-06
0.00094249794
1.0173696e-05
0.00094274803
1.0721467e-05
0.00094297041
1.1224892e-05
0.00094315986
1.1647342e-05
0.00094333114
1.2030588e-05
0.00094348487
1.2395183e-05
0.00094362533
1.275081e-05
0.0009437545
1.3109834e-05
0.00094387907
1.3475729e-05
0.00094399989
1.3845111e-05
0.00094411631
1.4206881e-05
0.00094422972
1.4558025e-05
0.00094433939
1.4893127e-05
0.00094444468
1.5211195e-05
0.0009445452
1.551334e-05
0.00094464351
1.5807805e-05
0.00094474072
1.6090462e-05
0.00094483188
1.6335e-05
0.00094491484
1.6538596e-05
0.00094498929
1.6714472e-05
0.00094505397
1.686895e-05
0.00094511078
1.7022385e-05
0.00094516571
1.7185379e-05
0.0009452181
1.7340225e-05
0.00094525992
1.7486527e-05
0.00094528808
1.7636071e-05
0.00094530382
1.7800038e-05
0.00094530509
1.798231e-05
0.00094529204
1.8206774e-05
0.0009452609
1.8490214e-05
0.00094519882
1.8810728e-05
0.00094508742
1.914532e-05
0.00094490297
1.9499413e-05
0.00094461143
1.9881451e-05
0.00094416618
2.0283113e-05
0.00094349951
2.0751674e-05
0.00094252146
2.1283381e-05
0.00094114214
2.1788874e-05
0.00093927741
2.2261657e-05
0.00093686696
2.2695902e-05
0.00093387123
2.3089876e-05
0.00093021567
2.3455818e-05
0.00092590915
2.3738434e-05
0.00092106476
2.3872005e-05
0.00091578888
2.3861784e-05
0.00091021488
2.3734273e-05
0.00090447049
2.3495422e-05
0.00089864467
2.3160818e-05
0.00089281254
2.2766325e-05
0.00088704681
2.2306356e-05
0.00088136292
2.1811901e-05
0.00087574321
2.1332113e-05
0.00087021815
2.0869648e-05
0.0008648317
2.0417012e-05
0.00085961949
1.995488e-05
0.00085459675
1.9467729e-05
0.00084974757
1.8996814e-05
0.00084504634
1.8578913e-05
0.00084047954
1.8183603e-05
0.0008360463
1.7786535e-05
0.00083174893
1.739408e-05
0.00082758137
1.7027416e-05
0.00082354207
1.6672782e-05
0.00081962534
1.6337017e-05
0.00081581626
1.6037185e-05
0.00081210782
1.5751049e-05
0.0008084959
1.5456812e-05
0.00080497301
1.5168494e-05
0.00080152914
1.4909279e-05
0.00079816247
1.463964e-05
0.00079487246
1.4374984e-05
0.00079165263
1.4157454e-05
0.00078849977
1.3941064e-05
0.00078541249
1.3714859e-05
0.00078238612
1.3509963e-05
0.00077941915
1.3300493e-05
0.00077651154
1.3079108e-05
0.00077365346
1.2887914e-05
0.00077083855
1.2709952e-05
0.00076807052
1.2528436e-05
0.00076534966
1.2362714e-05
0.00076267611
1.219134e-05
0.00076004989
1.2014972e-05
0.00075746682
1.1849372e-05
0.00075492213
1.1692051e-05
0.00075241391
1.1550222e-05
0.0007499437
1.1406602e-05
0.00074751203
1.1261486e-05
0.0007451172
1.1123549e-05
0.00074275549
1.0991695e-05
0.0007404249
1.0869084e-05
0.00073811681
1.0789601e-05
0.00073585198
1.0623415e-05
0.00073358089
1.0620814e-05
0.00073138848
1.0570352e-05
0.00072870964
1.2004436e-05
1.0013704e-05
0.00097309046
6.5336139e-06
-0.00097289187
0.00097341344
8.119348e-06
0.0009737276
9.2114962e-06
0.0009739962
9.9050896e-06
0.00097424122
1.0476452e-05
0.00097446322
1.1002895e-05
0.00097465571
1.1454847e-05
0.00097482868
1.1857621e-05
0.00097498591
1.2237953e-05
0.00097512955
1.2607167e-05
0.00097526333
1.297606e-05
0.0009753914
1.3347654e-05
0.0009755158
1.3720711e-05
0.00097563575
1.4086936e-05
0.00097575227
1.4441498e-05
0.00097586458
1.4780824e-05
0.00097597208
1.5103696e-05
0.00097607456
1.5410855e-05
0.00097617413
1.5708236e-05
0.00097627201
1.5992586e-05
0.00097636441
1.6242596e-05
0.00097644936
1.6453644e-05
0.00097652664
1.6637192e-05
0.000976595
1.6800588e-05
0.00097665672
1.6960668e-05
0.00097671437
1.7127728e-05
0.00097676613
1.7288468e-05
0.00097681124
1.7441418e-05
0.00097684989
1.7597423e-05
0.00097688255
1.7767371e-05
0.0009769089
1.7955966e-05
0.00097693141
1.8184262e-05
0.0009769554
1.8466226e-05
0.00097698144
1.8784681e-05
0.0009770044
1.9122367e-05
0.00097702187
1.9481936e-05
0.00097703235
1.9870978e-05
0.00097703062
2.0284838e-05
0.00097701658
2.076572e-05
0.00097698082
2.1319138e-05
0.0009768966
2.1873098e-05
0.00097673413
2.2424121e-05
0.00097645009
2.2979946e-05
0.00097598258
2.3557384e-05
0.00097524285
2.419555e-05
0.00097412375
2.4857533e-05
0.0009725232
2.5472555e-05
0.00097035179
2.6033196e-05
0.00096755753
2.6528526e-05
0.00096407605
2.6976905e-05
0.00095991714
2.731973e-05
0.0009552023
2.7481165e-05
0.00095004737
2.7461289e-05
0.00094459054
2.7268728e-05
0.00093895038
2.6972276e-05
0.00093320798
2.6612049e-05
0.0009274356
2.6189388e-05
0.00092171086
2.5679617e-05
0.00091604521
2.5133383e-05
0.0009104144
2.4627627e-05
0.00090485258
2.4140732e-05
0.00089940879
2.3627387e-05
0.0008941212
2.3074128e-05
0.00088899673
2.2518548e-05
0.00088401588
2.2008262e-05
0.0008791716
2.1517069e-05
0.00087446937
2.1039246e-05
0.00086991479
2.0591762e-05
0.0008655063
2.0159537e-05
0.00086123201
1.97311e-05
0.00085707696
1.932355e-05
0.00085303055
1.8955685e-05
0.00084909291
1.8577278e-05
0.00084526794
1.8199955e-05
0.00084155075
1.7874643e-05
0.00083793104
1.7560773e-05
0.00083440213
1.7243775e-05
0.00083095607
1.6956024e-05
0.00082758821
1.6668355e-05
0.00082429533
1.6371986e-05
0.00082107149
1.6111752e-05
0.00081791446
1.5866982e-05
0.00081482278
1.5620112e-05
0.0008117916
1.53939e-05
0.00080881894
1.5163996e-05
0.00080590387
1.4930038e-05
0.00080303941
1.4713838e-05
0.00080021936
1.4512098e-05
0.00079744421
1.4325369e-05
0.00079471647
1.4134347e-05
0.00079203591
1.3942048e-05
0.00078939966
1.3759798e-05
0.00078680217
1.3589185e-05
0.00078424138
1.3429875e-05
0.00078170972
1.3321258e-05
0.00077922838
1.3104751e-05
0.00077674389
1.3105313e-05
0.00077435303
1.2961207e-05
0.00077142614
1.4931326e-05
1.2127067e-05
0.0010057006
6.3655624e-06
-0.0010055325
0.0010059892
7.8307263e-06
0.0010062871
8.9135379e-06
0.001006549
9.643249e-06
0.0010067881
1.0237304e-05
0.0010070086
1.0782408e-05
0.0010072042
1.1259307e-05
0.0010073803
1.1681469e-05
0.0010075415
1.2076793e-05
0.0010076895
1.2459081e-05
0.0010078281
1.283748e-05
0.00100796
1.3215804e-05
0.0010080876
1.3593084e-05
0.0010082108
1.3963716e-05
0.0010083302
1.4322102e-05
0.0010084452
1.4665817e-05
0.0010085555
1.4993469e-05
0.0010086608
1.5305551e-05
0.0010087628
1.5606218e-05
0.0010088626
1.5892792e-05
0.0010089571
1.6148104e-05
0.0010090441
1.636661e-05
0.0010091233
1.6557969e-05
0.0010091938
1.6730131e-05
0.0010092572
1.6897236e-05
0.001009316
1.7068984e-05
0.0010093688
1.7235651e-05
0.001009415
1.7395177e-05
0.0010094551
1.7557337e-05
0.0010094896
1.773284e-05
0.0010095183
1.7927277e-05
0.0010095438
1.8158776e-05
0.0010095695
1.8440533e-05
0.0010095954
1.8758728e-05
0.0010096205
1.9097358e-05
0.0010096444
1.9458014e-05
0.0010096673
1.9848067e-05
0.0010096873
2.026481e-05
0.0010097092
2.0743872e-05
0.0010097372
2.1291068e-05
0.0010097685
2.1841854e-05
0.0010097984
2.2394217e-05
0.0010098186
2.2959773e-05
0.001009825
2.3550924e-05
0.0010098141
2.4206429e-05
0.0010097672
2.4904468e-05
0.0010096491
2.559066e-05
0.0010094142
2.6268124e-05
0.0010089937
2.6948992e-05
0.0010082889
2.7681755e-05
0.0010071815
2.8427081e-05
0.0010055592
2.9103457e-05
0.0010033293
2.9691201e-05
0.0010003937
3.0204308e-05
0.00099672561
3.0640386e-05
0.00099242178
3.091588e-05
0.00098760578
3.1005381e-05
0.0009824042
3.0881199e-05
0.00097694559
3.0591992e-05
0.00097132622
3.0247002e-05
0.00096561413
2.9852821e-05
0.00095988067
2.9360847e-05
0.00095418247
2.8772323e-05
0.00094850236
2.8198664e-05
0.00094282839
2.7682232e-05
0.00093722072
2.7124735e-05
0.00093173938
2.6520593e-05
0.00092640907
2.5922069e-05
0.00092122105
2.5347553e-05
0.00091616793
2.4784228e-05
0.00091125
2.4241481e-05
0.00090647309
2.3732588e-05
0.00090184211
2.3208258e-05
0.0008973507
2.2691363e-05
0.00089298838
2.2236963e-05
0.00088875333
2.1795832e-05
0.00088464496
2.1352143e-05
0.00088065207
2.0948911e-05
0.00087676467
2.0555756e-05
0.00087297649
2.0160164e-05
0.00086928647
1.9801774e-05
0.0008656964
1.9457055e-05
0.00086219831
1.91182e-05
0.00085878099
1.8811214e-05
0.00085543979
1.8505196e-05
0.00085217131
1.8198525e-05
0.00084897076
1.7914383e-05
0.00084583514
1.7647716e-05
0.00084276095
1.7399563e-05
0.00083974614
1.7149152e-05
0.00083678859
1.68996e-05
0.00083388376
1.6664629e-05
0.00083102389
1.6449052e-05
0.00082820778
1.6245985e-05
0.00082542959
1.6099454e-05
0.00082271006
1.5824278e-05
0.00081999158
1.5823795e-05
0.00081738123
1.5571551e-05
0.00081418782
1.8124736e-05
1.4406112e-05
0.0010393998
6.2209301e-06
-0.0010392552
0.0010396573
7.5732152e-06
0.0010399375
8.6333474e-06
0.0010401918
9.3889415e-06
0.0010404257
1.0003455e-05
0.0010406443
1.0563754e-05
0.0010408422
1.1061477e-05
0.0010410212
1.1502467e-05
0.0010411855
1.1912469e-05
0.0010413373
1.230726e-05
0.0010414795
1.2695266e-05
0.0010416149
1.3080417e-05
0.0010417455
1.3462479e-05
0.001041872
1.3837224e-05
0.0010419944
1.4199729e-05
0.0010421124
1.4547805e-05
0.0010422257
1.4880152e-05
0.0010423342
1.5197048e-05
0.0010424391
1.5501285e-05
0.0010425414
1.5790547e-05
0.0010426384
1.6051056e-05
0.0010427281
1.6276969e-05
0.0010428098
1.6476214e-05
0.001042883
1.6656961e-05
0.0010429489
1.6831291e-05
0.0010430098
1.7008173e-05
0.0010430646
1.7180812e-05
0.0010431128
1.7347012e-05
0.0010431546
1.7515492e-05
0.0010431907
1.7696709e-05
0.0010432211
1.7896952e-05
0.0010432479
1.8131939e-05
0.0010432745
1.8413969e-05
0.0010433011
1.8732099e-05
0.0010433268
1.9071652e-05
0.0010433516
1.9433236e-05
0.0010433757
1.9823977e-05
0.0010433975
2.0242959e-05
0.0010434216
2.0719834e-05
0.0010434515
2.1261088e-05
0.0010434826
2.1810749e-05
0.0010435141
2.2362757e-05
0.0010435448
2.2929057e-05
0.0010435743
2.3521491e-05
0.0010436067
2.4173976e-05
0.0010436432
2.486798e-05
0.0010436828
2.5551049e-05
0.0010437182
2.6232724e-05
0.0010437365
2.6930675e-05
0.0010437337
2.7684606e-05
0.0010436896
2.8471167e-05
0.0010435624
2.9230613e-05
0.0010432952
2.99584e-05
0.001042797
3.070256e-05
0.0010419462
3.1491206e-05
0.001040617
3.2245004e-05
0.0010387043
3.2918114e-05
0.0010360783
3.3507215e-05
0.0010326606
3.4009693e-05
0.001028548
3.4359586e-05
0.0010238961
3.4504683e-05
0.0010188358
3.4421175e-05
0.001013486
3.4122176e-05
0.0010079404
3.374422e-05
0.0010022675
3.3355139e-05
0.00099653053
3.2861695e-05
0.00099080177
3.2249351e-05
0.00098506897
3.1654878e-05
0.00097930681
3.1109706e-05
0.00097358121
3.050983e-05
0.00096796021
2.9862481e-05
0.00096247229
2.9220508e-05
0.00095711416
2.8566387e-05
0.00095188231
2.7923213e-05
0.00094678154
2.7337735e-05
0.0009418298
2.6747567e-05
0.0009370334
2.614855e-05
0.00093237738
2.5604923e-05
0.0009278526
2.508054e-05
0.00092345807
2.4554699e-05
0.00091919105
2.4068791e-05
0.00091504918
2.3598925e-05
0.00091102628
2.3141098e-05
0.00090711285
2.272465e-05
0.00090330273
2.2315316e-05
0.00089958824
2.1913009e-05
0.00089596648
2.1536142e-05
0.00089243853
2.1175665e-05
0.00088899613
2.0841968e-05
0.000885631
2.0514282e-05
0.00088233794
2.019266e-05
0.00087911223
1.9890342e-05
0.00087594967
1.9611607e-05
0.00087284796
1.9347692e-05
0.00086979574
1.915168e-05
0.00086681178
1.8808234e-05
0.00086383399
1.8801587e-05
0.00086097875
1.8426792e-05
0.00085749587
2.1607612e-05
1.6866767e-05
0.0010742237
6.0945043e-06
-0.0010740973
0.0010744537
7.3432798e-06
0.0010747156
8.3714288e-06
0.0010749617
9.142833e-06
0.0010751904
9.774784e-06
0.0010754064
1.0347665e-05
0.0010756053
1.0862573e-05
0.0010757867
1.1321153e-05
0.0010759538
1.1745334e-05
0.0010761091
1.2151958e-05
0.001076255
1.2549356e-05
0.001076394
1.2941397e-05
0.0010765281
1.3328441e-05
0.0010766579
1.3707409e-05
0.0010767834
1.4074214e-05
0.0010769045
1.4426715e-05
0.0010770209
1.4763764e-05
0.0010771325
1.5085445e-05
0.0010772402
1.5393516e-05
0.0010773449
1.5685904e-05
0.0010774444
1.5951579e-05
0.0010775365
1.6184814e-05
0.0010776208
1.6391974e-05
0.0010776966
1.6581134e-05
0.0010777651
1.6762798e-05
0.0010778281
1.6945172e-05
0.0010778851
1.7123826e-05
0.0010779353
1.7296745e-05
0.0010779792
1.7471657e-05
0.0010780172
1.7658692e-05
0.0010780495
1.7864652e-05
0.0010780781
1.8103283e-05
0.0010781062
1.8385943e-05
0.0010781341
1.8704163e-05
0.0010781611
1.9044674e-05
0.001078187
1.9407292e-05
0.0010782122
1.9798811e-05
0.0010782354
2.0219787e-05
0.0010782603
2.0694864e-05
0.0010782907
2.1230765e-05
0.0010783222
2.1779168e-05
0.0010783542
2.2330815e-05
0.0010783859
2.2897341e-05
0.001078417
2.3490387e-05
0.0010784517
2.4139269e-05
0.0010784909
2.4828823e-05
0.0010785305
2.5511412e-05
0.0010785697
2.6193505e-05
0.0010786077
2.6892732e-05
0.0010786486
2.7643694e-05
0.0010786909
2.8428842e-05
0.0010787368
2.9184738e-05
0.0010787773
2.9917833e-05
0.0010787946
3.0685341e-05
0.001078779
3.150673e-05
0.0010786975
3.232651e-05
0.001078496
3.3119651e-05
0.0010780859
3.3917265e-05
0.0010773384
3.475721e-05
0.0010761141
3.5583907e-05
0.001074297
3.6321754e-05
0.0010717512
3.696705e-05
0.0010683607
3.751268e-05
0.0010642253
3.7879543e-05
0.0010595566
3.802387e-05
0.0010544972
3.792108e-05
0.0010491525
3.7594023e-05
0.0010436045
3.7202948e-05
0.0010379175
3.6796642e-05
0.0010321499
3.6277516e-05
0.0010263699
3.5642421e-05
0.0010205647
3.5025691e-05
0.0010147137
3.4417376e-05
0.0010088856
3.375131e-05
0.0010031464
3.3076939e-05
0.00099752881
3.2365196e-05
0.00099203246
3.1644902e-05
0.00098665801
3.097937e-05
0.00098142219
3.0316366e-05
0.00097633967
2.9637219e-05
0.0009714049
2.9003557e-05
0.00096661093
2.8392899e-05
0.00096195896
2.7793064e-05
0.00095744708
2.7236525e-05
0.00095306837
2.6694028e-05
0.00094881222
2.616916e-05
0.00094467404
2.5674322e-05
0.00094065458
2.5195126e-05
0.00093674616
2.4750392e-05
0.00093293968
2.4320754e-05
0.00092922794
2.3904402e-05
0.00092560522
2.3513061e-05
0.00092207087
2.3145959e-05
0.00091862142
2.2797148e-05
0.0009152389
2.2534193e-05
0.00091193811
2.2109032e-05
0.00090865559
2.2084103e-05
0.00090552063
2.1561748e-05
0.00090172181
2.5406439e-05
1.9525921e-05
0.0011102093
5.9824348e-06
-0.0011100972
0.0011104152
7.1373898e-06
0.001110659
8.1276373e-06
0.0011108961
8.905699e-06
0.0011111194
9.5514613e-06
0.0011113324
1.0134682e-05
0.0011115315
1.0663493e-05
0.0011117148
1.1137896e-05
0.0011118845
1.1575574e-05
0.0011120431
1.1993393e-05
0.0011121926
1.2399891e-05
0.0011123351
1.2798858e-05
0.0011124725
1.3191081e-05
0.0011126054
1.3574452e-05
0.001112734
1.3945648e-05
0.0011128581
1.4302626e-05
0.0011129775
1.4644366e-05
0.0011130921
1.4970788e-05
0.0011132027
1.5282889e-05
0.0011133099
1.5578768e-05
0.0011134119
1.5849607e-05
0.0011135066
1.6090055e-05
0.0011135935
1.6305129e-05
0.001113672
1.6502569e-05
0.0011137432
1.6691654e-05
0.0011138085
1.6879848e-05
0.0011138677
1.7064601e-05
0.0011139202
1.7244284e-05
0.0011139661
1.7425738e-05
0.0011140061
1.7618691e-05
0.0011140404
1.7830303e-05
0.001114071
1.8072707e-05
0.0011141006
1.8356324e-05
0.00111413
1.8674793e-05
0.0011141584
1.9016293e-05
0.0011141857
1.9380023e-05
0.0011142121
1.9772375e-05
0.0011142368
2.0195076e-05
0.0011142631
2.0668588e-05
0.0011142943
2.1199541e-05
0.001114327
2.1746447e-05
0.00111436
2.2297793e-05
0.0011143929
2.2864496e-05
0.0011144252
2.3458039e-05
0.0011144608
2.4103723e-05
0.0011145004
2.4789222e-05
0.0011145404
2.5471357e-05
0.0011145804
2.6153573e-05
0.0011146199
2.6853176e-05
0.0011146627
2.7600903e-05
0.0011147099
2.8381693e-05
0.0011147567
2.9137896e-05
0.0011148008
2.9873712e-05
0.0011148448
3.0641375e-05
0.0011148902
3.1461316e-05
0.0011149378
3.2278878e-05
0.0011149843
3.3073147e-05
0.0011150128
3.3888787e-05
0.0011150079
3.4762172e-05
0.0011149402
3.5651595e-05
0.001114752
3.6509946e-05
0.0011143483
3.7370783e-05
0.0011135848
3.8276088e-05
0.0011123054