/*--------------------------------*- C++ -*----------------------------------*\
  =========                 |
  \\      /  F ield         | OpenFOAM: The Open Source CFD Toolbox
   \\    /   O peration     | Website:  https://openfoam.org
    \\  /    A nd           | Version:  12
     \\/     M anipulation  |
\*---------------------------------------------------------------------------*/
FoamFile
{
    format      ascii;
    class       volScalarField;
    location    "700";
    object      yPlus;
}
// * * * * * * * * * * * * * * * * * * * * * * * * * * * * * * * * * * * * * //

dimensions      [];

internalField   uniform 0;

boundaryField
{
    inlet
    {
        type            calculated;
        value           uniform 0;
    }
    top
    {
        type            calculated;
        value           uniform 0;
    }
    outlet
    {
        type            calculated;
        value           uniform 0;
    }
    slipsurface
    {
        type            calculated;
        value           uniform 0;
    }
    bottom
    {
        type            calculated;
        value           nonuniform List<scalar> 
100
(
115.85266
114.57383
113.22018
111.77505
110.3414
108.9564
107.62262
106.33901
105.09621
103.88454
102.68331
101.48338
100.28136
99.077726
97.874884
96.677222
95.492378
94.33614
93.196094
92.09062
91.026687
90.010261
89.047449
88.143549
87.303303
86.531153
85.828579
85.194271
84.625587
84.118846
83.669211
83.271465
82.921509
82.614829
82.345439
82.106739
81.89213
81.695542
81.513129
81.342039
81.178506
81.018641
80.859498
80.698996
80.536122
80.370145
80.199978
80.02328
79.838316
79.645002
79.444076
79.235906
79.020798
78.80006
78.575905
78.349994
78.122827
77.89453
77.665832
77.437582
77.209849
76.982734
76.757097
76.533766
76.3127
76.093947
75.878006
75.664636
75.453106
75.243348
75.035715
74.829958
74.626082
74.424785
74.225865
74.028813
73.833864
73.640755
73.449125
73.259451
73.07179
72.885928
72.702118
72.520054
72.339395
72.160389
71.983069
71.807472
71.633497
71.460951
71.289896
71.120188
70.951902
70.784831
70.619244
70.452854
70.293196
70.118933
69.966958
69.737091
)
;
    }
    frontandback
    {
        type            empty;
    }
}


// ************************************************************************* //
