#      distance             U_x             U_y             U_z wallShearStr... wallShearStr... wallShearStr...               p             nut         nuTilda
              0      0.99951099               0               0               0               0               0    0.0046992944   1.4776812e-06   2.0036633e-06
   0.0021021021      0.99949689               0               0               0               0               0    0.0047173276   1.4778364e-06   2.0037811e-06
   0.0042042042      0.99948279               0               0               0               0               0    0.0047353608   1.4779916e-06   2.0038988e-06
   0.0063063063      0.99946869               0               0               0               0               0     0.004753394   1.4781468e-06   2.0040165e-06
   0.0084084084      0.99945459               0               0               0               0               0    0.0047714272    1.478302e-06   2.0041342e-06
    0.010510511      0.99943849               0               0               0               0               0    0.0047918613   1.4784736e-06   2.0042644e-06
    0.012612613      0.99942113               0               0               0               0               0    0.0048137865   1.4786554e-06   2.0044023e-06
    0.014714715      0.99940378               0               0               0               0               0    0.0048357118   1.4788371e-06   2.0045401e-06
    0.016816817      0.99938643               0               0               0               0               0     0.004857637   1.4790189e-06    2.004678e-06
    0.018918919      0.99936908               0               0               0               0               0    0.0048795622   1.4792007e-06   2.0048159e-06
    0.021021021       0.9993512               0               0               0               0               0    0.0049020978   1.4793862e-06   2.0049567e-06
    0.023123123      0.99932981               0               0               0               0               0    0.0049287363   1.4795971e-06   2.0051167e-06
    0.025225225      0.99930842               0               0               0               0               0    0.0049553749    1.479808e-06   2.0052766e-06
    0.027327327      0.99928702               0               0               0               0               0    0.0049820135   1.4800189e-06   2.0054366e-06
    0.029429429      0.99926563               0               0               0               0               0     0.005008652   1.4802298e-06   2.0055966e-06
    0.031531532      0.99924294               0               0               0               0               0    0.0050367624   1.4804488e-06   2.0057628e-06
    0.033633634      0.99921648               0               0               0               0               0    0.0050691717   1.4806916e-06    2.005947e-06
    0.035735736      0.99919002               0               0               0               0               0     0.005101581   1.4809345e-06   2.0061313e-06
    0.037837838      0.99916355               0               0               0               0               0    0.0051339904   1.4811773e-06   2.0063155e-06
     0.03993994      0.99913709               0               0               0               0               0    0.0051663997   1.4814201e-06   2.0064998e-06
    0.042042042      0.99910474               0               0               0               0               0    0.0052053562   1.4816952e-06   2.0067085e-06
    0.044144144      0.99907183               0               0               0               0               0    0.0052449263   1.4819733e-06   2.0069194e-06
    0.046246246      0.99903893               0               0               0               0               0    0.0052844963   1.4822513e-06   2.0071304e-06
    0.048348348      0.99900572               0               0               0               0               0    0.0053243983   1.4825308e-06   2.0073425e-06
     0.05045045      0.99896452               0               0               0               0               0    0.0053730123   1.4828479e-06   2.0075831e-06
    0.052552553      0.99892333               0               0               0               0               0    0.0054216262    1.483165e-06   2.0078236e-06
    0.054654655      0.99888213               0               0               0               0               0    0.0054702402   1.4834821e-06   2.0080642e-06
    0.056756757      0.99883478               0               0               0               0               0    0.0055253728   1.4838235e-06   2.0083233e-06
    0.058858859      0.99878257               0               0               0               0               0    0.0055856447   1.4841842e-06    2.008597e-06
    0.060960961      0.99873035               0               0               0               0               0    0.0056459165   1.4845448e-06   2.0088706e-06
    0.063063063      0.99867193               0               0               0               0               0    0.0057127963   1.4849262e-06   2.0091601e-06
    0.065165165       0.9986051               0               0               0               0               0    0.0057886096   1.4853357e-06   2.0094708e-06
    0.067267267      0.99853827               0               0               0               0               0    0.0058644229   1.4857451e-06   2.0097815e-06
    0.069369369      0.99845866               0               0               0               0               0    0.0059526554   1.4861872e-06    2.010117e-06
    0.071471471      0.99836992               0               0               0               0               0    0.0060497426   1.4866526e-06   2.0104702e-06
    0.073573574      0.99828119               0               0               0               0               0    0.0061468298   1.4871179e-06   2.0108233e-06
    0.075675676      0.99816458               0               0               0               0               0    0.0062753593   1.4876482e-06   2.0112258e-06
    0.077777778      0.99804766               0               0               0               0               0    0.0064042459   1.4881791e-06   2.0116287e-06
     0.07987988      0.99789409               0               0               0               0               0    0.0065610318   1.4887497e-06   2.0120618e-06
    0.081981982      0.99771588               0               0               0               0               0    0.0067365749   1.4893469e-06   2.0125151e-06
    0.084084084      0.99751576               0               0               0               0               0    0.0069475217   1.4899983e-06   2.0130096e-06
    0.086186186      0.99727874               0               0               0               0               0    0.0072181056    1.490741e-06   2.0135733e-06
    0.088288288      0.99692052               0  -1.7951616e-22               0               0               0     0.007522998   1.4914527e-06   2.0141135e-06
     0.09039039      0.99624471               0  -8.2946409e-22               0               0               0     0.007917798   1.4920831e-06    2.014592e-06
    0.092492492      0.99560003               0   1.9837355e-17               0               0               0    0.0085463304   1.4927571e-06   2.0151034e-06
    0.094594595      0.99503744               0   9.1987754e-17               0               0               0    0.0097911825   1.4935458e-06   2.0157017e-06
    0.096696697       0.9070025               0   1.3987714e-16  -0.00050271048  -3.0978124e-06               0     0.010659322   1.3624943e-06   1.8384913e-06
    0.098798799      0.64630628               0   1.3987781e-16    -0.001997719  -1.2310383e-05               0     0.010783869   9.7120378e-07   1.3103053e-06
      0.1009009      0.38565607               0   1.0846745e-16   -0.0031752654  -1.7617818e-05  -2.0843339e-18    0.0098951369    5.797279e-07   7.8202153e-07
       0.103003      0.12506722               0   3.5175701e-17   -0.0039295288  -1.7718406e-05  -6.9477797e-18    0.0076553643   1.8800481e-07   2.5360747e-07
     0.10510511               0               0               0    -0.003868739  -1.3027365e-05  -9.3515766e-18    0.0058804343   7.8396815e-13               0
     0.10720721               0               0               0   -0.0030557706  -3.9143327e-06  -9.4854667e-18    0.0045344881   5.3949769e-13               0
     0.10930931               0               0               0   -0.0026655834  -1.7761063e-07  -6.8392146e-18    0.0040459285   4.2582402e-13               0
     0.11141141               0               0               0   -0.0025618372  -8.3424729e-08  -2.3093721e-18    0.0041382618   4.0076725e-13               0
     0.11351351               0               0               0   -0.0024989493    -3.92209e-08  -6.6538456e-19    0.0042667894   3.8581245e-13               0
     0.11561562               0               0               0   -0.0024574732  -2.1210228e-08  -5.3373222e-19    0.0044142845   3.7615158e-13               0
     0.11771772               0               0               0      -0.0024245  -1.4488787e-08   -3.190493e-19    0.0044707553   3.6854655e-13               0
     0.11981982               0               0               0   -0.0023951794  -1.2616766e-08  -6.8699631e-20    0.0044881255   3.6182463e-13               0
     0.12192192               0               0               0   -0.0023690764  -1.1493348e-08               0    0.0044697683   3.5588869e-13               0
     0.12402402               0               0               0   -0.0023441903  -1.0653051e-08               0    0.0044378991   3.5025002e-13               0
     0.12612613               0               0               0   -0.0023215611  -9.9762045e-09               0    0.0044034248   3.4515992e-13               0
     0.12822823               0               0               0   -0.0022997512  -9.3586844e-09               0    0.0043680048   3.4026894e-13               0
     0.13033033               0               0               0   -0.0022797386  -8.8284578e-09               0    0.0043338468   3.3581016e-13               0
     0.13243243               0               0               0   -0.0022604141  -8.3316477e-09               0    0.0043001719   3.3151682e-13               0
     0.13453453               0               0               0   -0.0022424956  -7.9004535e-09  -1.2588239e-19    0.0042666002   3.2755849e-13               0
     0.13663664               0               0               0    -0.002225199  -7.4982864e-09  -3.0745281e-19    0.0042330742   3.2374836e-13               0
     0.13873874               0               0               0   -0.0022089725  -7.1426259e-09  -3.7220729e-19    0.0041998525   3.2019131e-13               0
     0.14084084               0               0               0    -0.002193339  -6.8127454e-09  -3.7220732e-19    0.0041667994   3.1677453e-13               0
     0.14294294               0               0               0   -0.0021785049  -6.5133192e-09  -3.5531154e-19    0.0041344932   3.1354542e-13               0
     0.14504505               0               0               0   -0.0021642672   -6.236623e-09  -3.2580546e-19    0.0041027444   3.1045636e-13               0
     0.14714715               0               0               0   -0.0021506043  -5.9793669e-09  -2.4558003e-19    0.0040718588   3.0750126e-13               0
     0.14924925               0               0               0   -0.0021375633  -5.7431462e-09  -1.1047397e-19    0.0040419073   3.0469111e-13               0
     0.15135135               0               0               0   -0.0021249025  -5.5187418e-09  -1.6815997e-20    0.0040126335   3.0196893e-13               0
     0.15345345               0               0               0   -0.0021129014  -5.3148421e-09   4.9189436e-21    0.0039845357   2.9939943e-13               0
     0.15555556               0               0               0   -0.0021011079  -5.1169826e-09  -8.3859606e-21    0.0039568236   2.9687764e-13               0
     0.15765766               0               0               0   -0.0020900185  -4.9396103e-09  -1.4053934e-19    0.0039304196   2.9451766e-13               0
     0.15975976               0               0               0    -0.002078982  -4.7636831e-09  -2.4921907e-19     0.003904118   2.9216977e-13               0
     0.16186186               0               0               0   -0.0020686977  -4.6082914e-09   -2.433868e-20    0.0038792701   2.8999365e-13               0
     0.16396396               0               0               0   -0.0020584134  -4.4528998e-09   2.0054171e-19    0.0038544223   2.8781753e-13               0
     0.16606607               0               0               0   -0.0020487585  -4.3136541e-09   2.2778265e-19     0.003830848   2.8578427e-13               0
     0.16816817               0               0               0   -0.0020391905   -4.176634e-09   2.2778268e-19    0.0038074493    2.837707e-13               0
     0.17027027               0               0               0   -0.0020300494  -4.0499872e-09   1.3046361e-19    0.0037849533   2.8185349e-13               0
     0.17237237               0               0               0   -0.0020211225  -3.9285396e-09  -1.5630374e-20    0.0037629098   2.7998457e-13               0
     0.17447447               0               0               0   -0.0020124415  -3.8128004e-09  -9.9396692e-20    0.0037413893   2.7817082e-13               0
     0.17657658               0               0               0    -0.002004091  -3.7047334e-09  -9.9396704e-20    0.0037205717   2.7643123e-13               0
     0.17867868               0               0               0   -0.0019958235   -3.598505e-09  -1.0465545e-19    0.0036999351   2.7471015e-13               0
     0.18078078               0               0               0   -0.0019879935   -3.501977e-09  -1.3765736e-19    0.0036802528   2.7308668e-13               0
     0.18288288               0               0               0   -0.0019801635   -3.405449e-09  -1.7065927e-19    0.0036605705   2.7146321e-13               0
     0.18498498               0               0               0   -0.0019727407  -3.3175554e-09  -1.1394705e-19    0.0036417803   2.6993017e-13               0
     0.18708709               0               0               0   -0.0019653825  -3.2310292e-09   -4.302676e-20    0.0036231313   2.6841146e-13               0
     0.18918919               0               0               0   -0.0019582549  -3.1491742e-09   2.9723006e-20    0.0036049864   2.6694369e-13               0
     0.19129129               0               0               0   -0.0019513258  -3.0713404e-09   1.0404774e-19    0.0035872754   2.6551979e-13               0
     0.19339339               0               0               0   -0.0019444676  -2.9948676e-09    1.524876e-19    0.0035697274   2.6411145e-13               0
      0.1954955               0               0               0   -0.0019379306  -2.9245714e-09   8.3437744e-20    0.0035529186   2.6277377e-13               0
      0.1975976               0               0               0   -0.0019313937  -2.8542752e-09   1.4387892e-20    0.0035361099   2.6143609e-13               0
      0.1996997               0               0               0   -0.0019251415  -2.7892642e-09               0    0.0035199166   2.6016073e-13               0
      0.2018018               0               0               0   -0.0019189642  -2.7256443e-09               0    0.0035038854   2.5890177e-13               0
      0.2039039               0               0               0    -0.001912909   -2.664209e-09  -1.9843647e-20    0.0034881213    2.576694e-13               0
     0.20600601               0               0               0    -0.001907062   -2.606502e-09  -7.3552774e-20    0.0034728134   2.5648241e-13               0
     0.20810811               0               0               0   -0.0019012149   -2.548795e-09   -1.272619e-19    0.0034575054   2.5529542e-13               0
     0.21021021               0               0               0   -0.0018956458  -2.4957961e-09  -1.3194464e-19    0.0034428581   2.5416876e-13               0
     0.21231231               0               0               0   -0.0018901033  -2.4432468e-09  -1.3194466e-19    0.0034282739   2.5304785e-13               0
     0.21441441               0               0               0   -0.0018846792  -2.3926455e-09  -1.1001612e-19    0.0034139465   2.5195255e-13               0
     0.21651652               0               0               0   -0.0018794185  -2.3447298e-09  -5.7854209e-20    0.0033999733   2.5089255e-13               0
     0.21861862               0               0               0   -0.0018741578   -2.296814e-09  -5.6922996e-21    0.0033860001   2.4983256e-13               0
     0.22072072               0               0               0   -0.0018691295  -2.2526269e-09               0    0.0033725246   2.4882257e-13               0
     0.22282282               0               0               0   -0.0018641296  -2.2088965e-09               0      0.00335911   2.4781872e-13               0
     0.22492492               0               0               0   -0.0018592078  -2.1663526e-09               0    0.0033458803   2.4683162e-13               0
     0.22702703               0               0               0     -0.00185445  -2.1262972e-09               0    0.0033330384   2.4587967e-13               0
     0.22912913               0               0               0   -0.0018496921  -2.0862419e-09               0    0.0033201964   2.4492773e-13               0
     0.23123123               0               0               0   -0.0018450955  -2.0485369e-09  -2.7760945e-20    0.0033077208   2.4401024e-13               0
     0.23333333               0               0               0   -0.0018405633  -2.0117692e-09  -6.6592835e-20    0.0032953914    2.431065e-13               0
     0.23543544               0               0               0   -0.0018360449  -1.9751998e-09  -1.0049304e-19    0.0032830905    2.422057e-13               0
     0.23753754               0               0               0   -0.0018317231  -1.9414615e-09  -6.4017363e-20    0.0032711975   2.4134676e-13               0
     0.23963964               0               0               0   -0.0018274014  -1.9077232e-09  -2.7541682e-20    0.0032593046   2.4048783e-13               0
     0.24174174               0               0               0   -0.0018231528  -1.8749978e-09   9.3487184e-21     0.003247577   2.3964442e-13               0
     0.24384384               0               0               0   -0.0018190273  -1.8439751e-09   4.6936134e-20    0.0032361272   2.3882713e-13               0
     0.24594595               0               0               0   -0.0018149018  -1.8129523e-09    8.452355e-20    0.0032246775   2.3800983e-13               0
     0.24804805               0               0               0   -0.0018108933  -1.7834481e-09   7.5773121e-20    0.0032135128   2.3721727e-13               0
     0.25015015               0               0               0   -0.0018069517  -1.7548133e-09   4.0491139e-20    0.0032025112   2.3643886e-13               0
     0.25225225               0               0               0   -0.0018030101  -1.7261786e-09   5.2091576e-21    0.0031915097   2.3566046e-13               0
     0.25435435               0               0               0    -0.001799216  -1.6994172e-09               0    0.0031808236    2.349131e-13               0
     0.25645646               0               0               0   -0.0017954473  -1.6729802e-09               0    0.0031701923   2.3417113e-13               0
     0.25855856               0               0               0    -0.001791682  -1.6465856e-09   5.8760033e-22    0.0031595676   2.3342986e-13               0
     0.26066066               0               0               0   -0.0017880756  -1.6222031e-09   2.9118968e-20    0.0031492631   2.3272196e-13               0
     0.26276276               0               0               0   -0.0017844691  -1.5978206e-09   5.7650335e-20    0.0031389586   2.3201406e-13               0
     0.26486486               0               0               0   -0.0017808839  -1.5736925e-09    8.222356e-20    0.0031287034   2.3131059e-13               0
     0.26696697               0               0               0   -0.0017774298  -1.5511437e-09   8.2223579e-20    0.0031187548    2.306346e-13               0
     0.26906907               0               0               0   -0.0017739758  -1.5285948e-09   8.2223599e-20    0.0031088061   2.2995861e-13               0
     0.27117117               0               0               0   -0.0017705512  -1.5063779e-09   7.6588605e-20    0.0030989295   2.2928876e-13               0
     0.27327327               0               0               0    -0.001767241  -1.4854498e-09   4.9071593e-20    0.0030893326   2.2864279e-13               0
     0.27537538               0               0               0   -0.0017639308  -1.4645218e-09   2.1554581e-20    0.0030797356   2.2799682e-13               0
     0.27747748               0               0               0   -0.0017606501  -1.4439214e-09  -5.1599916e-21    0.0030702009   2.2735699e-13               0
     0.27957958               0               0               0    -0.001757476   -1.424506e-09  -2.8973695e-20    0.0030608909   2.2673934e-13               0
     0.28168168               0               0               0   -0.0017543019  -1.4050906e-09  -5.2787397e-20    0.0030515809   2.2612169e-13               0
     0.28378378               0               0               0     -0.00175115  -1.3859222e-09  -7.2499134e-20    0.0030423145   2.2550863e-13               0
     0.28588589               0               0               0   -0.0017481044  -1.3679407e-09  -7.2499154e-20    0.0030332574   2.2491764e-13               0
     0.28798799               0               0               0   -0.0017450589  -1.3499592e-09  -7.2499173e-20    0.0030242002   2.2432665e-13               0
     0.29009009               0               0               0   -0.0017420217  -1.3320668e-09  -7.0913254e-20    0.0030151626    2.237374e-13               0
     0.29219219               0               0               0   -0.0017390975  -1.3153729e-09  -4.7999787e-20    0.0030063882   2.2317151e-13               0
     0.29429429               0               0               0   -0.0017361732  -1.2986791e-09  -2.5086321e-20    0.0029976138   2.2260563e-13               0
      0.2963964               0               0               0    -0.001733249  -1.2819852e-09  -2.1728542e-21    0.0029888394   2.2203974e-13               0
      0.2984985               0               0               0    -0.001730429  -1.2663194e-09               0    0.0029803271   2.2149535e-13               0
      0.3006006               0               0               0   -0.0017276199  -1.2507614e-09               0    0.0029718423   2.2095322e-13               0
      0.3027027               0               0               0   -0.0017248109  -1.2352033e-09               0    0.0029633575   2.2041109e-13               0
      0.3048048               0               0               0   -0.0017220761   -1.220367e-09   1.2709914e-20    0.0029550296   2.1988423e-13               0
     0.30690691               0               0               0   -0.0017193767  -1.2058741e-09   3.1466989e-20    0.0029467765   2.1936464e-13               0
     0.30900901               0               0               0   -0.0017166772  -1.1913811e-09   5.0224063e-20    0.0029385233   2.1884505e-13               0
     0.31111111               0               0               0   -0.0017140178  -1.1772798e-09   5.8388714e-20    0.0029303475   2.1833365e-13               0
     0.31321321               0               0               0   -0.0017114224  -1.1638069e-09   4.9552165e-20    0.0029222956   2.1783541e-13               0
     0.31531532               0               0               0   -0.0017088271  -1.1503341e-09   4.0715616e-20    0.0029142437   2.1733717e-13               0
     0.31741742               0               0               0   -0.0017062338   -1.136881e-09    3.203793e-20    0.0029061965   2.1683935e-13               0
     0.31951952               0               0               0   -0.0017037372  -1.1243403e-09   3.0701097e-20    0.0028983655   2.1636131e-13               0
     0.32162162               0               0               0   -0.0017012407  -1.1117996e-09   2.9364264e-20    0.0028905346   2.1588328e-13               0
     0.32372372               0               0               0   -0.0016987441  -1.0992589e-09   2.8027431e-20    0.0028827036   2.1540524e-13               0
     0.32582583               0               0               0   -0.0016963027  -1.0872049e-09   3.2441435e-20    0.0028750093   2.1493845e-13               0
     0.32792793               0               0               0   -0.0016939002   -1.075494e-09   4.0908229e-20    0.0028674112   2.1447961e-13               0
     0.33003003               0               0               0   -0.0016914977  -1.0637831e-09   4.9375023e-20    0.0028598132   2.1402076e-13               0
     0.33213213               0               0               0   -0.0016891021   -1.052131e-09   5.5961491e-20     0.002852231   2.1356332e-13               0
     0.33423423               0               0               0   -0.0016867896  -1.0411825e-09   4.0021521e-20    0.0028448394   2.1312276e-13               0
     0.33633634               0               0               0    -0.001684477  -1.0302341e-09   2.4081551e-20    0.0028374478   2.1268221e-13               0
     0.33843844               0               0               0   -0.0016821644  -1.0192857e-09   8.1415809e-21    0.0028300562   2.1224165e-13               0
     0.34054054               0               0               0   -0.0016798939   -1.008694e-09  -1.0209666e-20    0.0028227486   2.1180962e-13               0
     0.34264264               0               0               0   -0.0016776673   -9.984749e-10  -3.1078305e-20    0.0028155287    2.113865e-13               0
     0.34474474               0               0               0   -0.0016754407  -9.8825579e-10  -5.1946943e-20    0.0028083088   2.1096338e-13               0
     0.34684685               0               0               0    -0.001673214  -9.7803667e-10  -7.2815582e-20    0.0028010889   2.1054025e-13               0
     0.34894895               0               0               0   -0.0016710546  -9.6838484e-10  -7.6577381e-20    0.0027940053   2.1013072e-13               0
     0.35105105               0               0               0   -0.0016689099  -9.5885775e-10   -7.657741e-20    0.0027869518   2.0972419e-13               0
     0.35315315               0               0               0   -0.0016667652  -9.4933067e-10   -7.657744e-20    0.0027798982   2.0931765e-13               0
     0.35525526               0               0               0   -0.0016646256  -9.3984415e-10  -7.4483605e-20    0.0027728568   2.0891213e-13               0
     0.35735736               0               0               0   -0.0016625591  -9.3094198e-10  -4.2230332e-20      0.00276599   2.0852138e-13               0
     0.35945946               0               0               0   -0.0016604927  -9.2203981e-10  -9.9770581e-21    0.0027591233   2.0813063e-13               0
     0.36156156               0               0               0   -0.0016584262  -9.1313764e-10   2.2276215e-20    0.0027522565   2.0773988e-13               0
     0.36366366               0               0               0   -0.0016563763  -9.0435873e-10   4.7403938e-20    0.0027454319   2.0735246e-13               0
     0.36576577               0               0               0   -0.0016543848  -8.9601446e-10   4.7403958e-20    0.0027387559   2.0697681e-13               0
     0.36786787               0               0               0   -0.0016523934  -8.8767019e-10   4.7403978e-20    0.0027320798   2.0660115e-13               0
     0.36996997               0               0               0   -0.0016504019  -8.7932593e-10   4.7403998e-20    0.0027254038    2.062255e-13               0
     0.37207207               0               0               0   -0.0016484309  -8.7113194e-10   4.4071041e-20    0.0027187705   2.0585395e-13               0
     0.37417417               0               0               0   -0.0016465115   -8.633174e-10    3.232224e-20    0.0027122453   2.0549276e-13               0
     0.37627628               0               0               0   -0.0016445921  -8.5550286e-10   2.0573439e-20    0.0027057201   2.0513158e-13               0
     0.37837838               0               0               0   -0.0016426728  -8.4768832e-10   8.8246375e-21    0.0026991949    2.047704e-13               0
     0.38048048               0               0               0   -0.0016407706  -8.4000149e-10  -1.2775084e-21    0.0026927028   2.0441266e-13               0
     0.38258258               0               0               0   -0.0016389203  -8.3270005e-10  -6.4103238e-21    0.0026863108   2.0406531e-13               0
     0.38468468               0               0               0     -0.00163707  -8.2539861e-10  -1.1543139e-20    0.0026799188   2.0371796e-13               0
     0.38678679               0               0               0   -0.0016352197  -8.1809717e-10  -1.6675955e-20    0.0026735267   2.0337061e-13               0
     0.38888889               0               0               0   -0.0016333768  -8.1084914e-10  -2.1774336e-20     0.002667151   2.0302474e-13               0