#      distance             U_x             U_y             U_z wallShearStr... wallShearStr... wallShearStr...               p           omega               k             nut
    0.034013023      0.99914123   5.1364111e-06               0               0               0               0    0.0048550031       69.038263   1.1919958e-05   1.7265711e-07
    0.056204344      0.99878156   9.2152648e-06               0               0               0               0    0.0052166136       62.950698   1.0786191e-05   1.7134341e-07
    0.072112662      0.99829871    1.374995e-05               0               0               0               0    0.0056551008       59.102429   1.0073273e-05    1.704375e-07
    0.083516877      0.99779815   3.4067738e-05               0               0               0               0    0.0062217892       56.573664   9.6065577e-06   1.6980616e-07
     0.09169223      0.99665925   6.9459787e-05               0               0               0               0    0.0069967312       54.867362   9.2924784e-06   1.6936258e-07
    0.097552904      0.99563482   0.00079735056               0  -1.3873304e-06  -1.4654733e-09               0    0.0083565618       53.720332   9.0780358e-06   1.6945936e-07
     0.10156632      0.98099701   0.00075602049               0  -4.1315596e-06  -5.6328288e-09               0    0.0087577243        99.64936   9.1323463e-06    8.209676e-08
     0.10474707      0.96808405    0.0014014133               0  -5.4261338e-06  -1.0254329e-08               0    0.0077110449       99.668428   9.5183045e-06   4.4799432e-08
     0.10802554      0.95487339    0.0017603549               0  -5.2982997e-06  -1.3448206e-08               0    0.0065860139       99.668428   1.0337577e-05   3.2892665e-08
     0.11140473      0.94079152    0.0020787334               0  -5.1662566e-06  -1.6031731e-08               0     0.006062162        99.82091   1.3442505e-05   3.0182667e-08
     0.11488774      0.92684334    0.0024817537               0  -5.0353676e-06  -1.8477871e-08               0    0.0057249342       467.19073    0.0017675692   3.1759605e-06
     0.11847776      0.91339003    0.0027314328               0  -4.9097146e-06  -2.0046156e-08               0    0.0054652628       658.53784     0.003511044   5.3245087e-06
     0.12217807      0.90045481    0.0027604425               0  -4.7901587e-06   -2.033382e-08               0    0.0052566307       782.35103    0.0049552209   6.3250943e-06
     0.12599207       0.8880253    0.0026953586               0   -4.676352e-06  -1.9802091e-08               0    0.0050670794        862.9477    0.0060287112     6.97643e-06
     0.12992323      0.87600883    0.0025864779               0   -4.567471e-06  -1.8883498e-08               0    0.0049046166       913.95706    0.0067624755    7.388649e-06
     0.13397518      0.86431056     0.002435648               0  -4.4623172e-06  -1.7719612e-08               0    0.0047700776       944.60421    0.0072235948   7.6363046e-06
     0.13815161      0.85272989    0.0022604544               0  -4.3595246e-06  -1.6442227e-08               0    0.0046539872        961.5447    0.0074850102   7.4786096e-06
     0.14245635      0.84117861    0.0020960901               0  -4.2581619e-06  -1.5201625e-08               0     0.004535912       969.16055    0.0076040478   7.2089183e-06
     0.14689334      0.82962436    0.0019429657               0  -4.1578996e-06  -1.4051293e-08               0    0.0044123814       970.40695    0.0076236189   6.8881337e-06
     0.15146665       0.8180719    0.0017991336               0  -4.0587388e-06   -1.297895e-08               0    0.0042871381       967.30786    0.0075750032   6.5481682e-06
     0.15618046      0.80654462    0.0016632461               0  -3.9608773e-06  -1.1969678e-08               0     0.004162413       961.27689    0.0074808402   6.2094355e-06
     0.16103908      0.79508464    0.0015330203               0  -3.8646859e-06  -1.0998695e-08               0    0.0040393245       953.30619    0.0073572953   5.8848337e-06
     0.16604698       0.7837649    0.0014015285               0   -3.770846e-06  -1.0042222e-08               0    0.0039199708       944.10505    0.0072159576   5.5827464e-06
     0.17120873      0.77273549    0.0012711037               0  -3.6798443e-06  -9.1195385e-09               0    0.0038123136       934.24241    0.0070659809   5.3126545e-06
     0.17652907      0.76187722    0.0011544765               0  -3.5917958e-06  -8.2616837e-09               0    0.0037127325       924.34944    0.0069171248   5.0692866e-06
     0.18201286      0.75136426    0.0010440347               0  -3.5072222e-06  -7.4577261e-09               0    0.0036078846       914.49117    0.0067703669   4.8578718e-06
     0.18766512      0.74126147   0.00093803133               0  -3.4267608e-06  -6.6905399e-09               0    0.0035011447       904.79862    0.0066276102   4.6739773e-06
     0.19349103      0.73162379   0.00083665843               0  -3.3507691e-06  -5.9601733e-09               0    0.0034032112       895.31127     0.006489349   4.5149422e-06
     0.19949593      0.72250723    0.0007404657               0  -3.2795603e-06  -5.2698032e-09               0    0.0033168755       886.18267    0.0063576919    4.380092e-06
     0.20568532      0.71395989   0.00065032911               0  -3.2133982e-06  -4.6216721e-09               0    0.0032414904       877.55858    0.0062345507   4.2689151e-06
     0.21206485      0.70602451   0.00056553403               0  -3.1524989e-06  -4.0151506e-09               0    0.0031792033       869.54482    0.0061212036   4.1805865e-06
     0.21864039      0.69874081   0.00048623559               0  -3.0970011e-06  -3.4525995e-09               0    0.0031252751       862.21378    0.0060184239   4.1144804e-06
     0.22541793      0.69212061    0.0004140882               0  -3.0468851e-06  -2.9397446e-09               0    0.0030719555       855.60318    0.0059264907   4.0695138e-06
     0.23240371       0.6861496   0.00034891473               0  -3.0019646e-06  -2.4787788e-09               0    0.0030237893       849.71478    0.0058451971   4.0441996e-06
      0.2396041      0.68080116   0.00029064472               0   -2.961953e-06  -2.0703183e-09               0    0.0029842225        844.5218    0.0057739699   4.0368339e-06
      0.2470257      0.67603913   0.00024022079               0  -2.9264993e-06   -1.716171e-09               0    0.0029515673       839.97679    0.0057119886   4.0455395e-06
     0.25467531      0.67181678   0.00019750595               0  -2.8952041e-06  -1.4146496e-09               0    0.0029242869       836.01766    0.0056582694   4.0682725e-06
     0.26255994       0.6680841   0.00016132579               0    -2.86767e-06  -1.1593056e-09               0    0.0029032766       832.57687    0.0056117893   4.1029349e-06
      0.2706868      0.66480176   0.00013058591               0  -2.8435375e-06  -9.4404347e-10               0    0.0028872062       829.59521    0.0055716662   4.1474767e-06
     0.27906334      0.66192674   0.00010520651               0  -2.8224387e-06  -7.6520192e-10               0    0.0028682512       827.02305    0.0055371691   4.2020954e-06
     0.28769723      0.65940239   8.4349608e-05               0  -2.8039477e-06  -6.1980807e-10               0    0.0028453766       824.79873     0.005507423   4.2654438e-06
     0.29659637      0.65716648   6.8029944e-05               0  -2.7876016e-06  -5.0644948e-10               0    0.0028230554       822.84875    0.0054814114   4.3354846e-06
     0.30576892      0.65515691   5.6554545e-05               0   -2.772944e-06  -4.2380128e-10               0    0.0028023808       821.09471    0.0054580661   4.4098849e-06
     0.31522326      0.65331667   4.9061423e-05               0  -2.7595802e-06  -3.6586672e-10               0    0.0027834754       819.47077    0.0054364965   4.4863349e-06
     0.32496807       0.6516096   4.3580137e-05               0  -2.7472208e-06  -3.2488833e-10               0    0.0027679132       817.92881    0.0054160553   4.5634465e-06
     0.33501226      0.65000893    4.015205e-05               0  -2.7356357e-06  -2.9830036e-10               0    0.0027481387       816.43469    0.0053962847   4.6402092e-06
     0.34536503      0.64847936   3.9216729e-05               0  -2.7245805e-06   -2.860045e-10               0    0.0027193851       814.95764    0.0053767758   4.7155097e-06
     0.35603587      0.64698449   3.9971772e-05               0  -2.7138094e-06  -2.8528337e-10               0    0.0026884333       813.46964    0.0053571578   4.7882388e-06
     0.36703454      0.64549674   4.1929837e-05               0  -2.7031226e-06  -2.9239132e-10               0    0.0026595813       811.94893    0.0053371457   4.8575223e-06
     0.37837111      0.64399667   4.4567292e-05               0  -2.6923841e-06  -3.0391366e-10               0    0.0026327225       810.37916    0.0053165274    4.922648e-06
     0.39005597      0.64247483    4.731053e-05               0  -2.6815137e-06  -3.1741986e-10               0    0.0026062273       808.75208    0.0052951986   4.9830522e-06
     0.40209982      0.64092443   5.0297751e-05               0  -2.6704534e-06  -3.3316655e-10               0    0.0025749732        807.0644    0.0052731206   5.0384108e-06
     0.41451368      0.63933532   5.4050023e-05               0  -2.6591175e-06  -3.5267968e-10               0    0.0025383235       805.31273    0.0052502544   5.0882102e-06
     0.42730893       0.6376857   5.8428035e-05               0  -2.6473837e-06  -3.7521843e-10               0    0.0025012478       803.48624    0.0052264646   5.1340408e-06
     0.44049728       0.6359594   6.2696688e-05               0  -2.6351574e-06   -3.975349e-10               0    0.0024661669       801.57435    0.0052016202   5.1755229e-06
      0.4540908      0.63415574    6.632679e-05               0   -2.622423e-06  -4.1702593e-10               0    0.0024324609       799.57769    0.0051757375   5.2119218e-06
     0.46810195      0.63228166   6.9429088e-05               0  -2.6092133e-06   -4.333436e-10               0     0.002394329        797.5056    0.0051489455   5.2428004e-06
     0.48254356      0.63034069   7.2113144e-05               0  -2.5955615e-06  -4.4665931e-10               0    0.0023508461       795.36711    0.0051213676   5.2680663e-06
     0.49742885      0.62833574   7.4158058e-05               0  -2.5815086e-06  -4.5591085e-10               0    0.0023077259       793.16956    0.0050931059   5.2880394e-06
     0.51277145      0.62627907   7.5163995e-05               0  -2.5671417e-06  -4.5960778e-10               0    0.0022693031        790.9254    0.0050643252   5.3034743e-06
     0.52858541      0.62419134   7.5130038e-05               0  -2.5525838e-06  -4.5789333e-10               0     0.002232169       788.65394    0.0050352777   5.3151897e-06
     0.54488522      0.62208805   7.4529832e-05               0  -2.5379349e-06  -4.5257632e-10               0    0.0021907204       786.37114    0.0050061694   5.3240195e-06
     0.56168579       0.6199739   7.3604647e-05               0  -2.5232412e-06   -4.451777e-10               0    0.0021471495       784.08229    0.0049770688   5.3309026e-06
     0.57900252      0.61785002    7.239789e-05               0   -2.508527e-06  -4.3609146e-10               0     0.002105902       781.78826    0.0049479876   5.3363536e-06
     0.59685126      0.61572324   7.0847292e-05               0  -2.4938321e-06  -4.2548465e-10               0    0.0020671937       779.49368    0.0049189848    5.340652e-06
     0.61524836      0.61360146   6.9161346e-05               0  -2.4791967e-06  -4.1417352e-10               0    0.0020263041        777.2059    0.0048901528   5.3438794e-06
     0.63421066      0.61148532   6.7553382e-05               0  -2.4646381e-06  -4.0272903e-10               0    0.0019821008       774.92832    0.0048615336   5.3459706e-06
     0.65375553      0.60937572   6.5779175e-05               0  -2.4501737e-06  -3.9061628e-10               0    0.0019398352       772.66301    0.0048331523   5.3469993e-06
     0.67390086      0.60728069   6.3734377e-05               0  -2.4358453e-06  -3.7746349e-10               0    0.0018998352        770.4159    0.0048050812   5.3472215e-06
     0.69466511      0.60520788   6.1608054e-05               0  -2.4216912e-06  -3.6393865e-10               0    0.0018581961       768.19311    0.0047773944   5.3468331e-06
     0.71606728      0.60315688   5.9589213e-05               0  -2.4077229e-06  -3.5056193e-10               0    0.0018144413        765.9952    0.0047500962   5.3458832e-06
     0.73812698      0.60112811   5.7467504e-05               0  -2.3939477e-06  -3.3710107e-10               0     0.001773121       763.82183    0.0047231799   5.3444814e-06
     0.76086441      0.59912619   5.5300736e-05               0  -2.3803769e-06  -3.2384035e-10               0    0.0017324745       761.67351     0.004696649   5.3429319e-06
     0.78430038      0.59714883   5.3384017e-05               0  -2.3669981e-06  -3.1157022e-10               0    0.0016886072       759.54723    0.0046704641   5.3412564e-06
     0.80845637      0.59518926   5.1637329e-05               0  -2.3537822e-06  -3.0021665e-10               0     0.001644537       757.43762    0.0046445569   5.3393052e-06
     0.83335448      0.59324682   4.9880616e-05               0  -2.3407202e-06  -2.8921669e-10               0    0.0016022079       755.34409    0.0046189186   5.3370276e-06
     0.85901753      0.59132475   4.8162329e-05               0   -2.327817e-06   -2.786101e-10               0    0.0015586018       753.27006    0.0045935891   5.3343907e-06
       0.885469      0.58942075   4.6605123e-05               0  -2.3150695e-06  -2.6844685e-10               0    0.0015125126       751.21528    0.0045685634   5.3312923e-06
     0.91273313      0.58753481   4.4956145e-05               0  -2.3024837e-06  -2.5825313e-10               0    0.0014688531       749.17999    0.0045438427   5.3278135e-06
     0.94083488      0.58567338   4.3253702e-05               0  -2.2900771e-06  -2.4814848e-10               0    0.0014252033       747.16918     0.004519485   5.3240766e-06
     0.96979998      0.58383458   4.1760179e-05               0  -2.2778451e-06  -2.3865425e-10               0    0.0013778333       745.18098    0.0044954656   5.3200625e-06
     0.99965496      0.58201366   4.0291086e-05               0  -2.2657715e-06  -2.2959599e-10               0     0.001332203       743.21007    0.0044717182   5.3158225e-06
      1.0304272      0.58021276   3.8822807e-05               0  -2.2538507e-06  -2.2091084e-10               0    0.0012872605       741.25688    0.0044482462   5.3114352e-06
      1.0621447      0.57842945   3.7548223e-05               0  -2.2420717e-06  -2.1281783e-10               0    0.0012385772        739.3203    0.0044250349   5.3067733e-06
      1.0948368      0.57666038   3.6276346e-05               0  -2.2304259e-06  -2.0497735e-10               0    0.0011909382       737.39858    0.0044020614    5.301787e-06
      1.1285332      0.57490992   3.4949018e-05               0  -2.2189223e-06  -1.9720855e-10               0    0.0011441481       735.49542    0.0043793686   5.2965784e-06
      1.1632648      0.57317858   3.3744272e-05               0  -2.2075658e-06  -1.8974206e-10               0    0.0010941708       733.61222    0.0043569714   5.2911129e-06
      1.1990635      0.57146437   3.2537698e-05               0  -2.1963536e-06   -1.824965e-10               0    0.0010453065       731.74691    0.0043348433   5.2854291e-06
       1.235962      0.56976961   3.1335195e-05               0  -2.1852846e-06  -1.7551847e-10               0   0.00099674424       729.89981    0.0043129866   5.2796341e-06
      1.2739941      0.56809145   3.0284352e-05               0  -2.1743475e-06  -1.6901397e-10               0   0.00094486314       728.06846    0.0042913706   5.2736525e-06
      1.3131947      0.56642675   2.9242416e-05               0  -2.1635305e-06  -1.6278811e-10               0   0.00089393734       726.25063    0.0042699676   5.2674512e-06
      1.3535996      0.56477778   2.8204738e-05               0  -2.1528357e-06  -1.5669901e-10               0   0.00084295067       724.44841    0.0042488011    5.261079e-06
      1.3952458      0.56314485   2.7222892e-05               0  -2.1422676e-06  -1.5080124e-10               0   0.00079012266        722.6629    0.0042278825   5.2545229e-06
      1.4381715      0.56152826   2.6241172e-05               0  -2.1318257e-06  -1.4511598e-10               0    0.0007377008       720.89421    0.0042072118   5.2478174e-06
       1.482416      0.55992711    2.533279e-05               0  -2.1215039e-06  -1.3970018e-10               0   0.00068400676       719.14074    0.0041867687    5.240975e-06
      1.5280198      0.55833961   2.4451324e-05               0  -2.1112954e-06  -1.3452358e-10               0   0.00063048643       717.40056    0.0041665299   5.2339981e-06
      1.5750246      0.55676634   2.3595679e-05               0  -2.1011964e-06  -1.2955886e-10               0   0.00057651188       715.67427     0.004146501   5.2268925e-06
      1.6234735      0.55520593   2.2796841e-05               0  -2.0912041e-06  -1.2480634e-10               0   0.00052113441       713.96138    0.0041266754   5.2196296e-06
      1.6734109      0.55365911   2.1996042e-05               0  -2.0813151e-06  -1.2023479e-10               0   0.00046708882       712.26269    0.0041070613   5.2122317e-06
      1.7248825      0.55212394    2.125721e-05               0  -2.0715276e-06  -1.1592333e-10               0   0.00041230491       710.57593    0.0040876309   5.2047266e-06
      1.7779355      0.55060291   2.0566742e-05               0   -2.061813e-06  -1.1187666e-10               0   0.00036028673       708.90289    0.0040684043   5.1970321e-06
      1.8326183       0.5490751   1.9910015e-05               0  -2.0522145e-06  -1.0838238e-10               0   0.00030587748       707.22477    0.0040491661   5.1893063e-06
      1.8889812      0.54760741   1.9532336e-05               0  -2.0426135e-06  -1.4410353e-10               0   0.00027336463       705.60153    0.0040305915   5.1814406e-06
      1.9470756      0.54601191   5.0112519e-05               0  -2.0330413e-06  -2.7335441e-10               0   0.00016260564       703.86401    0.0040107757   5.1729045e-06
      2.0069548      0.54461819   9.3764027e-05               0  -2.0227983e-06  -4.1414267e-10               0   0.00035957211       702.32902    0.0039933075   5.1610526e-06
