# Wall shear stress
# Time          	patch           	min             	max             
3.00000000e+03	lowerWall	(-3.94128189e+00 -8.03614289e-01 -6.50366965e-20)	(-3.46524743e-02 1.66908899e-06 5.36876791e-20)
