#      distance             U_x             U_y             U_z wallShearStr... wallShearStr... wallShearStr...               p         epsilon               k             nut
              0      0.99920748               0               0               0               0               0    0.0085312027    0.0011277862   5.1891544e-05   2.1488932e-07
   0.0021021021      0.99918448               0               0               0               0               0    0.0085653931    0.0011266785   5.1795903e-05   2.1430859e-07
   0.0042042042      0.99916148               0               0               0               0               0    0.0085995834    0.0011255707   5.1700262e-05   2.1372786e-07
   0.0063063063      0.99913848               0               0               0               0               0    0.0086337738     0.001124463   5.1604621e-05   2.1314714e-07
   0.0084084084      0.99911549               0               0               0               0               0    0.0086679641    0.0011233552    5.150898e-05   2.1256641e-07
    0.010510511      0.99908914               0               0               0               0               0    0.0087066173    0.0011223227   5.1418729e-05   2.1201703e-07
    0.012612613      0.99906071               0               0               0               0               0    0.0087480424    0.0011213369   5.1331826e-05   2.1148713e-07
    0.014714715      0.99903228               0               0               0               0               0    0.0087894675    0.0011203512   5.1244922e-05   2.1095722e-07
    0.016816817      0.99900385               0               0               0               0               0    0.0088308926    0.0011193654   5.1158019e-05   2.1042731e-07
    0.018918919      0.99897542               0               0               0               0               0    0.0088723177    0.0011183796   5.1071116e-05   2.0989741e-07
    0.021021021      0.99894612               0               0               0               0               0    0.0089148677    0.0011174074    5.098513e-05   2.0937268e-07
    0.023123123      0.99891093               0               0               0               0               0    0.0089649794    0.0011165262   5.0905311e-05   2.0888277e-07
    0.025225225      0.99887573               0               0               0               0               0     0.009015091     0.001115645   5.0825491e-05   2.0839286e-07
    0.027327327      0.99884054               0               0               0               0               0    0.0090652027    0.0011147638   5.0745672e-05   2.0790295e-07
    0.029429429      0.99880535               0               0               0               0               0    0.0091153144    0.0011138825   5.0665852e-05   2.0741305e-07
    0.031531532        0.998768               0               0               0               0               0    0.0091681133    0.0011130253   5.0587543e-05   2.0693134e-07
    0.033633634      0.99872434               0               0               0               0               0    0.0092287605    0.0011122379   5.0513646e-05   2.0647358e-07
    0.035735736      0.99868067               0               0               0               0               0    0.0092894077    0.0011114505   5.0439749e-05   2.0601582e-07
    0.037837838      0.99863701               0               0               0               0               0     0.009350055    0.0011106632   5.0365852e-05   2.0555806e-07
     0.03993994      0.99859335               0               0               0               0               0    0.0094107022    0.0011098758   5.0291955e-05    2.051003e-07
    0.042042042      0.99853984               0               0               0               0               0    0.0094831565    0.0011091691   5.0222733e-05   2.0466665e-07
    0.044144144      0.99848541               0               0               0               0               0    0.0095567172    0.0011084699    5.015395e-05   2.0423525e-07
    0.046246246      0.99843098               0               0               0               0               0     0.009630278    0.0011077707   5.0085167e-05   2.0380386e-07
    0.048348348      0.99837605               0               0               0               0               0    0.0097044302    0.0011070747   5.0016551e-05   2.0337328e-07
     0.05045045      0.99830788               0               0               0               0               0    0.0097941062    0.0011064619   4.9952329e-05   2.0296392e-07
    0.052552553      0.99823972               0               0               0               0               0    0.0098837823    0.0011058492   4.9888107e-05   2.0255456e-07
    0.054654655      0.99817156               0               0               0               0               0    0.0099734583    0.0011052365   4.9823885e-05    2.021452e-07
    0.056756757      0.99809318               0               0               0               0               0     0.010074517     0.001104673   4.9762034e-05   2.0174647e-07
    0.058858859      0.99800675               0               0               0               0               0      0.01018455    0.0011041485   4.9702052e-05   2.0135611e-07
    0.060960961      0.99792031               0               0               0               0               0     0.010294582    0.0011036239    4.964207e-05   2.0096576e-07
    0.063063063      0.99782386               0               0               0               0               0     0.010416028    0.0011031393   4.9583784e-05   2.0058214e-07
    0.065165165      0.99771385               0               0               0               0               0     0.010552902    0.0011027087   4.9527792e-05   2.0020763e-07
    0.067267267      0.99760385               0               0               0               0               0     0.010689777    0.0011022781   4.9471799e-05   1.9983311e-07
    0.069369369      0.99747297               0               0               0               0               0     0.010847199    0.0011019031   4.9418361e-05   1.9946951e-07
    0.071471471      0.99732719               0               0               0               0               0     0.011019271    0.0011015677   4.9366745e-05   1.9911368e-07
    0.073573574      0.99718142               0               0               0               0               0     0.011191342    0.0011012323   4.9315128e-05   1.9875784e-07
    0.075675676      0.99699344               0               0               0               0               0     0.011415769    0.0011010583   4.9266413e-05   1.9839691e-07
    0.077777778      0.99680499               0               0               0               0               0      0.01164079    0.0011008862   4.9217731e-05   1.9803593e-07
     0.07987988      0.99655919               0               0               0               0               0     0.011907235    0.0011006232   4.9174924e-05   1.9773872e-07
    0.081981982      0.99627485               0               0               0               0               0     0.012201529    0.0011002991   4.9136066e-05   1.9748439e-07
    0.084084084      0.99596008               0               0               0               0               0     0.012552411    0.0011006137   4.9093003e-05   1.9708337e-07
    0.086186186      0.99559408               0               0               0               0               0     0.012998613    0.0011020042   4.9042855e-05   1.9643525e-07
    0.088288288       0.9950626               0  -1.0159799e-21               0               0               0     0.013487798    0.0011015161    4.900737e-05   1.9624625e-07
     0.09039039       0.9940975               0  -4.6943899e-21               0               0               0     0.014089618     0.001096105   4.9010309e-05   1.9726039e-07
    0.092492492      0.99318629               0   1.3478184e-17               0               0               0     0.015032851    0.0011738441   4.8990269e-05   1.9086718e-07
    0.094594595      0.99241718               0   6.2523216e-17               0               0               0     0.016876343    0.0014708384   4.8909638e-05   1.6494184e-07
    0.096696697      0.90449315               0   9.5077697e-17   -0.0006843663  -3.1361539e-06               0     0.018296545       5.8536986   4.4530219e-05   1.2999721e-07
    0.098798799      0.64453438               0   9.5081549e-17   -0.0027196003  -1.2462749e-05               0     0.018881219       23.257027   3.1665437e-05   7.7249411e-08
      0.1009009      0.38460884               0   7.3731947e-17   -0.0045491353  -1.7817046e-05  -1.6125496e-18     0.018110079       42.425459   1.8856626e-05   3.6529785e-08
       0.103003      0.12472761               0   2.3911071e-17    -0.006104405  -1.7874946e-05  -5.3751652e-18     0.015531186       63.947362   6.1224426e-06   1.1847719e-08
     0.10510511               0               0               0   -0.0065404078  -1.3103494e-05  -5.8322519e-18     0.013282356       75.595482   1.1151294e-08   1.6679226e-12
     0.10720721               0               0               0   -0.0059434862  -3.8752369e-06  -3.2388044e-18     0.011338126       78.131503    1.184971e-08   1.4377448e-12
     0.10930931               0               0               0   -0.0055830584  -1.2222633e-07  -4.9977531e-19      0.01027642       77.309891    1.158885e-08   1.3027606e-12
     0.11141141               0               0               0   -0.0053828589  -7.8782698e-08   2.3378877e-18    0.0098126373       74.213428   1.0678064e-08   1.2322715e-12
     0.11351351               0               0               0   -0.0052253955  -5.7819547e-08   1.6403801e-18     0.009485911       71.387535   9.8823946e-09   1.1778494e-12
     0.11561562               0               0               0   -0.0050903279  -4.8637317e-08  -9.0973716e-19     0.009231009       68.703435   9.1470517e-09   1.1318474e-12
     0.11771772               0               0               0   -0.0049794305   -4.230116e-08  -1.0820701e-18    0.0089912644       66.457578   8.5585689e-09   1.0946637e-12
     0.11981982               0               0               0   -0.0048789157  -3.7187567e-08  -2.3299789e-19    0.0087580308       64.399973   8.0331715e-09   1.0612681e-12
     0.12192192               0               0               0   -0.0047917441  -3.3615212e-08               0    0.0085600985        62.60922   7.5938066e-09   1.0326927e-12
     0.12402402               0               0               0    -0.004709619   -3.062575e-08               0     0.008375517       60.919389   7.1869789e-09   1.0059403e-12
     0.12612613               0               0               0    -0.004636706  -2.8228548e-08               0     0.008223987       59.423986   6.8396155e-09   9.8246757e-13
     0.12822823               0               0               0   -0.0045671366  -2.6046314e-08               0    0.0080844535       57.999153   6.5138355e-09   9.6018515e-13
     0.13033033               0               0               0   -0.0045048494  -2.4177763e-08               0    0.0079633992       56.731227     6.23295e-09   9.4043947e-13
     0.13243243               0               0               0     -0.00444535  -2.2429292e-08               0    0.0078494188       55.523364   5.9692504e-09   9.2166486e-13
     0.13453453               0               0               0   -0.0043914908  -2.0927416e-08  -3.7500407e-19    0.0077435345       54.437382   5.7385139e-09   9.0481864e-13
     0.13663664               0               0               0   -0.0043401268   -1.953463e-08  -9.1590298e-19    0.0076412318       53.405316   5.5223596e-09   8.8882549e-13
     0.13873874               0               0               0   -0.0042929242   -1.832679e-08  -1.1088068e-18    0.0075456945       52.463108   5.3294476e-09   8.7423496e-13
     0.14084084               0               0               0   -0.0042480285  -1.7221471e-08  -1.1088069e-18    0.0074539073       51.570711   5.1494195e-09   8.6042194e-13
     0.14294294               0               0               0   -0.0042061194  -1.6236244e-08  -1.0440074e-18     0.007368965        50.74243   4.9853454e-09   8.4760306e-13
     0.14504505               0               0               0   -0.0041664392  -1.5340648e-08  -9.3084423e-19    0.0072891315       49.962003   4.8331788e-09   8.3552616e-13
     0.14714715               0               0               0    -0.004128841  -1.4518652e-08   -6.945319e-19    0.0072145431       49.225695   4.6915956e-09   8.2413372e-13
     0.14924925               0               0               0   -0.0040934954  -1.3776294e-08  -3.2496658e-19    0.0071456302       48.537128   4.5614643e-09   8.1348191e-13
     0.15135135               0               0               0   -0.0040594859  -1.3080021e-08  -6.2142553e-20    0.0070788266       47.876515   4.4378153e-09   8.0326431e-13
     0.15345345               0               0               0   -0.0040277946  -1.2463715e-08   1.5457971e-20    0.0070156831       47.264407   4.3254147e-09   7.9380019e-13
     0.15555556               0               0               0   -0.0039967965  -1.1871565e-08  -6.9206138e-21    0.0069534086       46.666763    4.216274e-09    7.845594e-13
     0.15765766               0               0               0   -0.0039681494  -1.1361342e-08  -3.6840927e-19    0.0068940816       46.118177   4.1181904e-09   7.7607607e-13
     0.15975976               0               0               0   -0.0039396707  -1.0856375e-08   -6.672256e-19    0.0068351526       45.573084   4.0208747e-09   7.6764655e-13
     0.16186186               0               0               0   -0.0039135833  -1.0426082e-08    -7.54694e-20    0.0067818781       45.077647   3.9344715e-09   7.5998148e-13
     0.16396396               0               0               0   -0.0038874959  -9.9957887e-09    5.162868e-19    0.0067286035       44.582209   3.8480684e-09   7.5231641e-13
     0.16606607               0               0               0   -0.0038633553  -9.6196107e-09   5.8796934e-19     0.006679375       44.126685    3.770218e-09   7.4526836e-13
     0.16816817               0               0               0    -0.003839483  -9.2508915e-09    5.879694e-19    0.0066307042       43.676663   3.6935464e-09   7.3830536e-13
     0.17027027               0               0               0   -0.0038168905  -8.9169251e-09   3.3884434e-19    0.0065839559       43.252729   3.6223346e-09   7.3174497e-13
     0.17237237               0               0               0   -0.0037949394  -8.6003763e-09  -3.5138649e-20    0.0065381711       42.841871   3.5538592e-09   7.2538637e-13
     0.17447447               0               0               0   -0.0037737012  -8.3020515e-09  -2.4957032e-19    0.0064938243       42.445483   3.4883477e-09   7.1925053e-13
     0.17657658               0               0               0   -0.0037534209  -8.0282189e-09  -2.4957035e-19    0.0064514098       42.068544   3.4268198e-09   7.1341407e-13
     0.17867868               0               0               0   -0.0037333752  -7.7599373e-09  -2.6212957e-19    0.0064094458       41.696329     3.36624e-09   7.0765043e-13
     0.18078078               0               0               0   -0.0037145671  -7.5209402e-09  -3.4094645e-19    0.0063698583       41.349041    3.310662e-09   7.0227097e-13
     0.18288288               0               0               0    -0.003695759  -7.2819432e-09  -4.1976334e-19    0.0063302708       41.001752   3.2550839e-09   6.9689151e-13
     0.18498498               0               0               0   -0.0036780765  -7.0681461e-09  -2.8140374e-19    0.0062927621       40.677003   3.2039413e-09   6.9185935e-13
     0.18708709               0               0               0   -0.0036605724  -6.8583399e-09  -1.0864977e-19    0.0062555826       40.355824   3.1535012e-09    6.868822e-13
     0.18918919               0               0               0   -0.0036436933   -6.661749e-09    6.943645e-20    0.0062195915       40.047089   3.1054642e-09   6.8209674e-13
     0.19129129               0               0               0   -0.0036273523  -6.4765352e-09   2.5211314e-19    0.0061846234       39.749067    3.059496e-09   6.7747632e-13
     0.19339339               0               0               0   -0.0036111994  -6.2951108e-09   3.7144287e-19    0.0061499919        39.45477   3.0142348e-09   6.7291328e-13
      0.1954955               0               0               0   -0.0035959006  -6.1308869e-09   2.0324509e-19    0.0061168877       39.177389   2.9721825e-09   6.6861071e-13
      0.1975976               0               0               0   -0.0035806017  -5.9666629e-09   3.5047309e-20    0.0060837836       38.900007   2.9301302e-09   6.6430815e-13
      0.1996997               0               0               0    -0.003566046   -5.816407e-09               0    0.0060521627       38.637265   2.8908085e-09   6.6023102e-13
      0.2018018               0               0               0    -0.003551686  -5.6698277e-09               0    0.0060209322       38.378377   2.8522056e-09   6.5621322e-13
      0.2039039               0               0               0    -0.003537641  -5.5288496e-09   -4.703186e-20    0.0059902722       38.125657   2.8147337e-09   6.5229049e-13
     0.20600601               0               0               0   -0.0035241336  -5.3974305e-09  -1.7432904e-19    0.0059605858       37.883461    2.779192e-09   6.4852999e-13
     0.20810811               0               0               0   -0.0035106263  -5.2660114e-09  -3.0162621e-19    0.0059308994       37.641266   2.7436502e-09   6.4476949e-13
     0.21021021               0               0               0   -0.0034978267  -5.1466049e-09  -3.1272487e-19    0.0059024312       37.412877   2.7105999e-09   6.4122147e-13
     0.21231231               0               0               0   -0.0034850947  -5.0283458e-09  -3.1272492e-19    0.0058740794       37.185808   2.6777875e-09   6.3769375e-13
     0.21441441               0               0               0   -0.0034726614  -4.9147377e-09  -2.6075161e-19     0.005846361       36.964533    2.646004e-09    6.342552e-13
     0.21651652               0               0               0   -0.0034606397  -4.8075418e-09  -1.3712152e-19     0.005819516       36.751247   2.6156392e-09   6.3093962e-13
     0.21861862               0               0               0    -0.003448618   -4.700346e-09  -1.3491444e-20    0.0057926709       36.537961   2.5852744e-09   6.2762403e-13
     0.22072072               0               0               0   -0.0034371802  -4.6020332e-09               0    0.0057668742       36.335928   2.5568761e-09   6.2448193e-13
     0.22282282               0               0               0    -0.003425814  -4.5048086e-09               0    0.0057412058       36.135273   2.5287185e-09   6.2136109e-13
     0.22492492               0               0               0   -0.0034146419  -4.4105528e-09               0     0.005715869       35.938349   2.5012035e-09   6.1829768e-13
     0.22702703               0               0               0   -0.0034038771  -4.3225236e-09               0    0.0056912277       35.749249   2.4750361e-09   6.1535474e-13
     0.22912913               0               0               0   -0.0033931123  -4.2344944e-09               0    0.0056665864       35.560149   2.4488687e-09    6.124118e-13
     0.23123123               0               0               0   -0.0033827434  -4.1521008e-09  -6.4194264e-20    0.0056427944       35.378619   2.4239871e-09   6.0958545e-13
     0.23333333               0               0               0   -0.0033725323  -4.0719547e-09  -1.5398892e-19    0.0056193412       35.200109   2.3996184e-09    6.068056e-13
     0.23543544               0               0               0    -0.003362355  -3.9922682e-09  -2.3240178e-19    0.0055959513       35.022237   2.3753568e-09   6.0403561e-13
     0.23753754               0               0               0    -0.003352658  -3.9191409e-09  -1.4839444e-19    0.0055734646       34.853487    2.352623e-09   6.0140645e-13
     0.23963964               0               0               0    -0.003342961  -3.8460136e-09  -6.4387092e-20     0.005550978       34.684737   2.3298892e-09   5.9877729e-13
     0.24174174               0               0               0   -0.0033334414  -3.7753361e-09   2.0705644e-20    0.0055287779       34.519345   2.3077105e-09   5.9619994e-13
     0.24384384               0               0               0   -0.0033242201  -3.7087762e-09   1.0762259e-19    0.0055070595       34.359596   2.2864645e-09   5.9370965e-13
     0.24594595               0               0               0   -0.0033149987  -3.6422162e-09   1.9453953e-19    0.0054853411       34.199846   2.2652186e-09   5.9121936e-13
     0.24804805               0               0               0    -0.003306057     -3.5793e-09    1.745135e-19    0.0054641657       34.045377   2.2448346e-09   5.8881043e-13
     0.25015015               0               0               0   -0.0032972754  -3.5184701e-09   9.3255369e-20    0.0054433012       33.893931   2.2249443e-09   5.8644808e-13
     0.25225225               0               0               0   -0.0032884938  -3.4576403e-09    1.199724e-20    0.0054224367       33.742484    2.205054e-09   5.8408573e-13
     0.25435435               0               0               0   -0.0032800621  -3.4009479e-09               0    0.0054023187       33.597606   2.1862226e-09   5.8182476e-13
     0.25645646               0               0               0   -0.0032716911  -3.3449722e-09               0    0.0053823301       33.453867   2.1675746e-09   5.7958135e-13
     0.25855856               0               0               0    -0.003263328  -3.2890892e-09   1.3357963e-21    0.0053623555       33.310275   2.1489502e-09   5.7734024e-13
     0.26066066               0               0               0    -0.003255342  -3.2376106e-09    6.619637e-20    0.0053430432        33.17372   2.1314457e-09   5.7520791e-13
     0.26276276               0               0               0    -0.003247356  -3.1861321e-09   1.3105694e-19    0.0053237308       33.037166   2.1139412e-09   5.7307558e-13
     0.26486486               0               0               0   -0.0032394199  -3.1352384e-09   1.8691944e-19    0.0053045016        32.90154   2.0965827e-09   5.7095759e-13
     0.26696697               0               0               0   -0.0032317932  -3.0879754e-09   1.8691949e-19    0.0052857885       32.771676   2.0801303e-09   5.6892855e-13
     0.26906907               0               0               0   -0.0032241666  -3.0407125e-09   1.8691953e-19    0.0052670754       32.641813    2.063678e-09   5.6689951e-13
     0.27117117               0               0               0   -0.0032166087  -2.9941921e-09   1.7410946e-19     0.005248507       32.513227   2.0474242e-09   5.6489019e-13
     0.27327327               0               0               0   -0.0032093182  -2.9505551e-09   1.1155482e-19    0.0052305005       32.389605   2.0319418e-09   5.6295743e-13
     0.27537538               0               0               0   -0.0032020277  -2.9069181e-09   4.9000193e-20    0.0052124941       32.265982   2.0164594e-09   5.6102468e-13
     0.27747748               0               0               0    -0.003194806   -2.863967e-09  -1.1633889e-20    0.0051946303       32.143629   2.0011719e-09   5.5911155e-13
     0.27957958               0               0               0   -0.0031878329  -2.8234951e-09  -6.5325056e-20    0.0051772822       32.025864   1.9865887e-09   5.5726937e-13
     0.28168168               0               0               0   -0.0031808599  -2.7830233e-09  -1.1901622e-19    0.0051599341         31.9081   1.9720056e-09   5.5542719e-13
     0.28378378               0               0               0   -0.0031739385   -2.743077e-09  -1.6345896e-19    0.0051426735       31.791283   1.9575664e-09   5.5359969e-13
     0.28588589               0               0               0   -0.0031672653  -2.7056563e-09  -1.6345901e-19     0.005125833       31.679025   1.9438185e-09   5.5184273e-13
     0.28798799               0               0               0   -0.0031605922  -2.6682356e-09  -1.6345905e-19    0.0051089925       31.566768   1.9300707e-09   5.5008577e-13
     0.29009009               0               0               0   -0.0031539385  -2.6310151e-09  -1.5988338e-19    0.0050921858       31.454867   1.9163764e-09   5.4833434e-13
     0.29219219               0               0               0    -0.003147547  -2.5964865e-09  -1.0822192e-19    0.0050758335       31.347771    1.903403e-09   5.4665716e-13
     0.29429429               0               0               0   -0.0031411556  -2.5619579e-09  -5.6560454e-20    0.0050594812       31.240676   1.8904296e-09   5.4497998e-13
      0.2963964               0               0               0   -0.0031347641  -2.5274293e-09  -4.8989894e-21    0.0050431289        31.13358   1.8774563e-09   5.4330281e-13
      0.2984985               0               0               0   -0.0031286128  -2.4951675e-09               0    0.0050272915       31.030872    1.865134e-09   5.4169342e-13
      0.3006006               0               0               0   -0.0031224866  -2.4631432e-09               0    0.0050115082       30.928623   1.8528799e-09   5.4009114e-13
      0.3027027               0               0               0   -0.0031163604  -2.4311189e-09               0    0.0049957248       30.826374   1.8406258e-09   5.3848886e-13
      0.3048048               0               0               0    -0.003110405  -2.4005856e-09   2.8375478e-20    0.0049803006       30.727227   1.8288268e-09    5.369346e-13
     0.30690691               0               0               0   -0.0031045308  -2.3707617e-09   7.0251523e-20    0.0049650473       30.629554   1.8172442e-09   5.3540318e-13
     0.30900901               0               0               0   -0.0030986566  -2.3409378e-09   1.1212757e-19     0.004949794       30.531882   1.8056616e-09   5.3387177e-13
     0.31111111               0               0               0   -0.0030928743  -2.3119308e-09   1.3037332e-19    0.0049346998       30.435871   1.7943201e-09   5.3236611e-13
     0.31321321               0               0               0   -0.0030872394  -2.2842352e-09   1.1069163e-19    0.0049198611       30.342526   1.7833654e-09   5.3090179e-13
     0.31531532               0               0               0   -0.0030816046  -2.2565396e-09   9.1009954e-20    0.0049050225       30.249182   1.7724108e-09   5.2943747e-13
     0.31741742               0               0               0   -0.0030759746  -2.2288874e-09   7.1678451e-20    0.0048901919       30.155924   1.7614685e-09   5.2797448e-13
     0.31951952               0               0               0    -0.003070566  -2.2032435e-09   6.8528253e-20    0.0048757356       30.066663      1.7511e-09   5.2657338e-13
     0.32162162               0               0               0   -0.0030651575  -2.1775996e-09   6.5378055e-20    0.0048612794       29.977401   1.7407316e-09   5.2517228e-13
     0.32372372               0               0               0   -0.0030597489  -2.1519557e-09   6.2227856e-20    0.0048468231       29.888139   1.7303631e-09   5.2377117e-13
     0.32582583               0               0               0   -0.0030544659  -2.1273718e-09   7.1987807e-20    0.0048326274       29.801137   1.7203157e-09   5.2240503e-13
     0.32792793               0               0               0   -0.0030492713  -2.1035349e-09   9.0845931e-20    0.0048186152       29.715726   1.7104947e-09   5.2106353e-13
     0.33003003               0               0               0   -0.0030440767   -2.079698e-09   1.0970406e-19    0.0048046031       29.630316   1.7006737e-09   5.1972202e-13
     0.33213213               0               0               0   -0.0030388979  -2.0559808e-09    1.243799e-19     0.004790626       29.545187   1.6908923e-09   5.1838488e-13
     0.33423423               0               0               0   -0.0030339073   -2.033698e-09   8.8951755e-20      0.00477707        29.46343    1.681585e-09   5.1709999e-13
     0.33633634               0               0               0   -0.0030289168  -2.0114153e-09   5.3523609e-20     0.004763514       29.381672   1.6722777e-09   5.1581511e-13
     0.33843844               0               0               0   -0.0030239262  -1.9891325e-09   1.8095462e-20     0.004749958       29.299915   1.6629704e-09   5.1453023e-13
     0.34054054               0               0               0   -0.0030190312  -1.9675755e-09  -2.2546448e-20    0.0047365783       29.219858   1.6538997e-09   5.1327177e-13
     0.34264264               0               0               0   -0.0030142359  -1.9467761e-09  -6.8631568e-20    0.0047233828       29.141577    1.645076e-09   5.1204089e-13
     0.34474474               0               0               0   -0.0030094406  -1.9259766e-09  -1.1471669e-19    0.0047101874       29.063297   1.6362524e-09   5.1081001e-13
     0.34684685               0               0               0   -0.0030046453  -1.9051772e-09  -1.6080181e-19    0.0046969919       28.985016   1.6274288e-09   5.0957913e-13
     0.34894895               0               0               0   -0.0030000022  -1.8855998e-09  -1.6910915e-19    0.0046840379       28.909441   1.6189777e-09   5.0839024e-13
     0.35105105               0               0               0   -0.0029953927  -1.8662911e-09  -1.6910922e-19    0.0046711371       28.834462   1.6106086e-09   5.0721059e-13
     0.35315315               0               0               0   -0.0029907831  -1.8469823e-09  -1.6910928e-19    0.0046582363       28.759482   1.6022395e-09   5.0603094e-13