#      distance             U_x             U_y             U_z wallShearStr... wallShearStr... wallShearStr...               p         epsilon               k             nut
  3.0219182e-06      0.03188347   5.1961695e-09  -4.9043574e-23               0               0               0   0.00040158247       9.6093238   0.00048174492   4.7915501e-09
  5.0865428e-06     0.052683289   1.3092833e-08  -2.0954331e-23               0               0               0   0.00040158299       6.3951763    0.0010153996   1.9142327e-08
  7.2269684e-06     0.072311071   2.5003376e-08  -3.7871833e-23               0               0               0   0.00040158363       5.3585545    0.0016110161   4.8793026e-08
  9.4750924e-06     0.090175381   4.0551033e-08  -5.6801673e-23               0               0               0   0.00040158443       4.8684689    0.0021930146   9.3704395e-08
  1.1864417e-05      0.10618663   5.9502392e-08  -2.2423599e-23               0               0               0   0.00040158542       4.5537668    0.0027192748   1.5039028e-07
  1.4430548e-05       0.1206278   8.1967901e-08   4.6931283e-23               0               0               0   0.00040158662       4.2978134    0.0031795726   2.1557148e-07
  1.7211727e-05      0.13387614   1.0830194e-07    7.737579e-23               0               0               0   0.00040158803       4.0630294    0.0035797542   2.8753361e-07
  2.0249401e-05      0.14626023   1.3902885e-07   1.9242022e-23               0               0               0   0.00040158965       3.8374018    0.0039295961   3.6580424e-07
  2.3588836e-05      0.15803223    1.748225e-07  -1.5417455e-23               0               0               0    0.0004015915       3.6172181    0.0042380904   4.5063177e-07
  2.7279799e-05        0.169379   2.1650739e-07  -7.7087274e-24               0               0               0   0.00040159361       3.4015635    0.0045124137    5.426716e-07
  3.1377293e-05      0.18043864   2.6506758e-07               0               0               0               0   0.00040159602       3.1905189    0.0047580565   6.4283514e-07
  3.5942381e-05      0.19131403    3.216624e-07   2.8183521e-23               0               0               0   0.00040159878       2.9845356    0.0049791907   7.5222517e-07
  4.1043091e-05       0.2020825   3.8764836e-07   4.2270761e-23               0               0               0   0.00040160192       2.7841986    0.0051790131   8.7211389e-07
  4.6755437e-05      0.21280265   4.6460677e-07   4.9557431e-23               0               0               0   0.00040160551       2.5901254    0.0053600151   1.0039427e-06
  5.3164546e-05      0.22351914   5.5437682e-07   5.3199597e-23               0               0               0   0.00040160963       2.4029135    0.0055241798   1.1493336e-06
  6.0365928e-05      0.23426598    6.590945e-07  -9.0840711e-23               0               0               0   0.00040161435       2.2231093     0.005673125   1.3101084e-06
    6.84669e-05      0.24506903   7.8123805e-07  -1.9195805e-22               0               0               0   0.00040161977       2.0511874    0.0058082043   1.4883123e-06
  7.7588184e-05      0.25594774   9.2368062e-07  -1.0360377e-22               0               0               0   0.00040162599       1.8875358    0.0059305787   1.6862427e-06
   8.786571e-05      0.26691649   1.0897513e-06    3.345235e-23               0               0               0   0.00040163315       1.7324471    0.0060412668   1.9064813e-06
  9.9452634e-05      0.27798564   1.2833059e-06   1.5004363e-22               0               0               0   0.00040164138        1.586115    0.0061411801   2.1519305e-06
  0.00011252163      0.28916228   1.5088082e-06   2.8919165e-23               0               0               0   0.00040165085       1.4486338    0.0062311468   2.4258545e-06
  0.00012726745       0.3004509    1.771425e-06  -8.6133483e-23               0               0               0   0.00040166176       1.3200027    0.0063119283   2.7319245e-06
  0.00014390985      0.31185388   2.0771345e-06  -1.8677203e-23               0               0               0   0.00040167433       1.2001323    0.0063842294   3.0742691e-06
  0.00016269684      0.32337193   2.4328533e-06    5.054864e-23               0               0               0   0.00040168881       1.0888532    0.0064487059   3.4575307e-06
  0.00018390838      0.33500442   2.8465818e-06   3.9515545e-22               0               0               0   0.00040170552      0.98592682    0.0065059685   3.8869271e-06
  0.00020786057      0.34674971   3.3275734e-06   4.9158873e-22               0               0               0   0.00040172479      0.89105628    0.0065565857   4.3683204e-06
  0.00023491035      0.35860537   3.8865307e-06   1.4698191e-22               0               0               0   0.00040174703      0.80389777     0.006601085   4.9082922e-06
  0.00026546084       0.3705684   4.5358319e-06               0               0               0               0   0.00040177268       0.7240717    0.0066399542   5.5142265e-06
   0.0002999673      0.38263543    5.289794e-06               0               0               0               0   0.00040180229      0.65117321    0.0066736418   6.1944002e-06
  0.00033894396      0.39480291   6.1649784e-06  -1.6644867e-22               0               0               0   0.00040183646      0.58478172    0.0067025571   6.9580812e-06
  0.00038297165      0.40706719   7.1805455e-06  -3.3289735e-22               0               0               0    0.0004018759      0.52446947    0.0067270708   7.8156344e-06
  0.00043270649      0.41942472   8.3586672e-06   7.1146431e-22               0               0               0   0.00040192141      0.46980883    0.0067475153   8.7786341e-06
  0.00048888965      0.43187211   9.7250072e-06   1.3886948e-21               0               0               0   0.00040197393      0.42037849    0.0067641845    9.859984e-06
  0.00055235838      0.44440626   1.1309281e-05   5.1078178e-22               0               0               0   0.00040203454      0.37576841    0.0067773342    1.107404e-05
   0.0006240585      0.45702446    1.314591e-05               0               0               0               0   0.00040210445      0.33558379    0.0067871818   1.2436738e-05
  0.00070505852      0.46972448   1.5274785e-05     2.41274e-22               0               0               0   0.00040218508      0.29944797    0.0067939064   1.3965715e-05
  0.00079656552      0.48250462   1.7742164e-05     4.82548e-22               0               0               0   0.00040227806      0.26700452    0.0067976483    1.568043e-05
  0.00089994316      0.49536387   2.0601725e-05     2.41274e-22               0               0               0   0.00040238521       0.2379185    0.0067985073   1.7602265e-05
    0.001016732      0.50830194   2.3915805e-05               0               0               0               0   0.00040250865       0.2118772    0.0067965423   1.9754607e-05
   0.0011486725      0.52131937   2.7756868e-05   1.0317974e-21               0               0               0   0.00040265077      0.18859024    0.0067917686   2.2162889e-05
   0.0012977308      0.53441763   3.2209242e-05  -8.0122574e-22               0               0               0   0.00040281429      0.16778934    0.0067841554   2.4854578e-05
   0.0014661282      0.54759924   3.7371188e-05  -3.5304467e-21               0               0               0    0.0004030023      0.14922769    0.0067736222   2.7859086e-05
   0.0016563743       0.5608679   4.3357372e-05  -2.8168391e-21               0               0               0   0.00040321825      0.13267919    0.0067600336   3.1207576e-05
   0.0018713042      0.57422859   5.0301838e-05  -1.7154091e-21               0               0               0   0.00040346605      0.11793734     0.006743194   3.4932623e-05
   0.0021141207      0.58768775   5.8361587e-05   -5.959935e-22               0               0               0   0.00040375004      0.10481419    0.0067228394   3.9067682e-05
   0.0023884425       0.6012535   6.7720922e-05  -4.4131171e-22               0               0               0   0.00040407503      0.09313911    0.0066986278   4.3646312e-05
   0.0026983575      0.61493575   7.8596738e-05   1.1926941e-21               0               0               0   0.00040444631     0.082757551    0.0066701277   4.8701074e-05
   0.0030484842      0.62874654   9.1245005e-05  -2.3270283e-21               0               0               0   0.00040486964     0.073529818    0.0066368025   5.4262023e-05
   0.0034440402      0.64270025   0.00010596874  -5.7577592e-21               0               0               0   0.00040535118     0.065329841    0.0065979924   6.0354689e-05
   0.0038909203      0.65681391   0.00012312785  -1.7967249e-21               0               0               0   0.00040589737      0.05804399     0.006552891   6.6997412e-05
    0.004395784      0.67110762   0.00014315134   3.4569919e-21               0               0               0   0.00040651477     0.051569931    0.0065005161   7.4197914e-05
   0.0049661549      0.68560487   0.00016655254  -4.3000589e-21               0               0               0   0.00040720977     0.045815526    0.0064396732   8.1948917e-05
   0.0056105328      0.70033311   0.00019394806  -1.3858633e-20               0               0               0   0.00040798806     0.040697787    0.0063689098   9.0222666e-05
   0.0063385204      0.71532416   0.00022608151   4.8819516e-21               0               0               0   0.00040885396     0.036141875    0.0062864576   9.8964143e-05
   0.0071609664       0.7306149   0.00026385298   1.8193182e-20               0               0               0   0.00040980928     0.032080151    0.0061901589   0.00010808282
   0.0080901272      0.74624781   0.00030835572   2.5055079e-20               0               0               0   0.00041085177     0.028451244    0.0060773744   0.00011744275
   0.0091398493      0.76227169   0.00036092378   2.7556667e-20               0               0               0   0.00041197361     0.025199163    0.0059448651   0.00012685093
    0.010325776       0.7787422    0.0004231997   1.3774523e-20               0               0               0   0.00041315962     0.022272411    0.0057886441    0.0001360437
     0.01166558      0.79572237   0.00049721552   4.0632891e-21               0               0               0   0.00041437652     0.019623103    0.0056037891   0.00014467143
    0.013179228      0.81328272   0.00058525687   1.9368047e-20               0               0               0   0.00041556464     0.017206084    0.0053842106   0.00015228139
    0.014889277      0.83150046   0.00069041352   2.0089624e-20               0               0               0   0.00041664052     0.014978067    0.0051223724   0.00015829927
    0.016821209      0.85045716   0.00081653342    4.044328e-20               0               0               0   0.00041748784     0.012896863    0.0048089776    0.0001620101
    0.019003816      0.87023293   0.00096785533   5.8351104e-20               0               0               0   0.00041793732     0.010920914    0.0044326669   0.00016254008
    0.021469624      0.89089371    0.0011495414    2.874898e-20               0               0               0     0.000417739    0.0090096827    0.0039798812   0.00015884313
    0.024255377      0.91246245    0.0013674204   9.2355064e-21               0               0               0   0.00041652525    0.0071263642    0.0034353306   0.00014970283
    0.027402591      0.93485058    0.0016263008  -8.8410946e-22               0               0               0   0.00041377526    0.0052469673    0.0027844404    0.0001337878
    0.030958166      0.95766078    0.0019314002               0               0               0               0   0.00040912925    0.0033889313    0.0020233093   0.00010998206
    0.034975088      0.97935923    0.0022716624               0               0               0               0   0.00040201119    0.0017194394    0.0012112539   7.9340071e-05
    0.039513219      0.99588139    0.0025522878    3.348251e-20               0               0               0   0.00039035317   0.00058950935   0.00055451641   5.4385325e-05
    0.044640187       1.0040826    0.0026796526   2.5604707e-20               0               0               0   0.00037436956   0.00012429739   0.00022910717   5.9090629e-05
    0.050432395       1.0063697    0.0026993207  -3.6234765e-20               0               0               0   0.00035782839   2.5440485e-05   0.00014509047   9.8092418e-05
    0.056976161       1.0067884    0.0026897248  -3.2099901e-20               0               0               0   0.00034255081   1.1551912e-05   0.00013276191   0.00014623047
    0.064369002       1.0068929    0.0026734198  -3.7430003e-21               0               0               0   0.00032777278   8.5943546e-06    0.0001311602   0.00018251987
    0.072721087       1.0069322    0.0026531821               0               0               0               0   0.00031279945    7.586767e-06    0.0001314967   0.00020587608
    0.082156882       1.0069425    0.0026290101               0               0               0               0   0.00029781012    7.106336e-06   0.00013223245    0.0002217845
    0.092817002       1.0069335     0.002601283               0               0               0               0   0.00028336881   6.8150474e-06   0.00013294609   0.00023359213
