#      distance             U_x             U_y             U_z wallShearStr... wallShearStr... wallShearStr...               p             nut         nuTilda
  3.0219182e-06     0.018855849   2.7096696e-09  -3.5563041e-23               0               0               0   0.00024090854   3.1859681e-12   4.3835823e-08
  5.0865428e-06     0.031741218   6.8740609e-09   -1.513594e-23               0               0               0   0.00024090876   1.5791605e-11    7.378642e-08
  7.2269684e-06     0.045097876   1.3536301e-08  -3.8981741e-23               0               0               0   0.00024090899   5.3954884e-11   1.0483273e-07
  9.4750924e-06     0.059121864   2.3069645e-08  -5.8466358e-23               0               0               0   0.00024090921    1.469398e-10    1.374355e-07
  1.1864417e-05     0.074015612   3.6000918e-08  -2.4741306e-23               0               0               0   0.00024090945   3.4559325e-10   1.7207803e-07
  1.4430548e-05     0.089987625   5.3088785e-08   8.0868638e-23               0               0               0   0.00024090971   7.3594678e-10   2.0927308e-07
  1.7211727e-05      0.10724947   7.5331761e-08   1.3180168e-22               0               0               0      0.00024091   1.4613183e-09   2.4957042e-07
  2.0249401e-05      0.12600792   1.0400225e-07   2.7888985e-23               0               0               0   0.00024091032   2.7575613e-09   2.9356522e-07
  2.3588836e-05       0.1464488   1.4068766e-07  -3.5574727e-23               0               0               0   0.00024091068   5.0083157e-09   3.4190827e-07
  2.7279799e-05       0.1687079   1.8731661e-07  -1.7787364e-23               0               0               0    0.0002409111   8.8298593e-09   3.9531921e-07
  3.1377293e-05      0.19282397    2.461439e-07               0               0               0               0   0.00024091162   1.5197958e-08   4.5460472e-07
  3.5942381e-05      0.21867281   3.1965915e-07   8.7733045e-23               0               0               0   0.00024091226   2.5630146e-08   5.2068314e-07
  4.1043091e-05      0.24589434   4.1038532e-07   1.3158549e-22               0               0               0   0.00024091311   4.2430679e-08   5.9461284e-07
  4.6755437e-05      0.27384718   5.2057627e-07   1.5308048e-22               0               0               0   0.00024091426   6.8978765e-08   6.7761174e-07
  5.3164546e-05      0.30164556    6.519224e-07   1.6382452e-22               0               0               0   0.00024091589   1.0997363e-07   7.7104579e-07
  6.0365928e-05       0.3283151   8.0547631e-07  -2.3004445e-22               0               0               0   0.00024091821   1.7144682e-07   8.7637709e-07
    6.84669e-05       0.3530285   9.8196706e-07   -4.990835e-22               0               0               0    0.0002409215   2.6029886e-07   9.9511068e-07
  7.7588184e-05      0.37530249   1.1824208e-06  -2.6258395e-22               0               0               0   0.00024092605   3.8325322e-07   1.1288097e-06
   8.786571e-05      0.39505089   1.4087661e-06   4.5633631e-23               0               0               0   0.00024093215   5.4545681e-07   1.2791962e-06
  9.9452634e-05      0.41249431   1.6641501e-06   2.4762086e-22               0               0               0   0.00024093999    7.492917e-07    1.448276e-06
  0.00011252163       0.4280121    1.952956e-06   6.8015443e-23               0               0               0   0.00024094964   9.9402578e-07   1.6384212e-06
  0.00012726745      0.44201766   2.2806859e-06  -1.0876355e-22               0               0               0   0.00024096111   1.2765828e-06   1.8524039e-06
  0.00014390985      0.45488628   2.6538599e-06  -2.2933156e-23               0               0               0   0.00024097431   1.5931198e-06   2.0934039e-06
  0.00016269684      0.46692693   3.0799936e-06   6.0096709e-23               0               0               0   0.00024098923   1.9406953e-06   2.3650177e-06
  0.00018390838      0.47837979    3.567657e-06   4.4442444e-22               0               0               0    0.0002410059   2.3183967e-06    2.671278e-06
  0.00020786057      0.48942484   4.1266016e-06   5.4639123e-22               0               0               0   0.00024102445   2.7277224e-06   3.0166868e-06
  0.00023491035      0.50019374    4.767937e-06    1.620635e-22               0               0               0   0.00024104511   3.1723999e-06    3.406261e-06
  0.00026546084      0.51078116   5.5043487e-06               0               0               0               0   0.00024106822   3.6579529e-06   3.8455861e-06
   0.0002999673      0.52125434   6.3503526e-06               0               0               0               0   0.00024109419   4.1912634e-06   4.3408744e-06
  0.00033894396      0.53166061   7.3225918e-06  -1.7303891e-22               0               0               0   0.00024112351   4.7802458e-06   4.8990243e-06
  0.00038297165      0.54203315   8.4401826e-06  -3.4607783e-22               0               0               0   0.00024115674   5.4336503e-06   5.5276773e-06
  0.00043270649      0.55239521   9.7251211e-06   6.9968921e-22               0               0               0   0.00024119451   6.1609688e-06   6.2352666e-06
  0.00048888965      0.56276328   1.1202764e-05   1.3826636e-21               0               0               0   0.00024123756   6.9724047e-06   7.0310538e-06
  0.00055235838      0.57314937     1.29024e-05   5.0993543e-22               0               0               0   0.00024128668   7.8788666e-06   7.9251461e-06
   0.0006240585       0.5835627   1.4857937e-05               0               0               0               0   0.00024134282   8.8919599e-06   8.9284842e-06
  0.00070505852      0.59401098   1.7108728e-05   2.4322929e-22               0               0               0   0.00024140699   1.0023949e-05   1.0052791e-05
  0.00079656552      0.60450128   1.9700573e-05   4.8645858e-22               0               0               0    0.0002414804   1.1287669e-05   1.1310469e-05
  0.00089994316      0.61504083   2.2686944e-05   2.4322929e-22               0               0               0   0.00024156437   1.2696377e-05   1.2714425e-05
    0.001016732      0.62563759   2.6130487e-05               0               0               0               0   0.00024166042   1.4263503e-05   1.4277817e-05
   0.0011486725      0.63630074   3.0104867e-05   1.0008016e-21               0               0               0   0.00024177024   1.6002322e-05   1.6013699e-05
   0.0012977308      0.64704114   3.4697047e-05  -7.8120961e-22               0               0               0   0.00024189575   1.7925494e-05   1.7934562e-05
   0.0014661282      0.65787167   4.0010093e-05  -3.4516636e-21               0               0               0   0.00024203907   2.0044515e-05   2.0051766e-05
   0.0016563743       0.6688076   4.6166632e-05  -2.8033474e-21               0               0               0   0.00024220256   2.2369047e-05   2.2374867e-05
   0.0018713042      0.67986684   5.3313097e-05  -1.7384972e-21               0               0               0   0.00024238877   2.4906166e-05   2.4910858e-05
   0.0021141207       0.6910702    6.162491e-05  -6.0480219e-22               0               0               0   0.00024260047   2.7659554e-05   2.7663356e-05
   0.0023884425      0.70244152   7.1312792e-05  -4.5756877e-22               0               0               0   0.00024284051   3.0628632e-05   3.0631731e-05
   0.0026983575      0.71400777   8.2630397e-05   1.1644494e-21               0               0               0   0.00024311182   3.3807652e-05   3.3810193e-05
   0.0030484842      0.72579903   9.5883509e-05  -2.4173225e-21               0               0               0    0.0002434172   3.7184715e-05   3.7186813e-05
   0.0034440402      0.73784845   0.00011144108  -5.8358387e-21               0               0               0   0.00024375911   4.0740657e-05   4.0742403e-05
   0.0038909203      0.75019207   0.00012974834  -1.7964979e-21               0               0               0   0.00024413932   4.4447709e-05   4.4449174e-05
    0.004395784       0.7628686   0.00015134209   3.8241145e-21               0               0               0   0.00024455848   4.8267827e-05   4.8269068e-05
   0.0049661549      0.77591909   0.00017686881   -4.607823e-21               0               0               0   0.00024501547    5.215061e-05   5.2151672e-05
   0.0056105328      0.78938636   0.00020710838  -1.5115929e-20               0               0               0   0.00024550716   5.6030706e-05   5.6031625e-05
   0.0063385204      0.80331424   0.00024300841   5.6643501e-21               0               0               0   0.00024602768   5.9824677e-05   5.9825482e-05
   0.0071609664       0.8177462   0.00028571226   2.0570715e-20               0               0               0   0.00024656138   6.3427266e-05   6.3427981e-05
   0.0080901272      0.83272325   0.00033637673   4.7959897e-20               0               0               0   0.00024708291   6.6707031e-05   6.6707677e-05
   0.0091398493      0.84828036   0.00039662313   6.0616193e-20               0               0               0   0.00024756111   6.9501299e-05   6.9501894e-05
    0.010325776      0.86444084   0.00046842155   2.5778698e-20               0               0               0   0.00024794847   7.1610374e-05   7.1610933e-05
     0.01166558      0.88120702    0.0005535919    4.900031e-21               0               0               0   0.00024817756   7.2790988e-05   7.2791529e-05
    0.013179228      0.89854537   0.00065413965   1.6397316e-20               0               0               0   0.00024815567   7.2749089e-05   7.2749629e-05
    0.014889277      0.91636191   0.00077203379   1.4082007e-20               0               0               0   0.00024775185   7.1132343e-05    7.113291e-05
    0.016821209      0.93446136   0.00090856635    4.157881e-20               0               0               0    0.0002467922    6.752316e-05   6.7523792e-05
    0.019003816      0.95247757    0.0010632171   6.5192421e-20               0               0               0   0.00024505364   6.1433166e-05   6.1433941e-05
    0.021469624      0.96975263    0.0012316087    3.353161e-20               0               0               0   0.00024228883   5.2292644e-05   5.2293763e-05
    0.024255377      0.98516444    0.0014048547   1.3878347e-20               0               0               0   0.00023836614   3.9256042e-05   3.9258497e-05
    0.027402591      0.99661939    0.0015423962   1.6450007e-21               0               0               0   0.00023278434   2.2512411e-05   2.2541853e-05
    0.030958166       1.0023368    0.0016046797               0               0               0               0   0.00022549551   8.2061164e-06   8.3990383e-06
    0.034975088       1.0037617    0.0016139728               0               0               0               0   0.00021783652   2.2361461e-06   2.6670564e-06
    0.039513219       1.0038581    0.0016052552   1.9842838e-20               0               0               0   0.00021056721   1.4449058e-06   1.9788438e-06
    0.044640187       1.0038601    0.0015948002   2.8292118e-20               0               0               0   0.00020335384     1.43866e-06   1.9741052e-06
    0.050432395       1.0038658    0.0015845193   6.9802079e-21               0               0               0   0.00019601915   1.4469295e-06   1.9803631e-06
    0.056976161       1.0038706    0.0015722871  -1.4690355e-21               0               0               0   0.00018863909   1.4535028e-06   1.9853395e-06
    0.064369002       1.0038729    0.0015595609               0               0               0               0   0.00018134648   1.4587785e-06   1.9893357e-06
    0.072721087       1.0038711    0.0015451486               0               0               0               0   0.00017427646   1.4631688e-06   1.9926623e-06
    0.082156882       1.0038664    0.0015300194               0               0               0               0   0.00016752866   1.4668425e-06   1.9954468e-06
    0.092817002        1.003859    0.0015136109               0               0               0               0    0.0001611915   1.4706838e-06   1.9983591e-06
