#      distance             U_x             U_y             U_z wallShearStr... wallShearStr... wallShearStr...               p             nut         nuTilda
  3.0219182e-06      0.01885579   2.7096913e-09  -3.5563184e-23               0               0               0    0.0002409108   3.1859487e-12   4.3835756e-08
  5.0865428e-06      0.03174112   6.8741146e-09  -1.5136003e-23               0               0               0   0.00024091102    1.579151e-11   7.3786308e-08
  7.2269684e-06     0.045097737   1.3536405e-08  -3.8981908e-23               0               0               0   0.00024091124   5.3954558e-11   1.0483257e-07
  9.4750924e-06     0.059121683    2.306982e-08  -5.8466608e-23               0               0               0   0.00024091147   1.4693892e-10   1.3743529e-07
  1.1864417e-05     0.074015385   3.6001185e-08  -2.4741312e-23               0               0               0   0.00024091171   3.4559119e-10   1.7207777e-07
  1.4430548e-05     0.089987351   5.3089173e-08   8.0869183e-23               0               0               0   0.00024091197   7.3594244e-10   2.0927277e-07
  1.7211727e-05      0.10724915   7.5332301e-08   1.3180234e-22               0               0               0   0.00024091226   1.4613097e-09   2.4957005e-07
  2.0249401e-05      0.12600754   1.0400298e-07    2.788944e-23               0               0               0   0.00024091258   2.7575454e-09   2.9356479e-07
  2.3588836e-05      0.14644836   1.4068863e-07  -3.5574207e-23               0               0               0   0.00024091294   5.0082872e-09   3.4190778e-07
  2.7279799e-05       0.1687074   1.8731786e-07  -1.7787104e-23               0               0               0   0.00024091336   8.8298099e-09   3.9531865e-07
  3.1377293e-05       0.1928234    2.461455e-07               0               0               0               0   0.00024091387   1.5197875e-08   4.5460408e-07
  3.5942381e-05      0.21867219   3.1966117e-07   8.7733495e-23               0               0               0   0.00024091452   2.5630008e-08   5.2068242e-07
  4.1043091e-05      0.24589366   4.1038785e-07   1.3158617e-22               0               0               0   0.00024091537   4.2430459e-08   5.9461202e-07
  4.6755437e-05      0.27384645   5.2057941e-07   1.5308135e-22               0               0               0   0.00024091652   6.8978422e-08   6.7761081e-07
  5.3164546e-05       0.3016448   6.5192627e-07   1.6382549e-22               0               0               0   0.00024091815   1.0997311e-07   7.7104476e-07
  6.0365928e-05      0.32831432   8.0548105e-07  -2.3004506e-22               0               0               0   0.00024092047   1.7144606e-07   8.7637595e-07
    6.84669e-05      0.35302771   9.8197285e-07  -4.9908401e-22               0               0               0   0.00024092376    2.602978e-07   9.9510943e-07
  7.7588184e-05      0.37530169   1.1824278e-06  -2.6258293e-22               0               0               0   0.00024092831   3.8325183e-07   1.1288083e-06
   8.786571e-05      0.39505008   1.4087745e-06    4.563528e-23               0               0               0   0.00024093441   5.4545507e-07   1.2791947e-06
  9.9452634e-05       0.4124935   1.6641602e-06   2.4762332e-22               0               0               0   0.00024094225   7.4928966e-07   1.4482743e-06
  0.00011252163      0.42801128    1.952968e-06   6.8014473e-23               0               0               0    0.0002409519   9.9402348e-07   1.6384195e-06
  0.00012726745      0.44201683   2.2807001e-06  -1.0876795e-22               0               0               0   0.00024096337   1.2765803e-06    1.852402e-06
  0.00014390985      0.45488544   2.6538767e-06  -2.2935179e-23               0               0               0   0.00024097658   1.5931173e-06    2.093402e-06
  0.00016269684      0.46692608   3.0800133e-06   6.0095886e-23               0               0               0    0.0002409915   1.9406927e-06   2.3650157e-06
  0.00018390838      0.47837893   3.5676801e-06   4.4442446e-22               0               0               0   0.00024100816    2.318394e-06   2.6712758e-06
  0.00020786057      0.48942397   4.1266284e-06    5.463929e-22               0               0               0   0.00024102671   2.7277198e-06   3.0166845e-06
  0.00023491035      0.50019285    4.767968e-06   1.6206433e-22               0               0               0   0.00024104737   3.1723973e-06   3.4062587e-06
  0.00026546084      0.51078027   5.5043842e-06               0               0               0               0   0.00024107048   3.6579502e-06   3.8455837e-06
   0.0002999673      0.52125344    6.350393e-06               0               0               0               0   0.00024109645   4.1912608e-06    4.340872e-06
  0.00033894396       0.5316597   7.3226375e-06  -1.7303644e-22               0               0               0   0.00024112577   4.7802434e-06    4.899022e-06
  0.00038297165      0.54203223   8.4402339e-06  -3.4607288e-22               0               0               0     0.000241159   5.4336481e-06   5.5276752e-06
  0.00043270649      0.55239427   9.7251783e-06   6.9969274e-22               0               0               0   0.00024119678   6.1609669e-06   6.2352647e-06
  0.00048888965      0.56276233   1.1202827e-05   1.3826641e-21               0               0               0   0.00024123982   6.9724032e-06   7.0310524e-06
  0.00055235838      0.57314841   1.2902469e-05   5.0993488e-22               0               0               0   0.00024128895   7.8788658e-06   7.9251452e-06
   0.0006240585      0.58356174   1.4858012e-05               0               0               0               0   0.00024134508     8.89196e-06   8.9284841e-06
  0.00070505852         0.59401   1.7108808e-05   2.4322564e-22               0               0               0   0.00024140926    1.002395e-05   1.0052793e-05
  0.00079656552      0.60450029   1.9700656e-05   4.8645128e-22               0               0               0   0.00024148267   1.1287673e-05   1.1310472e-05
  0.00089994316      0.61503983   2.2687029e-05   2.4322564e-22               0               0               0   0.00024156664   1.2696382e-05   1.2714431e-05
    0.001016732      0.62563658   2.6130572e-05               0               0               0               0   0.00024166268   1.4263512e-05   1.4277825e-05
   0.0011486725      0.63629972   3.0104949e-05   1.0008049e-21               0               0               0    0.0002417725   1.6002335e-05   1.6013711e-05
   0.0012977308      0.64704011   3.4697119e-05  -7.8121161e-22               0               0               0   0.00024189801   1.7925513e-05    1.793458e-05
   0.0014661282      0.65787062    4.001015e-05  -3.4516638e-21               0               0               0   0.00024204133   2.0044541e-05   2.0051792e-05
   0.0016563743      0.66880653   4.6166665e-05  -2.8033237e-21               0               0               0   0.00024220482   2.2369081e-05   2.2374901e-05
   0.0018713042      0.67986576   5.3313093e-05  -1.7384686e-21               0               0               0   0.00024239103   2.4906212e-05   2.4910905e-05
   0.0021141207       0.6910691   6.1624855e-05  -6.0479221e-22               0               0               0   0.00024260272   2.7659616e-05   2.7663418e-05
   0.0023884425       0.7024404   7.1312666e-05  -4.5756075e-22               0               0               0   0.00024284277   3.0628712e-05    3.063181e-05
   0.0026983575      0.71400662   8.2630174e-05   1.1644776e-21               0               0               0   0.00024311408   3.3807754e-05   3.3810295e-05
   0.0030484842      0.72579785   9.5883155e-05  -2.4173177e-21               0               0               0   0.00024341945   3.7184844e-05   3.7186942e-05
   0.0034440402      0.73784723   0.00011144056  -5.8358783e-21               0               0               0   0.00024376135   4.0740819e-05   4.0742565e-05
   0.0038909203      0.75019081   0.00012974759  -1.7965221e-21               0               0               0   0.00024414156   4.4447909e-05   4.4449375e-05
    0.004395784       0.7628673   0.00015134105   3.8240385e-21               0               0               0   0.00024456071   4.8268074e-05   4.8269315e-05
   0.0049661549      0.77591773    0.0001768674  -4.6079364e-21               0               0               0   0.00024501769   5.2150911e-05   5.2151973e-05
   0.0056105328      0.78938496    0.0002071065  -1.5115935e-20               0               0               0   0.00024550938    5.603107e-05   5.6031989e-05
   0.0063385204      0.80331278   0.00024300593    5.664407e-21               0               0               0   0.00024602988   5.9825113e-05   5.9825918e-05
   0.0071609664      0.81774467   0.00028570903   2.0570708e-20               0               0               0   0.00024656357   6.3427786e-05   6.3428501e-05
   0.0080901272      0.83272164   0.00033637258   4.7958939e-20               0               0               0    0.0002470851   6.6707649e-05   6.6708295e-05
   0.0091398493      0.84827868   0.00039661784   6.0614778e-20               0               0               0   0.00024756328   6.9502029e-05   6.9502623e-05
    0.010325776      0.86443907   0.00046841487    2.577809e-20               0               0               0   0.00024795063   7.1611232e-05   7.1611791e-05
     0.01166558      0.88120518   0.00055358356   4.8999143e-21               0               0               0   0.00024817972   7.2791993e-05   7.2792534e-05
    0.013179228      0.89854346   0.00065412936   1.6397301e-20               0               0               0   0.00024815783   7.2750262e-05   7.2750804e-05
    0.014889277      0.91635994   0.00077202132   1.4082268e-20               0               0               0   0.00024775402   7.1133709e-05   7.1134276e-05
    0.016821209      0.93445937   0.00090855159   4.1579046e-20               0               0               0   0.00024679439   6.7524743e-05   6.7525376e-05
    0.019003816      0.95247561    0.0010632003   6.5192403e-20               0               0               0   0.00024505587   6.1434994e-05    6.143577e-05
    0.021469624      0.96975081    0.0012315904   3.3531927e-20               0               0               0    0.0002422911   5.2294743e-05   5.2295862e-05
    0.024255377      0.98516295    0.0014048371   1.3878832e-20               0               0               0   0.00023836848   3.9258512e-05   3.9260966e-05
    0.027402591       0.9966185     0.001542386   1.6451901e-21               0               0               0   0.00023278677   2.2514881e-05   2.2544309e-05
    0.030958166       1.0023366    0.0016046792               0               0               0               0   0.00022549793   8.2076814e-06   8.4005445e-06
    0.034975088       1.0037618     0.001613976               0               0               0               0    0.0002178388   2.2368161e-06    2.667627e-06
    0.039513219       1.0038582    0.0016052585      1.9843e-20               0               0               0   0.00021056934   1.4453816e-06   1.9792039e-06
    0.044640187       1.0038603    0.0015948034   2.8292185e-20               0               0               0   0.00020335586   1.4391956e-06   1.9745104e-06
    0.050432395        1.003866    0.0015845225    6.979939e-21               0               0               0   0.00019602105    1.447535e-06   1.9808214e-06
    0.056976161       1.0038708    0.0015722903  -1.4692102e-21               0               0               0   0.00018864087   1.4541784e-06   1.9858512e-06
    0.064369002       1.0038731    0.0015595639               0               0               0               0   0.00018134814   1.4595362e-06   1.9899097e-06
    0.072721087       1.0038713    0.0015451516               0               0               0               0   0.00017427799   1.4640281e-06   1.9933135e-06
    0.082156882       1.0038665    0.0015300223               0               0               0               0   0.00016753005   1.4678208e-06   1.9961883e-06
    0.092817002       1.0038592    0.0015136136               0               0               0               0   0.00016119276   1.4717926e-06   1.9991999e-06
