# Selection     : all 
# Volume        : 2.33333000e+00
# Time          	minnuTilda	location	cell	minnut	location	cell
0               	2.00000000e-06	-3.13296488e-01 1.00232707e-06 5.00000000e-01	0	1.47285058e-06	-3.13296488e-01 1.00232707e-06 5.00000000e-01	0
1               	4.33104498e-07	1.97852077e+00 1.00232707e-06 5.00000000e-01	135	3.18949105e-07	1.97852077e+00 1.00232707e-06 5.00000000e-01	135
2               	1.25151417e-07	6.03404640e-03 1.00232707e-06 5.00000000e-01	25	3.45311866e-09	6.03404640e-03 1.00232707e-06 5.00000000e-01	25
3               	6.06215062e-08	6.03404640e-03 1.00232707e-06 5.00000000e-01	25	4.14736049e-11	6.03404640e-03 1.00232707e-06 5.00000000e-01	25
4               	5.61939461e-08	6.03404640e-03 1.00232707e-06 5.00000000e-01	25	4.37190661e-12	6.03404640e-03 1.00232707e-06 5.00000000e-01	25
5               	4.95048052e-08	6.03404640e-03 1.00232707e-06 5.00000000e-01	25	3.06777851e-12	6.03404640e-03 1.00232707e-06 5.00000000e-01	25
6               	4.56839229e-08	6.03404640e-03 1.00232707e-06 5.00000000e-01	25	1.93562857e-12	6.03404640e-03 1.00232707e-06 5.00000000e-01	25
7               	4.25630422e-08	6.03404640e-03 1.00232707e-06 5.00000000e-01	25	1.41723979e-12	6.03404640e-03 1.00232707e-06 5.00000000e-01	25
8               	4.00364799e-08	6.03404640e-03 1.00232707e-06 5.00000000e-01	25	1.07814492e-12	6.03404640e-03 1.00232707e-06 5.00000000e-01	25
9               	3.78808300e-08	6.03404640e-03 1.00232707e-06 5.00000000e-01	25	8.49009167e-13	6.03404640e-03 1.00232707e-06 5.00000000e-01	25
10              	3.60427124e-08	6.03404640e-03 1.00232707e-06 5.00000000e-01	25	6.84230845e-13	6.03404640e-03 1.00232707e-06 5.00000000e-01	25
11              	3.44402836e-08	6.03404640e-03 1.00232707e-06 5.00000000e-01	25	5.63179689e-13	6.03404640e-03 1.00232707e-06 5.00000000e-01	25
12              	3.30321147e-08	6.03404640e-03 1.00232707e-06 5.00000000e-01	25	4.71265127e-13	6.03404640e-03 1.00232707e-06 5.00000000e-01	25
13              	3.17845553e-08	6.03404640e-03 1.00232707e-06 5.00000000e-01	25	4.00087307e-13	6.03404640e-03 1.00232707e-06 5.00000000e-01	25
14              	3.06419153e-08	1.07639292e+00 1.00232707e-06 5.00000000e-01	114	3.43973441e-13	6.03404640e-03 1.00232707e-06 5.00000000e-01	25
15              	2.95885117e-08	1.97852077e+00 1.00232707e-06 5.00000000e-01	135	2.97304478e-13	1.97852077e+00 1.00232707e-06 5.00000000e-01	135
16              	2.86248160e-08	1.97852077e+00 1.00232707e-06 5.00000000e-01	135	2.58966212e-13	1.97852077e+00 1.00232707e-06 5.00000000e-01	135
17              	2.77383965e-08	1.97852077e+00 1.00232707e-06 5.00000000e-01	135	2.27217026e-13	1.97852077e+00 1.00232707e-06 5.00000000e-01	135
18              	2.69191726e-08	1.97852077e+00 1.00232707e-06 5.00000000e-01	135	2.00649227e-13	1.97852077e+00 1.00232707e-06 5.00000000e-01	135
19              	2.61588771e-08	1.97852077e+00 1.00232707e-06 5.00000000e-01	135	1.78211705e-13	1.97852077e+00 1.00232707e-06 5.00000000e-01	135
20              	2.54506642e-08	1.97852077e+00 1.00232707e-06 5.00000000e-01	135	1.59106771e-13	1.97852077e+00 1.00232707e-06 5.00000000e-01	135
21              	2.47888151e-08	1.97852077e+00 1.00232707e-06 5.00000000e-01	135	1.42720249e-13	1.97852077e+00 1.00232707e-06 5.00000000e-01	135
22              	2.41685204e-08	1.97852077e+00 1.00232707e-06 5.00000000e-01	135	1.28573072e-13	1.97852077e+00 1.00232707e-06 5.00000000e-01	135
23              	2.35857178e-08	1.97852077e+00 1.00232707e-06 5.00000000e-01	135	1.16287253e-13	1.97852077e+00 1.00232707e-06 5.00000000e-01	135
24              	2.30369587e-08	1.97852077e+00 1.00232707e-06 5.00000000e-01	135	1.05561466e-13	1.97852077e+00 1.00232707e-06 5.00000000e-01	135
25              	2.25193060e-08	1.97852077e+00 1.00232707e-06 5.00000000e-01	135	9.61531562e-14	1.97852077e+00 1.00232707e-06 5.00000000e-01	135
26              	2.20302554e-08	1.97852077e+00 1.00232707e-06 5.00000000e-01	135	8.78653766e-14	1.97852077e+00 1.00232707e-06 5.00000000e-01	135
27              	2.15676726e-08	1.97852077e+00 1.00232707e-06 5.00000000e-01	135	8.05369583e-14	1.97852077e+00 1.00232707e-06 5.00000000e-01	135
28              	2.11297438e-08	1.97852077e+00 1.00232707e-06 5.00000000e-01	135	7.40350752e-14	1.97852077e+00 1.00232707e-06 5.00000000e-01	135
29              	2.07149361e-08	1.97852077e+00 1.00232707e-06 5.00000000e-01	135	6.82495554e-14	1.97852077e+00 1.00232707e-06 5.00000000e-01	135
30              	2.03219653e-08	1.97852077e+00 1.00232707e-06 5.00000000e-01	135	6.30884877e-14	1.97852077e+00 1.00232707e-06 5.00000000e-01	135
31              	1.99497702e-08	1.97852077e+00 1.00232707e-06 5.00000000e-01	135	5.84747950e-14	1.97852077e+00 1.00232707e-06 5.00000000e-01	135
32              	1.95974905e-08	1.97852077e+00 1.00232707e-06 5.00000000e-01	135	5.43435391e-14	1.97852077e+00 1.00232707e-06 5.00000000e-01	135
33              	1.92644479e-08	1.97852077e+00 1.00232707e-06 5.00000000e-01	135	5.06397765e-14	1.97852077e+00 1.00232707e-06 5.00000000e-01	135
34              	1.89501276e-08	1.97852077e+00 1.00232707e-06 5.00000000e-01	135	4.73168386e-14	1.97852077e+00 1.00232707e-06 5.00000000e-01	135
35              	1.86541602e-08	1.97852077e+00 1.00232707e-06 5.00000000e-01	135	4.43349325e-14	1.97852077e+00 1.00232707e-06 5.00000000e-01	135
36              	1.83763006e-08	1.97852077e+00 1.00232707e-06 5.00000000e-01	135	4.16599910e-14	1.97852077e+00 1.00232707e-06 5.00000000e-01	135
37              	1.81164038e-08	1.97852077e+00 1.00232707e-06 5.00000000e-01	135	3.92627104e-14	1.97852077e+00 1.00232707e-06 5.00000000e-01	135
38              	1.78744017e-08	1.97852077e+00 1.00232707e-06 5.00000000e-01	135	3.71177427e-14	1.97852077e+00 1.00232707e-06 5.00000000e-01	135
39              	1.76502676e-08	1.97852077e+00 1.00232707e-06 5.00000000e-01	135	3.52030211e-14	1.97852077e+00 1.00232707e-06 5.00000000e-01	135
40              	1.74439836e-08	1.97852077e+00 1.00232707e-06 5.00000000e-01	135	3.34991421e-14	1.97852077e+00 1.00232707e-06 5.00000000e-01	135
41              	1.72555047e-08	1.97852077e+00 1.00232707e-06 5.00000000e-01	135	3.19888656e-14	1.97852077e+00 1.00232707e-06 5.00000000e-01	135
42              	1.70847220e-08	1.97852077e+00 1.00232707e-06 5.00000000e-01	135	3.06566786e-14	1.97852077e+00 1.00232707e-06 5.00000000e-01	135
43              	1.69314299e-08	1.97852077e+00 1.00232707e-06 5.00000000e-01	135	2.94884263e-14	1.97852077e+00 1.00232707e-06 5.00000000e-01	135
44              	1.67952963e-08	1.97852077e+00 1.00232707e-06 5.00000000e-01	135	2.84710061e-14	1.97852077e+00 1.00232707e-06 5.00000000e-01	135
45              	1.66758432e-08	1.97852077e+00 1.00232707e-06 5.00000000e-01	135	2.75921196e-14	1.97852077e+00 1.00232707e-06 5.00000000e-01	135
46              	1.65724357e-08	1.97852077e+00 1.00232707e-06 5.00000000e-01	135	2.68400932e-14	1.97852077e+00 1.00232707e-06 5.00000000e-01	135
47              	1.64842823e-08	1.97852077e+00 1.00232707e-06 5.00000000e-01	135	2.62037441e-14	1.97852077e+00 1.00232707e-06 5.00000000e-01	135
48              	1.64104463e-08	1.97852077e+00 1.00232707e-06 5.00000000e-01	135	2.56723017e-14	1.97852077e+00 1.00232707e-06 5.00000000e-01	135
49              	1.63498680e-08	1.97852077e+00 1.00232707e-06 5.00000000e-01	135	2.52353729e-14	1.97852077e+00 1.00232707e-06 5.00000000e-01	135
50              	1.63013933e-08	1.97852077e+00 1.00232707e-06 5.00000000e-01	135	2.48829450e-14	1.97852077e+00 1.00232707e-06 5.00000000e-01	135
51              	1.62638082e-08	1.97852077e+00 1.00232707e-06 5.00000000e-01	135	2.46054170e-14	1.97852077e+00 1.00232707e-06 5.00000000e-01	135
52              	1.62358741e-08	1.97852077e+00 1.00232707e-06 5.00000000e-01	135	2.43936464e-14	1.97852077e+00 1.00232707e-06 5.00000000e-01	135
53              	1.62163609e-08	1.97852077e+00 1.00232707e-06 5.00000000e-01	135	2.42390026e-14	1.97852077e+00 1.00232707e-06 5.00000000e-01	135
54              	1.62040762e-08	1.97852077e+00 1.00232707e-06 5.00000000e-01	135	2.41334161e-14	1.97852077e+00 1.00232707e-06 5.00000000e-01	135
55              	1.61978882e-08	1.97852077e+00 1.00232707e-06 5.00000000e-01	135	2.40694157e-14	1.97852077e+00 1.00232707e-06 5.00000000e-01	135
56              	1.61967422e-08	1.97852077e+00 1.00232707e-06 5.00000000e-01	135	2.40401504e-14	1.97852077e+00 1.00232707e-06 5.00000000e-01	135
57              	1.61996713e-08	1.97852077e+00 1.00232707e-06 5.00000000e-01	135	2.40393952e-14	1.97852077e+00 1.00232707e-06 5.00000000e-01	135
58              	1.62058009e-08	1.97852077e+00 1.00232707e-06 5.00000000e-01	135	2.40615406e-14	1.97852077e+00 1.00232707e-06 5.00000000e-01	135
59              	1.62143503e-08	1.97852077e+00 1.00232707e-06 5.00000000e-01	135	2.41015723e-14	1.97852077e+00 1.00232707e-06 5.00000000e-01	135
60              	1.62246304e-08	1.97852077e+00 1.00232707e-06 5.00000000e-01	135	2.41550416e-14	1.97852077e+00 1.00232707e-06 5.00000000e-01	135
61              	1.62359865e-08	1.97852077e+00 1.00232707e-06 5.00000000e-01	135	2.42179532e-14	1.97852077e+00 1.00232707e-06 5.00000000e-01	135
62              	1.62479144e-08	1.97852077e+00 1.00232707e-06 5.00000000e-01	135	2.42866707e-14	1.97852077e+00 1.00232707e-06 5.00000000e-01	135
63              	1.62600269e-08	1.97852077e+00 1.00232707e-06 5.00000000e-01	135	2.43583824e-14	1.97852077e+00 1.00232707e-06 5.00000000e-01	135
64              	1.62719599e-08	1.97852077e+00 1.00232707e-06 5.00000000e-01	135	2.44308152e-14	1.97852077e+00 1.00232707e-06 5.00000000e-01	135
65              	1.62834052e-08	1.97852077e+00 1.00232707e-06 5.00000000e-01	135	2.45018649e-14	1.97852077e+00 1.00232707e-06 5.00000000e-01	135
66              	1.62941109e-08	1.97852077e+00 1.00232707e-06 5.00000000e-01	135	2.45697462e-14	1.97852077e+00 1.00232707e-06 5.00000000e-01	135
67              	1.63038770e-08	1.97852077e+00 1.00232707e-06 5.00000000e-01	135	2.46329944e-14	1.97852077e+00 1.00232707e-06 5.00000000e-01	135
68              	1.63125492e-08	1.97852077e+00 1.00232707e-06 5.00000000e-01	135	2.46904394e-14	1.97852077e+00 1.00232707e-06 5.00000000e-01	135
69              	1.63200135e-08	1.97852077e+00 1.00232707e-06 5.00000000e-01	135	2.47411754e-14	1.97852077e+00 1.00232707e-06 5.00000000e-01	135
70              	1.63261904e-08	1.97852077e+00 1.00232707e-06 5.00000000e-01	135	2.47845309e-14	1.97852077e+00 1.00232707e-06 5.00000000e-01	135
71              	1.63310304e-08	1.97852077e+00 1.00232707e-06 5.00000000e-01	135	2.48200393e-14	1.97852077e+00 1.00232707e-06 5.00000000e-01	135
72              	1.63345090e-08	1.97852077e+00 1.00232707e-06 5.00000000e-01	135	2.48474115e-14	1.97852077e+00 1.00232707e-06 5.00000000e-01	135
73              	1.63366225e-08	1.97852077e+00 1.00232707e-06 5.00000000e-01	135	2.48665097e-14	1.97852077e+00 1.00232707e-06 5.00000000e-01	135
74              	1.63373846e-08	1.97852077e+00 1.00232707e-06 5.00000000e-01	135	2.48773239e-14	1.97852077e+00 1.00232707e-06 5.00000000e-01	135
75              	1.63368215e-08	1.97852077e+00 1.00232707e-06 5.00000000e-01	135	2.48799481e-14	1.97852077e+00 1.00232707e-06 5.00000000e-01	135
76              	1.63349355e-08	1.97852077e+00 1.00232707e-06 5.00000000e-01	135	2.48745036e-14	1.97852077e+00 1.00232707e-06 5.00000000e-01	135
77              	1.63317999e-08	1.97852077e+00 1.00232707e-06 5.00000000e-01	135	2.48611164e-14	1.97852077e+00 1.00232707e-06 5.00000000e-01	135
78              	1.63274771e-08	1.97852077e+00 1.00232707e-06 5.00000000e-01	135	2.48402260e-14	1.97852077e+00 1.00232707e-06 5.00000000e-01	135
79              	1.63220268e-08	1.97852077e+00 1.00232707e-06 5.00000000e-01	135	2.48122212e-14	1.97852077e+00 1.00232707e-06 5.00000000e-01	135
80              	1.63155100e-08	1.97852077e+00 1.00232707e-06 5.00000000e-01	135	2.47774851e-14	1.97852077e+00 1.00232707e-06 5.00000000e-01	135
81              	1.63079888e-08	1.97852077e+00 1.00232707e-06 5.00000000e-01	135	2.47364102e-14	1.97852077e+00 1.00232707e-06 5.00000000e-01	135
82              	1.62995259e-08	1.97852077e+00 1.00232707e-06 5.00000000e-01	135	2.46893978e-14	1.97852077e+00 1.00232707e-06 5.00000000e-01	135
83              	1.62901838e-08	1.97852077e+00 1.00232707e-06 5.00000000e-01	135	2.46368519e-14	1.97852077e+00 1.00232707e-06 5.00000000e-01	135
84              	1.62800236e-08	1.97852077e+00 1.00232707e-06 5.00000000e-01	135	2.45791744e-14	1.97852077e+00 1.00232707e-06 5.00000000e-01	135
85              	1.62691056e-08	1.97852077e+00 1.00232707e-06 5.00000000e-01	135	2.45167604e-14	1.97852077e+00 1.00232707e-06 5.00000000e-01	135
86              	1.62574875e-08	1.97852077e+00 1.00232707e-06 5.00000000e-01	135	2.44499950e-14	1.97852077e+00 1.00232707e-06 5.00000000e-01	135
87              	1.62452256e-08	1.97852077e+00 1.00232707e-06 5.00000000e-01	135	2.43792505e-14	1.97852077e+00 1.00232707e-06 5.00000000e-01	135
88              	1.62323732e-08	1.97852077e+00 1.00232707e-06 5.00000000e-01	135	2.43048852e-14	1.97852077e+00 1.00232707e-06 5.00000000e-01	135
89              	1.62189818e-08	1.97852077e+00 1.00232707e-06 5.00000000e-01	135	2.42272412e-14	1.97852077e+00 1.00232707e-06 5.00000000e-01	135
90              	1.62050998e-08	1.97852077e+00 1.00232707e-06 5.00000000e-01	135	2.41466444e-14	1.97852077e+00 1.00232707e-06 5.00000000e-01	135
91              	1.61907736e-08	1.97852077e+00 1.00232707e-06 5.00000000e-01	135	2.40634035e-14	1.97852077e+00 1.00232707e-06 5.00000000e-01	135
92              	1.61760467e-08	1.97852077e+00 1.00232707e-06 5.00000000e-01	135	2.39778101e-14	1.97852077e+00 1.00232707e-06 5.00000000e-01	135
93              	1.61609604e-08	1.97852077e+00 1.00232707e-06 5.00000000e-01	135	2.38901385e-14	1.97852077e+00 1.00232707e-06 5.00000000e-01	135
94              	1.61455533e-08	1.97852077e+00 1.00232707e-06 5.00000000e-01	135	2.38006467e-14	1.97852077e+00 1.00232707e-06 5.00000000e-01	135
95              	1.61298621e-08	1.97852077e+00 1.00232707e-06 5.00000000e-01	135	2.37095758e-14	1.97852077e+00 1.00232707e-06 5.00000000e-01	135
96              	1.61139207e-08	1.97852077e+00 1.00232707e-06 5.00000000e-01	135	2.36171514e-14	1.97852077e+00 1.00232707e-06 5.00000000e-01	135
97              	1.60977614e-08	1.97852077e+00 1.00232707e-06 5.00000000e-01	135	2.35235839e-14	1.97852077e+00 1.00232707e-06 5.00000000e-01	135
98              	1.60814141e-08	1.97852077e+00 1.00232707e-06 5.00000000e-01	135	2.34290689e-14	1.97852077e+00 1.00232707e-06 5.00000000e-01	135
99              	1.60649068e-08	1.97852077e+00 1.00232707e-06 5.00000000e-01	135	2.33337882e-14	1.97852077e+00 1.00232707e-06 5.00000000e-01	135
100             	1.60482658e-08	1.97852077e+00 1.00232707e-06 5.00000000e-01	135	2.32379106e-14	1.97852077e+00 1.00232707e-06 5.00000000e-01	135
101             	1.60315153e-08	1.97852077e+00 1.00232707e-06 5.00000000e-01	135	2.31415923e-14	1.97852077e+00 1.00232707e-06 5.00000000e-01	135
102             	1.60146783e-08	1.97852077e+00 1.00232707e-06 5.00000000e-01	135	2.30449774e-14	1.97852077e+00 1.00232707e-06 5.00000000e-01	135
103             	1.59977759e-08	1.97852077e+00 1.00232707e-06 5.00000000e-01	135	2.29481993e-14	1.97852077e+00 1.00232707e-06 5.00000000e-01	135
104             	1.59808278e-08	1.97852077e+00 1.00232707e-06 5.00000000e-01	135	2.28513807e-14	1.97852077e+00 1.00232707e-06 5.00000000e-01	135
105             	1.59638523e-08	1.97852077e+00 1.00232707e-06 5.00000000e-01	135	2.27546346e-14	1.97852077e+00 1.00232707e-06 5.00000000e-01	135
106             	1.59468664e-08	1.97852077e+00 1.00232707e-06 5.00000000e-01	135	2.26580645e-14	1.97852077e+00 1.00232707e-06 5.00000000e-01	135
107             	1.59298858e-08	1.97852077e+00 1.00232707e-06 5.00000000e-01	135	2.25617655e-14	1.97852077e+00 1.00232707e-06 5.00000000e-01	135
108             	1.59129251e-08	1.97852077e+00 1.00232707e-06 5.00000000e-01	135	2.24658244e-14	1.97852077e+00 1.00232707e-06 5.00000000e-01	135
109             	1.58959978e-08	1.97852077e+00 1.00232707e-06 5.00000000e-01	135	2.23703206e-14	1.97852077e+00 1.00232707e-06 5.00000000e-01	135
110             	1.58791164e-08	1.97852077e+00 1.00232707e-06 5.00000000e-01	135	2.22753262e-14	1.97852077e+00 1.00232707e-06 5.00000000e-01	135
111             	1.58622922e-08	1.97852077e+00 1.00232707e-06 5.00000000e-01	135	2.21809069e-14	1.97852077e+00 1.00232707e-06 5.00000000e-01	135
112             	1.58455359e-08	1.97852077e+00 1.00232707e-06 5.00000000e-01	135	2.20871220e-14	1.97852077e+00 1.00232707e-06 5.00000000e-01	135
113             	1.58288571e-08	1.97852077e+00 1.00232707e-06 5.00000000e-01	135	2.19940251e-14	1.97852077e+00 1.00232707e-06 5.00000000e-01	135
114             	1.58122648e-08	1.97852077e+00 1.00232707e-06 5.00000000e-01	135	2.19016645e-14	1.97852077e+00 1.00232707e-06 5.00000000e-01	135
115             	1.57957671e-08	1.97852077e+00 1.00232707e-06 5.00000000e-01	135	2.18100834e-14	1.97852077e+00 1.00232707e-06 5.00000000e-01	135
116             	1.57793714e-08	1.97852077e+00 1.00232707e-06 5.00000000e-01	135	2.17193204e-14	1.97852077e+00 1.00232707e-06 5.00000000e-01	135
117             	1.57630845e-08	1.97852077e+00 1.00232707e-06 5.00000000e-01	135	2.16294098e-14	1.97852077e+00 1.00232707e-06 5.00000000e-01	135
118             	1.57469125e-08	1.97852077e+00 1.00232707e-06 5.00000000e-01	135	2.15403818e-14	1.97852077e+00 1.00232707e-06 5.00000000e-01	135
119             	1.57308610e-08	1.97852077e+00 1.00232707e-06 5.00000000e-01	135	2.14522630e-14	1.97852077e+00 1.00232707e-06 5.00000000e-01	135
120             	1.57149350e-08	1.97852077e+00 1.00232707e-06 5.00000000e-01	135	2.13650762e-14	1.97852077e+00 1.00232707e-06 5.00000000e-01	135
121             	1.56991389e-08	1.97852077e+00 1.00232707e-06 5.00000000e-01	135	2.12788414e-14	1.97852077e+00 1.00232707e-06 5.00000000e-01	135
122             	1.56834769e-08	1.97852077e+00 1.00232707e-06 5.00000000e-01	135	2.11935753e-14	1.97852077e+00 1.00232707e-06 5.00000000e-01	135
123             	1.56679524e-08	1.97852077e+00 1.00232707e-06 5.00000000e-01	135	2.11092921e-14	1.97852077e+00 1.00232707e-06 5.00000000e-01	135
124             	1.56525686e-08	1.97852077e+00 1.00232707e-06 5.00000000e-01	135	2.10260034e-14	1.97852077e+00 1.00232707e-06 5.00000000e-01	135
125             	1.56373283e-08	1.97852077e+00 1.00232707e-06 5.00000000e-01	135	2.09437183e-14	1.97852077e+00 1.00232707e-06 5.00000000e-01	135
126             	1.56222339e-08	1.97852077e+00 1.00232707e-06 5.00000000e-01	135	2.08624441e-14	1.97852077e+00 1.00232707e-06 5.00000000e-01	135
127             	1.56072874e-08	1.97852077e+00 1.00232707e-06 5.00000000e-01	135	2.07821858e-14	1.97852077e+00 1.00232707e-06 5.00000000e-01	135
128             	1.55924906e-08	1.97852077e+00 1.00232707e-06 5.00000000e-01	135	2.07029467e-14	1.97852077e+00 1.00232707e-06 5.00000000e-01	135
129             	1.55778450e-08	1.97852077e+00 1.00232707e-06 5.00000000e-01	135	2.06247287e-14	1.97852077e+00 1.00232707e-06 5.00000000e-01	135
130             	1.55633517e-08	1.97852077e+00 1.00232707e-06 5.00000000e-01	135	2.05475318e-14	1.97852077e+00 1.00232707e-06 5.00000000e-01	135
131             	1.55490118e-08	1.97852077e+00 1.00232707e-06 5.00000000e-01	135	2.04713549e-14	1.97852077e+00 1.00232707e-06 5.00000000e-01	135
132             	1.55348258e-08	1.97852077e+00 1.00232707e-06 5.00000000e-01	135	2.03961954e-14	1.97852077e+00 1.00232707e-06 5.00000000e-01	135
133             	1.55207944e-08	1.97852077e+00 1.00232707e-06 5.00000000e-01	135	2.03220498e-14	1.97852077e+00 1.00232707e-06 5.00000000e-01	135
134             	1.55069178e-08	1.97852077e+00 1.00232707e-06 5.00000000e-01	135	2.02489135e-14	1.97852077e+00 1.00232707e-06 5.00000000e-01	135
135             	1.54931961e-08	1.97852077e+00 1.00232707e-06 5.00000000e-01	135	2.01767808e-14	1.97852077e+00 1.00232707e-06 5.00000000e-01	135
136             	1.54796294e-08	1.97852077e+00 1.00232707e-06 5.00000000e-01	135	2.01056454e-14	1.97852077e+00 1.00232707e-06 5.00000000e-01	135
137             	1.54662173e-08	1.97852077e+00 1.00232707e-06 5.00000000e-01	135	2.00355000e-14	1.97852077e+00 1.00232707e-06 5.00000000e-01	135
138             	1.54529596e-08	1.97852077e+00 1.00232707e-06 5.00000000e-01	135	1.99663369e-14	1.97852077e+00 1.00232707e-06 5.00000000e-01	135
139             	1.54398557e-08	1.97852077e+00 1.00232707e-06 5.00000000e-01	135	1.98981476e-14	1.97852077e+00 1.00232707e-06 5.00000000e-01	135
140             	1.54269051e-08	1.97852077e+00 1.00232707e-06 5.00000000e-01	135	1.98309230e-14	1.97852077e+00 1.00232707e-06 5.00000000e-01	135
141             	1.54141072e-08	1.97852077e+00 1.00232707e-06 5.00000000e-01	135	1.97646538e-14	1.97852077e+00 1.00232707e-06 5.00000000e-01	135
142             	1.54014610e-08	1.97852077e+00 1.00232707e-06 5.00000000e-01	135	1.96993300e-14	1.97852077e+00 1.00232707e-06 5.00000000e-01	135
143             	1.53889658e-08	1.97852077e+00 1.00232707e-06 5.00000000e-01	135	1.96349414e-14	1.97852077e+00 1.00232707e-06 5.00000000e-01	135
144             	1.53766206e-08	1.97852077e+00 1.00232707e-06 5.00000000e-01	135	1.95714776e-14	1.97852077e+00 1.00232707e-06 5.00000000e-01	135
145             	1.53644243e-08	1.97852077e+00 1.00232707e-06 5.00000000e-01	135	1.95089277e-14	1.97852077e+00 1.00232707e-06 5.00000000e-01	135
146             	1.53523759e-08	1.97852077e+00 1.00232707e-06 5.00000000e-01	135	1.94472808e-14	1.97852077e+00 1.00232707e-06 5.00000000e-01	135
147             	1.53404742e-08	1.97852077e+00 1.00232707e-06 5.00000000e-01	135	1.93865257e-14	1.97852077e+00 1.00232707e-06 5.00000000e-01	135
148             	1.53287180e-08	1.97852077e+00 1.00232707e-06 5.00000000e-01	135	1.93266511e-14	1.97852077e+00 1.00232707e-06 5.00000000e-01	135
149             	1.53171062e-08	1.97852077e+00 1.00232707e-06 5.00000000e-01	135	1.92676456e-14	1.97852077e+00 1.00232707e-06 5.00000000e-01	135
150             	1.53056374e-08	1.97852077e+00 1.00232707e-06 5.00000000e-01	135	1.92094978e-14	1.97852077e+00 1.00232707e-06 5.00000000e-01	135
151             	1.52943103e-08	1.97852077e+00 1.00232707e-06 5.00000000e-01	135	1.91521961e-14	1.97852077e+00 1.00232707e-06 5.00000000e-01	135
152             	1.52831237e-08	1.97852077e+00 1.00232707e-06 5.00000000e-01	135	1.90957291e-14	1.97852077e+00 1.00232707e-06 5.00000000e-01	135
153             	1.52720760e-08	1.97852077e+00 1.00232707e-06 5.00000000e-01	135	1.90400850e-14	1.97852077e+00 1.00232707e-06 5.00000000e-01	135
154             	1.52611661e-08	1.97852077e+00 1.00232707e-06 5.00000000e-01	135	1.89852525e-14	1.97852077e+00 1.00232707e-06 5.00000000e-01	135
155             	1.52503924e-08	1.97852077e+00 1.00232707e-06 5.00000000e-01	135	1.89312200e-14	1.97852077e+00 1.00232707e-06 5.00000000e-01	135
156             	1.52397536e-08	1.97852077e+00 1.00232707e-06 5.00000000e-01	135	1.88779759e-14	1.97852077e+00 1.00232707e-06 5.00000000e-01	135
157             	1.52292482e-08	1.97852077e+00 1.00232707e-06 5.00000000e-01	135	1.88255090e-14	1.97852077e+00 1.00232707e-06 5.00000000e-01	135
158             	1.52188748e-08	1.97852077e+00 1.00232707e-06 5.00000000e-01	135	1.87738079e-14	1.97852077e+00 1.00232707e-06 5.00000000e-01	135
159             	1.52086321e-08	1.97852077e+00 1.00232707e-06 5.00000000e-01	135	1.87228614e-14	1.97852077e+00 1.00232707e-06 5.00000000e-01	135
160             	1.51985185e-08	1.97852077e+00 1.00232707e-06 5.00000000e-01	135	1.86726583e-14	1.97852077e+00 1.00232707e-06 5.00000000e-01	135
161             	1.51885326e-08	1.97852077e+00 1.00232707e-06 5.00000000e-01	135	1.86231876e-14	1.97852077e+00 1.00232707e-06 5.00000000e-01	135
162             	1.51786729e-08	1.97852077e+00 1.00232707e-06 5.00000000e-01	135	1.85744383e-14	1.97852077e+00 1.00232707e-06 5.00000000e-01	135
163             	1.51689382e-08	1.97852077e+00 1.00232707e-06 5.00000000e-01	135	1.85263996e-14	1.97852077e+00 1.00232707e-06 5.00000000e-01	135
164             	1.51593268e-08	1.97852077e+00 1.00232707e-06 5.00000000e-01	135	1.84790609e-14	1.97852077e+00 1.00232707e-06 5.00000000e-01	135
165             	1.51498374e-08	1.97852077e+00 1.00232707e-06 5.00000000e-01	135	1.84324114e-14	1.97852077e+00 1.00232707e-06 5.00000000e-01	135
166             	1.51404686e-08	1.97852077e+00 1.00232707e-06 5.00000000e-01	135	1.83864409e-14	1.97852077e+00 1.00232707e-06 5.00000000e-01	135
167             	1.51312189e-08	1.97852077e+00 1.00232707e-06 5.00000000e-01	135	1.83411390e-14	1.97852077e+00 1.00232707e-06 5.00000000e-01	135
168             	1.51220869e-08	1.97852077e+00 1.00232707e-06 5.00000000e-01	135	1.82964955e-14	1.97852077e+00 1.00232707e-06 5.00000000e-01	135
169             	1.51130713e-08	1.97852077e+00 1.00232707e-06 5.00000000e-01	135	1.82525004e-14	1.97852077e+00 1.00232707e-06 5.00000000e-01	135
170             	1.51041707e-08	1.97852077e+00 1.00232707e-06 5.00000000e-01	135	1.82091437e-14	1.97852077e+00 1.00232707e-06 5.00000000e-01	135
171             	1.50953836e-08	1.97852077e+00 1.00232707e-06 5.00000000e-01	135	1.81664158e-14	1.97852077e+00 1.00232707e-06 5.00000000e-01	135
172             	1.50867087e-08	1.97852077e+00 1.00232707e-06 5.00000000e-01	135	1.81243069e-14	1.97852077e+00 1.00232707e-06 5.00000000e-01	135
173             	1.50781446e-08	1.97852077e+00 1.00232707e-06 5.00000000e-01	135	1.80828076e-14	1.97852077e+00 1.00232707e-06 5.00000000e-01	135
174             	1.50696900e-08	1.97852077e+00 1.00232707e-06 5.00000000e-01	135	1.80419087e-14	1.97852077e+00 1.00232707e-06 5.00000000e-01	135
175             	1.50613436e-08	1.97852077e+00 1.00232707e-06 5.00000000e-01	135	1.80016007e-14	1.97852077e+00 1.00232707e-06 5.00000000e-01	135
176             	1.50531041e-08	1.97852077e+00 1.00232707e-06 5.00000000e-01	135	1.79618748e-14	1.97852077e+00 1.00232707e-06 5.00000000e-01	135
177             	1.50449700e-08	1.97852077e+00 1.00232707e-06 5.00000000e-01	135	1.79227219e-14	1.97852077e+00 1.00232707e-06 5.00000000e-01	135
178             	1.50369402e-08	1.97852077e+00 1.00232707e-06 5.00000000e-01	135	1.78841334e-14	1.97852077e+00 1.00232707e-06 5.00000000e-01	135
179             	1.50290133e-08	1.97852077e+00 1.00232707e-06 5.00000000e-01	135	1.78461005e-14	1.97852077e+00 1.00232707e-06 5.00000000e-01	135
180             	1.50211881e-08	1.97852077e+00 1.00232707e-06 5.00000000e-01	135	1.78086148e-14	1.97852077e+00 1.00232707e-06 5.00000000e-01	135
181             	1.50134633e-08	1.97852077e+00 1.00232707e-06 5.00000000e-01	135	1.77716680e-14	1.97852077e+00 1.00232707e-06 5.00000000e-01	135
182             	1.50058377e-08	1.97852077e+00 1.00232707e-06 5.00000000e-01	135	1.77352517e-14	1.97852077e+00 1.00232707e-06 5.00000000e-01	135
183             	1.49983100e-08	1.97852077e+00 1.00232707e-06 5.00000000e-01	135	1.76993581e-14	1.97852077e+00 1.00232707e-06 5.00000000e-01	135
184             	1.49908791e-08	1.97852077e+00 1.00232707e-06 5.00000000e-01	135	1.76639790e-14	1.97852077e+00 1.00232707e-06 5.00000000e-01	135
185             	1.49835438e-08	1.97852077e+00 1.00232707e-06 5.00000000e-01	135	1.76291066e-14	1.97852077e+00 1.00232707e-06 5.00000000e-01	135
186             	1.49763028e-08	1.97852077e+00 1.00232707e-06 5.00000000e-01	135	1.75947334e-14	1.97852077e+00 1.00232707e-06 5.00000000e-01	135
187             	1.49691550e-08	1.97852077e+00 1.00232707e-06 5.00000000e-01	135	1.75608518e-14	1.97852077e+00 1.00232707e-06 5.00000000e-01	135
188             	1.49620992e-08	1.97852077e+00 1.00232707e-06 5.00000000e-01	135	1.75274542e-14	1.97852077e+00 1.00232707e-06 5.00000000e-01	135
189             	1.49551343e-08	1.97852077e+00 1.00232707e-06 5.00000000e-01	135	1.74945335e-14	1.97852077e+00 1.00232707e-06 5.00000000e-01	135
190             	1.49482591e-08	1.97852077e+00 1.00232707e-06 5.00000000e-01	135	1.74620823e-14	1.97852077e+00 1.00232707e-06 5.00000000e-01	135
191             	1.49414726e-08	1.97852077e+00 1.00232707e-06 5.00000000e-01	135	1.74300935e-14	1.97852077e+00 1.00232707e-06 5.00000000e-01	135
192             	1.49347736e-08	1.97852077e+00 1.00232707e-06 5.00000000e-01	135	1.73985603e-14	1.97852077e+00 1.00232707e-06 5.00000000e-01	135
193             	1.49281610e-08	1.97852077e+00 1.00232707e-06 5.00000000e-01	135	1.73674757e-14	1.97852077e+00 1.00232707e-06 5.00000000e-01	135
194             	1.49216336e-08	1.97852077e+00 1.00232707e-06 5.00000000e-01	135	1.73368329e-14	1.97852077e+00 1.00232707e-06 5.00000000e-01	135
195             	1.49151906e-08	1.97852077e+00 1.00232707e-06 5.00000000e-01	135	1.73066252e-14	1.97852077e+00 1.00232707e-06 5.00000000e-01	135
196             	1.49088307e-08	1.97852077e+00 1.00232707e-06 5.00000000e-01	135	1.72768461e-14	1.97852077e+00 1.00232707e-06 5.00000000e-01	135
197             	1.49025529e-08	1.97852077e+00 1.00232707e-06 5.00000000e-01	135	1.72474892e-14	1.97852077e+00 1.00232707e-06 5.00000000e-01	135
198             	1.48963561e-08	1.97852077e+00 1.00232707e-06 5.00000000e-01	135	1.72185479e-14	1.97852077e+00 1.00232707e-06 5.00000000e-01	135
199             	1.48902394e-08	1.97852077e+00 1.00232707e-06 5.00000000e-01	135	1.71900162e-14	1.97852077e+00 1.00232707e-06 5.00000000e-01	135
200             	1.48842017e-08	1.97852077e+00 1.00232707e-06 5.00000000e-01	135	1.71618877e-14	1.97852077e+00 1.00232707e-06 5.00000000e-01	135
201             	1.48782421e-08	1.97852077e+00 1.00232707e-06 5.00000000e-01	135	1.71341565e-14	1.97852077e+00 1.00232707e-06 5.00000000e-01	135
202             	1.48723594e-08	1.97852077e+00 1.00232707e-06 5.00000000e-01	135	1.71068166e-14	1.97852077e+00 1.00232707e-06 5.00000000e-01	135
203             	1.48665528e-08	1.97852077e+00 1.00232707e-06 5.00000000e-01	135	1.70798622e-14	1.97852077e+00 1.00232707e-06 5.00000000e-01	135
204             	1.48608213e-08	1.97852077e+00 1.00232707e-06 5.00000000e-01	135	1.70532874e-14	1.97852077e+00 1.00232707e-06 5.00000000e-01	135
205             	1.48551638e-08	1.97852077e+00 1.00232707e-06 5.00000000e-01	135	1.70270867e-14	1.97852077e+00 1.00232707e-06 5.00000000e-01	135