# Selection     : all 
# Volume        : 5.16250000e-02
# Time          	maxMag(U)	location	cell
0               	5.40000000e+00	(-4.68052535e-02 1.01701236e-05 5.00000000e-02)	0
1               	5.42562720e+00	(2.74971497e-04 2.52681188e-04 5.00000000e-02)	9079
2               	5.48059237e+00	(4.01327271e-04 2.18863888e-04 5.00000000e-02)	8481
3               	5.50838669e+00	(4.01327271e-04 1.87008177e-04 5.00000000e-02)	7881
4               	5.52089929e+00	(5.95845619e-04 2.18863888e-04 5.00000000e-02)	8484
5               	5.52796998e+00	(5.95845619e-04 2.18863888e-04 5.00000000e-02)	8484
6               	5.53024885e+00	(5.30332311e-04 2.18863888e-04 5.00000000e-02)	8483
7               	5.52915439e+00	(5.30332311e-04 2.18863888e-04 5.00000000e-02)	8483
8               	5.52636607e+00	(6.62042164e-04 2.52681188e-04 5.00000000e-02)	9085
9               	5.52237033e+00	(6.62042164e-04 2.52681188e-04 5.00000000e-02)	9085
10              	5.51757981e+00	(7.96513540e-04 2.88580868e-04 5.00000000e-02)	9687
11              	5.51416367e+00	(8.64802847e-04 2.88580868e-04 5.00000000e-02)	9688
12              	5.51128915e+00	(1.00352545e-03 3.26691153e-04 5.00000000e-02)	10290
13              	5.50847224e+00	(1.00352545e-03 3.26691153e-04 5.00000000e-02)	10290
14              	5.50585692e+00	(1.21708191e-03 3.67148169e-04 5.00000000e-02)	10893
15              	5.50353438e+00	(1.21708191e-03 3.67148169e-04 5.00000000e-02)	10893
16              	5.50104487e+00	(1.21708191e-03 3.67148169e-04 5.00000000e-02)	10893
17              	5.49888351e+00	(1.43738982e-03 4.10096419e-04 5.00000000e-02)	11496
18              	5.49697317e+00	(1.51236281e-03 4.10096419e-04 5.00000000e-02)	11497
19              	5.49510908e+00	(1.51236281e-03 4.10096419e-04 5.00000000e-02)	11497
20              	5.49327515e+00	(1.74200583e-03 4.55689308e-04 5.00000000e-02)	12100
21              	5.49175682e+00	(1.74200583e-03 4.55689308e-04 5.00000000e-02)	12100
22              	5.49023349e+00	(1.74200583e-03 4.55689308e-04 5.00000000e-02)	12100
23              	5.48872699e+00	(1.74200583e-03 4.55689308e-04 5.00000000e-02)	12100
24              	5.48726191e+00	(1.74200583e-03 4.55689308e-04 5.00000000e-02)	12100
25              	5.48598720e+00	(2.05952936e-03 5.04089685e-04 5.00000000e-02)	12704
26              	5.48474043e+00	(2.05952936e-03 5.04089685e-04 5.00000000e-02)	12704
27              	5.48352189e+00	(2.05952936e-03 5.04089685e-04 5.00000000e-02)	12704
28              	5.48233804e+00	(2.05952936e-03 5.04089685e-04 5.00000000e-02)	12704
29              	5.48119177e+00	(2.05952936e-03 5.04089685e-04 5.00000000e-02)	12704
30              	5.48008530e+00	(2.05952936e-03 5.04089685e-04 5.00000000e-02)	12704
31              	5.47906447e+00	(2.39050732e-03 5.55470428e-04 5.00000000e-02)	13308
32              	5.47807559e+00	(2.39050732e-03 5.55470428e-04 5.00000000e-02)	13308
33              	5.47711802e+00	(2.39050732e-03 5.55470428e-04 5.00000000e-02)	13308
34              	5.47619199e+00	(2.39050732e-03 5.55470428e-04 5.00000000e-02)	13308
35              	5.47529728e+00	(2.39050732e-03 5.55470428e-04 5.00000000e-02)	13308
36              	5.47443324e+00	(2.39050732e-03 5.55470428e-04 5.00000000e-02)	13308
37              	5.47359877e+00	(2.39050732e-03 5.55470428e-04 5.00000000e-02)	13308
38              	5.47279199e+00	(2.39050732e-03 5.55470428e-04 5.00000000e-02)	13308
39              	5.47201192e+00	(2.39050732e-03 5.55470428e-04 5.00000000e-02)	13308
40              	5.47125727e+00	(2.39050732e-03 5.55470428e-04 5.00000000e-02)	13308
41              	5.47052683e+00	(2.39050732e-03 5.55470428e-04 5.00000000e-02)	13308
42              	5.46981773e+00	(2.39050732e-03 5.55470428e-04 5.00000000e-02)	13308
43              	5.46912981e+00	(2.30647071e-03 5.55470428e-04 5.00000000e-02)	13307
44              	5.46847335e+00	(2.73550983e-03 6.10015059e-04 5.00000000e-02)	13912
45              	5.46783775e+00	(2.73550983e-03 6.10015059e-04 5.00000000e-02)	13912
46              	5.46721936e+00	(2.73550983e-03 6.10015059e-04 5.00000000e-02)	13912
47              	5.46661727e+00	(2.73550983e-03 6.10015059e-04 5.00000000e-02)	13912
48              	5.46603060e+00	(2.73550983e-03 6.10015059e-04 5.00000000e-02)	13912
49              	5.46545963e+00	(2.64791233e-03 6.10015059e-04 5.00000000e-02)	13911
50              	5.46490580e+00	(2.64791233e-03 6.10015059e-04 5.00000000e-02)	13911
51              	5.46436405e+00	(2.64791233e-03 6.10015059e-04 5.00000000e-02)	13911
52              	5.46383721e+00	(2.64791233e-03 6.10015059e-04 5.00000000e-02)	13911
53              	5.46332138e+00	(2.64791233e-03 6.10015059e-04 5.00000000e-02)	13911
54              	5.46281467e+00	(2.64791233e-03 6.10015059e-04 5.00000000e-02)	13911
55              	5.46231663e+00	(2.64791233e-03 6.10015059e-04 5.00000000e-02)	13911
56              	5.46182727e+00	(2.64791233e-03 6.10015059e-04 5.00000000e-02)	13911
57              	5.46134688e+00	(2.64791233e-03 6.10015059e-04 5.00000000e-02)	13911
58              	5.46087529e+00	(2.64791233e-03 6.10015059e-04 5.00000000e-02)	13911
59              	5.46041169e+00	(2.64791233e-03 6.10015059e-04 5.00000000e-02)	13911
60              	5.45995605e+00	(2.64791233e-03 6.10015059e-04 5.00000000e-02)	13911
61              	5.45950838e+00	(2.64791233e-03 6.10015059e-04 5.00000000e-02)	13911
62              	5.45906856e+00	(2.64791233e-03 6.10015059e-04 5.00000000e-02)	13911
63              	5.45865424e+00	(3.00382187e-03 6.67918404e-04 5.00000000e-02)	14515
64              	5.45976457e+00	(2.88500438e+00 4.53931371e-02 5.00000000e-02)	53474
65              	5.46095524e+00	(2.88500438e+00 4.27409249e-02 5.00000000e-02)	52874
66              	5.46214019e+00	(2.88500438e+00 4.27409249e-02 5.00000000e-02)	52874
67              	5.46330739e+00	(2.88500438e+00 4.27409249e-02 5.00000000e-02)	52874
68              	5.46445554e+00	(2.88500438e+00 4.27409249e-02 5.00000000e-02)	52874
69              	5.46558273e+00	(2.88500438e+00 4.27409249e-02 5.00000000e-02)	52874
70              	5.46668685e+00	(2.88500438e+00 4.27409249e-02 5.00000000e-02)	52874
71              	5.46776721e+00	(2.88500438e+00 4.27409249e-02 5.00000000e-02)	52874
72              	5.46882836e+00	(2.88500438e+00 4.02425556e-02 5.00000000e-02)	52274
73              	5.46987559e+00	(2.88500438e+00 4.02425556e-02 5.00000000e-02)	52274
74              	5.47089598e+00	(2.88500438e+00 4.02425556e-02 5.00000000e-02)	52274
75              	5.47188938e+00	(2.88500438e+00 4.02425556e-02 5.00000000e-02)	52274
76              	5.47285625e+00	(2.88500438e+00 4.02425556e-02 5.00000000e-02)	52274
77              	5.47379719e+00	(2.88500438e+00 4.02425556e-02 5.00000000e-02)	52274
78              	5.47471378e+00	(2.88500438e+00 4.02425556e-02 5.00000000e-02)	52274
79              	5.47560815e+00	(2.88500438e+00 4.02425556e-02 5.00000000e-02)	52274
80              	5.47648290e+00	(2.88500438e+00 4.02425556e-02 5.00000000e-02)	52274
81              	5.47734101e+00	(2.88500438e+00 4.02425556e-02 5.00000000e-02)	52274
82              	5.47818573e+00	(2.88500438e+00 4.02425556e-02 5.00000000e-02)	52274
83              	5.47902042e+00	(2.88500438e+00 4.02425556e-02 5.00000000e-02)	52274
84              	5.47984897e+00	(2.88500438e+00 4.02425556e-02 5.00000000e-02)	52274
85              	5.48067527e+00	(2.88500438e+00 4.02425556e-02 5.00000000e-02)	52274
86              	5.48151573e+00	(2.88500438e+00 4.27409249e-02 5.00000000e-02)	52874
87              	5.48237027e+00	(2.88500438e+00 4.27409249e-02 5.00000000e-02)	52874
88              	5.48323528e+00	(2.88500438e+00 4.27409249e-02 5.00000000e-02)	52874
89              	5.48411331e+00	(2.88500438e+00 4.27409249e-02 5.00000000e-02)	52874
90              	5.48500672e+00	(2.88500438e+00 4.27409249e-02 5.00000000e-02)	52874
91              	5.48591716e+00	(2.88500438e+00 4.27409249e-02 5.00000000e-02)	52874
92              	5.48685684e+00	(2.88500438e+00 4.53931371e-02 5.00000000e-02)	53474
93              	5.48782195e+00	(2.88500438e+00 4.53931371e-02 5.00000000e-02)	53474
94              	5.48880355e+00	(2.88500438e+00 4.53931371e-02 5.00000000e-02)	53474
95              	5.48980026e+00	(2.88500438e+00 4.53931371e-02 5.00000000e-02)	53474
96              	5.49081054e+00	(2.88500438e+00 4.53931371e-02 5.00000000e-02)	53474
97              	5.49183232e+00	(2.88500438e+00 4.53931371e-02 5.00000000e-02)	53474
98              	5.49286318e+00	(2.88500438e+00 4.53931371e-02 5.00000000e-02)	53474
99              	5.49390034e+00	(2.88500438e+00 4.53931371e-02 5.00000000e-02)	53474
100             	5.49494095e+00	(2.88500438e+00 4.53931371e-02 5.00000000e-02)	53474
101             	5.49598193e+00	(2.88500438e+00 4.53931371e-02 5.00000000e-02)	53474
102             	5.49702059e+00	(2.88500438e+00 4.53931371e-02 5.00000000e-02)	53474
103             	5.49805426e+00	(2.88500438e+00 4.53931371e-02 5.00000000e-02)	53474
104             	5.49908137e+00	(2.88500438e+00 4.53931371e-02 5.00000000e-02)	53474
105             	5.50010091e+00	(2.88500438e+00 4.53931371e-02 5.00000000e-02)	53474
106             	5.50111091e+00	(2.88500438e+00 4.53931371e-02 5.00000000e-02)	53474
107             	5.50210942e+00	(2.88500438e+00 4.53931371e-02 5.00000000e-02)	53474
108             	5.50309494e+00	(2.88500438e+00 4.53931371e-02 5.00000000e-02)	53474
109             	5.50406692e+00	(2.88500438e+00 4.53931371e-02 5.00000000e-02)	53474
110             	5.50503480e+00	(2.88500438e+00 4.27409249e-02 5.00000000e-02)	52874
111             	5.50599584e+00	(2.88500438e+00 4.27409249e-02 5.00000000e-02)	52874
112             	5.50694275e+00	(2.88500438e+00 4.27409249e-02 5.00000000e-02)	52874
113             	5.50787536e+00	(2.88500438e+00 4.27409249e-02 5.00000000e-02)	52874
114             	5.50879486e+00	(2.88500438e+00 4.27409249e-02 5.00000000e-02)	52874
115             	5.50970086e+00	(2.88500438e+00 4.27409249e-02 5.00000000e-02)	52874
116             	5.51059475e+00	(2.88500438e+00 4.27409249e-02 5.00000000e-02)	52874
117             	5.51147667e+00	(2.88500438e+00 4.27409249e-02 5.00000000e-02)	52874
118             	5.51234804e+00	(2.88500438e+00 4.27409249e-02 5.00000000e-02)	52874
119             	5.51320978e+00	(2.88500438e+00 4.27409249e-02 5.00000000e-02)	52874
120             	5.51406327e+00	(2.88500438e+00 4.27409249e-02 5.00000000e-02)	52874
121             	5.51490965e+00	(2.88500438e+00 4.27409249e-02 5.00000000e-02)	52874
122             	5.51575034e+00	(2.88500438e+00 4.27409249e-02 5.00000000e-02)	52874
123             	5.51658664e+00	(2.88500438e+00 4.27409249e-02 5.00000000e-02)	52874
124             	5.51741939e+00	(2.88500438e+00 4.27409249e-02 5.00000000e-02)	52874
125             	5.51825020e+00	(2.88500438e+00 4.27409249e-02 5.00000000e-02)	52874
126             	5.51907983e+00	(2.88500438e+00 4.27409249e-02 5.00000000e-02)	52874
127             	5.51990914e+00	(2.88500438e+00 4.27409249e-02 5.00000000e-02)	52874
128             	5.52073927e+00	(2.88500438e+00 4.27409249e-02 5.00000000e-02)	52874
129             	5.52157043e+00	(2.88500438e+00 4.27409249e-02 5.00000000e-02)	52874
130             	5.52240421e+00	(2.88500438e+00 4.27409249e-02 5.00000000e-02)	52874
131             	5.52324111e+00	(2.88500438e+00 4.27409249e-02 5.00000000e-02)	52874
132             	5.52408085e+00	(2.88500438e+00 4.27409249e-02 5.00000000e-02)	52874
133             	5.52492458e+00	(2.88500438e+00 4.27409249e-02 5.00000000e-02)	52874
134             	5.52577271e+00	(2.88500438e+00 4.27409249e-02 5.00000000e-02)	52874
135             	5.52662600e+00	(2.88500438e+00 4.27409249e-02 5.00000000e-02)	52874
136             	5.52748473e+00	(2.88500438e+00 4.27409249e-02 5.00000000e-02)	52874
137             	5.52834884e+00	(2.88500438e+00 4.27409249e-02 5.00000000e-02)	52874
138             	5.52921936e+00	(2.88500438e+00 4.27409249e-02 5.00000000e-02)	52874
139             	5.53009630e+00	(2.88500438e+00 4.27409249e-02 5.00000000e-02)	52874
140             	5.53098009e+00	(2.88500438e+00 4.27409249e-02 5.00000000e-02)	52874
141             	5.53187146e+00	(2.88500438e+00 4.27409249e-02 5.00000000e-02)	52874
142             	5.53276977e+00	(2.88500438e+00 4.27409249e-02 5.00000000e-02)	52874
143             	5.53367622e+00	(2.88500438e+00 4.27409249e-02 5.00000000e-02)	52874
144             	5.53459052e+00	(2.88500438e+00 4.27409249e-02 5.00000000e-02)	52874
145             	5.53551213e+00	(2.88500438e+00 4.27409249e-02 5.00000000e-02)	52874
146             	5.53644199e+00	(2.88500438e+00 4.27409249e-02 5.00000000e-02)	52874
147             	5.53737939e+00	(2.88500438e+00 4.27409249e-02 5.00000000e-02)	52874
148             	5.53832417e+00	(2.88500438e+00 4.27409249e-02 5.00000000e-02)	52874
149             	5.53927700e+00	(2.88500438e+00 4.27409249e-02 5.00000000e-02)	52874
150             	5.54023769e+00	(2.88500438e+00 4.27409249e-02 5.00000000e-02)	52874
151             	5.54120598e+00	(2.88500438e+00 4.27409249e-02 5.00000000e-02)	52874
152             	5.54218226e+00	(2.88500438e+00 4.27409249e-02 5.00000000e-02)	52874
153             	5.54316626e+00	(2.88500438e+00 4.27409249e-02 5.00000000e-02)	52874
154             	5.54415749e+00	(2.88500438e+00 4.27409249e-02 5.00000000e-02)	52874
155             	5.54515616e+00	(2.88500438e+00 4.27409249e-02 5.00000000e-02)	52874
156             	5.54616197e+00	(2.88500438e+00 4.27409249e-02 5.00000000e-02)	52874
157             	5.54717446e+00	(2.88500438e+00 4.27409249e-02 5.00000000e-02)	52874
158             	5.54819346e+00	(2.88500438e+00 4.27409249e-02 5.00000000e-02)	52874
159             	5.54921874e+00	(2.88500438e+00 4.27409249e-02 5.00000000e-02)	52874
160             	5.55024993e+00	(2.88500438e+00 4.27409249e-02 5.00000000e-02)	52874
161             	5.55128655e+00	(2.88500438e+00 4.27409249e-02 5.00000000e-02)	52874
162             	5.55232946e+00	(2.88500438e+00 4.53931371e-02 5.00000000e-02)	53474
163             	5.55339865e+00	(2.88500438e+00 4.53931371e-02 5.00000000e-02)	53474
164             	5.55447329e+00	(2.88500438e+00 4.53931371e-02 5.00000000e-02)	53474
165             	5.55555280e+00	(2.88500438e+00 4.53931371e-02 5.00000000e-02)	53474
166             	5.55663671e+00	(2.88500438e+00 4.53931371e-02 5.00000000e-02)	53474
167             	5.55772457e+00	(2.88500438e+00 4.53931371e-02 5.00000000e-02)	53474
168             	5.55881671e+00	(2.88500438e+00 4.53931371e-02 5.00000000e-02)	53474
169             	5.55991235e+00	(2.88500438e+00 4.53931371e-02 5.00000000e-02)	53474
170             	5.56101094e+00	(2.88500438e+00 4.53931371e-02 5.00000000e-02)	53474
171             	5.56211213e+00	(2.88500438e+00 4.53931371e-02 5.00000000e-02)	53474
172             	5.56321554e+00	(2.88500438e+00 4.53931371e-02 5.00000000e-02)	53474
173             	5.56432071e+00	(2.88500438e+00 4.53931371e-02 5.00000000e-02)	53474
174             	5.56542704e+00	(2.88500438e+00 4.53931371e-02 5.00000000e-02)	53474
175             	5.56653410e+00	(2.88500438e+00 4.53931371e-02 5.00000000e-02)	53474
176             	5.56764150e+00	(2.88500438e+00 4.53931371e-02 5.00000000e-02)	53474
177             	5.56874888e+00	(2.88500438e+00 4.53931371e-02 5.00000000e-02)	53474
178             	5.56985565e+00	(2.88500438e+00 4.53931371e-02 5.00000000e-02)	53474
179             	5.57096130e+00	(2.88500438e+00 4.53931371e-02 5.00000000e-02)	53474
180             	5.57206528e+00	(2.88500438e+00 4.53931371e-02 5.00000000e-02)	53474
181             	5.57316714e+00	(2.88500438e+00 4.53931371e-02 5.00000000e-02)	53474
182             	5.57426650e+00	(2.88500438e+00 4.53931371e-02 5.00000000e-02)	53474
183             	5.57536285e+00	(2.88500438e+00 4.53931371e-02 5.00000000e-02)	53474
184             	5.57645569e+00	(2.88500438e+00 4.53931371e-02 5.00000000e-02)	53474
185             	5.57754458e+00	(2.88500438e+00 4.53931371e-02 5.00000000e-02)	53474
186             	5.57862903e+00	(2.88500438e+00 4.53931371e-02 5.00000000e-02)	53474
187             	5.57972356e+00	(2.88500438e+00 4.82086654e-02 5.00000000e-02)	54074
188             	5.58082376e+00	(2.88500438e+00 4.82086654e-02 5.00000000e-02)	54074
189             	5.58191843e+00	(2.88500438e+00 4.82086654e-02 5.00000000e-02)	54074
190             	5.58300941e+00	(2.88500438e+00 4.82086654e-02 5.00000000e-02)	54074
191             	5.58409422e+00	(2.88500438e+00 4.82086654e-02 5.00000000e-02)	54074
192             	5.58517425e+00	(2.88500438e+00 4.82086654e-02 5.00000000e-02)	54074
193             	5.58624740e+00	(2.88500438e+00 4.82086654e-02 5.00000000e-02)	54074
194             	5.58731545e+00	(2.88500438e+00 4.82086654e-02 5.00000000e-02)	54074
195             	5.58837603e+00	(2.88500438e+00 4.82086654e-02 5.00000000e-02)	54074
196             	5.58943074e+00	(2.88500438e+00 4.82086654e-02 5.00000000e-02)	54074
197             	5.59047763e+00	(2.88500438e+00 4.82086654e-02 5.00000000e-02)	54074
198             	5.59151833e+00	(2.88500438e+00 4.82086654e-02 5.00000000e-02)	54074
199             	5.59255116e+00	(2.88500438e+00 4.82086654e-02 5.00000000e-02)	54074
200             	5.59357651e+00	(2.88500438e+00 4.82086654e-02 5.00000000e-02)	54074
201             	5.59459424e+00	(2.88500438e+00 4.82086654e-02 5.00000000e-02)	54074
202             	5.59560389e+00	(2.88500438e+00 4.82086654e-02 5.00000000e-02)	54074
203             	5.59660539e+00	(2.88500438e+00 4.82086654e-02 5.00000000e-02)	54074
204             	5.59759872e+00	(2.88500438e+00 4.82086654e-02 5.00000000e-02)	54074
205             	5.59858379e+00	(2.88500438e+00 4.82086654e-02 5.00000000e-02)	54074
206             	5.59956020e+00	(2.88500438e+00 4.82086654e-02 5.00000000e-02)	54074
207             	5.60052792e+00	(2.88500438e+00 4.82086654e-02 5.00000000e-02)	54074
208             	5.60148639e+00	(2.88500438e+00 4.82086654e-02 5.00000000e-02)	54074
209             	5.60243661e+00	(2.88500438e+00 4.82086654e-02 5.00000000e-02)	54074
210             	5.60337801e+00	(2.88500438e+00 4.82086654e-02 5.00000000e-02)	54074
211             	5.60431050e+00	(2.88500438e+00 4.82086654e-02 5.00000000e-02)	54074
212             	5.60523398e+00	(2.88500438e+00 4.82086654e-02 5.00000000e-02)	54074
213             	5.60614836e+00	(2.88500438e+00 4.82086654e-02 5.00000000e-02)	54074
214             	5.60705349e+00	(2.88500438e+00 4.82086654e-02 5.00000000e-02)	54074
215             	5.60794985e+00	(2.88500438e+00 4.82086654e-02 5.00000000e-02)	54074
216             	5.60883685e+00	(2.88500438e+00 4.82086654e-02 5.00000000e-02)	54074
217             	5.60973463e+00	(2.88500438e+00 5.11975664e-02 5.00000000e-02)	54674
218             	5.61063060e+00	(2.88500438e+00 5.11975664e-02 5.00000000e-02)	54674
219             	5.61151782e+00	(2.88500438e+00 5.11975664e-02 5.00000000e-02)	54674
220             	5.61239636e+00	(2.88500438e+00 5.11975664e-02 5.00000000e-02)	54674
221             	5.61326632e+00	(2.88500438e+00 5.11975664e-02 5.00000000e-02)	54674
222             	5.61412744e+00	(2.88500438e+00 5.11975664e-02 5.00000000e-02)	54674
223             	5.61497892e+00	(2.88500438e+00 5.11975664e-02 5.00000000e-02)	54674
224             	5.61582224e+00	(2.88500438e+00 5.11975664e-02 5.00000000e-02)	54674
225             	5.61665689e+00	(2.88500438e+00 5.11975664e-02 5.00000000e-02)	54674
226             	5.61748250e+00	(2.88500438e+00 5.11975664e-02 5.00000000e-02)	54674
227             	5.61829923e+00	(2.88500438e+00 5.11975664e-02 5.00000000e-02)	54674
228             	5.61910715e+00	(2.88500438e+00 5.11975664e-02 5.00000000e-02)	54674
229             	5.61990616e+00	(2.88500438e+00 5.11975664e-02 5.00000000e-02)	54674
230             	5.62069689e+00	(2.88500438e+00 5.11975664e-02 5.00000000e-02)	54674
231             	5.62147824e+00	(2.88500438e+00 5.11975664e-02 5.00000000e-02)	54674
232             	5.62225064e+00	(2.88500438e+00 5.11975664e-02 5.00000000e-02)	54674
233             	5.62301415e+00	(2.88500438e+00 5.11975664e-02 5.00000000e-02)	54674
234             	5.62376878e+00	(2.88500438e+00 5.11975664e-02 5.00000000e-02)	54674
235             	5.62451464e+00	(2.88500438e+00 5.11975664e-02 5.00000000e-02)	54674
236             	5.62525164e+00	(2.88500438e+00 5.11975664e-02 5.00000000e-02)	54674
237             	5.62597973e+00	(2.88500438e+00 5.11975664e-02 5.00000000e-02)	54674
238             	5.62669819e+00	(2.88500438e+00 5.11975664e-02 5.00000000e-02)	54674
239             	5.62740828e+00	(2.88500438e+00 5.11975664e-02 5.00000000e-02)	54674
240             	5.62810939e+00	(2.88500438e+00 5.11975664e-02 5.00000000e-02)	54674
241             	5.62880209e+00	(2.88500438e+00 5.11975664e-02 5.00000000e-02)	54674
242             	5.62948510e+00	(2.88500438e+00 5.11975664e-02 5.00000000e-02)	54674
243             	5.63015897e+00	(2.88500438e+00 5.11975664e-02 5.00000000e-02)	54674
244             	5.63082367e+00	(2.88500438e+00 5.11975664e-02 5.00000000e-02)	54674
245             	5.63147943e+00	(2.88500438e+00 5.11975664e-02 5.00000000e-02)	54674
246             	5.63212623e+00	(2.88500438e+00 5.11975664e-02 5.00000000e-02)	54674
247             	5.63276395e+00	(2.88500438e+00 5.11975664e-02 5.00000000e-02)	54674
248             	5.63339252e+00	(2.88500438e+00 5.11975664e-02 5.00000000e-02)	54674
249             	5.63401187e+00	(2.88500438e+00 5.11975664e-02 5.00000000e-02)	54674
250             	5.63462210e+00	(2.88500438e+00 5.11975664e-02 5.00000000e-02)	54674
251             	5.63522317e+00	(2.88500438e+00 5.11975664e-02 5.00000000e-02)	54674
252             	5.63581425e+00	(2.88500438e+00 5.11975664e-02 5.00000000e-02)	54674
253             	5.63639729e+00	(2.88500438e+00 5.11975664e-02 5.00000000e-02)	54674
254             	5.63697139e+00	(2.88500438e+00 5.11975664e-02 5.00000000e-02)	54674
255             	5.63753602e+00	(2.88500438e+00 5.11975664e-02 5.00000000e-02)	54674
256             	5.63809104e+00	(2.88500438e+00 5.11975664e-02 5.00000000e-02)	54674
257             	5.63863756e+00	(2.88500438e+00 5.11975664e-02 5.00000000e-02)	54674
258             	5.63917977e+00	(2.88500438e+00 5.43705160e-02 5.00000000e-02)	55274
259             	5.63972741e+00	(2.88500438e+00 5.43705160e-02 5.00000000e-02)	55274
260             	5.64026533e+00	(2.88500438e+00 5.43705160e-02 5.00000000e-02)	55274
261             	5.64079470e+00	(2.88500438e+00 5.43705160e-02 5.00000000e-02)	55274
262             	5.64131493e+00	(2.88500438e+00 5.43705160e-02 5.00000000e-02)	55274
263             	5.64182629e+00	(2.88500438e+00 5.43705160e-02 5.00000000e-02)	55274
264             	5.64232865e+00	(2.88500438e+00 5.43705160e-02 5.00000000e-02)	55274
265             	5.64282189e+00	(2.88500438e+00 5.43705160e-02 5.00000000e-02)	55274
266             	5.64330594e+00	(2.88500438e+00 5.43705160e-02 5.00000000e-02)	55274
267             	5.64378050e+00	(2.88500438e+00 5.43705160e-02 5.00000000e-02)	55274
268             	5.64424581e+00	(2.88500438e+00 5.43705160e-02 5.00000000e-02)	55274
269             	5.64470267e+00	(2.88500438e+00 5.43705160e-02 5.00000000e-02)	55274
270             	5.64514990e+00	(2.88500438e+00 5.43705160e-02 5.00000000e-02)	55274
271             	5.64558812e+00	(2.88500438e+00 5.43705160e-02 5.00000000e-02)	55274
272             	5.64601735e+00	(2.88500438e+00 5.43705160e-02 5.00000000e-02)	55274
273             	5.64643687e+00	(2.88500438e+00 5.43705160e-02 5.00000000e-02)	55274
274             	5.64684864e+00	(2.88500438e+00 5.43705160e-02 5.00000000e-02)	55274
275             	5.64724983e+00	(2.88500438e+00 5.43705160e-02 5.00000000e-02)	55274
276             	5.64764327e+00	(2.88500438e+00 5.43705160e-02 5.00000000e-02)	55274
277             	5.64802642e+00	(2.88500438e+00 5.43705160e-02 5.00000000e-02)	55274
278             	5.64840134e+00	(2.88500438e+00 5.43705160e-02 5.00000000e-02)	55274
279             	5.64876814e+00	(2.88500438e+00 5.43705160e-02 5.00000000e-02)	55274
280             	5.64912472e+00	(2.88500438e+00 5.43705160e-02 5.00000000e-02)	55274
281             	5.64947384e+00	(2.88500438e+00 5.43705160e-02 5.00000000e-02)	55274
282             	5.64981351e+00	(2.88500438e+00 5.43705160e-02 5.00000000e-02)	55274
283             	5.65014435e+00	(2.88500438e+00 5.43705160e-02 5.00000000e-02)	55274
284             	5.65046572e+00	(2.88500438e+00 5.43705160e-02 5.00000000e-02)	55274
285             	5.65077970e+00	(2.88500438e+00 5.43705160e-02 5.00000000e-02)	55274
286             	5.65108375e+00	(2.88500438e+00 5.43705160e-02 5.00000000e-02)	55274
287             	5.65138063e+00	(2.88500438e+00 5.43705160e-02 5.00000000e-02)	55274
288             	5.65166845e+00	(2.88500438e+00 5.43705160e-02 5.00000000e-02)	55274
289             	5.65194785e+00	(2.88500438e+00 5.43705160e-02 5.00000000e-02)	55274
290             	5.65221895e+00	(2.88500438e+00 5.43705160e-02 5.00000000e-02)	55274
291             	5.65248177e+00	(2.88500438e+00 5.43705160e-02 5.00000000e-02)	55274
292             	5.65273571e+00	(2.88500438e+00 5.43705160e-02 5.00000000e-02)	55274
293             	5.65298226e+00	(2.88500438e+00 5.43705160e-02 5.00000000e-02)	55274
294             	5.65322085e+00	(2.88500438e+00 5.43705160e-02 5.00000000e-02)	55274
295             	5.65345152e+00	(2.88500438e+00 5.43705160e-02 5.00000000e-02)	55274
296             	5.65367436e+00	(2.88500438e+00 5.43705160e-02 5.00000000e-02)	55274
297             	5.65388946e+00	(2.88500438e+00 5.43705160e-02 5.00000000e-02)	55274
298             	5.65409768e+00	(2.88500438e+00 5.43705160e-02 5.00000000e-02)	55274
299             	5.65429775e+00	(2.88500438e+00 5.43705160e-02 5.00000000e-02)	55274
300             	5.65449046e+00	(2.88500438e+00 5.43705160e-02 5.00000000e-02)	55274
301             	5.65467598e+00	(2.88500438e+00 5.43705160e-02 5.00000000e-02)	55274
302             	5.65485444e+00	(2.88500438e+00 5.43705160e-02 5.00000000e-02)	55274
303             	5.65502522e+00	(2.88500438e+00 5.43705160e-02 5.00000000e-02)	55274
304             	5.65518986e+00	(2.88500438e+00 5.43705160e-02 5.00000000e-02)	55274
305             	5.65534782e+00	(2.88500438e+00 5.43705160e-02 5.00000000e-02)	55274
306             	5.65549917e+00	(2.88500438e+00 5.43705160e-02 5.00000000e-02)	55274
307             	5.65564401e+00	(2.88500438e+00 5.43705160e-02 5.00000000e-02)	55274
308             	5.65578248e+00	(2.88500438e+00 5.43705160e-02 5.00000000e-02)	55274
309             	5.65591473e+00	(2.88500438e+00 5.43705160e-02 5.00000000e-02)	55274
310             	5.65604153e+00	(2.88500438e+00 5.43705160e-02 5.00000000e-02)	55274
311             	5.65616175e+00	(2.88500438e+00 5.43705160e-02 5.00000000e-02)	55274
312             	5.65627609e+00	(2.88500438e+00 5.43705160e-02 5.00000000e-02)	55274
313             	5.65638472e+00	(2.88500438e+00 5.43705160e-02 5.00000000e-02)	55274
314             	5.65648710e+00	(2.88500438e+00 5.43705160e-02 5.00000000e-02)	55274
315             	5.65658531e+00	(2.88500438e+00 5.43705160e-02 5.00000000e-02)	55274
316             	5.65667761e+00	(2.88500438e+00 5.43705160e-02 5.00000000e-02)	55274
317             	5.65676470e+00	(2.88500438e+00 5.43705160e-02 5.00000000e-02)	55274
318             	5.65684674e+00	(2.88500438e+00 5.43705160e-02 5.00000000e-02)	55274
319             	5.65692386e+00	(2.88500438e+00 5.43705160e-02 5.00000000e-02)	55274
320             	5.65699619e+00	(2.88500438e+00 5.43705160e-02 5.00000000e-02)	55274
321             	5.65706387e+00	(2.88500438e+00 5.43705160e-02 5.00000000e-02)	55274
322             	5.65712703e+00	(2.88500438e+00 5.43705160e-02 5.00000000e-02)	55274
323             	5.65718579e+00	(2.88500438e+00 5.43705160e-02 5.00000000e-02)	55274
324             	5.65724027e+00	(2.88500438e+00 5.43705160e-02 5.00000000e-02)	55274
325             	5.65729058e+00	(2.88500438e+00 5.43705160e-02 5.00000000e-02)	55274
326             	5.65733684e+00	(2.88500438e+00 5.43705160e-02 5.00000000e-02)	55274
327             	5.65737918e+00	(2.88500438e+00 5.43705160e-02 5.00000000e-02)	55274
328             	5.65741703e+00	(2.88500438e+00 5.43705160e-02 5.00000000e-02)	55274
329             	5.65745190e+00	(2.88500438e+00 5.43705160e-02 5.00000000e-02)	55274
330             	5.65748325e+00	(2.88500438e+00 5.43705160e-02 5.00000000e-02)	55274
331             	5.65751115e+00	(2.88500438e+00 5.43705160e-02 5.00000000e-02)	55274
332             	5.65753571e+00	(2.88500438e+00 5.43705160e-02 5.00000000e-02)	55274
333             	5.65755703e+00	(2.88500438e+00 5.43705160e-02 5.00000000e-02)	55274
334             	5.65757522e+00	(2.88500438e+00 5.43705160e-02 5.00000000e-02)	55274
335             	5.65759116e+00	(2.88500438e+00 5.43705160e-02 5.00000000e-02)	55274
336             	5.65760343e+00	(2.88500438e+00 5.43705160e-02 5.00000000e-02)	55274
337             	5.65761283e+00	(2.88500438e+00 5.43705160e-02 5.00000000e-02)	55274
338             	5.65761951e+00	(2.88500438e+00 5.43705160e-02 5.00000000e-02)	55274
339             	5.65762357e+00	(2.88500438e+00 5.43705160e-02 5.00000000e-02)	55274
340             	5.65762511e+00	(2.88500438e+00 5.43705160e-02 5.00000000e-02)	55274
341             	5.65762421e+00	(2.88500438e+00 5.43705160e-02 5.00000000e-02)	55274
342             	5.65762097e+00	(2.88500438e+00 5.43705160e-02 5.00000000e-02)	55274
343             	5.65761547e+00	(2.88500438e+00 5.43705160e-02 5.00000000e-02)	55274
344             	5.65760781e+00	(2.88500438e+00 5.43705160e-02 5.00000000e-02)	55274
345             	5.65759805e+00	(2.88500438e+00 5.43705160e-02 5.00000000e-02)	55274
346             	5.65758538e+00	(2.88500438e+00 5.43705160e-02 5.00000000e-02)	55274
347             	5.65757166e+00	(2.88500438e+00 5.43705160e-02 5.00000000e-02)	55274
348             	5.65755614e+00	(2.88500438e+00 5.43705160e-02 5.00000000e-02)	55274
349             	5.65753884e+00	(2.88500438e+00 5.43705160e-02 5.00000000e-02)	55274
350             	5.65751986e+00	(2.88500438e+00 5.43705160e-02 5.00000000e-02)	55274