/*--------------------------------*- C++ -*----------------------------------*\
  =========                 |
  \\      /  F ield         | OpenFOAM: The Open Source CFD Toolbox
   \\    /   O peration     | Website:  https://openfoam.org
    \\  /    A nd           | Version:  12
     \\/     M anipulation  |
\*---------------------------------------------------------------------------*/
FoamFile
{
    format      ascii;
    class       volScalarField;
    location    "1500";
    object      epsilon;
}
// * * * * * * * * * * * * * * * * * * * * * * * * * * * * * * * * * * * * * //

dimensions      [0 2 -3 0 0 0 0];

internalField   nonuniform List<scalar> 
7480
(
0.0027484615
0.004798374
0.0085405437
0.014913319
0.025330031
0.041648579
0.066000289
0.10038877
0.14607444
0.20283459
0.26842507
0.33874138
0.4085136
0.47241099
0.52607878
0.56706084
0.59360938
0.61208654
0.61140732
0.60608175
0.59455906
0.57875892
0.56046729
0.54118078
0.52211025
0.5042181
0.48825305
0.47475872
0.46408264
0.4563331
0.45130319
0.44844923
0.44696193
0.44595899
0.4447273
0.44287699
0.44034532
0.43728415
0.43390549
0.43036695
0.42673708
0.42302379
0.41922502
0.41536169
0.4114772
0.40761708
0.40381097
0.40006936
0.39639238
0.39277895
0.38922966
0.38574461
0.38232351
0.37896487
0.37566672
0.37242746
0.36924574
0.36611975
0.36304765
0.36002867
0.3570612
0.35414296
0.35127204
0.34844702
0.34566659
0.34292967
0.34023518
0.33758194
0.33496886
0.33239487
0.32985886
0.32735983
0.32489687
0.32246898
0.32007524
0.31771479
0.31538682
0.31309055
0.3108252
0.30859003
0.30638432
0.30420737
0.30205848
0.299937
0.29784225
0.29577359
0.29373038
0.29171197
0.28971774
0.28774689
0.28579894
0.28387259
0.28196813
0.28008137
0.27821754
0.27635781
0.27453477
0.27263554
0.27103729
0.26809474
8.3672366e-05
0.00017273364
0.00029457127
0.00047576922
0.00076217832
0.001229335
0.0019929636
0.0032106498
0.0050627628
0.007708893
0.011231815
0.015676595
0.020987528
0.026903314
0.033063285
0.039143326
0.044778085
0.050205966
0.055085293
0.059882808
0.065189027
0.072105578
0.080796517
0.09020729
0.1004306
0.11168106
0.12399847
0.13709063
0.15049031
0.16348179
0.17509336
0.18437832
0.19069724
0.19394506
0.19455724
0.19331378
0.1910551
0.18844966
0.18587148
0.18343142
0.18109589
0.1788012
0.17652107
0.17427442
0.17209735
0.1700134
0.16802488
0.16612068
0.16428699
0.16251434
0.16079696
0.15913007
0.1575089
0.15592932
0.15438811
0.15288244
0.15140978
0.14996795
0.14855533
0.14717105
0.14581353
0.14448118
0.14317284
0.1418878
0.14062536
0.1393849
0.13816581
0.13696749
0.13578937
0.13463092
0.13349163
0.13237102
0.13126864
0.13018406
0.12911688
0.12806669
0.1270331
0.12601571
0.12501416
0.12402806
0.12305705
0.12210078
0.12115888
0.12023102
0.11931684
0.11841602
0.11752822
0.11665312
0.11579038
0.11493967
0.11410066
0.11327301
0.11245637
0.11165022
0.11085432
0.11006722
0.10929091
0.10850691
0.10781065
0.10662333
1.7054483e-05
2.8899835e-05
4.3566922e-05
6.1373109e-05
8.3754563e-05
0.00011284697
0.00015142089
0.00020276724
0.00027040476
0.00035772208
0.00046765386
0.00060313483
0.00076693158
0.00096047573
0.0011830461
0.0014320442
0.0017013301
0.0019871523
0.0022834811
0.0025899557
0.0029142163
0.0032860993
0.003747677
0.0043497207
0.005161256
0.0062772275
0.0078086236
0.010027648
0.013202611
0.01764191
0.02417375
0.032093867
0.041089378
0.050748273
0.060403538
0.069390187
0.077084953
0.083048302
0.087163124
0.089625162
0.090833763
0.09124338
0.09123612
0.091048788
0.090779886
0.090445855
0.090038483
0.089559056
0.089025268
0.088459265
0.087876184
0.087282088
0.086678338
0.086065973
0.085446904
0.084823135
0.084196135
0.083566933
0.082936353
0.082305135
0.081674048
0.081043751
0.08041484
0.079787904
0.0791635
0.07854214
0.077924295
0.077310371
0.076700721
0.076095666
0.0754955
0.074900495
0.074310885
0.073726882
0.07314868
0.072576445
0.072010307
0.071450374
0.070896729
0.070349435
0.069808532
0.069274043
0.068745973
0.068224312
0.067709036
0.067200113
0.066697496
0.066201134
0.06571096
0.06522691
0.064748885
0.064276827
0.063810549
0.063350107
0.062894946
0.062445681
0.062001293
0.06155634
0.061160364
0.060480853
1.0089015e-05
1.3072947e-05
1.6969112e-05
2.1517441e-05
2.6739199e-05
3.2790152e-05
3.9893502e-05
4.8303913e-05
5.8276023e-05
7.0037045e-05
8.3764925e-05
9.9599562e-05
0.00011765287
0.00013798734
0.00016058365
0.00018533441
0.00021200172
0.00024031553
0.000269945
0.00030060639
0.00033211697
0.00036474036
0.00039913772
0.0004368243
0.0004802599
0.00053327191
0.00060133781
0.00069368901
0.00082560398
0.0010184541
0.0013254464
0.0018052067
0.0025435828
0.0036379443
0.0053232874
0.0077514448
0.011304811
0.01596252
0.021353645
0.027099133
0.032781151
0.037999245
0.042422515
0.045885174
0.048408572
0.050159558
0.051366887
0.052234833
0.052894032
0.053403955
0.053784109
0.054045761
0.054205888
0.054285125
0.054300922
0.054264748
0.0541839
0.054064153
0.053910841
0.053728677
0.053521637
0.053292994
0.053045537
0.052781736
0.052503784
0.05221362
0.051912957
0.051603306
0.051286016
0.050962298
0.050633242
0.050299834
0.049962963
0.049623428
0.049281957
0.048939206
0.048595762
0.048252148
0.047908833
0.047566232
0.047224712
0.046884597
0.04654617
0.046209681
0.045875347
0.045543356
0.045213871
0.044887036
0.044562966
0.044241771
0.043923517
0.043608308
0.043296105
0.042987149
0.042681011
0.042378649
0.042078849
0.041779418
0.041513993
0.041054203
8.65437e-06
9.6056472e-06
1.1017247e-05
1.2751418e-05
1.4741994e-05
1.6978004e-05
1.9480136e-05
2.2284566e-05
2.5432371e-05
2.8962374e-05
3.2906268e-05
3.7287678e-05
4.2123403e-05
4.7423343e-05
5.3188532e-05
5.9410019e-05
6.6065505e-05
7.3122491e-05
8.0538576e-05
8.8267017e-05
9.6259776e-05
0.00010448563
0.00011293609
0.00012165028
0.00013073179
0.00014038396
0.00015092145
0.00016282064
0.00017686398
0.00019405606
0.00021638887
0.00024658688
0.00028881266
0.00034883933
0.00043808319
0.00057259122
0.00078687332
0.0011351145
0.0016835151
0.0025575102
0.0038849006
0.0058160034
0.0085176354
0.011769868
0.015338541
0.018965298
0.022391591
0.025406984
0.027903496
0.029882945
0.031429434
0.032656037
0.033656489
0.03448686
0.035174351
0.035735374
0.03618659
0.036545642
0.036827821
0.037044482
0.037204124
0.037313874
0.037380078
0.037408264
0.037403096
0.037368551
0.037308104
0.037224812
0.037121362
0.037000132
0.036863231
0.036712546
0.036549764
0.036376394
0.036193796
0.036003193
0.035805686
0.035602267
0.035393826
0.035181162
0.03496499
0.034745954
0.03452463
0.034301532
0.034077122
0.033851814
0.033625978
0.033399944
0.033174006
0.032948435
0.032723453
0.032499299
0.032276083
0.032054146
0.03183326
0.031614372
0.031396614
0.031178599
0.030986737
0.030649543
8.2669206e-06
8.5790774e-06
9.1292872e-06
9.8820884e-06
1.0796173e-05
1.1845163e-05
1.3018307e-05
1.4315572e-05
1.5742823e-05
1.7308265e-05
1.902004e-05
2.0884961e-05
2.2908156e-05
2.5093015e-05
2.7441013e-05
2.9951485e-05
3.2621224e-05
3.5444442e-05
3.8412692e-05
4.1515499e-05
4.4740829e-05
4.8076747e-05
5.1512812e-05
5.5043016e-05
5.8668906e-05
6.2404752e-05
6.6279489e-05
7.0340924e-05
7.4671556e-05
7.9385994e-05
8.4668412e-05
9.0796742e-05
9.81594e-05
0.00010726838
0.00011892735
0.00013422597
0.00015500691
0.00018415316
0.00022590735
0.00028788994
0.00038210633
0.00052884469
0.00076813973
0.0011486519
0.0017689935
0.0027143586
0.004127916
0.0060080522
0.0082396234
0.010665266
0.013114779
0.015423991
0.017477018
0.01922558
0.020685435
0.021907338
0.022943504
0.023829843
0.024587149
0.025230024
0.025772657
0.026228976
0.02661091
0.026927919
0.027187745
0.027397146
0.02756209
0.027687733
0.027778523
0.027838367
0.02787071
0.027878604
0.027864751
0.027831558
0.027781175
0.027715527
0.027636345
0.02754518
0.027443428
0.027332342
0.027213048
0.02708656
0.02695379
0.026815558
0.026672605
0.026525595
0.02637513
0.026221751
0.026065943
0.025908152
0.025748766
0.025588167
0.02542662
0.025264559
0.025101961
0.024939712
0.024777347
0.024613687
0.024470754
0.024214495
8.1362149e-06
8.23562e-06
8.4438595e-06
8.7706252e-06
9.2065381e-06
9.7371703e-06
1.0350827e-05
1.1040522e-05
1.1803269e-05
1.2638703e-05
1.354781e-05
1.4532023e-05
1.559269e-05
1.6730828e-05
1.7946984e-05
1.9241122e-05
2.061256e-05
2.2059882e-05
2.3580868e-05
2.517255e-05
2.6831303e-05
2.8553012e-05
3.0333322e-05
3.2168111e-05
3.4054146e-05
3.5989739e-05
3.7977563e-05
4.0025201e-05
4.2145058e-05
4.4357034e-05
4.669229e-05
4.9198997e-05
5.194591e-05
5.5025474e-05
5.8563565e-05
6.2734835e-05
6.7757659e-05
7.3970928e-05
8.1834901e-05
9.2057504e-05
0.00010565824
0.00012413111
0.00015007674
0.00018734073
0.00024339754
0.00032901073
0.00046590937
0.00068663795
0.0010426286
0.0016095553
0.002470799
0.0036767972
0.0051699785
0.0068562468
0.0086238496
0.010355941
0.011959765
0.01338544
0.014627318
0.015706078
0.016647148
0.0174694
0.018185533
0.018806372
0.019342783
0.019804976
0.020201652
0.020540116
0.020826769
0.021067318
0.021266792
0.021429605
0.021559663
0.021660439
0.021735029
0.021786198
0.021816419
0.02182791
0.021822663
0.021802466
0.021768927
0.021723493
0.021667469
0.021602031
0.021528239
0.02144705
0.021359328
0.021265856
0.021167338
0.021064419
0.020957669
0.020847632
0.02073474
0.020619535
0.020502195
0.020383574
0.020263558
0.020141099
0.020034833
0.019838913
8.0744353e-06
8.1053009e-06
8.1793172e-06
8.3130906e-06
8.5132501e-06
8.7785737e-06
9.1043555e-06
9.4855926e-06
9.9184074e-06
1.0400303e-05
1.0929904e-05
1.1506561e-05
1.2130011e-05
1.2800141e-05
1.3516841e-05
1.4279898e-05
1.508894e-05
1.5943381e-05
1.684237e-05
1.778478e-05
1.876922e-05
1.9794036e-05
2.0857353e-05
2.1957177e-05
2.3091577e-05
2.4258837e-05
2.5458025e-05
2.6689506e-05
2.7955127e-05
2.9258772e-05
3.0607049e-05
3.2010596e-05
3.3485197e-05
3.5052934e-05
3.6743519e-05
3.8593741e-05
4.0671898e-05
4.3052273e-05
4.5828103e-05
4.9130526e-05
5.3137243e-05
5.807676e-05
6.4283424e-05
7.2220066e-05
8.2674443e-05
9.6717693e-05
0.0001161929
0.00014395236
0.00018491077
0.00024735845
0.00034578203
0.00050415356
0.000758798
0.0011668425
0.0017964028
0.0026720556
0.003764706
0.0050144393
0.006342249
0.0076647792
0.0089138662
0.01005192
0.011070842
0.011978639
0.012786269
0.013502491
0.014134756
0.014690728
0.015178149
0.015604098
0.015974793
0.016295809
0.016572199
0.016808499
0.017008769
0.017176649
0.017315413
0.017428003
0.017517063
0.017584977
0.017633888
0.017665733
0.017682256
0.017685033
0.017675489
0.017654909
0.017624458
0.01758519
0.017538058
0.017483928
0.01742358
0.01735774
0.017287022
0.017212097
0.017133346
0.01705163
0.016967127
0.016878994
0.016802834
0.016656215
8.026528e-06
8.0372416e-06
8.0628243e-06
8.1141089e-06
8.2000166e-06
8.3255593e-06
8.4921599e-06
8.699022e-06
8.9444437e-06
9.2266457e-06
9.5441401e-06
9.895806e-06
1.028083e-05
1.0698608e-05
1.1148664e-05
1.1630571e-05
1.2143907e-05
1.2688215e-05
1.3262967e-05
1.386754e-05
1.450122e-05
1.5163177e-05
1.5852463e-05
1.6568035e-05
1.7308815e-05
1.8073737e-05
1.8861885e-05
1.967269e-05
2.0506083e-05
2.1362693e-05
2.2244056e-05
2.3152973e-05
2.4093913e-05
2.5073439e-05
2.6100789e-05
2.718735e-05
2.8351631e-05
2.9617324e-05
3.1013108e-05
3.2575561e-05
3.4351468e-05
3.6399481e-05
3.8814166e-05
4.1695965e-05
4.5192766e-05
4.9505507e-05
5.4923078e-05
6.184155e-05
7.0892233e-05
8.3042847e-05
9.9839659e-05
0.0001237472
0.00015896412
0.00021259022
0.00029763237
0.00043336839
0.00065250083
0.000999748
0.0015266458
0.0022368489
0.0031068744
0.0040932051
0.0051355686
0.0061724557
0.0071575837
0.0080674495
0.008896404
0.0096467642
0.010322407
0.010927448
0.011466715
0.011945578
0.01236932
0.012742858
0.013070768
0.013357298
0.01360635
0.013821478
0.014005922
0.014162626
0.014294267
0.01440327
0.014491836
0.014561961
0.014615455
0.014653958
0.01467896
0.014691811
0.014693736
0.014685849
0.014669157
0.014644589
0.014612959
0.014575089
0.014531562
0.014483293
0.014430702
0.014373248
0.014323616
0.014220198
7.9774679e-06
7.9829058e-06
7.9928607e-06
8.0123258e-06
8.0472295e-06
8.1028865e-06
8.1830665e-06
8.2898492e-06
8.4239841e-06
8.5853933e-06
8.7735954e-06
8.987975e-06
9.2279183e-06
9.4928634e-06
9.7823072e-06
1.0095789e-05
1.0432876e-05
1.0793146e-05
1.1176165e-05
1.1581476e-05
1.2008597e-05
1.2457e-05
1.2926104e-05
1.341528e-05
1.3923865e-05
1.4451187e-05
1.49966e-05
1.5559555e-05
1.6139681e-05
1.6736874e-05
1.7351386e-05
1.7983945e-05
1.8635914e-05
1.9309454e-05
2.0007786e-05
2.0735099e-05
2.1497594e-05
2.2303836e-05
2.3164698e-05
2.4093799e-05
2.5108282e-05
2.622845e-05
2.7483832e-05
2.8908853e-05
3.0545659e-05
3.245052e-05
3.4694879e-05
3.7388882e-05
4.0669856e-05
4.4727779e-05
4.9843174e-05
5.6406955e-05
6.5028411e-05
7.6649379e-05
9.2861258e-05
0.00011611491
0.00015073749
0.00020388338
0.00028864592
0.00042263585
0.0006388416
0.00097886051
0.0014599655
0.0020810244
0.0028198404
0.003636391
0.0044819927
0.0053133115
0.0061023452
0.0068363261
0.0075114792
0.008127564
0.0086858735
0.0091889605
0.0096402407
0.010043423
0.010402208
0.010720201
0.011000858
0.011247424
0.011462923
0.011650153
0.011811693
0.011949908
0.012066966
0.012164848
0.012245363
0.012310161
0.012360746
0.012398492
0.012424645
0.012440352
0.012446637
0.012444491
0.012434704
0.01241828
0.012395842
0.012367251
0.012342281
0.012278777
7.9237708e-06
7.9279859e-06
7.9334651e-06
7.9420098e-06
7.9564978e-06
7.9803504e-06
8.0169026e-06
8.0689246e-06
8.1384125e-06
8.2266153e-06
8.334191e-06
8.4613896e-06
8.6082058e-06
8.7744871e-06
8.9600007e-06
9.1644687e-06
9.3875902e-06
9.6290481e-06
9.88851e-06
1.0165629e-05
1.0460046e-05
1.0771381e-05
1.1099229e-05
1.1443157e-05
1.1802717e-05
1.2177448e-05
1.2566893e-05
1.2970626e-05
1.3388289e-05
1.3819632e-05
1.4264563e-05
1.4723189e-05
1.5195888e-05
1.5683375e-05
1.6186814e-05
1.6707839e-05
1.7248817e-05
1.7813116e-05
1.8405236e-05
1.9030942e-05
1.9697564e-05
2.0413809e-05
2.1191249e-05
2.2044183e-05
2.2989364e-05
2.4048139e-05
2.5246059e-05
2.6617879e-05
2.820839e-05
3.007301e-05
3.2283862e-05
3.4947463e-05
3.8214065e-05
4.2283032e-05
4.7457782e-05
5.4175105e-05
6.31088e-05
7.5317144e-05
9.2604054e-05
0.00011776973
0.00015574362
0.00021562074
0.00031002624
0.00046103529
0.00070034942
0.0010487783
0.00151336
0.0020840666
0.0027344572
0.0034271217
0.0041252049
0.0048019142
0.0054422639
0.0060393341
0.0065902676
0.0070944191
0.0075527291
0.0079671728
0.0083402377
0.0086746304
0.0089731341
0.0092385052
0.0094734047
0.0096803619
0.0098617562
0.010019808
0.010156577
0.010273968
0.010373735
0.010457492
0.010526716
0.010582771
0.01062689
0.010660243
0.010683822
0.01069875
0.010705819
0.010705381
0.010704247
0.010679082
7.8649156e-06
7.8688587e-06
7.8731867e-06
7.8783926e-06
7.8855984e-06
7.8964816e-06
7.9130862e-06
7.9375543e-06
7.9718732e-06
8.0177093e-06
8.076346e-06
8.1486989e-06
8.2353726e-06
8.3367285e-06
8.4529477e-06
8.5840796e-06
8.7300799e-06
8.8908363e-06
9.0661853e-06
9.2559252e-06
9.4598261e-06
9.677633e-06
9.909066e-06
1.0153824e-05
1.041159e-05
1.0682036e-05
1.0964832e-05
1.1259655e-05
1.1566211e-05
1.1884252e-05
1.2213605e-05
1.2554187e-05
1.290604e-05
1.3269361e-05
1.3644546e-05
1.4032226e-05
1.4433348e-05
1.4849302e-05
1.5282035e-05
1.5734132e-05
1.6208965e-05
1.6710655e-05
1.7244446e-05
1.7816947e-05
1.8435984e-05
1.9111207e-05
1.9854083e-05
2.0678875e-05
2.1603777e-05
2.2650992e-05
2.384685e-05
2.5227879e-05
2.6841689e-05
2.8749079e-05
3.1033582e-05
3.3807329e-05
3.7249312e-05
4.1593327e-05
4.7197467e-05
5.459368e-05
6.4588901e-05
7.8616341e-05
9.886364e-05
0.00012904503
0.00017597593
0.00024952112
0.00036642112
0.00055160491
0.0008232074
0.0011907348
0.0016501388
0.002182864
0.0027595173
0.0033497341
0.0039301188
0.0044861903
0.0050100406
0.0054975838
0.005947107
0.0063585586
0.0067329579
0.0070719339
0.0073774547
0.0076516606
0.0078967462
0.0081148851
0.0083081833
0.0084786511
0.0086281871
0.008758571
0.0088714605
0.0089683981
0.0090508027
0.0091200128
0.0091772063
0.0092236373
0.0092602371
0.009287914
0.0093104378
0.0093231212
7.8010177e-06
7.8048699e-06
7.8089053e-06
7.8131798e-06
7.8180528e-06
7.8241991e-06
7.8326101e-06
7.8445318e-06
7.86135e-06
7.8844595e-06
7.915156e-06
7.9545654e-06
8.003613e-06
8.0630229e-06
8.1333353e-06
8.2149317e-06
8.308062e-06
8.4128693e-06
8.5294096e-06
8.6576702e-06
8.7975849e-06
8.9490432e-06
9.1118969e-06
9.2859674e-06
9.4710527e-06
9.6669336e-06
9.8733804e-06
1.009016e-05
1.0317047e-05
1.0553837e-05
1.0800357e-05
1.1056478e-05
1.1322133e-05
1.1597325e-05
1.1882153e-05
1.2176833e-05
1.2481729e-05
1.2797417e-05
1.3124748e-05
1.3464908e-05
1.3819498e-05
1.4190552e-05
1.4580644e-05
1.4993043e-05
1.5431708e-05
1.5901474e-05
1.6408118e-05
1.6958566e-05
1.7561385e-05
1.8227051e-05
1.8967638e-05
1.9798693e-05
2.0739823e-05
2.1814942e-05
2.3055833e-05
2.4501218e-05
2.6207702e-05
2.8248851e-05
3.0723776e-05
3.3771699e-05
3.7607864e-05
4.2545567e-05
4.9048371e-05
5.7817376e-05
7.0045813e-05
8.7596185e-05
0.00011359313
0.00015375131
0.00021621395
0.00031538008
0.00047043562
0.00069749087
0.0010051176
0.0013914679
0.0018416809
0.0023318087
0.002837016
0.0033377493
0.0038212083
0.0042797487
0.0047090384
0.0051069785
0.005473023
0.0058076321
0.0061118857
0.0063872407
0.0066353647
0.0068580222
0.0070569996
0.0072340564
0.0073908927
0.0075291333
0.0076503101
0.00775588
0.0078471683
0.0079255456
0.0079920426
0.0080481709
0.0080945434
0.008145259
7.7322944e-06
7.7360783e-06
7.7400079e-06
7.7440168e-06
7.7481933e-06
7.7527674e-06
7.758141e-06
7.7649058e-06
7.7738284e-06
7.7858037e-06
7.8017925e-06
7.8227571e-06
7.8496071e-06
7.883162e-06
7.9241301e-06
7.973101e-06
8.0305484e-06
8.096838e-06
8.1722382e-06
8.2569331e-06
8.3510351e-06
8.4545951e-06
8.5676109e-06
8.6900366e-06
8.8217906e-06
8.9627635e-06
9.1128246e-06
9.2718293e-06
9.4396269e-06
9.6160695e-06
9.8010206e-06
9.9943615e-06
1.0196001e-05
1.0405881e-05
1.0623988e-05
1.0850367e-05
1.1085134e-05
1.1328511e-05
1.1580859e-05
1.1842717e-05
1.2114848e-05
1.2398266e-05
1.2694283e-05
1.300458e-05
1.3331245e-05
1.3676845e-05
1.4044478e-05
1.443784e-05
1.48614e-05
1.5320605e-05
1.582175e-05
1.6372521e-05
1.6982397e-05
1.7662638e-05
1.842765e-05
1.9294539e-05
2.0285864e-05
2.1431102e-05
2.2767258e-05
2.4343063e-05
2.6227092e-05
2.8514274e-05
3.1334142e-05
3.4874579e-05
3.9435369e-05
4.5442603e-05
5.3547583e-05
6.4853257e-05
8.1045842e-05
0.00010506507
0.00014197473
0.00019900361
0.00028978243
0.00042902881
0.00063048024
0.00090142604
0.0012395537
0.0016313249
0.0020564826
0.0024947259
0.0029301464
0.0033520057
0.0037535487
0.0041307754
0.004481633
0.0048054175
0.0051023143
0.0053730838
0.0056188484
0.0058409434
0.0060408155
0.0062199538
0.0063798426
0.0065219407
0.0066476308
0.0067583455
0.0068551505
0.0069401784
0.0070107337
0.0071000172
7.6589734e-06
7.6626878e-06
7.6665429e-06
7.670444e-06
7.6743979e-06
7.6784712e-06
7.6828044e-06
7.6876363e-06
7.6933214e-06
7.7003317e-06
7.709242e-06
7.7207025e-06
7.7354043e-06
7.7540444e-06
7.7772954e-06
7.8057814e-06
7.840063e-06
7.8806275e-06
7.9278859e-06
7.9821744e-06
8.0437586e-06
8.1128386e-06
8.1895549e-06
8.2739953e-06
8.3662026e-06
8.4661813e-06
8.5739048e-06
8.689322e-06
8.8123642e-06
8.9429525e-06
9.0810044e-06
9.2264389e-06
9.3791828e-06
9.5391753e-06
9.706373e-06
9.8807577e-06
1.0062347e-05
1.0251208e-05
1.0447481e-05
1.0651399e-05
1.0863318e-05
1.1083738e-05
1.131333e-05
1.1552975e-05
1.1803795e-05
1.2067192e-05
1.2344888e-05
1.2638953e-05
1.2951874e-05
1.3286671e-05
1.3646871e-05
1.4036672e-05
1.4461152e-05
1.492628e-05
1.543942e-05
1.6009291e-05
1.6646636e-05
1.7365191e-05
1.8181708e-05
1.9117428e-05
2.0199875e-05
2.1465746e-05
2.2963253e-05
2.475645e-05
2.6938888e-05
2.963971e-05
3.3032974e-05
3.7416592e-05
4.3207596e-05
5.1058153e-05
6.205306e-05
7.7814912e-05
0.00010137924
0.00013740107
0.000193468
0.00028124065
0.00041369066
0.00060168018
0.00085049313
0.0011560024
0.0015050642
0.0018801907
0.0022648547
0.0026463561
0.0030159868
0.0033681222
0.003699379
0.0040079854
0.0042932855
0.0045553752
0.0047948498
0.0050126238
0.0052098087
0.0053876269
0.0055473377
0.0056903111
0.0058175343
0.0059317336
0.0060267201
0.0061551493
7.5812864e-06
7.5849298e-06
7.5887125e-06
7.5925361e-06
7.5963862e-06
7.6002782e-06
7.6042555e-06
7.6084019e-06
7.6128589e-06
7.6178382e-06
7.6236293e-06
7.6305982e-06
7.6391776e-06
7.6498507e-06
7.6631314e-06
7.6795436e-06
7.6996019e-06
7.7237962e-06
7.7525785e-06
7.7863552e-06
7.8254823e-06
7.8702635e-06
7.9209497e-06
7.9777414e-06
8.0407928e-06
8.1102159e-06
8.1860859e-06
8.2684461e-06
8.3573139e-06
8.4526869e-06
8.554548e-06
8.6628702e-06
8.7776211e-06
8.8987668e-06
9.026275e-06
9.1601202e-06
9.3002906e-06
9.446796e-06
9.5996809e-06
9.7590384e-06
9.9250266e-06
1.0097886e-05
1.0277955e-05
1.0465695e-05
1.0661711e-05
1.0866778e-05
1.1081865e-05
1.1308161e-05
1.1547102e-05
1.180043e-05
1.207021e-05
1.2358877e-05
1.2669344e-05
1.3005025e-05
1.3370029e-05
1.3769209e-05
1.4208343e-05
1.4694591e-05
1.5236568e-05
1.5844886e-05
1.6532696e-05
1.7316679e-05
1.8218459e-05
1.9265094e-05
2.0493431e-05
2.1953027e-05
2.3706625e-05
2.5849575e-05
2.8513633e-05
3.1882883e-05
3.625072e-05
4.2050021e-05
4.9988154e-05
6.1165869e-05
7.7367903e-05
0.00010167743
0.00013878063
0.00019674681
0.00028598501
0.00041760634
0.00060013785
0.00083580031
0.0011182471
0.0014345407
0.0017696376
0.0021102771
0.0024465063
0.0027714603
0.0030806745
0.0033714688
0.0036424486
0.0038931128
0.0041235782
0.0043343726
0.0045262886
0.0047003863
0.0048573724
0.0050004648
0.0051197639
0.0052875951
7.4994736e-06
7.5030451e-06
7.5067544e-06
7.510504e-06
7.514275e-06
7.5180687e-06
7.5218973e-06
7.5257875e-06
7.5297887e-06
7.5339833e-06
7.5384969e-06
7.5435058e-06
7.5492404e-06
7.5559839e-06
7.5640666e-06
7.5738557e-06
7.5857437e-06
7.6001348e-06
7.6174326e-06
7.6380285e-06
7.6622926e-06
7.6905664e-06
7.7231573e-06
7.7603355e-06
7.8023337e-06
7.8493475e-06
7.9015369e-06
7.9590293e-06
8.0219229e-06
8.0902908e-06
8.1641848e-06
8.2436392e-06
8.3286744e-06
8.4192996e-06
8.5155155e-06
8.6173184e-06
8.7247039e-06
8.8376734e-06
8.9562412e-06
9.0804439e-06
9.2103506e-06
9.3460744e-06
9.4877841e-06
9.6357183e-06
9.790202e-06
9.9516634e-06
1.0120652e-05
1.0297855e-05
1.0484115e-05
1.0680464e-05
1.0888138e-05
1.1108601e-05
1.1343601e-05
1.1595186e-05
1.1865789e-05
1.215828e-05
1.2476022e-05
1.2823077e-05
1.3204279e-05
1.362546e-05
1.4093675e-05
1.4617538e-05
1.5207951e-05
1.5878198e-05
1.6645434e-05
1.753201e-05
1.8565473e-05
1.9783997e-05
2.1239076e-05
2.2998301e-05
2.5160171e-05
2.7862765e-05
3.1312394e-05
3.5812108e-05
4.1854429e-05
5.020769e-05
6.2065704e-05
7.9465181e-05
0.00010564698
0.00014598269
0.00020845322
0.00030271828
0.00043801419
0.00061999542
0.00084744935
0.0011120958
0.0014015347
0.0017031355
0.002006478
0.0023039081
0.0025901697
0.0028618707
0.0031170134
0.003354594
0.0035743118
0.0037764579
0.0039610994
0.0041317192
0.0042744445
0.0044811339
7.4137836e-06
7.4172832e-06
7.4209181e-06
7.424593e-06
7.4282881e-06
7.4320015e-06
7.4357367e-06
7.4395016e-06
7.4433119e-06
7.4471957e-06
7.4512003e-06
7.4553992e-06
7.4598983e-06
7.4648407e-06
7.4704089e-06
7.4768237e-06
7.4843411e-06
7.4932456e-06
7.5038427e-06
7.5164506e-06
7.5313911e-06
7.5489819e-06
7.5695283e-06
7.5933183e-06
7.6206175e-06
7.6516669e-06
7.6866809e-06
7.7258469e-06
7.7693262e-06
7.8172556e-06
7.8697491e-06
7.9269001e-06
7.9887835e-06
8.0554579e-06
8.1269673e-06
8.2033439e-06
8.2846108e-06
8.3707867e-06
8.4618902e-06
8.5579465e-06
8.6589936e-06
8.7650902e-06
8.8763238e-06
8.9928202e-06
9.1147551e-06
9.2423658e-06
9.3759643e-06
9.5159492e-06
9.6628192e-06
9.8171912e-06
9.979816e-06
1.0151592e-05
1.0333594e-05
1.052709e-05
1.0733579e-05
1.0954826e-05
1.1192893e-05
1.1450228e-05
1.1729718e-05
1.2034798e-05
1.236956e-05
1.2738884e-05
1.314878e-05
1.360648e-05
1.4120963e-05
1.4703594e-05
1.5368153e-05
1.6132651e-05
1.7020435e-05
1.8061538e-05
1.9296427e-05
2.0779393e-05
2.2586618e-05
2.4823066e-05
2.7645696e-05
3.1286808e-05
3.6081783e-05
4.2602047e-05
5.1711508e-05
6.4838646e-05
8.4295708e-05
0.00011385013
0.00015950233
0.00022914376
0.00033145757
0.00047348366
0.00065731622
0.00087856052
0.0011277512
0.0013936303
0.0016659737
0.0019367835
0.0022003114
0.0024526624
0.0026913758
0.0029151698
0.0031228499
0.0033177304
0.0034816287
0.0037251436
7.3244732e-06
7.3279009e-06
7.3314608e-06
7.3350601e-06
7.338679e-06
7.3423147e-06
7.3459685e-06
7.3496432e-06
7.3533435e-06
7.3570779e-06
7.3608616e-06
7.3647209e-06
7.3686977e-06
7.3728548e-06
7.3772794e-06
7.382087e-06
7.3874226e-06
7.3934602e-06
7.4004004e-06
7.4084671e-06
7.4179021e-06
7.4289594e-06
7.4418986e-06
7.4569797e-06
7.4744571e-06
7.4945757e-06
7.5175667e-06
7.5436451e-06
7.5730081e-06
7.6058338e-06
7.6422816e-06
7.6824917e-06
7.7265862e-06
7.7746695e-06
7.8268291e-06
7.8831373e-06
7.9436528e-06
8.0084238e-06
8.0774912e-06
8.1508923e-06
8.2286659e-06
8.3108566e-06
8.397521e-06
8.4887343e-06
8.584598e-06
8.6852485e-06
8.7908663e-06
8.9016855e-06
9.0180033e-06
9.1401924e-06
9.2687124e-06
9.4041208e-06
9.5470884e-06
9.6984144e-06
9.8590451e-06
1.0030097e-05
1.0212876e-05
1.040892e-05
1.0620032e-05
1.0848337e-05
1.1096343e-05
1.1367002e-05
1.1663866e-05
1.1991169e-05
1.2354028e-05
1.2758764e-05
1.3212961e-05
1.3726133e-05
1.4310155e-05
1.498021e-05
1.5755515e-05
1.6661094e-05
1.7730325e-05
1.900725e-05
2.0553206e-05
2.2454857e-05
2.4830049e-05
2.7861348e-05
3.1815525e-05
3.7099175e-05
4.4379904e-05
5.4712358e-05
6.9832895e-05
9.2531675e-05
0.00012734011
0.00018059574
0.00025998789
0.00037276854
0.00052287044
0.00070874443
0.00092359517
0.0011578356
0.0014018924
0.001647803
0.0018895865
0.0021231852
0.0023451453
0.002557866
0.0027384004
0.0030141772
7.2318051e-06
7.2351609e-06
7.2386457e-06
7.2421688e-06
7.2457106e-06
7.2492683e-06
7.2528427e-06
7.256435e-06
7.2600471e-06
7.2636809e-06
7.2673407e-06
7.2710338e-06
7.2747741e-06
7.2785847e-06
7.2825015e-06
7.286577e-06
7.2908826e-06
7.2955116e-06
7.3005796e-06
7.3062248e-06
7.3126066e-06
7.3199031e-06
7.3283078e-06
7.3380253e-06
7.3492676e-06
7.3622502e-06
7.3771872e-06
7.3942887e-06
7.4137572e-06
7.4357853e-06
7.460554e-06
7.4882309e-06
7.5189693e-06
7.5529075e-06
7.5901685e-06
7.6308599e-06
7.6750751e-06
7.7228943e-06
7.7743869e-06
7.8296136e-06
7.8886294e-06
7.9514869e-06
8.0182399e-06
8.0889484e-06
8.1636835e-06
8.2425338e-06
8.3256122e-06
8.4130623e-06
8.5050666e-06
8.6018543e-06
8.7037107e-06
8.8109851e-06
8.9241018e-06
9.0435701e-06
9.1699972e-06
9.304102e-06
9.4467294e-06
9.5988717e-06
9.7616913e-06
9.9365494e-06
1.0125046e-05
1.0329049e-05
1.055077e-05
1.0792824e-05
1.1058319e-05
1.1351014e-05
1.1675382e-05
1.2036885e-05
1.2442156e-05
1.2899521e-05
1.3419205e-05
1.4014149e-05
1.4700918e-05
1.5500726e-05
1.6441613e-05
1.7561584e-05
1.8910365e-05
2.0558955e-05
2.2607137e-05
2.5196477e-05
2.8543019e-05
3.2972612e-05
3.8993662e-05
4.7431415e-05
5.9634186e-05
7.778783e-05
0.00010539216
0.00014757334
0.00021096548
0.00030246822
0.00042686382
0.00058449491
0.00077072713
0.00097762719
0.0011964864
0.0014198206
0.0016408279
0.0018599522
0.0020489194
0.0023482963
7.1360464e-06
7.1393305e-06
7.1427402e-06
7.1461867e-06
7.149651e-06
7.1531303e-06
7.1566249e-06
7.1601361e-06
7.1636647e-06
7.1672112e-06
7.1707761e-06
7.1743606e-06
7.1779677e-06
7.1816037e-06
7.1852806e-06
7.1890183e-06
7.1928471e-06
7.1968104e-06
7.2009667e-06
7.2053911e-06
7.2101767e-06
7.2154341e-06
7.2212908e-06
7.2278897e-06
7.2353872e-06
7.2439507e-06
7.2537555e-06
7.2649819e-06
7.2778124e-06
7.2924285e-06
7.3090086e-06
7.3277253e-06
7.3487432e-06
7.3722172e-06
7.3982914e-06
7.4270976e-06
7.4587552e-06
7.4933715e-06
7.5310423e-06
7.5718532e-06
7.615881e-06
7.6631956e-06
7.7138624e-06
7.767945e-06
7.8255093e-06
7.8866273e-06
7.9513819e-06
8.0198722e-06
8.0922187e-06
8.1685699e-06
8.2491089e-06
8.3340598e-06
8.4236953e-06
8.5183448e-06
8.618403e-06
8.7243395e-06
8.8367088e-06
8.9561638e-06
9.0834695e-06
9.2195207e-06
9.3653657e-06
9.5222256e-06
9.6915322e-06
9.8749661e-06
1.0074503e-05
1.0292496e-05
1.0531725e-05
1.0795522e-05
1.1087862e-05
1.1413624e-05
1.177871e-05
1.2190396e-05
1.2657735e-05
1.3192035e-05
1.380769e-05
1.4523507e-05
1.5363487e-05
1.6359864e-05
1.7556282e-05
1.9011639e-05
2.0809874e-05
2.3071294e-05
2.597187e-05
2.9779781e-05
3.4912926e-05
4.2034238e-05
5.2227845e-05
6.7255984e-05
8.9928049e-05
0.00012447355
0.0001765861
0.00025259657
0.00035753886
0.00049291491
0.00065566626
0.00083952437
0.0010357373
0.0012425532
0.0014262187
0.0017341553
7.0374667e-06
7.0406794e-06
7.0440141e-06
7.047384e-06
7.0507707e-06
7.0541712e-06
7.057586e-06
7.0610159e-06
7.0644618e-06
7.0679239e-06
7.0714017e-06
7.0748947e-06
7.0784023e-06
7.0819247e-06
7.0854641e-06
7.0890258e-06
7.09262e-06
7.0962637e-06
7.0999822e-06
7.1038112e-06
7.1077985e-06
7.1120051e-06
7.1165058e-06
7.1213898e-06
7.1267599e-06
7.1327325e-06
7.1394359e-06
7.1470084e-06
7.1555969e-06
7.165354e-06
7.1764364e-06
7.1890019e-06
7.2032073e-06
7.2192059e-06
7.2371458e-06
7.257168e-06
7.2794052e-06
7.3039811e-06
7.3310101e-06
7.3605974e-06
7.3928394e-06
7.4278243e-06
7.4656334e-06
7.5063426e-06
7.5500246e-06
7.5967518e-06
7.6465993e-06
7.6996483e-06
7.7559904e-06
7.8157322e-06
7.879e-06
7.9459451e-06
8.0167493e-06
8.0916312e-06
8.1708526e-06
8.2547253e-06
8.3436186e-06
8.4379686e-06
8.5382872e-06
8.6451733e-06
8.7593282e-06
8.8815684e-06
9.0128466e-06
9.1542756e-06
9.3071553e-06
9.4730166e-06
9.6536563e-06
9.8512028e-06
1.0068163e-05
1.0307558e-05
1.0572998e-05
1.086885e-05
1.1200434e-05
1.1574262e-05
1.1998392e-05
1.2483039e-05
1.304099e-05
1.3688686e-05
1.4447655e-05
1.5345937e-05
1.6421406e-05
1.772597e-05
1.9331679e-05
2.1341796e-05
2.3908088e-05
2.7257865e-05
3.1743644e-05
3.7923222e-05
4.6695597e-05
5.9521157e-05
7.8739175e-05
0.00010791835
0.00015198515
0.00021668037
0.00030691261
0.00042507027
0.00056806394
0.00073654887
0.00089437409
0.0011867615
6.9363364e-06
6.9394782e-06
6.9427382e-06
6.9460318e-06
6.9493409e-06
6.9526627e-06
6.9559975e-06
6.9593462e-06
6.9627096e-06
6.9660878e-06
6.9694804e-06
6.9728864e-06
6.9763043e-06
6.9797327e-06
6.98317e-06
6.9866162e-06
6.9900728e-06
6.9935442e-06
6.997039e-06
7.0005716e-06
7.0041629e-06
7.0078424e-06
7.011649e-06
7.0156321e-06
7.0198527e-06
7.0243831e-06
7.029308e-06