/*--------------------------------*- C++ -*----------------------------------*\
  =========                 |
  \\      /  F ield         | OpenFOAM: The Open Source CFD Toolbox
   \\    /   O peration     | Website:  https://openfoam.org
    \\  /    A nd           | Version:  12
     \\/     M anipulation  |
\*---------------------------------------------------------------------------*/
FoamFile
{
    format      ascii;
    class       volScalarField;
    location    "1500";
    object      k;
}
// * * * * * * * * * * * * * * * * * * * * * * * * * * * * * * * * * * * * * //

dimensions      [0 2 -2 0 0 0 0];

internalField   nonuniform List<scalar> 
7480
(
0.00019617893
0.00028443844
0.00041774916
0.0006057701
0.00086234652
0.0012013177
0.0016328816
0.0021596364
0.0027731485
0.003451581
0.0041604331
0.0048584952
0.005504617
0.0060646061
0.0065156285
0.0068497616
0.0070619196
0.0072077114
0.007202378
0.0071604929
0.0070694467
0.0069436401
0.0067965562
0.0066397282
0.0064828138
0.0063338488
0.0061994342
0.0060846751
0.0059931109
0.0059262062
0.0058825785
0.0058577521
0.0058447934
0.0058360467
0.0058252961
0.0058091272
0.0057869679
0.005760117
0.0057304084
0.0056992113
0.0056671199
0.0056341968
0.005600416
0.0055659561
0.0055311997
0.0054965528
0.0054622835
0.0054284897
0.0053951769
0.0053623393
0.0053299865
0.0052981234
0.0052667516
0.0052358613
0.0052054384
0.005175472
0.0051459531
0.0051168686
0.0050882048
0.0050599577
0.0050321156
0.0050046599
0.0049775758
0.0049508526
0.0049244806
0.0048984522
0.0048727595
0.0048473938
0.004822347
0.0047976111
0.0047731778
0.0047490393
0.004725189
0.0047016193
0.0046783232
0.0046552941
0.004632526
0.0046100129
0.004587749
0.0045657287
0.0045439464
0.0045223967
0.0045010744
0.0044799744
0.0044590914
0.0044384204
0.0044179563
0.004397694
0.0043776284
0.0043577528
0.0043380636
0.0043185485
0.0042992119
0.0042800119
0.0042610029
0.0042419935
0.0042233175
0.004203817
0.0041873718
0.0041570095
0.00014866057
0.00015130615
0.00015543933
0.00016141825
0.00016999502
0.00018241068
0.00020043586
0.00022632901
0.00026249437
0.00031140095
0.00037554415
0.00045554445
0.00054971928
0.00065457619
0.00076564958
0.00087889627
0.00099019673
0.0011020396
0.0012122535
0.0013282696
0.0014605642
0.0016298099
0.0018435043
0.0020816091
0.0023444776
0.0026355519
0.002954811
0.0032986793
0.0036580964
0.004016451
0.0043516958
0.0046419332
0.0048708004
0.0050336962
0.0051385776
0.0052008641
0.0052371256
0.0052601311
0.0052765197
0.0052878835
0.0052936276
0.0052933884
0.0052880874
0.0052795283
0.0052693936
0.0052586128
0.0052473734
0.0052355313
0.005223017
0.0052099247
0.0051963795
0.0051824424
0.0051681078
0.0051533743
0.0051382705
0.0051228299
0.00510707
0.0050910015
0.0050746516
0.0050580712
0.0050412527
0.0050241963
0.0050069184
0.0049894413
0.0049717884
0.0049539801
0.0049360337
0.0049179657
0.0048997915
0.0048815245
0.0048631787
0.0048447675
0.0048263019
0.0048077946
0.0047892581
0.0047707034
0.0047521405
0.0047335785
0.0047150261
0.0046964912
0.004677981
0.0046595023
0.0046410611
0.0046226629
0.0046043126
0.0045860147
0.0045677735
0.0045495925
0.004531475
0.0045134226
0.0044954382
0.0044775248
0.0044596802
0.0044419098
0.0044241969
0.0044065633
0.0043889672
0.0043711647
0.0043552572
0.0043271648
0.0001474283
0.00014772078
0.000148146
0.00014868895
0.00014934801
0.00015012815
0.00015103613
0.00015207678
0.00015324635
0.00015453411
0.00015594359
0.00015748068
0.00015913938
0.00016090715
0.00016277451
0.00016474653
0.00016684404
0.00016917016
0.00017187521
0.00017529358
0.00017993333
0.00018710013
0.00019759569
0.00021737465
0.00025003028
0.00029873599
0.00036778479
0.00046236108
0.00059035889
0.00076389206
0.0010114426
0.0013146069
0.0016602534
0.0020327758
0.0024122294
0.0027755316
0.0031005963
0.0033721659
0.0035857518
0.0037470364
0.0038681083
0.0039623874
0.0040405658
0.0041086649
0.0041687669
0.0042210804
0.004265777
0.0043037732
0.0043364245
0.0043649096
0.004389918
0.0044117792
0.0044307323
0.0044470601
0.0044610522
0.0044729403
0.0044828956
0.0044910651
0.0044975838
0.0045025592
0.0045061161
0.0045083613
0.0045093895
0.0045092874
0.0045081345
0.004506004
0.004502963
0.0044990734
0.004494392
0.0044889716
0.0044828623
0.0044761113
0.0044687623
0.0044608572
0.0044524356
0.0044435349
0.0044341899
0.0044244331
0.0044142952
0.0044038046
0.0043929881
0.0043818706
0.0043704754
0.0043588241
0.0043469372
0.0043348336
0.0043225312
0.0043100466
0.0042973954
0.0042845938
0.0042716538
0.0042585902
0.0042454078
0.0042321325
0.0042187385
0.0042053125
0.0041917115
0.0041780634
0.0041654483
0.0041434639
0.00014729249
0.00014734733
0.00014743299
0.00014754131
0.00014766567
0.00014779978
0.00014793696
0.00014806983
0.00014818957
0.00014828587
0.00014834852
0.00014836742
0.00014833158
0.00014822865
0.00014804583
0.0001477673
0.00014737852
0.00014687034
0.00014624007
0.0001454906
0.0001446272
0.0001436819
0.00014267102
0.00014171016
0.00014095811
0.00014068624
0.00014114882
0.00014273801
0.00014622919
0.00015261911
0.00016465692
0.00018505236
0.00022306049
0.00028670475
0.00038362493
0.00052172203
0.0007203337
0.00097966787
0.0012778304
0.0015961602
0.001914762
0.0022135555
0.0024771166
0.0026984622
0.0028793289
0.0030274582
0.0031523474
0.0032616072
0.003359437
0.00344738
0.003525971
0.0035959533
0.0036584886
0.0037147644
0.0037656508
0.003811703
0.0038533467
0.0038909926
0.0039250255
0.0039557631
0.0039834757
0.004008404
0.0040307665
0.0040507592
0.0040685565
0.0040843161
0.0040981816
0.0041102832
0.0041207398
0.0041296607
0.0041371474
0.0041432942
0.0041481885
0.0041519118
0.0041545404
0.0041561457
0.0041567944
0.0041565489
0.0041554674
0.0041536042
0.0041510102
0.0041477329
0.0041438165
0.0041393026
0.00413423
0.0041286352
0.0041225523
0.0041160136
0.004109049
0.0041016882
0.0040939563
0.0040858815
0.0040774797
0.004068791
0.004059795
0.0040506077
0.0040410521
0.0040314544
0.0040222204
0.0040060672
0.00014726518
0.00014726891
0.00014728373
0.00014730665
0.00014733449
0.00014736386
0.00014739122
0.00014741286
0.00014742483
0.00014742285
0.00014740255
0.00014735962
0.00014728976
0.00014718845
0.00014705127
0.00014687404
0.00014665118
0.00014637631
0.0001460414
0.00014564208
0.00014517526
0.00014464057
0.00014403871
0.00014337682
0.00014267066
0.00014194608
0.00014122913
0.00014054983
0.00013993966
0.00013945349
0.0001391082
0.00013925095
0.00013991787
0.00014178219
0.00014558011
0.00015234365
0.00016463701
0.00018571293
0.00022531902
0.00029173347
0.00039272344
0.00053928165
0.00074236116
0.00098350206
0.0012467812
0.001514917
0.0017710434
0.0020027885
0.0022048735
0.0023786128
0.0025293013
0.0026628179
0.0027832787
0.0028927039
0.0029919943
0.0030819609
0.0031636511
0.0032381254
0.003306219
0.0033685382
0.0034255864
0.0034778312
0.0035256967
0.0035695496
0.0036097079
0.0036464562
0.0036800507
0.0037107213
0.0037386754
0.003764102
0.0037871737
0.0038080491
0.0038268739
0.0038437827
0.0038589001
0.0038723419
0.0038842156
0.0038946216
0.003903653
0.0039113966
0.0039179333
0.0039233385
0.0039276826
0.0039310314
0.0039334463
0.0039349849
0.0039357014
0.0039356465
0.0039348676
0.0039334104
0.003931316
0.003928627
0.0039253733
0.0039216085
0.0039173246
0.0039126546
0.0039074121
0.0039020628
0.0038964321
0.0038863267
0.00014726335
0.00014725061
0.00014724224
0.00014723774
0.00014723574
0.00014723444
0.00014723183
0.00014722586
0.00014721443
0.00014719528
0.00014716613
0.00014712471
0.0001470688
0.00014699619
0.00014690448
0.00014679072
0.00014665314
0.0001464895
0.00014629668
0.00014607165
0.00014581167
0.00014551449
0.00014517824
0.00014480181
0.00014438534
0.00014393086
0.00014344171
0.00014292157
0.00014237662
0.00014182817
0.00014128434
0.00014077509
0.00014031506
0.00013997006
0.00013972097
0.00013979866
0.00014017048
0.00014107983
0.00014302522
0.00014677438
0.00015335195
0.00016478567
0.00018433509
0.00022030995
0.00028083374
0.0003732301
0.00051057359
0.00069080764
0.00090088932
0.0011274704
0.0013558486
0.0015732956
0.0017719936
0.0019497299
0.0021085281
0.0022519527
0.0023829036
0.0025029777
0.0026130341
0.0027138713
0.0028064114
0.0028915351
0.0029699549
0.0030422456
0.0031089158
0.0031704311
0.0032272064
0.0032796062
0.0033279564
0.0033725529
0.0034136634
0.0034515311
0.0034863778
0.0035184071
0.0035478057
0.0035747462
0.0035993882
0.0036218794
0.0036423569
0.0036609477
0.00367777
0.0036929337
0.003706541
0.0037186875
0.0037294622
0.0037389485
0.0037472244
0.003754363
0.0037604328
0.0037654987
0.0037696205
0.0037728579
0.0037752577
0.0037768877
0.0037777567
0.003778011
0.0037774654
0.0037767058
0.003774987
0.0037713475
0.00014726989
0.00014725122
0.00014723371
0.00014721787
0.00014720345
0.00014718958
0.00014717509
0.00014715875
0.00014713927
0.00014711527
0.00014708535
0.00014704808
0.00014700203
0.00014694584
0.0001468781
0.00014679724
0.00014670187
0.00014659065
0.00014646204
0.00014631438
0.000146146
0.00014595527
0.00014574064
0.00014550075
0.00014523449
0.00014494123
0.00014462093
0.00014427394
0.00014390091
0.00014350561
0.00014309147
0.00014266499
0.00014222786
0.00014179538
0.0001413755
0.00014100101
0.00014068172
0.00014044476
0.00014031438
0.00014040961
0.00014076682
0.00014158465
0.00014307465
0.00014582185
0.00015072845
0.0001590578
0.00017331191
0.00019812478
0.00024142643
0.00031039141
0.00041462849
0.00055835197
0.00073202194
0.00092544482
0.001126512
0.0013238644
0.0015096749
0.001680694
0.0018373214
0.0019814268
0.0021146293
0.0022378647
0.0023517754
0.0024570613
0.0025544805
0.0026447196
0.0027283544
0.0028058904
0.002877793
0.0029444866
0.0030063516
0.0030637318
0.0031169411
0.0031662661
0.0032119692
0.0032542915
0.0032934556
0.0033296665
0.0033631139
0.0033939736
0.0034224084
0.0034485695
0.0034725975
0.0034946234
0.0035147694
0.0035331492
0.0035498695
0.0035650301
0.003578724
0.0035910395
0.0036020578
0.0036118589
0.0036205094
0.0036280934
0.0036346396
0.003640308
0.0036449184
0.0036491763
0.0036517368
0.0036551065
0.00014728005
0.00014725928
0.00014723815
0.00014721728
0.00014719697
0.00014717696
0.00014715663
0.00014713526
0.00014711201
0.00014708598
0.00014705621
0.00014702173
0.00014698154
0.00014693465
0.00014688012
0.0001468169
0.00014674402
0.00014666051
0.00014656538
0.00014645759
0.00014633605
0.00014619964
0.00014604726
0.00014587782
0.00014569028
0.00014548376
0.00014525759
0.00014501131
0.00014474459
0.00014445786
0.00014415194
0.0001438287
0.00014348927
0.00014313726
0.00014277601
0.0001424135
0.00014205641
0.00014171151
0.00014138805
0.00014110951
0.00014089613
0.00014073862
0.00014075898
0.000140905
0.00014133879
0.00014221826
0.0001437616
0.00014636719
0.00015088784
0.00015850822
0.00017133441
0.00019308562
0.00023079272
0.00029101071
0.0003831341
0.00050845202
0.00066090871
0.0008322461
0.001012263
0.001191297
0.0013626127
0.0015233113
0.0016732366
0.0018131859
0.0019438293
0.0020656103
0.0021789937
0.0022845421
0.002382826
0.002474358
0.0025596013
0.0026389896
0.002712926
0.0027817802
0.0028458925
0.0029055772
0.0029611247
0.0030128035
0.0030608618
0.0031055297
0.0031470209
0.0031855335
0.0032212521
0.0032543483
0.003284982
0.0033133027
0.0033394496
0.0033635534
0.0033857359
0.0034061118
0.0034247878
0.0034418667
0.0034574382
0.0034716053
0.0034844193
0.0034960557
0.003506341
0.0035161079
0.0035233642
0.0035343797
0.00014729258
0.00014727102
0.00014724856
0.0001472256
0.00014720251
0.00014717935
0.00014715588
0.0001471317
0.00014710631
0.0001470791
0.00014704941
0.00014701653
0.00014697974
0.0001469383
0.00014689148
0.00014683854
0.00014677873
0.00014671134
0.00014663563
0.00014655086
0.00014645625
0.00014635103
0.00014623438
0.00014610545
0.00014596344
0.00014580755
0.00014563707
0.00014545139
0.00014524995
0.00014503244
0.00014479876
0.00014454925
0.00014428429
0.00014400486
0.00014371221
0.00014340885
0.00014309792
0.00014278272
0.0001424667
0.0001421566
0.00014186016
0.00014157806
0.00014133861
0.00014114649
0.00014098786
0.0001409919
0.0001410818
0.00014136299
0.00014196374
0.00014303791
0.0001448344
0.00014774954
0.00015266945
0.00016083345
0.00017443125
0.00019744334
0.00023602608
0.00029669064
0.00038747575
0.00050591642
0.00064778228
0.00080573577
0.00097072944
0.0011347861
0.0012928928
0.0014430287
0.0015848567
0.0017184949
0.0018440821
0.0019618372
0.002072113
0.0021753245
0.0022718805
0.0023621732
0.0024465833
0.0025254749
0.0025991907
0.0026680521
0.0027323608
0.0027923988
0.0028484296
0.0029006995
0.0029494383
0.0029948609
0.003037168
0.0030765473
0.0031131744
0.0031472135
0.0031788185
0.0032081341
0.0032352949
0.00326043
0.0032836545
0.0033050933
0.0033248224
0.0033430359
0.0033595669
0.0033753875
0.0033878003
0.003407176
0.00014730721
0.00014728526
0.00014726233
0.00014723859
0.00014721431
0.00014718963
0.0001471645
0.00014713873
0.00014711203
0.00014708403
0.00014705427
0.00014702224
0.0001469874
0.0001469492
0.00014690705
0.00014686039
0.00014680865
0.00014675124
0.00014668761
0.00014661717
0.00014653935
0.00014645355
0.00014635915
0.0001462555
0.00014614195
0.00014601787
0.00014588262
0.00014573561
0.00014557628
0.00014540415
0.00014521886
0.00014502021
0.00014480812
0.00014458274
0.00014434442
0.00014409395
0.0001438326
0.00014356198
0.0001432838
0.00014300065
0.00014271628
0.00014243211
0.00014215577
0.00014189454
0.00014164132
0.00014143117
0.0001412623
0.00014113238
0.00014111388
0.00014118654
0.00014142141
0.00014190507
0.00014275909
0.00014417879
0.00014646431
0.00015015138
0.00015621942
0.00016616613
0.00018247458
0.00021009215
0.00025436895
0.00032314076
0.00041753164
0.00053603249
0.00067390927
0.00082365621
0.00097742266
0.0011293102
0.0012761137
0.0014165339
0.0015500866
0.001676555
0.0017959117
0.0019083104
0.0020140092
0.0021133032
0.0022065029
0.0022939263
0.0023758891
0.0024526975
0.0025246457
0.002592015
0.0026550721
0.0027140694
0.0027692451
0.0028208238
0.0028690166
0.0029140223
0.0029560278
0.002995209
0.0030317306
0.0030657496
0.0030974088
0.0031268569
0.0031541969
0.0031796439
0.0032030374
0.0032255022
0.0032435722
0.0032720917
0.00014732389
0.00014730167
0.00014727855
0.00014725455
0.00014722983
0.00014720451
0.00014717857
0.00014715196
0.00014712451
0.000147096
0.00014706611
0.0001470345
0.00014700076
0.00014696448
0.00014692521
0.0001468825
0.00014683589
0.00014678493
0.00014672915
0.00014666809
0.00014660128
0.00014652827
0.00014644855
0.00014636161
0.00014626693
0.00014616399
0.00014605225
0.00014593119
0.00014580032
0.00014565914
0.00014550724
0.00014534425
0.00014516989
0.000144984
0.0001447865
0.00014457753
0.0001443575
0.00014412707
0.00014388708
0.00014363865
0.00014338358
0.00014312311
0.00014285988
0.0001425981
0.0001423366
0.0001420846
0.00014184767
0.00014162377
0.00014143447
0.00014128558
0.00014116767
0.0001411686
0.00014123842
0.00014146068
0.00014191188
0.00014267899
0.00014393301
0.00014594111
0.00014906895
0.0001541439
0.00016234191
0.00017572396
0.00019785457
0.00023353126
0.00028939413
0.00036832427
0.00047045004
0.000592866
0.00072946756
0.00087303627
0.0010175833
0.001159382
0.001296527
0.0014280611
0.0015534591
0.0016724831
0.0017851179
0.0018914831
0.0019917689
0.002086207
0.0021750538
0.0022585761
0.0023370421
0.0024107166
0.0024798573
0.0025447126
0.0026055206
0.0026625086
0.0027158922
0.0027658765
0.0028126548
0.0028564119
0.0028973184
0.0029355477
0.0029712302
0.0030046046
0.0030355149
0.0030652535
0.0030895161
0.0031280236
0.00014734258
0.00014732014
0.0001472969
0.00014727281
0.00014724797
0.00014722242
0.00014719616
0.00014716917
0.00014714134
0.00014711254
0.00014708256
0.00014705116
0.00014701805
0.00014698292
0.00014694543
0.00014690522
0.00014686194
0.00014681522
0.00014676469
0.00014670995
0.00014665063
0.00014658635
0.00014651671
0.00014644128
0.00014635963
0.00014627134
0.00014617596
0.00014607304
0.00014596214
0.00014584283
0.00014571469
0.00014557733
0.00014543041
0.00014527363
0.00014510675
0.00014492963
0.00014474226
0.00014454482
0.0001443376
0.00014412109
0.00014389611
0.00014366345
0.00014342422
0.00014318058
0.00014293298
0.00014268436
0.00014243842
0.00014219562
0.00014196242
0.00014174488
0.00014153883
0.00014137217
0.00014124257
0.0001411495
0.00014116207
0.00014125055
0.00014149045
0.0001419504
0.00014270214
0.00014391182
0.00014581687
0.00014877683
0.00015346172
0.00016092501
0.00017295701
0.00019254961
0.00022398646
0.00027314955
0.00034298883
0.00043473339
0.0005464758
0.00067307
0.00080797955
0.00094552684
0.0010819162
0.0012149637
0.0013434219
0.0014665538
0.0015839703
0.0016955303
0.0018012469
0.0019012264
0.0019956349
0.0020846754
0.0021685714
0.0022475565
0.0023218671
0.0023917379
0.0024573989
0.0025190729
0.0025769746
0.0026313109
0.0026822764
0.0027300672
0.0027748398
0.002816856
0.0028559621
0.0028936317
0.0029246488
0.002974038
0.00014736321
0.0001473406
0.00014731727
0.00014729315
0.00014726828
0.00014724268
0.00014721633
0.00014718921
0.00014716124
0.00014713233
0.00014710233
0.00014707107
0.00014703834
0.00014700391
0.00014696753
0.00014692892
0.00014688782
0.00014684393
0.00014679693
0.00014674653
0.0001466924
0.00014663423
0.00014657168
0.0001465044
0.00014643203
0.0001463542
0.00014627055
0.00014618069
0.00014608424
0.00014598082
0.00014587006
0.00014575158
0.00014562502
0.00014549006
0.00014534638
0.00014519374
0.00014503193
0.00014486088
0.00014468058
0.00014449117
0.00014429295
0.00014408633
0.00014387181
0.00014365044
0.00014342283
0.00014319018
0.00014295447
0.00014271671
0.00014247929
0.00014224594
0.00014201591
0.00014179804
0.00014159679
0.00014141029
0.00014126236
0.00014115258
0.00014109027
0.00014112085
0.00014124164
0.00014152051
0.00014201436
0.00014281207
0.00014406598
0.00014600925
0.00014899867
0.00015365648
0.00016099167
0.00017269675
0.0001915503
0.00022155437
0.00026771213
0.00033303964
0.00041915331
0.00052440715
0.00064411026
0.00077232812
0.00090386968
0.0010351349
0.0011638978
0.0012887903
0.0014089726
0.0015239733
0.0016335727
0.001737713
0.0018364418
0.0019298759
0.0020181769
0.0021015335
0.0021801499
0.0022542383
0.0023240129
0.002389687
0.0024514679
0.0025095656
0.0025641563
0.0026155218
0.0026635051
0.0027097724
0.0027481176
0.0028093157
0.00014738567
0.00014736295
0.00014733956
0.00014731543
0.00014729057
0.00014726498
0.00014723865
0.00014721152
0.00014718354
0.00014715463
0.00014712468
0.00014709355
0.00014706109
0.00014702712
0.00014699146
0.0001469539
0.00014691423
0.00014687223
0.00014682765
0.00014678024
0.00014672975
0.0001466759
0.00014661841
0.000146557
0.00014649135
0.00014642116
0.00014634611
0.00014626587
0.00014618011
0.0001460885
0.00014599071
0.0001458864
0.00014577524
0.00014565689
0.00014553103
0.00014539736
0.00014525562
0.00014510558
0.0001449471
0.0001447801
0.00014460461
0.00014442076
0.00014422875
0.00014402903
0.00014382202
0.0001436083
0.00014338888
0.00014316459
0.00014293657
0.00014270688
0.00014247593
0.00014224689
0.00014202328
0.00014180505
0.00014160045
0.00014141343
0.00014124695
0.00014111894
0.00014102669
0.00014100788
0.00014106049
0.00014122992
0.0001415647
0.0001421287
0.00014301808
0.00014438652
0.00014647379
0.0001496596
0.00015458145
0.00016228172
0.00017440152
0.00019377429
0.00022437559
0.00027017934
0.00033444843
0.00041851633
0.00052051564
0.00063588573
0.0007592018
0.00088582418
0.0010124886
0.0011370787
0.0012582349
0.0013751052
0.0014871938
0.0015942454
0.0016961647
0.0017929643
0.001884729
0.0019715914
0.0020537144
0.0021312805
0.0022044816
0.0022735213
0.0023385798
0.0023999481
0.0024574544
0.0025129664
0.0025592008
0.0026331408
0.00014740988
0.0001473871
0.00014736368
0.00014733956
0.00014731474
0.00014728919
0.0001472629
0.00014723583
0.0001472079
0.00014717906
0.00014714921
0.00014711822
0.00014708598
0.00014705235
0.00014701719
0.00014698035
0.00014694165
0.00014690094
0.00014685802
0.00014681269
0.00014676475
0.00014671398
0.00014666015
0.000146603
0.00014654228
0.00014647772
0.00014640906
0.000146336
0.00014625828
0.00014617559
0.00014608765
0.00014599415
0.00014589479
0.00014578926
0.00014567725
0.00014555844
0.00014543254
0.00014529928
0.00014515843
0.00014500981
0.0001448533
0.00014468883
0.00014451643
0.00014433623
0.00014414843
0.0001439533
0.00014375133
0.00014354306
0.0001433291
0.00014311056
0.00014288805
0.00014266293
0.00014243731
0.00014221185
0.00014198982
0.00014177433
0.00014156708
0.00014137566
0.00014120103
0.00014105821
0.00014095082
0.00014088516
0.00014090165
0.00014100478
0.00014123803
0.00014165028
0.00014231452
0.00014333954
0.00014489321
0.00014724412
0.00015078935
0.00015625246
0.0001647669
0.00017810479
0.00019917395
0.00023170555
0.00027940043
0.0003452806
0.00042997802
0.00053106992
0.00064399686
0.00076381111
0.00088644786
0.0010090377
0.0011296617
0.0012470589
0.0013604304
0.0014693006
0.0015734136
0.0016726638
0.001767049
0.0018566371
0.0019415432
0.0020219187
0.0020979138
0.002169804
0.0022373809
0.0023027143
0.002357349
0.002444925
0.00014743573
0.00014741293
0.00014738952
0.00014736545
0.00014734068
0.0001473152
0.00014728898
0.00014726198
0.00014723415
0.00014720541
0.00014717568
0.00014714485
0.00014711283
0.00014707949
0.00014704471
0.00014700839
0.00014697039
0.00014693059
0.00014688883
0.00014684497
0.00014679884
0.00014675028
0.00014669908
0.00014664505
0.00014658796
0.00014652759
0.00014646371
0.00014639607
0.00014632444
0.00014624856
0.00014616817
0.00014608301
0.00014599281
0.00014589727
0.00014579611
0.00014568904
0.00014557574
0.00014545594
0.00014532937
0.00014519579
0.000145055
0.00014490685
0.00014475121
0.00014458806
0.00014441742
0.00014423937
0.00014405411
0.00014386192
0.00014366313
0.00014345833
0.00014324799
0.00014303281
0.00014281397
0.0001425922
0.00014236899
0.00014214633
0.00014192548
0.00014171002
0.00014150145
0.00014130598
0.00014112783
0.00014096978
0.00014084799
0.0001407653
0.00014074604
0.00014080308
0.00014096612
0.00014127908
0.00014179431
0.00014260124
0.00014381693
0.00014564184
0.00014838429
0.0001525145
0.00015885521
0.00016864054
0.00018398949
0.00020782307
0.00024374528
0.0002953673
0.00036496608
0.00045217086
0.0005538911
0.00066559031
0.00078283395
0.00090213994
0.0010210484
0.0011378851
0.0012515405
0.001361308
0.0014667618
0.0015676709
0.0016639398
0.0017555711
0.0018426123
0.0019252717
0.0020032615
0.0020788384
0.0021422729
0.0022442653
0.0001474631
0.00014744034
0.00014741698
0.00014739297
0.00014736828
0.00014734289
0.00014731677
0.00014728988
0.00014726216
0.00014723354
0.00014720395
0.0001471733
0.00014714149
0.00014710842
0.00014707398
0.00014703809
0.00014700062
0.0001469615
0.00014692059
0.0001468778
0.00014683298
0.00014678602
0.00014673674
0.00014668499
0.00014663059
0.00014657335
0.00014651306
0.00014644953
0.00014638255
0.00014631189
0.00014623734
0.00014615865
0.0001460756
0.00014598791
0.00014589532
0.00014579757
0.00014569435
0.00014558539
0.00014547041
0.00014534915
0.00014522137
0.00014508685
0.00014494541
0.00014479692
0.00014464128
0.00014447845
0.00014430845
0.00014413137
0.00014394736
0.00014375669
0.00014355967
0.00014335667
0.00014314832
0.0001429352
0.00014271811
0.00014249821
0.00014227645
0.00014205468
0.00014183419
0.00014161789
0.00014140884
0.00014120876
0.00014102479
0.00014086046
0.00014072677
0.00014063079
0.00014058132
0.00014060826
0.00014072067
0.00014096579
0.00014138111
0.00014203555
0.00014303232
0.00014451688
0.00014673037
0.00015002293
0.00015500353
0.00016259584
0.00017433343
0.00019254651
0.00022036315
0.00026139202
0.00031874709
0.00039360719
0.00048443961
0.00058757975
0.0006986641
0.0008138352
0.00093017676
0.0010456286
0.0011587815
0.0012687005
0.0013747904
0.0014766972
0.0015742156
0.0016673777
0.0017557323
0.0018416781
0.0019140944
0.0020310488
0.00014749192
0.00014746922
0.00014744594
0.00014742203
0.00014739745
0.00014737217
0.00014734617
0.00014731941
0.00014729182
0.00014726335
0.00014723393
0.00014720347
0.00014717188
0.00014713907
0.00014710495
0.00014706943
0.00014703243
0.00014699385
0.00014695362
0.00014691164
0.00014686781
0.00014682204
0.00014677419
0.00014672414
0.00014667174
0.00014661684
0.00014655927
0.00014649886
0.00014643543
0.00014636879
0.00014629876
0.00014622512
0.00014614767
0.00014606617
0.00014598038
0.00014589006
0.00014579493
0.00014569472
0.00014558917
0.00014547801
0.00014536097
0.00014523783
0.00014510836
0.00014497236
0.00014482967
0.00014468017
0.00014452375
0.0001443604
0.00014419013
0.00014401301
0.00014382919
0.00014363886
0.00014344234
0.00014323999
0.00014303227
0.00014281985
0.0001426034
0.00014238395
0.00014216244
0.0001419404
0.00014171981
0.000141502
0.0001412904
0.00014108767
0.00014089916
0.0001407298
0.00014058478
0.00014047685
0.00014040502
0.00014041192
0.00014049143
0.00014068349
0.00014102752
0.00014157862
0.0001424221
0.00014367395
0.00014552785
0.00014826747
0.00015235252
0.00015851261
0.00016793002
0.00018245441
0.00020472696
0.00023809853
0.00028596921
0.00035050601
0.00043150882
0.00052635019
0.00063106014
0.0007416577
0.00085489936
0.00096839546
0.0010804654
0.0011899656
0.0012961237
0.0013985712
0.0014965249
0.0015924208
0.0016736026
0.0018056272
0.00014752205
0.00014749946
0.00014747629
0.0001474525
0.00014742806
0.00014740293
0.00014737707
0.00014735046
0.00014732303
0.00014729474
0.0001472655
0.00014723525
0.0001472039
0.00014717136
0.00014713756
0.0001471024
0.00014706582
0.00014702773
0.00014698807
0.00014694675
0.00014690371
0.00014685887
0.00014681212
0.00014676336
0.00014671249
0.00014665937
0.00014660386
0.00014654584
0.00014648514
0.00014642161
0.00014635509
0.00014628539
0.00014621234
0.00014613573
0.00014605534
0.00014597096
0.00014588233
0.0001457892
0.00014569132
0.00014558843
0.00014548028
0.00014536661
0.00014524718
0.00014512177
0.00014499018
0.00014485222
0.00014470774
0.00014455662
0.00014439878
0.00014423418
0.00014406285
0.00014388483
0.00014370026
0.00014350933
0.00014331228
0.00014310949
0.00014290137
0.00014268854
0.00014247162
0.0001422515
0.00014202941
0.00014180633
0.00014158412
0.00014136457
0.00014115058
0.0001409454
0.00014075202
0.00014057726
0.00014042245
0.00014030487
0.00014022519
0.0001402071
0.00014026161
0.00014041672
0.00014070891
0.00014118501
0.00014191783
0.00014300946
0.00014461469
0.00014696844
0.00015044618
0.00015564524
0.00016352045
0.00017557239
0.00019404227
0.00022194794
0.00026267497
0.00031893537
0.00039152664
0.00047880813
0.00057737042
0.00068331359
0.00079320711
0.00090441154
0.0010149993
0.0011237558
0.0012292301
0.0013336724
0.001422687
0.0015691057
0.00014755341
0.00014753096
0.00014750793
0.00014748429
0.00014746
0.00014743504
0.00014740936
0.00014738292
0.00014735568
0.00014732758
0.00014729855
0.00014726853
0.00014723744
0.00014720519
0.00014717171
0.00014713692
0.00014710074
0.00014706312
0.00014702398
0.00014698326
0.0001469409
0.00014689682
0.00014685097
0.00014680325
0.00014675357
0.00014670183
0.00014664793
0.00014659176
0.00014653318
0.00014647206
0.00014640828
0.00014634167
0.00014627208
0.00014619934
0.00014612325
0.00014604362
0.00014596021
0.00014587281
0.00014578118
0.00014568506
0.00014558423
0.00014547842
0.0001453674
0.00014525094
0.00014512879
0.00014500076
0.00014486665
0.00014472628
0.00014457952
0.00014442625
0.0001442664
0.00014409992
0.00014392682
0.00014374717
0.00014356105
0.00014336866
0.00014317023
0.0001429661
0.00014275666
0.00014254245
0.00014232419
0.00014210262
0.00014187879
0.0001416539
0.00014142962
0.00014120806
0.00014099116
0.00014078276
0.00014058437
0.00014040405
0.00014024514
0.00014011774
0.00014002929
0.00013999312
0.00014002806
0.00014015587
0.00014040892
0.0001408309
0.00014148412
0.00014245788
0.00014388621
0.00014597345
0.00014903708
0.00015358056
0.00016040296
0.00017077082
0.00018661469
0.00021063639
0.00024607612
0.0002958973
0.00036157711
0.00044229993
0.00053525098
0.00063674661
0.0007432706
0.00085214043
0.00096065729
0.001070458
0.0011650867
0.0013238344
0.0001475859
0.00014756361
0.00014754075
0.00014751728
0.00014749317
0.0001474684
0.00014744291
0.00014741668
0.00014738965
0.00014736177
0.00014733298
0.00014730321
0.00014727239
0.00014724045
0.00014720731
0.00014717289
0.00014713713
0.00014709997
0.00014706133
0.00014702117
0.00014697943
0.00014693605
0.00014689096
0.00014684411
0.00014679542
0.00014674482
0.00014669221
0.0001466375
0.00014658059
0.00014652139
0.00014645976
0.00014639559
0.00014632875
0.00014625908
0.00014618641
0.00014611058
0.00014603138
0.00014594861
0.00014586205
0.00014577148
0.00014567667
0.00014557738
0.00014547338
0.00014536443
0.00014525029
0.00014513075
0.00014500558
0.00014487459
0.00014473758
0.00014459441
0.00014444492
0.00014428901
0.00014412661
0.00014395767
0.00014378219
0.00014360023
0.00014341188
0.0001432173
0.00014301672
0.00014281044
0.00014259889
0.00014238255
0.00014216207
0.00014193821
0.000141712
0.00014148478
0.00014125786
0.00014103353
0.00014081313
0.00014060072
0.0001403992
0.00014021389
0.00014004992
0.00013991445
0.00013981679
0.000139769
0.00013978822
0.00013989525
0.00014011939
0.00014050037
0.00014109461
0.00014198367
0.00014328785
0.00014518893
0.00014796522
0.00015205455
0.00015815276
0.00016736428
0.00018138955
0.00020266573
0.00023425089
0.00027918712
0.0003393791
0.00041464886
0.00050269659
0.00060025847
0.0007031761
0.00081197284
0.00090770163
0.0010742518
0.00014761939
0.0001475973
0.00014757463
0.00014755136
0.00014752746
0.00014750289
0.00014747762
0.00014745161
0.00014742482
0.00014739718
0.00014736865
0.00014733916
0.00014730864
0.00014727703
0.00014724424
0.00014721021
0.00014717488
0.00014713818
0.00014710005
0.00014706044
0.0001470193
0.00014697656
0.00014693219
0.00014688613
0.00014683831
0.00014678867
0.00014673714
0.00014668364
0.00014662811
0.00014657045
0.00014651056
0.00014644835
0.0001463837
0.00014631648
0.00014624656
0.00014617379
0.00014609798
0.00014601896
0.00014593653
0.00014585049
0.00014576064
0.00014566674
0.00014556857
0.00014546592
0.00014535854
0.00014524621
0.00014512871
0.00014500582
0.00014487733
0.00014474304
0.0001446028
0.00014445642
0.00014430379
0.00014414479
0.00014397935
0.00014380742
0.000143629
0.00014344414
0.00014325292
0.0001430555
0.0001428521
0.00014264301
0.00014242861
0.0001422094
0.000141986