/*--------------------------------*- C++ -*----------------------------------*\
  =========                 |
  \\      /  F ield         | OpenFOAM: The Open Source CFD Toolbox
   \\    /   O peration     | Website:  https://openfoam.org
    \\  /    A nd           | Version:  12
     \\/     M anipulation  |
\*---------------------------------------------------------------------------*/
FoamFile
{
    format      ascii;
    class       surfaceScalarField;
    location    "1500";
    object      phi;
}
// * * * * * * * * * * * * * * * * * * * * * * * * * * * * * * * * * * * * * //

dimensions      [0 3 -1 0 0 0 0];

internalField   nonuniform List<scalar> 
14782
(
0.00079744872
1.4442815e-06
-0.000798893
0.00079529355
2.1551733e-06
0.00079257724
2.7163045e-06
0.00078928616
3.2910766e-06
0.00078536183
3.9243374e-06
0.0007807257
4.636128e-06
0.00077533086
5.3948435e-06
0.00076913938
6.1914802e-06
0.00076212302
7.0163507e-06
0.00075429686
7.8261654e-06
0.00074569859
8.5982716e-06
0.00073640005
9.2985365e-06
0.00072649793
9.9021256e-06
0.00071610785
1.0390073e-05
0.00070534729
1.0760566e-05
0.00069435344
1.099385e-05
0.00068323584
1.1117598e-05
0.00067211459
1.1121247e-05
0.00066110575
1.1008842e-05
0.00065030922
1.0796535e-05
0.00063982587
1.0483341e-05
0.00062977224
1.005363e-05
0.00062026355
9.5086984e-06
0.00061139239
8.8711566e-06
0.00060323097
8.1614153e-06
0.00059583137
7.3996021e-06
0.00058922206
6.6093134e-06
0.00058340602
5.8160433e-06
0.0005783508
5.0552181e-06
0.00057398016
4.3706358e-06
0.00057018502
3.7951362e-06
0.00056683749
3.3475334e-06
0.00056380642
3.0310725e-06
0.00056098085
2.825568e-06
0.00055828339
2.6974572e-06
0.00055566984
2.6135584e-06
0.00055312049
2.5493472e-06
0.00055062802
2.4924698e-06
0.00054818515
2.4428732e-06
0.00054578087
2.4042766e-06
0.00054340282
2.378052e-06
0.00054104182
2.3609983e-06
0.00053869663
2.3451911e-06
0.0005363721
2.3245266e-06
0.00053407435
2.297755e-06
0.0005318074
2.2669435e-06
0.00052957255
2.2348562e-06
0.00052736994
2.2026061e-06
0.00052519939
2.1705462e-06
0.00052306108
2.1383164e-06
0.00052095534
2.1057323e-06
0.00051888262
2.072722e-06
0.00051684277
2.0398487e-06
0.00051483496
2.0078172e-06
0.00051285864
1.9763123e-06
0.00051091364
1.9450076e-06
0.00050899937
1.9142659e-06
0.00050711497
1.8844018e-06
0.00050525992
1.855048e-06
0.00050343378
1.8261386e-06
0.00050163548
1.7983068e-06
0.00049986425
1.771225e-06
0.0004981195
1.7447462e-06
0.0004964003
1.7192065e-06
0.00049470601
1.6942853e-06
0.0004930361
1.669909e-06
0.00049138974
1.6463676e-06
0.0004897663
1.6234353e-06
0.00048816522
1.6010844e-06
0.00048658572
1.5794976e-06
0.00048502721
1.5585103e-06
0.00048348904
1.5381654e-06
0.0004819706
1.5184466e-06
0.0004804713
1.4992982e-06
0.00047899055
1.4807469e-06
0.00047752783
1.4627242e-06
0.0004760826
1.4452312e-06
0.00047465434
1.4282537e-06
0.00047324257
1.4117739e-06
0.00047184679
1.3957753e-06
0.00047046655
1.3802419e-06
0.00046910139
1.3651602e-06
0.00046775087
1.3505183e-06
0.00046641457
1.3363074e-06
0.00046509205
1.3225194e-06
0.00046378289
1.3091519e-06
0.00046248669
1.2962007e-06
0.00046120301
1.283684e-06
0.00045993141
1.2715953e-06
0.00045867139
1.2600273e-06
0.0004574225
1.2488867e-06
0.00045618386
1.2386428e-06
0.00045495522
1.2286337e-06
0.00045373392
1.221304e-06
0.0004525217
1.2122147e-06
0.00045130641
1.2152978e-06
0.00045010288
1.203525e-06
0.00044882602
1.2768578e-06
0.00044774475
1.0812725e-06
1.613354e-06
0.00082626203
1.5241644e-06
-0.00082634192
0.00082618271
2.2345013e-06
0.00082606126
2.8377485e-06
0.00082590996
3.4423788e-06
0.00082572025
4.1140519e-06
0.00082548387
4.8724991e-06
0.00082517641
5.7023092e-06
0.0008247614
6.6064917e-06
0.00082419973
7.5780198e-06
0.00082343996
8.585933e-06
0.00082242444
9.6137898e-06
0.00082109173
1.0631246e-05
0.00081938141
1.1612446e-05
0.00081723662
1.253487e-05
0.00081461072
1.3386457e-05
0.00081146311
1.4141463e-05
0.00080776623
1.4814479e-05
0.0008035023
1.5385182e-05
0.00079866369
1.5847445e-05
0.00079324987
1.6210355e-05
0.00078725735
1.6475861e-05
0.00078069937
1.6611609e-05
0.00077363345
1.6574619e-05
0.00076614214
1.6362468e-05
0.00075831299
1.599057e-05
0.00075025175
1.546084e-05
0.00074208056
1.4780502e-05
0.00073393127
1.396533e-05
0.00072594513
1.304136e-05
0.00071827607
1.2039699e-05
0.00071107171
1.0999492e-05
0.00070442732
9.9919263e-06
0.00069836494
9.0934533e-06
0.00069284671
8.3437947e-06
0.00068779582
7.7483465e-06
0.00068311717
7.2922134e-06
0.00067872259
6.9439291e-06
0.00067454753
6.6675301e-06
0.00067055153
6.4388718e-06
0.0006667125
6.2433054e-06
0.00066301786
6.0726901e-06
0.00065945659
5.9222669e-06
0.00065601671
5.7850756e-06
0.0006526844
5.65683e-06
0.00064944529
5.536871e-06
0.00064628708
5.4251543e-06
0.00064320165
5.3202823e-06
0.00064018516
5.2190955e-06
0.00063723532
5.1203871e-06
0.00063434951
5.0241319e-06
0.00063152438
4.9308549e-06
0.00062875693
4.8401747e-06
0.00062604475
4.7520248e-06
0.00062338573
4.6668362e-06
0.00062077817
4.5838818e-06
0.00061822054
4.5026352e-06
0.00061571114
4.4236588e-06
0.00061324819
4.3473613e-06
0.00061083016
4.2730715e-06
0.00060845575
4.200549e-06
0.00060612339
4.1306702e-06
0.0006038318
4.06281e-06
0.00060157987
3.9966817e-06
0.0005993662
3.932877e-06
0.00059718961
3.8708713e-06
0.00059504903
3.8104899e-06
0.0005929432
3.7521952e-06
0.00059087105
3.6955924e-06
0.00058883154
3.6405874e-06
0.00058682357
3.5874664e-06
0.00058484614
3.5359464e-06
0.00058289824
3.4860628e-06
0.00058097892
3.4377653e-06
0.00057908727
3.3909506e-06
0.00057722237
3.3456483e-06
0.00057538337
3.3017252e-06
0.00057356944
3.2591565e-06
0.00057177979
3.2179001e-06
0.00057001366
3.1779102e-06
0.00056827029
3.1391423e-06
0.00056654898
3.1015543e-06
0.00056484903
3.0651086e-06
0.00056316978
3.0297724e-06
0.00056151057
2.9955185e-06
0.00055987076
2.9623233e-06
0.00055824974
2.9301733e-06
0.00055664688
2.8990589e-06
0.00055506157
2.8689992e-06
0.00055349316
2.8400025e-06
0.00055194101
2.8121779e-06
0.00055040435
2.7855434e-06
0.0005488824
2.7605903e-06
0.00054737394
2.7370967e-06
0.00054587784
2.7174024e-06
0.00054439124
2.6988136e-06
0.00054291133
2.6952114e-06
0.00054142664
2.688218e-06
0.00053994804
2.7554593e-06
0.00053834602
2.6832879e-06
3.1350925e-06
0.00085393639
1.5695669e-06
-0.00085398179
0.00085392089
2.2499981e-06
0.00085389892
2.8597242e-06
0.00085387505
3.4662486e-06
0.00085385411
4.1349922e-06
0.00085384219
4.8844199e-06
0.00085383954
5.7049526e-06
0.00085385023
6.5958019e-06
0.00085387822
7.5500345e-06
0.00085392041
8.5437405e-06
0.00085397473
9.5594736e-06
0.00085403514
1.0570835e-05
0.00085409367
1.1553917e-05
0.00085414025
1.2488286e-05
0.00085416457
1.3362138e-05
0.00085414989
1.4156146e-05
0.00085408464
1.4879725e-05
0.00085394924
1.5520585e-05
0.00085372057
1.6076113e-05
0.00085337493
1.655599e-05
0.00085288047
1.6970329e-05
0.00085217927
1.7312801e-05
0.00085117357
1.7580319e-05
0.00084975957
1.7776473e-05
0.000847841
1.790914e-05
0.00084531657
1.7985269e-05
0.0008420834
1.8013667e-05
0.00083804518
1.8003554e-05
0.00083312347
1.7963072e-05
0.00082726738
1.789579e-05
0.00082052148
1.7745391e-05
0.00081304591
1.7467495e-05
0.00080507547
1.7063888e-05
0.00079689883
1.6520443e-05
0.00078880611
1.5841062e-05
0.00078105023
1.5048093e-05
0.00077381521
1.4178952e-05
0.00076717999
1.3302748e-05
0.00076111674
1.2502126e-05
0.00075553709
1.1822954e-05
0.00075033559
1.1274188e-05
0.00074542094
1.0836915e-05
0.00074073253
1.0473486e-05
0.00073623664
1.0152719e-05
0.000731915
9.8585096e-06
0.00072775475
9.5854018e-06
0.00072374319
9.3318488e-06
0.00071986685
9.0954338e-06
0.00071611183
8.8754064e-06
0.00071246549
8.6704754e-06
0.00070891787
8.4784704e-06
0.00070546221
8.2958409e-06
0.00070209349
8.1207427e-06
0.00069880687
7.9534538e-06
0.00069559765
7.7930996e-06
0.00069246166
7.6386279e-06
0.00068939522
7.4900968e-06
0.00068639508
7.3475062e-06
0.00068345843
7.2097205e-06
0.0006805827
7.0762796e-06
0.0006777652
6.9481656e-06
0.0006750037
6.8243139e-06
0.0006722962
6.7041758e-06
0.00066964059
6.5884907e-06
0.00066703496
6.4764963e-06
0.0006644776
6.3678531e-06
0.00066196668
6.2631119e-06
0.00065950059
6.1616875e-06
0.0006570778
6.0633778e-06
0.00065469675
5.9685154e-06
0.00065235601
5.8766871e-06
0.00065005419
5.7878856e-06
0.00064778995
5.7020025e-06
0.00064556203
5.6188736e-06
0.00064336916
5.5385115e-06
0.00064121018
5.4607083e-06
0.00063908394
5.3853944e-06
0.00063698936
5.312485e-06
0.00063492538
5.2418929e-06
0.00063289098
5.1735336e-06
0.00063088521
5.1073271e-06
0.00062890712
5.043201e-06
0.0006269558
4.9810909e-06
0.00062503038
4.9209414e-06
0.00062313
4.862705e-06
0.00062125382
4.8063476e-06
0.00061940103
4.7518489e-06
0.00061757081
4.699218e-06
0.00061576233
4.6484859e-06
0.00061397476
4.59975e-06
0.00061220711
4.5531949e-06
0.0006104585
4.5091913e-06
0.00060872729
4.4683123e-06
0.0006070127
4.43199e-06
0.00060531025
4.4012697e-06
0.00060362
4.385456e-06
0.00060192103
4.387189e-06
0.00060025941
4.4170752e-06
0.00059834641
4.5962942e-06
4.7262809e-06
0.00088247818
1.6192273e-06
-0.00088252784
0.00088246506
2.2631252e-06
0.00088245627
2.8685091e-06
0.0008824474
3.4751229e-06
0.00088244332
4.1390656e-06
0.00088244989
4.8778544e-06
0.00088246969
5.6851488e-06
0.00088250677
6.5587237e-06
0.00088256406
7.4927436e-06
0.00088264068
8.4671175e-06
0.00088273663
9.4635238e-06
0.00088284939
1.0458081e-05
0.00088297539
1.1427914e-05
0.00088311031
1.2353365e-05
0.00088325053
1.3221916e-05
0.00088338987
1.4016815e-05
0.00088352727
1.4742322e-05
0.00088365802
1.5389835e-05
0.0008837774
1.5956728e-05
0.00088388322
1.6450176e-05
0.00088397308
1.6880462e-05
0.00088404299
1.7242896e-05
0.00088408705
1.7536256e-05
0.00088409775
1.7765781e-05
0.0008840655
1.7941382e-05
0.00088397715
1.8073619e-05
0.00088381511
1.8175706e-05
0.00088355521
1.8263461e-05
0.00088316171
1.8356565e-05
0.00088257856
1.8478941e-05
0.00088168175
1.8642206e-05
0.0008802978
1.8851443e-05
0.00087825447
1.910722e-05
0.00087538242
1.9392489e-05
0.00087154526
1.9678224e-05
0.00086666043
1.993292e-05
0.00086075811
2.0081273e-05
0.0008540251
2.0035762e-05
0.00084675273
1.9774497e-05
0.0008392677
1.930798e-05
0.00083187606
1.8665827e-05
0.00082481683
1.7896153e-05
0.00081821997
1.7070345e-05
0.00081209772
1.6274963e-05
0.00080638834
1.5567898e-05
0.00080100585
1.496789e-05
0.00079587758
1.4460114e-05
0.0007909585
1.4014517e-05
0.00078622514
1.360877e-05
0.00078166417
1.3231443e-05
0.00077726393
1.287871e-05
0.00077301183
1.2547938e-05
0.00076889467
1.2237901e-05
0.00076490002
1.1948108e-05
0.00076101788
1.1675241e-05
0.00075724078
1.1415725e-05
0.00075356253
1.1168349e-05
0.00074997729
1.0932739e-05
0.0007464798
1.0707219e-05
0.00074306535
1.0490726e-05
0.00073972956
1.0283954e-05
0.00073646872
1.0085153e-05
0.00073327952
9.8933799e-06
0.00073015864
9.7093705e-06
0.00072710317
9.5319669e-06
0.00072411048
9.3605392e-06
0.00072117796
9.1956306e-06
0.00071830325
9.0363984e-06
0.00071548417
8.8824619e-06
0.00071271855
8.7341307e-06
0.00071000442
8.5908176e-06
0.00070733988
8.4524282e-06
0.00070472312
8.3187589e-06
0.00070215244
8.1895533e-06
0.00069962618
8.0647772e-06
0.00069714276
7.9441281e-06
0.00069470068
7.8274693e-06
0.00069229851
7.7146538e-06
0.00068993487
7.6055357e-06
0.00068760843
7.4999742e-06
0.00068531792
7.3978369e-06
0.00068306212
7.2990021e-06
0.00068083985
7.2033611e-06
0.00067864997
7.1108181e-06
0.00067649139
7.0212901e-06
0.00067436302
6.9347121e-06
0.00067226383
6.8510445e-06
0.00067019277
6.7702757e-06
0.0006681488
6.6924599e-06
0.00066613088
6.6176671e-06
0.00066413781
6.5462646e-06
0.00066216856
6.4784387e-06
0.00066022116
6.415711e-06
0.0006582949
6.358256e-06
0.0006563844
6.311764e-06
0.00065449105
6.2788118e-06
0.00065258864
6.2895981e-06
0.00065074401
6.2617039e-06
0.00064856527
6.7750287e-06
6.4289994e-06
0.00091197288
1.6762854e-06
-0.00091202994
0.00091195295
2.2830566e-06
0.0009119441
2.8773645e-06
0.00091193812
3.481103e-06
0.00091193846
4.1387201e-06
0.0009119503
4.8660149e-06
0.00091197638
5.6590701e-06
0.00091201967
6.5154361e-06
0.00091208276
7.4296516e-06
0.00091216576
8.384118e-06
0.0009122685
9.3607792e-06
0.00091238889
1.0337694e-05
0.00091252372
1.1293088e-05
0.00091266913
1.2207952e-05
0.00091282159
1.3069456e-05
0.00091297581
1.3862595e-05
0.00091313005
1.4588079e-05
0.00091328078
1.5239107e-05
0.0009134247
1.5812809e-05
0.0009135604
1.6314478e-05
0.00091368747
1.6753389e-05
0.0009138043
1.7126064e-05
0.00091390885
1.7431713e-05
0.00091399946
1.7675172e-05
0.00091407466
1.7866182e-05
0.00091413246
1.8015814e-05
0.000914171
1.8137173e-05
0.00091418851
1.8245942e-05
0.00091418336
1.836172e-05
0.0009141545
1.8507796e-05
0.00091409799
1.8698719e-05
0.0009140056
1.894383e-05
0.00091386386
1.9248963e-05
0.00091365053
1.9605825e-05
0.0009133297
1.9999044e-05
0.00091284648
2.0416149e-05
0.00091208367
2.0844083e-05
0.00091085053
2.1268902e-05
0.00090894165
2.1683374e-05
0.00090617307
2.2076557e-05
0.00090241008
2.2428822e-05
0.00089761374
2.2692488e-05
0.00089190691
2.2777181e-05
0.0008855499
2.2631965e-05
0.00087885284
2.2264961e-05
0.00087211918
2.170155e-05
0.00086558435
2.0994941e-05
0.00085937104
2.0227827e-05
0.00085349629
1.9483528e-05
0.0008479181
1.8809632e-05
0.00084258126
1.8215546e-05
0.00083744523
1.7683971e-05
0.00083248773
1.7195404e-05
0.00082769674
1.6739093e-05
0.00082306285
1.6309132e-05
0.00081857573
1.5902842e-05
0.0008142241
1.5519984e-05
0.00080999729
1.5159552e-05
0.00080588669
1.4817811e-05
0.00080188548
1.4491939e-05
0.00079798738
1.4182053e-05
0.00079418675
1.3885784e-05
0.00079047845
1.3601684e-05
0.00078685764
1.3330173e-05
0.00078332017
1.3069443e-05
0.00077986226
1.281845e-05
0.00077648025
1.2577634e-05
0.00077317087
1.2345777e-05
0.00076993112
1.2122214e-05
0.0007667581
1.1907149e-05
0.00076364916
1.1699759e-05
0.00076060179
1.1499801e-05
0.00075761362
1.1306928e-05
0.00075468243
1.1120748e-05
0.00075180606
1.0941141e-05
0.00074898251
1.0767677e-05
0.00074620986
1.0600126e-05
0.00074348626
1.0438254e-05
0.00074080996
1.0281835e-05
0.00073817928
1.013065e-05
0.00073559262
9.9844983e-06
0.00073304843
9.843191e-06
0.00073054523
9.7065595e-06
0.0007280816
9.5744532e-06
0.00072565615
9.4467405e-06
0.00072326755
9.323313e-06
0.00072091449
9.2041009e-06
0.00071859571
9.0890609e-06
0.0007163099
8.978264e-06
0.00071405583
8.8717413e-06
0.00071183204
8.7700487e-06
0.00070963733
8.6731533e-06
0.00070746944
8.5835983e-06
0.00070532758
8.5001207e-06
0.00070320579
8.4335503e-06
0.00070110614
8.3784617e-06
0.00069899872
8.3970158e-06
0.00069696591
8.2945153e-06
0.00069453329
9.2076458e-06
8.2633162e-06
0.00094245849
1.7391545e-06
-0.00094252136
0.00094243007
2.3114695e-06
0.00094241664
2.890804e-06
0.00094240967
3.4880642e-06
0.000942411
4.1373925e-06
0.00094242467
4.8523446e-06
0.00094245314
5.6306024e-06
0.00094249889
6.4696816e-06
0.00094256431
7.3642409e-06
0.00094264973
8.2986968e-06
0.00094275475
9.255759e-06
0.0009428774
1.021504e-05
0.00094301461
1.1155875e-05
0.00094316268
1.2059886e-05
0.00094331813
1.2914006e-05
0.00094347636
1.3704362e-05
0.00094363513
1.4429314e-05
0.00094379123
1.5083005e-05
0.00094394176
1.5662277e-05
0.00094408499
1.6171249e-05
0.00094422072
1.6617657e-05
0.00094434748
1.6999305e-05
0.00094446362
1.7315571e-05
0.00094456759
1.7571205e-05
0.00094465839
1.7775382e-05
0.00094473553
1.7938677e-05
0.00094479871
1.8073984e-05
0.00094484797
1.8196687e-05
0.00094488392
1.832577e-05
0.00094490822
1.8483494e-05
0.0009449223
1.868464e-05
0.00094492745
1.893868e-05
0.00094492469
1.9251726e-05
0.00094491305
1.961746e-05
0.00094488951
2.0022585e-05
0.00094484959
2.0456074e-05
0.00094478535
2.0908321e-05
0.00094468165
2.1372599e-05
0.00094451575
2.1849278e-05
0.00094425441
2.2337892e-05
0.00094384698
2.2836258e-05
0.00094319901
2.3340455e-05
0.00094213982
2.3836373e-05
0.00094046121
2.4310572e-05
0.00093797635
2.4749822e-05
0.00093454299
2.513491e-05
0.0009301378
2.5400126e-05
0.00092489991
2.5465715e-05
0.00091907556
2.5307884e-05
0.00091295253
2.4932663e-05
0.00090679569
2.4372386e-05
0.00090078355
2.3696108e-05
0.00089499051
2.2988449e-05
0.00088941897
2.2310632e-05
0.00088404255
2.1685548e-05
0.00087883669
2.1108701e-05
0.00087378739
2.0569284e-05
0.0008688875
2.0059447e-05
0.00086413115
1.9574161e-05
0.00085951098
1.9112106e-05
0.00085501838
1.8674651e-05
0.00085064559
1.8258574e-05
0.00084638615
1.7861119e-05
0.00084223424
1.748209e-05
0.00083818456
1.7119123e-05
0.00083423218
1.6770822e-05
0.00083037242
1.64374e-05
0.00082660109
1.6117107e-05
0.00082291439
1.5808916e-05
0.00081930866
1.5512879e-05
0.00081578055
1.5227867e-05
0.00081232691
1.4953436e-05
0.0008089448
1.4689044e-05
0.00080563143
1.443412e-05
0.00080238414
1.4188422e-05
0.00079920046
1.3951358e-05
0.00079607802
1.3722574e-05
0.00079301454
1.3501726e-05
0.0007900079
1.3288483e-05
0.00078705601
1.3082533e-05
0.00078415693
1.2883581e-05
0.00078130876
1.2691358e-05
0.00077850971
1.2505618e-05
0.00077575802
1.2326141e-05
0.00077305203
1.2152732e-05
0.00077039011
1.1985228e-05
0.0007677707
1.1823516e-05
0.00076519225
1.1667511e-05
0.00076265322
1.1517291e-05
0.00076015212
1.1372839e-05
0.00075768727
1.1234899e-05
0.00075525723
1.1103198e-05
0.00075285949
1.0981337e-05
0.00075049309
1.0866516e-05
0.00074815163
1.0775008e-05
0.00074583759
1.069251e-05
0.00074351798
1.0716619e-05
0.0007412885
1.0524001e-05
0.00073860113
1.1895012e-05
1.0244116e-05
0.00097396761
1.8054394e-06
-0.00097403389
0.00097393184
2.3472413e-06
0.00097391261
2.9100295e-06
0.00097390267
3.4980003e-06
0.00097390293
4.1371406e-06
0.00097391648
4.8387861e-06
0.0009739455
5.6015881e-06
0.00097399213
6.4230488e-06
0.00097405846
7.2979148e-06
0.00097414489
8.2122671e-06
0.00097425091
9.1497361e-06
0.00097437467
1.0091284e-05
0.0009745132
1.1017344e-05
0.0009746629
1.1910183e-05
0.00097482028
1.2756631e-05
0.00097498105
1.3543585e-05
0.00097514265
1.4267713e-05
0.00097530205
1.4923608e-05
0.00097545639
1.5507938e-05
0.00097560389
1.602375e-05
0.00097574408
1.6477465e-05
0.00097587558
1.6867807e-05
0.00097599684
1.7194313e-05
0.00097610653
1.746151e-05
0.00097620382
1.7678098e-05
0.00097628818
1.7854317e-05
0.00097635951
1.8002652e-05
0.00097641802
1.813818e-05
0.00097646462
1.8279165e-05
0.00097650151
1.8446609e-05
0.00097653083
1.8655319e-05
0.00097655478
1.8914726e-05
0.00097657566
1.9230847e-05
0.00097659453
1.9598593e-05
0.00097661125
2.0005864e-05
0.00097662506
2.0442262e-05
0.00097663444
2.0898943e-05
0.00097663693
2.1370109e-05
0.00097662958
2.1856626e-05
0.00097660834
2.2359126e-05
0.00097656775
2.2876851e-05
0.0009764997
2.3408502e-05
0.00097638782
2.394826e-05
0.00097620546
2.4492931e-05
0.0009759132
2.5042078e-05
0.00097545247
2.5595639e-05
0.0009747058
2.6146802e-05
0.00097349049
2.6681026e-05
0.00097161344
2.7184935e-05
0.00096890532
2.7640779e-05
0.00096527936
2.7998343e-05
0.00096079505
2.8180425e-05
0.00095563843
2.8145061e-05
0.00095006083
2.7888241e-05
0.00094431537
2.7431008e-05
0.00093858886
2.6835203e-05
0.0009329774
2.6180748e-05
0.00092750918
2.5527669e-05
0.00092218138
2.4901962e-05
0.00091698641
2.4307068e-05
0.00091192078
2.3740286e-05
0.00090698363
2.319572e-05
0.0009021728
2.2671948e-05
0.00089748364
2.2171252e-05
0.00089291086
2.1691906e-05
0.00088844957
2.1232111e-05
0.00088409518
2.0791787e-05
0.00087984343
2.0368859e-05
0.00087569018
1.9962163e-05
0.0008716314
1.9571666e-05
0.00086766334
1.919593e-05
0.00086378245
1.8834323e-05
0.00085998537
1.8486125e-05
0.0008562689
1.8150585e-05
0.00085263
1.7827325e-05
0.00084906577
1.7515582e-05
0.00084557348
1.721487e-05
0.00084215048
1.692472e-05
0.00083879428
1.6644692e-05
0.00083550245
1.6374362e-05
0.00083227269
1.6113338e-05
0.00082910279
1.5861252e-05
0.00082599064
1.5617774e-05
0.00082293418
1.5382601e-05
0.00081993144
1.5155467e-05
0.00081698053
1.4936142e-05
0.00081407959
1.4724462e-05
0.00081122681
1.4520289e-05
0.0008084204
1.4323703e-05
0.00080565861
1.4134628e-05
0.00080293951
1.3953995e-05
0.00080026143
1.378128e-05
0.00079762161
1.3621159e-05
0.00079501888
1.3469239e-05
0.00079244646
1.3347434e-05
0.00078990706
1.3231907e-05
0.00078736497
1.3258712e-05
0.00078492813
1.2960843e-05
0.00078197871
1.4844424e-05
1.2384697e-05
0.0010065326
1.8731172e-06
-0.0010066003
0.0010064915
2.388313e-06
0.0010064671
2.9344637e-06
0.0010064536
3.5115014e-06
0.0010064517
4.139049e-06
0.0010064639
4.8265301e-06
0.0010064923
5.5732207e-06
0.0010065387
6.376649e-06
0.001006605
7.2316645e-06
0.0010066915
8.1257384e-06
0.0010067977
9.0434764e-06
0.0010069219
9.9670768e-06
0.0010070613
1.087804e-05
0.0010072121
1.1759297e-05
0.0010073711
1.2597685e-05
0.001007534
1.3380659e-05
0.0010076981
1.4103621e-05
0.0010078604
1.4761323e-05
0.001008018
1.5350297e-05
0.0010081692
1.5872625e-05
0.001008313
1.6333579e-05
0.0010084483
1.6732497e-05
0.0010085735
1.7069114e-05
0.0010086873
1.7347713e-05
0.0010087889
1.7576514e-05
0.0010088778
1.7765431e-05
0.0010089539
1.792655e-05
0.0010090176
1.8074524e-05
0.0010090698
1.8226915e-05
0.0010091128
1.840364e-05
0.0010091488
1.8619326e-05
0.0010091801
1.8883396e-05
0.0010092093
1.920169e-05
0.0010092378
1.9570035e-05
0.0010092662
1.9977513e-05
0.0010092941
2.0414309e-05
0.001009321
2.0872099e-05
0.0010093457
2.1345404e-05
0.0010093675
2.1834824e-05
0.0010093855
2.2341103e-05
0.0010093987
2.286368e-05
0.0010094057
2.3401497e-05
0.0010094039
2.3950092e-05
0.0010093891
2.4507639e-05
0.0010093559
2.5075293e-05
0.001009297
2.5654595e-05
0.0010091996
2.6244173e-05
0.0010090402
2.6840463e-05
0.0010087824
2.7442691e-05
0.0010083733
2.8049933e-05
0.0010077153
2.8656349e-05
0.0010066489
2.9246811e-05
0.0010049892
2.9804693e-05
0.0010025649
3.0312593e-05
0.00099928073
3.0715162e-05
0.00099517474
3.0941189e-05
0.00099040058
3.0954917e-05
0.0009851834
3.0744841e-05
0.00097975132
3.0334047e-05
0.00097427277
2.9785619e-05
0.0009688407
2.9172351e-05
0.00096349215
2.8544274e-05
0.00095823829
2.7925804e-05
0.00095308436
2.7325185e-05
0.00094803574
2.6740523e-05
0.00094309604
2.6171811e-05
0.00093826555
2.5622284e-05
0.00093354261
2.5091797e-05
0.00092892492
2.4579857e-05
0.00092440983
2.4086751e-05
0.00091999457
2.3611185e-05
0.00091567615
2.315275e-05
0.00091145149
2.271078e-05
0.00090731759
2.2284487e-05
0.00090327144
2.1873474e-05
0.00089931013
2.1476897e-05
0.00089543079
2.1094203e-05
0.00089163066
2.0724849e-05
0.00088790704
2.0368314e-05
0.00088425731
2.0024091e-05
0.00088067895
1.9691702e-05
0.0008771695
1.9370698e-05
0.00087372661
1.9060666e-05
0.00087034798
1.876123e-05
0.0008670314
1.8472051e-05
0.00086377471
1.8192833e-05
0.00086057581
1.792336e-05
0.00085743266
1.7663442e-05
0.00085434321
1.7413152e-05
0.00085130547
1.7172359e-05
0.0008483173
1.6942174e-05
0.00084537675
1.6721825e-05
0.00084248085
1.6517064e-05
0.0008396282
1.6321884e-05
0.00083681165
1.6163985e-05
0.00083403411
1.6009448e-05
0.00083125723
1.603559e-05
0.00082860078
1.561729e-05
0.00082537828
1.8066931e-05
1.4698028e-05
0.0010401872
1.9408611e-06
-0.0010402549
0.0010401427
2.4327803e-06
0.0010401144
2.962801e-06
0.0010400978
3.5281242e-06
0.0010400935
4.1432914e-06
0.001040104
4.8160855e-06
0.001040131
5.5462059e-06
0.0010401764
6.3312629e-06
0.0010402418
7.1662528e-06
0.0010403277
8.0398488e-06
0.0010404335
8.9376537e-06
0.0010405576
9.8430246e-06
0.0010406971
1.0738501e-05
0.0010408487
1.1607692e-05
0.0010410088
1.2437534e-05
0.0010411736
1.3215919e-05
0.0010413399
1.3937282e-05
0.0010415049
1.4596361e-05
0.0010416656
1.5189553e-05
0.0010418202
1.5718077e-05
0.0010419676
1.6186179e-05
0.0010421065
1.6593585e-05
0.0010422354
1.6940237e-05
0.0010423529
1.7230168e-05
0.0010424583
1.7471132e-05
0.001042551
1.7672691e-05
0.0010426311
1.7846533e-05
0.0010426987
1.8006849e-05
0.0010427551
1.8170507e-05
0.0010428023
1.8356425e-05
0.0010428427
1.8578973e-05
0.0010428786
1.8847526e-05
0.0010429125
1.9167807e-05
0.001042946
1.9536459e-05
0.0010429799
1.9943639e-05
0.0010430141
2.0380119e-05
0.0010430481
2.0838072e-05
0.0010430813
2.1312242e-05
0.0010431132
2.1802876e-05
0.0010431437
2.2310656e-05
0.0010431723
2.283505e-05
0.0010431988
2.3375031e-05
0.0010432222
2.3926681e-05
0.0010432414
2.4488438e-05
0.001043255
2.5061682e-05
0.0010432615
2.5648097e-05
0.0010432586
2.6247039e-05
0.0010432424
2.6856692e-05
0.0010432069
2.74782e-05
0.0010431441
2.8112756e-05
0.001043041
2.8759413e-05
0.0010428738
2.9414007e-05
0.0010426045
3.0074005e-05
0.001042178
3.0739081e-05
0.0010414928
3.1400363e-05
0.0010403931
3.2040851e-05
0.0010387048
3.2643274e-05
0.0010362695
3.3180174e-05
0.0010330164
3.3587125e-05
0.001028998
3.3804028e-05
0.0010243657
3.3804664e-05
0.0010193294
3.3580525e-05
0.001014087
3.3168226e-05
0.0010087774
3.2634732e-05
0.0010034775
3.2040495e-05
0.00099822298
3.142629e-05
0.00099303273
3.0812539e-05
0.00098792033
3.0204188e-05
0.00098289568
2.9604513e-05
0.00097796422
2.9018207e-05
0.00097312833
2.8447075e-05
0.00096838864
2.7892445e-05
0.00096374483
2.7354588e-05
0.00095919589
2.6833423e-05
0.00095474023
2.6329134e-05
0.00095037593
2.5841199e-05
0.00094610085
2.5369284e-05
0.0009419127
2.4912996e-05
0.00093780912
2.44719e-05
0.00093378767
2.4045535e-05
0.00092984594
2.3633432e-05
0.00092598151
2.3235133e-05
0.00092219197
2.2850204e-05
0.00091847497
2.2478236e-05
0.00091482816
2.2118854e-05
0.00091124927
2.1771721e-05
0.00090773604
2.1436591e-05
0.00090428625
2.1113233e-05
0.00090089767
2.080173e-05
0.00089756813
2.0501902e-05
0.00089429526
2.0215048e-05
0.00089107693
1.9940155e-05
0.00088790993
1.9684061e-05
0.00088479267
1.9439143e-05
0.00088171767
1.9238987e-05
0.00087868797
1.9039149e-05
0.00087566268
1.9060876e-05
0.00087277325
1.8506729e-05
0.00086926422
2.1575955e-05
1.7197233e-05
0.0010749669
2.0079039e-06
-0.001075034
0.0010749205
2.4792498e-06
0.0010748895
2.9937446e-06
0.0010748707
3.5469864e-06
0.0010748645
4.1494221e-06
0.0010748733
4.8073581e-06
0.0010748987
5.5207379e-06
0.0010749427
6.2872791e-06
0.0010750068
7.1021715e-06
0.0010750915
7.9551602e-06
0.0010751963
8.8328503e-06
0.0010753196
9.7197047e-06
0.0010754588
1.0599277e-05
0.0010756106
1.1455877e-05
0.0010757716
1.2276617e-05
0.0010759377
1.3049763e-05
0.001076106
1.3769003e-05
0.0010762734
1.4428972e-05
0.001076437
1.5025911e-05
0.0010765948
1.5560273e-05
0.0010767456
1.6035371e-05
0.0010768881
1.6451163e-05
0.0010770205
1.6807766e-05
0.0010771417
1.7108973e-05
0.0010772508
1.7362079e-05
0.0010773472
1.7576274e-05
0.0010774309
1.7762843e-05
0.0010775022
1.7935496e-05
0.0010775623
1.811041e-05
0.0010776132
1.8305569e-05
0.0010776571
1.853503e-05
0.0010776966
1.8808102e-05
0.0010777339
1.9130429e-05
0.001077771
1.9499393e-05
0.0010778085
1.9906161e-05
0.0010778465
2.0342106e-05
0.0010778847
2.0799873e-05
0.0010779225
2.1274421e-05
0.0010779597
2.1765675e-05
0.0010779962
2.227419e-05
0.0010780318
2.279942e-05
0.0010780665
2.3340347e-05
0.0010780997
2.3893427e-05
0.001078131
2.4457176e-05
0.0010781598
2.5032914e-05
0.0010781856
2.5622304e-05
0.0010782077
2.6224922e-05
0.001078225
2.68394e-05
0.001078236
2.7467215e-05
0.0010782387
2.8109965e-05
0.0010782307
2.876744e-05
0.0010782074
2.9437344e-05
0.0010781617
3.0119682e-05
0.0010780843
3.0816461e-05
0.0010779592
3.1525465e-05
0.001077758
3.2242091e-05
0.0010774372
3.2964021e-05
0.0010769292
3.3688247e-05
0.0010761154
3.4400852e-05
0.0010748373
3.5082191e-05
0.0010729275
3.5714394e-05
0.0010702646
3.6243511e-05
0.0010668258
3.6606972e-05
0.0010626939
3.6766647e-05
0.0010580379
3.6696468e-05
0.0010530524
3.6411792e-05
0.0010478983
3.5966651e-05
0.0010426801
3.5422378e-05
0.0010374557
3.4828906e-05
0.0010322582
3.4215758e-05
0.0010271101
3.3595128e-05
0.0010220277
3.2974881e-05
0.0010170213
3.2360931e-05
0.0010120974
3.1757366e-05
0.0010072595
3.1167e-05
0.0010025098
3.0590959e-05
0.0009978489
3.0030161e-05
0.00099327677
2.9485125e-05
0.00098879262
2.8956056e-05
0.00098439522
2.8442935e-05
0.00098008303
2.7945618e-05
0.00097585428
2.7463878e-05
0.00097170705
2.6997442e-05
0.00096763927
2.6546009e-05
0.00096364885
2.610928e-05
0.0009597336
2.5686966e-05
0.00095589134
2.5278855e-05
0.00095211984
2.4884735e-05
0.00094841683
2.450474e-05
0.00094478005
2.4138676e-05
0.00094120705
2.3788056e-05
0.00093769554
2.3451661e-05
0.00093424218
2.3137419e-05
0.00093084519
2.283613e-05
0.00092749684
2.2587337e-05
0.00092420029
2.2335699e-05
0.00092091218
2.2348989e-05
0.0009177756
2.1643309e-05
0.00091396514
2.5386413e-05
1.9895755e-05
0.001110909
2.0738098e-06
-0.0011109749
0.0011108615
2.5267893e-06
0.0011108289
3.0263097e-06
0.0011108086
3.5672366e-06
0.0011108013
4.1567767e-06
0.0011108088
4.7998896e-06
0.0011108329
5.4965936e-06
0.0011108755
6.2446933e-06
0.0011109381
7.0395892e-06
0.0011110212
7.8719852e-06
0.0011111246
8.7294768e-06
0.0011112467
9.5975911e-06
0.0011113851
1.0460877e-05
0.0011115366
1.1304365e-05
0.0011116978
1.211542e-05
0.001111865
1.2882647e-05
0.0011120348
1.3599173e-05
0.0011122043
1.425948e-05
0.0011123705
1.4859641e-05
0.0011125314
1.5399427e-05
0.0011126855
1.5881302e-05
0.0011128313
1.6305334e-05
0.0011129673
1.6671773e-05
0.0011130921
1.6984177e-05
0.0011132048
1.7249393e-05
0.0011133048
1.7476225e-05
0.0011133921
1.767554e-05
0.0011134671
1.7860555e-05
0.0011135307
1.8046767e-05
0.001113585
1.8251269e-05
0.0011136323
1.8487769e-05
0.0011136749
1.876549e-05
0.0011137153
1.9090026e-05
0.0011137552
1.9459428e-05
0.0011137956
1.9865826e-05
0.0011138365
2.03012e-05
0.0011138777
2.0758652e-05
0.0011139188
2.1233359e-05
0.0011139595
2.1724968e-05
0.0011139998
2.2233886e-05
0.0011140397
2.2759543e-05
0.0011140791
2.3300923e-05
0.0011141177
2.38548e-05
0.0011141551
2.4419736e-05
0.0011141911
2.4996919e-05
0.0011142255
2.5587925e-05
0.001114258
2.6192456e-05
0.001114288
2.6809358e-05
0.0011143151
2.7440105e-05
0.0011143387
2.8086362e-05
0.001114358
2.8748153e-05
0.0011143716
2.9423753e-05
0.0011143776
3.0113721e-05
0.0011143736
3.0820443e-05
0.0011143561
3.1542944e-05
0.0011143193
3.2278946e-05
0.0011142543
3.3028995e-05
0.0011141487
3.3793888e-05
0.0011139798
3.4569665e-05
0.0011137106
3.535143e-05
0.0011132871
3.6137936e-05
0.0011126134
3.6917218e-05
0.0011115499
3.7670393e-05
0.0011099371
3.8379431e-05
0.0011076358
3.8997774e-05