/*--------------------------------*- C++ -*----------------------------------*\
  =========                 |
  \\      /  F ield         | OpenFOAM: The Open Source CFD Toolbox
   \\    /   O peration     | Website:  https://openfoam.org
    \\  /    A nd           | Version:  12
     \\/     M anipulation  |
\*---------------------------------------------------------------------------*/
FoamFile
{
    format      ascii;
    class       volVectorField;
    location    "1500";
    object      U;
}
// * * * * * * * * * * * * * * * * * * * * * * * * * * * * * * * * * * * * * //

dimensions      [0 1 -1 0 0 0 0];

internalField   nonuniform List<vector> 
7480
(
(0.99633157 0.00031284366 0)
(0.99394639 0.00034091773 -2.919619e-20)
(0.99090991 0.00051040718 0)
(0.98718774 0.00068395821 0)
(0.98269845 0.0008675312 0)
(0.97737227 0.00099641941 -1.6441141e-17)
(0.97110864 0.0010777958 -3.0287255e-19)
(0.96388331 0.0013082531 0)
(0.95564207 0.0015518077 0)
(0.94636628 0.0017866808 0)
(0.936091 0.0020060285 0)
(0.92489048 0.0022007914 0)
(0.91287063 0.0023621463 0)
(0.90016677 0.0024774725 0)
(0.88692782 0.0025652437 0)
(0.87330955 0.0025650478 0)
(0.85948262 0.0025402102 0)
(0.84556143 0.002467409 0)
(0.83172573 0.0023502856 0)
(0.81809171 0.0022009051 0)
(0.80478232 0.002021183 0)
(0.79193276 0.0018151837 0)
(0.77970005 0.0015942363 0)
(0.76821247 0.0013690491 0)
(0.75757147 0.0011453985 0)
(0.74785686 0.0009292761 0)
(0.73911812 0.0007254149 0)
(0.73137641 0.00054054028 0)
(0.72461759 0.00038192671 0)
(0.71877293 0.00025592438 0)
(0.71372181 0.00016797231 0)
(0.70931122 0.00011767816 0)
(0.70537309 9.8745667e-05 0)
(0.70175012 0.00010138892 0)
(0.69832309 0.00011444993 0)
(0.69501876 0.00012855273 0)
(0.69180137 0.00013799036 0)
(0.68865793 0.0001408082 0)
(0.68558177 0.00013868177 0)
(0.68256163 0.00013468031 0)
(0.6795815 0.0001312019 0)
(0.67662641 0.00012909009 0)
(0.67368938 0.00012781455 0)
(0.67077372 0.0001264807 0)
(0.66788794 0.00012453273 0)
(0.66503927 0.00012185389 0)
(0.66223069 0.0001186342 0)
(0.6594623 0.00011512855 0)
(0.65673379 0.00011152105 0)
(0.65404537 0.00010786325 0)
(0.65139748 0.00010416317 0)
(0.64879059 0.00010043621 0)
(0.64622491 9.6738587e-05 0)
(0.64369983 9.3135662e-05 0)
(0.64121436 8.9635294e-05 0)
(0.63876799 8.6225481e-05 0)
(0.63636041 8.291971e-05 0)
(0.63399072 7.973603e-05 0)
(0.63165789 7.6660894e-05 0)
(0.62936143 7.3687239e-05 0)
(0.62710046 7.084063e-05 0)
(0.62487373 6.8112373e-05 0)
(0.62268034 6.5491499e-05 0)
(0.62051944 6.2984467e-05 0)
(0.61838999 6.0577312e-05 0)
(0.61629128 5.826183e-05 0)
(0.61422249 5.6044253e-05 0)
(0.61218268 5.3915808e-05 0)
(0.6101711 5.1871477e-05 0)
(0.60818695 4.991395e-05 0)
(0.60622935 4.803621e-05 0)
(0.60429753 4.6235997e-05 0)
(0.60239069 4.451026e-05 0)
(0.60050809 4.2854513e-05 0)
(0.598649 4.1266574e-05 0)
(0.59681272 3.9742277e-05 0)
(0.59499859 3.8279137e-05 0)
(0.59320596 3.6874665e-05 0)
(0.59143419 3.5526304e-05 0)
(0.58968269 3.4231578e-05 0)
(0.58795084 3.2988129e-05 0)
(0.58623809 3.1793759e-05 0)
(0.58454388 3.0646407e-05 0)
(0.58286767 2.9544158e-05 0)
(0.58120892 2.8485191e-05 0)
(0.57956711 2.7467867e-05 0)
(0.57794172 2.6490575e-05 0)
(0.57633221 2.5552159e-05 0)
(0.57473809 2.4651154e-05 0)
(0.57315865 2.3787719e-05 0)
(0.57159359 2.2959001e-05 0)
(0.57004145 2.2171062e-05 0)
(0.56850308 2.1412837e-05 0)
(0.56697311 2.071953e-05 0)
(0.56545947 2.0024726e-05 0)
(0.56393671 1.9555022e-05 0)
(0.56244922 1.8316024e-05 -1.0320921e-20)
(0.56086546 3.1944776e-05 8.178759e-20)
(0.55956123 1.8357371e-05 -2.5292082e-19)
(0.55710153 3.3620102e-05 -4.2821928e-18)
(0.99783584 0.00049215781 0)
(0.99773439 0.0007292182 0)
(0.99763414 0.00093086093 0)
(0.99747909 0.0010912349 -5.5835974e-19)
(0.99727046 0.0012410926 0)
(0.99701397 0.0013944803 0)
(0.99669322 0.0015770946 0)
(0.99626913 0.0017697047 0)
(0.99569238 0.0019224071 0)
(0.99490829 0.0020463384 0)
(0.99385168 0.0021464387 0)
(0.99244935 0.002220835 0)
(0.99062649 0.0022686055 0)
(0.98831075 0.0022933006 0)
(0.98543933 0.0022904462 0)
(0.98195775 0.0022785161 0)
(0.97782993 0.0022518872 0)
(0.97301785 0.0022143349 0)
(0.9675201 0.002169016 0)
(0.96132441 0.0021207069 0)
(0.95443294 0.0020707731 0)
(0.94684 0.0020124057 0)
(0.93858412 0.0019330915 0)
(0.92976634 0.0018346102 0)
(0.92048423 0.0017245707 0)
(0.91085207 0.001603837 0)
(0.90101165 0.0014742866 0)
(0.89111645 0.0013366986 0)
(0.88133159 0.0011920613 0)
(0.87183219 0.001041955 0)
(0.86281697 0.00089483053 0)
(0.85444252 0.00076122212 0)
(0.84677949 0.00064649685 0)
(0.83981058 0.00055535661 0)
(0.83346072 0.00048933655 0)
(0.82761878 0.0004466165 0)
(0.82216673 0.00042234261 0)
(0.81701005 0.00040928489 0)
(0.81208671 0.00040011744 0)
(0.80736174 0.0003900808 0)
(0.80281726 0.00037739599 0)
(0.79844074 0.00036223254 0)
(0.79421865 0.00034539922 0)
(0.79013499 0.00032810158 0)
(0.78617212 0.00031154067 0)
(0.78231333 0.00029633592 0)
(0.77854585 0.00028242328 0)
(0.77486287 0.00026944438 0)
(0.77126155 0.0002571829 0)
(0.76773947 0.00024551261 0)
(0.76429285 0.00023438116 0)
(0.76091744 0.00022374668 0)
(0.75760992 0.00021360465 0)
(0.75436781 0.00020396386 0)
(0.75118884 0.00019476579 0)
(0.74807102 0.00018596776 0)
(0.74501248 0.00017758272 0)
(0.74201111 0.00016961598 0)
(0.73906484 0.00016202357 0)
(0.73617195 0.00015477863 0)
(0.73333081 0.00014790212 0)
(0.73053962 0.00014135493 0)
(0.72779695 0.00013511273 0)
(0.72510135 0.00012918525 0)
(0.7224512 0.00012353916 0)
(0.71984515 0.00011815573 0)
(0.71728184 0.00011303996 0)
(0.7147598 0.00010816664 0)
(0.71227778 0.00010352194 0)
(0.70983452 9.9105109e-05 0)
(0.70742872 9.4897132e-05 0)
(0.70505916 9.0889718e-05 0)
(0.70272467 8.707265e-05 0)
(0.70042413 8.3434569e-05 0)
(0.69815642 7.9968331e-05 0)
(0.69592049 7.666276e-05 0)
(0.69371532 7.3510181e-05 0)
(0.69153994 7.0502878e-05 0)
(0.68939339 6.7633371e-05 0)
(0.68727478 6.4894607e-05 0)
(0.68518321 6.2279935e-05 0)
(0.68311785 5.9783146e-05 0)
(0.68107787 5.7398427e-05 0)
(0.67906248 5.5120361e-05 0)
(0.67707089 5.2943855e-05 0)
(0.67510236 5.0864248e-05 0)
(0.67315613 4.8877107e-05 0)
(0.67123145 4.6978799e-05 0)
(0.6693276 4.5165334e-05 0)
(0.66744368 4.3435164e-05 0)
(0.66557919 4.1783744e-05 0)
(0.66373242 4.0217337e-05 0)
(0.66190405 3.8722723e-05 0)
(0.66008833 3.7342918e-05 0)
(0.65829322 3.6003597e-05 0)
(0.65649227 3.4951843e-05 0)
(0.65473103 3.384932e-05 1.0460094e-20)
(0.65287101 3.5123311e-05 0)
(0.65131404 3.0311441e-05 0)
(0.64845308 3.8764406e-05 0)
(0.9979051 0.00049608794 0)
(0.99787302 0.0006956829 0)
(0.99786481 0.00084923082 0)
(0.99784162 0.00098841995 0)
(0.99781104 0.0011420222 0)
(0.99778875 0.0013161473 0)
(0.99778019 0.0015019367 0)
(0.99778496 0.0016878861 0)
(0.99780659 0.0018779719 0)
(0.99784765 0.0020774342 0)
(0.99790532 0.002280493 0)
(0.99797419 0.0024781603 0)
(0.99804627 0.0026634692 0)
(0.99811074 0.0028303254 0)
(0.99815564 0.0029763 0)
(0.99816564 0.0030975504 0)
(0.99812325 0.0031927701 0)
(0.99801091 0.0032605828 0)
(0.99780477 0.0033009933 0)
(0.99747703 0.003311845 0)
(0.99699424 0.0032978258 0)
(0.99631782 0.0032567432 0)
(0.99535081 0.0031905995 0)
(0.99396138 0.0031011451 0)
(0.99203836 0.0029893428 0)
(0.98946754 0.0028579903 0)
(0.98612686 0.0027105912 0)
(0.98189792 0.0025519433 0)
(0.97667414 0.0023887035 0)
(0.97037905 0.0022286522 0)
(0.96297069 0.0020631024 0)
(0.95459823 0.0018903431 0)
(0.94548756 0.0017229405 0)
(0.93596314 0.0015623965 0)
(0.92637603 0.0014081417 0)
(0.91705255 0.001258289 0)
(0.90825719 0.0011160168 0)
(0.90015426 0.00099029897 0)
(0.89276052 0.00088694135 0)
(0.88599284 0.00080729146 0)
(0.87972746 0.00074954266 0)
(0.87384161 0.00070899968 0)
(0.86824574 0.00067861632 0)
(0.86288774 0.00065174018 0)
(0.8577411 0.00062438642 0)
(0.8527902 0.00059576173 0)
(0.84802073 0.00056650367 0)
(0.84341721 0.00053755257 0)
(0.83896327 0.00050989998 0)
(0.83464303 0.0004840584 0)
(0.83044298 0.00046000377 0)
(0.82635346 0.00043742789 0)
(0.8223681 0.00041612837 0)
(0.81848157 0.00039603728 0)
(0.81468818 0.00037703107 0)
(0.81098251 0.00035901099 0)
(0.80736005 0.00034194962 0)
(0.80381688 0.00032580757 0)
(0.80034943 0.00031048816 0)
(0.79695458 0.00029593763 0)
(0.79362932 0.00028217228 0)
(0.79037068 0.00026911103 0)
(0.78717624 0.00025669939 0)
(0.78404368 0.000244939 0)
(0.78097057 0.00023376951 0)
(0.7779548 0.00022315199 0)
(0.77499437 0.00021308309 0)
(0.77208721 0.00020351599 0)
(0.76923149 0.00019442105 0)
(0.76642546 0.00018578867 0)
(0.76366733 0.00017758334 0)
(0.76095546 0.00016978549 0)
(0.75828826 0.00016237304 0)
(0.75566422 0.00015532308 0)
(0.75308186 0.00014861933 0)
(0.75053975 0.00014223985 0)
(0.74803655 0.00013616799 0)
(0.74557095 0.00013038746 0)
(0.74314171 0.00012488271 0)
(0.74074762 0.00011963907 0)
(0.73838751 0.00011464276 0)
(0.73606029 0.00010988089 0)
(0.73376487 0.0001053414 0)
(0.7315002 0.00010101304 0)
(0.72926528 9.6885294e-05 0)
(0.72705913 9.2948419e-05 0)
(0.72488078 8.9193358e-05 0)
(0.72272925 8.5612145e-05 0)
(0.72060365 8.2197242e-05 0)
(0.71850288 7.8943244e-05 0)
(0.71642621 7.5844545e-05 0)
(0.71437178 7.2902843e-05 0)
(0.71234007 7.0112948e-05 0)
(0.71032517 6.750485e-05 0)
(0.70833475 6.5048239e-05 0)
(0.70634231 6.2951497e-05 0)
(0.70439313 6.1058677e-05 7.3047579e-21)
(0.70234626 5.9736878e-05 0)
(0.7006191 5.8771056e-05 0)
(0.69748472 6.1896368e-05 -2.6545258e-20)
(0.99793739 0.00050850304 0)
(0.99790847 0.00069777414 0)
(0.9979064 0.00085918746 0)
(0.99789879 0.001012217 0)
(0.99788859 0.0011734904 0)
(0.99788776 0.001344943 0)
(0.99790211 0.0015217282 0)
(0.99793374 0.0017035702 0)
(0.99798637 0.0018904976 0)
(0.9980621 0.0020746661 0)
(0.99816017 0.0022483581 0)
(0.9982789 0.0024053895 0)
(0.99841505 0.0025416013 0)
(0.99856389 0.002654282 0)
(0.99872073 0.0027429629 0)
(0.99888025 0.0028054589 0)
(0.9990376 0.0028458174 0)
(0.99919008 0.0028655105 0)
(0.99933294 0.0028654554 0)
(0.99946121 0.002852514 0)
(0.99957224 0.0028289918 0)
(0.99966344 0.0027969581 0)
(0.99972973 0.0027575975 0)
(0.99976303 0.0027128284 0)
(0.99975359 0.0026651774 0)
(0.99968924 0.0026166024 0)
(0.99955281 0.0025690671 0)
(0.99932152 0.0025241134 0)
(0.99896333 0.0024821504 0)
(0.99842949 0.0024419859 0)
(0.99764044 0.0024026351 0)
(0.99639415 0.00236124 0)
(0.99450079 0.0023118659 0)
(0.99175951 0.0022502871 0)
(0.98798915 0.002174731 0)
(0.98306343 0.0020893658 0)
(0.97692298 0.0019904675 0)
(0.96969822 0.0018717551 0)
(0.96168348 0.001740907 0)
(0.95324428 0.0016057834 0)
(0.94475408 0.0014700133 0)
(0.93653076 0.0013372738 0)
(0.92879628 0.0012161045 0)
(0.92161967 0.0011126601 0)
(0.91495758 0.0010278447 0)
(0.90871326 0.00096045519 0)
(0.90278924 0.00090673715 0)
(0.89711896 0.00086112536 0)
(0.8916672 0.00081906193 0)
(0.88641668 0.00077837917 0)
(0.88135475 0.00073872579 0)
(0.87646766 0.00070040929 0)
(0.87174043 0.00066400454 0)
(0.86715818 0.0006299121 0)
(0.86270797 0.00059803123 0)
(0.85838007 0.00056807889 0)
(0.8541672 0.00053989624 0)
(0.85006275 0.00051336826 0)
(0.84606027 0.00048833079 0)
(0.84215414 0.0004646722 0)
(0.83833929 0.00044236489 0)
(0.83461112 0.00042126462 0)
(0.83096572 0.000401276 0)
(0.82739939 0.00038238096 0)
(0.82390856 0.00036448118 0)
(0.82049012 0.00034750674 0)
(0.81714116 0.00033143704 0)
(0.81385883 0.00031619777 0)
(0.81064057 0.00030173724 0)
(0.80748396 0.00028803106 0)
(0.80438664 0.00027502331 0)
(0.80134642 0.00026267862 0)
(0.79836121 0.00025095952 0)
(0.79542905 0.0002398286 0)
(0.79254801 0.00022925744 0)
(0.78971628 0.00021921083 0)
(0.78693211 0.00020966054 0)
(0.78419386 0.00020057947 0)
(0.78149993 0.00019194192 0)
(0.77884878 0.00018372371 0)
(0.77623896 0.00017590214 0)
(0.77366906 0.00016845599 0)
(0.77113772 0.00016136545 0)
(0.76864364 0.00015461201 0)
(0.76618554 0.0001481784 0)
(0.7637622 0.00014204861 0)
(0.76137244 0.00013620786 0)
(0.75901505 0.00013064274 0)
(0.75668892 0.00012534138 0)
(0.75439273 0.0001202933 0)
(0.75212558 0.00011549225 0)
(0.74988541 0.00011093216 0)
(0.74767248 0.00010662131 0)
(0.74548082 0.00010256298 0)
(0.74331766 9.8802898e-05 0)
(0.74115684 9.5436415e-05 0)
(0.73904279 9.2702006e-05 5.8673855e-21)
(0.73683374 8.9869222e-05 0)
(0.73495978 9.2793636e-05 0)
(0.73158833 8.8637238e-05 2.1514182e-20)
(0.99797251 0.00052571023 0)
(0.9979359 0.00070339482 0)
(0.99792897 0.00086299365 0)
(0.99792292 0.0010143839 0)
(0.99791777 0.0011712227 0)
(0.9979227 0.0013370861 0)
(0.99794289 0.0015097407 0)
(0.99798039 0.0016880152 0)
(0.9980381 0.0018692299 0)
(0.99811801 0.0020474001 0)
(0.99822 0.0022182442 0)
(0.99834276 0.002377318 0)
(0.99848343 0.0025205786 0)
(0.99863788 0.0026449569 0)
(0.99880209 0.0027491324 0)
(0.99897111 0.0028313948 0)
(0.99914068 0.0028939975 0)
(0.99930823 0.0029367034 0)
(0.99947032 0.0029608557 0)
(0.99962387 0.0029675002 0)
(0.99976761 0.0029603368 0)
(0.99990124 0.002939044 0)
(1.0000229 0.0029042748 0)
(1.0001301 0.0028575708 0)
(1.0002213 0.0028015014 0)
(1.0002945 0.0027387478 0)
(1.0003476 0.0026716083 0)
(1.0003786 0.0026026796 0)
(1.0003858 0.0025350375 0)
(1.0003674 0.0024721766 0)
(1.0003221 0.0024168884 0)
(1.0002431 0.0023708152 0)
(1.0001194 0.0023349055 0)
(0.99993141 0.0023085102 0)
(0.99965046 0.0022895481 0)
(0.99922704 0.0022731266 0)
(0.99858964 0.0022539027 0)
(0.99755147 0.0022276804 0)
(0.9958816 0.0021897873 0)
(0.99336105 0.0021372642 0)
(0.98980663 0.0020711274 0)
(0.98510807 0.001992339 0)
(0.97929261 0.0018944729 0)
(0.97260508 0.0017804935 0)
(0.96537166 0.0016602377 0)
(0.95794496 0.0015374528 0)
(0.95063642 0.0014182132 0)
(0.94364818 0.0013100962 0)
(0.93704393 0.0012159366 0)
(0.93079615 0.0011361441 0)
(0.9248401 0.0010691502 0)
(0.91911983 0.0010112435 0)
(0.9136026 0.00095870658 0)
(0.90827268 0.00090930188 0)
(0.90311992 0.00086219437 0)
(0.8981337 0.00081728985 0)
(0.89330185 0.00077489839 0)
(0.88861194 0.00073517069 0)
(0.88405323 0.00069790207 0)
(0.87961753 0.0006628536 0)
(0.87529796 0.00062992617 0)
(0.87108798 0.00059889968 0)
(0.86698163 0.00056962123 0)
(0.86297352 0.00054202979 0)
(0.8590587 0.00051596622 0)
(0.85523288 0.00049131553 0)
(0.85149206 0.00046802863 0)
(0.84783239 0.00044599299 0)
(0.84425045 0.00042512494 0)
(0.84074307 0.00040537703 0)
(0.83730718 0.00038666638 0)
(0.83393998 0.00036893592 0)
(0.83063879 0.00035212753 0)
(0.82740113 0.00033618479 0)
(0.82422459 0.00032106305 0)
(0.82110691 0.00030671027 0)
(0.81804592 0.0002930834 0)
(0.81503959 0.00028014157 0)
(0.81208593 0.00026784625 0)
(0.80918309 0.00025616128 0)
(0.80632926 0.00024505277 0)
(0.80352272 0.00023448911 0)
(0.80076182 0.00022444077 0)
(0.79804497 0.00021488022 0)
(0.79537063 0.00020578181 0)
(0.79273733 0.0001971217 0)
(0.79014362 0.00018887802 0)
(0.78758807 0.00018103061 0)
(0.78506936 0.0001735622 0)
(0.78258595 0.00016645598 0)
(0.78013672 0.00015970435 0)
(0.77771944 0.00015329162 0)
(0.77533412 0.00014724103 0)
(0.77297474 0.00014152313 0)
(0.77064812 0.0001362724 0)
(0.76832844 0.00013143663 0)
(0.76605931 0.00012778027 5.0791371e-21)
(0.76369831 0.00012292796 3.9768662e-20)
(0.76168803 0.00013081909 0)
(0.75809618 0.00011696998 0)
(0.99801285 0.00054507381 0)
(0.9979683 0.00071104876 0)
(0.99795326 0.00086627007 0)
(0.99794442 0.0010156868 0)
(0.99794002 0.0011702598 0)
(0.99794666 0.0013332187 0)
(0.9979685 0.0015026634 0)
(0.99800741 0.0016768857 0)
(0.99806586 0.0018534588 0)
(0.99814572 0.0020276972 0)
(0.99824693 0.002195309 0)
(0.99836816 0.002351539 0)
(0.99850673 0.0024921137 0)
(0.99865883 0.0026138628 0)
(0.99882063 0.0027152697 0)
(0.99898781 0.0027948294 0)
(0.99915642 0.0028540101 0)
(0.99932381 0.0028930395 0)
(0.99948693 0.002912767 0)
(0.99964289 0.0029161267 0)
(0.99979062 0.0029053024 0)
(0.99992976 0.0028812874 0)
(1.0000588 0.0028453079 0)
(1.0001758 0.0027993275 0)
(1.000279 0.002745714 0)
(1.0003679 0.0026867271 0)
(1.0004422 0.0026249314 0)
(1.0005016 0.0025628749 0)
(1.0005465 0.0025034622 0)
(1.0005779 0.002449887 0)
(1.0005977 0.0024034548 0)
(1.0006075 0.0023645223 0)
(1.0006086 0.0023330128 0)
(1.0006011 0.0023072368 0)
(1.0005834 0.0022846225 0)
(1.000551 0.0022634131 0)
(1.0004984 0.0022431658 0)
(1.0004144 0.0022239378 0)
(1.0002783 0.0022062587 0)
(1.0000619 0.002190493 0)
(0.99972286 0.002175793 0)
(0.9991962 0.0021588993 0)
(0.99834549 0.0021368145 0)
(0.9969447 0.0021056032 0)
(0.99477909 0.0020612342 0)
(0.99166779 0.0020046786 0)
(0.98749163 0.0019319829 0)
(0.98232326 0.001840116 0)
(0.97638693 0.0017368977 0)
(0.96998091 0.0016282854 0)
(0.96341681 0.001519227 0)
(0.95694321 0.0014164469 0)
(0.95068732 0.0013234616 0)
(0.944678 0.0012414056 0)
(0.93889106 0.0011697882 0)
(0.93329453 0.0011062176 0)
(0.92786833 0.0010480969 0)
(0.92260323 0.00099374266 0)
(0.9174935 0.00094230956 0)
(0.91253227 0.00089361626 0)
(0.90771069 0.00084782728 0)
(0.90301965 0.0008048056 0)
(0.89845167 0.00076433313 0)
(0.89400049 0.0007262859 0)
(0.88966024 0.00069043478 0)
(0.88542549 0.00065661474 0)
(0.88129118 0.00062473753 0)
(0.87725256 0.00059463777 0)
(0.87330546 0.00056618912 0)
(0.86944597 0.00053931258 0)
(0.86567035 0.00051389013 0)
(0.86197517 0.00048983559 0)
(0.85835723 0.00046706392 0)
(0.85481348 0.00044549422 0)
(0.85134107 0.00042506076 0)
(0.84793727 0.00040569039 0)
(0.84459951 0.0003873215 0)
(0.84132535 0.00036989606 0)
(0.83811246 0.00035335969 0)
(0.83495861 0.00033766143 0)
(0.83186168 0.00032275364 0)
(0.82881962 0.00030859195 0)
(0.82583049 0.00029513498 0)
(0.8228924 0.00028234414 0)
(0.82000357 0.00027018358 0)
(0.81716223 0.00025861992 0)
(0.81436672 0.00024762264 0)
(0.81161537 0.00023716332 0)
(0.8089066 0.00022721804 0)
(0.80623869 0.00021776233 0)
(0.80361027 0.0002087863 0)
(0.80101897 0.00020026319 0)
(0.79846455 0.00019223128 0)
(0.79594091 0.00018462509 0)
(0.79345446 0.00017767385 0)
(0.79097974 0.00017115867 0)
(0.78855963 0.00016644083 0)
(0.7860508 0.0001590397 0)
(0.78390907 0.00017292122 5.5837161e-20)
(0.78010419 0.00014736146 0)
(0.99805633 0.00056586406 0)
(0.99800649 0.00072109303 0)
(0.9979837 0.00087111479 0)
(0.99797049 0.0010180071 0)
(0.99796461 0.0011699751 0)
(0.99797071 0.0013295322 0)
(0.99799213 0.0014950837 0)
(0.99803055 0.001664971 0)
(0.99808809 0.0018369983 0)
(0.99816639 0.0020069534 0)
(0.99826538 0.0021705547 0)
(0.99838378 0.0023233215 0)
(0.99851909 0.0024612585 0)
(0.99866778 0.0025813449 0)
(0.99882616 0.0026820083 0)
(0.99899019 0.0027618817 0)
(0.99915612 0.0028219882 0)
(0.99932127 0.0028627368 0)
(0.99948271 0.0028850428 0)
(0.99963775 0.0028910463 0)
(0.99978523 0.0028832893 0)
(0.99992462 0.0028627082 0)
(1.0000545 0.0028302378 0)
(1.0001731 0.0027876494 0)
(1.0002793 0.0027372219 0)
(1.0003723 0.002681251 0)
(1.000452 0.0026221483 0)
(1.0005184 0.0025624597 0)
(1.0005719 0.0025048271 0)
(1.0006141 0.0024519115 0)
(1.0006473 0.0024052701 0)
(1.000674 0.0023655528 0)
(1.0006964 0.0023330219 0)
(1.0007164 0.0023064595 0)
(1.0007347 0.0022838499 0)
(1.0007506 0.0022638628 0)
(1.0007629 0.0022454326 0)
(1.0007697 0.002227692 0)
(1.0007681 0.0022105473 0)
(1.0007545 0.0021938971 0)
(1.0007243 0.0021773174 0)
(1.000671 0.0021608136 0)
(1.0005841 0.0021443112 0)
(1.0004409 0.0021276337 0)
(1.0002092 0.002110962 0)
(0.99983987 0.0020933701 0)
(0.99926173 0.0020734536 0)
(0.99830376 0.0020488476 0)
(0.99676237 0.0020152538 0)
(0.99444521 0.0019706678 0)
(0.99119821 0.0019120939 0)
(0.98699972 0.0018357611 0)
(0.98199576 0.0017463471 0)
(0.97642293 0.0016500368 0)
(0.97056053 0.0015520286 0)
(0.96464745 0.0014580114 0)
(0.95882587 0.0013706302 0)
(0.95314934 0.0012914056 0)
(0.94762153 0.0012202211 0)
(0.9422326 0.001155551 0)
(0.93697677 0.0010957228 0)
(0.93185304 0.0010395255 0)
(0.92686051 0.00098638982 0)
(0.92199549 0.00093629362 0)
(0.91725234 0.00088910536 0)
(0.91262573 0.00084464794 0)
(0.90811093 0.0008027937 0)
(0.90370342 0.0007633242 0)
(0.89939888 0.00072607388 0)
(0.89519314 0.00069093035 0)
(0.89108218 0.00065773382 0)
(0.88706229 0.00062636371 0)
(0.88312994 0.00059670333 0)
(0.87928176 0.00056864215 0)
(0.87551457 0.00054208847 0)
(0.87182531 0.00051694375 0)
(0.86821111 0.00049312399 0)
(0.86466923 0.00047055066 0)
(0.86119702 0.00044915037 0)
(0.85779197 0.00042885457 0)
(0.85445166 0.0004095993 0)
(0.85117379 0.00039132501 0)
(0.84795613 0.00037397623 0)
(0.84479656 0.0003575013 0)
(0.84169301 0.00034185223 0)
(0.83864351 0.00032698435 0)
(0.83564614 0.00031285685 0)
(0.83269902 0.00029943155 0)
(0.82980035 0.00028667643 0)
(0.82694819 0.00027455809 0)
(0.82414099 0.00026306322 0)
(0.82137618 0.00025215271 0)
(0.81865329 0.00024187939 0)
(0.81596618 0.00023213952 0)
(0.81332083 0.00022326063 0)
(0.81069209 0.00021484308 0)
(0.80812229 0.00020889793 0)
(0.80546683 0.00019856278 0)
(0.8031956 0.00021927083 5.2377619e-20)
(0.79918038 0.00018020271 0)
(0.9981007 0.00058736707 0)
(0.99804847 0.00073313939 0)
(0.99801995 0.00087776059 0)
(0.99800253 0.0010214612 0)
(0.99799427 0.0011702189 0)
(0.99799864 0.0013259682 0)
(0.99801844 0.0014873888 0)
(0.99805522 0.0016528904 0)
(0.99811081 0.0018203443 0)
(0.99818661 0.0019858928 0)
(0.99828257 0.0021454627 0)
(0.99839748 0.0022948838 0)
(0.99852902 0.0024303719 0)
(0.99867386 0.0025489771 0)
(0.99882848 0.002649035 0)
(0.99898904 0.0027292306 0)
(0.99915193 0.0027902184 0)
(0.99931443 0.0028324165 0)
(0.99947371 0.0028566546 0)
(0.99962718 0.0028647952 0)
(0.99977357 0.0028591595 0)
(0.99991221 0.0028407153 0)
(1.0000417 0.0028104773 0)
(1.0001605 0.0027701768 0)
(1.0002673 0.0027220253 0)
(1.0003618 0.0026682711 0)
(1.0004435 0.002611254 0)
(1.0005126 0.0025534299 0)
(1.0005697 0.0024973929 0)
(1.0006163 0.0024457761 0)
(1.0006548 0.0024001725 0)
(1.0006875 0.0023613359 0)
(1.0007169 0.0023294081 0)
(1.0007451 0.002303243 0)
(1.0007732 0.0022811016 0)
(1.0008013 0.002261526 0)
(1.0008286 0.0022433063 0)
(1.0008544 0.0022256923 0)
(1.0008777 0.0022086962 0)
(1.0008977 0.0021923001 0)
(1.0009134 0.0021764115 0)
(1.0009237 0.0021609954 0)
(1.000927 0.0021455639 0)
(1.0009199 0.0021298932 0)
(1.0008977 0.0021140708 0)
(1.0008538 0.0020982065 0)
(1.0007803 0.0020823047 0)
(1.0006599 0.0020659754 0)
(1.000463 0.0020490234 0)
(1.0001469 0.0020310966 0)
(0.99964883 0.0020113908 0)
(0.99883715 0.0019883902 0)
(0.99752648 0.0019586529 0)
(0.99553557 0.0019197346 0)
(0.9927058 0.0018670597 0)
(0.98900934 0.0017979957 0)
(0.98455127 0.001717721 0)
(0.97953264 0.0016308284 0)
(0.97419991 0.0015425927 0)
(0.96875815 0.0014570948 0)
(0.96333502 0.0013764053 0)
(0.9579865 0.0013019462 0)
(0.95272922 0.0012335759 0)
(0.94756843 0.0011703275 0)
(0.94250953 0.0011110855 0)
(0.93755767 0.0010551338 0)
(0.93271472 0.0010022834 0)
(0.9279795 0.00095237361 0)
(0.92334981 0.00090525577 0)
(0.91882322 0.00086080296 0)
(0.91439704 0.00081882384 0)
(0.91006837 0.00077917322 0)
(0.90583418 0.00074170771 0)
(0.90169143 0.0007062875 0)
(0.89763717 0.00067279402 0)
(0.89366842 0.00064110197 0)
(0.88978235 0.00061110296 0)
(0.88597614 0.00058269554 0)
(0.88224711 0.00055578507 0)
(0.87859259 0.00053028318 0)
(0.87501006 0.00050610741 0)
(0.87149704 0.00048318104 0)
(0.86805115 0.00046143257 0)
(0.86467009 0.00044079545 0)
(0.86135161 0.00042120782 0)
(0.85809356 0.00040261208 0)
(0.85489383 0.00038495557 0)
(0.85175036 0.0003681889 0)
(0.84866117 0.00035227057 0)
(0.84562414 0.00033715696 0)
(0.84263754 0.0003228302 0)
(0.83969863 0.00030923766 0)
(0.83680674 0.00029644595 0)
(0.83395566 0.0002843114 0)
(0.83115102 0.00027326205 0)
(0.82836792 0.00026270592 0)
(0.82564828 0.00025535326 0)
(0.82284588 0.00024171702 -1.6288463e-20)
(0.8204455 0.00027002275 0)
(0.81622014 0.00021571256 -7.8268524e-21)
(0.99814475 0.00060904724 0)
(0.99809217 0.00074651579 0)
(0.99806013 0.00088580791 0)
(0.99803962 0.0010259226 0)
(0.99802916 0.0011711069 0)
(0.99803151 0.0013228324 0)
(0.99804916 0.0014799741 0)
(0.99808363 0.0016409894 0)
(0.99813658 0.0018038016 0)
(0.99820923 0.0019648858 0)
(0.99830157 0.0021204079 0)
(0.99841247 0.002266453 0)
(0.99853978 0.0023994163 0)
(0.9986804 0.0025164198 0)
(0.99883094 0.0026157327 0)
(0.99898776 0.002696066 0)
(0.99914736 0.0027577784 0)
(0.99930698 0.0028012477 0)
(0.99946389 0.0028272192 0)
(0.99961555 0.0028373583 0)
(0.99976058 0.0028337621 0)
(0.99989818 0.0028174757 0)
(1.000027 0.0027895488 0)
(1.0001454 0.0027516543 0)
(1.0002525 0.0027059163 0)
(1.0003475 0.002654522 0)
(1.0004303 0.0025997531 0)
(1.000501 0.0025440091 0)
(1.0005602 0.002489809 0)
(1.0006093 0.0024396732 0)
(1.0006506 0.0023951837 0)
(1.0006866 0.0023570798 0)
(1.0007194 0.0023255367 0)
(1.0007514 0.0022995662 0)
(1.0007837 0.0022775171 0)
(1.0008164 0.002257981 0)
(1.0008492 0.0022398589 0)
(1.0008816 0.0022224592 0)
(1.000913 0.0022057552 0)
(1.000943 0.0021897541 0)
(1.0009714 0.0021743412 0)
(1.0009979 0.0021593494 0)
(1.001022 0.0021443239 0)
(1.0010428 0.0021291043 0)
(1.0010589 0.0021138036 0)
(1.0010688 0.0020985436 0)
(1.0010712 0.002083261 0)
(1.0010631 0.0020677901 0)
(1.0010399 0.0020522644 0)
(1.0009947 0.0020368219 0)
(1.0009188 0.0020214342 0)
(1.0007961 0.0020056559 0)
(1.0005968 0.0019889708 0)
(1.0002775 0.0019708912 0)
(0.99977552 0.001951106 0)
(0.99895772 0.0019282573 0)
(0.99765793 0.0018990994 0)
(0.99570776 0.0018608342 0)
(0.99297237 0.0018085 0)
(0.98945286 0.0017423202 0)
(0.98525014 0.0016672779 0)
(0.98055551 0.001587621 0)
(0.97558082 0.0015074678 0)
(0.97049287 0.0014291199 0)
(0.96539103 0.0013547975 0)
(0.96032215 0.0012854202 0)
(0.95530783 0.0012207857 0)
(0.95036252 0.0011600924 0)
(0.94549779 0.0011027028 0)
(0.94072091 0.0010483723 0)
(0.93603516 0.0009969392 0)
(0.93144167 0.00094828508 0)
(0.92694052 0.00090226623 0)
(0.92253105 0.00085873353 0)
(0.91821195 0.00081755701 0)
(0.91398147 0.00077859408 0)
(0.90983765 0.00074171763 0)
(0.90577837 0.00070680654 0)
(0.90180136 0.00067374646 0)
(0.89790432 0.00064242952 0)
(0.89408491 0.00061275446 0)
(0.89034082 0.00058462671 0)
(0.88666972 0.00055795791 0)
(0.88306933 0.0005326656 0)
(0.87953739 0.00050867299 0)
(0.87607169 0.00048590844 0)
(0.87267006 0.0004643063 0)
(0.86933032 0.00044380483 0)
(0.86605041 0.00042435192 0)
(0.8628281 0.00040589265 0)
(0.85966151 0.00038840351 0)
(0.8565478 0.00037181741 0)
(0.85348612 0.00035621382 0)
(0.85047022 0.000341408 0)
(0.84750545 0.00032792982 0)
(0.84456707 0.00031498509 0)
(0.8416968 0.00030603068 2.0728104e-21)
(0.83874645 0.00028871097 0)
(0.83621646 0.00032536953 4.9637455e-20)
(0.83177983 0.00025408676 0)
(0.99818799 0.00063059054 0)
(0.99813629 0.00076068734 0)
(0.99810246 0.00089481081 0)
(0.99808012 0.0010311663 0)
(0.99806819 0.001172615 0)
(0.99806887 0.0013202185 0)
(0.99808442 0.0014729853 0)
(0.99811641 0.0016294302 0)
(0.99816639 0.0017875489 0)
(0.99823552 0.0019441173 0)
(0.99832383 0.0020955359 0)
(0.99843031 0.0022381222 0)
(0.998553 0.0023684498 0)
(0.99868901 0.0024837245 0)
(0.99883513 0.0025821714 0)
(0.9989879 0.0026625103 0)
(0.99914392 0.0027248574 0)
(0.99930043 0.0027695237 0)
(0.99945475 0.0027971741 0)
(0.9996044 0.002809287 0)
(0.99974788 0.0028077572 0)
(0.99988426 0.0027936738 0)
(1.0000122 0.0027680992 0)
(1.0001302 0.0027326472 0)
(1.0002372 0.002689356 0)
(1.0003326 0.0026403518 0)
(1.0004161 0.0025878581 0)
(1.0004879 0.0025342138 0)
(1.0005486 0.0024818524 0)
(1.0005995 0.0024331806 0)
(1.0006429 0.0023897697 0)
(1.000681 0.0023523797 0)
(1.0007161 0.0023212116 0)
(1.0007502 0.0022953968 0)
(1.0007847 0.0022734127 0)
(1.0008198 0.002253935 0)
(1.0008553 0.0022359254 0)
(1.0008907 0.0022187116 0)
(1.0009256 0.0022022192 0)
(1.0009598 0.0021864313 0)
(1.0009933 0.0021712182 0)
(1.001026 0.002156411 0)
(1.0010576 0.0021416208 0)
(1.0010877 0.0021267014 0)
(1.0011157 0.0021117623 0)
(1.0011411 0.002096941 0)
(1.0011635 0.0020821678 0)
(1.0011821 0.0020672966 0)
(1.0011956 0.002052436 0)
(1.0012024 0.0020376829 0)
(1.0012006 0.0020229516 0)
(1.0011873 0.002008007 0)
(1.0011571 0.0019929035 0)
(1.0011022 0.0019779091 0)
(1.0010128 0.0019629094 0)
(1.000869 0.0019473441 0)
(1.0006378 0.0019306615 0)
(1.0002713 0.0019123567 0)
(0.99969094 0.0018921454 0)
(0.99875471 0.0018681471 0)
(0.99730965 0.0018376922 0)
(0.99519806 0.001795736 0)
(0.99235311 0.0017404027 0)
(0.98880118 0.0016754577 0)
(0.98467099 0.0016042185 0)
(0.98014865 0.001530173 0)
(0.97540902 0.0014558237 0)
(0.97057555 0.0013836663 0)
(0.96571795 0.0013152006 0)
(0.96087346 0.0012507506 0)
(0.95606614 0.0011898969 0)
(0.95131381 0.0011321982 0)
(0.94662853 0.001077406 0)
(0.94201763 0.0010254003 0)
(0.93748543 0.00097608911 0)
(0.93303443 0.00092934359 0)
(0.92866587 0.00088504312 0)
(0.92437994 0.00084306676 0)
(0.92017618 0.00080329372 0)
(0.91605362 0.00076560543 0)
(0.91201096 0.00072988774 0)
(0.90804662 0.00069603199 0)
(0.90415889 0.00066393521 0)
(0.90034589 0.00063350034 0)
(0.89660571 0.00060463635 0)
(0.89293632 0.00057725777 0)
(0.88933572 0.00055128589 0)
(0.88580184 0.00052664633 0)
(0.88233263 0.0005032759 0)
(0.87892589 0.00048110784 0)
(0.8755797 0.00046011228 0)
(0.87229122 0.00044020718 0)
(0.8690595 0.00042148397 0)
(0.8658783 0.00040371635 0)
(0.86275273 0.00038753665 0)
(0.85965824 0.00037194018 0)
(0.85663649 0.00036117608 0)
(0.85353707 0.00033977599 0)
(0.85087675 0.00038555048 0)
(0.8462272 0.00029553332 0)
(0.99823035 0.00065182299 0)
(0.9981802 0.00077530311 0)
(0.99814573 0.00090442034 0)
(0.99812257 0.0010369255 0)
(0.99810994 0.0011745687 0)
(0.99810955 0.0013180313 0)
(0.99812343 0.0014664019 0)
(0.99815316 0.0016182555 0)
(0.99820023 0.0017716709 0)
(0.99826575 0.0019236945 0)
(0.99834986 0.0020709609 0)
(0.99845169 0.0022100125 0)
(0.99856947 0.0023376023 0)
(0.99870056 0.0024510281 0)
(0.99884194 0.0025484883 0)
(0.99899032 0.0026287025 0)
(0.99914245 0.0026915853 0)
(0.99929557 0.0027373647 0)
(0.99944703 0.0027666231 0)
(0.99959442 0.0027806621 0)
(0.99973614 0.0027811903 0)
(0.99987114 0.0027693094 0)
(0.99999805 0.0027460878 0)
(1.0001154 0.0027130827 0)
(1.0002222 0.0026722485 0)
(1.0003178 0.002625648 0)
(1.0004019 0.0025754437 0)
(1.0004746 0.0025239102 0)
(1.0005365 0.0024733966 0)
(1.000589 0.0024262062 0)
(1.000634 0.0023838967 0)
(1.0006738 0.00234725 0)
(1.0007105 0.0023164891 0)