/*--------------------------------*- C++ -*----------------------------------*\
  =========                 |
  \\      /  F ield         | OpenFOAM: The Open Source CFD Toolbox
   \\    /   O peration     | Website:  https://openfoam.org
    \\  /    A nd           | Version:  12
     \\/     M anipulation  |
\*---------------------------------------------------------------------------*/
FoamFile
{
    format      ascii;
    class       volVectorField;
    location    "1500";
    object      wallShearStress;
}
// * * * * * * * * * * * * * * * * * * * * * * * * * * * * * * * * * * * * * //

dimensions      [0 2 -2 0 0 0 0];

internalField   uniform (0 0 0);

boundaryField
{
    inlet
    {
        type            calculated;
        value           uniform (0 0 0);
    }
    top
    {
        type            calculated;
        value           uniform (0 0 0);
    }
    outlet
    {
        type            calculated;
        value           uniform (0 0 0);
    }
    slipsurface
    {
        type            calculated;
        value           uniform (0 0 0);
    }
    bottom
    {
        type            calculated;
        value           nonuniform List<vector> 
100
(
(-0.00062493286 -3.6031562e-07 1.842301e-21)
(-0.00072387727 -4.9406614e-07 2.1262918e-23)
(-0.00084341965 -8.097312e-07 0)
(-0.00097812299 -1.2198638e-06 9.5677785e-21)
(-0.0011260709 -1.7497433e-06 4.8281902e-20)
(-0.001284869 -2.3041983e-06 -5.05227e-20)
(-0.0014507883 -2.862575e-06 4.5246892e-22)
(-0.0016188085 -3.824599e-06 1.4246689e-19)
(-0.0017828363 -4.9526363e-06 0)
(-0.0019362632 -6.1717369e-06 3.9544644e-19)
(-0.0020727055 -7.4192041e-06 0)
(-0.0021871156 -8.6161813e-06 -6.1852991e-19)
(-0.0022762753 -9.6805785e-06 0)
(-0.0023390393 -1.0522025e-05 1.1941513e-18)
(-0.0023761134 -1.117095e-05 -2.3135863e-22)
(-0.002390037 -1.1393546e-05 1.3786401e-18)
(-0.0023829834 -1.1411685e-05 0)
(-0.0023649021 -1.1180162e-05 0)
(-0.0023254636 -1.0661302e-05 3.9258554e-19)
(-0.0022816532 -9.9877339e-06 3.5988744e-19)
(-0.0022323093 -9.1646933e-06 6.4799618e-19)
(-0.0021799055 -8.221953e-06 0)
(-0.0021267281 -7.2163245e-06 -4.093443e-19)
(-0.0020746462 -6.2008541e-06 0)
(-0.0020251648 -5.2056224e-06 1.0069979e-19)
(-0.0019794967 -4.2577263e-06 0)
(-0.0019385784 -3.3767521e-06 -0)
(-0.0019030768 -2.5867098e-06 0)
(-0.0018733639 -1.9125772e-06 -5.9061821e-21)
(-0.0018494012 -1.3755288e-06 -4.657023e-20)
(-0.0018306445 -9.922733e-07 0)
(-0.001816065 -7.58707e-07 7.0523306e-20)
(-0.0018042845 -6.5007799e-07 -6.0471008e-20)
(-0.0017938757 -6.2874759e-07 0)
(-0.0017837159 -6.5185722e-07 0)
(-0.0017731773 -6.8333018e-07 9.8504137e-21)
(-0.0017621006 -7.0106494e-07 0)
(-0.0017506261 -6.9731631e-07 0)
(-0.0017389763 -6.7781952e-07 0)
(-0.0017272999 -6.5334549e-07 -0)
(-0.0017156329 -6.3206066e-07 -0)
(-0.001703945 -6.1640197e-07 -0)
(-0.0016922152 -6.0393303e-07 -0)
(-0.001680475 -5.9117994e-07 0)
(-0.0016687944 -5.7622157e-07 -0)
(-0.0016572431 -5.5888692e-07 -0)
(-0.0016458621 -5.4004048e-07 0)
(-0.0016346635 -5.2062292e-07 0)
(-0.0016236461 -5.0123288e-07 0)
(-0.001612809 -4.8201136e-07 -0)
(-0.0016021536 -4.6296955e-07 0)
(-0.0015916808 -4.441543e-07 0)
(-0.0015813904 -4.2576287e-07 0)
(-0.001571279 -4.0802021e-07 -0)
(-0.0015613414 -3.9093338e-07 0)
(-0.0015515742 -3.744342e-07 0)
(-0.0015419748 -3.585598e-07 0)
(-0.0015325386 -3.4336749e-07 0)
(-0.0015232606 -3.2879126e-07 0)
(-0.0015141385 -3.1479215e-07 -0)
(-0.0015051679 -3.0145197e-07 0)
(-0.0014963428 -2.8872931e-07 0)
(-0.0014876587 -2.7656962e-07 0)
(-0.0014791115 -2.6498372e-07 0)
(-0.0014706969 -2.5391378e-07 0)
(-0.0014624118 -2.4332002e-07 0)
(-0.0014542527 -2.3321555e-07 0)
(-0.0014462157 -2.2356211e-07 0)
(-0.0014382976 -2.14333e-07 -0)
(-0.001430495 -2.055298e-07 -0)
(-0.0014228043 -1.9712193e-07 -0)
(-0.0014152223 -1.8909357e-07 0)
(-0.001407746 -1.8142755e-07 0)
(-0.0014003722 -1.7410219e-07 0)
(-0.0013930979 -1.671038e-07 0)
(-0.0013859203 -1.6041258e-07 0)
(-0.0013788369 -1.5401461e-07 0)
(-0.0013718449 -1.4789657e-07 0)
(-0.0013649419 -1.4204487e-07 0)
(-0.0013581255 -1.3644687e-07 0)
(-0.0013513932 -1.3109039e-07 0)
(-0.0013447428 -1.2596385e-07 0)
(-0.0013381722 -1.2105679e-07 0)
(-0.0013316791 -1.1635932e-07 0)
(-0.0013252614 -1.1186207e-07 -0)
(-0.0013189171 -1.0755641e-07 0)
(-0.001312644 -1.0343427e-07 -0)
(-0.0013064402 -9.9488779e-08 -0)
(-0.0013003035 -9.5713603e-08 0)
(-0.0012942314 -9.2105043e-08 0)
(-0.0012882226 -8.8656353e-08 0)
(-0.001282272 -8.5375905e-08 0)
(-0.0012763819 -8.2250631e-08 0)
(-0.0012705348 -7.9342324e-08 0)
(-0.0012647552 -7.6559917e-08 0)
(-0.0012589619 -7.4379013e-08 0)
(-0.0012532962 -7.0384796e-08 2.2997934e-23)
(-0.0012473191 -1.0928991e-07 -1.8188894e-22)
(-0.0012423541 -7.2619379e-08 5.6154213e-22)
(-0.0012330861 -1.1100047e-07 2.1374201e-20)
)
;
    }
    frontandback
    {
        type            empty;
    }
}


// ************************************************************************* //
