/*--------------------------------*- C++ -*----------------------------------*\
  =========                 |
  \\      /  F ield         | OpenFOAM: The Open Source CFD Toolbox
   \\    /   O peration     | Website:  https://openfoam.org
    \\  /    A nd           | Version:  12
     \\/     M anipulation  |
\*---------------------------------------------------------------------------*/
FoamFile
{
    format      ascii;
    class       volScalarField;
    location    "1500";
    object      yPlus;
}
// * * * * * * * * * * * * * * * * * * * * * * * * * * * * * * * * * * * * * //

dimensions      [];

internalField   uniform 0;

boundaryField
{
    inlet
    {
        type            calculated;
        value           uniform 0;
    }
    top
    {
        type            calculated;
        value           uniform 0;
    }
    outlet
    {
        type            calculated;
        value           uniform 0;
    }
    slipsurface
    {
        type            calculated;
        value           uniform 0;
    }
    bottom
    {
        type            calculated;
        value           nonuniform List<scalar> 
100
(
15.368731
18.505719
22.426919
27.00634
32.222017
38.031263
44.339334
50.99201
57.782773
64.464535
70.775197
76.482612
81.409554
85.450206
88.57068
90.813319
92.208977
93.155932
93.121459
92.850293
92.258105
91.433516
90.459936
89.41018
88.347363
87.326422
86.394848
85.591476
84.945031
84.469554
84.158054
83.980279
83.887335
83.824544
83.747301
83.630995
83.471334
83.27746
83.062425
82.836015
82.602467
82.362179
82.114899
81.861879
81.605887
81.3499
81.095907
80.844658
80.596218
80.350571
80.107813
79.868008
79.631195
79.397328
79.166323
78.938124
78.712686
78.489932
78.269779
78.05222
77.837185
77.624552
77.414223
77.206136
77.000232
76.796469
76.594804
76.395182
76.197557
76.001881
75.808102
75.616174
75.426058
75.237707
75.051077
74.866129
74.682827
74.501135
74.321017
74.142439
73.965367
73.789768
73.61561
73.442861
73.271487
73.101457
72.93274
72.765299
72.599105
72.434108
72.270286
72.107547
71.945933
71.7851
71.625511
71.465563
71.30807
71.143253
71.003962
70.746072
)
;
    }
    frontandback
    {
        type            empty;
    }
}


// ************************************************************************* //
