# Selection     : all 
# Volume        : 5.16250000e-02
# Time          	max(p)	location	cell	max(k)	location	cell	max(omega)	location	cell	max(nut)	location	cell
0               	8.50000000e+04	(-4.68052535e-02 1.01701236e-05 5.00000000e-02)	0	1.00000000e-01	(-4.68052535e-02 1.01701236e-05 5.00000000e-02)	0	2.38000000e+01	(-4.68052535e-02 1.01701236e-05 5.00000000e-02)	0	4.20168067e-03	(-4.68052535e-02 1.01701236e-05 5.00000000e-02)	0
1               	8.50127697e+04	(-3.19474650e-05 1.01701236e-05 5.00000000e-02)	34	1.00000113e-01	(-3.71678618e-04 1.01701236e-05 5.00000000e-02)	30	1.16018912e+07	(2.97752058e-02 1.01701236e-05 5.00000000e-02)	3850	4.20653782e-03	(2.88500438e+00 5.11975664e-02 5.00000000e-02)	54674
2               	8.50502394e+04	(-3.19474650e-05 1.01701236e-05 5.00000000e-02)	34	1.00243884e-01	(2.12770039e-04 2.52681188e-04 5.00000000e-02)	9078	1.16018912e+07	(2.97752058e-02 1.01701236e-05 5.00000000e-02)	3850	4.21952589e-03	(2.76749354e+00 6.91401926e-02 5.00000000e-02)	57670
3               	8.50277368e+04	(-3.19474650e-05 1.01701236e-05 5.00000000e-02)	34	1.00539910e-01	(-1.00476297e-04 3.11366197e-05 5.00000000e-02)	68	1.16018912e+07	(2.97752058e-02 1.01701236e-05 5.00000000e-02)	3850	4.22172082e-03	(2.65475959e+00 9.33306556e-02 5.00000000e-02)	60666
4               	8.50175669e+04	(-3.19474650e-05 1.01701236e-05 5.00000000e-02)	34	1.01304854e-01	(-1.00476297e-04 5.33941767e-05 5.00000000e-02)	103	1.16018912e+07	(2.97752058e-02 1.01701236e-05 5.00000000e-02)	3850	4.22660493e-03	(2.71054178e+00 7.34180011e-02 5.00000000e-02)	58268
5               	8.50136380e+04	(-3.19474650e-05 1.01701236e-05 5.00000000e-02)	34	1.01717445e-01	(-3.19474650e-05 1.02105369e-04 5.00000000e-02)	174	1.16018912e+07	(2.97752058e-02 1.01701236e-05 5.00000000e-02)	3850	4.22655871e-03	(2.71054178e+00 7.79592257e-02 5.00000000e-02)	58868
6               	8.50117319e+04	(-3.19474650e-05 1.01701236e-05 5.00000000e-02)	34	1.01855015e-01	(2.99912419e-05 1.57000272e-04 5.00000000e-02)	7275	1.16018912e+07	(2.97752058e-02 1.01701236e-05 5.00000000e-02)	3850	4.22714822e-03	(2.73886995e+00 6.13145915e-02 5.00000000e-02)	56469
7               	8.50106068e+04	(-3.19474650e-05 1.01701236e-05 5.00000000e-02)	34	1.01866936e-01	(9.02865036e-05 1.87008177e-04 5.00000000e-02)	7876	1.16018912e+07	(2.97752058e-02 1.01701236e-05 5.00000000e-02)	3850	4.23106409e-03	(2.85516791e+00 5.77388473e-02 5.00000000e-02)	55873
8               	8.50098618e+04	(-3.19474650e-05 1.01701236e-05 5.00000000e-02)	34	1.01928823e-01	(9.02865036e-05 1.87008177e-04 5.00000000e-02)	7876	1.16018912e+07	(2.97752058e-02 1.01701236e-05 5.00000000e-02)	3850	4.23195945e-03	(2.65475959e+00 5.11975664e-02 5.00000000e-02)	54666
9               	8.50093325e+04	(-3.19474650e-05 1.01701236e-05 5.00000000e-02)	34	1.01818124e-01	(1.51210583e-04 2.18863888e-04 5.00000000e-02)	8477	1.16018912e+07	(2.97752058e-02 1.01701236e-05 5.00000000e-02)	3850	4.23753620e-03	(2.68250600e+00 8.27800867e-02 5.00000000e-02)	59467
10              	8.50089380e+04	(-3.19474650e-05 1.01701236e-05 5.00000000e-02)	34	1.01748778e-01	(1.51210583e-04 1.87008177e-04 5.00000000e-02)	7877	1.16018912e+07	(2.97752058e-02 1.01701236e-05 5.00000000e-02)	3850	4.24087527e-03	(2.71054178e+00 8.27800867e-02 5.00000000e-02)	59468
11              	8.50086337e+04	(-3.19474650e-05 1.01701236e-05 5.00000000e-02)	34	1.01743102e-01	(2.12770039e-04 2.18863888e-04 5.00000000e-02)	8478	1.16018912e+07	(2.97752058e-02 1.01701236e-05 5.00000000e-02)	3850	4.24293510e-03	(2.82563940e+00 6.91401926e-02 5.00000000e-02)	57672
12              	8.50083924e+04	(-3.19474650e-05 1.01701236e-05 5.00000000e-02)	34	1.01681242e-01	(2.74971497e-04 2.52681188e-04 5.00000000e-02)	9079	1.16018912e+07	(2.97752058e-02 1.01701236e-05 5.00000000e-02)	3850	4.24972975e-03	(2.82563940e+00 7.34180011e-02 5.00000000e-02)	58272
13              	8.50081965e+04	(-3.19474650e-05 1.01701236e-05 5.00000000e-02)	34	1.01603714e-01	(2.74971497e-04 2.52681188e-04 5.00000000e-02)	9079	1.16018912e+07	(2.97752058e-02 1.01701236e-05 5.00000000e-02)	3850	4.24770275e-03	(2.82563940e+00 6.13145915e-02 5.00000000e-02)	56472
14              	8.50080347e+04	(-3.19474650e-05 1.01701236e-05 5.00000000e-02)	34	1.01577517e-01	(4.65495188e-04 3.26691153e-04 5.00000000e-02)	10282	1.16018912e+07	(2.97752058e-02 1.01701236e-05 5.00000000e-02)	3850	4.24588860e-03	(2.76749354e+00 4.02425556e-02 5.00000000e-02)	52270
15              	8.50078991e+04	(-3.19474650e-05 1.01701236e-05 5.00000000e-02)	34	1.01540038e-01	(4.65495188e-04 3.26691153e-04 5.00000000e-02)	10282	1.16018912e+07	(2.97752058e-02 1.01701236e-05 5.00000000e-02)	3850	4.24757524e-03	(2.79641566e+00 4.53931371e-02 5.00000000e-02)	53471
16              	8.50077841e+04	(-3.19474650e-05 1.01701236e-05 5.00000000e-02)	34	1.01557376e-01	(-1.00476297e-04 3.11366197e-05 5.00000000e-02)	68	1.16018912e+07	(2.97752058e-02 1.01701236e-05 5.00000000e-02)	3850	4.25003354e-03	(2.82563940e+00 4.27409249e-02 5.00000000e-02)	52872
17              	8.50076852e+04	(-3.19474650e-05 1.01701236e-05 5.00000000e-02)	34	1.01591627e-01	(-1.00476297e-04 3.11366197e-05 5.00000000e-02)	68	1.16018912e+07	(2.97752058e-02 1.01701236e-05 5.00000000e-02)	3850	4.25256719e-03	(2.85516791e+00 4.02425556e-02 5.00000000e-02)	52273
18              	8.50075996e+04	(-3.19474650e-05 1.01701236e-05 5.00000000e-02)	34	1.01625133e-01	(-1.00476297e-04 3.11366197e-05 5.00000000e-02)	68	1.16018912e+07	(2.97752058e-02 1.01701236e-05 5.00000000e-02)	3850	4.25326629e-03	(2.88500438e+00 4.27409249e-02 5.00000000e-02)	52874
19              	8.50075244e+04	(-3.19474650e-05 1.01701236e-05 5.00000000e-02)	34	1.01655984e-01	(-1.00476297e-04 3.11366197e-05 5.00000000e-02)	68	1.16018912e+07	(2.97752058e-02 1.01701236e-05 5.00000000e-02)	3850	4.25677800e-03	(2.73886995e+00 4.53931371e-02 5.00000000e-02)	53469
20              	8.50074580e+04	(-3.19474650e-05 1.01701236e-05 5.00000000e-02)	34	1.01686390e-01	(-1.00476297e-04 3.11366197e-05 5.00000000e-02)	68	1.16018912e+07	(2.97752058e-02 1.01701236e-05 5.00000000e-02)	3850	4.25690340e-03	(2.88500438e+00 4.27409249e-02 5.00000000e-02)	52874
21              	8.50073988e+04	(-3.19474650e-05 1.01701236e-05 5.00000000e-02)	34	1.01714419e-01	(-1.00476297e-04 3.11366197e-05 5.00000000e-02)	68	1.16018912e+07	(2.97752058e-02 1.01701236e-05 5.00000000e-02)	3850	4.25871996e-03	(2.88500438e+00 4.02425556e-02 5.00000000e-02)	52274
22              	8.50073457e+04	(-3.19474650e-05 1.01701236e-05 5.00000000e-02)	34	1.01741946e-01	(-1.00476297e-04 3.11366197e-05 5.00000000e-02)	68	1.16018912e+07	(2.97752058e-02 1.01701236e-05 5.00000000e-02)	3850	4.25890340e-03	(2.88500438e+00 4.02425556e-02 5.00000000e-02)	52274
23              	8.50072976e+04	(-3.19474650e-05 1.01701236e-05 5.00000000e-02)	34	1.01767415e-01	(-1.00476297e-04 3.11366197e-05 5.00000000e-02)	68	1.16018912e+07	(2.97752058e-02 1.01701236e-05 5.00000000e-02)	3850	4.26097215e-03	(2.88500438e+00 4.02425556e-02 5.00000000e-02)	52274
24              	8.50072538e+04	(-3.19474650e-05 1.01701236e-05 5.00000000e-02)	34	1.01792285e-01	(-1.00476297e-04 3.11366197e-05 5.00000000e-02)	68	1.16018912e+07	(2.97752058e-02 1.01701236e-05 5.00000000e-02)	3850	4.26075042e-03	(2.88500438e+00 4.02425556e-02 5.00000000e-02)	52274
25              	8.50072136e+04	(-3.19474650e-05 1.01701236e-05 5.00000000e-02)	34	1.01815410e-01	(-1.00476297e-04 3.11366197e-05 5.00000000e-02)	68	1.16018912e+07	(2.97752058e-02 1.01701236e-05 5.00000000e-02)	3850	4.26254730e-03	(2.88500438e+00 4.02425556e-02 5.00000000e-02)	52274
26              	8.50071766e+04	(-3.19474650e-05 1.01701236e-05 5.00000000e-02)	34	1.01837776e-01	(-1.00476297e-04 3.11366197e-05 5.00000000e-02)	68	1.16018912e+07	(2.97752058e-02 1.01701236e-05 5.00000000e-02)	3850	4.26271786e-03	(2.79641566e+00 4.27409249e-02 5.00000000e-02)	52871
27              	8.50071423e+04	(-3.19474650e-05 1.01701236e-05 5.00000000e-02)	34	1.01858723e-01	(-1.00476297e-04 3.11366197e-05 5.00000000e-02)	68	1.16018912e+07	(2.97752058e-02 1.01701236e-05 5.00000000e-02)	3850	4.26481625e-03	(2.82563940e+00 4.02425556e-02 5.00000000e-02)	52272
28              	8.50071104e+04	(-3.19474650e-05 1.01701236e-05 5.00000000e-02)	34	1.01878954e-01	(-1.00476297e-04 3.11366197e-05 5.00000000e-02)	68	1.16018912e+07	(2.97752058e-02 1.01701236e-05 5.00000000e-02)	3850	4.26642672e-03	(2.88500438e+00 4.53931371e-02 5.00000000e-02)	53474
29              	8.50070806e+04	(-3.19474650e-05 1.01701236e-05 5.00000000e-02)	34	1.01898151e-01	(-1.00476297e-04 3.11366197e-05 5.00000000e-02)	68	1.16018912e+07	(2.97752058e-02 1.01701236e-05 5.00000000e-02)	3850	4.26906218e-03	(2.88500438e+00 4.27409249e-02 5.00000000e-02)	52874
30              	8.50070525e+04	(-3.19474650e-05 1.01701236e-05 5.00000000e-02)	34	1.01916752e-01	(-1.00476297e-04 3.11366197e-05 5.00000000e-02)	68	1.16018912e+07	(2.97752058e-02 1.01701236e-05 5.00000000e-02)	3850	4.26898726e-03	(2.88500438e+00 4.27409249e-02 5.00000000e-02)	52874
31              	8.50070261e+04	(-3.19474650e-05 1.01701236e-05 5.00000000e-02)	34	1.01934476e-01	(-1.00476297e-04 3.11366197e-05 5.00000000e-02)	68	1.16018912e+07	(2.97752058e-02 1.01701236e-05 5.00000000e-02)	3850	4.27102503e-03	(2.73886995e+00 5.43705160e-02 5.00000000e-02)	55269
32              	8.50070010e+04	(-3.19474650e-05 1.01701236e-05 5.00000000e-02)	34	1.01951656e-01	(-1.00476297e-04 3.11366197e-05 5.00000000e-02)	68	1.16018912e+07	(2.97752058e-02 1.01701236e-05 5.00000000e-02)	3850	4.27491514e-03	(2.76749354e+00 4.82086654e-02 5.00000000e-02)	54070
33              	8.50069772e+04	(-3.19474650e-05 1.01701236e-05 5.00000000e-02)	34	1.01968053e-01	(-1.00476297e-04 3.11366197e-05 5.00000000e-02)	68	1.16018912e+07	(2.97752058e-02 1.01701236e-05 5.00000000e-02)	3850	4.27543590e-03	(2.62729956e+00 4.53931371e-02 5.00000000e-02)	53465
34              	8.50069544e+04	(-3.19474650e-05 1.01701236e-05 5.00000000e-02)	34	1.01983958e-01	(-1.00476297e-04 3.11366197e-05 5.00000000e-02)	68	1.16018912e+07	(2.97752058e-02 1.01701236e-05 5.00000000e-02)	3850	4.27778228e-03	(2.65475959e+00 4.53931371e-02 5.00000000e-02)	53466
35              	8.50069326e+04	(-3.19474650e-05 1.01701236e-05 5.00000000e-02)	34	1.01999172e-01	(-1.00476297e-04 3.11366197e-05 5.00000000e-02)	68	1.16018912e+07	(2.97752058e-02 1.01701236e-05 5.00000000e-02)	3850	4.27910696e-03	(2.68250600e+00 4.53931371e-02 5.00000000e-02)	53467
36              	8.50069115e+04	(-3.19474650e-05 1.01701236e-05 5.00000000e-02)	34	1.02013954e-01	(-1.00476297e-04 3.11366197e-05 5.00000000e-02)	68	1.16018912e+07	(2.97752058e-02 1.01701236e-05 5.00000000e-02)	3850	4.28193715e-03	(2.71054178e+00 4.27409249e-02 5.00000000e-02)	52868
37              	8.50068914e+04	(-3.19474650e-05 1.01701236e-05 5.00000000e-02)	34	1.02028136e-01	(-1.00476297e-04 3.11366197e-05 5.00000000e-02)	68	1.16018912e+07	(2.97752058e-02 1.01701236e-05 5.00000000e-02)	3850	4.28362104e-03	(2.71054178e+00 4.27409249e-02 5.00000000e-02)	52868
38              	8.50068719e+04	(-3.19474650e-05 1.01701236e-05 5.00000000e-02)	34	1.02041955e-01	(-1.00476297e-04 3.11366197e-05 5.00000000e-02)	68	1.16018912e+07	(2.97752058e-02 1.01701236e-05 5.00000000e-02)	3850	4.28563393e-03	(2.76749354e+00 4.82086654e-02 5.00000000e-02)	54070
39              	8.50068533e+04	(-3.19474650e-05 1.01701236e-05 5.00000000e-02)	34	1.02055256e-01	(-1.00476297e-04 3.11366197e-05 5.00000000e-02)	68	1.16018912e+07	(2.97752058e-02 1.01701236e-05 5.00000000e-02)	3850	4.28931180e-03	(2.76749354e+00 4.53931371e-02 5.00000000e-02)	53470
40              	8.50068352e+04	(-3.19474650e-05 1.01701236e-05 5.00000000e-02)	34	1.02068255e-01	(-1.00476297e-04 3.11366197e-05 5.00000000e-02)	68	1.16018912e+07	(2.97752058e-02 1.01701236e-05 5.00000000e-02)	3850	4.29179913e-03	(2.79641566e+00 4.53931371e-02 5.00000000e-02)	53471
41              	8.50068177e+04	(-3.19474650e-05 1.01701236e-05 5.00000000e-02)	34	1.02080812e-01	(-1.00476297e-04 3.11366197e-05 5.00000000e-02)	68	1.16018912e+07	(2.97752058e-02 1.01701236e-05 5.00000000e-02)	3850	4.29400973e-03	(2.79641566e+00 4.53931371e-02 5.00000000e-02)	53471
42              	8.50068008e+04	(-3.19474650e-05 1.01701236e-05 5.00000000e-02)	34	1.02093134e-01	(-1.00476297e-04 3.11366197e-05 5.00000000e-02)	68	1.16018912e+07	(2.97752058e-02 1.01701236e-05 5.00000000e-02)	3850	4.29393667e-03	(2.79641566e+00 4.27409249e-02 5.00000000e-02)	52871
43              	8.50067845e+04	(-3.19474650e-05 1.01701236e-05 5.00000000e-02)	34	1.02105080e-01	(-1.00476297e-04 3.11366197e-05 5.00000000e-02)	68	1.16018912e+07	(2.97752058e-02 1.01701236e-05 5.00000000e-02)	3850	4.29304784e-03	(2.82563940e+00 4.27409249e-02 5.00000000e-02)	52872
44              	8.50067687e+04	(-3.19474650e-05 1.01701236e-05 5.00000000e-02)	34	1.02116830e-01	(-1.00476297e-04 3.11366197e-05 5.00000000e-02)	68	1.16018912e+07	(2.97752058e-02 1.01701236e-05 5.00000000e-02)	3850	4.29237268e-03	(2.82563940e+00 4.27409249e-02 5.00000000e-02)	52872
45              	8.50067534e+04	(-3.19474650e-05 1.01701236e-05 5.00000000e-02)	34	1.02128253e-01	(-1.00476297e-04 3.11366197e-05 5.00000000e-02)	68	1.16018912e+07	(2.97752058e-02 1.01701236e-05 5.00000000e-02)	3850	4.29216534e-03	(2.85516791e+00 4.27409249e-02 5.00000000e-02)	52873
46              	8.50067385e+04	(-3.19474650e-05 1.01701236e-05 5.00000000e-02)	34	1.02139514e-01	(-1.00476297e-04 3.11366197e-05 5.00000000e-02)	68	1.16018912e+07	(2.97752058e-02 1.01701236e-05 5.00000000e-02)	3850	4.29364803e-03	(2.88500438e+00 4.27409249e-02 5.00000000e-02)	52874
47              	8.50067242e+04	(-3.19474650e-05 1.01701236e-05 5.00000000e-02)	34	1.02150485e-01	(-1.00476297e-04 3.11366197e-05 5.00000000e-02)	68	1.16018912e+07	(2.97752058e-02 1.01701236e-05 5.00000000e-02)	3850	4.29385875e-03	(2.88500438e+00 4.27409249e-02 5.00000000e-02)	52874
48              	8.50067101e+04	(-3.19474650e-05 1.01701236e-05 5.00000000e-02)	34	1.02161320e-01	(-1.00476297e-04 3.11366197e-05 5.00000000e-02)	68	1.16018912e+07	(2.97752058e-02 1.01701236e-05 5.00000000e-02)	3850	4.29325656e-03	(2.88500438e+00 4.02425556e-02 5.00000000e-02)	52274
49              	8.50066965e+04	(-3.19474650e-05 1.01701236e-05 5.00000000e-02)	34	1.02171893e-01	(-1.00476297e-04 3.11366197e-05 5.00000000e-02)	68	1.16018912e+07	(2.97752058e-02 1.01701236e-05 5.00000000e-02)	3850	4.29312301e-03	(2.88500438e+00 4.02425556e-02 5.00000000e-02)	52274
50              	8.50066833e+04	(-3.19474650e-05 1.01701236e-05 5.00000000e-02)	34	1.02182348e-01	(-1.00476297e-04 3.11366197e-05 5.00000000e-02)	68	1.16018912e+07	(2.97752058e-02 1.01701236e-05 5.00000000e-02)	3850	4.29207248e-03	(2.88500438e+00 3.78891055e-02 5.00000000e-02)	51674
51              	8.50066705e+04	(-3.19474650e-05 1.01701236e-05 5.00000000e-02)	34	1.02192567e-01	(-1.00476297e-04 3.11366197e-05 5.00000000e-02)	68	1.16018912e+07	(2.97752058e-02 1.01701236e-05 5.00000000e-02)	3850	4.29147743e-03	(2.88500438e+00 3.78891055e-02 5.00000000e-02)	51674
52              	8.50066580e+04	(-3.19474650e-05 1.01701236e-05 5.00000000e-02)	34	1.02202680e-01	(-1.00476297e-04 3.11366197e-05 5.00000000e-02)	68	1.16018912e+07	(2.97752058e-02 1.01701236e-05 5.00000000e-02)	3850	4.29268077e-03	(2.68250600e+00 4.53931371e-02 5.00000000e-02)	53467
53              	8.50066458e+04	(-3.19474650e-05 1.01701236e-05 5.00000000e-02)	34	1.02212577e-01	(-1.00476297e-04 3.11366197e-05 5.00000000e-02)	68	1.16018912e+07	(2.97752058e-02 1.01701236e-05 5.00000000e-02)	3850	4.29597709e-03	(2.68250600e+00 4.27409249e-02 5.00000000e-02)	52867
54              	8.50066340e+04	(-3.19474650e-05 1.01701236e-05 5.00000000e-02)	34	1.02222380e-01	(-1.00476297e-04 3.11366197e-05 5.00000000e-02)	68	1.16018912e+07	(2.97752058e-02 1.01701236e-05 5.00000000e-02)	3850	4.29559918e-03	(2.73886995e+00 4.53931371e-02 5.00000000e-02)	53469
55              	8.50066225e+04	(-3.19474650e-05 1.01701236e-05 5.00000000e-02)	34	1.02231981e-01	(-1.00476297e-04 3.11366197e-05 5.00000000e-02)	68	1.16018912e+07	(2.97752058e-02 1.01701236e-05 5.00000000e-02)	3850	4.29854710e-03	(2.73886995e+00 4.27409249e-02 5.00000000e-02)	52869
56              	8.50066113e+04	(-3.19474650e-05 1.01701236e-05 5.00000000e-02)	34	1.02241498e-01	(-1.00476297e-04 3.11366197e-05 5.00000000e-02)	68	1.16018912e+07	(2.97752058e-02 1.01701236e-05 5.00000000e-02)	3850	4.29965029e-03	(2.82563940e+00 4.82086654e-02 5.00000000e-02)	54072
57              	8.50066003e+04	(-3.19474650e-05 1.01701236e-05 5.00000000e-02)	34	1.02250826e-01	(-1.00476297e-04 3.11366197e-05 5.00000000e-02)	68	1.16018912e+07	(2.97752058e-02 1.01701236e-05 5.00000000e-02)	3850	4.29765045e-03	(2.76749354e+00 4.02425556e-02 5.00000000e-02)	52270
58              	8.50065896e+04	(-3.19474650e-05 1.01701236e-05 5.00000000e-02)	34	1.02260080e-01	(-1.00476297e-04 3.11366197e-05 5.00000000e-02)	68	1.16018912e+07	(2.97752058e-02 1.01701236e-05 5.00000000e-02)	3850	4.29784499e-03	(2.79641566e+00 4.02425556e-02 5.00000000e-02)	52271
59              	8.50065792e+04	(-3.19474650e-05 1.01701236e-05 5.00000000e-02)	34	1.02269156e-01	(-1.00476297e-04 3.11366197e-05 5.00000000e-02)	68	1.16018912e+07	(2.97752058e-02 1.01701236e-05 5.00000000e-02)	3850	4.29791038e-03	(2.79641566e+00 4.02425556e-02 5.00000000e-02)	52271
60              	8.50065689e+04	(-3.19474650e-05 1.01701236e-05 5.00000000e-02)	34	1.02278163e-01	(-1.00476297e-04 3.11366197e-05 5.00000000e-02)	68	1.16018912e+07	(2.97752058e-02 1.01701236e-05 5.00000000e-02)	3850	4.29912335e-03	(2.82563940e+00 4.02425556e-02 5.00000000e-02)	52272
61              	8.50065590e+04	(-3.19474650e-05 1.01701236e-05 5.00000000e-02)	34	1.02517736e-01	(2.62729956e+00 6.67918404e-04 5.00000000e-02)	15065	1.16018912e+07	(2.97752058e-02 1.01701236e-05 5.00000000e-02)	3850	4.29978942e-03	(2.85516791e+00 4.02425556e-02 5.00000000e-02)	52273
62              	8.50065492e+04	(-3.19474650e-05 1.01701236e-05 5.00000000e-02)	34	1.02899562e-01	(2.62729956e+00 6.67918404e-04 5.00000000e-02)	15065	1.16018912e+07	(2.97752058e-02 1.01701236e-05 5.00000000e-02)	3850	4.30067403e-03	(2.88500438e+00 4.02425556e-02 5.00000000e-02)	52274
63              	8.50065397e+04	(-3.19474650e-05 1.01701236e-05 5.00000000e-02)	34	1.03288524e-01	(2.62729956e+00 6.67918404e-04 5.00000000e-02)	15065	1.16018912e+07	(2.97752058e-02 1.01701236e-05 5.00000000e-02)	3850	4.30128054e-03	(2.88500438e+00 4.02425556e-02 5.00000000e-02)	52274
64              	8.50065303e+04	(-3.19474650e-05 1.01701236e-05 5.00000000e-02)	34	1.03682768e-01	(2.62729956e+00 6.67918404e-04 5.00000000e-02)	15065	1.16018912e+07	(2.97752058e-02 1.01701236e-05 5.00000000e-02)	3850	4.30189716e-03	(2.88500438e+00 4.02425556e-02 5.00000000e-02)	52274
65              	8.50065212e+04	(-3.19474650e-05 1.01701236e-05 5.00000000e-02)	34	1.04081294e-01	(2.62729956e+00 6.67918404e-04 5.00000000e-02)	15065	1.16018912e+07	(2.97752058e-02 1.01701236e-05 5.00000000e-02)	3850	4.30224059e-03	(2.88500438e+00 4.02425556e-02 5.00000000e-02)	52274
66              	8.50065123e+04	(-3.19474650e-05 1.01701236e-05 5.00000000e-02)	34	1.04483814e-01	(2.62729956e+00 6.67918404e-04 5.00000000e-02)	15065	1.16018912e+07	(2.97752058e-02 1.01701236e-05 5.00000000e-02)	3850	4.30244538e-03	(2.88500438e+00 4.02425556e-02 5.00000000e-02)	52274
67              	8.50065036e+04	(-3.19474650e-05 1.01701236e-05 5.00000000e-02)	34	1.04890163e-01	(2.62729956e+00 6.67918404e-04 5.00000000e-02)	15065	1.16018912e+07	(2.97752058e-02 1.01701236e-05 5.00000000e-02)	3850	4.30273167e-03	(2.88500438e+00 3.78891055e-02 5.00000000e-02)	51674
68              	8.50064950e+04	(-3.19474650e-05 1.01701236e-05 5.00000000e-02)	34	1.05300276e-01	(2.62729956e+00 6.67918404e-04 5.00000000e-02)	15065	1.16018912e+07	(2.97752058e-02 1.01701236e-05 5.00000000e-02)	3850	4.30295240e-03	(2.88500438e+00 3.78891055e-02 5.00000000e-02)	51674
69              	8.50064866e+04	(-3.19474650e-05 1.01701236e-05 5.00000000e-02)	34	1.05714108e-01	(2.62729956e+00 6.67918404e-04 5.00000000e-02)	15065	1.16018912e+07	(2.97752058e-02 1.01701236e-05 5.00000000e-02)	3850	4.30310032e-03	(2.88500438e+00 3.78891055e-02 5.00000000e-02)	51674
70              	8.50064784e+04	(-3.19474650e-05 1.01701236e-05 5.00000000e-02)	34	1.06131647e-01	(2.62729956e+00 6.67918404e-04 5.00000000e-02)	15065	1.16018912e+07	(2.97752058e-02 1.01701236e-05 5.00000000e-02)	3850	4.30319084e-03	(2.88500438e+00 3.78891055e-02 5.00000000e-02)	51674
71              	8.50064702e+04	(-3.19474650e-05 1.01701236e-05 5.00000000e-02)	34	1.06552825e-01	(2.62729956e+00 6.67918404e-04 5.00000000e-02)	15065	1.16018912e+07	(2.97752058e-02 1.01701236e-05 5.00000000e-02)	3850	4.30323637e-03	(2.88500438e+00 3.78891055e-02 5.00000000e-02)	51674
72              	8.50064623e+04	(-3.19474650e-05 1.01701236e-05 5.00000000e-02)	34	1.06977613e-01	(2.62729956e+00 6.67918404e-04 5.00000000e-02)	15065	1.16018912e+07	(2.97752058e-02 1.01701236e-05 5.00000000e-02)	3850	4.30334153e-03	(2.88500438e+00 3.56721684e-02 5.00000000e-02)	51074
73              	8.50064545e+04	(-3.19474650e-05 1.01701236e-05 5.00000000e-02)	34	1.07405277e-01	(2.62729956e+00 6.67918404e-04 5.00000000e-02)	15065	1.16018912e+07	(2.97752058e-02 1.01701236e-05 5.00000000e-02)	3850	4.30350836e-03	(2.88500438e+00 3.56721684e-02 5.00000000e-02)	51074
74              	8.50064469e+04	(-3.19474650e-05 1.01701236e-05 5.00000000e-02)	34	1.07835087e-01	(2.62729956e+00 6.67918404e-04 5.00000000e-02)	15065	1.16018912e+07	(2.97752058e-02 1.01701236e-05 5.00000000e-02)	3850	4.30365165e-03	(2.88500438e+00 3.56721684e-02 5.00000000e-02)	51074
75              	8.50064395e+04	(-3.19474650e-05 1.01701236e-05 5.00000000e-02)	34	1.08266595e-01	(2.62729956e+00 6.67918404e-04 5.00000000e-02)	15065	1.16018912e+07	(2.97752058e-02 1.01701236e-05 5.00000000e-02)	3850	4.30377703e-03	(2.88500438e+00 3.56721684e-02 5.00000000e-02)	51074
76              	8.50064321e+04	(-3.19474650e-05 1.01701236e-05 5.00000000e-02)	34	1.08699507e-01	(2.62729956e+00 6.67918404e-04 5.00000000e-02)	15065	1.16018912e+07	(2.97752058e-02 1.01701236e-05 5.00000000e-02)	3850	4.30388927e-03	(2.88500438e+00 3.56721684e-02 5.00000000e-02)	51074
77              	8.50064249e+04	(-3.19474650e-05 1.01701236e-05 5.00000000e-02)	34	1.09133711e-01	(2.62729956e+00 6.67918404e-04 5.00000000e-02)	15065	1.16018912e+07	(2.97752058e-02 1.01701236e-05 5.00000000e-02)	3850	4.30399230e-03	(2.88500438e+00 3.56721684e-02 5.00000000e-02)	51074
78              	8.50064179e+04	(-3.19474650e-05 1.01701236e-05 5.00000000e-02)	34	1.09571574e-01	(2.62729956e+00 7.29387281e-04 5.00000000e-02)	15665	1.16018912e+07	(2.97752058e-02 1.01701236e-05 5.00000000e-02)	3850	4.30408925e-03	(2.88500438e+00 3.56721684e-02 5.00000000e-02)	51074
79              	8.50064109e+04	(-3.19474650e-05 1.01701236e-05 5.00000000e-02)	34	1.10037829e-01	(2.62729956e+00 7.29387281e-04 5.00000000e-02)	15665	1.16018912e+07	(2.97752058e-02 1.01701236e-05 5.00000000e-02)	3850	4.30419636e-03	(2.88500438e+00 3.35838259e-02 5.00000000e-02)	50474
80              	8.50064041e+04	(-3.19474650e-05 1.01701236e-05 5.00000000e-02)	34	1.10506637e-01	(2.62729956e+00 7.29387281e-04 5.00000000e-02)	15665	1.16018912e+07	(2.97752058e-02 1.01701236e-05 5.00000000e-02)	3850	4.30439493e-03	(2.88500438e+00 3.35838259e-02 5.00000000e-02)	50474
81              	8.50063974e+04	(-3.19474650e-05 1.01701236e-05 5.00000000e-02)	34	1.10977934e-01	(2.62729956e+00 7.29387281e-04 5.00000000e-02)	15665	1.16018912e+07	(2.97752058e-02 1.01701236e-05 5.00000000e-02)	3850	4.30458521e-03	(2.88500438e+00 3.35838259e-02 5.00000000e-02)	50474
82              	8.50063908e+04	(-3.19474650e-05 1.01701236e-05 5.00000000e-02)	34	1.11451671e-01	(2.62729956e+00 7.29387281e-04 5.00000000e-02)	15665	1.16018912e+07	(2.97752058e-02 1.01701236e-05 5.00000000e-02)	3850	4.30476732e-03	(2.88500438e+00 3.35838259e-02 5.00000000e-02)	50474
83              	8.50063844e+04	(-3.19474650e-05 1.01701236e-05 5.00000000e-02)	34	1.11927294e-01	(2.62729956e+00 7.29387281e-04 5.00000000e-02)	15665	1.16018912e+07	(2.97752058e-02 1.01701236e-05 5.00000000e-02)	3850	4.30494073e-03	(2.88500438e+00 3.35838259e-02 5.00000000e-02)	50474
84              	8.50063780e+04	(-3.19474650e-05 1.01701236e-05 5.00000000e-02)	34	1.12404132e-01	(2.62729956e+00 7.29387281e-04 5.00000000e-02)	15665	1.16018912e+07	(2.97752058e-02 1.01701236e-05 5.00000000e-02)	3850	4.30510447e-03	(2.88500438e+00 3.35838259e-02 5.00000000e-02)	50474
85              	8.50063718e+04	(-3.19474650e-05 1.01701236e-05 5.00000000e-02)	34	1.12881767e-01	(2.62729956e+00 7.29387281e-04 5.00000000e-02)	15665	1.16018912e+07	(2.97752058e-02 1.01701236e-05 5.00000000e-02)	3850	4.30525702e-03	(2.88500438e+00 3.35838259e-02 5.00000000e-02)	50474
86              	8.50063656e+04	(-3.19474650e-05 1.01701236e-05 5.00000000e-02)	34	1.13359960e-01	(2.62729956e+00 7.29387281e-04 5.00000000e-02)	15665	1.16018912e+07	(2.97752058e-02 1.01701236e-05 5.00000000e-02)	3850	4.30539656e-03	(2.88500438e+00 3.35838259e-02 5.00000000e-02)	50474
87              	8.50063596e+04	(-3.19474650e-05 1.01701236e-05 5.00000000e-02)	34	1.13838562e-01	(2.62729956e+00 7.29387281e-04 5.00000000e-02)	15665	1.16018912e+07	(2.97752058e-02 1.01701236e-05 5.00000000e-02)	3850	4.30552099e-03	(2.88500438e+00 3.35838259e-02 5.00000000e-02)	50474
88              	8.50063537e+04	(-3.19474650e-05 1.01701236e-05 5.00000000e-02)	34	1.14317503e-01	(2.62729956e+00 7.29387281e-04 5.00000000e-02)	15665	1.16018912e+07	(2.97752058e-02 1.01701236e-05 5.00000000e-02)	3850	4.30562801e-03	(2.88500438e+00 3.35838259e-02 5.00000000e-02)	50474
89              	8.50063478e+04	(-3.19474650e-05 1.01701236e-05 5.00000000e-02)	34	1.14796742e-01	(2.62729956e+00 7.29387281e-04 5.00000000e-02)	15665	1.16018912e+07	(2.97752058e-02 1.01701236e-05 5.00000000e-02)	3850	4.30571529e-03	(2.88500438e+00 3.35838259e-02 5.00000000e-02)	50474
90              	8.50063421e+04	(-3.19474650e-05 1.01701236e-05 5.00000000e-02)	34	1.15276289e-01	(2.62729956e+00 7.29387281e-04 5.00000000e-02)	15665	1.16018912e+07	(2.97752058e-02 1.01701236e-05 5.00000000e-02)	3850	4.30578047e-03	(2.88500438e+00 3.35838259e-02 5.00000000e-02)	50474
91              	8.50063365e+04	(-3.19474650e-05 1.01701236e-05 5.00000000e-02)	34	1.15756128e-01	(2.62729956e+00 7.29387281e-04 5.00000000e-02)	15665	1.16018912e+07	(2.97752058e-02 1.01701236e-05 5.00000000e-02)	3850	4.30582125e-03	(2.88500438e+00 3.35838259e-02 5.00000000e-02)	50474
92              	8.50063309e+04	(-3.19474650e-05 1.01701236e-05 5.00000000e-02)	34	1.16236250e-01	(2.62729956e+00 7.29387281e-04 5.00000000e-02)	15665	1.16018912e+07	(2.97752058e-02 1.01701236e-05 5.00000000e-02)	3850	4.30583544e-03	(2.88500438e+00 3.35838259e-02 5.00000000e-02)	50474
93              	8.50063255e+04	(-3.19474650e-05 1.01701236e-05 5.00000000e-02)	34	1.16716638e-01	(2.62729956e+00 7.29387281e-04 5.00000000e-02)	15665	1.16018912e+07	(2.97752058e-02 1.01701236e-05 5.00000000e-02)	3850	4.30582103e-03	(2.88500438e+00 3.35838259e-02 5.00000000e-02)	50474
94              	8.50063201e+04	(-3.19474650e-05 1.01701236e-05 5.00000000e-02)	34	1.17197050e-01	(2.62729956e+00 7.29387281e-04 5.00000000e-02)	15665	1.16018912e+07	(2.97752058e-02 1.01701236e-05 5.00000000e-02)	3850	4.30577622e-03	(2.88500438e+00 3.35838259e-02 5.00000000e-02)	50474
95              	8.50063148e+04	(-3.19474650e-05 1.01701236e-05 5.00000000e-02)	34	1.17677147e-01	(2.62729956e+00 7.29387281e-04 5.00000000e-02)	15665	1.16018912e+07	(2.97752058e-02 1.01701236e-05 5.00000000e-02)	3850	4.30569932e-03	(2.88500438e+00 3.35838259e-02 5.00000000e-02)	50474
96              	8.50063096e+04	(-3.19474650e-05 1.01701236e-05 5.00000000e-02)	34	1.18156660e-01	(2.62729956e+00 7.29387281e-04 5.00000000e-02)	15665	1.16018912e+07	(2.97752058e-02 1.01701236e-05 5.00000000e-02)	3850	4.30558899e-03	(2.88500438e+00 3.35838259e-02 5.00000000e-02)	50474
97              	8.50063045e+04	(-3.19474650e-05 1.01701236e-05 5.00000000e-02)	34	1.18635369e-01	(2.62729956e+00 7.29387281e-04 5.00000000e-02)	15665	1.16018912e+07	(2.97752058e-02 1.01701236e-05 5.00000000e-02)	3850	4.30544403e-03	(2.88500438e+00 3.35838259e-02 5.00000000e-02)	50474
98              	8.50062995e+04	(-3.19474650e-05 1.01701236e-05 5.00000000e-02)	34	1.19113088e-01	(2.62729956e+00 7.29387281e-04 5.00000000e-02)	15665	1.16018912e+07	(2.97752058e-02 1.01701236e-05 5.00000000e-02)	3850	4.30526351e-03	(2.88500438e+00 3.35838259e-02 5.00000000e-02)	50474
99              	8.50062945e+04	(-3.19474650e-05 1.01701236e-05 5.00000000e-02)	34	1.19589692e-01	(2.62729956e+00 7.29387281e-04 5.00000000e-02)	15665	1.16018912e+07	(2.97752058e-02 1.01701236e-05 5.00000000e-02)	3850	4.30504670e-03	(2.88500438e+00 3.35838259e-02 5.00000000e-02)	50474
100             	8.50062897e+04	(-3.19474650e-05 1.01701236e-05 5.00000000e-02)	34	1.20065127e-01	(2.62729956e+00 7.29387281e-04 5.00000000e-02)	15665	1.16018912e+07	(2.97752058e-02 1.01701236e-05 5.00000000e-02)	3850	4.30479294e-03	(2.88500438e+00 3.35838259e-02 5.00000000e-02)	50474
101             	8.50062849e+04	(-3.19474650e-05 1.01701236e-05 5.00000000e-02)	34	1.20539391e-01	(2.62729956e+00 7.29387281e-04 5.00000000e-02)	15665	1.16018912e+07	(2.97752058e-02 1.01701236e-05 5.00000000e-02)	3850	4.30450181e-03	(2.88500438e+00 3.35838259e-02 5.00000000e-02)	50474
102             	8.50062801e+04	(-3.19474650e-05 1.01701236e-05 5.00000000e-02)	34	1.21012508e-01	(2.62729956e+00 7.29387281e-04 5.00000000e-02)	15665	1.16018912e+07	(2.97752058e-02 1.01701236e-05 5.00000000e-02)	3850	4.30417291e-03	(2.88500438e+00 3.35838259e-02 5.00000000e-02)	50474
103             	8.50062754e+04	(-3.19474650e-05 1.01701236e-05 5.00000000e-02)	34	1.21484464e-01	(2.62729956e+00 7.29387281e-04 5.00000000e-02)	15665	1.16018912e+07	(2.97752058e-02 1.01701236e-05 5.00000000e-02)	3850	4.30380593e-03	(2.88500438e+00 3.35838259e-02 5.00000000e-02)	50474