#      distance             U_x             U_y             U_z wallShearStr... wallShearStr... wallShearStr...               p         epsilon               k             nut
  3.0219182e-06     0.031903178   5.3538505e-09  -5.2312715e-23               0               0               0     0.000430436       9.6869105    0.0004856188   4.8312623e-09
  5.0865428e-06     0.052708712   1.3491395e-08  -2.2354996e-23               0               0               0   0.00043043654       6.4435283    0.0010233205   1.9302009e-08
  7.2269684e-06     0.072328786   2.5768623e-08  -4.0302765e-23               0               0               0    0.0004304372       5.3944542    0.0016229704   4.9203114e-08
  9.4750924e-06     0.090169333    4.180362e-08  -6.0447682e-23               0               0               0   0.00043043804       4.8958911    0.0022082989   9.4502661e-08
  1.1864417e-05      0.10614303   6.1366126e-08  -2.3818303e-23               0               0               0   0.00043043908       4.5743513    0.0027370433   1.5170149e-07
  1.4430548e-05      0.12053663   8.4582381e-08    4.987091e-23               0               0               0   0.00043044035       4.3126963    0.0031991779   2.1751384e-07
  1.7211727e-05      0.13373011   1.1183069e-07   8.2143958e-23               0               0               0   0.00043044184       4.0731879    0.0036007979   2.9023042e-07
  2.0249401e-05      0.14605352   1.4366564e-07    2.051425e-23               0               0               0   0.00043044357       3.8436962    0.0039518688   3.6939147e-07
  2.3588836e-05      0.15775968   1.8079812e-07  -1.6170824e-23               0               0               0   0.00043044554       3.6203993      0.00426151    4.552629e-07
  2.7279799e-05      0.16903574   2.2409758e-07   -8.085412e-24               0               0               0   0.00043044781        3.402283    0.0045369849   5.4852182e-07
  3.1377293e-05      0.18001989   2.7460213e-07               0               0               0               0    0.0004304504       3.1893412    0.0047838451   6.5010545e-07
  3.5942381e-05      0.19081496   3.3353571e-07    2.977044e-23               0               0               0   0.00043045337       2.9819483    0.0050063075   7.6114689e-07
  4.1043091e-05      0.20149824   4.0233171e-07   4.4650884e-23               0               0               0   0.00043045678       2.7806209     0.005207604   8.8295368e-07
  4.6755437e-05      0.21212827   4.8266263e-07   5.2292107e-23               0               0               0   0.00043046068       2.5859149    0.0053902533   1.0170082e-06
  5.3164546e-05      0.22274966   5.7647556e-07   5.6111492e-23               0               0               0   0.00043046517       2.3983715    0.0055562609     1.16498e-06
  6.0365928e-05      0.23339641   6.8603385e-07  -9.5455238e-23               0               0               0   0.00043047033       2.2184859    0.0057072621   1.3287456e-06
    6.84669e-05       0.2440944    8.139657e-07  -2.0156196e-22               0               0               0   0.00043047626       2.0466853    0.0058446247   1.5104138e-06
  7.7588184e-05      0.25486311   9.6332059e-07  -1.0847001e-22               0               0               0   0.00043048309       1.8833148    0.0059695205   1.7123551e-06
   8.786571e-05      0.26571702   1.1376345e-06   3.5466539e-23               0               0               0   0.00043049097       1.7286284    0.0060829763   1.9372355e-06
  9.9452634e-05      0.27666659   1.3410056e-06   1.5787433e-22               0               0               0   0.00043050005       1.5827855    0.0061859091   2.1880547e-06
  0.00011252163      0.28771908   1.5781811e-06   2.9894409e-23               0               0               0   0.00043051053       1.4458502    0.0062791503   2.4681887e-06
  0.00012726745      0.29887918   1.8546585e-06  -9.1752992e-23               0               0               0   0.00043052262        1.317796    0.0063634624   2.7814372e-06
  0.00014390985       0.3101495    2.176802e-06  -2.0302732e-23               0               0               0   0.00043053659       1.1985118    0.0064395497   3.1320762e-06
  0.00016269684      0.32153102   2.5519771e-06   5.2390811e-23               0               0               0   0.00043055271       1.0878108    0.0065080658   3.5249167e-06
  0.00018390838      0.33302342   2.9887061e-06   4.1236083e-22               0               0               0   0.00043057133      0.98544027    0.0065696176   3.9653693e-06
  0.00020786057       0.3446254   3.4968489e-06   5.1371029e-22               0               0               0   0.00043059285       0.8910927    0.0066247685   4.4595156e-06
  0.00023491035      0.35633488   4.0878107e-06   1.5374026e-22               0               0               0   0.00043061772      0.80441664    0.0066740396   5.0141865e-06
  0.00026546084       0.3681493   4.7747843e-06               0               0               0               0   0.00043064646      0.72502745    0.0067179112   5.6370484e-06
   0.0002999673      0.38006572    5.573029e-06               0               0               0               0   0.00043067966      0.65251736    0.0067568229   6.3366969e-06
  0.00033894396      0.39208106   6.5001958e-06  -1.7174796e-22               0               0               0   0.00043071803      0.58646473    0.0067911741   7.1227578e-06
  0.00038297165      0.40419218   7.5767039e-06  -3.4349593e-22               0               0               0   0.00043076237      0.52644215    0.0068213242   8.0059961e-06
  0.00043270649      0.41639607   8.8261778e-06    7.403401e-22               0               0               0   0.00043081358      0.47202349     0.006847593   8.9984321e-06
  0.00048888965      0.42868993   1.0275957e-05   1.4421387e-21               0               0               0   0.00043087273      0.42278975    0.0068702603   1.0113463e-05
  0.00055235838      0.44107126   1.1957689e-05   5.3005059e-22               0               0               0   0.00043094103      0.37833384    0.0068895664   1.1365986e-05
   0.0006240585      0.45353801   1.3908019e-05               0               0               0               0   0.00043101987      0.33826426    0.0069057117   1.2772531e-05
  0.00070505852      0.46608862   1.6169401e-05   2.4797024e-22               0               0               0   0.00043111084      0.30220788    0.0069188562   1.4351378e-05
  0.00079656552      0.47872215   1.8791041e-05   4.9594048e-22               0               0               0   0.00043121575      0.26981186    0.0069291191   1.6122677e-05
  0.00089994316      0.49143832   2.1830008e-05   2.4797024e-22               0               0               0   0.00043133669      0.24074485    0.0069365775   1.8108545e-05
    0.001016732      0.50423764    2.535254e-05               0               0               0               0   0.00043147601      0.21469762    0.0069412651   2.0333142e-05
   0.0011486725      0.51712149   2.9435585e-05   1.0687669e-21               0               0               0   0.00043163638      0.19138308    0.0069431696   2.2822704e-05
   0.0012977308      0.53009221   3.4168624e-05  -8.2899999e-22               0               0               0   0.00043182086      0.17053605    0.0069422301    2.560552e-05
   0.0014661282      0.54315322   3.9655841e-05  -3.6498619e-21               0               0               0   0.00043203284      0.15191263    0.0069383335   2.8711829e-05
   0.0016563743      0.55630913   4.6018704e-05  -2.8993092e-21               0               0               0   0.00043227618       0.1352893    0.0069313093   3.2173602e-05
   0.0018713042      0.56956585   5.3399068e-05  -1.7579327e-21               0               0               0   0.00043255516        0.120462    0.0069209233   3.6024187e-05
   0.0021141207      0.58293081   6.1962899e-05  -6.1071849e-22               0               0               0   0.00043287457      0.10724491    0.0069068704   4.0297751e-05
   0.0023884425      0.59641305   7.1904783e-05  -4.5203358e-22               0               0               0   0.00043323965     0.095469318    0.0068887642   4.5028473e-05
   0.0026983575      0.61002348   8.3453405e-05   1.2477134e-21               0               0               0   0.00043365615     0.084982379    0.0068661256   5.0249418e-05
   0.0030484842      0.62377505   9.6878229e-05  -2.4043927e-21               0               0               0   0.00043413029     0.075645885    0.0068383672   5.5990994e-05
   0.0034440402      0.63768307    0.0001124977  -5.9744055e-21               0               0               0   0.00043466864     0.067335065    0.0068047749   6.2278903e-05
   0.0038909203      0.65176546   0.00013068933  -1.8702658e-21               0               0               0   0.00043527807     0.059937413    0.0067644843   6.9131459e-05
    0.004395784      0.66604312   0.00015190218   3.5434843e-21               0               0               0   0.00043596545      0.05335155    0.0067164515   7.6556127e-05
   0.0049661549      0.68054034   0.00017667231  -4.5143608e-21               0               0               0   0.00043673734     0.047486146    0.0066594167   8.4545137e-05
   0.0056105328       0.6952852   0.00020564209  -1.4365601e-20               0               0               0   0.00043759948     0.042258886    0.0065918579   9.3069991e-05
   0.0063385204      0.71031014   0.00023958411   5.1001861e-21               0               0               0   0.00043855598     0.037595483     0.006511933   0.00010207469
   0.0071609664      0.72565246   0.00027943091   1.8876475e-20               0               0               0   0.00043960804     0.033428732    0.0064174068   0.00011146747
   0.0080901272      0.74135499   0.00032631159   2.5980989e-20               0               0               0   0.00044075238       0.0296976    0.0063055575   0.00012111092
   0.0091398493       0.7574667   0.00038160001   2.8582283e-20               0               0               0   0.00044197977     0.026346341    0.0061730597   0.00013081026
    0.010325776       0.7740433    0.0004469864   1.4246952e-20               0               0               0   0.00044327386     0.023323618    0.0060158351   0.00014029977
     0.01166558      0.79114771    0.0005245636   4.1771256e-21               0               0               0   0.00044459813     0.020581635    0.0058288663   0.00014922724
    0.013179228      0.80885023   0.00061662094   2.1170132e-20               0               0               0   0.00044588605     0.018075256    0.0056059639   0.00015713667
    0.014889277      0.82722783   0.00072631694   2.2511256e-20               0               0               0   0.00044704677     0.015761148    0.0053394866   0.00016344939
    0.016821209      0.84636194   0.00085761536   4.2768436e-20               0               0               0   0.00044795692     0.013597006    0.0050200243   0.00016744437
    0.019003816      0.86633301    0.0010147815   6.0855667e-20               0               0               0   0.00044843928     0.011541071    0.0046360877   0.00016823911
    0.021469624      0.88720857    0.0012030352   3.0142279e-20               0               0               0    0.0004482323    0.0095524399    0.0041739445   0.00016477465
    0.024255377       0.9090164    0.0014283225   9.9013049e-21               0               0               0   0.00044695284     0.007593534    0.0036180043   0.00015581421
    0.027402591      0.93168093    0.0016957596  -8.1265849e-22               0               0               0   0.00044406309    0.0056384425    0.0029530072   0.00013999177
    0.030958166      0.95484164    0.0020104992               0               0               0               0   0.00043914343    0.0036996234    0.0021731533   0.00011611277
    0.034975088      0.97713338    0.0023652304               0               0               0               0   0.00043168208    0.0019298938    0.0013286221   8.4737288e-05
    0.039513219      0.99461097    0.0026688887   3.6085496e-20               0               0               0   0.00041943531   0.00068880047   0.00062148006   5.7385331e-05
    0.044640187       1.0036916    0.0028162345   3.1819943e-20               0               0               0   0.00040229079   0.00015002178   0.00025257343   5.9579451e-05
    0.050432395       1.0063547    0.0028425461  -3.0240227e-20               0               0               0   0.00038437559   2.8414762e-05   0.00015148236   0.00010164502
    0.056976161       1.0068429    0.0028327995  -2.9646492e-20               0               0               0    0.0003678459   1.1406157e-05   0.00013645488   0.00016103211
    0.064369002       1.0069618    0.0028157224  -3.6718835e-21               0               0               0   0.00035180797   7.8379335e-06   0.00013448353   0.00021254051
    0.072721087       1.0070075    0.0027946422               0               0               0               0   0.00033546939   6.5747971e-06   0.00013481544   0.00025077039
    0.082156882       1.0070218    0.0027693172               0               0               0               0   0.00031900368   5.9307184e-06   0.00013568009   0.00028046971
    0.092817002       1.0070151    0.0027400591               0               0               0               0   0.00030304047   5.5091283e-06   0.00013659998   0.00030558772
