/*--------------------------------*- C++ -*----------------------------------*\
  =========                 |
  \\      /  F ield         | OpenFOAM: The Open Source CFD Toolbox
   \\    /   O peration     | Website:  https://openfoam.org
    \\  /    A nd           | Version:  12
     \\/     M anipulation  |
\*---------------------------------------------------------------------------*/
FoamFile
{
    format      ascii;
    class       volScalarField;
    location    "400";
    object      nuTilda;
}
// * * * * * * * * * * * * * * * * * * * * * * * * * * * * * * * * * * * * * //

dimensions      [0 2 -1 0 0 0 0];

internalField   nonuniform List<scalar> 
13056
(
1.9999749e-06
2.0000317e-06
2.0001796e-06
2.0003895e-06
2.0006449e-06
2.0009397e-06
2.0012698e-06
2.0016324e-06
2.0020253e-06
2.0024477e-06
2.0028996e-06
2.0033822e-06
2.0038978e-06
2.0044499e-06
2.0050445e-06
2.0056893e-06
2.0063994e-06
2.0071861e-06
2.008103e-06
2.0091294e-06
2.0105457e-06
2.0119762e-06
2.0155427e-06
2.0196183e-06
3.000825e-08
2.1995039e-08
2.0852013e-08
2.0445545e-08
2.0182857e-08
1.9961527e-08
1.9764704e-08
1.9587576e-08
1.9426929e-08
1.9279802e-08
1.9143865e-08
1.9017432e-08
1.8899247e-08
1.8788317e-08
1.868382e-08
1.8585067e-08
1.8491468e-08
1.8402511e-08
1.8317749e-08
1.8236787e-08
1.8159285e-08
1.8084936e-08
1.8013479e-08
1.7944678e-08
1.7878314e-08
1.7814203e-08
1.7752176e-08
1.769207e-08
1.7633746e-08
1.7577084e-08
1.752196e-08
1.7468264e-08
1.7415905e-08
1.7364794e-08
1.7314842e-08
1.7265971e-08
1.7218114e-08
1.7171209e-08
1.7125187e-08
1.7079988e-08
1.7035564e-08
1.6991867e-08
1.6948846e-08
1.6906452e-08
1.6864646e-08
1.6823392e-08
1.6782652e-08
1.6742386e-08
1.6702557e-08
1.6663138e-08
1.6624101e-08
1.6585412e-08
1.6547041e-08
1.6508959e-08
1.6471145e-08
1.6433574e-08
1.6396216e-08
1.6359046e-08
1.632204e-08
1.628518e-08
1.6248442e-08
1.6211799e-08
1.6175226e-08
1.6138704e-08
1.6102214e-08
1.6065732e-08
1.602923e-08
1.5992686e-08
1.5956081e-08
1.5919392e-08
1.5882592e-08
1.5845652e-08
1.5808552e-08
1.5771268e-08
1.573377e-08
1.5696026e-08
1.5658008e-08
1.5619688e-08
1.5581034e-08
1.5542008e-08
1.5502573e-08
1.5462697e-08
1.5422339e-08
1.538145e-08
1.5339985e-08
1.52979e-08
1.5255138e-08
1.5211635e-08
1.5167345e-08
1.5123171e-08
1.5080519e-08
1.5039806e-08
1.5000888e-08
1.4963629e-08
1.4927903e-08
1.4893603e-08
1.4860632e-08
1.4828895e-08
1.4798306e-08
1.4768792e-08
1.4740286e-08
1.4712724e-08
1.4686043e-08
1.466018e-08
1.4635088e-08
1.461069e-08
1.458698e-08
1.4563684e-08
1.4541192e-08
1.4517782e-08
1.4497446e-08
1.4463524e-08
1.9999749e-06
2.0000317e-06
2.0001796e-06
2.0003896e-06
2.0006452e-06
2.0009401e-06
2.0012705e-06
2.0016333e-06
2.0020264e-06
2.002449e-06
2.0029012e-06
2.003384e-06
2.0038998e-06
2.0044522e-06
2.0050471e-06
2.0056922e-06
2.0064026e-06
2.0071896e-06
2.0081068e-06
2.0091335e-06
2.0105501e-06
2.011981e-06
2.015547e-06
2.0196337e-06
8.7906262e-08
6.6281602e-08
6.2857292e-08
6.1633099e-08
6.0841755e-08
6.0175368e-08
5.9582777e-08
5.9049393e-08
5.856554e-08
5.8122352e-08
5.7712832e-08
5.7331916e-08
5.6975827e-08
5.664158e-08
5.6326701e-08
5.602912e-08
5.5747057e-08
5.547898e-08
5.5223533e-08
5.4979536e-08
5.4745961e-08
5.4521883e-08
5.4306521e-08
5.4099158e-08
5.3899136e-08
5.3705904e-08
5.3518949e-08
5.3337783e-08
5.316199e-08
5.29912e-08
5.2825047e-08
5.2663197e-08
5.2505373e-08
5.2351313e-08
5.2200746e-08
5.2053433e-08
5.1909179e-08
5.1767791e-08
5.1629067e-08
5.1492821e-08
5.1358911e-08
5.1227192e-08
5.109751e-08
5.0969719e-08
5.0843698e-08
5.071934e-08
5.0596532e-08
5.0475152e-08
5.0355089e-08
5.0236263e-08
5.0118587e-08
5.0001962e-08
4.9886292e-08
4.9771495e-08
4.9657504e-08
4.9544244e-08
4.943163e-08
4.9319578e-08
4.9208024e-08
4.9096907e-08
4.8986157e-08
4.8875694e-08
4.8765441e-08
4.8655344e-08
4.8545342e-08
4.8435361e-08
4.8325323e-08
4.8215156e-08
4.8104803e-08
4.7994199e-08
4.788326e-08
4.77719e-08
4.7660053e-08
4.7547652e-08
4.7434607e-08
4.7320821e-08
4.7206205e-08
4.709068e-08
4.6974147e-08
4.6856492e-08
4.6737605e-08
4.6617386e-08
4.6495712e-08
4.6372437e-08
4.6247427e-08
4.6120545e-08
4.5991623e-08
4.5860464e-08
4.572693e-08
4.5593749e-08
4.5465154e-08
4.5342402e-08
4.5225063e-08
4.5112725e-08
4.5005007e-08
4.4901589e-08
4.4802177e-08
4.4706487e-08
4.4614255e-08
4.4525265e-08
4.4439315e-08
4.435621e-08
4.4275761e-08
4.4197778e-08
4.4122118e-08
4.4048553e-08
4.397706e-08
4.3906819e-08
4.3838998e-08
4.376842e-08
4.3707099e-08
4.360481e-08
1.9999748e-06
2.0000317e-06
2.0001798e-06
2.0003901e-06
2.0006462e-06
2.0009416e-06
2.0012725e-06
2.0016359e-06
2.0020297e-06
2.002453e-06
2.0029059e-06
2.0033895e-06
2.0039061e-06
2.0044593e-06
2.005055e-06
2.0057009e-06
2.0064121e-06
2.0072e-06
2.0081181e-06
2.0091457e-06
2.010563e-06
2.0119948e-06
2.0155588e-06
2.0196613e-06
1.4422423e-07
1.1146668e-07
1.0577198e-07
1.0371498e-07
1.0238565e-07
1.0126699e-07
1.0027214e-07
9.9376389e-08
9.856351e-08
9.7818754e-08
9.7130454e-08
9.6490138e-08
9.5891484e-08
9.532949e-08
9.4800017e-08
9.4299592e-08
9.3825234e-08
9.337437e-08
9.2944727e-08
9.2534324e-08
9.2141433e-08
9.1764507e-08
9.1402229e-08
9.1053397e-08
9.0716906e-08
9.039183e-08
9.0077306e-08
8.9772517e-08
8.947676e-08
8.9189415e-08
8.8909869e-08
8.8637558e-08
8.8372016e-08
8.8112803e-08
8.7859466e-08
8.7611602e-08
8.736888e-08
8.713098e-08
8.6897559e-08
8.6668307e-08
8.6442981e-08
8.6221342e-08
8.6003128e-08
8.5788096e-08
8.5576041e-08
8.5366781e-08
8.5160128e-08
8.4955877e-08
8.4753844e-08
8.4553888e-08
8.4355866e-08
8.4159612e-08
8.3964965e-08
8.3771786e-08
8.3579961e-08
8.3389366e-08
8.3199856e-08
8.3011292e-08
8.2823565e-08
8.2636573e-08
8.2450196e-08
8.2264302e-08
8.2078761e-08
8.189348e-08
8.1708359e-08
8.1523272e-08
8.1338089e-08
8.1152688e-08
8.0966972e-08
8.0780833e-08
8.0594128e-08
8.0406714e-08
8.0218481e-08
8.0029313e-08
7.983906e-08
7.9647558e-08
7.9454658e-08
7.9260227e-08
7.9064099e-08
7.8866081e-08
7.8665987e-08
7.846365e-08
7.8258863e-08
7.805138e-08
7.7840974e-08
7.7627415e-08
7.7410422e-08
7.7189662e-08
7.6964902e-08
7.6740731e-08
7.6524279e-08
7.631766e-08
7.6120151e-08
7.5931057e-08
7.5749739e-08
7.5575655e-08
7.5408316e-08
7.5247238e-08
7.5091982e-08
7.4942181e-08
7.4797497e-08
7.46576e-08
7.4522173e-08
7.4390898e-08
7.4263532e-08
7.4139693e-08
7.4019342e-08
7.3901101e-08
7.3786931e-08
7.3668143e-08
7.3564913e-08
7.3392708e-08
1.9999746e-06
2.0000316e-06
2.00018e-06
2.000391e-06
2.0006477e-06
2.000944e-06
2.0012759e-06
2.0016403e-06
2.0020353e-06
2.0024598e-06
2.0029139e-06
2.0033988e-06
2.0039167e-06
2.0044712e-06
2.0050683e-06
2.0057156e-06
2.0064282e-06
2.0072175e-06
2.0081371e-06
2.0091662e-06
2.0105847e-06
2.0120181e-06
2.0155781e-06
2.0197015e-06
1.996431e-07
1.5815478e-07
1.5021494e-07
1.4730065e-07
1.4541855e-07
1.4383586e-07
1.42428e-07
1.4115966e-07
1.4000803e-07
1.389525e-07
1.379767e-07
1.3706873e-07
1.3621968e-07
1.3542249e-07
1.3467134e-07
1.3396132e-07
1.3328822e-07
1.326484e-07
1.3203865e-07
1.3145616e-07
1.308985e-07
1.3036347e-07
1.2984921e-07
1.2935402e-07
1.2887632e-07
1.2841481e-07
1.2796827e-07
1.2753554e-07
1.2711562e-07
1.2670764e-07
1.2631071e-07
1.2592406e-07
1.25547e-07
1.2517893e-07
1.2481919e-07
1.2446722e-07
1.2412254e-07
1.2378471e-07
1.2345323e-07
1.2312768e-07
1.2280769e-07
1.2249293e-07
1.2218303e-07
1.2187765e-07
1.215765e-07
1.2127931e-07
1.2098582e-07
1.2069574e-07
1.2040881e-07
1.2012482e-07
1.1984358e-07
1.1956485e-07
1.1928839e-07
1.1901403e-07
1.1874158e-07
1.1847087e-07
1.1820171e-07
1.1793389e-07
1.1766725e-07
1.1740166e-07
1.1713693e-07
1.168729e-07
1.1660936e-07
1.1634619e-07
1.1608324e-07
1.1582034e-07
1.155573e-07
1.1529395e-07
1.1503016e-07
1.1476575e-07
1.1450055e-07
1.1423433e-07
1.1396695e-07
1.1369823e-07
1.1342798e-07
1.1315594e-07
1.1288192e-07
1.1260572e-07
1.1232711e-07
1.1204581e-07
1.1176156e-07
1.1147412e-07
1.1118319e-07
1.1088844e-07
1.1058952e-07
1.1028613e-07
1.0997785e-07
1.0966421e-07
1.0934489e-07
1.090264e-07
1.0871887e-07
1.0842531e-07
1.0814469e-07
1.0787602e-07
1.076184e-07
1.0737105e-07
1.0713328e-07
1.0690441e-07
1.0668381e-07
1.0647095e-07
1.0626536e-07
1.0606658e-07
1.0587414e-07
1.0568761e-07
1.0550662e-07
1.0533065e-07
1.0515963e-07
1.0499162e-07
1.0482938e-07
1.0466063e-07
1.0451394e-07
1.0426921e-07
1.9999744e-06
2.0000315e-06
2.0001804e-06
2.0003921e-06
2.00065e-06
2.0009475e-06
2.0012807e-06
2.0016467e-06
2.0020433e-06
2.0024694e-06
2.0029254e-06
2.0034121e-06
2.0039318e-06
2.0044883e-06
2.0050873e-06
2.0057366e-06
2.0064513e-06
2.0072427e-06
2.0081643e-06
2.0091954e-06
2.0106158e-06
2.0120513e-06
2.0156053e-06
2.0197549e-06
2.547064e-07
2.0694029e-07
1.9681558e-07
1.9301404e-07
1.9056046e-07
1.8849842e-07
1.8666318e-07
1.8500844e-07
1.8350474e-07
1.8212572e-07
1.8085035e-07
1.7966323e-07
1.7855286e-07
1.7751007e-07
1.7652731e-07
1.7559821e-07
1.747173e-07
1.7387984e-07
1.7308166e-07
1.723191e-07
1.7158898e-07
1.7088843e-07
1.7021503e-07
1.6956656e-07
1.6894098e-07
1.6833656e-07
1.6775171e-07
1.6718493e-07
1.6663491e-07
1.661005e-07
1.6558056e-07
1.6507406e-07
1.6458012e-07
1.6409793e-07
1.6362665e-07
1.6316554e-07
1.6271397e-07
1.6227136e-07
1.6183707e-07
1.6141053e-07
1.6099127e-07
1.6057887e-07
1.6017282e-07
1.5977269e-07
1.5937809e-07
1.5898868e-07
1.5860411e-07
1.58224e-07
1.5784802e-07
1.5747589e-07
1.5710735e-07
1.567421e-07
1.5637983e-07
1.5602029e-07
1.5566326e-07
1.5530852e-07
1.5495578e-07
1.5460481e-07
1.5425538e-07
1.5390732e-07
1.5356039e-07
1.5321436e-07
1.5286898e-07
1.5252408e-07
1.5217947e-07
1.5183492e-07
1.5149018e-07
1.5114504e-07
1.507993e-07
1.5045276e-07
1.5010517e-07
1.4975625e-07
1.4940579e-07
1.4905359e-07
1.4869937e-07
1.4834281e-07
1.4798364e-07
1.4762161e-07
1.4725641e-07
1.4688769e-07
1.465151e-07
1.4613831e-07
1.4575696e-07
1.4537058e-07
1.4497874e-07
1.4458102e-07
1.4417689e-07
1.4376574e-07
1.4334712e-07
1.4292959e-07
1.4252642e-07
1.4214156e-07
1.4177365e-07
1.4142141e-07
1.4108364e-07
1.4075934e-07
1.404476e-07
1.4014752e-07
1.3985827e-07
1.3957918e-07
1.3930961e-07
1.3904897e-07
1.3879664e-07
1.3855205e-07
1.3831473e-07
1.3808399e-07
1.3785974e-07
1.3763944e-07
1.3742671e-07
1.3720549e-07
1.3701314e-07
1.366922e-07
1.9999742e-06
2.0000314e-06
2.0001809e-06
2.0003937e-06
2.0006529e-06
2.000952e-06
2.0012872e-06
2.0016551e-06
2.0020538e-06
2.0024823e-06
2.0029405e-06
2.0034297e-06
2.003952e-06
2.004511e-06
2.0051126e-06
2.0057645e-06
2.0064819e-06
2.0072759e-06
2.0082003e-06
2.0092341e-06
2.0106567e-06
2.0120951e-06
2.0156408e-06
2.0198224e-06
3.0982025e-07
2.5838625e-07
2.4621136e-07
2.4149604e-07
2.3845136e-07
2.3589305e-07
2.3361385e-07
2.3155617e-07
2.2968418e-07
2.2796595e-07
2.263759e-07
2.2489519e-07
2.2350964e-07
2.22208e-07
2.2098095e-07
2.1982064e-07
2.1872029e-07
2.1767405e-07
2.1667671e-07
2.1572376e-07
2.1481124e-07
2.1393559e-07
2.1309379e-07
2.1228309e-07
2.1150094e-07
2.107452e-07
2.1001389e-07
2.0930512e-07
2.0861728e-07
2.0794892e-07
2.0729864e-07
2.0666513e-07
2.0604732e-07
2.0544417e-07
2.0485466e-07
2.0427784e-07
2.0371295e-07
2.0315925e-07
2.0261594e-07
2.0208231e-07
2.0155778e-07
2.0104181e-07
2.0053379e-07
2.0003316e-07
1.9953944e-07
1.9905221e-07
1.9857102e-07
1.9809541e-07
1.9762495e-07
1.9715931e-07
1.9669815e-07
1.962411e-07
1.9578778e-07
1.9533786e-07
1.9489108e-07
1.9444715e-07
1.9400573e-07
1.9356651e-07
1.9312922e-07
1.9269363e-07
1.9225946e-07
1.9182641e-07
1.9139416e-07
1.9096251e-07
1.9053122e-07
1.9009999e-07
1.8966853e-07
1.8923655e-07
1.8880382e-07
1.8837008e-07
1.8793503e-07
1.874983e-07
1.8705965e-07
1.8661881e-07
1.8617542e-07
1.8572911e-07
1.8527953e-07
1.8482636e-07
1.8436922e-07
1.8390765e-07
1.8344123e-07
1.8296957e-07
1.8249217e-07
1.8200847e-07
1.8151793e-07
1.8102002e-07
1.8051408e-07
1.7999933e-07
1.7947523e-07
1.7895247e-07
1.7844769e-07
1.7796581e-07
1.7750516e-07
1.7706411e-07
1.7664118e-07
1.7623511e-07
1.7584475e-07
1.7546899e-07
1.7510678e-07
1.7475729e-07
1.7441973e-07
1.7409333e-07
1.7377734e-07
1.7347104e-07
1.7317385e-07
1.7288488e-07
1.7260405e-07
1.7232817e-07
1.7206175e-07
1.717848e-07
1.7154391e-07
1.7114193e-07
1.9999738e-06
2.0000312e-06
2.0001815e-06
2.0003957e-06
2.0006566e-06
2.0009578e-06
2.0012953e-06
2.0016658e-06
2.0020672e-06
2.0024985e-06
2.0029598e-06
2.003452e-06
2.0039774e-06
2.0045396e-06
2.0051446e-06
2.0057998e-06
2.0065205e-06
2.007318e-06
2.0082458e-06
2.0092829e-06
2.0107083e-06
2.0121502e-06
2.0156851e-06
2.019905e-06
3.6525733e-07
3.1298814e-07
2.9903905e-07
2.9340386e-07
2.8975321e-07
2.8668378e-07
2.8394427e-07
2.8146619e-07
2.7920799e-07
2.7713274e-07
2.7521057e-07
2.7341931e-07
2.7174221e-07
2.7016594e-07
2.686794e-07
2.6727325e-07
2.6593939e-07
2.646708e-07
2.6346126e-07
2.6230532e-07
2.6119824e-07
2.6013574e-07
2.5911417e-07
2.5813022e-07
2.5718083e-07
2.562634e-07
2.5537555e-07
2.5451501e-07
2.536798e-07
2.5286819e-07
2.5207849e-07
2.5130912e-07
2.5055876e-07
2.4982618e-07
2.4911013e-07
2.4840947e-07
2.4772326e-07
2.4705062e-07
2.4639058e-07
2.4574228e-07
2.4510502e-07
2.4447814e-07
2.438609e-07
2.4325262e-07
2.4265272e-07
2.4206068e-07
2.4147598e-07
2.4089805e-07
2.4032636e-07
2.3976051e-07
2.392001e-07
2.3864467e-07
2.3809376e-07
2.3754698e-07
2.3700401e-07
2.3646448e-07
2.3592801e-07
2.3539419e-07
2.3486272e-07
2.3433329e-07
2.3380559e-07
2.3327923e-07
2.3275385e-07
2.3222919e-07
2.3170494e-07
2.3118078e-07
2.3065631e-07
2.3013122e-07
2.296052e-07
2.2907795e-07
2.2854909e-07
2.2801819e-07
2.2748494e-07
2.2694902e-07
2.2640999e-07
2.2586741e-07
2.2532083e-07
2.2476988e-07
2.242141e-07
2.2365293e-07
2.2308585e-07
2.2251237e-07
2.2193192e-07
2.2134379e-07
2.2074733e-07
2.201419e-07
2.1952669e-07
2.1890076e-07
2.1826344e-07
2.1762773e-07
2.1701387e-07
2.1642786e-07
2.1586764e-07
2.1533125e-07
2.1481689e-07
2.1432301e-07
2.1384824e-07
2.1339121e-07
2.1295067e-07
2.1252558e-07
2.1211499e-07
2.1171796e-07
2.1133361e-07
2.1096102e-07
2.1059952e-07
2.1024802e-07
2.0990641e-07
2.0957085e-07
2.0924677e-07
2.0890999e-07
2.0861697e-07
2.0812791e-07
1.9999734e-06
2.000031e-06
2.0001822e-06
2.000398e-06
2.0006612e-06
2.0009649e-06
2.0013053e-06
2.001679e-06
2.0020837e-06
2.0025186e-06
2.0029835e-06
2.0034795e-06
2.0040088e-06
2.0045749e-06
2.0051839e-06
2.0058432e-06
2.0065681e-06
2.0073697e-06
2.0083016e-06
2.0093429e-06
2.0107716e-06
2.0122178e-06
2.0157386e-06
2.0200038e-06
4.2116138e-07
3.7111198e-07
3.5591543e-07
3.4940402e-07
3.4514794e-07
3.415611e-07
3.383497e-07
3.3543601e-07
3.3277432e-07
3.303238e-07
3.2805098e-07
3.2593073e-07
3.2394392e-07
3.2207524e-07
3.2031194e-07
3.1864317e-07
3.1705955e-07
3.1555287e-07
3.1411588e-07
3.127422e-07
3.1142626e-07
3.1016305e-07
3.0894827e-07
3.0777803e-07
3.0664872e-07
3.0555727e-07
3.0450087e-07
3.0347685e-07
3.0248288e-07
3.015169e-07
3.0057692e-07
2.9966106e-07
2.9876775e-07
2.9789555e-07
2.9704298e-07
2.9620869e-07
2.9539156e-07
2.9459053e-07
2.9380448e-07
2.9303238e-07
2.9227339e-07
2.9152672e-07
2.9079151e-07
2.9006695e-07
2.8935235e-07
2.8864708e-07
2.8795054e-07
2.8726204e-07
2.8658096e-07
2.8590682e-07
2.8523914e-07
2.8457737e-07
2.8392098e-07
2.8326949e-07
2.8262251e-07
2.8197963e-07
2.8134038e-07
2.8070428e-07
2.8007096e-07
2.7944006e-07
2.788112e-07
2.7818394e-07
2.7755784e-07
2.7693256e-07
2.7630778e-07
2.7568308e-07
2.7505801e-07
2.7443218e-07
2.7380523e-07
2.7317681e-07
2.7254645e-07
2.7191366e-07
2.7127805e-07
2.7063924e-07
2.6999672e-07
2.6934994e-07
2.686984e-07
2.6804163e-07
2.6737908e-07
2.667101e-07
2.6603405e-07
2.6535036e-07
2.6465834e-07
2.6395716e-07
2.6324603e-07
2.6252418e-07
2.6179065e-07
2.6104432e-07
2.6028439e-07
2.5952637e-07
2.5879437e-07
2.5809556e-07
2.574275e-07
2.5678783e-07
2.5617442e-07
2.5558543e-07
2.550192e-07
2.5447412e-07
2.539487e-07
2.5344169e-07
2.5295197e-07
2.5247843e-07
2.5201998e-07
2.5157557e-07
2.5114437e-07
2.507251e-07
2.5031763e-07
2.4991739e-07
2.4953081e-07
2.4912925e-07
2.4877974e-07
2.4819626e-07
1.9999729e-06
2.0000307e-06
2.0001831e-06
2.0004009e-06
2.0006667e-06
2.0009735e-06
2.0013173e-06
2.0016948e-06
2.0021036e-06
2.0025427e-06
2.003012e-06
2.0035126e-06
2.0040465e-06
2.0046175e-06
2.0052313e-06
2.0058955e-06
2.0066253e-06
2.0074319e-06
2.0083687e-06
2.0094149e-06
2.0108474e-06
2.0122987e-06
2.0158019e-06
2.02012e-06
4.7755595e-07
4.3290725e-07
4.1739779e-07
4.1015405e-07
4.0532795e-07
4.0123787e-07
3.9755589e-07
3.941994e-07
3.9112174e-07
3.882804e-07
3.8563967e-07
3.8317226e-07
3.8085719e-07
3.7867748e-07
3.7661891e-07
3.7466929e-07
3.7281801e-07
3.7105575e-07
3.6937423e-07
3.6776615e-07
3.6622512e-07
3.6474539e-07
3.6332198e-07
3.6195043e-07
3.6062656e-07
3.5934682e-07
3.5810795e-07
3.5690686e-07
3.5574084e-07
3.5460749e-07
3.5350451e-07
3.5242971e-07
3.5138127e-07
3.503575e-07
3.4935667e-07
3.4837723e-07
3.4741785e-07
3.4647731e-07
3.455543e-07
3.446476e-07
3.4375625e-07
3.4287931e-07
3.420158e-07
3.4116475e-07
3.4032535e-07
3.3949688e-07
3.3867862e-07
3.3786978e-07
3.3706963e-07
3.3627759e-07
3.3549312e-07
3.3471557e-07
3.3394431e-07
3.3317879e-07
3.3241855e-07
3.316631e-07
3.3091189e-07
3.3016436e-07
3.2942008e-07
3.2867863e-07
3.2793956e-07
3.2720235e-07
3.2646647e-07
3.2573155e-07
3.249972e-07
3.2426292e-07
3.235282e-07
3.2279256e-07
3.220556e-07
3.2131688e-07
3.2057587e-07
3.1983198e-07
3.1908476e-07
3.1833376e-07
3.1757839e-07
3.1681799e-07
3.1605197e-07
3.1527978e-07
3.1450079e-07
3.1371421e-07
3.129193e-07
3.1211539e-07
3.1130167e-07
3.1047714e-07
3.096409e-07
3.0879203e-07
3.079294e-07
3.070517e-07
3.0615796e-07
3.0526645e-07
3.0440552e-07
3.035836e-07
3.0279781e-07
3.0204541e-07
3.0132387e-07
3.0063103e-07
2.9996496e-07
2.9932375e-07
2.9870565e-07
2.981092e-07
2.9753308e-07
2.9697597e-07
2.9643662e-07
2.9591377e-07
2.9540645e-07
2.9491318e-07
2.9443376e-07
2.939629e-07
2.9350806e-07
2.9303581e-07
2.9262462e-07
2.9193796e-07
1.9999723e-06
2.0000304e-06
2.0001841e-06
2.0004042e-06
2.0006731e-06
2.0009836e-06
2.0013316e-06
2.0017135e-06
2.0021271e-06
2.0025713e-06
2.0030459e-06
2.0035518e-06
2.0040914e-06
2.0046679e-06
2.0052875e-06
2.0059575e-06
2.0066931e-06
2.0075055e-06
2.0084481e-06
2.0095e-06
2.0109369e-06
2.0123942e-06
2.0158753e-06
2.0202547e-06
5.3436242e-07
4.9821442e-07
4.8391475e-07
4.7626468e-07
4.7097318e-07
4.6643536e-07
4.6231149e-07
4.5852346e-07
4.5502987e-07
4.5179064e-07
4.4877041e-07
4.4594141e-07
4.4328181e-07
4.407737e-07
4.3840182e-07
4.3615302e-07
4.3401565e-07
4.3197943e-07
4.3003516e-07
4.2817468e-07
4.2639083e-07
4.2467716e-07
4.2302803e-07
4.2143839e-07
4.1990354e-07
4.1841939e-07
4.1698226e-07
4.1558863e-07
4.142354e-07
4.1291981e-07
4.1163924e-07
4.103912e-07
4.0917356e-07
4.079844e-07
4.0682175e-07
4.0568381e-07
4.0456904e-07
4.0347604e-07
4.0240332e-07
4.0134947e-07
4.0031336e-07
3.9929391e-07
3.9829001e-07
3.9730052e-07
3.9632452e-07
3.9536116e-07
3.9440962e-07
3.9346899e-07
3.925384e-07
3.9161721e-07
3.9070477e-07
3.8980034e-07
3.889032e-07
3.8801269e-07
3.8712828e-07
3.8624941e-07
3.8537545e-07
3.8450575e-07
3.8363978e-07
3.8277708e-07
3.8191712e-07
3.8105929e-07
3.80203e-07
3.793478e-07
3.7849322e-07
3.7763871e-07
3.7678366e-07
3.7592752e-07
3.7506981e-07
3.7421004e-07
3.7334757e-07
3.7248173e-07
3.71612e-07
3.7073783e-07
3.6985856e-07
3.6897341e-07
3.680817e-07
3.6718278e-07
3.6627591e-07
3.6536019e-07
3.6443475e-07
3.634988e-07
3.6255139e-07
3.6159138e-07
3.6061771e-07
3.5962929e-07
3.5862484e-07
3.5760279e-07
3.5656205e-07
3.5552385e-07
3.5452124e-07
3.5356402e-07
3.5264886e-07
3.5177256e-07
3.5093218e-07
3.501252e-07
3.4934937e-07
3.4860249e-07
3.4788251e-07
3.4718773e-07
3.4651662e-07
3.4586764e-07
3.4523933e-07
3.4463024e-07
3.4403924e-07
3.4346458e-07
3.4290607e-07
3.4235756e-07
3.4182768e-07
3.4127776e-07
3.4079877e-07
3.399986e-07
1.9999715e-06
2.0000299e-06
2.0001852e-06
2.0004081e-06
2.0006806e-06
2.0009954e-06
2.0013482e-06
2.0017355e-06
2.0021547e-06
2.0026048e-06
2.0030856e-06
2.0035979e-06
2.0041439e-06
2.0047271e-06
2.0053533e-06
2.00603e-06
2.0067724e-06
2.0075916e-06
2.0085409e-06
2.0095993e-06
2.0110411e-06
2.0125052e-06
2.0159592e-06
2.0204089e-06
5.9139408e-07
5.6656814e-07
5.556659e-07
5.4823091e-07
5.4270371e-07
5.3785019e-07
5.3336557e-07
5.2919428e-07
5.2531131e-07
5.2168629e-07
5.1828899e-07
5.1509423e-07
5.1208137e-07
5.0923291e-07
5.0653359e-07
5.0396991e-07
5.0152973e-07
4.9920213e-07
4.9697725e-07
4.9484629e-07
4.9280144e-07
4.9083563e-07
4.8894268e-07
4.8711698e-07
4.8535334e-07
4.8364719e-07
4.8199443e-07
4.8039112e-07
4.7883376e-07
4.7731928e-07
4.7584471e-07
4.7440724e-07
4.7300446e-07
4.7163419e-07
4.7029423e-07
4.6898251e-07
4.6769728e-07
4.6643695e-07
4.6519984e-07
4.6398433e-07
4.6278913e-07
4.6161302e-07
4.604547e-07
4.5931293e-07
4.581866e-07
4.5707476e-07
4.5597646e-07
4.5489067e-07
4.5381641e-07
4.5275291e-07
4.5169944e-07
4.5065516e-07
4.4961923e-07
4.4859091e-07
4.4756956e-07
4.4655456e-07
4.4554519e-07
4.4454068e-07
4.4354045e-07
4.4254394e-07
4.4155055e-07
4.4055959e-07
4.3957037e-07
4.3858236e-07
4.3759504e-07
4.3660776e-07
4.3561984e-07
4.346306e-07
4.3363953e-07
4.3264603e-07
4.316494e-07
4.3064884e-07
4.2964374e-07
4.2863349e-07
4.2761731e-07
4.2659431e-07
4.2556369e-07
4.2452471e-07
4.234765e-07
4.2241804e-07
4.2134831e-07
4.2026639e-07
4.191712e-07
4.1806142e-07
4.1693579e-07
4.1579309e-07
4.1463181e-07
4.1345015e-07
4.1224683e-07
4.1104642e-07
4.0988711e-07
4.0878026e-07
4.0772201e-07
4.0670866e-07
4.0573681e-07
4.0480358e-07
4.0390634e-07
4.0304255e-07
4.0220986e-07
4.014063e-07
4.0063008e-07
3.9987945e-07
3.9915272e-07
3.9844821e-07
3.9776461e-07
3.9709991e-07
3.9645389e-07
3.9581947e-07
3.9520655e-07
3.9457078e-07
3.9401682e-07
3.9309094e-07
1.9999706e-06
2.0000294e-06
2.0001864e-06
2.0004125e-06
2.0006892e-06
2.001009e-06
2.0013675e-06
2.0017609e-06
2.0021867e-06
2.0026437e-06
2.0031316e-06
2.0036513e-06
2.0042048e-06
2.0047956e-06
2.0054295e-06
2.006114e-06
2.0068642e-06
2.0076911e-06
2.008648e-06
2.0097138e-06
2.0111609e-06
2.0126328e-06
2.0160538e-06
2.0205832e-06
6.4833743e-07
6.3727949e-07
6.3251596e-07
6.2632566e-07
6.2099455e-07
6.1608648e-07
6.1141438e-07
6.0697602e-07
6.0278101e-07
5.9882073e-07
5.9507818e-07
5.9153619e-07
5.8817897e-07
5.8499198e-07
5.8196179e-07
5.7907592e-07
5.7632267e-07
5.7369124e-07
5.7117165e-07
5.6875485e-07
5.6643273e-07
5.6419786e-07
5.6204367e-07
5.5996419e-07
5.5795382e-07
5.5600761e-07
5.5412112e-07
5.5229004e-07
5.5051053e-07
5.4877919e-07
5.4709276e-07
5.4544814e-07
5.4384263e-07
5.4227382e-07
5.4073926e-07
5.3923663e-07
5.3776396e-07
5.3631949e-07
5.3490132e-07
5.3350765e-07
5.3213699e-07
5.3078798e-07
5.2945918e-07
5.2814916e-07
5.2685667e-07
5.2558064e-07
5.2431999e-07
5.2307356e-07
5.2184024e-07
5.2061913e-07
5.1940941e-07
5.1821015e-07
5.1702038e-07
5.1583924e-07
5.1466603e-07
5.1350001e-07
5.1234038e-07
5.1118627e-07
5.1003699e-07
5.0889192e-07
5.0775037e-07
5.0661156e-07
5.0547468e-07
5.0433914e-07
5.0320432e-07
5.020695e-07
5.0093389e-07
4.9979673e-07
4.986574e-07
4.9751524e-07
4.9636943e-07
4.9521906e-07
4.9406343e-07
4.9290183e-07
4.9173336e-07
4.9055703e-07
4.8937188e-07
4.8817707e-07
4.8697162e-07
4.8575433e-07
4.8452404e-07
4.832797e-07
4.8202004e-07
4.8074356e-07
4.7944882e-07
4.7813439e-07
4.7679855e-07
4.7543922e-07
4.7405493e-07
4.7267392e-07
4.7134017e-07
4.7006672e-07
4.6884915e-07
4.6768321e-07
4.6656499e-07
4.6549117e-07
4.6445873e-07
4.6346477e-07
4.6250657e-07
4.6158186e-07
4.6068861e-07
4.5982478e-07
4.5898845e-07
4.5817767e-07
4.5739095e-07
4.5662599e-07
4.558825e-07
4.5515244e-07
4.5444705e-07
4.5371577e-07
4.5307839e-07
4.5201241e-07
1.9999696e-06
2.0000287e-06
2.0001877e-06
2.0004175e-06
2.000699e-06
2.0010246e-06
2.0013895e-06
2.00179e-06
2.0022234e-06
2.0026883e-06
2.0031844e-06
2.0037125e-06
2.0042747e-06
2.0048742e-06
2.0055169e-06
2.0062103e-06
2.0069694e-06
2.0078051e-06
2.0087704e-06
2.0098445e-06
2.0112973e-06
2.012778e-06
2.0161588e-06
2.0207781e-06
7.0476103e-07
7.0949563e-07
7.1395109e-07
7.1048357e-07
7.0605665e-07
7.0154457e-07
6.9700148e-07
6.9252358e-07
6.8818124e-07
6.8400527e-07
6.800043e-07
6.7617783e-07
6.7252093e-07
6.6902638e-07
6.6568573e-07
6.6248987e-07
6.5942937e-07
6.5649488e-07
6.5367735e-07
6.5096831e-07
6.4835996e-07
6.4584505e-07
6.4341702e-07
6.4106986e-07
6.3879785e-07
6.3659585e-07
6.3445922e-07
6.3238348e-07
6.3036452e-07
6.2839872e-07
6.2648263e-07
6.2461286e-07
6.2278652e-07
6.2100099e-07
6.192536e-07
6.1754183e-07
6.158635e-07
6.1421667e-07
6.1259927e-07
6.1100931e-07
6.0944513e-07
6.0790522e-07
6.0638798e-07
6.0489184e-07
6.0341538e-07
6.0195741e-07
6.0051672e-07
5.9909203e-07
5.9768208e-07
5.9628586e-07
5.9490244e-07
5.9353078e-07
5.9216981e-07
5.9081853e-07
5.8947615e-07
5.8814185e-07
5.8681472e-07
5.8549378e-07
5.8417823e-07
5.8286737e-07
5.8156043e-07
5.8025651e-07
5.7895472e-07
5.7765434e-07
5.763547e-07
5.7505498e-07
5.7375426e-07
5.7245168e-07
5.7114653e-07
5.6983806e-07
5.6852534e-07
5.6720734e-07
5.6588322e-07
5.645522e-07
5.6321325e-07
5.6186522e-07
5.6050702e-07
5.591377e-07
5.5775611e-07
5.5636091e-07
5.5495075e-07
5.5352441e-07
5.5208047e-07
5.5061719e-07
5.4913291e-07
5.4762601e-07
5.460945e-07
5.4453602e-07
5.4294884e-07
5.4136538e-07
5.3983604e-07
5.3837582e-07
5.3697961e-07
5.3564257e-07
5.3436022e-07
5.3312875e-07
5.3194471e-07
5.3080477e-07
5.2970582e-07
5.2864526e-07
5.2762075e-07
5.2662999e-07
5.2567074e-07
5.2474079e-07
5.2383842e-07
5.2296102e-07
5.2210824e-07
5.2127095e-07
5.2046188e-07
5.1962363e-07
5.1889279e-07
5.1766956e-07
1.9999683e-06
2.0000278e-06
2.000189e-06
2.000423e-06
2.0007101e-06
2.0010422e-06
2.0014145e-06
2.001823e-06
2.0022651e-06
2.002739e-06
2.0032445e-06
2.0037823e-06
2.0043542e-06
2.0049636e-06
2.0056163e-06
2.0063197e-06
2.0070887e-06
2.0079342e-06
2.0089091e-06
2.0099922e-06
2.011451e-06
2.0129414e-06
2.0162737e-06
2.0209932e-06
7.6012868e-07
7.8223641e-07
7.9915164e-07
8.0025668e-07
7.9774396e-07
7.943048e-07
7.9039147e-07
7.8625483e-07
7.8205742e-07
7.7789144e-07
7.7380735e-07
7.6983319e-07
7.659836e-07
7.6226505e-07
7.5867893e-07
7.5522328e-07
7.5189377e-07
7.4868473e-07
7.4558985e-07
7.4260261e-07
7.3971672e-07
7.36926e-07
7.3422465e-07
7.3160725e-07
7.2906844e-07
7.2660333e-07
7.2420744e-07
7.2187636e-07
7.1960597e-07
7.1739265e-07
7.1523287e-07
7.1312319e-07
7.1106056e-07
7.0904228e-07
7.0706558e-07
7.0512776e-07
7.0322652e-07
7.0135979e-07
6.9952539e-07
6.9772114e-07
6.9594525e-07
6.941961e-07
6.9247198e-07
6.9077114e-07
6.8909205e-07
6.8743338e-07
6.8579384e-07
6.8417201e-07
6.825665e-07
6.8097617e-07
6.7940001e-07
6.7783688e-07
6.7628558e-07
6.7474499e-07
6.7321422e-07
6.7169238e-07
6.7017843e-07
6.6867129e-07
6.6717005e-07
6.6567392e-07
6.6418205e-07
6.6269342e-07
6.6120702e-07
6.5972203e-07
6.5823771e-07
6.5675311e-07
6.5526722e-07
6.5377906e-07
6.5228779e-07
6.5079258e-07
6.4929238e-07
6.4778601e-07
6.4627252e-07
6.44751e-07
6.4322031e-07
6.4167912e-07
6.4012619e-07
6.3856042e-07
6.3698052e-07
6.3538495e-07
6.3377217e-07
6.3214079e-07
6.3048917e-07
6.2881534e-07
6.271174e-07
6.2539347e-07
6.2364131e-07
6.218582e-07
6.2004217e-07
6.1823028e-07
6.1648025e-07
6.1480923e-07
6.1321142e-07
6.1168125e-07
6.1021363e-07
6.0880419e-07
6.07449e-07
6.0614424e-07
6.0488637e-07
6.0367242e-07
6.024997e-07
6.0136558e-07
6.0026753e-07
5.99203e-07
5.9817004e-07
5.9716566e-07
5.9618946e-07
5.952311e-07
5.9430496e-07
5.9334606e-07
5.925098e-07
5.9110881e-07
1.9999669e-06
2.0000268e-06
2.0001904e-06
2.000429e-06
2.0007223e-06
2.0010619e-06
2.0014425e-06
2.0018603e-06
2.0023121e-06
2.0027962e-06
2.0033123e-06
2.0038609e-06
2.0044439e-06
2.0050645e-06
2.0057284e-06
2.0064429e-06
2.007223e-06
2.0080794e-06
2.0090646e-06
2.0101577e-06
2.0116224e-06
2.0131235e-06
2.0163977e-06
2.0212276e-06
8.1381081e-07
8.544204e-07
8.8710871e-07
8.9490221e-07
8.9558122e-07
8.9410662e-07
8.9151108e-07
8.8826392e-07
8.846525e-07
8.8085319e-07
8.7697607e-07
8.7309149e-07
8.6924413e-07
8.6546219e-07
8.6176323e-07
8.5815741e-07
8.5464949e-07
8.5124067e-07
8.479299e-07
8.4471479e-07
8.4159224e-07
8.3855859e-07
8.3561e-07
8.3274262e-07
8.299523e-07
8.2723507e-07
8.2458719e-07
8.2200484e-07
8.1948432e-07
8.1702233e-07
8.1461562e-07
8.122609e-07
8.0995524e-07
8.0769604e-07
8.0548057e-07
8.0330615e-07
8.0117045e-07
7.9907138e-07
7.9700676e-07
7.9497432e-07
7.9297217e-07
7.9099867e-07
7.8905204e-07
7.8713043e-07
7.852322e-07
7.8335596e-07
7.8150032e-07
7.796638e-07
7.7784487e-07
7.760423e-07
7.7425502e-07
7.7248178e-07
7.7072128e-07
7.689723e-07
7.6723385e-07
7.6550496e-07
7.6378451e-07
7.6207128e-07
7.6036428e-07
7.5866261e-07
7.5696534e-07
7.5527136e-07
7.5357951e-07
7.5188888e-07
7.5019864e-07
7.4850775e-07
7.4681505e-07
7.4511944e-07
7.4341997e-07
7.4171573e-07
7.400055e-07
7.3828797e-07
7.3656205e-07
7.3482671e-07
7.3308065e-07
7.3132239e-07
7.2955049e-07
7.2776371e-07
7.2596058e-07
7.2413935e-07
7.2229825e-07
7.2043571e-07
7.1854986e-07
7.1663845e-07
7.1469931e-07
7.1273029e-07
7.1072882e-07
7.0869183e-07
7.0661703e-07
7.0454678e-07
7.0254704e-07
7.0063745e-07
6.9881138e-07
6.9706252e-07
6.9538504e-07
6.9377397e-07
6.9222483e-07
6.9073327e-07
6.8929525e-07
6.8790739e-07
6.8656661e-07
6.8526993e-07
6.8401445e-07
6.8279728e-07
6.8161617e-07
6.8046774e-07
6.7935152e-07
6.7825582e-07
6.7719685e-07
6.7610123e-07
6.7514549e-07
6.7354253e-07
1.9999652e-06
2.0000255e-06
2.0001918e-06
2.0004355e-06
2.0007358e-06
2.0010837e-06
2.0014738e-06
2.0019018e-06
2.0023645e-06
2.0028602e-06
2.0033882e-06
2.0039489e-06
2.0045442e-06
2.0051772e-06
2.0058535e-06
2.0065804e-06
2.0073727e-06
2.0082409e-06
2.0092373e-06
2.0103411e-06
2.0118116e-06
2.0133242e-06
2.016529e-06
2.0214796e-06
8.6509092e-07
9.2489677e-07
9.7668235e-07
9.9352871e-07
9.9890597e-07
1.0004674e-06
1.0000373e-06
9.9837708e-07
9.9593238e-07
9.929857e-07
9.8972419e-07
9.8627454e-07
9.8272249e-07
9.7912677e-07
9.7552816e-07
9.7195469e-07
9.6842495e-07
9.6495086e-07
9.6153985e-07
9.5819632e-07
9.5492263e-07
9.5171957e-07
9.4858685e-07
9.4552355e-07
9.4252789e-07
9.395978e-07
9.3673116e-07
9.3392544e-07
9.3117799e-07
9.2848636e-07
9.2584807e-07
9.2326039e-07
9.2072085e-07
9.1822723e-07
9.1577719e-07
9.1336825e-07
9.1099825e-07
9.0866532e-07
9.0636738e-07
9.0410224e-07
9.0186807e-07
8.9966327e-07
8.974861e-07
8.9533472e-07
8.9320747e-07
8.9110291e-07
8.8901969e-07