/*--------------------------------*- C++ -*----------------------------------*\
  =========                 |
  \\      /  F ield         | OpenFOAM: The Open Source CFD Toolbox
   \\    /   O peration     | Website:  https://openfoam.org
    \\  /    A nd           | Version:  12
     \\/     M anipulation  |
\*---------------------------------------------------------------------------*/
FoamFile
{
    format      ascii;
    class       volScalarField;
    location    "400";
    object      nuTilda;
}
// * * * * * * * * * * * * * * * * * * * * * * * * * * * * * * * * * * * * * //

dimensions      [0 2 -1 0 0 0 0];

internalField   nonuniform List<scalar> 
7480
(
1.7175815e-06
1.4386315e-06
1.3083971e-06
1.2777336e-06
1.2999376e-06
1.3625149e-06
1.4683971e-06
1.6265719e-06
1.853107e-06
2.1728148e-06
2.618325e-06
3.2258689e-06
4.016568e-06
4.9541863e-06
5.9136138e-06
6.7307795e-06
7.30206e-06
7.6184966e-06
7.7517721e-06
7.7204888e-06
7.6329255e-06
7.5054528e-06
7.36004e-06
7.2200798e-06
7.1137005e-06
7.0467432e-06
7.0110027e-06
6.995683e-06
6.9932108e-06
6.9993596e-06
7.0104005e-06
7.0227936e-06
7.0346587e-06
7.0133622e-06
6.9772401e-06
6.941422e-06
6.9102717e-06
6.8846004e-06
6.8633595e-06
6.844755e-06
6.8272506e-06
6.8100524e-06
6.7929763e-06
6.7765181e-06
6.7635622e-06
6.7619685e-06
6.8011363e-06
6.9512982e-06
7.3245051e-06
7.9593185e-06
8.5881789e-06
9.0183728e-06
9.3330208e-06
9.5476219e-06
9.6840911e-06
9.7685338e-06
9.823006e-06
9.8620676e-06
9.8922137e-06
9.9171874e-06
9.9386608e-06
9.9574858e-06
9.9743315e-06
9.9898259e-06
1.0004359e-05
1.0018266e-05
1.0031923e-05
1.0045552e-05
1.0059256e-05
1.0073135e-05
1.0087319e-05
1.010194e-05
1.011713e-05
1.0133008e-05
1.0149691e-05
1.016729e-05
1.0185915e-05
1.0205671e-05
1.0226656e-05
1.0248955e-05
1.0272642e-05
1.0297758e-05
1.0324218e-05
1.035099e-05
1.0365722e-05
1.0106377e-05
4.3238049e-06
4.0198225e-06
4.0424652e-06
4.0586106e-06
4.0684285e-06
4.0760395e-06
4.0812339e-06
4.0844827e-06
4.0862879e-06
4.0870272e-06
4.0869218e-06
4.0862017e-06
4.084917e-06
4.0807914e-06
1.9511329e-06
1.9003369e-06
1.844914e-06
1.7898659e-06
1.7368104e-06
1.6870189e-06
1.6400188e-06
1.6031493e-06
1.5669836e-06
1.5786007e-06
1.6157266e-06
1.6854409e-06
1.7984371e-06
1.9718619e-06
2.2252142e-06
2.5724552e-06
3.0349156e-06
3.595556e-06
4.2413499e-06
4.9675312e-06
5.765431e-06
6.5359125e-06
7.2486168e-06
7.9055193e-06
8.5028762e-06
9.0403784e-06
9.5215212e-06
9.9526506e-06
1.034541e-05
1.0711589e-05
1.1054392e-05
1.1373732e-05
1.1665946e-05
1.1925322e-05
1.2154867e-05
1.2363829e-05
1.2562089e-05
1.2763804e-05
1.2973999e-05
1.3191559e-05
1.3413346e-05
1.3636845e-05
1.3860035e-05
1.4080559e-05
1.4299497e-05
1.4499976e-05
1.46924e-05
1.4905547e-05
1.5184681e-05
1.5557519e-05
1.5965049e-05
1.6335334e-05
1.6654085e-05
1.6920561e-05
1.714466e-05
1.73372e-05
1.7507153e-05
1.766247e-05
1.7808874e-05
1.7950367e-05
1.8087212e-05
1.8219059e-05
1.8346164e-05
1.8469357e-05
1.8588868e-05
1.8705255e-05
1.8819533e-05
1.8932126e-05
1.9043063e-05
1.9152432e-05
1.9260446e-05
1.9367372e-05
1.9473472e-05
1.9578991e-05
1.9684163e-05
1.9789211e-05
1.9894349e-05
1.9999782e-05
2.0105702e-05
2.0212273e-05
2.0319644e-05
2.0427901e-05
2.0536882e-05
2.0644699e-05
2.0729135e-05
2.0547805e-05
1.7381647e-05
1.5978271e-05
1.4923277e-05
1.4266658e-05
1.3831587e-05
1.3537101e-05
1.3329539e-05
1.3179391e-05
1.3068262e-05
1.298439e-05
1.2919713e-05
1.2869122e-05
1.2828519e-05
1.2795049e-05
1.9758264e-06
1.9580208e-06
1.9382691e-06
1.9175683e-06
1.8962025e-06
1.8737579e-06
1.8500396e-06
1.8249965e-06
1.7985986e-06
1.7726258e-06
1.7479558e-06
1.7256213e-06
1.7069952e-06
1.6934605e-06
1.6807075e-06
1.6823356e-06
1.6947044e-06
1.7390576e-06
1.8237561e-06
1.9587291e-06
2.1589789e-06
2.4435281e-06
2.8250323e-06
3.3319132e-06
3.9452976e-06
4.6593421e-06
5.4841555e-06
6.3677867e-06
7.2691699e-06
8.1577686e-06
9.0089046e-06
9.802779e-06
1.0513547e-05
1.1156479e-05
1.1760938e-05
1.2345609e-05
1.2913105e-05
1.346243e-05
1.3988459e-05
1.4494405e-05
1.4984212e-05
1.5461591e-05
1.5927105e-05
1.6379096e-05
1.6817984e-05
1.7241035e-05
1.7646766e-05
1.8038554e-05
1.8435651e-05
1.8849545e-05
1.9274023e-05
1.9697009e-05
2.0101613e-05
2.048392e-05
2.0846317e-05
2.1189939e-05
2.1515431e-05
2.1827341e-05
2.2131277e-05
2.2430693e-05
2.2722573e-05
2.3005776e-05
2.3280528e-05
2.354786e-05
2.3807306e-05
2.4059901e-05
2.4307225e-05
2.4549448e-05
2.4786317e-05
2.5017842e-05
2.5244233e-05
2.5465754e-05
2.5682663e-05
2.5895194e-05
2.6103574e-05
2.6308018e-05
2.6508739e-05
2.6705944e-05
2.6899835e-05
2.7090603e-05
2.7278431e-05
2.7463468e-05
2.7645685e-05
2.7823969e-05
2.7984627e-05
2.8003883e-05
2.6872435e-05
2.6277399e-05
2.5824538e-05
2.5548406e-05
2.5381031e-05
2.5286212e-05
2.5235046e-05
2.5210328e-05
2.5201385e-05
2.5202203e-05
2.5207075e-05
2.5218057e-05
2.5218301e-05
2.5252317e-05
1.9831209e-06
1.9741754e-06
1.9644164e-06
1.9542072e-06
1.9436287e-06
1.9326834e-06
1.9213712e-06
1.9095847e-06
1.8972925e-06
1.8843419e-06
1.8706706e-06
1.8562071e-06
1.8409479e-06
1.8251269e-06
1.8093589e-06
1.794002e-06
1.7792269e-06
1.7656644e-06
1.754686e-06
1.7469068e-06
1.7426546e-06
1.7460174e-06
1.7581086e-06
1.789559e-06
1.8574578e-06
1.97282e-06
2.1529991e-06
2.4190842e-06
2.7931598e-06
3.3114167e-06
3.9812865e-06
4.7872101e-06
5.7257126e-06
6.7399147e-06
7.7789065e-06
8.8057955e-06
9.7965695e-06
1.073941e-05
1.1633794e-05
1.2485668e-05
1.3303533e-05
1.409623e-05
1.4859412e-05
1.5592865e-05
1.6313561e-05
1.702345e-05
1.7711136e-05
1.83742e-05
1.9018543e-05
1.9648907e-05
2.0267404e-05
2.0873292e-05
2.146569e-05
2.20428e-05
2.2602399e-05
2.3142998e-05
2.3664183e-05
2.4175324e-05
2.4680461e-05
2.518047e-05
2.5665666e-05
2.613762e-05
2.6597451e-05
2.7046469e-05
2.7482686e-05
2.790916e-05
2.8327615e-05
2.8737228e-05
2.9137605e-05
2.9528879e-05
2.9911308e-05
3.0285143e-05
3.0650607e-05
3.1007897e-05
3.1357192e-05
3.1698657e-05
3.2032446e-05
3.2358706e-05
3.2677576e-05
3.2989187e-05
3.3293667e-05
3.3591135e-05
3.3881606e-05
3.416478e-05
3.4435144e-05
3.4651624e-05
3.4507767e-05
3.447559e-05
3.446454e-05
3.4504914e-05
3.4585171e-05
3.4695913e-05
3.4825185e-05
3.49641e-05
3.5106424e-05
3.5249319e-05
3.5387248e-05
3.5529948e-05
3.5635977e-05
3.5848956e-05
1.9866972e-06
1.9813768e-06
1.9756343e-06
1.9696402e-06
1.9634293e-06
1.9570043e-06
1.9503614e-06
1.943493e-06
1.9363921e-06
1.9290414e-06
1.9214184e-06
1.913494e-06
1.9052361e-06
1.896606e-06
1.8876169e-06
1.8782442e-06
1.8685018e-06
1.8582928e-06
1.8475834e-06
1.8365969e-06
1.8256921e-06
1.8150709e-06
1.804923e-06
1.795743e-06
1.7890364e-06
1.7827527e-06
1.7836456e-06
1.789106e-06
1.8059046e-06
1.8384024e-06
1.9108925e-06
2.0403333e-06
2.2505866e-06
2.5710825e-06
3.0321243e-06
3.6866142e-06
4.5091774e-06
5.4880973e-06
6.5948102e-06
7.7674507e-06
8.9568152e-06
1.0126906e-05
1.1256875e-05
1.2340276e-05
1.3382642e-05
1.4395039e-05
1.5383402e-05
1.6346574e-05
1.7283001e-05
1.8193238e-05
1.9080009e-05
1.9940824e-05
2.0787215e-05
2.1613099e-05
2.241864e-05
2.3203949e-05
2.3968602e-05
2.4715861e-05
2.5448861e-05
2.6170139e-05
2.6876811e-05
2.7568179e-05
2.8244314e-05
2.8906364e-05
2.9548777e-05
3.0182002e-05
3.0804736e-05
3.1413987e-05
3.2010284e-05
3.2594153e-05
3.3165945e-05
3.3725935e-05
3.4274361e-05
3.4811435e-05
3.5337348e-05
3.585227e-05
3.6356358e-05
3.6849753e-05
3.7332589e-05
3.7804985e-05
3.8267061e-05
3.871893e-05
3.9160639e-05
3.9592261e-05
4.0011961e-05
4.040951e-05
4.0703132e-05
4.1007129e-05
4.1295189e-05
4.1582563e-05
4.1874692e-05
4.2173858e-05
4.2477297e-05
4.2781157e-05
4.3081706e-05
4.337788e-05
4.3663343e-05
4.3955015e-05
4.4183415e-05
4.4610357e-05
1.9889185e-06
1.9854408e-06
1.9817104e-06
1.9778212e-06
1.9737917e-06
1.9696223e-06
1.965309e-06
1.960847e-06
1.9562318e-06
1.9514585e-06
1.9465227e-06
1.9414195e-06
1.9361447e-06
1.9306926e-06
1.9250563e-06
1.919226e-06
1.9131918e-06
1.9069393e-06
1.9004444e-06
1.8936836e-06
1.8866516e-06
1.8793206e-06
1.8717328e-06
1.8636315e-06
1.8552472e-06
1.8467448e-06
1.8384023e-06
1.83039e-06
1.8228746e-06
1.8169915e-06
1.8107593e-06
1.8109342e-06
1.8145238e-06
1.8268362e-06
1.8544754e-06
1.910972e-06
2.024923e-06
2.2226018e-06
2.5405658e-06
3.0169002e-06
3.7237352e-06
4.6353048e-06
5.7365068e-06
6.9873663e-06
8.3160901e-06
9.6645486e-06
1.0992806e-05
1.2282206e-05
1.3531057e-05
1.4745383e-05
1.5931014e-05
1.7088993e-05
1.8219597e-05
1.9324154e-05
2.0403929e-05
2.1460176e-05
2.2492843e-05
2.350244e-05
2.4490987e-05
2.5461231e-05
2.6413616e-05
2.7347874e-05
2.8263843e-05
2.9162346e-05
3.0040851e-05
3.0903285e-05
3.1750728e-05
3.2582488e-05
3.3398473e-05
3.4198981e-05
3.4984358e-05
3.575492e-05
3.6510947e-05
3.7252692e-05
3.7980387e-05
3.8694238e-05
3.9394434e-05
4.0081144e-05
4.0754525e-05
4.1414719e-05
4.2061863e-05
4.2696087e-05
4.331747e-05
4.3926216e-05
4.4521893e-05
4.5103532e-05
4.5654999e-05
4.6197169e-05
4.6716443e-05
4.7216889e-05
4.7705573e-05
4.8188363e-05
4.8666903e-05
4.9140344e-05
4.9606482e-05
5.0065378e-05
5.0509488e-05
5.096275e-05
5.1325351e-05
5.1991365e-05
1.9904965e-06
1.9880708e-06
1.9854829e-06
1.9827884e-06
1.9799982e-06
1.9771118e-06
1.9741264e-06
1.9710385e-06
1.9678446e-06
1.9645409e-06
1.9611239e-06
1.9575904e-06
1.9539376e-06
1.9501632e-06
1.9462649e-06
1.9422404e-06
1.9380862e-06
1.9337984e-06
1.9293714e-06
1.924798e-06
1.9200704e-06
1.915177e-06
1.9101097e-06
1.90485e-06
1.8993758e-06
1.8936834e-06
1.8877525e-06
1.8815836e-06
1.8751524e-06
1.8684566e-06
1.8614822e-06
1.8545984e-06
1.8479702e-06
1.8417269e-06
1.836902e-06
1.8320117e-06
1.8324825e-06
1.8365477e-06
1.8498409e-06
1.880167e-06
1.9411206e-06
2.0697763e-06
2.3014381e-06
2.6828427e-06
3.2749874e-06
4.1393651e-06
5.2445869e-06
6.5654987e-06
8.0199524e-06
9.5305326e-06
1.1037867e-05
1.2510036e-05
1.3940955e-05
1.5337581e-05
1.6706645e-05
1.8049838e-05
1.9366011e-05
2.0654846e-05
2.1917905e-05
2.315743e-05
2.4374613e-05
2.5569964e-05
2.6743832e-05
2.7896962e-05
2.9028553e-05
3.0139515e-05
3.1231226e-05
3.2304177e-05
3.3358486e-05
3.4394388e-05
3.5412211e-05
3.6412292e-05
3.7394954e-05
3.83605e-05
3.9309206e-05
4.0241326e-05
4.1157091e-05
4.2056709e-05
4.2940375e-05
4.3808264e-05
4.4660544e-05
4.5497369e-05
4.6318851e-05
4.7125222e-05
4.7916542e-05
4.8693777e-05
4.945767e-05
5.0209249e-05
5.0938879e-05
5.1644626e-05
5.2330872e-05
5.3003423e-05
5.3665735e-05
5.4318811e-05
5.4961553e-05
5.5594951e-05
5.6210159e-05
5.6838236e-05
5.734713e-05
5.8275466e-05
1.9917112e-06
1.9899391e-06
1.9880571e-06
1.9861e-06
1.9840742e-06
1.9819795e-06
1.9798136e-06
1.9775743e-06
1.9752589e-06
1.9728646e-06
1.970389e-06
1.9678296e-06
1.965184e-06
1.9624501e-06
1.9596261e-06
1.9567098e-06
1.953699e-06
1.950591e-06
1.9473822e-06
1.944069e-06
1.9406476e-06
1.9371136e-06
1.9334622e-06
1.9296895e-06
1.9257898e-06
1.9217571e-06
1.9175838e-06
1.913261e-06
1.9087801e-06
1.9041246e-06
1.8992884e-06
1.8942492e-06
1.8890051e-06
1.8835417e-06
1.8778424e-06
1.8719132e-06
1.8660867e-06
1.8604965e-06
1.8554586e-06
1.851724e-06
1.8489686e-06
1.8505662e-06
1.8574982e-06
1.8774396e-06
1.9201293e-06
2.0142141e-06
2.2028646e-06
2.5416973e-06
3.0948091e-06
3.9683065e-06
5.1316784e-06
6.5535668e-06
8.1486095e-06
9.8194066e-06
1.149305e-05
1.3133488e-05
1.4735708e-05
1.6307109e-05
1.7852713e-05
1.9372653e-05
2.0866285e-05
2.2334593e-05
2.3778891e-05
2.519983e-05
2.6597086e-05
2.7970848e-05
2.9322016e-05
3.0651281e-05
3.1959025e-05
3.3245594e-05
3.4511323e-05
3.5756539e-05
3.6981582e-05
3.8186787e-05
3.9372459e-05
4.0538885e-05
4.1686333e-05
4.2815047e-05
4.3925257e-05
4.5017173e-05
4.6090991e-05
4.714689e-05
4.8185013e-05
4.9205582e-05
5.0208823e-05
5.1195582e-05
5.2169575e-05
5.3129979e-05
5.4070152e-05
5.4985792e-05
5.5878235e-05
5.6751792e-05
5.7610273e-05
5.8455769e-05
5.9288064e-05
6.0109036e-05
6.0908585e-05
6.17251e-05
6.239268e-05
6.3605523e-05
1.9927062e-06
1.9913661e-06
1.989948e-06
1.9884749e-06
1.9869507e-06
1.9853752e-06
1.9837468e-06
1.9820636e-06
1.9803238e-06
1.9785255e-06
1.9766667e-06
1.9747456e-06
1.9727603e-06
1.9707094e-06
1.9685911e-06
1.9664037e-06
1.9641455e-06
1.9618142e-06
1.9594073e-06
1.9569218e-06
1.954355e-06
1.9517038e-06
1.9489648e-06
1.946135e-06
1.9432112e-06
1.9401901e-06
1.9370682e-06
1.9338419e-06
1.9305075e-06
1.9270604e-06
1.9234963e-06
1.9198086e-06
1.9159892e-06
1.9120305e-06
1.9079172e-06
1.9036434e-06
1.8991865e-06
1.894566e-06
1.8896672e-06
1.884594e-06
1.8794589e-06
1.8744911e-06
1.8697893e-06
1.866115e-06
1.8628396e-06
1.8637014e-06
1.86867e-06
1.8844968e-06
1.9221411e-06
2.0044708e-06
2.1868933e-06
2.5341099e-06
3.1253946e-06
4.087414e-06
5.3863785e-06
6.9791327e-06
8.7535865e-06
1.0598048e-05
1.2435836e-05
1.4237514e-05
1.6005236e-05
1.7747709e-05
1.9467235e-05
2.1162118e-05
2.2831617e-05
2.4476324e-05
2.6096695e-05
2.7692888e-05
2.9265277e-05
3.0814301e-05
3.2340219e-05
3.3843268e-05
3.5323755e-05
3.6781978e-05
3.8218213e-05
3.9632744e-05
4.1025839e-05
4.2397751e-05
4.3748719e-05
4.5078974e-05
4.6388725e-05
4.7678161e-05
4.8947448e-05
5.0196785e-05
5.1426437e-05
5.2636763e-05
5.3831023e-05
5.500968e-05
5.6168796e-05
5.73038e-05
5.8413806e-05
5.9501267e-05
6.0569511e-05
6.1621124e-05
6.265656e-05
6.3678555e-05
6.4675846e-05
6.5694362e-05
6.6533006e-05
6.805158e-05
1.9935646e-06
1.9925233e-06
1.991425e-06
1.9902849e-06
1.9891057e-06
1.9878872e-06
1.9866281e-06
1.9853271e-06
1.9839826e-06
1.9825934e-06
1.9811579e-06
1.9796746e-06
1.9781423e-06
1.9765597e-06
1.9749253e-06
1.973238e-06
1.9714961e-06
1.9696981e-06
1.9678419e-06
1.9659255e-06
1.9639466e-06
1.9619028e-06
1.9597917e-06
1.9576109e-06
1.9553579e-06
1.95303e-06
1.9506246e-06
1.9481392e-06
1.945571e-06
1.9429171e-06
1.9401746e-06
1.9373404e-06
1.934411e-06
1.9313828e-06
1.9282516e-06
1.9250134e-06
1.9216618e-06
1.9181912e-06
1.9145899e-06
1.9108443e-06
1.9069491e-06
1.9028941e-06
1.8986753e-06
1.8942594e-06
1.8896812e-06
1.8852269e-06
1.8809876e-06
1.8776086e-06
1.874667e-06
1.875503e-06
1.880539e-06
1.8967795e-06
1.9371971e-06
2.0300177e-06
2.2429052e-06
2.6564679e-06
3.3853365e-06
4.542448e-06
6.0804245e-06
7.9154247e-06
9.9034726e-06
1.1927152e-05
1.3925501e-05
1.5888525e-05
1.7825393e-05
1.9740563e-05
2.1632155e-05
2.3498805e-05
2.5341109e-05
2.7159394e-05
2.8953404e-05
3.0723142e-05
3.2468793e-05
3.419045e-05
3.5888239e-05
3.7562353e-05
3.9212976e-05
4.0840294e-05
4.244451e-05
4.4025822e-05
4.5584409e-05
4.7120439e-05
4.8634072e-05
5.0125463e-05
5.1594864e-05
5.3042182e-05
5.4469731e-05
5.5879078e-05
5.7268409e-05
5.863392e-05
5.9973494e-05
6.1287897e-05
6.2579542e-05
6.3851026e-05
6.5103225e-05
6.6339662e-05
6.754798e-05
6.8781835e-05
6.9803774e-05
7.1648527e-05
1.9943328e-06
1.993506e-06
1.9926362e-06
1.991734e-06
1.9908012e-06
1.9898375e-06
1.9888419e-06
1.9878134e-06
1.9867508e-06
1.9856531e-06
1.9845192e-06
1.9833478e-06
1.982138e-06
1.9808887e-06
1.9795988e-06
1.9782672e-06
1.9768928e-06
1.9754742e-06
1.97401e-06
1.9724984e-06
1.9709378e-06
1.9693263e-06
1.9676621e-06
1.9659433e-06
1.9641678e-06
1.9623338e-06
1.9604391e-06
1.9584817e-06
1.9564593e-06
1.9543698e-06
1.9522108e-06
1.9499798e-06
1.9476743e-06
1.9452916e-06
1.9428289e-06
1.9402836e-06
1.9376528e-06
1.9349332e-06
1.9321221e-06
1.9292153e-06
1.9262085e-06
1.9230953e-06
1.9198695e-06
1.9165186e-06
1.913035e-06
1.9094049e-06
1.9056284e-06
1.9016625e-06
1.8975445e-06
1.8935424e-06
1.8897788e-06
1.8868011e-06
1.8847762e-06
1.8862298e-06
1.8931428e-06
1.9147572e-06
1.9680754e-06
2.1007393e-06
2.4001076e-06
2.9677958e-06
4.0020062e-06
5.4884046e-06
7.3656762e-06
9.4805027e-06
1.167873e-05
1.3867119e-05
1.6021479e-05
1.8150014e-05
2.0258721e-05
2.2345602e-05
2.4408634e-05
2.6447937e-05
2.8463408e-05
3.0454496e-05
3.2421011e-05
3.4362907e-05
3.628009e-05
3.8172554e-05
4.0040355e-05
4.1883552e-05
4.3702214e-05
4.5496412e-05
4.7266244e-05
4.9011786e-05
5.0733209e-05
5.2430046e-05
5.4103869e-05
5.5756772e-05
5.7388354e-05
5.8995923e-05
6.0576943e-05
6.213091e-05
6.3659173e-05
6.5163973e-05
6.6646342e-05
6.8110458e-05
6.9542901e-05
7.1005187e-05
7.222249e-05
7.4413285e-05
1.9950294e-06
1.9943613e-06
1.99366e-06
1.992933e-06
1.9921816e-06
1.9914054e-06
1.9906037e-06
1.9897756e-06
1.9889204e-06
1.988037e-06
1.9871246e-06
1.9861824e-06
1.9852094e-06
1.9842048e-06
1.9831677e-06
1.9820973e-06
1.9809926e-06
1.9798524e-06
1.9786757e-06
1.9774612e-06
1.9762074e-06
1.9749129e-06
1.9735764e-06
1.9721962e-06
1.9707708e-06
1.9692987e-06
1.9677782e-06
1.9662077e-06
1.9645855e-06
1.9629096e-06
1.9611784e-06
1.9593898e-06
1.9575418e-06
1.9556323e-06
1.953659e-06
1.9516198e-06
1.9495124e-06
1.9473344e-06
1.9450834e-06
1.9427571e-06
1.9403529e-06
1.9378679e-06
1.935299e-06
1.9326428e-06
1.9298958e-06
1.9270518e-06
1.9241055e-06
1.9210445e-06
1.917861e-06
1.9145415e-06
1.9110889e-06
1.907453e-06
1.9037409e-06
1.900109e-06
1.897053e-06
1.8938461e-06
1.8940762e-06
1.8972731e-06
1.9094826e-06
1.9450488e-06
2.0328896e-06
2.2630806e-06
2.7476552e-06
3.6718297e-06
5.1433861e-06
7.0888404e-06
9.347271e-06
1.1727434e-05
1.4107932e-05
1.6454705e-05
1.877638e-05
2.1079693e-05
2.3362245e-05
2.5621845e-05
2.7858342e-05
3.0071169e-05
3.2259555e-05
3.4423144e-05
3.6561645e-05
3.8674782e-05
4.0762363e-05
4.2824235e-05
4.4860331e-05
4.6870568e-05
4.8854946e-05
5.0812624e-05
5.2744703e-05
5.4653419e-05
5.6539111e-05
5.8400134e-05
6.0234065e-05
6.2039594e-05
6.3817072e-05
6.5568146e-05
6.7293744e-05
6.8998516e-05
7.0667965e-05
7.2371545e-05
7.3796161e-05
7.63524e-05
1.995656e-06
1.9951083e-06
1.9945344e-06
1.9939398e-06
1.9933254e-06
1.9926909e-06
1.9920356e-06
1.9913589e-06
1.9906601e-06
1.9899384e-06
1.9891932e-06
1.9884238e-06
1.9876293e-06
1.9868092e-06
1.9859626e-06
1.985089e-06
1.9841874e-06
1.983257e-06
1.9822968e-06
1.9813059e-06
1.9802831e-06
1.9792272e-06
1.9781372e-06
1.9770118e-06
1.9758498e-06
1.9746498e-06
1.9734107e-06
1.972131e-06
1.9708093e-06
1.9694443e-06
1.9680344e-06
1.9665781e-06
1.9650737e-06
1.9635195e-06
1.9619138e-06
1.9602548e-06
1.9585406e-06
1.9567693e-06
1.954939e-06
1.9530477e-06
1.9510933e-06
1.9490735e-06
1.9469861e-06
1.9448286e-06
1.9425987e-06
1.9402936e-06
1.9379103e-06
1.9354457e-06
1.9328962e-06
1.9302561e-06
1.9275207e-06
1.924678e-06
1.9217209e-06
1.9186396e-06
1.9154169e-06
1.9119818e-06
1.9086282e-06
1.9054622e-06
1.9028902e-06
1.9013848e-06
1.9030395e-06
1.911098e-06
1.9373289e-06
2.0068964e-06
2.2003264e-06
2.6453334e-06
3.5381114e-06
5.0559451e-06
7.1210085e-06
9.5516673e-06
1.2123451e-05
1.4696761e-05
1.7236488e-05
1.9753421e-05
2.2253311e-05
2.4732977e-05
2.7190519e-05
2.9625509e-05
3.2036902e-05
3.4423752e-05
3.6785416e-05
3.9121306e-05
4.1431021e-05
4.371418e-05
4.5970464e-05
4.8198567e-05
5.039929e-05
5.2574812e-05
5.4725669e-05
5.6850961e-05
5.8948621e-05
6.1016946e-05
6.3055464e-05
6.5065119e-05
6.7046515e-05
6.9004565e-05
7.0923636e-05
7.2881142e-05
7.4524861e-05
7.7465543e-05
1.9962108e-06
1.9957562e-06
1.9952808e-06
1.9947885e-06
1.9942798e-06
1.9937546e-06
1.9932123e-06
1.9926523e-06
1.9920742e-06
1.9914772e-06
1.9908609e-06
1.9902245e-06
1.9895676e-06
1.9888896e-06
1.9881898e-06
1.9874676e-06
1.9867224e-06
1.9859535e-06
1.98516e-06
1.9843412e-06
1.9834961e-06
1.9826238e-06
1.9817234e-06
1.980794e-06
1.9798344e-06
1.9788436e-06
1.9778206e-06
1.9767643e-06
1.9756736e-06
1.9745472e-06
1.9733841e-06
1.9721828e-06
1.970942e-06
1.9696605e-06
1.9683367e-06
1.9669692e-06
1.9655565e-06
1.9640971e-06
1.9625893e-06
1.9610315e-06
1.959422e-06
1.957759e-06
1.9560406e-06
1.9542648e-06
1.9524296e-06
1.9505328e-06
1.9485722e-06
1.9465454e-06
1.9444501e-06
1.9422837e-06
1.9400436e-06
1.9377273e-06
1.9353312e-06
1.9328509e-06
1.9302775e-06
1.9276032e-06
1.9248114e-06
1.9219088e-06
1.9188375e-06
1.9157109e-06
1.9126914e-06
1.9101649e-06
1.9081963e-06
1.9092894e-06
1.9156199e-06
1.9377378e-06
2.0003478e-06
2.1843565e-06
2.6352454e-06
3.5814139e-06
5.2295053e-06
7.4870692e-06
1.0130693e-05
1.2906847e-05
1.5674557e-05
1.8409498e-05
2.1125253e-05
2.3824723e-05
2.6504202e-05
2.9162172e-05
3.1797568e-05
3.4409008e-05
3.6995565e-05
3.955634e-05
4.2090454e-05
4.4595953e-05
4.707337e-05
4.9524717e-05
5.1950299e-05
5.4349559e-05
5.6720772e-05
5.906211e-05
6.1372498e-05
6.3652168e-05
6.5901237e-05
6.8124664e-05
7.0305578e-05
7.2529309e-05
7.4403672e-05
7.7748498e-05
1.9966958e-06
1.9963146e-06
1.9959166e-06
1.9955045e-06
1.995079e-06
1.9946396e-06
1.9941859e-06
1.9937176e-06
1.9932341e-06
1.992735e-06
1.9922197e-06
1.9916878e-06
1.9911388e-06
1.9905722e-06
1.9899874e-06
1.989384e-06
1.9887614e-06
1.988119e-06
1.9874561e-06
1.9867721e-06
1.9860663e-06
1.9853378e-06
1.9845859e-06
1.9838099e-06
1.9830087e-06
1.9821817e-06
1.9813279e-06
1.9804464e-06
1.9795363e-06
1.9785966e-06
1.9776263e-06
1.9766244e-06
1.9755898e-06
1.9745213e-06
1.9734177e-06
1.9722779e-06
1.9711006e-06
1.9698846e-06
1.9686285e-06
1.967331e-06
1.9659907e-06
1.964606e-06
1.9631755e-06
1.9616975e-06
1.9601703e-06
1.9585921e-06
1.9569612e-06
1.9552754e-06
1.9535329e-06
1.9517317e-06
1.9498696e-06
1.9479448e-06
1.9459553e-06
1.9438987e-06
1.9417722e-06
1.9395733e-06
1.9372971e-06
1.9349389e-06
1.932488e-06
1.9299347e-06
1.9272785e-06
1.9244672e-06
1.9215524e-06
1.9187194e-06
1.9163236e-06
1.9143275e-06
1.9152709e-06
1.9212289e-06
1.9429771e-06
2.0075707e-06
2.209413e-06
2.7169259e-06
3.8224851e-06
5.7048872e-06
8.2372338e-06
1.1130256e-05
1.4117618e-05
1.7081305e-05
2.0016067e-05
2.2934718e-05
2.583633e-05
2.8718015e-05
3.1578679e-05
3.4416576e-05
3.7229927e-05
4.0015897e-05
4.2774628e-05
4.5507866e-05
4.8215339e-05
5.0896379e-05
5.3549383e-05
5.6172494e-05
5.8764218e-05
6.132412e-05
6.3851724e-05
6.6351824e-05
6.8806187e-05
7.1307957e-05
7.3424139e-05
7.7192211e-05
1.997116e-06
1.9967934e-06
1.9964571e-06
1.9961091e-06
1.9957497e-06
1.9953787e-06
1.9949958e-06
1.9946005e-06
1.9941924e-06
1.9937712e-06
1.9933364e-06
1.9928877e-06
1.9924245e-06
1.9919466e-06
1.9914533e-06
1.9909444e-06
1.9904194e-06
1.9898776e-06
1.9893187e-06
1.9887419e-06
1.9881468e-06
1.9875327e-06
1.9868989e-06
1.9862448e-06
1.9855697e-06
1.9848728e-06
1.9841534e-06
1.9834108e-06
1.9826442e-06
1.9818527e-06
1.9810356e-06
1.980192e-06
1.9793209e-06
1.9784215e-06
1.9774927e-06
1.9765335e-06
1.9755429e-06
1.97452e-06
1.9734634e-06
1.9723722e-06
1.9712452e-06
1.9700811e-06
1.9688786e-06
1.9676364e-06
1.9663531e-06
1.9650272e-06
1.9636572e-06
1.9622414e-06
1.9607783e-06
1.9592662e-06
1.9577033e-06
1.9560879e-06
1.9544185e-06
1.952693e-06
1.9509094e-06
1.9490655e-06
1.9471592e-06
1.945188e-06
1.9431494e-06
1.9410398e-06
1.9388554e-06
1.9365866e-06
1.934224e-06
1.9317643e-06
1.929161e-06
1.926443e-06
1.923804e-06
1.9215616e-06
1.9198094e-06
1.9209147e-06
1.9277206e-06
1.953288e-06
2.0303346e-06
2.2864392e-06
2.9186945e-06
4.3429692e-06
6.5805387e-06
9.4488177e-06
1.260236e-05
1.579365e-05
1.8952735e-05
2.2091778e-05
2.5217147e-05
2.832494e-05
3.1412682e-05
3.4476678e-05
3.7516443e-05
4.0533361e-05
4.3526281e-05
4.6493944e-05
4.9434505e-05
5.2345984e-05
5.5226553e-05
5.8075165e-05
6.0890678e-05
6.3677531e-05
6.6415972e-05
6.9206813e-05
7.157544e-05
7.5783987e-05
1.9974796e-06
1.9972046e-06
1.9969181e-06
1.9966218e-06
1.9963159e-06
1.9960001e-06
1.9956741e-06
1.9953377e-06
1.9949905e-06
1.9946321e-06
1.9942623e-06
1.9938806e-06
1.9934866e-06
1.9930802e-06
1.9926607e-06
1.992228e-06
1.9917815e-06
1.9913209e-06
1.9908457e-06
1.9903554e-06
1.9898495e-06
1.9893275e-06
1.9887889e-06
1.988233e-06
1.9876593e-06
1.9870671e-06
1.986456e-06
1.9858252e-06
1.985174e-06
1.9845019e-06
1.983808e-06
1.9830917e-06
1.9823522e-06
1.9815887e-06
1.9808004e-06
1.9799864e-06
1.9791459e-06
1.9782781e-06
1.9773818e-06
1.9764563e-06
1.9755006e-06
1.9745135e-06
1.9734941e-06
1.9724412e-06
1.9713536e-06
1.9702301e-06
1.9690694e-06
1.9678702e-06
1.9666311e-06
1.9653507e-06
1.9640276e-06
1.9626604e-06
1.9612476e-06
1.9597875e-06
1.9582786e-06
1.956719e-06
1.9551067e-06
1.9534398e-06
1.9517165e-06
1.9499347e-06
1.9480922e-06
1.9461868e-06
1.9442154e-06
1.9421746e-06
1.9400552e-06
1.9378482e-06
1.9355501e-06
1.9331141e-06
1.9305768e-06
1.9281345e-06
1.9260511e-06
1.9248425e-06
1.9264939e-06
1.9358127e-06
1.969574e-06
2.0787206e-06
2.444287e-06
3.3440267e-06
5.1932352e-06
7.9030055e-06
1.1150319e-05
1.4561986e-05
1.7957749e-05
2.1323514e-05
2.4674529e-05
2.800772e-05
3.1321858e-05
3.4618489e-05
3.7895315e-05
4.1150067e-05
4.438023e-05
4.7583464e-05
5.0757566e-05
5.3900873e-05
5.7011509e-05
6.0093376e-05
6.3125027e-05
6.621475e-05
6.8845499e-05
7.3511054e-05
1.9977979e-06
1.9975617e-06
1.9973159e-06
1.9970618e-06
1.9967995e-06
1.9965287e-06
1.9962493e-06
1.9959609e-06
1.9956633e-06
1.9953561e-06
1.9950392e-06
1.9947121e-06
1.9943746e-06
1.9940263e-06
1.993667e-06
1.9932963e-06
1.9929139e-06
1.9925194e-06
1.9921124e-06
1.9916925e-06
1.9912593e-06
1.9908123e-06
1.9903511e-06
1.9898752e-06
1.9893841e-06
1.9888772e-06
1.9883542e-06
1.9878143e-06
1.9872572e-06
1.9866821e-06
1.9860885e-06
1.9854757e-06
1.9848432e-06
1.9841903e-06
1.9835162e-06
1.9828203e-06
1.9821018e-06
1.9813599e-06
1.980594e-06
1.9798031e-06
1.9789865e-06
1.9781432e-06
1.9772725e-06
1.9763732e-06
1.9754444e-06
1.9744852e-06
1.9734943e-06
1.9724708e-06
1.9714134e-06
1.9703209e-06
1.9691922e-06
1.9680261e-06
1.9668213e-06
1.9655764e-06
1.9642901e-06
1.9629608e-06
1.9615868e-06
1.9601667e-06
1.9586986e-06
1.9571809e-06
1.9556119e-06
1.9539896e-06
1.9523122e-06
1.9505777e-06
1.948784e-06
1.9469282e-06
1.9450071e-06
1.9430119e-06
1.9409332e-06
1.9387693e-06
1.9364697e-06
1.9340784e-06
1.9319708e-06
1.9294847e-06
1.9296312e-06
1.9325553e-06
1.9474186e-06
1.9976269e-06
2.1876989e-06
2.7501785e-06
4.1442436e-06
6.5790781e-06
9.8203494e-06
1.3416808e-05
1.7052421e-05
2.0648527e-05
2.4225211e-05
2.7791951e-05
3.1344942e-05
3.4881374e-05
3.8397954e-05
4.1891771e-05
4.5360101e-05
4.8800563e-05
5.2210456e-05
5.5592953e-05
5.8924719e-05
6.2321288e-05
6.5222348e-05
7.0359741e-05
1.9980817e-06
1.9978776e-06
1.9976653e-06
1.997446e-06
1.9972195e-06
1.9969858e-06
1.9967447e-06
1.9964959e-06
1.9962391e-06
1.9959741e-06
1.9957007e-06
1.9954186e-06
1.9951275e-06
1.9948271e-06
1.9945173e-06
1.9941976e-06
1.9938679e-06
1.9935277e-06
1.9931768e-06
1.9928149e-06
1.9924414e-06
1.9920561e-06
1.9916586e-06
1.9912485e-06
1.9908253e-06
1.9903885e-06
1.9899379e-06
1.9894728e-06
1.9889928e-06
1.9884975e-06
1.9879863e-06
1.9874586e-06
1.986914e-06
1.9863519e-06
1.9857716e-06
1.9851726e-06
1.9845542e-06
1.9839158e-06
1.9832568e-06
1.9825763e-06
1.9818739e-06
1.9811486e-06
1.9803997e-06
1.9796264e-06
1.9788279e-06
1.9780033e-06
1.9771517e-06
1.9762721e-06
1.9753635e-06
1.974425e-06
1.9734555e-06
1.972454e-06
1.9714195e-06
1.9703507e-06
1.9692465e-06
1.9681057e-06
1.9669267e-06
1.9657084e-06
1.9644491e-06
1.9631476e-06
1.9618023e-06
1.9604116e-06
1.9589738e-06
1.9574873e-06
1.9559503e-06
1.9543611e-06
1.9527177e-06
1.9510181e-06
1.9492598e-06
1.9474389e-06
1.9455491e-06
1.9435705e-06
1.9415381e-06
1.9392904e-06
1.9370801e-06
1.9351281e-06
1.9333687e-06
1.9341755e-06
1.9403875e-06
1.9666409e-06
2.0589724e-06
2.4138801e-06
3.3810083e-06
5.4976735e-06
8.6460458e-06
1.2377598e-05
1.6248056e-05
2.0090297e-05
2.3908405e-05
2.7715614e-05
3.150932e-05
3.5286749e-05
3.9044732e-05
4.2780046e-05
4.6489085e-05
5.0174115e-05
5.3809706e-05
5.7518394e-05
6.069573e-05
6.6317167e-05
1.9983402e-06
1.9981627e-06
1.9979784e-06
1.9977879e-06
1.9975913e-06
1.9973884e-06
1.9971791e-06
1.9969631e-06
1.9967402e-06
1.9965103e-06
1.996273e-06
1.9960282e-06
1.9957757e-06
1.9955151e-06
1.9952463e-06
1.994969e-06
1.994683e-06
1.994388e-06
1.9940837e-06
1.9937697e-06
1.9934459e-06
1.9931118e-06
1.9927671e-06
1.9924115e-06
1.9920446e-06
1.9916661e-06
1.9912755e-06
1.9908724e-06
1.9904565e-06
1.9900273e-06
1.9895843e-06
1.9891272e-06
1.9886554e-06
1.9881685e-06
1.9876659e-06
1.9871472e-06
1.9866118e-06
1.9860591e-06
1.9854885e-06
1.9848996e-06
1.9842916e-06
1.983664e-06
1.983016e-06
1.982347e-06
1.9816563e-06
1.980943e-06
1.9802065e-06
1.979446e-06
1.9786605e-06
1.9778492e-06
1.9770113e-06
1.9761458e-06
1.9752519e-06
1.9743286e-06
1.9733749e-06
1.9723896e-06
1.9713717e-06
1.9703198e-06
1.9692329e-06
1.9681097e-06
1.966949e-06
1.9657493e-06
1.9645092e-06
1.9632274e-06
1.9619023e-06
1.9605323e-06
1.9591158e-06
1.9576512e-06
1.9561368e-06
1.9545706e-06
1.9529511e-06
1.9512749e-06
1.9495391e-06
1.9477361e-06
1.9458484e-06
1.9438807e-06
1.9417693e-06
1.9397409e-06
1.9379719e-06
1.9373651e-06
1.9396957e-06
1.9535047e-06
2.0052312e-06
2.2194333e-06
2.891016e-06
4.6936705e-06
7.6800711e-06
1.1495324e-05
1.5590681e-05
1.9682331e-05
2.3744024e-05
2.7794228e-05
3.1832047e-05
3.5854284e-05
3.9857001e-05
4.3841556e-05
4.7780313e-05
5.1802598e-05
5.5259025e-05
6.1372846e-05
1.9985809e-06
1.9984258e-06
1.9982649e-06
1.9980986e-06
1.997927e-06
1.9977499e-06
1.9975672e-06
1.9973788e-06
1.9971843e-06
1.9969836e-06
1.9967766e-06
1.9965631e-06
1.9963428e-06
1.9961155e-06
1.9958811e-06
1.9956393e-06
1.9953898e-06
1.9951326e-06
1.9948672e-06
1.9945935e-06
1.9943111e-06
1.9940199e-06
1.9937194e-06
1.9934094e-06
1.9930896e-06
1.9927597e-06
1.9924193e-06
1.9920681e-06
1.9917057e-06
1.9913317e-06
1.9909459e-06
1.9905477e-06
1.9901368e-06
1.9897127e-06
1.9892751e-06
1.9888234e-06
1.9883573e-06
1.9878761e-06
1.9873795e-06
1.9868669e-06
1.9863379e-06
1.9857917e-06
1.9852279e-06
1.984646e-06
1.9840451e-06
1.9834248e-06
1.9827843e-06
1.982123e-06
1.9814401e-06
1.9807349e-06
1.9800066e-06
1.9792545e-06
1.9784778e-06
1.9776757e-06
1.9768472e-06
1.9759915e-06
1.9751075e-06
1.9741943e-06
1.9732508e-06
1.972276e-06
1.9712687e-06
1.9702278e-06
1.9691522e-06
1.9680405e-06
1.9668915e-06
1.9657038e-06
1.964476e-06
1.9632068e-06
1.9618945e-06
1.9605377e-06
1.9591348e-06
1.9576841e-06
1.9561836e-06
1.9546323e-06
1.9530264e-06
1.9513618e-06
1.9496271e-06
1.9478241e-06
1.945883e-06
1.943919e-06
1.9421477e-06
1.9405935e-06
1.9415613e-06
1.9486934e-06
1.9803654e-06
2.1039073e-06
2.6022392e-06
4.0316953e-06
6.8555248e-06
1.0752051e-05
1.5080192e-05
1.9434323e-05
2.3748359e-05
2.8047194e-05
3.2333509e-05
3.6609126e-05
4.0845024e-05
4.517742e-05
4.891153e-05
5.5520621e-05
1.9988102e-06
1.9986741e-06
1.9985329e-06
1.998387e-06
1.9982365e-06
1.9980812e-06
1.997921e-06
1.9977557e-06
1.9975852e-06
1.9974093e-06
1.9972278e-06