/*--------------------------------*- C++ -*----------------------------------*\
  =========                 |
  \\      /  F ield         | OpenFOAM: The Open Source CFD Toolbox
   \\    /   O peration     | Website:  https://openfoam.org
    \\  /    A nd           | Version:  12
     \\/     M anipulation  |
\*---------------------------------------------------------------------------*/
FoamFile
{
    format      ascii;
    class       volScalarField;
    location    "400";
    object      p;
}
// * * * * * * * * * * * * * * * * * * * * * * * * * * * * * * * * * * * * * //

dimensions      [0 2 -2 0 0 0 0];

internalField   nonuniform List<scalar> 
13056
(
0.0040713883
0.0040910961
0.0041342088
0.0041887605
0.0042530756
0.0043270759
0.0044101015
0.0045014355
0.0046007415
0.0047080665
0.0048237574
0.0049484639
0.0050832188
0.0052295831
0.0053898458
0.0055674396
0.005767368
0.0059979863
0.0062709871
0.006613838
0.0070522988
0.0077455512
0.008627821
0.01260393
0.0091420146
0.004031792
0.0039258671
0.0043995607
0.0045199391
0.0044628686
0.0043852606
0.0043168046
0.0042489347
0.0041795069
0.0041111767
0.0040458003
0.0039839353
0.0039251893
0.0038693054
0.0038160961
0.0037654011
0.0037170685
0.0036707426
0.0036264435
0.0035837831
0.0035427707
0.0035033015
0.0034649524
0.0034279375
0.0033921167
0.0033571251
0.003323098
0.0032900226
0.0032576649
0.003225886
0.0031948883
0.0031645514
0.0031345972
0.0031050764
0.0030761368
0.0030476494
0.0030193818
0.002991368
0.0029637829
0.0029365295
0.0029093505
0.0028823108
0.0028554859
0.0028289017
0.0028023762
0.0027758459
0.0027493286
0.0027229714
0.0026966775
0.0026702338
0.0026437045
0.002617126
0.0025905676
0.002563884
0.0025369626
0.002509822
0.0024825669
0.0024551877
0.0024274819
0.002399438
0.0023710404
0.0023424296
0.0023135158
0.0022840719
0.0022541437
0.0022237428
0.0021929398
0.0021615766
0.0021295015
0.0020966958
0.0020633003
0.0020292259
0.0019941913
0.0019581903
0.0019212539
0.00188338
0.0018443298
0.0018039248
0.0017621946
0.0017191327
0.0016744724
0.0016279407
0.0015795942
0.001529316
0.0014767076
0.0014215445
0.0013638256
0.0013033742
0.0012407057
0.0011779165
0.0011161688
0.0010552757
0.00099516547
0.00093599207
0.00087765214
0.00081993984
0.00076289749
0.00070674849
0.00065148414
0.00059693494
0.00054325162
0.0004905608
0.00043918289
0.00038942297
0.00034126866
0.00029643242
0.00025332725
0.0002240039
0.00018615522
0.00030695521
-0.00024051445
0.0040713883
0.0040910961
0.0041342089
0.0041887605
0.0042530756
0.004327076
0.0044101015
0.0045014355
0.0046007415
0.0047080665
0.0048237574
0.004948464
0.0050832189
0.0052295832
0.0053898459
0.0055674396
0.0057673681
0.0059979864
0.0062709873
0.0066138382
0.0070522991
0.0077455518
0.0086278228
0.012586662
0.0091428246
0.0040324576
0.0039259658
0.004399598
0.0045199654
0.004462891
0.0043852802
0.0043168219
0.0042489502
0.0041795209
0.0041111894
0.004045812
0.0039839461
0.0039251992
0.0038693146
0.0038161047
0.0037654091
0.0037170759
0.0036707496
0.0036264501
0.0035837893
0.0035427765
0.003503307
0.0034649576
0.0034279425
0.0033921214
0.0033571295
0.0033231022
0.0032900266
0.0032576687
0.0032258897
0.0031948918
0.0031645548
0.0031346004
0.0031050795
0.0030761397
0.0030476522
0.0030193845
0.0029913706
0.0029637854
0.0029365319
0.0029093528
0.002882313
0.002855488
0.0028289038
0.0028023782
0.0027758478
0.0027493304
0.0027229732
0.0026966792
0.0026702355
0.0026437061
0.0026171276
0.0025905691
0.0025638854
0.002536964
0.0025098233
0.0024825682
0.002455189
0.0024274831
0.0023994391
0.0023710415
0.0023424307
0.0023135168
0.0022840729
0.0022541446
0.0022237438
0.0021929407
0.0021615774
0.0021295023
0.0020966966
0.0020633011
0.0020292267
0.001994192
0.001958191
0.0019212545
0.0018833806
0.0018443304
0.0018039254
0.0017621951
0.0017191332
0.0016744729
0.0016279412
0.0015795947
0.0015293164
0.0014767081
0.0014215449
0.001363826
0.0013033746
0.001240706
0.0011779168
0.0011161691
0.001055276
0.00099516575
0.00093599233
0.0008776524
0.00081994009
0.00076289773
0.00070674872
0.00065148436
0.00059693516
0.00054325182
0.000490561
0.00043918308
0.00038942316
0.00034126884
0.00029643259
0.00025332742
0.00022400408
0.00018615539
0.00030695542
-0.00024051431
0.0040713883
0.0040910961
0.0041342089
0.0041887605
0.0042530756
0.004327076
0.0044101015
0.0045014356
0.0046007415
0.0047080665
0.0048237574
0.004948464
0.0050832189
0.0052295832
0.0053898459
0.0055674397
0.0057673682
0.0059979866
0.0062709875
0.0066138385
0.0070522994
0.0077455524
0.0086278242
0.012570256
0.0091437066
0.0040332265
0.003926083
0.0043996426
0.004519997
0.0044629177
0.0043853037
0.0043168427
0.0042489688
0.0041795377
0.0041112047
0.004045826
0.0039839589
0.0039252111
0.0038693256
0.0038161149
0.0037654186
0.0037170848
0.0036707579
0.0036264579
0.0035837967
0.0035427835
0.0035033136
0.0034649638
0.0034279484
0.003392127
0.0033571349
0.0033231073
0.0032900315
0.0032576733
0.0032258941
0.003194896
0.0031645588
0.0031346043
0.0031050832
0.0030761433
0.0030476556
0.0030193878
0.0029913737
0.0029637884
0.0029365348
0.0029093555
0.0028823157
0.0028554906
0.0028289063
0.0028023806
0.0027758501
0.0027493326
0.0027229753
0.0026966812
0.0026702375
0.002643708
0.0026171294
0.0025905709
0.0025638871
0.0025369656
0.0025098249
0.0024825697
0.0024551904
0.0024274845
0.0023994405
0.0023710428
0.0023424319
0.0023135181
0.002284074
0.0022541458
0.0022237449
0.0021929418
0.0021615784
0.0021295033
0.0020966976
0.002063302
0.0020292275
0.0019941928
0.0019581918
0.0019212553
0.0018833814
0.0018443311
0.0018039261
0.0017621958
0.0017191339
0.0016744735
0.0016279417
0.0015795953
0.001529317
0.0014767086
0.0014215454
0.0013638264
0.001303375
0.0012407064
0.0011779172
0.0011161694
0.0010552764
0.00099516608
0.00093599266
0.00087765271
0.00081994039
0.00076289801
0.00070674899
0.00065148462
0.00059693541
0.00054325207
0.00049056124
0.00043918331
0.00038942338
0.00034126905
0.00029643281
0.00025332763
0.00022400428
0.0001861556
0.00030695566
-0.00024051415
0.0040713883
0.0040910961
0.0041342089
0.0041887605
0.0042530756
0.004327076
0.0044101016
0.0045014356
0.0046007416
0.0047080666
0.0048237574
0.004948464
0.005083219
0.0052295833
0.005389846
0.0055674398
0.0057673683
0.0059979867
0.0062709877
0.0066138387
0.0070522997
0.0077455528
0.0086278256
0.012555628
0.0091446948
0.0040339352
0.0039261935
0.0043996865
0.004520028
0.004462944
0.0043853267
0.004316863
0.0042489869
0.0041795541
0.0041112196
0.0040458396
0.0039839715
0.0039252227
0.0038693364
0.0038161249
0.003765428
0.0037170936
0.0036707661
0.0036264656
0.003583804
0.0035427903
0.0035033201
0.0034649699
0.0034279542
0.0033921325
0.0033571401
0.0033231123
0.0032900362
0.0032576778
0.0032258984
0.0031949002
0.0031645627
0.003134608
0.0031050868
0.0030761467
0.0030476589
0.003019391
0.0029913767
0.0029637914
0.0029365376
0.0029093582
0.0028823183
0.0028554931
0.0028289087
0.0028023829
0.0027758524
0.0027493348
0.0027229774
0.0026966832
0.0026702394
0.0026437099
0.0026171312
0.0025905726
0.0025638888
0.0025369672
0.0025098265
0.0024825712
0.0024551919
0.0024274859
0.0023994418
0.0023710441
0.0023424332
0.0023135193
0.0022840752
0.0022541469
0.0022237459
0.0021929428
0.0021615794
0.0021295043
0.0020966985
0.0020633029
0.0020292284
0.0019941937
0.0019581926
0.0019212561
0.0018833821
0.0018443318
0.0018039267
0.0017621964
0.0017191345
0.0016744741
0.0016279423
0.0015795958
0.0015293175
0.0014767091
0.0014215458
0.0013638269
0.0013033754
0.0012407068
0.0011779176
0.0011161698
0.0010552767
0.00099516641
0.00093599297
0.00087765301
0.00081994068
0.00076289829
0.00070674926
0.00065148488
0.00059693566
0.00054325231
0.00049056147
0.00043918354
0.0003894236
0.00034126927
0.00029643301
0.00025332783
0.00022400448
0.00018615579
0.0003069559
-0.000240514
0.0040713883
0.0040910961
0.0041342089
0.0041887606
0.0042530756
0.004327076
0.0044101016
0.0045014356
0.0046007416
0.0047080666
0.0048237575
0.0049484641
0.005083219
0.0052295834
0.0053898461
0.0055674399
0.0057673684
0.0059979868
0.0062709878
0.0066138389
0.0070522999
0.0077455529
0.0086278272
0.012541192
0.0091458427
0.0040345813
0.003926306
0.004399732
0.00452006
0.004462971
0.0043853503
0.004316884
0.0042490057
0.004179571
0.004111235
0.0040458537
0.0039839844
0.0039252347
0.0038693475
0.0038161352
0.0037654376
0.0037171026
0.0036707746
0.0036264735
0.0035838114
0.0035427973
0.0035033267
0.0034649762
0.0034279601
0.0033921381
0.0033571455
0.0033231174
0.0032900411
0.0032576825
0.0032259029
0.0031949044
0.0031645668
0.0031346119
0.0031050905
0.0030761503
0.0030476623
0.0030193942
0.0029913799
0.0029637944
0.0029365405
0.002909361
0.002882321
0.0028554957
0.0028289112
0.0028023853
0.0027758547
0.002749337
0.0027229795
0.0026966853
0.0026702414
0.0026437118
0.002617133
0.0025905744
0.0025638905
0.0025369689
0.0025098281
0.0024825727
0.0024551934
0.0024274874
0.0023994432
0.0023710454
0.0023424345
0.0023135205
0.0022840764
0.002254148
0.002223747
0.0021929439
0.0021615805
0.0021295052
0.0020966994
0.0020633038
0.0020292293
0.0019941945
0.0019581934
0.0019212568
0.0018833828
0.0018443326
0.0018039274
0.0017621971
0.0017191351
0.0016744747
0.0016279429
0.0015795963
0.001529318
0.0014767096
0.0014215463
0.0013638273
0.0013033759
0.0012407072
0.001177918
0.0011161702
0.0010552771
0.00099516675
0.0009359933
0.00087765333
0.00081994098
0.00076289858
0.00070674954
0.00065148515
0.00059693592
0.00054325256
0.00049056171
0.00043918377
0.00038942382
0.00034126948
0.00029643322
0.00025332804
0.00022400469
0.00018615599
0.00030695614
-0.00024051385
0.0040713883
0.0040910961
0.0041342089
0.0041887606
0.0042530756
0.004327076
0.0044101016
0.0045014356
0.0046007416
0.0047080666
0.0048237575
0.0049484641
0.0050832191
0.0052295834
0.0053898462
0.00556744
0.0057673686
0.005997987
0.006270988
0.0066138392
0.0070523002
0.0077455529
0.0086278293
0.012526365
0.0091469854
0.0040351592
0.0039264272
0.0043997811
0.0045200944
0.004463
0.0043853757
0.0043169064
0.0042490257
0.0041795891
0.0041112514
0.0040458688
0.0039839983
0.0039252474
0.0038693594
0.0038161463
0.0037654479
0.0037171122
0.0036707836
0.003626482
0.0035838194
0.0035428049
0.0035033338
0.0034649829
0.0034279665
0.0033921442
0.0033571512
0.0033231228
0.0032900463
0.0032576874
0.0032259076
0.0031949089
0.0031645711
0.003134616
0.0031050945
0.0030761541
0.0030476659
0.0030193977
0.0029913832
0.0029637976
0.0029365436
0.002909364
0.0028823238
0.0028554984
0.0028289138
0.0028023878
0.0027758571
0.0027493394
0.0027229818
0.0026966875
0.0026702435
0.0026437138
0.002617135
0.0025905763
0.0025638923
0.0025369706
0.0025098298
0.0024825744
0.002455195
0.0024274889
0.0023994447
0.0023710469
0.0023424358
0.0023135218
0.0022840777
0.0022541493
0.0022237482
0.002192945
0.0021615815
0.0021295063
0.0020967004
0.0020633048
0.0020292302
0.0019941954
0.0019581943
0.0019212577
0.0018833836
0.0018443333
0.0018039281
0.0017621978
0.0017191358
0.0016744754
0.0016279435
0.0015795969
0.0015293186
0.0014767101
0.0014215468
0.0013638278
0.0013033763
0.0012407076
0.0011779184
0.0011161706
0.0010552774
0.00099516711
0.00093599364
0.00087765366
0.0008199413
0.00076289888
0.00070674983
0.00065148543
0.00059693619
0.00054325282
0.00049056197
0.00043918402
0.00038942406
0.00034126972
0.00029643345
0.00025332826
0.00022400491
0.0001861562
0.0003069564
-0.00024051369
0.0040713883
0.0040910962
0.0041342089
0.0041887606
0.0042530756
0.004327076
0.0044101016
0.0045014356
0.0046007416
0.0047080666
0.0048237576
0.0049484642
0.0050832191
0.0052295835
0.0053898463
0.0055674401
0.0057673687
0.0059979871
0.0062709882
0.0066138394
0.0070523004
0.0077455526
0.0086278318
0.012511119
0.0091481501
0.0040357439
0.0039265615
0.0043998358
0.0045201322
0.0044630318
0.0043854035
0.004316931
0.0042490476
0.0041796089
0.0041112694
0.0040458852
0.0039840134
0.0039252614
0.0038693723
0.0038161583
0.0037654591
0.0037171227
0.0036707934
0.0036264912
0.0035838281
0.0035428131
0.0035033415
0.0034649903
0.0034279734
0.0033921508
0.0033571574
0.0033231288
0.0032900519
0.0032576928
0.0032259127
0.0031949138
0.0031645758
0.0031346205
0.0031050988
0.0030761582
0.0030476699
0.0030194015
0.0029913869
0.0029638011
0.002936547
0.0029093672
0.0028823269
0.0028555014
0.0028289167
0.0028023906
0.0027758598
0.0027493419
0.0027229843
0.0026966899
0.0026702458
0.002643716
0.0026171371
0.0025905783
0.0025638943
0.0025369725
0.0025098316
0.0024825762
0.0024551967
0.0024274906
0.0023994463
0.0023710484
0.0023424373
0.0023135233
0.002284079
0.0022541506
0.0022237495
0.0021929462
0.0021615827
0.0021295074
0.0020967015
0.0020633058
0.0020292312
0.0019941964
0.0019581952
0.0019212586
0.0018833845
0.0018443342
0.0018039289
0.0017621986
0.0017191365
0.0016744761
0.0016279442
0.0015795976
0.0015293192
0.0014767107
0.0014215474
0.0013638283
0.0013033768
0.0012407081
0.0011779188
0.001116171
0.0010552779
0.0009951675
0.00093599402
0.00087765401
0.00081994164
0.00076289921
0.00070675015
0.00065148574
0.00059693649
0.00054325311
0.00049056224
0.00043918428
0.00038942432
0.00034126997
0.0002964337
0.0002533285
0.00022400515
0.00018615642
0.00030695668
-0.00024051351
0.0040713883
0.0040910962
0.0041342089
0.0041887606
0.0042530756
0.004327076
0.0044101016
0.0045014357
0.0046007417
0.0047080667
0.0048237576
0.0049484642
0.0050832192
0.0052295836
0.0053898463
0.0055674402
0.0057673688
0.0059979873
0.0062709884
0.0066138395
0.0070523006
0.0077455521
0.0086278348
0.012495502
0.009149347
0.0040364643
0.0039267148
0.0043998982
0.004520175
0.0044630677
0.0043854348
0.0043169586
0.0042490722
0.004179631
0.0041112895
0.0040459036
0.0039840303
0.003925277
0.0038693868
0.0038161717
0.0037654716
0.0037171344
0.0036708043
0.0036265015
0.0035838377
0.0035428222
0.0035033501
0.0034649984
0.0034279811
0.0033921581
0.0033571644
0.0033231354
0.0032900582
0.0032576988
0.0032259185
0.0031949193
0.003164581
0.0031346255
0.0031051035
0.0030761628
0.0030476743
0.0030194057
0.0029913909
0.002963805
0.0029365507
0.0029093708
0.0028823304
0.0028555047
0.0028289199
0.0028023937
0.0027758627
0.0027493448
0.002722987
0.0026966925
0.0026702483
0.0026437185
0.0026171395
0.0025905806
0.0025638965
0.0025369747
0.0025098336
0.0024825781
0.0024551986
0.0024274924
0.0023994481
0.0023710501
0.002342439
0.0023135248
0.0022840806
0.0022541521
0.0022237509
0.0021929476
0.002161584
0.0021295087
0.0020967028
0.002063307
0.0020292324
0.0019941975
0.0019581963
0.0019212596
0.0018833855
0.0018443351
0.0018039298
0.0017621994
0.0017191373
0.0016744768
0.0016279449
0.0015795983
0.0015293198
0.0014767113
0.001421548
0.0013638289
0.0013033774
0.0012407086
0.0011779193
0.0011161715
0.0010552783
0.00099516793
0.00093599443
0.00087765441
0.00081994202
0.00076289958
0.0007067505
0.00065148607
0.00059693681
0.00054325342
0.00049056255
0.00043918458
0.00038942461
0.00034127024
0.00029643396
0.00025332876
0.00022400541
0.00018615667
0.00030695699
-0.00024051332
0.0040713883
0.0040910962
0.0041342089
0.0041887606
0.0042530756
0.0043270761
0.0044101016
0.0045014357
0.0046007417
0.0047080667
0.0048237576
0.0049484643
0.0050832193
0.0052295837
0.0053898465
0.0055674404
0.005767369
0.0059979875
0.0062709885
0.0066138397
0.0070523007
0.0077455513
0.0086278385
0.012479566
0.0091502527
0.0040374225
0.0039268981
0.0043999721
0.0045202251
0.0044631093
0.004385471
0.0043169905
0.0042491007
0.0041796566
0.0041113127
0.0040459248
0.0039840498
0.0039252949
0.0038694033
0.0038161871
0.0037654859
0.0037171477
0.0036708168
0.0036265132
0.0035838488
0.0035428325
0.0035033599
0.0034650077
0.0034279899
0.0033921664
0.0033571723
0.0033231429
0.0032900653
0.0032577056
0.0032259249
0.0031949255
0.0031645869
0.0031346312
0.0031051089
0.0030761679
0.0030476792
0.0030194105
0.0029913954
0.0029638093
0.0029365549
0.0029093748
0.0028823343
0.0028555084
0.0028289235
0.0028023971
0.002775866
0.002749348
0.0027229901
0.0026966955
0.0026702512
0.0026437212
0.0026171421
0.0025905832
0.002563899
0.002536977
0.0025098359
0.0024825803
0.0024552007
0.0024274944
0.00239945
0.002371052
0.0023424408
0.0023135266
0.0022840823
0.0022541537
0.0022237525
0.0021929491
0.0021615855
0.0021295101
0.0020967041
0.0020633083
0.0020292336
0.0019941987
0.0019581974
0.0019212607
0.0018833865
0.0018443361
0.0018039308
0.0017622003
0.0017191382
0.0016744777
0.0016279457
0.0015795991
0.0015293206
0.001476712
0.0014215486
0.0013638295
0.001303378
0.0012407092
0.0011779199
0.001116172
0.0010552788
0.00099516841
0.00093599488
0.00087765485
0.00081994244
0.00076289998
0.00070675089
0.00065148645
0.00059693717
0.00054325377
0.00049056288
0.0004391849
0.00038942492
0.00034127055
0.00029643426
0.00025332905
0.0002240057
0.00018615695
0.00030695733
-0.00024051311
0.0040713883
0.0040910962
0.0041342089
0.0041887606
0.0042530757
0.0043270761
0.0044101017
0.0045014357
0.0046007417
0.0047080668
0.0048237577
0.0049484644
0.0050832193
0.0052295838
0.0053898466
0.0055674405
0.0057673691
0.0059979877
0.0062709887
0.0066138399
0.0070523009
0.00774555
0.008627843
0.012463391
0.0091505372
0.0040387084
0.0039271308
0.004400064
0.0045202864
0.0044631598
0.0043855148
0.004317029
0.0042491348
0.0041796872
0.0041113404
0.0040459501
0.0039840729
0.0039253162
0.003869423
0.0038162053
0.0037655029
0.0037171635
0.0036708316
0.0036265271
0.0035838618
0.0035428448
0.0035033715
0.0034650185
0.0034280002
0.0033921761
0.0033571815
0.0033231517
0.0032900737
0.0032577136
0.0032259325
0.0031949327
0.0031645938
0.0031346378
0.0031051152
0.003076174
0.003047685
0.003019416
0.0029914008
0.0029638144
0.0029365598
0.0029093795
0.0028823388
0.0028555128
0.0028289276
0.0028024011
0.0027758699
0.0027493517
0.0027229937
0.0026966989
0.0026702545
0.0026437244
0.0026171452
0.0025905861
0.0025639018
0.0025369798
0.0025098386
0.0024825829
0.0024552032
0.0024274968
0.0023994523
0.0023710542
0.0023424429
0.0023135286
0.0022840842
0.0022541556
0.0022237543
0.0021929509
0.0021615872
0.0021295117
0.0020967057
0.0020633098
0.0020292351
0.0019942
0.0019581988
0.001921262
0.0018833877
0.0018443373
0.0018039319
0.0017622014
0.0017191392
0.0016744787
0.0016279467
0.0015795999
0.0015293214
0.0014767128
0.0014215494
0.0013638303
0.0013033787
0.0012407099
0.0011779205
0.0011161726
0.0010552794
0.00099516896
0.00093599541
0.00087765535
0.00081994292
0.00076290044
0.00070675133
0.00065148687
0.00059693758
0.00054325417
0.00049056327
0.00043918527
0.00038942528
0.0003412709
0.0002964346
0.00025332938
0.00022400603
0.00018615726
0.00030695772
-0.00024051286
0.0040713883
0.0040910962
0.0041342089
0.0041887606
0.0042530757
0.0043270761
0.0044101017
0.0045014358
0.0046007418
0.0047080668
0.0048237578
0.0049484644
0.0050832194
0.0052295839
0.0053898467
0.0055674407
0.0057673693
0.0059979879
0.0062709889
0.00661384
0.0070523009
0.0077455482
0.0086278484
0.012447083
0.0091505151
0.00404043
0.0039274445
0.0044001853
0.0045203656
0.0044632245
0.0043855706
0.0043170777
0.0042491779
0.0041797257
0.0041113752
0.0040459816
0.0039841018
0.0039253427
0.0038694474
0.0038162279
0.0037655239
0.0037171831
0.0036708498
0.0036265441
0.0035838778
0.0035428598
0.0035033856
0.0034650319
0.0034280128
0.0033921881
0.0033571928
0.0033231624
0.0032900839
0.0032577233
0.0032259417
0.0031949415
0.0031646022
0.0031346458
0.0031051229
0.0030761813
0.003047692
0.0030194227
0.0029914072
0.0029638206
0.0029365657
0.0029093852
0.0028823442
0.002855518
0.0028289326
0.002802406
0.0027758745
0.0027493561
0.002722998
0.002696703
0.0026702585
0.0026437283
0.0026171489
0.0025905897
0.0025639052
0.0025369831
0.0025098417
0.0024825859
0.0024552061
0.0024274996
0.002399455
0.0023710568
0.0023424454
0.0023135311
0.0022840866
0.0022541578
0.0022237565
0.0021929529
0.0021615892
0.0021295137
0.0020967075
0.0020633116
0.0020292368
0.0019942017
0.0019582003
0.0019212635
0.0018833892
0.0018443386
0.0018039332
0.0017622027
0.0017191404
0.0016744798
0.0016279478
0.001579601
0.0015293224
0.0014767138
0.0014215503
0.0013638311
0.0013033795
0.0012407107
0.0011779212
0.0011161733
0.00105528
0.00099516959
0.00093599602
0.00087765593
0.00081994348
0.00076290098
0.00070675185
0.00065148737
0.00059693806
0.00054325463
0.00049056371
0.00043918571
0.0003894257
0.0003412713
0.000296435
0.00025332976
0.00022400642
0.00018615763
0.00030695817
-0.00024051258
0.0040713883
0.0040910962
0.0041342089
0.0041887606
0.0042530757
0.0043270761
0.0044101017
0.0045014358
0.0046007418
0.0047080669
0.0048237578
0.0049484645
0.0050832195
0.005229584
0.0053898469
0.0055674408
0.0057673695
0.0059979881
0.0062709891
0.0066138401
0.0070523009
0.0077455456
0.008627855
0.012430753
0.0091506324
0.0040427337
0.0039278926
0.0044003564
0.0045204745
0.0044633122
0.0043856457
0.0043171429
0.0042492353
0.0041797768
0.0041114211
0.0040460232
0.0039841396
0.0039253774
0.0038694793
0.0038162574
0.0037655511
0.0037172084
0.0036708734
0.0036265662
0.0035838984
0.0035428792
0.0035034038
0.003465049
0.003428029
0.0033922033
0.0033572073
0.0033231761
0.0032900969
0.0032577356
0.0032259535
0.0031949527
0.0031646128
0.0031346559
0.0031051326
0.0030761905
0.0030477009
0.0030194312
0.0029914153
0.0029638283
0.0029365731
0.0029093923
0.002882351
0.0028555245
0.0028289389
0.002802412
0.0027758803
0.0027493617
0.0027230033
0.0026967082
0.0026702634
0.002643733
0.0026171535
0.0025905941
0.0025639095
0.0025369872
0.0025098457
0.0024825897
0.0024552097
0.0024275031
0.0023994584
0.0023710601
0.0023424486
0.0023135341
0.0022840895
0.0022541606
0.0022237592
0.0021929555
0.0021615917
0.002129516
0.0020967098
0.0020633138
0.0020292389
0.0019942037
0.0019582023
0.0019212653
0.001883391
0.0018443403
0.0018039349
0.0017622042
0.0017191419
0.0016744812
0.0016279491
0.0015796023
0.0015293237
0.001476715
0.0014215514
0.0013638322
0.0013033805
0.0012407116
0.0011779221
0.0011161741
0.0010552809
0.00099517037
0.00093599675
0.00087765664
0.00081994415
0.00076290163
0.00070675247
0.00065148797
0.00059693864
0.00054325519
0.00049056425
0.00043918623
0.0003894262
0.00034127179
0.00029643548
0.00025333023
0.00022400688
0.00018615807
0.00030695871
-0.00024051224
0.0040713883
0.0040910962
0.004134209
0.0041887607
0.0042530757
0.0043270762
0.0044101018
0.0045014359
0.0046007419
0.004708067
0.0048237579
0.0049484646
0.0050832197
0.0052295841
0.005389847
0.005567441
0.0057673697
0.0059979883
0.0062709893
0.0066138401
0.0070523007
0.007745542
0.008627863
0.012414485
0.0091509374
0.0040458803
0.0039285572
0.0044006115
0.0045206332
0.004463438
0.0043857523
0.0043172349
0.0042493156
0.0041798479
0.0041114848
0.0040460807
0.0039841918
0.0039254251
0.003869523
0.0038162976
0.0037655883
0.0037172429
0.0036709055
0.003626596
0.0035839263
0.0035429053
0.0035034284
0.0034650721
0.0034280507
0.0033922239
0.0033572267
0.0033231944
0.0032901143
0.0032577521
0.0032259691
0.0031949676
0.003164627
0.0031346694
0.0031051455
0.0030762028
0.0030477126
0.0030194424
0.002991426
0.0029638386
0.002936583
0.0029094017
0.0028823601
0.0028555332
0.0028289472
0.00280242
0.002775888
0.002749369
0.0027230104
0.0026967149
0.0026702699
0.0026437393
0.0026171595
0.0025905999
0.0025639151
0.0025369925
0.0025098508
0.0024825947
0.0024552145
0.0024275077
0.0023994628
0.0023710643
0.0023424526
0.002313538
0.0022840932
0.0022541642
0.0022237626
0.0021929588
0.0021615949
0.0021295191
0.0020967127
0.0020633166
0.0020292416
0.0019942063
0.0019582047
0.0019212677
0.0018833932
0.0018443425
0.001803937
0.0017622062
0.0017191438
0.001674483
0.0016279508
0.0015796039
0.0015293252
0.0014767164
0.0014215528
0.0013638335
0.0013033817
0.0012407128
0.0011779233
0.0011161752
0.0010552819
0.00099517135
0.00093599769
0.00087765753
0.00081994501
0.00076290245
0.00070675326
0.00065148873
0.00059693937
0.00054325589
0.00049056493
0.00043918688
0.00038942684
0.00034127241
0.00029643607
0.0002533308
0.00022400746
0.00018615862
0.00030695939
-0.00024051181
0.0040713883
0.0040910962
0.004134209
0.0041887607
0.0042530758
0.0043270762
0.0044101018
0.0045014359
0.004600742
0.004708067
0.004823758
0.0049484647
0.0050832198
0.0052295843
0.0053898472
0.0055674412
0.0057673699
0.0059979885
0.0062709894
0.0066138399
0.0070523003
0.0077455371
0.0086278727
0.012398307
0.0091513365
0.0040502203
0.0039295509
0.0044010046
0.0045208739
0.0044636257
0.00438591
0.0043173699
0.0042494329
0.0041799512
0.0041115768
0.0040461634
0.0039842667
0.0039254932
0.0038695854
0.0038163549
0.0037656411
0.0037172917
0.0036709508
0.0036266382
0.0035839657
0.0035429421
0.0035034628
0.0034651045
0.0034280812
0.0033922526
0.0033572538
0.0033232201
0.0032901385
0.0032577751
0.0032259909
0.0031949883
0.0031646467
0.0031346881
0.0031051633
0.0030762198
0.0030477288
0.0030194579
0.0029914408
0.0029638527
0.0029365965
0.0029094147
0.0028823725
0.0028555451
0.0028289586
0.0028024309
0.0027758985
0.0027493791
0.00272302
0.0026967242
0.0026702788
0.0026437478
0.0026171677
0.0025906077
0.0025639226
0.0025369998
0.0025098578
0.0024826014
0.0024552209
0.0024275139
0.0023994688
0.00237107
0.0023424581
0.0023135433
0.0022840983
0.0022541691
0.0022237673
0.0021929633
0.0021615992
0.0021295232
0.0020967167
0.0020633204
0.0020292452
0.0019942098
0.0019582081
0.0019212709
0.0018833963
0.0018443454
0.0018039397
0.0017622089
0.0017191464
0.0016744855
0.0016279531
0.0015796061
0.0015293273
0.0014767184
0.0014215547
0.0013638353
0.0013033834
0.0012407144
0.0011779248
0.0011161766
0.0010552832
0.00099517264
0.00093599892
0.0008776587
0.00081994613
0.00076290353
0.00070675429
0.00065148972
0.00059694032
0.00054325681
0.00049056582
0.00043918774
0.00038942767
0.00034127321
0.00029643685
0.00025333156
0.00022400821
0.00018615934
0.00030696028
-0.00024051125
0.0040713883
0.0040910962
0.004134209
0.0041887607
0.0042530758
0.0043270762
0.0044101019
0.004501436
0.004600742
0.0047080671
0.0048237581
0.0049484649
0.0050832199
0.0052295845
0.0053898474
0.0055674414
0.0057673701
0.0059979887
0.0062709895
0.0066138396
0.0070522997
0.0077455304
0.0086278844
0.012382168
0.0091517295
0.0040559033
0.0039310044
0.0044016116
0.0045212431
0.0044639101
0.0043861471
0.0043175718
0.0042496075
0.0041801043
0.0041117127
0.0040462852
0.0039843766
0.003925593
0.0038696764
0.0038164383
0.0037657179
0.0037173626
0.0036710165
0.0036266993
0.0035840225
0.0035429952
0.0035035126
0.0034651511
0.003428125
0.0033922938
0.0033572927
0.0033232568
0.0032901733
0.003257808
0.0032260221
0.0031950179
0.0031646748
0.0031347149
0.0031051887
0.0030762441
0.0030477519
0.0030194799
0.0029914619
0.0029638729
0.0029366157
0.0029094331
0.0028823901
0.0028555619
0.0028289748
0.0028024463
0.0027759133
0.0027493933
0.0027230337
0.0026967373
0.0026702914
0.0026437599
0.0026171793
0.0025906188
0.0025639333
0.00253701
0.0025098676
0.0024826108
0.00245523
0.0024275226
0.0023994771
0.0023710781
0.0023424658
0.0023135507
0.0022841054
0.0022541759
0.0022237738
0.0021929696
0.0021616052
0.002129529
0.0020967222
0.0020633257
0.0020292503
0.0019942146
0.0019582127
0.0019212753
0.0018834005
0.0018443495
0.0018039436
0.0017622126
0.0017191499
0.0016744888
0.0016279563
0.0015796091
0.0015293302
0.0014767211
0.0014215573
0.0013638377
0.0013033857
0.0012407166
0.0011779268
0.0011161786
0.0010552851
0.00099517441
0.00093600061
0.00087766032
0.00081994768
0.000762905
0.00070675571
0.00065149108
0.00059694163
0.00054325807
0.00049056703
0.00043918891
0.0003894288
0.0003412743
0.00029643792
0.0002533326
0.00022400925
0.00018616032
0.00030696149
-0.00024051049
0.0040713883
0.0040910962
0.004134209
0.0041887607
0.0042530758
0.0043270763
0.0044101019
0.004501436
0.0046007421
0.0047080672
0.0048237583
0.004948465
0.0050832201
0.0052295847
0.0053898476
0.0055674417
0.0057673704
0.0059979888
0.0062709894
0.006613839
0.0070522986
0.0077455214
0.0086278986
0.012365944
0.0091520157
0.0040627549
0.0039330472
0.0044025275
0.0045218002
0.0044643352
0.0043865
0.0043178715
0.0042498661
0.0041803306
0.0041119131
0.0040464644
0.003984538
0.0039257393
0.0038698097
0.0038165604
0.0037658301
0.0037174661
0.0036711123
0.0036267882
0.0035841053
0.0035430725
0.0035035848
0.0034652189
0.0034281886
0.0033923537
0.0033573491
0.00332331
0.0032902236
0.0032578556
0.0032260672
0.0031950607
0.0031647155
0.0031347535
0.0031052255
0.0030762791
0.0030477853
0.0030195117
0.0029914922
0.0029639019
0.0029366434
0.0029094596
0.0028824154
0.0028555862
0.002828998
0.0028024686
0.0027759346
0.0027494137
0.0027230533
0.0026967561
0.0026703094
0.0026437772
0.0026171959
0.0025906348
0.0025639486
0.0025370247
0.0025098817
0.0024826244
0.002455243
0.0024275351
0.0023994891
0.0023710896
0.0023424769
0.0023135613
0.0022841156
0.0022541857
0.0022237832
0.0021929786
0.0021616138
0.0021295372
0.0020967301
0.0020633332
0.0020292575
0.0019942215
0.0019582193
0.0019212817
0.0018834066
0.0018443553
0.0018039491
0.0017622178
0.0017191549
0.0016744936
0.0016279609
0.0015796135
0.0015293343
0.001476725
0.001421561
0.0013638412
0.001303389
0.0012407197
0.0011779298
0.0011161814
0.0010552877
0.00099517692
0.000936003
0.0008776626
0.00081994985
0.00076290709
0.00070675771
0.000651493
0.00059694348
0.00054325984
0.00049056874
0.00043919056
0.00038943039
0.00034127585
0.00029643942
0.00025333405
0.0002240107
0.00018616169
0.00030696318
-0.00024050943
0.0040713883
0.0040910962
0.004134209
0.0041887608
0.0042530759
0.0043270763
0.004410102
0.0045014361
0.0046007422
0.0047080673
0.0048237584
0.0049484652
0.0050832203
0.0052295848
0.0053898478
0.0055674419
0.0057673705
0.0059979889
0.0062709892
0.0066138381
0.007052297
0.0077455092
0.0086279158
0.012349479
0.0091520492
0.0040706106
0.0039358028
0.0044038545
0.0045226116
0.0044649502
0.0043870093
0.004318304
0.0042502391
0.0041806568
0.0041122018
0.0040467223
0.0039847703
0.0039259498
0.0038700014
0.0038167358
0.0037659912
0.0037176147
0.0036712498
0.0036269158
0.0035842241
0.0035431833
0.0035036884
0.003465316
0.0034282798
0.0033924394
0.0033574299
0.0033233863
0.0032902956
0.0032579238
0.0032261318
0.0031951219
0.0031647736
0.0031348088
0.0031052781
0.0030763292
0.0030478331
0.0030195573
0.0029915357
0.0029639434
0.0029366831
0.0029094975
0.0028824517
0.0028556209
0.0028290313
0.0028025005
0.0027759651
0.002749443
0.0027230813
0.002696783
0.0026703352
0.002643802