/*--------------------------------*- C++ -*----------------------------------*\
  =========                 |
  \\      /  F ield         | OpenFOAM: The Open Source CFD Toolbox
   \\    /   O peration     | Website:  https://openfoam.org
    \\  /    A nd           | Version:  12
     \\/     M anipulation  |
\*---------------------------------------------------------------------------*/
FoamFile
{
    format      ascii;
    class       surfaceScalarField;
    location    "400";
    object      phi;
}
// * * * * * * * * * * * * * * * * * * * * * * * * * * * * * * * * * * * * * //

dimensions      [0 3 -1 0 0 0 0];

internalField   nonuniform List<scalar> 
14782
(
0.00078635976
7.1538848e-06
-0.00079351364
0.0007767078
9.6519583e-06
0.00076587463
1.0833166e-05
0.0007545627
1.1311927e-05
0.00074277957
1.1783133e-05
0.00073057477
1.2204806e-05
0.00071798733
1.2587435e-05
0.00070506473
1.2922598e-05
0.00069187934
1.3185392e-05
0.00067855497
1.3324368e-05
0.00066528173
1.3273241e-05
0.00065232215
1.2959585e-05
0.00064001181
1.2310339e-05
0.00062870556
1.1306252e-05
0.00061867339
1.0032165e-05
0.00061002496
8.6484352e-06
0.00060268995
7.3350052e-06
0.00059653502
6.1549312e-06
0.0005913057
5.2293156e-06
0.00058674815
4.5575517e-06
0.0005827955
3.9526509e-06
0.00057923123
3.5642676e-06
0.00057590065
3.3305861e-06
0.00057273221
3.1684398e-06
0.00056967011
3.0620991e-06
0.00056669498
2.9751252e-06
0.00056379845
2.8965344e-06
0.00056098409
2.8143561e-06
0.00055825483
2.7292599e-06
0.00055561638
2.6384519e-06
0.00055306734
2.5490365e-06
0.00055059618
2.4711656e-06
0.00054817178
2.4244014e-06
0.00054575267
2.4191064e-06
0.00054331805
2.4346202e-06
0.00054087335
2.4447006e-06
0.00053844036
2.4329899e-06
0.00053604775
2.3926089e-06
0.00053372095
2.3268012e-06
0.00053147476
2.2461912e-06
0.00052931345
2.1613132e-06
0.00052723511
2.0783395e-06
0.00052523303
2.0020763e-06
0.00052329827
1.9347568e-06
0.00052140696
1.891309e-06
0.00051950818
1.8987829e-06
0.000517517
1.9911793e-06
0.00051529478
2.222226e-06
0.00051267896
2.6158204e-06
0.00050967346
3.0054922e-06
0.00050654887
3.1245879e-06
0.00050360841
2.9404646e-06
0.00050098608
2.6223342e-06
0.00049866773
2.3183498e-06
0.00049657126
2.0964685e-06
0.0004946183
1.9529612e-06
0.00049274591
1.872383e-06
0.00049092869
1.8172279e-06
0.00048916549
1.763198e-06
0.00048744775
1.7177344e-06
0.00048576731
1.6804429e-06
0.00048411521
1.6521044e-06
0.00048248452
1.6306817e-06
0.00048087031
1.6142138e-06
0.00047926838
1.6019248e-06
0.00047767617
1.592211e-06
0.00047609264
1.5835347e-06
0.00047451671
1.5759334e-06
0.00047294686
1.5698492e-06
0.00047138162
1.5652319e-06
0.00046981952
1.5621028e-06
0.0004682592
1.5603215e-06
0.00046669961
1.5595953e-06
0.00046513954
1.5600686e-06
0.00046357788
1.5616594e-06
0.00046201363
1.5642496e-06
0.00046044559
1.5680346e-06
0.00045887277
1.5728237e-06
0.00045729428
1.5784884e-06
0.00045570898
1.5852963e-06
0.00045411662
1.5923606e-06
0.00045251753
1.5990951e-06
0.00045091618
1.6013497e-06
0.00044937093
1.5452461e-06
0.0004484428
9.2813434e-07
0.00045247546
-4.0326568e-06
0.00045898108
-6.5056294e-06
0.00046251375
-3.5326625e-06
0.00046434398
-1.8302359e-06
0.000464918
-5.7401859e-07
0.00046482476
9.3245751e-08
0.00046435897
4.6578367e-07
0.00046367758
6.8139941e-07
0.00046286341
8.1416218e-07
0.0004619634
9.0000955e-07
0.00046100706
9.5634165e-07
0.0004599991
1.0079651e-06
0.00045892878
1.0703168e-06
0.00045782691
1.1018664e-06
1.3410349e-06
0.00082497981
6.7728026e-06
-0.00082459873
0.00082537708
9.2546853e-06
0.00082558704
1.0623203e-05
0.00082568072
1.1218249e-05
0.00082565226
1.1811596e-05
0.00082549792
1.2359146e-05
0.00082521127
1.2874087e-05
0.00082477027
1.3363594e-05
0.00082411945
1.3836216e-05
0.00082316383
1.4279985e-05
0.00082177899
1.4658086e-05
0.00081979598
1.4942587e-05
0.00081701417
1.5092149e-05
0.00081323695
1.5083473e-05
0.00080834258
1.4926533e-05
0.00080233407
1.4656949e-05
0.00079532351
1.4345563e-05
0.00078748151
1.3996933e-05
0.00077903276
1.3678066e-05
0.00077019634
1.3393972e-05
0.00076119787
1.2951121e-05
0.00075230306
1.2459083e-05
0.00074370141
1.1932229e-05
0.000735513
1.1356851e-05
0.00072781292
1.0762184e-05
0.0007206313
1.0156745e-05
0.00071397002
9.5578095e-06
0.00070779975
8.9846332e-06
0.00070206339
8.4656167e-06
0.00069669293
8.0089097e-06
0.000691622
7.6199726e-06
0.00068678859
7.3045704e-06
0.00068215459
7.0584007e-06
0.00067770874
6.8649541e-06
0.00067344166
6.7017002e-06
0.00066934101
6.5453523e-06
0.00066539005
6.383954e-06
0.00066156926
6.2133944e-06
0.00065786244
6.0336248e-06
0.0006542595
5.849135e-06
0.00065075563
5.6651757e-06
0.00064734921
5.4847653e-06
0.00064403845
5.3128319e-06
0.00064082132
5.151887e-06
0.00063770041
5.0122194e-06
0.000634688
4.9111971e-06
0.00063181165
4.8675225e-06
0.00062912697
4.9069088e-06
0.000626701
5.0417903e-06
0.00062449629
5.210199e-06
0.00062233268
5.2881979e-06
0.00062005458
5.2185676e-06
0.00061763158
5.0453302e-06
0.00061511399
4.8359424e-06
0.00061256955
4.6409048e-06
0.00061004134
4.4811771e-06
0.00060754634
4.3673857e-06
0.00060509
4.2735641e-06
0.00060267662
4.1765784e-06
0.00060030887
4.0854798e-06
0.00059798649
4.0028225e-06
0.00059570739
3.9312132e-06
0.00059346937
3.868702e-06
0.00059127023
3.8133454e-06
0.00058910742
3.7647335e-06
0.00058697919
3.7204489e-06
0.00058488463
3.6780889e-06
0.0005828227
3.6378668e-06
0.00058079208
3.6004676e-06
0.00057879157
3.5657419e-06
0.00057681994
3.5337321e-06
0.00057487603
3.5042295e-06
0.0005729589
3.4767264e-06
0.00057106755
3.4514228e-06
0.00056920106
3.4281509e-06
0.00056735863
3.4066775e-06
0.00056553935
3.3873087e-06
0.00056374245
3.3697237e-06
0.0005619672
3.3537465e-06
0.00056021262
3.3398771e-06
0.00055847825
3.3267227e-06
0.00055676356
3.3137855e-06
0.00055506648
3.2984365e-06
0.00055337945
3.2322773e-06
0.00055163572
2.6718562e-06
0.00054886
-1.2569353e-06
0.00054619984
-3.8454712e-06
0.00054485489
-2.1877067e-06
0.00054372896
-7.0430474e-07
0.00054259822
5.567176e-07
0.00054136834
1.3231286e-06
0.00054005697
1.777153e-06
0.00053869644
2.0419302e-06
0.00053731074
2.1998617e-06
0.00053591046
2.300289e-06
0.00053450869
2.3581166e-06
0.00053307876
2.4378879e-06
0.00053166182
2.4872596e-06
0.00053001263
2.7510602e-06
2.742288e-06
0.00085269516
6.4992055e-06
-0.00085242156
0.00085309938
8.8504678e-06
0.00085347223
1.0250356e-05
0.00085376218
1.0928294e-05
0.0008540254
1.1548373e-05
0.00085425011
1.2134441e-05
0.00085444802
1.2676177e-05
0.00085462998
1.3181633e-05
0.00085480231
1.3663878e-05
0.00085496359
1.4118705e-05
0.00085511378
1.4507904e-05
0.0008552411
1.4815265e-05
0.00085532959
1.5003655e-05
0.00085535336
1.5059704e-05
0.00085527988
1.5000014e-05
0.00085506709
1.4869738e-05
0.00085466808
1.4744577e-05
0.00085401853
1.4646485e-05
0.00085304602
1.4650573e-05
0.00085166507
1.4774922e-05
0.00084971511
1.4901077e-05
0.0008470827
1.5091497e-05
0.00084370652
1.530841e-05
0.00083955566
1.5507708e-05
0.00083464387
1.5673971e-05
0.00082901661
1.5784005e-05
0.0008227906
1.5783826e-05
0.00081614136
1.5633867e-05
0.00080924187
1.5365112e-05
0.00080225904
1.4991739e-05
0.00079534145
1.453756e-05
0.00078860617
1.4039856e-05
0.00078213353
1.3531034e-05
0.0007759612
1.303729e-05
0.00077008692
1.2575981e-05
0.00076448423
1.2148038e-05
0.0007591153
1.1752888e-05
0.00075394222
1.1386473e-05
0.00074893676
1.1039084e-05
0.00074408093
1.0704968e-05
0.00073936421
1.0381891e-05
0.00073477914
1.0069836e-05
0.00073031794
9.7740304e-06
0.00072597546
9.4943698e-06
0.0007217552
9.2324741e-06
0.00071766883
8.9975741e-06
0.00071373256
8.8037854e-06
0.000709971
8.6684765e-06
0.00070641061
8.6021747e-06
0.00070304363
8.577182e-06
0.00069980955
8.5222743e-06
0.00069663525
8.3928664e-06
0.0006934744
8.206186e-06
0.00069031309
7.9972547e-06
0.00068716129
7.7926999e-06
0.00068403567
7.6068018e-06
0.00068095028
7.4527735e-06
0.00067791411
7.3097314e-06
0.00067493201
7.1586816e-06
0.0006720058
7.0116882e-06
0.00066913536
6.8732634e-06
0.00066632017
6.7464012e-06
0.00066355968
6.6291906e-06
0.00066085263
6.5204011e-06
0.00065819698
6.420379e-06
0.00065559143
6.3259986e-06
0.00065303494
6.2345826e-06
0.00065052591
6.1468985e-06
0.00064806273
6.06364e-06
0.00064564409
5.9843848e-06
0.00064326867
5.909157e-06
0.00064093517
5.8377235e-06
0.00063864248
5.7694167e-06
0.00063638943
5.7044757e-06
0.00063417493
5.6426474e-06
0.00063199803
5.5835812e-06
0.00062985767
5.5276632e-06
0.00062775294
5.4744606e-06
0.00062568293
5.4237578e-06
0.00062364655
5.3762565e-06
0.00062164309
5.3301787e-06
0.00061967163
5.2852476e-06
0.00061772862
5.2414406e-06
0.00061579509
5.1658108e-06
0.00061372933
4.7376131e-06
0.00061061509
1.8573115e-06
0.0006072324
-4.6278556e-07
0.00060479488
2.4981673e-07
0.00060277783
1.3127486e-06
0.00060097266
2.3618783e-06
0.00059922353
3.0722622e-06
0.00059748527
3.5154156e-06
0.00059575072
3.7764736e-06
0.0005940245
3.9260902e-06
0.00059230636
4.0184217e-06
0.00059060497
4.0595124e-06
0.00058888398
4.158876e-06
0.00058720597
4.1652716e-06
0.00058520896
4.7480706e-06
4.2975453e-06
0.00088128053
6.2962743e-06
-0.0008810776
0.00088165817
8.4728328e-06
0.00088203221
9.8763098e-06
0.00088232617
1.0634336e-05
0.00088259681
1.1277737e-05
0.00088283554
1.189571e-05
0.00088304953
1.2462184e-05
0.00088324941
1.2981754e-05
0.00088344319
1.3470096e-05
0.00088363183
1.3930072e-05
0.00088381818
1.4321556e-05
0.0008839969
1.4636537e-05
0.00088416218
1.4838374e-05
0.00088430423
1.4917657e-05
0.00088441658
1.4887663e-05
0.00088449555
1.4790764e-05
0.0008845463
1.4693833e-05
0.00088457038
1.4622409e-05
0.00088457376
1.4647191e-05
0.00088456539
1.4783285e-05
0.00088452575
1.4940725e-05
0.00088444408
1.5173167e-05
0.00088429567
1.5456814e-05
0.0008840407
1.5762682e-05
0.00088362414
1.6090529e-05
0.00088297828
1.6429863e-05
0.00088199098
1.6771121e-05
0.00088052252
1.7102327e-05
0.00087846354
1.7424099e-05
0.00087573026
1.7725012e-05
0.00087227657
1.7991254e-05
0.00086810099
1.8215435e-05
0.00086327873
1.8353293e-05
0.00085794884
1.8367181e-05
0.00085226273
1.8262095e-05
0.00084637267
1.803809e-05
0.00084041464
1.7710921e-05
0.00083449538
1.7305735e-05
0.00082868476
1.6849707e-05
0.00082301395
1.6375772e-05
0.00081748547
1.5910373e-05
0.0008120884
1.54669e-05
0.00080681114
1.5051292e-05
0.00080164774
1.4657771e-05
0.00079659891
1.4281303e-05
0.00079167194
1.3924549e-05
0.00078687798
1.359774e-05
0.00078222947
1.331699e-05
0.00077773628
1.3095364e-05
0.00077339796
1.2915504e-05
0.00076919754
1.2722697e-05
0.00076510962
1.2480785e-05
0.00076111147
1.2204333e-05
0.0007571858
1.1922923e-05
0.0007533239
1.1654601e-05
0.000749525
1.1405701e-05
0.00074579271
1.1185068e-05
0.00074212917
1.0973267e-05
0.00073853444
1.0753414e-05
0.00073500875
1.0537377e-05
0.00073155217
1.0329847e-05
0.0007281642
1.0134371e-05
0.00072484409
9.9493008e-06
0.00072159043
9.7740636e-06
0.00071840127
9.6095378e-06
0.00071527532
9.4519482e-06
0.00071221103
9.2988704e-06
0.00070920624
9.1516927e-06
0.00070625909
9.0107915e-06
0.00070336805
8.8754191e-06
0.0007005316
8.7456069e-06
0.0006977482
8.621126e-06
0.00069501644
8.5011733e-06
0.00069233489
8.3860262e-06
0.00068970219
8.2753472e-06
0.00068711711
8.1686646e-06
0.00068457834
8.0664277e-06
0.00068208472
7.9680887e-06
0.00067963509
7.8733807e-06
0.00067722817
7.7831747e-06
0.00067486304
7.695318e-06
0.00067253857
7.6097085e-06
0.00067025153
7.5284873e-06
0.00066798728
7.4300592e-06
0.00066565894
7.0659565e-06
0.00066279334
4.7229093e-06
0.00065971124
2.6193115e-06
0.00065705759
2.9034665e-06
0.00065469897
3.6713694e-06
0.00065253667
4.5241775e-06
0.00065046101
5.1479206e-06
0.00064842299
5.5534401e-06
0.00064640566
5.7938043e-06
0.00064440748
5.9242636e-06
0.0006424251
6.0008017e-06
0.00064046674
6.0178715e-06
0.00063849171
6.1339141e-06
0.00063657925
6.0777273e-06
0.00063427675
7.0505671e-06
6.0193911e-06
0.00091084152
6.1334659e-06
-0.00091067871
0.00091118262
8.131732e-06
0.0009115323
9.5266288e-06
0.00091181586
1.0350776e-05
0.00091207473
1.1018866e-05
0.00091231056
1.1659886e-05
0.00091252577
1.2246972e-05
0.00091272853
1.2778991e-05
0.00091292632
1.3272311e-05
0.00091311998
1.3736405e-05
0.00091331167
1.4129874e-05
0.00091349645
1.4451756e-05
0.0009136689
1.4665922e-05
0.00091382093
1.476563e-05
0.00091394577
1.4762816e-05
0.00091404002
1.4696519e-05
0.00091410902
1.4624835e-05
0.00091415601
1.4575411e-05
0.00091419072
1.4612489e-05
0.00091422568
1.4748325e-05
0.00091425402
1.4912384e-05
0.00091428173
1.5145456e-05
0.0009143106
1.5427942e-05
0.00091433848
1.5734807e-05
0.00091436321
1.6065793e-05
0.00091438117
1.6411908e-05
0.00091438538
1.676691e-05
0.00091436303
1.712467e-05
0.00091429575
1.749138e-05
0.00091415277
1.7867998e-05
0.00091388707
1.8256954e-05
0.00091343731
1.8665196e-05
0.00091270074
1.9089858e-05
0.0009115458
1.9522123e-05
0.00090985739
1.9950509e-05
0.00090754464
2.0350836e-05
0.00090455453
2.0701034e-05
0.00090089007
2.0970188e-05
0.0008966273
2.1112478e-05
0.00089189112
2.1111951e-05
0.0008868195
2.0981995e-05
0.00088154575
2.0740654e-05
0.00087618228
2.0414758e-05
0.0008708073
2.0032749e-05
0.00086546216
1.9626451e-05
0.00086016526
1.9221441e-05
0.00085492801
1.8834992e-05
0.0008497642
1.8480799e-05
0.00084469025
1.8169313e-05
0.00083971872
1.7887034e-05
0.00083485293
1.7588489e-05
0.00083008867
1.7245047e-05
0.00082541963
1.6873377e-05
0.00082083939
1.650316e-05
0.00081634304
1.6150947e-05
0.0008119286
1.5820148e-05
0.00080759635
1.5517315e-05
0.00080334436
1.5225256e-05
0.00079916973
1.4928049e-05
0.00079507215
1.4634955e-05
0.00079105227
1.4349723e-05
0.00078710993
1.4076713e-05
0.00078324439
1.3814842e-05
0.00077945467
1.3563781e-05
0.00077573939
1.3324818e-05
0.00077209682
1.3094518e-05
0.00076852516
1.2870528e-05
0.00076502263
1.265423e-05
0.00076158747
1.244595e-05
0.00075821812
1.224477e-05
0.00075491296
1.2050765e-05
0.00075167037
1.1863718e-05
0.00074848883
1.1682708e-05
0.00074536679
1.1508071e-05
0.00074230274
1.13394e-05
0.00073929529
1.1176114e-05
0.00073634298
1.1018732e-05
0.00073344448
1.0866593e-05
0.00073059848
1.071938e-05
0.00072780353
1.0578123e-05
0.00072505856
1.0440289e-05
0.00072236237
1.0305901e-05
0.00071971215
1.0178703e-05
0.00071709807
1.0044139e-05
0.00071447638
9.6876513e-06
0.00071161666
7.5826304e-06
0.00070863674
5.5992281e-06
0.00070585361
5.6865947e-06
0.00070325898
6.265995e-06
0.00070081599
6.9671696e-06
0.00069845878
7.5051299e-06
0.00069614758
7.8646443e-06
0.00069386434
8.0770376e-06
0.00069160525
8.1833537e-06
0.00068936571
8.2403453e-06
0.00068715448
8.2291055e-06
0.00068492788
8.3605084e-06
0.0006827807
8.2249116e-06
0.0006801755
9.6557649e-06
7.9194393e-06
0.00094139063
6.0020768e-06
-0.00094125925
0.00094169107
7.8312991e-06
0.00094201734
9.2003516e-06
0.00094229578
1.0072345e-05
0.00094255001
1.0764633e-05
0.00094278753
1.1422361e-05
0.00094300726
1.2027245e-05
0.00094321424
1.2572009e-05
0.00094341465
1.3071903e-05
0.00094361152
1.3539535e-05
0.00094380366
1.3937731e-05
0.00094398909
1.4266331e-05
0.00094416166
1.4493351e-05
0.00094431409
1.4613201e-05
0.0009444402
1.4636702e-05
0.00094453739
1.4599329e-05
0.00094461
1.4552226e-05
0.00094466094
1.4524476e-05
0.0009446998
1.4573621e-05
0.000944738
1.4710133e-05
0.000944771
1.4879379e-05
0.0009448043
1.5112153e-05
0.0009448401
1.5392146e-05
0.00094487729
1.569762e-05
0.00094491562
1.602746e-05
0.00094495478
1.6372745e-05
0.00094499395
1.6727738e-05
0.00094503145
1.708717e-05
0.00094506714
1.7455695e-05
0.00094509989
1.7835246e-05
0.00094512812
1.8228721e-05
0.00094514989
1.8643428e-05
0.00094515974
1.9080009e-05
0.00094514678
1.9535084e-05
0.0009450915
2.0005792e-05
0.00094495934
2.0482988e-05
0.00094469874
2.0961641e-05
0.00094422947
2.1439458e-05
0.00094343221
2.1909733e-05
0.00094217634
2.2367819e-05
0.00094035279
2.2805554e-05
0.0009378863
2.3207137e-05
0.00093475935
2.3541709e-05
0.00093102975
2.3762353e-05
0.00092680678
2.3849421e-05
0.00092221751
2.3810709e-05
0.00091738625
2.366625e-05
0.0009124177
2.3449344e-05
0.00090738654
2.3200481e-05
0.00090233636
2.2937208e-05
0.00089728923
2.263562e-05
0.00089225865
2.2275626e-05
0.00088725795
2.187408e-05
0.0008823001
2.1461011e-05
0.00087739498
2.1056067e-05
0.00087254929
2.0665833e-05
0.00086776853
2.0298074e-05
0.00086305547
1.9938316e-05
0.00085841108
1.9572443e-05
0.000853837
1.9209033e-05
0.0008493352
1.8851526e-05
0.00084490732
1.8504594e-05
0.00084055454
1.8167622e-05
0.00083627783
1.7840494e-05
0.00083207749
1.7525148e-05
0.00082795253
1.7219486e-05
0.00082390184
1.6921213e-05
0.00081992475
1.6631321e-05
0.00081602028
1.6350415e-05
0.00081218742
1.6077637e-05
0.00080842496
1.5813226e-05
0.00080473162
1.5557056e-05
0.00080110617
1.5308153e-05
0.00079754727
1.5066977e-05
0.00079405356
1.4833108e-05
0.00079062377
1.4605904e-05
0.00078725651
1.4385991e-05
0.00078395047
1.4172631e-05
0.00078070438
1.3965476e-05
0.00077751676
1.3765736e-05
0.00077438655
1.3570505e-05
0.00077131253
1.3379915e-05
0.00076829235
1.3198887e-05
0.00076531944
1.3017051e-05
0.00076237442
1.2632671e-05
0.00075934092
1.0616129e-05
0.00075625767
8.6824779e-06
0.00075328182
8.6624466e-06
0.00075043278
9.1150317e-06
0.00074770241
9.6975365e-06
0.00074505393
1.0153611e-05
0.00074245769
1.0460889e-05
0.00073989666
1.0638061e-05
0.00073736547
1.0714547e-05
0.00073485819
1.0747621e-05
0.00073238378
1.0703514e-05
0.0007298956
1.0848688e-05
0.00072750327
1.0617249e-05
0.00072458633
1.2572697e-05
1.0011291e-05
0.00097295812
5.8947463e-06
-0.00097285079
0.00097322216
7.5672566e-06
0.00097352718
8.8953317e-06
0.00097379985
9.7996712e-06
0.00097404925
1.0515232e-05
0.00097428559
1.118602e-05
0.00097450709
1.1805746e-05
0.00097471641
1.2362694e-05
0.00097491814
1.2870175e-05
0.00097511802
1.3339655e-05
0.00097531096
1.3744789e-05
0.0009754979
1.407939e-05
0.00097567181
1.4319439e-05
0.00097582614
1.4458877e-05
0.00097595503
1.4507809e-05
0.00097605608
1.4498277e-05
0.00097613288
1.4475426e-05
0.00097618839
1.4468971e-05
0.00097623181
1.4530201e-05
0.00097627311
1.4668831e-05
0.00097630932
1.4843171e-05
0.00097634533
1.5076143e-05
0.00097638327
1.53542e-05
0.00097642239
1.5658506e-05
0.00097646277
1.5987079e-05
0.00097650414
1.6331378e-05
0.00097654592
1.6685956e-05
0.00097658697
1.7046116e-05
0.00097662723
1.7415431e-05
0.00097666622
1.7796257e-05
0.00097670374
1.8191206e-05
0.00097674066
1.8606511e-05
0.00097677746
1.9043203e-05
0.00097681408
1.9498463e-05
0.00097685049
1.9969381e-05
0.00097688532
2.0448166e-05
0.00097691624
2.093072e-05
0.00097693881
2.1416885e-05
0.00097694355
2.190499e-05
0.0009769133
2.2398075e-05
0.00097681726
2.2901586e-05
0.00097660612
2.3418283e-05
0.00097619868
2.394915e-05
0.00097547297
2.4488061e-05
0.00097429458
2.5027813e-05
0.00097255058
2.5554703e-05
0.00097016516
2.6051668e-05
0.00096713886
2.6475651e-05
0.00096355023
2.6789108e-05
0.00095951184
2.6975592e-05
0.00095514548
2.7001982e-05
0.00095055896
2.6862145e-05
0.00094583246
2.6600581e-05
0.00094101646
2.6277009e-05
0.00093614171
2.5930817e-05
0.00093123185
2.5575697e-05
0.00092630987
2.5220058e-05
0.00092139523
2.4852952e-05
0.00091650196
2.4465712e-05
0.00091164041
2.4070588e-05
0.00090681883
2.3673099e-05
0.00090204456
2.3278866e-05
0.00089732396
2.2888218e-05
0.00089266229
2.2502164e-05
0.00088806359
2.2123856e-05
0.00088353033
2.175274e-05
0.00087906417
2.1387373e-05
0.00087466647
2.102902e-05
0.0008703382
2.0678688e-05
0.00086608003
2.0335812e-05
0.00086189216
2.0001089e-05
0.0008577745
1.9674719e-05
0.0008537268
1.9355856e-05
0.00084974853
1.9045245e-05
0.00084583905
1.8742588e-05
0.00084199766
1.8447295e-05
0.00083822345
1.8160203e-05
0.00083451551
1.7880571e-05
0.00083087289
1.7608097e-05
0.00082729439
1.7344231e-05
0.00082377916
1.7085732e-05
0.00082032621
1.6832867e-05
0.00081693361
1.6591485e-05
0.00081359694
1.6353725e-05
0.00081030915
1.5920464e-05
0.00080700587
1.3919402e-05
0.00080369767
1.1990683e-05
0.00080046702
1.1893093e-05
0.00079733161
1.225044e-05
0.00079429465
1.2734496e-05
0.00079133711
1.3111148e-05
0.00078843817
1.3359836e-05
0.00078558269
1.3493537e-05
0.00078276419
1.3533043e-05
0.00077997527
1.3536545e-05
0.00077722461
1.3454177e-05
0.00077446232
1.3610973e-05
0.00077181243
1.3267143e-05
0.00076857179
1.581334e-05
1.2308085e-05
0.001005578
5.8048423e-06
-0.0010054881
0.0010058105
7.3347442e-06
0.0010060941
8.6116995e-06
0.0010063588
9.5350305e-06
0.0010066029
1.0271094e-05
0.001006837
1.095193e-05
0.0010070597
1.1583011e-05
0.0010072715
1.215091e-05
0.0010074761
1.2665584e-05
0.001007678
1.3137801e-05
0.0010078731
1.3549603e-05
0.0010080617
1.3890871e-05
0.0010082373
1.4143851e-05
0.0010083937
1.4302408e-05
0.0010085256
1.4375927e-05
0.0010086306
1.4393238e-05
0.0010087118
1.4394315e-05
0.0010087719
1.4408847e-05
0.0010088197
1.4482426e-05
0.0010088639
1.4624605e-05
0.0010089029
1.4804155e-05
0.0010089411
1.5037886e-05
0.0010089808
1.5314543e-05
0.0010090214
1.5617909e-05
0.0010090632
1.594532e-05
0.0010091058
1.628875e-05
0.0010091487
1.6643019e-05
0.0010091909
1.7003928e-05
0.0010092323
1.7374064e-05
0.0010092726
1.7755916e-05
0.0010093119
1.8151924e-05
0.0010093509
1.8567469e-05
0.0010093903
1.9003829e-05
0.0010094304
1.9458351e-05
0.0010094716
1.9928234e-05
0.001009513
2.0406745e-05
0.001009554
2.0889726e-05
0.0010095942
2.1376693e-05
0.0010096328
2.1866374e-05
0.0010096692
2.2361709e-05
0.0010097027
2.2868103e-05
0.0010097318
2.3389184e-05
0.0010097525
2.3928372e-05
0.0010097552
2.4485364e-05
0.0010097205
2.506254e-05
0.0010096115
2.5663707e-05
0.0010093698
2.6293318e-05
0.0010088913
2.6954177e-05
0.0010080358
2.7644638e-05
0.0010066731
2.8338263e-05
0.0010047009
2.8974152e-05
0.0010020859
2.9477229e-05
0.0009988795
2.9806947e-05
0.0009951836
2.9972905e-05
0.00099111675
2.9997671e-05
0.00098678694
2.9905507e-05
0.00098227481
2.9732182e-05
0.00097763152
2.9496246e-05
0.00097289076
2.9206472e-05
0.00096808115
2.88802e-05
0.00096322901
2.8525237e-05
0.00095835665
2.8151222e-05
0.00095348169
2.7763185e-05
0.00094861817
2.736568e-05
0.00094377798
2.6964046e-05
0.00093897095
2.655977e-05
0.00093420478
2.6153543e-05
0.00092948556
2.5748244e-05
0.00092481832
2.5345923e-05
0.00092020731
2.4946825e-05
0.00091565576
2.4552639e-05
0.00091116614
2.4164336e-05
0.00090674043
2.3781567e-05
0.00090237997
2.3405702e-05
0.00089808572
2.3036836e-05
0.00089385836
2.2674661e-05
0.00088969813
2.2320434e-05
0.00088560512
2.1973579e-05
0.00088157923
2.1633983e-05
0.00087761999
2.1303472e-05
0.00087372716
2.097856e-05
0.00086990029
2.0659739e-05
0.00086613809
2.0353686e-05
0.00086243769
2.0054122e-05
0.00085879805
1.9560107e-05
0.00085517867
1.7538782e-05
0.00085158175
1.5587606e-05
0.00084805575
1.5419091e-05
0.00084461034
1.5695851e-05
0.00084125159
1.6093243e-05
0.00083797079
1.6391949e-05
0.00083475431
1.6576314e-05
0.00083158957
1.6658277e-05
0.00082846966
1.6652956e-05
0.00082538583
1.6620376e-05
0.0008223463
1.6493709e-05
0.0008192977
1.6659573e-05
0.00081637819
1.6186651e-05
0.00081280144
1.9390091e-05
1.4821889e-05
0.0010392849
5.7274221e-06
-0.0010392075
0.0010394902
7.1294368e-06
0.0010397526
8.3492976e-06
0.001040008
9.2796708e-06
0.0010402471
1.0031968e-05
0.0010404786
1.0720388e-05
0.0010407019
1.1359722e-05
0.0010409157
1.1937099e-05
0.0010411226
1.2458766e-05
0.0010413258
1.2934587e-05
0.0010415228
1.3352558e-05
0.0010417125
1.3701224e-05
0.0010418894
1.39669e-05
0.0010420478
1.4144024e-05
0.0010421825
1.4241229e-05
0.0010422914
1.4284365e-05
0.0010423768
1.4308934e-05
0.0010424416
1.4344055e-05
0.0010424938
1.4430206e-05
0.0010425413
1.4577086e-05
0.0010425836
1.4761889e-05
0.0010426246
1.4996808e-05
0.0010426667
1.5272525e-05
0.0010427094
1.5575186e-05
0.0010427531
1.5901615e-05
0.0010427975
1.6244351e-05
0.0010428421
1.6598445e-05
0.0010428859
1.6960121e-05
0.0010429287
1.733118e-05
0.0010429706
1.7714095e-05
0.0010430113
1.8111181e-05
0.0010430517
1.8527075e-05
0.0010430923
1.8963205e-05
0.0010431335
1.9417198e-05
0.0010431755
1.9886224e-05
0.0010432179
2.0364287e-05
0.0010432604
2.084728e-05
0.0010433025
2.1334546e-05
0.0010433438
2.1825073e-05
0.0010433841
2.232145e-05
0.0010434233
2.2828934e-05
0.0010434611
2.3351324e-05
0.0010434978
2.3891652e-05
0.0010435332
2.4449973e-05
0.0010435669
2.5028915e-05
0.0010435979
2.5632654e-05
0.0010436244
2.6266806e-05
0.0010436406
2.6938015e-05
0.001043633
2.7652233e-05
0.0010435721
2.8399205e-05
0.0010434027
2.914351e-05
0.0010430237
2.9856205e-05
0.0010422921
3.053855e-05
0.001041066
3.1199057e-05
0.0010392345
3.1829097e-05
0.001036764
3.2376058e-05
0.0010337079
3.2788266e-05
0.0010301656
3.3038558e-05
0.0010262507
3.3121387e-05
0.0010220625
3.3068348e-05
0.0010176715
3.2916286e-05
0.0010131237
3.2699037e-05
0.0010084547
3.2432197e-05
0.0010036969
3.2123416e-05
0.00099887935
3.1781608e-05
0.00099402556
3.1413562e-05
0.00098915427
3.102483e-05
0.00098428098
3.0621537e-05
0.00097941882
3.0208081e-05
0.0009745788
2.9786846e-05
0.00096976986
2.9361584e-05
0.00096499939
2.8934805e-05
0.00096027361
2.8507348e-05
0.00095559746
2.8081853e-05
0.00095097498
2.7659311e-05
0.00094640951
2.7240133e-05
0.00094190356
2.682638e-05
0.00093745919
2.6417951e-05
0.00093307798
2.6015196e-05
0.00092876089
2.5620565e-05
0.00092450894
2.5230506e-05
0.00092032276
2.4845918e-05
0.0009162021
2.447435e-05
0.0009121456
2.4110621e-05
0.00090815529
2.3550414e-05
0.00090420202
2.149205e-05
0.00090028699
1.9502638e-05
0.00089644396
1.9262122e-05
0.00089267542
1.9464392e-05
0.00088898656
1.9782106e-05
0.00088537418
2.0004322e-05
0.0008818303
2.0120196e-05
0.00087834526
2.0143314e-05
0.00087491256
2.008566e-05
0.00087152256
2.0010371e-05
0.00086818309
1.9833181e-05
0.0008648372
2.000546e-05
0.00086163711
1.9386742e-05
0.00085771243
2.3314778e-05
1.7563698e-05
0.0010741149
5.6590489e-06
-0.0010740465
0.001074297
6.9473202e-06
0.0010745391
8.1072585e-06
0.0010747843
9.0344035e-06
0.0010750183
9.7979932e-06
0.0010752468
1.04919e-05
0.0010754697
1.1136833e-05
0.0010756848
1.1722e-05
0.0010758933
1.2250264e-05
0.0010760978
1.2730128e-05
0.0010762964
1.3153893e-05
0.0010764873
1.3510385e-05
0.0010766657
1.3788506e-05
0.0010768261
1.3983619e-05
0.0010769637
1.4103622e-05
0.0010770764
1.4171611e-05
0.0010771662
1.4219197e-05
0.0010772357
1.42745e-05
0.0010772925
1.437346e-05
0.0010773435
1.4526065e-05
0.0010773891
1.4716262e-05
0.0010774331
1.4952846e-05
0.0010774775
1.5228139e-05
0.0010775223
1.5530383e-05
0.0010775678
1.585605e-05
0.0010776139
1.6198257e-05
0.0010776601
1.655228e-05
0.0010777055
1.6914702e-05
0.00107775
1.7286716e-05
0.0010777934
1.7670681e-05
0.0010778357
1.8068811e-05
0.0010778777
1.8485105e-05
0.0010779199
1.8921054e-05
0.0010779625
1.9374572e-05
0.0010780059
1.9842846e-05
0.0010780496
2.0320507e-05
0.0010780934
2.0803558e-05
0.0010781367
2.1291189e-05
0.0010781792
2.1782639e-05
0.0010782204
2.2280196e-05
0.0010782606
2.2788747e-05
0.0010782999
2.3312046e-05
0.0010783385
2.3853001e-05
0.0010783766
2.4411932e-05
0.0010784142
2.4991301e-05
0.0010784514
2.5595457e-05
0.0010784881
2.6230104e-05
0.0010785247
2.6901364e-05
0.0010785626
2.7614407e-05
0.001078602
2.8359724e-05
0.0010786401
2.9105426e-05
0.0010786686
2.9827758e-05
0.0010786719
3.0535208e-05
0.001078619
3.1251968e-05
0.0010784541
3.1994007e-05
0.0010780698
3.276035e-05
0.0010773151
3.3543018e-05
0.0010760435
3.4310088e-05
0.0010741527
3.5012175e-05
0.0010716301
3.5590976e-05
0.0010685452
3.6001149e-05
0.0010650034
3.6240906e-05
0.0010611117
3.6323901e-05
0.001056954
3.6281057e-05
0.0010525875
3.6148138e-05
0.0010480545
3.5946589e-05
0.0010433926
3.5686752e-05
0.0010386355
3.5378632e-05
0.0010338112
3.5032367e-05
0.0010289425
3.4655533e-05
0.0010240485
3.4255561e-05
0.0010191455
3.3837775e-05
0.0010142473
3.340559e-05
0.0010093651
3.2964066e-05
0.0010045084
3.2515961e-05
0.00099968539
3.2063177e-05
0.0009949025
3.160927e-05
0.00099016529
3.115516e-05
0.00098547835
3.070214e-05
0.00098084519
3.0253718e-05
0.0009762691
2.9806603e-05
0.0009717526
2.9362412e-05
0.00096729719
2.8929766e-05
0.00096290341
2.8504396e-05
0.0009585754
2.7878427e-05
0.00095428989
2.5777555e-05
0.00095004972
2.3742815e-05
0.00094588331
2.3428531e-05
0.00094178858
2.3559116e-05
0.00093776866
2.3802033e-05
0.00093382294
2.3950036e-05
0.00092994761
2.3995529e-05
0.00092613609
2.3954839e-05
0.00092238303
2.3838716e-05
0.00091867859
2.3714809e-05
0.00091503049
2.3481286e-05
0.00091137829
2.3657654e-05
0.00090788831
2.2876721e-05
0.00090360526
2.7597831e-05
2.0543325e-05
0.0011101054
5.5973282e-06
-0.0011100437
0.001110268
6.7847679e-06
0.0011104909
7.884315e-06
0.0011107255
8.7998522e-06
0.0011109539
9.5695556e-06
0.0011111789
1.0266885e-05
0.0011114007
1.0915095e-05
0.0011116164
1.1506221e-05
0.0011118263
1.2040438e-05
0.0011120319
1.252455e-05
0.0011122319
1.2953894e-05
0.0011124238
1.3318407e-05
0.0011126036
1.3608758e-05
0.0011127659
1.382128e-05
0.0011129063
1.3963204e-05
0.0011130228
1.4055098e-05
0.0011131169
1.4125173e-05
0.0011131911
1.4200224e-05
0.0011132524
1.431221e-05
0.001113307
1.4471429e-05
0.0011133561
1.4667207e-05
0.001113403
1.4905918e-05
0.0011134499
1.5181277e-05
0.0011134969
1.5483374e-05
0.0011135444
1.5808491e-05
0.0011135924
1.6150316e-05
0.0011136403
1.6504368e-05
0.0011136875
1.6867531e-05
0.0011137337
1.724053e-05
0.0011137788
1.7625551e-05
0.0011138229
1.8024708e-05
0.0011138665
1.8441452e-05
0.0011139103
1.8877276e-05
0.0011139545
1.9330366e-05
0.0011139994
1.9797968e-05
0.0011140447
2.0275253e-05
0.0011140898
2.0758384e-05
0.0011141346
2.1246415e-05
0.0011141785
2.173879e-05
0.0011142211
2.2237548e-05
0.0011142626
2.2747216e-05
0.0011143032
2.3271474e-05
0.0011143431
2.3813126e-05
0.0011143822
2.4372771e-05
0.0011144208
2.4952744e-05
0.001114459
2.5557271e-05
0.0011144972
2.6191917e-05
0.001114536
2.6862533e-05
0.001114577
2.7573359e-05
0.0011146216
2.8315223e-05
0.0011146679
2.9059099e-05
0.0011147131
2.9782501e-05
0.0011147557
3.0492596e-05
0.0011147951
3.1212614e-05
0.0011148301
3.1959032e-05
0.0011148548
3.2735576e-05
0.0011148529
3.3544959e-05
0.0011147863
3.4376727e-05
0.0011145799
3.5218593e-05
0.0011141023
3.606857e-05
0.0011131907
3.6912735e-05
0.0011117041
3.7727501e-05
0.0011095788
3.8449144e-05
0.0011068487