/*--------------------------------*- C++ -*----------------------------------*\
  =========                 |
  \\      /  F ield         | OpenFOAM: The Open Source CFD Toolbox
   \\    /   O peration     | Website:  https://openfoam.org
    \\  /    A nd           | Version:  12
     \\/     M anipulation  |
\*---------------------------------------------------------------------------*/
FoamFile
{
    format      ascii;
    class       surfaceScalarField;
    location    "400";
    object      phi;
}
// * * * * * * * * * * * * * * * * * * * * * * * * * * * * * * * * * * * * * //

dimensions      [0 3 -1 0 0 0 0];

internalField   nonuniform List<scalar> 
25880
(
2.004643e-06
1.1114541e-11
2.0046149e-06
2.8168372e-11
2.0045783e-06
3.6545798e-11
2.0045379e-06
4.0426753e-11
2.0044929e-06
4.5034186e-11
2.0044425e-06
5.0368545e-11
2.0043864e-06
5.6073537e-11
2.0043241e-06
6.2285392e-11
2.0042548e-06
6.9296484e-11
2.0041775e-06
7.7373166e-11
2.0040907e-06
8.6795771e-11
2.0039927e-06
9.7954151e-11
2.0038813e-06
1.1140957e-10
2.0037532e-06
1.2806203e-10
2.0036041e-06
1.4911286e-10
2.0034269e-06
1.7718575e-10
2.0032126e-06
2.1436555e-10
2.0029396e-06
2.7293447e-10
2.0025924e-06
3.4719271e-10
2.0020644e-06
5.2804989e-10
2.0013668e-06
6.9756166e-10
1.9993556e-06
2.0112736e-09
1.9982664e-06
1.0891941e-09
1.0283424e-06
9.69924e-07
4.3312578e-08
9.8502979e-07
2.7472409e-08
1.5840169e-08
2.5430122e-08
2.0422873e-09
2.4607477e-08
8.2264467e-10
2.402071e-08
5.8676734e-10
2.3517984e-08
5.027265e-10
2.3072994e-08
4.4498909e-10
2.26753e-08
3.9769465e-10
2.2316447e-08
3.5885305e-10
2.1989231e-08
3.2721563e-10
2.1688289e-08
3.0094263e-10
2.1409728e-08
2.7856096e-10
2.1150581e-08
2.5914648e-10
2.0908458e-08
2.4212326e-10
2.0681379e-08
2.2707905e-10
2.0467681e-08
2.1369773e-10
2.0265948e-08
2.0173342e-10
2.0074953e-08
1.9099419e-10
1.989363e-08
1.8132366e-10
1.9721053e-08
1.7257636e-10
1.9556411e-08
1.6464219e-10
1.9398998e-08
1.5741312e-10
1.9248198e-08
1.5079998e-10
1.9103446e-08
1.4475203e-10
1.8964252e-08
1.3919459e-10
1.8830184e-08
1.3406719e-10
1.8700838e-08
1.293459e-10
1.8575852e-08
1.2498649e-10
1.8454912e-08
1.2093944e-10
1.8337727e-08
1.1718554e-10
1.8224017e-08
1.1371034e-10
1.8113543e-08
1.1047393e-10
1.8006094e-08
1.0744822e-10
1.7901461e-08
1.0463304e-10
1.7799446e-08
1.0201583e-10
1.7699881e-08
9.9564841e-11
1.7602618e-08
9.7263064e-11
1.7507503e-08
9.5115147e-11
1.7414387e-08
9.3115756e-11
1.7323148e-08
9.1238709e-11
1.7233678e-08
8.9469917e-11
1.7145862e-08
8.7815911e-11
1.7059587e-08
8.6274808e-11
1.6974756e-08
8.4831609e-11
1.6891283e-08
8.3472376e-11
1.6809088e-08
8.2195715e-11
1.6728082e-08
8.1006172e-11
1.6648181e-08
7.9901008e-11
1.6569316e-08
7.886408e-11
1.6491429e-08
7.7887814e-11
1.6414449e-08
7.6979552e-11
1.6338308e-08
7.6140731e-11
1.6262944e-08
7.5364341e-11
1.6188304e-08
7.463981e-11
1.6114339e-08
7.3965145e-11
1.6040992e-08
7.3346878e-11
1.5968205e-08
7.2787094e-11
1.5895928e-08
7.2276764e-11
1.582412e-08
7.1808038e-11
1.5752736e-08
7.1384372e-11
1.5681725e-08
7.1011259e-11
1.5611035e-08
7.0689957e-11
1.5540624e-08
7.0410617e-11
1.5470456e-08
7.0167859e-11
1.5400487e-08
6.9969515e-11
1.5330666e-08
6.982025e-11
1.5260949e-08
6.9717786e-11
1.5191294e-08
6.9654756e-11
1.5121664e-08
6.9629501e-11
1.5052014e-08
6.9650734e-11
1.4982289e-08
6.9724392e-11
1.4912447e-08
6.9842562e-11
1.4842447e-08
6.999947e-11
1.4772243e-08
7.0203948e-11
1.4701779e-08
7.0464026e-11
1.4631001e-08
7.0777891e-11
1.4559862e-08
7.1139345e-11
1.4488311e-08
7.1551264e-11
1.4416286e-08
7.2024619e-11
1.4343724e-08
7.2561918e-11
1.4270568e-08
7.3156749e-11
1.4196755e-08
7.3812767e-11
1.4122211e-08
7.4544023e-11
1.4046858e-08
7.5352626e-11
1.3970624e-08
7.6233911e-11
1.3893427e-08
7.7197287e-11
1.3815167e-08
7.8260205e-11
1.3735755e-08
7.941216e-11
1.3655065e-08
8.0689661e-11
1.3576411e-08
7.8654023e-11
1.3501595e-08
7.4816263e-11
1.3430326e-08
7.126861e-11
1.3362329e-08
6.7997315e-11
1.3297345e-08
6.4983852e-11
1.3235147e-08
6.2197493e-11
1.3175537e-08
5.9610116e-11
1.3118328e-08
5.7209277e-11
1.3063344e-08
5.4984119e-11
1.3010432e-08
5.2912134e-11
1.2959458e-08
5.0973766e-11
1.2910296e-08
4.9162061e-11
1.2862823e-08
4.7472344e-11
1.2816922e-08
4.5901362e-11
1.2772488e-08
4.4434531e-11
1.2729405e-08
4.308296e-11
1.2687594e-08
4.181057e-11
1.2646802e-08
4.0791826e-11
1.2607127e-08
3.9674942e-11
1.256739e-08
3.9736876e-11
1.2529527e-08
3.7863431e-11
1.2482964e-08
4.656307e-11
2.9493763e-11
2.0345167e-06
2.2445578e-11
2.034488e-06
5.6907274e-11
2.0344507e-06
7.3853691e-11
2.0344094e-06
8.1702427e-11
2.0343634e-06
9.1012344e-11
2.034312e-06
1.0178938e-10
2.0342548e-06
1.1331385e-10
2.0341912e-06
1.2586038e-10
2.0341205e-06
1.4001941e-10
2.0340415e-06
1.5632879e-10
2.033953e-06
1.7535439e-10
2.033853e-06
1.9788296e-10
2.0337394e-06
2.250471e-10
2.0336088e-06
2.5866303e-10
2.0334567e-06
3.0115455e-10
2.0332761e-06
3.5781624e-10
2.0330576e-06
4.3285136e-10
2.0327795e-06
5.510464e-10
2.0324258e-06
7.0087502e-10
2.0318881e-06
1.0657717e-09
2.031178e-06
1.4076729e-09
2.029131e-06
4.0582936e-09
2.0280178e-06
2.2023993e-09
1.0999173e-06
1.8980244e-06
1.2999838e-07
1.9549488e-06
8.4061133e-08
6.1777417e-08
7.781424e-08
8.2891802e-09
7.5295392e-08
3.3414929e-09
7.3498372e-08
2.3837868e-09
7.1959859e-08
2.0412392e-09
7.059834e-08
1.8065083e-09
6.9381508e-08
1.6145269e-09
6.8283498e-08
1.4568633e-09
6.7282308e-08
1.3284057e-09
6.6361523e-08
1.2217273e-09
6.5509226e-08
1.1308579e-09
6.471633e-08
1.0520425e-09
6.3975518e-08
9.8293524e-10
6.3280736e-08
9.2186159e-10
6.2626895e-08
8.6753855e-10
6.200966e-08
8.1896834e-10
6.1425282e-08
7.7537239e-10
6.0870492e-08
7.3611345e-10
6.0342464e-08
7.0060414e-10
5.9838712e-08
6.6839412e-10
5.9357078e-08
6.3904716e-10
5.8895676e-08
6.1220193e-10
5.845278e-08
5.8764829e-10
5.8026887e-08
5.6508756e-10
5.761668e-08
5.4427373e-10
5.722092e-08
5.2510622e-10
5.6838498e-08
5.0740835e-10
5.6468458e-08
4.9097984e-10
5.6109903e-08
4.7574075e-10
5.5761981e-08
4.6163157e-10
5.5423962e-08
4.4849329e-10
5.5095199e-08
4.3621118e-10
5.477505e-08
4.2478214e-10
5.4462909e-08
4.1415629e-10
5.4158268e-08
4.0420662e-10
5.3860668e-08
3.9486316e-10
5.356964e-08
3.8614305e-10
5.328473e-08
3.7802531e-10
5.3005563e-08
3.7040548e-10
5.2731808e-08
3.6322577e-10
5.2463113e-08
3.5651079e-10
5.2199134e-08
3.5025391e-10
5.193957e-08
3.4439487e-10
5.1684165e-08
3.3887748e-10
5.1432666e-08
3.3369492e-10
5.1184807e-08
3.2886554e-10
5.0940329e-08
3.2437837e-10
5.0699024e-08
3.2016911e-10
5.0460706e-08
3.1620649e-10
5.0225166e-08
3.1251907e-10
4.9992193e-08
3.0911346e-10
4.9761596e-08
3.0596137e-10
4.9533216e-08
3.0302046e-10
4.9306899e-08
3.0028192e-10
4.9082474e-08
2.9777187e-10
4.8859762e-08
2.9549899e-10
4.8638611e-08
2.9342729e-10
4.8418895e-08
2.9152498e-10
4.8200474e-08
2.8980516e-10
4.7983195e-08
2.8829041e-10
4.7766899e-08
2.8698574e-10
4.7551457e-08
2.8585199e-10
4.7336758e-08
2.8486705e-10
4.7122666e-08
2.8406184e-10
4.690903e-08
2.8345583e-10
4.6695708e-08
2.8303981e-10
4.6482579e-08
2.8278434e-10
4.6269526e-08
2.8268224e-10
4.6056408e-08
2.8276853e-10
4.5843065e-08
2.8306742e-10
4.562936e-08
2.8354743e-10
4.5415175e-08
2.8418503e-10
4.5200363e-08
2.8501533e-10
4.4984756e-08
2.8607122e-10
4.4768188e-08
2.873456e-10
4.4550514e-08
2.8881352e-10
4.4331579e-08
2.9048621e-10
4.4111196e-08
2.9240805e-10
4.3889168e-08
2.9458955e-10
4.366532e-08
2.9700495e-10
4.3439464e-08
2.9966873e-10
4.3211371e-08
3.0263764e-10
4.2980802e-08
3.0592075e-10
4.2747537e-08
3.0949919e-10
4.2511324e-08
3.1341077e-10
4.2271858e-08
3.1772627e-10
4.2028866e-08
3.2240349e-10
4.1781965e-08
3.2759089e-10
4.1541292e-08
3.1932689e-10
4.1312362e-08
3.0374617e-10
4.1094287e-08
2.8934353e-10
4.0886222e-08
2.7606279e-10
4.0687377e-08
2.6382863e-10
4.0497058e-08
2.5251664e-10
4.0314655e-08
2.4201253e-10
4.0139599e-08
2.3226554e-10
3.9971352e-08
2.2323164e-10
3.9809444e-08
2.1481974e-10
3.9653467e-08
2.069504e-10
3.9503034e-08
1.9959507e-10
3.9357772e-08
1.9273494e-10
3.9217316e-08
1.8635672e-10
3.908135e-08
1.8040137e-10
3.8949519e-08
1.7491392e-10
3.8821582e-08
1.6974724e-10
3.8696763e-08
1.6561053e-10
3.8575367e-08
1.6107112e-10
3.8453779e-08
1.6132511e-10
3.8337993e-08
1.5364941e-10
3.819523e-08
1.8932592e-10
1.1931338e-10
2.0947094e-06
3.4169272e-11
2.0946796e-06
8.6667603e-11
2.0946409e-06
1.1251325e-10
2.0945982e-06
1.2448056e-10
2.0945505e-06
1.3866223e-10
2.0944972e-06
1.5507581e-10
2.0944379e-06
1.7262548e-10
2.094372e-06
1.917285e-10
2.0942988e-06
2.1328368e-10
2.094217e-06
2.3810977e-10
2.0941253e-06
2.6706774e-10
2.0940218e-06
3.0135441e-10
2.0939042e-06
3.4269255e-10
2.093769e-06
3.9384483e-10
2.0936116e-06
4.5849733e-10
2.0934248e-06
5.4470371e-10
2.0931988e-06
6.5885098e-10
2.0929112e-06
8.3864439e-10
2.0925455e-06
1.0665093e-09
2.0919899e-06
1.6214452e-09
2.0912563e-06
2.1412064e-09
2.0891422e-06
6.1724032e-09
2.0879883e-06
3.3563403e-09
1.189109e-06
2.7969037e-06
2.2183566e-07
2.9222221e-06
1.4567812e-07
1.3793495e-07
1.3485172e-07
1.911558e-08
1.3048438e-07
7.7088358e-09
1.2736816e-07
5.5000038e-09
1.2470175e-07
4.7076512e-09
1.2234253e-07
4.1657329e-09
1.2023401e-07
3.72304e-09
1.1833135e-07
3.3595223e-09
1.1659648e-07
3.0632788e-09
1.1500096e-07
2.8172535e-09
1.1352411e-07
2.6077025e-09
1.1215019e-07
2.4259611e-09
1.1086652e-07
2.2666074e-09
1.096626e-07
2.1257775e-09
1.0852963e-07
2.0005135e-09
1.0746008e-07
1.8885156e-09
1.0644747e-07
1.7879889e-09
1.0548612e-07
1.6974611e-09
1.0457114e-07
1.6155814e-09
1.0369823e-07
1.5413073e-09
1.0286364e-07
1.4736362e-09
1.020641e-07
1.4117354e-09
1.0129664e-07
1.3551148e-09
1.0055863e-07
1.3030918e-09
9.9847809e-08
1.2550988e-09
9.9162017e-08
1.2108987e-09
9.8499337e-08
1.170088e-09
9.785811e-08
1.1322064e-09
9.7236785e-08
1.0970665e-09
9.6633886e-08
1.0645299e-09
9.6048145e-08
1.0342343e-09
9.5478442e-08
1.0059142e-09
9.4923666e-08
9.7955882e-10
9.4382767e-08
9.5505469e-10
9.3854862e-08
9.3211196e-10
9.3339157e-08
9.1056793e-10
9.2834841e-08
8.9045925e-10
9.2341128e-08
8.717386e-10
9.1857365e-08
8.5416815e-10
9.1382977e-08
8.3761359e-10
9.0917359e-08
8.2212875e-10
9.0459913e-08
8.076997e-10
9.0010119e-08
7.941888e-10
8.956753e-08
7.8146695e-10
8.9131708e-08
7.6951667e-10
8.8702194e-08
7.5837987e-10
8.827854e-08
7.4803176e-10
8.7860384e-08
7.3832593e-10
8.7447401e-08
7.2918944e-10
8.7039233e-08
7.2068623e-10
8.6635514e-08
7.1283254e-10
8.6235912e-08
7.0556372e-10
8.584015e-08
6.9878289e-10
8.5447963e-08
6.9246867e-10
8.5059054e-08
6.8668052e-10
8.4673114e-08
6.8143889e-10
8.428988e-08
6.7666188e-10
8.3909128e-08
6.7227626e-10
8.3530623e-08
6.6831085e-10
8.3154095e-08
6.6481793e-10
8.2779272e-08
6.6180914e-10
8.2405928e-08
6.5919541e-10
8.203387e-08
6.569253e-10
8.1662863e-08
6.5506881e-10
8.1292648e-08
6.5367148e-10
8.0922975e-08
6.5271237e-10
8.0553635e-08
6.5212421e-10
8.0184428e-08
6.5188976e-10
7.9815107e-08
6.520892e-10
7.9445396e-08
6.5277854e-10
7.9075057e-08
6.538863e-10
7.8703884e-08
6.5535792e-10
7.8331626e-08
6.572733e-10
7.7957989e-08
6.5970868e-10
7.7582686e-08
6.6264816e-10
7.7205465e-08
6.6603448e-10
7.6826058e-08
6.6989293e-10
7.6444141e-08
6.7432547e-10
7.6059374e-08
6.7935697e-10
7.567145e-08
6.8492839e-10
7.5280046e-08
6.9107258e-10
7.4884764e-08
6.9791998e-10
7.4485192e-08
7.0549226e-10
7.4080945e-08
7.1374607e-10
7.3671588e-08
7.2276789e-10
7.3256594e-08
7.3272098e-10
7.2835488e-08
7.435087e-10
7.2407606e-08
7.554737e-10
7.1990515e-08
7.3641712e-10
7.1593775e-08
7.0048651e-10
7.1215846e-08
6.6727304e-10
7.0855262e-08
6.3664671e-10
7.0510657e-08
6.0843365e-10
7.0180826e-08
5.8234736e-10
6.9864714e-08
5.5812421e-10
6.9561333e-08
5.3564669e-10
6.9269751e-08
5.1481338e-10
6.8989156e-08
4.954147e-10
6.8718839e-08
4.7726732e-10
6.845813e-08
4.60305e-10
6.820638e-08
4.4448448e-10
6.7962962e-08
4.2977508e-10
6.7727322e-08
4.1604088e-10
6.7498851e-08
4.0338554e-10
6.7277129e-08
3.9146914e-10
6.7060812e-08
3.8192669e-10
6.6850431e-08
3.7145258e-10
6.6639724e-08
3.7203204e-10
6.6439119e-08
3.5425467e-10
6.6191505e-08
4.369394e-10
2.7468753e-10
2.1861179e-06
4.6470713e-11
2.1860867e-06
1.1792469e-10
2.186046e-06
1.5314766e-10
2.1860011e-06
1.6945249e-10
2.185951e-06
1.8875362e-10
2.185895e-06
2.1108786e-10
2.1858326e-06
2.3496457e-10
2.1857634e-06
2.6095004e-10
2.1856864e-06
2.9026664e-10
2.1856005e-06
3.2402783e-10
2.1855042e-06
3.6340387e-10
2.1853955e-06
4.1002115e-10
2.185272e-06
4.662206e-10
2.1851301e-06
5.3575626e-10
2.1849649e-06
6.2363568e-10
2.1847688e-06
7.4080259e-10
2.1845317e-06
8.9592595e-10
2.1842301e-06
1.1402446e-09
2.1838468e-06
1.4498149e-09
2.1832646e-06
2.2037171e-09
2.1824962e-06
2.9095223e-09
2.1802825e-06
8.3861787e-09
2.1790692e-06
4.5695836e-09
1.2995493e-06
3.6764237e-06
3.2394822e-07
3.8978231e-06
2.1598465e-07
2.4589853e-07
1.9993893e-07
3.5161292e-08
1.9345939e-07
1.4188378e-08
1.8883687e-07
1.0122528e-08
1.8488386e-07
8.6606635e-09
1.8138691e-07
7.6626815e-09
1.7826157e-07
6.8483724e-09
1.7544129e-07
6.1798116e-09
1.728697e-07
5.6348643e-09
1.7050468e-07
5.182274e-09
1.6831558e-07
4.7968062e-09
1.6627902e-07
4.462514e-09
1.6437623e-07
4.1694042e-09
1.6259164e-07
3.9103639e-09
1.609122e-07
3.6799542e-09
1.5932677e-07
3.4739466e-09
1.5782572e-07
3.2890399e-09
1.5640066e-07
3.1225224e-09
1.5504432e-07
2.9719143e-09
1.5375034e-07
2.8352926e-09
1.5251316e-07
2.7108176e-09
1.5132793e-07
2.5969586e-09
1.5019024e-07
2.4928062e-09
1.4909622e-07
2.3971139e-09
1.4804248e-07
2.3088368e-09
1.4702585e-07
2.2275311e-09
1.4604348e-07
2.1524609e-09
1.450929e-07
2.082782e-09
1.4417182e-07
2.0181443e-09
1.4327806e-07
1.9582916e-09
1.4240973e-07
1.9025647e-09
1.4156517e-07
1.8504738e-09
1.4074274e-07
1.8019927e-09
1.3994088e-07
1.7569156e-09
1.3915827e-07
1.7147142e-09
1.3839376e-07
1.6750869e-09
1.3764612e-07
1.6380965e-09
1.369142e-07
1.6036578e-09
1.3619703e-07
1.5713381e-09
1.3549375e-07
1.5408888e-09
1.3480348e-07
1.5124042e-09
1.3412532e-07
1.4858605e-09
1.334585e-07
1.4610072e-09
1.3280236e-07
1.4376072e-09
1.3215625e-07
1.4156258e-09
1.3151949e-07
1.3951391e-09
1.3089142e-07
1.3761026e-09
1.302715e-07
1.3582499e-09
1.2965924e-07
1.3414454e-09
1.2905412e-07
1.3258039e-09
1.284556e-07
1.3113564e-09
1.2786318e-07
1.2979854e-09
1.2727645e-07
1.2855137e-09
1.2669501e-07
1.2739003e-09
1.2611844e-07
1.2632533e-09
1.2554627e-07
1.253611e-09
1.2497811e-07
1.2448246e-09
1.2441362e-07
1.2367593e-09
1.2385247e-07
1.2294663e-09
1.2329424e-07
1.2230415e-09
1.2273855e-07
1.217507e-09
1.2218504e-07
1.2127008e-09
1.2163344e-07
1.2085274e-09
1.2108339e-07
1.2051136e-09
1.2053452e-07
1.2025441e-09
1.1998645e-07
1.200781e-09
1.1943888e-07
1.1997014e-09
1.1889149e-07
1.1992727e-09
1.1834394e-07
1.1996412e-09
1.1779581e-07
1.2009105e-09
1.1724674e-07
1.2029506e-09
1.1669644e-07
1.205661e-09
1.1614453e-07
1.2091868e-09
1.1559057e-07
1.2136688e-09
1.1503414e-07
1.2190787e-09
1.1447486e-07
1.2253115e-09
1.1391234e-07
1.2324128e-09
1.133461e-07
1.2405695e-09
1.1277562e-07
1.2498284e-09
1.1220047e-07
1.2600815e-09
1.1162016e-07
1.2713884e-09
1.1103409e-07
1.2839883e-09
1.1044166e-07
1.2979223e-09
1.0984229e-07
1.313111e-09
1.0923535e-07
1.3297124e-09
1.0862004e-07
1.3480267e-09
1.0799567e-07
1.3678774e-09
1.0736125e-07
1.3898953e-09
1.0674283e-07
1.3548397e-09
1.0615458e-07
1.2887388e-09
1.0559421e-07
1.227637e-09
1.0505957e-07
1.1712946e-09
1.0454861e-07
1.1193914e-09
1.0405955e-07
1.071401e-09
1.0359084e-07
1.0268383e-09
1.03141e-07
9.8548638e-10
1.0270865e-07
9.4715891e-10
1.022926e-07
9.1147104e-10
1.0189178e-07
8.7808532e-10
1.0150521e-07
8.4687925e-10
1.0113192e-07
8.1777341e-10
1.0077098e-07
7.9071133e-10
1.0042158e-07
7.6544341e-10
1.000828e-07
7.4215968e-10
9.9754039e-08
7.2023466e-10
9.9433292e-08
7.0267285e-10
9.9121348e-08
6.8339746e-10
9.880894e-08
6.8444002e-10
9.8511536e-08
6.516587e-10
9.8144255e-08
8.0422039e-10
5.0490912e-10
2.3101046e-06
5.9547382e-11
2.3100713e-06
1.5118777e-10
2.3100281e-06
1.9642665e-10
2.3099802e-06
2.1736186e-10
2.3099268e-06
2.4211439e-10
2.3098671e-06
2.7075013e-10
2.3098007e-06
3.0135865e-10
2.309727e-06
3.3466391e-10
2.3096451e-06
3.7223216e-10
2.3095536e-06
4.1549015e-10
2.3094511e-06
4.6593652e-10
2.3093354e-06
5.256535e-10
2.309204e-06
5.976378e-10
2.3090531e-06
6.8669528e-10
2.3088775e-06
7.9923473e-10
2.308669e-06
9.4926618e-10
2.3084171e-06
1.1478733e-09
2.3080967e-06
1.4606557e-09
2.3076896e-06
1.856873e-09
2.3070715e-06
2.8217642e-09
2.3062564e-06
3.7246557e-09
2.3039085e-06
1.073408e-08
2.302616e-06
5.8620579e-09
1.435122e-06
4.5439178e-06
4.4172965e-07
4.8912154e-06
2.9912737e-07
3.885008e-07
2.7692299e-07
5.7365677e-08
2.6794028e-07
2.3171086e-08
2.6153671e-07
1.6526101e-08
2.5606404e-07
1.4133333e-08
2.5122366e-07
1.2503065e-08
2.468976e-07
1.1174432e-08
2.4299359e-07
1.0083818e-08
2.3943379e-07
9.1946616e-09
2.3615991e-07
8.4561539e-09
2.3312951e-07
7.8272065e-09
2.3031024e-07
7.2817886e-09
2.2767608e-07
6.8035645e-09
2.2520552e-07
6.3809206e-09
2.2288049e-07
6.0049855e-09
2.2068557e-07
5.6688642e-09
2.1860744e-07
5.3671705e-09
2.1663449e-07
5.0954765e-09
2.1475666e-07
4.8497414e-09
2.1296513e-07
4.6268218e-09
2.1125223e-07
4.4237223e-09
2.0961124e-07
4.2379463e-09
2.0803604e-07
4.0679991e-09
2.065213e-07
3.9118598e-09
2.0506231e-07
3.7678233e-09
2.0365469e-07
3.6351538e-09
2.0229449e-07
3.5126591e-09
2.0097831e-07
3.3989666e-09
1.9970295e-07
3.2934965e-09
1.9846542e-07
3.1958289e-09
1.9726308e-07
3.1048984e-09
1.9609365e-07
3.019904e-09
1.9495485e-07
2.9407937e-09
1.9384453e-07
2.8672354e-09
1.9276087e-07
2.7983748e-09
1.9170224e-07
2.7337166e-09
1.9066698e-07
2.6733559e-09
1.8965348e-07
2.6171563e-09
1.886604e-07
2.5644196e-09
1.8768655e-07
2.5147374e-09
1.867307e-07
2.4682566e-09
1.8579162e-07
2.4249409e-09
1.8486824e-07
2.3843859e-09
1.8395964e-07
2.3462053e-09
1.8306493e-07
2.3103385e-09
1.8218316e-07
2.276908e-09
1.8131342e-07
2.2458431e-09
1.8045496e-07
2.2167136e-09
1.7960711e-07
2.1892962e-09
1.7876914e-07
2.1637733e-09
1.779403e-07
2.1401978e-09
1.771199e-07
2.1183799e-09
1.7630738e-07
2.0980321e-09
1.755022e-07
2.079085e-09
1.7470374e-07
2.0617126e-09
1.7391137e-07
2.0459788e-09
1.7312455e-07
2.0316437e-09
1.7234283e-07
2.0184875e-09
1.715657e-07
2.0065902e-09
1.7079263e-07
1.9961085e-09
1.7002306e-07
1.9870791e-09
1.6925652e-07
1.9792406e-09
1.6849261e-07
1.9724361e-09
1.6773086e-07
1.9668694e-09
1.6697072e-07
1.9626796e-09
1.662117e-07
1.9598065e-09
1.6545335e-07
1.9580508e-09
1.6469526e-07
1.9573577e-09
1.6393694e-07
1.9579641e-09
1.6317781e-07
1.9600398e-09
1.6241739e-07
1.9633757e-09
1.6165524e-07
1.9678067e-09
1.6089086e-07
1.9735672e-09
1.6012364e-07
1.9808875e-09
1.59353e-07
1.9897232e-09
1.585784e-07
1.9999035e-09
1.5779932e-07
2.011501e-09
1.5701507e-07
2.0248203e-09
1.5622496e-07
2.0399389e-09
1.5542835e-07
2.0566819e-09
1.546246e-07
2.0751449e-09
1.5381287e-07
2.0957175e-09
1.5299232e-07
2.1184685e-09
1.5216216e-07
2.1432688e-09
1.513215e-07
2.1703747e-09
1.5046925e-07
2.200276e-09
1.4960444e-07
2.2326868e-09
1.487257e-07
2.2686371e-09
1.4786911e-07
2.2114285e-09
1.4705431e-07
2.1035442e-09
1.4627813e-07
2.0038196e-09
1.4553756e-07
1.9118626e-09
1.448298e-07
1.8271501e-09
1.4415238e-07
1.7488241e-09
1.4350312e-07
1.6760924e-09
1.4288001e-07
1.6086002e-09
1.4228112e-07
1.5460435e-09
1.417048e-07
1.4877953e-09
1.4114958e-07
1.4333048e-09
1.4061409e-07
1.382371e-09
1.40097e-07
1.3348643e-09
1.3959701e-07
1.2906928e-09
1.3911301e-07
1.2494497e-09
1.3864372e-07
1.211444e-09
1.381883e-07
1.1756552e-09
1.37744e-07
1.1469793e-09
1.3731188e-07
1.1155122e-09
1.3687916e-07
1.1171646e-09
1.3646723e-07
1.0635844e-09
1.3595836e-07
1.3130912e-09
8.2372035e-10
2.4685171e-06
7.3613055e-11
2.4684813e-06
1.8701058e-10
2.4684346e-06
2.4308109e-10
2.468383e-06
2.6902098e-10
2.4683254e-06
2.9964874e-10
2.4682611e-06
3.3507209e-10
2.4681895e-06
3.7292909e-10
2.4681101e-06
4.1411231e-10
2.4680218e-06
4.6055787e-10
2.4679232e-06
5.1402948e-10
2.4678128e-06
5.7637854e-10
2.4676883e-06
6.5017662e-10
2.4675468e-06
7.3912423e-10
2.4673843e-06
8.4915621e-10
2.4671954e-06
9.8818436e-10
2.4669711e-06
1.1735098e-09
2.4667002e-06
1.4188006e-09
2.4663558e-06
1.8050722e-09
2.4659184e-06
2.2942427e-09
2.4652547e-06
3.4854636e-09
2.4643798e-06
4.5995348e-09
2.4618609e-06
1.3253052e-08
2.4604675e-06
7.255457e-09
1.6000696e-06
5.4043156e-06
5.8104148e-07
5.9102435e-06
3.999313e-07
5.6961098e-07
3.7029008e-07
8.7006895e-08
3.5826514e-07
3.5196028e-08
3.4970588e-07
2.5085356e-08
3.4239604e-07
2.1443176e-08
3.3593188e-07
1.8967222e-08
3.3015434e-07
1.695197e-08
3.2494006e-07
1.5298106e-08
3.2018529e-07
1.394943e-08
3.1581227e-07
1.2829169e-08
3.1176433e-07
1.1875145e-08
3.0799826e-07
1.1047858e-08
3.0447934e-07
1.0322488e-08
3.0117885e-07
9.681406e-09
2.9807268e-07
9.1111617e-09
2.9514024e-07
8.6013046e-09
2.9236374e-07
8.1436652e-09
2.897277e-07
7.7315234e-09
2.8721868e-07
7.3587586e-09
2.8482491e-07
7.0205918e-09
2.8253614e-07
6.7124923e-09
2.8034341e-07
6.4306732e-09
2.7823856e-07
6.1728523e-09
2.7621444e-07
5.9359822e-09
2.7426478e-07
5.7174769e-09
2.7238373e-07
5.5162031e-09
2.7056603e-07
5.3303648e-09
2.6880711e-07
5.1578876e-09
2.6710272e-07
4.9978789e-09
2.6544885e-07
4.8496989e-09
2.6384201e-07
4.7117469e-09
2.622791e-07
4.5828053e-09
2.6075712e-07
4.4627809e-09
2.5927318e-07
4.3511756e-09
2.5782485e-07
4.2467057e-09
2.5640995e-07
4.1486145e-09
2.5502627e-07
4.057035e-09
2.5367166e-07
3.9717647e-09
2.5234432e-07
3.8917561e-09
2.5104268e-07
3.8163854e-09
2.4976507e-07
3.745865e-09
2.4850987e-07
3.6801434e-09
2.4727564e-07
3.618614e-09
2.4606115e-07
3.5606919e-09
2.4486521e-07
3.5062787e-09
2.4368656e-07
3.4555574e-09
2.4252398e-07
3.4084244e-09
2.4137646e-07
3.3642335e-09
2.4024311e-07
3.3226428e-09
2.3912296e-07
3.2839221e-09
2.3801501e-07
3.2481539e-09
2.3691833e-07
3.2150545e-09
2.3583218e-07
3.1841896e-09
2.3475581e-07
3.1554503e-09
2.3368843e-07
3.129097e-09
2.3262918e-07
3.1052287e-09
2.3157733e-07
3.0834859e-09
2.3053229e-07
3.063535e-09
2.2949338e-07
3.0454926e-09
2.284599e-07
3.0295962e-09
2.2743107e-07
3.0159032e-09
2.2640629e-07
3.0040208e-09
2.2538502e-07
2.9937097e-09
2.2436661e-07
2.9852742e-09
2.2335037e-07
2.9789269e-09
2.2233559e-07
2.9745791e-09
2.2132171e-07
2.9719298e-09
2.2030818e-07
2.9708937e-09
2.1929432e-07
2.9718277e-09
2.1827936e-07
2.9749905e-09
2.1726267e-07
2.9800689e-09
2.1624367e-07
2.9868117e-09
2.1522166e-07
2.9955704e-09
2.1419586e-07
3.0066954e-09
2.1316546e-07
3.020122e-09
2.1212977e-07
3.0355919e-09
2.1108806e-07
3.053213e-09
2.1003943e-07
3.0734458e-09
2.0898296e-07
3.0964109e-09
2.079178e-07
3.1218441e-09
2.0684305e-07
3.1498886e-09
2.0575764e-07
3.1811341e-09
2.0466042e-07
3.2156879e-09
2.0355033e-07
3.2533548e-09
2.0242618e-07
3.2945215e-09
2.0128653e-07
3.3399313e-09
2.0013006e-07
3.3891533e-09
1.9895495e-07
3.4437517e-09
1.9780944e-07
3.3569342e-09
1.967198e-07
3.1931875e-09
1.9568179e-07
3.041826e-09
1.946914e-07
2.9022532e-09
1.9374488e-07
2.7736747e-09
1.9283891e-07
2.6547898e-09
1.9197061e-07
2.5443959e-09
1.9113725e-07
2.4419527e-09
1.903363e-07
2.3469995e-09
1.8956551e-07
2.2585865e-09
1.8882294e-07
2.1758771e-09
1.8810674e-07
2.0985648e-09
1.8741515e-07
2.0264533e-09
1.8674644e-07
1.9594031e-09
1.8609909e-07
1.896798e-09
1.8547143e-07
1.8391047e-09
1.8486231e-07
1.7847759e-09
1.8426806e-07
1.7412287e-09
1.8369012e-07
1.6934578e-09
1.831114e-07
1.6958799e-09
1.8256051e-07
1.6144749e-09
1.8187981e-07
1.993791e-09
1.2500753e-09
2.6637161e-06
8.8902198e-11
2.6636771e-06
2.2600355e-10
2.6636263e-06
2.9391982e-10
2.66357e-06
3.2532981e-10
2.6635072e-06
3.6235829e-10
2.6634371e-06
4.0517159e-10
2.6633592e-06
4.5091701e-10
2.6632726e-06
5.0066929e-10
2.6631764e-06
5.5676653e-10
2.6630691e-06
6.2133871e-10
2.6629488e-06
6.9662009e-10
2.6628133e-06
7.85713e-10
2.6626593e-06
8.9308111e-10
2.6624826e-06
1.0258835e-09
2.6622771e-06
1.1936606e-09
2.6620334e-06
1.4172825e-09
2.661739e-06
1.7132103e-09
2.6613649e-06
2.1791792e-09
2.66089e-06
2.7690902e-09
2.6601699e-06
4.2055816e-09
2.6592212e-06
5.5482222e-09
2.6564911e-06
1.5983188e-08
2.6549728e-06
8.7737441e-09
1.7990517e-06
6.2602367e-06
7.4835418e-07
6.960941e-06
5.2408476e-07
7.938804e-07
4.8534278e-07
1.2574888e-07
4.6956752e-07
5.0971282e-08
4.5836475e-07
3.6288132e-08
4.4880493e-07
3.1002998e-08
4.4035241e-07
2.7419735e-08
4.3279704e-07
2.4507343e-08
4.2597735e-07
2.2117795e-08
4.1975809e-07
2.0168688e-08
4.1403774e-07
1.8549518e-08
4.0874224e-07
1.7170653e-08
4.038151e-07
1.5974998e-08
3.9921097e-07
1.4926619e-08
3.9489235e-07
1.4000021e-08
3.9082773e-07
1.3175781e-08
3.8699023e-07
1.2438806e-08
3.833566e-07
1.1777294e-08
3.799066e-07
1.1181528e-08
3.7662269e-07
1.0642671e-08
3.7348946e-07
1.0153812e-08
3.7049354e-07
9.7084124e-09
3.6762322e-07
9.301001e-09
3.6486781e-07
8.9282595e-09
3.6221798e-07
8.5858093e-09
3.5966555e-07
8.2699135e-09
3.5720284e-07
7.9789095e-09
3.5482299e-07
7.7102192e-09
3.5252002e-07
7.4608558e-09
3.5028839e-07
7.22951e-09
3.4812283e-07
7.0152531e-09
3.4601878e-07
6.8157941e-09
3.4397222e-07
6.6293686e-09
3.4197918e-07
6.4558215e-09
3.4003592e-07
6.2944412e-09
3.3813923e-07
6.1433898e-09
3.3628628e-07
6.0015656e-09
3.3447417e-07
5.8691441e-09
3.327001e-07
5.7458397e-09
3.309617e-07
5.630155e-09
3.292569e-07
5.5211819e-09
3.2758355e-07
5.4192122e-09
3.2593952e-07
5.3241765e-09
3.2432293e-07
5.2352086e-09
3.2273215e-07
5.1514636e-09
3.2116564e-07
5.0727905e-09
3.1962175e-07
4.9994496e-09
3.1809888e-07
4.9312964e-09
3.1659571e-07
4.8674062e-09
3.1511107e-07
4.8072799e-09
3.1364369e-07
4.7512973e-09
3.1219227e-07
4.6995815e-09
3.1075559e-07
4.6517285e-09
3.0933267e-07
4.6071129e-09
3.0792255e-07
4.5655719e-09
3.0652417e-07
4.5274768e-09
3.0513642e-07
4.4929737e-09
3.0375836e-07
4.4615501e-09
3.0238917e-07
4.4327225e-09
3.0102801e-07
4.4066533e-09
2.9967392e-07
4.3836845e-09
2.9832592e-07
4.3639026e-09
2.969832e-07
4.3467456e-09
2.9564504e-07
4.3318644e-09
2.9431062e-07
4.3196927e-09
2.9297901e-07
4.3105398e-09
2.9164931e-07
4.3042817e-09
2.9032075e-07
4.3004852e-09
2.8899262e-07
4.2990238e-09
2.8766404e-07
4.3004093e-09
2.8633401e-07
4.3050184e-09
2.8500168e-07
4.3124039e-09
2.8366629e-07
4.322201e-09
2.8232695e-07
4.3349125e-09
2.809826e-07
4.3510465e-09
2.796322e-07
4.3705137e-09
2.7827485e-07
4.3929416e-09
2.7690958e-07
4.4184826e-09
2.7553523e-07
4.4478013e-09
2.7415056e-07
4.4810758e-09
2.7275448e-07
4.5179264e-09
2.7134581e-07
4.558557e-09
2.6992313e-07
4.6038189e-09
2.6848495e-07
4.6538716e-09
2.6702987e-07
4.708434e-09
2.6555633e-07
4.768062e-09
2.6406243e-07
4.8338313e-09
2.6254646e-07
4.9051232e-09
2.61006e-07
4.9842026e-09
2.5950433e-07
4.8586046e-09
2.5807587e-07
4.6216565e-09
2.5671506e-07
4.4026298e-09
2.5541665e-07
4.2006599e-09
2.5417573e-07
4.0145965e-09
2.5298796e-07
3.8425598e-09
2.5184955e-07
3.6828094e-09
2.5075694e-07
3.5345612e-09
2.4970679e-07
3.3971494e-09
2.4869618e-07
3.2692024e-09
2.4772254e-07
3.1495089e-09
2.4678348e-07
3.0376235e-09
2.4587668e-07
2.9332623e-09
2.4499986e-07
2.8362239e-09
2.4415103e-07
2.7456182e-09
2.4332802e-07
2.6621174e-09
2.4252931e-07
2.5834848e-09
2.4175011e-07
2.5204317e-09
2.4099228e-07
2.4512895e-09
2.402335e-07
2.4546577e-09
2.3951121e-07
2.3367702e-09
2.3861854e-07
2.8864599e-09
1.8091375e-09
2.8986105e-06
1.0567498e-10
2.8985677e-06
2.6884775e-10
2.8985117e-06
3.4984918e-10
2.8984498e-06
3.8729813e-10
2.8983807e-06
4.3136676e-10
2.8983036e-06
4.8230216e-10
2.8982178e-06
5.3671349e-10
2.8981226e-06
5.9587394e-10
2.8980168e-06
6.625625e-10
2.8978988e-06
7.3931097e-10
2.8977667e-06
8.2877299e-10
2.8976178e-06
9.346317e-10
2.8974487e-06
1.0621857e-09
2.8972546e-06
1.2199335e-09
2.8970291e-06
1.4191961e-09
2.8967616e-06
1.6847485e-09
2.8964387e-06
2.0360966e-09
2.8960286e-06
2.589272e-09
2.8955084e-06
3.2893365e-09
2.89472e-06
4.9939882e-09
2.893682e-06
6.5861861e-09
2.8906967e-06
1.8968462e-08
2.8890268e-06
1.0443705e-08
2.0371536e-06
7.11211e-06
9.508073e-07
8.0472873e-06
6.7827675e-07
1.066411e-06
6.2833794e-07
1.7568769e-07
6.0791711e-07
7.1392111e-08
5.9345908e-07
5.0746157e-08
5.8113293e-07
4.3329156e-08
5.7023586e-07
3.8316803e-08
5.6049382e-07
3.4249378e-08
5.5169858e-07
3.0913037e-08
5.4367641e-07
2.8190861e-08
5.3629675e-07
2.5929178e-08
5.2946424e-07
2.4003161e-08
5.2310618e-07
2.2333063e-08
5.1716418e-07
2.0868614e-08
5.1159001e-07
1.957419e-08
5.0634311e-07
1.8422685e-08
5.0138887e-07
1.7393047e-08
4.9669737e-07
1.6468795e-08
4.9224254e-07
1.5636358e-08
4.880018e-07
1.4883409e-08
4.8395533e-07
1.4200285e-08
4.8008587e-07
1.3577872e-08
4.7637834e-07
1.3008532e-08
4.7281899e-07
1.2487601e-08
4.693958e-07
1.2009001e-08
4.660982e-07
1.1567513e-08
4.6291633e-07
1.116078e-08
4.5984132e-07
1.0785227e-08
4.5686548e-07
1.0436696e-08
4.5398166e-07
1.0113333e-08
4.5118308e-07
9.8138341e-09
4.4846384e-07
9.5350313e-09
4.4581876e-07
9.2744536e-09
4.4324272e-07
9.0318546e-09
4.4073091e-07
8.8062529e-09
4.382792e-07
8.5951061e-09
4.358839e-07
8.396863e-09
4.335413e-07
8.2117452e-09
4.3124777e-07
8.0393638e-09
4.2900028e-07
7.8776509e-09
4.2679613e-07
7.7253282e-09
4.2463256e-07
7.5827814e-09
4.2250682e-07
7.4499213e-09
4.2041647e-07
7.3255528e-09
4.1835944e-07
7.2084961e-09
4.163337e-07
7.0985277e-09
4.1433715e-07
6.9960046e-09
4.1236771e-07
6.9007334e-09
4.1042368e-07
6.8114356e-09
4.0850356e-07
6.7274057e-09
4.0660569e-07
6.6491606e-09
4.047284e-07
6.5768774e-09
4.0287013e-07
6.510001e-09
4.0102958e-07
6.4476606e-09
3.9920553e-07
6.3896206e-09
3.9739661e-07
6.3363928e-09
3.956014e-07
6.2881863e-09
3.9381866e-07
6.2442943e-09
3.9204734e-07
6.2040402e-09
3.9028635e-07
6.1676413e-09
3.8853446e-07
6.1355744e-09
3.867904e-07
6.1079655e-09
3.8505311e-07
6.0840371e-09
3.8332167e-07
6.0632973e-09
3.8159502e-07
6.0463428e-09
3.7987195e-07
6.0336094e-09
3.7815131e-07
6.0249296e-09
3.7643209e-07
6.0197012e-09
3.7471337e-07
6.0177423e-09
3.7299402e-07
6.0197629e-09
3.7127274e-07
6.0262932e-09
3.6954843e-07
6.0367167e-09
3.6782011e-07
6.0505209e-09
3.6608662e-07
6.0684009e-09
3.643466e-07
6.0910696e-09
3.625987e-07
6.1184084e-09
3.6084175e-07
6.149898e-09
3.5907448e-07
6.1857465e-09
3.572954e-07
6.2268813e-09
3.5550292e-07
6.2735574e-09
3.536956e-07
6.325247e-09
3.5187193e-07
6.382231e-09
3.5003005e-07
6.4456984e-09