/*--------------------------------*- C++ -*----------------------------------*\
  =========                 |
  \\      /  F ield         | OpenFOAM: The Open Source CFD Toolbox
   \\    /   O peration     | Website:  https://openfoam.org
    \\  /    A nd           | Version:  12
     \\/     M anipulation  |
\*---------------------------------------------------------------------------*/
FoamFile
{
    format      ascii;
    class       volVectorField;
    location    "400";
    object      U;
}
// * * * * * * * * * * * * * * * * * * * * * * * * * * * * * * * * * * * * * //

dimensions      [0 1 -1 0 0 0 0];

internalField   nonuniform List<vector> 
13056
(
(1 1.3847493e-10 8.7210931e-25)
(0.99998957 3.981605e-10 0)
(0.99997233 5.8609425e-10 0)
(0.99995322 7.3551329e-10 0)
(0.99993212 9.2925368e-10 0)
(0.99990845 1.1782362e-09 0)
(0.99988203 1.4861569e-09 0)
(0.99985268 1.869001e-09 0)
(0.99982008 2.3520324e-09 0)
(0.99978375 2.9669348e-09 0)
(0.99974311 3.754336e-09 0)
(0.99969742 4.7700551e-09 0)
(0.99964568 6.0927102e-09 0)
(0.9995866 7.8403614e-09 0)
(0.9995183 1.018017e-08 0)
(0.99943827 1.3423815e-08 0)
(0.99934208 1.7914497e-08 0)
(0.999225 2.4977226e-08 0)
(0.99907079 3.4490474e-08 0)
(0.99887916 5.6362156e-08 0)
(0.99854701 7.905309e-08 0)
(0.99818178 2.3877012e-07 0)
(0.9965576 1.3363023e-07 -2.6769211e-21)
(0.99706627 0.00011960211 2.8059982e-16)
(0.028680149 0.00012527272 0)
(0.014466105 4.705487e-07 -9.8694196e-20)
(0.012936176 1.9131035e-07 1.6369987e-17)
(0.012433803 2.0133511e-08 2.2615821e-21)
(0.012115138 1.4280341e-08 0)
(0.011848528 1.2144254e-08 0)
(0.01161374 1.0658159e-08 0)
(0.011404692 9.4333782e-09 0)
(0.011217042 8.4290928e-09 0)
(0.011046732 7.6101313e-09 0)
(0.010890637 6.927764e-09 0)
(0.010746531 6.3449713e-09 0)
(0.010612761 5.8386886e-09 0)
(0.010488018 5.3944976e-09 0)
(0.010371228 5.0017212e-09 0)
(0.010261491 4.6521063e-09 0)
(0.010158048 4.3392057e-09 0)
(0.010060246 4.0579224e-09 0)
(0.0099675148 3.8042486e-09 0)
(0.0098793597 3.5742682e-09 0)
(0.009795353 3.3652435e-09 0)
(0.0097151125 3.1743139e-09 0)
(0.009638317 2.9991673e-09 0)
(0.0095646725 2.8385419e-09 0)
(0.0094939104 2.6903962e-09 0)
(0.0094258095 2.5532469e-09 0)
(0.0093601616 2.4264538e-09 0)
(0.0092967705 2.308782e-09 0)
(0.0092354712 2.1990472e-09 0)
(0.009176117 2.0967262e-09 0)
(0.009118562 2.0013741e-09 0)
(0.0090626746 1.9119843e-09 0)
(0.009008348 1.8279244e-09 0)
(0.0089554785 1.7490985e-09 0)
(0.0089039601 1.6751005e-09 0)
(0.0088537015 1.6052134e-09 0)
(0.0088046279 1.5390648e-09 0)
(0.008756665 1.4766565e-09 0)
(0.0087097339 1.4177663e-09 0)
(0.0086637656 1.3618378e-09 0)
(0.0086187068 1.3085849e-09 0)
(0.0085745025 1.2580666e-09 0)
(0.0085310935 1.2101321e-09 0)
(0.0084884264 1.1644766e-09 0)
(0.008446457 1.1208231e-09 0)
(0.0084051455 1.0791173e-09 0)
(0.0083644494 1.0393488e-09 0)
(0.0083243242 1.0014145e-09 0)
(0.0082847304 9.6502102e-10 0)
(0.0082456393 9.3003658e-10 0)
(0.008207019 8.9652674e-10 0)
(0.0081688337 8.6443311e-10 0)
(0.0081310498 8.3362555e-10 0)
(0.0080936388 8.0392823e-10 0)
(0.0080565772 7.752963e-10 0)
(0.0080198388 7.4776398e-10 0)
(0.0079833936 7.2130517e-10 0)
(0.0079472131 6.9577836e-10 0)
(0.0079112766 6.7107183e-10 0)
(0.0078755632 6.4720414e-10 0)
(0.0078400488 6.2418329e-10 0)
(0.0078047069 6.0198817e-10 0)
(0.0077695125 5.8048735e-10 0)
(0.0077344487 5.5961428e-10 0)
(0.0076994957 5.394184e-10 0)
(0.007664629 5.1989555e-10 0)
(0.007629824 5.009988e-10 0)
(0.0075950588 4.8264073e-10 0)
(0.0075603158 4.6479317e-10 0)
(0.0075255748 4.4749319e-10 0)
(0.0074908094 4.3074956e-10 0)
(0.0074559937 4.1447712e-10 0)
(0.0074211093 3.9862074e-10 0)
(0.0073861358 3.8321711e-10 0)
(0.0073510459 3.6827958e-10 0)
(0.0073158112 3.5376896e-10 0)
(0.0072804065 3.3962751e-10 0)
(0.0072448093 3.2585135e-10 0)
(0.0072089915 3.1246759e-10 0)
(0.0071729198 2.994566e-10 0)
(0.0071365635 2.8676476e-10 0)
(0.0070998956 2.7438681e-10 0)
(0.0070628818 2.6235203e-10 0)
(0.0070254809 2.5063566e-10 0)
(0.0069876566 2.391957e-10 0)
(0.0069493724 2.2804013e-10 0)
(0.0069105821 2.1719183e-10 0)
(0.006871232 2.0659014e-10 0)
(0.0068312871 1.9629931e-10 0)
(0.0067915661 1.8657266e-10 0)
(0.0067533248 1.775364e-10 0)
(0.0067169236 1.6918004e-10 0)
(0.0066822216 1.6147322e-10 0)
(0.0066490841 1.5437265e-10 0)
(0.0066173886 1.4780455e-10 0)
(0.006587031 1.417033e-10 0)
(0.0065579169 1.3604088e-10 0)
(0.0065299546 1.307917e-10 0)
(0.0065030605 1.2590165e-10 0)
(0.0064771653 1.2132497e-10 0)
(0.006452205 1.1704691e-10 0)
(0.0064281174 1.1305589e-10 0)
(0.0064048429 1.0934478e-10 0)
(0.0063823226 1.0587863e-10 0)
(0.0063605115 1.0268363e-10 0)
(0.0063393395 9.9679551e-11 0)
(0.0063187983 9.7269636e-11 0)
(0.0062986414 9.4656357e-11 0)
(0.0062792178 9.4747467e-11 0)
(0.0062589893 3.3813591e-10 0)
(0.0062414822 1.094835e-10 1.5507371e-22)
(0.0062123463 2.64677e-10 0)
(1 4.184989e-10 0)
(0.99998952 1.2041344e-09 0)
(0.99997218 1.773082e-09 0)
(0.99995297 2.2252863e-09 0)
(0.99993173 2.8113828e-09 0)
(0.99990792 3.56452e-09 0)
(0.99988135 4.4958604e-09 0)
(0.99985183 5.6536948e-09 0)
(0.99981904 7.1143749e-09 0)
(0.99978251 8.9736497e-09 0)
(0.99974166 1.1354278e-08 0)
(0.99969572 1.4424898e-08 0)
(0.99964372 1.8423005e-08 0)
(0.99958434 2.3705217e-08 0)
(0.99951572 3.0776386e-08 0)
(0.99943533 4.0577882e-08 0)
(0.99933871 5.4145663e-08 0)
(0.99922114 7.5481681e-08 0)
(0.99906632 1.0421426e-07 0)
(0.99887401 1.7026454e-07 0)
(0.99854078 2.3876228e-07 0)
(0.99817452 7.2110237e-07 0)
(0.99654563 4.0331965e-07 9.8089554e-21)
(0.99705216 0.0003604798 -3.1457569e-21)
(0.08400215 0.00036868206 0)
(0.043614206 8.2243921e-06 0)
(0.039001183 1.0777583e-06 2.2743332e-20)
(0.037487615 4.2436877e-07 0)
(0.036525697 3.00055e-07 -1.9300703e-21)
(0.035721583 2.5473372e-07 0)
(0.035013712 2.2338228e-07 0)
(0.034383493 1.9774079e-07 0)
(0.033817758 1.7668193e-07 0)
(0.033304301 1.5948542e-07 0)
(0.032833714 1.4516672e-07 0)
(0.032399274 1.3294862e-07 0)
(0.031995993 1.2234079e-07 0)
(0.03161993 1.1303288e-07 0)
(0.031267838 1.0480119e-07 0)
(0.030937014 9.7473643e-08 0)
(0.030625161 9.0915768e-08 0)
(0.030330314 8.5021792e-08 0)
(0.030050753 7.970505e-08 0)
(0.029784988 7.4886873e-08 0)
(0.029531729 7.0506267e-08 0)
(0.029289823 6.6505523e-08 0)
(0.029058303 6.2836897e-08 0)
(0.028836282 5.9470038e-08 0)
(0.028622951 5.6366198e-08 0)
(0.028417642 5.3493654e-08 0)
(0.028219728 5.0836231e-08 0)
(0.028028618 4.8370536e-08 0)
(0.027843814 4.6071996e-08 0)
(0.027664873 4.3928429e-08 0)
(0.027491357 4.1929797e-08 0)
(0.027322869 4.0057217e-08 0)
(0.027159085 3.8296806e-08 0)
(0.026999694 3.6645046e-08 0)
(0.026844376 3.5094204e-08 0)
(0.026692856 3.3630333e-08 0)
(0.026544908 3.2245051e-08 0)
(0.026400309 3.0937391e-08 0)
(0.026258821 2.9703107e-08 0)
(0.026120235 2.8531562e-08 0)
(0.025984391 2.7416399e-08 0)
(0.025851123 2.6357753e-08 0)
(0.025720252 2.5353179e-08 0)
(0.025591619 2.4396462e-08 0)
(0.025465088 2.3482058e-08 0)
(0.025340541 2.260817e-08 0)
(0.025217849 2.1774657e-08 0)
(0.025096878 2.0979334e-08 0)
(0.02497751 2.0216672e-08 0)
(0.024859657 1.9483649e-08 0)
(0.024743223 1.8781049e-08 0)
(0.0246281 1.8108114e-08 0)
(0.024514188 1.7462071e-08 0)
(0.0244014 1.6839532e-08 0)
(0.024289665 1.6239225e-08 0)
(0.024178904 1.5661758e-08 0)
(0.024069027 1.510667e-08 0)
(0.023959949 1.4571221e-08 0)
(0.023851606 1.4053116e-08 0)
(0.023743935 1.3552379e-08 0)
(0.023636864 1.3069358e-08 0)
(0.023530314 1.2603515e-08 0)
(0.023424208 1.2152392e-08 0)
(0.023318495 1.1714496e-08 0)
(0.023213116 1.129059e-08 0)
(0.023107998 1.0880798e-08 0)
(0.023003066 1.0484102e-08 0)
(0.022898253 1.0098815e-08 0)
(0.022793507 9.7242123e-09 0)
(0.022688767 9.3610128e-09 0)
(0.022583954 9.0094131e-09 0)
(0.022478989 8.6677937e-09 0)
(0.022373817 8.3349641e-09 0)
(0.022268375 8.0115283e-09 0)
(0.022162583 7.6978596e-09 0)
(0.022056354 7.393168e-09 0)
(0.021949613 7.0962896e-09 0)
(0.021842291 6.8070603e-09 0)
(0.021734304 6.5260253e-09 0)
(0.021625551 6.252837e-09 0)
(0.02151594 5.986408e-09 0)
(0.021405389 5.7265745e-09 0)
(0.021293795 5.4739099e-09 0)
(0.021181035 5.2279745e-09 0)
(0.021066997 4.987895e-09 0)
(0.020951572 4.7537839e-09 0)
(0.020834622 4.5261276e-09 0)
(0.020715984 4.3036988e-09 0)
(0.020595552 4.087867e-09 0)
(0.020475795 3.8838339e-09 0)
(0.020360498 3.694282e-09 0)
(0.02025075 3.5190614e-09 0)
(0.020146124 3.3574899e-09 0)
(0.020046216 3.2086556e-09 0)
(0.019950654 3.0710392e-09 0)
(0.019859126 2.9432518e-09 0)
(0.019771347 2.8246779e-09 0)
(0.019687041 2.7147815e-09 0)
(0.019605955 2.6124515e-09 0)
(0.019527881 2.5167221e-09 0)
(0.019452626 2.4272483e-09 0)
(0.019380001 2.3437998e-09 0)
(0.019309828 2.2662155e-09 0)
(0.019241929 2.1937757e-09 0)
(0.019176169 2.1270291e-09 0)
(0.019112336 2.0641888e-09 0)
(0.019050404 2.0138826e-09 0)
(0.018989634 1.958698e-09 0)
(0.018931072 1.9618282e-09 0)
(0.018870098 1.896122e-09 0)
(0.018817313 2.300434e-09 -2.3867598e-22)
(0.018729466 1.4744947e-09 3.5996185e-23)
(1 7.061152e-10 0)
(0.99998947 2.0323945e-09 0)
(0.99997202 2.9936295e-09 0)
(0.99995268 3.75741e-09 0)
(0.9999313 4.746946e-09 0)
(0.99990734 6.018382e-09 0)
(0.99988059 7.5905394e-09 0)
(0.99985088 9.5448462e-09 0)
(0.99981789 1.201009e-08 0)
(0.99978114 1.5147774e-08 0)
(0.99974004 1.9164928e-08 0)
(0.99969384 2.4345926e-08 0)
(0.99964154 3.1091214e-08 0)
(0.99958185 4.0002061e-08 0)
(0.99951286 5.1929535e-08 0)
(0.99943206 6.8460647e-08 0)
(0.99933498 9.1340947e-08 0)
(0.99921688 1.2731715e-07 0)
(0.9990614 1.7575574e-07 0)
(0.99886833 2.8709339e-07 0)
(0.99853391 4.0252552e-07 0)
(0.99816652 1.2155627e-06 0)
(0.99653258 6.8143105e-07 -5.1330959e-21)
(0.99703676 0.00058916068 9.7596552e-55)
(0.13811744 0.00060936027 -8.2481239e-54)
(0.073412542 2.2945207e-05 0)
(0.065645945 3.07913e-06 -1.2021328e-20)
(0.063098749 1.232596e-06 0)
(0.061478127 8.7173664e-07 0)
(0.060124339 7.3964053e-07 0)
(0.058932947 6.4849279e-07 0)
(0.057872312 5.7405692e-07 0)
(0.056920166 5.1293182e-07 0)
(0.056056002 4.6300401e-07 0)
(0.055264001 4.214296e-07 0)
(0.054532843 3.8595702e-07 0)
(0.053854126 3.5516193e-07 0)
(0.053221213 3.2814094e-07 0)
(0.052628642 3.0424422e-07 0)
(0.052071864 2.8297226e-07 0)
(0.051547012 2.6393478e-07 0)
(0.051050781 2.4682481e-07 0)
(0.050580274 2.3139015e-07 0)
(0.050132985 2.174032e-07 0)
(0.049706743 2.0468608e-07 0)
(0.049299609 1.9307187e-07 0)
(0.048909951 1.8242212e-07 0)
(0.048536281 1.7264764e-07 0)
(0.048177236 1.6363713e-07 0)
(0.04783169 1.5529836e-07 0)
(0.04749859 1.475835e-07 0)
(0.047176942 1.4042535e-07 0)
(0.046865906 1.3375279e-07 0)
(0.046564737 1.2752994e-07 0)
(0.046272699 1.2172748e-07 0)
(0.045989121 1.1629132e-07 0)
(0.045713461 1.1118097e-07 0)
(0.045445194 1.0638566e-07 0)
(0.045183782 1.0188321e-07 0)
(0.044928763 9.7633549e-08 0)
(0.044679755 9.3612146e-08 0)
(0.044436383 8.9815794e-08 0)
(0.044198246 8.6232329e-08 0)
(0.043964995 8.2831275e-08 0)
(0.043736357 7.9594036e-08 0)
(0.043512054 7.6520614e-08 0)
(0.043291788 7.3604107e-08 0)
(0.043075286 7.0826628e-08 0)
(0.042862323 6.8172138e-08 0)
(0.042652698 6.5635203e-08 0)
(0.042446195 6.321538e-08 0)
(0.042242589 6.090638e-08 0)
(0.042041681 5.8692365e-08 0)
(0.041843321 5.6564455e-08 0)
(0.04164735 5.4524727e-08 0)
(0.041453587 5.2571099e-08 0)
(0.041261861 5.0695565e-08 0)
(0.041072026 4.8888369e-08 0)
(0.040883963 4.7145708e-08 0)
(0.04069754 4.5469282e-08 0)
(0.040512605 4.3857792e-08 0)
(0.040329014 4.2303381e-08 0)
(0.040146659 4.0799386e-08 0)
(0.039965436 3.9345759e-08 0)
(0.039785222 3.7943537e-08 0)
(0.039605885 3.6591158e-08 0)
(0.039427295 3.5281583e-08 0)
(0.039249367 3.4010441e-08 0)
(0.039072001 3.2779849e-08 0)
(0.038895073 3.1590224e-08 0)
(0.038718457 3.0438618e-08 0)
(0.038542044 2.9320182e-08 0)
(0.038365742 2.8232762e-08 0)
(0.038189449 2.7178411e-08 0)
(0.038013033 2.6157716e-08 0)
(0.037836362 2.5166031e-08 0)
(0.037659341 2.4199886e-08 0)
(0.037481867 2.3260976e-08 0)
(0.037303802 2.2350408e-08 0)
(0.037125002 2.146591e-08 0)
(0.036945339 2.0604115e-08 0)
(0.036764698 1.9764515e-08 0)
(0.036582937 1.8948683e-08 0)
(0.036399887 1.8155633e-08 0)
(0.036215393 1.7382219e-08 0)
(0.036029317 1.6627947e-08 0)
(0.035841484 1.5894466e-08 0)
(0.035651686 1.5180526e-08 0)
(0.035459739 1.4483592e-08 0)
(0.035265457 1.3803973e-08 0)
(0.035068607 1.314308e-08 0)
(0.034868914 1.2497368e-08 0)
(0.034666202 1.1870817e-08 0)
(0.034464624 1.12785e-08 0)
(0.034270556 1.0728212e-08 0)
(0.034085824 1.0219534e-08 0)
(0.033909716 9.7504744e-09 0)
(0.033741546 9.3183853e-09 0)
(0.033580693 8.9188625e-09 0)
(0.03342663 8.5478726e-09 0)
(0.033278876 8.2036213e-09 0)
(0.033136967 7.884554e-09 0)
(0.033000479 7.5874556e-09 0)
(0.03286906 7.3095201e-09 0)
(0.032742386 7.0497374e-09 0)
(0.032620139 6.8074433e-09 0)
(0.03250202 6.5821685e-09 0)
(0.032387728 6.3718289e-09 0)
(0.032277036 6.178015e-09 0)
(0.032169588 5.9955239e-09 0)
(0.03206534 5.8494124e-09 0)
(0.031963051 5.6890415e-09 0)
(0.031864476 5.6980356e-09 0)
(0.031761861 5.4179777e-09 0)
(0.031673008 6.6894865e-09 0)
(0.031525135 4.2040928e-09 0)
(1 1.0058731e-09 1.868657e-24)
(0.99998942 2.8964752e-09 0)
(0.99997184 4.2678884e-09 0)
(0.99995236 5.3572459e-09 0)
(0.99993083 6.7679647e-09 0)
(0.99990669 8.5803723e-09 0)
(0.99987975 1.0821263e-08 0)
(0.99984983 1.3606557e-08 0)
(0.99981661 1.7119667e-08 0)
(0.99977962 2.1590588e-08 0)
(0.99973824 2.7314106e-08 0)
(0.99969174 3.469508e-08 0)
(0.99963913 4.430356e-08 0)
(0.99957907 5.6995422e-08 0)
(0.99950969 7.3981905e-08 0)
(0.99942844 9.7521781e-08 0)
(0.99933084 1.3009798e-07 0)
(0.99921215 1.8131305e-07 0)
(0.99905594 2.5025422e-07 0)
(0.99886203 4.0869862e-07 0)
(0.99852631 5.729138e-07 0)
(0.99815768 1.7298916e-06 0)
(0.99651822 9.7183551e-07 0)
(0.99701983 0.00081089046 -5.0870339e-55)
(0.19171116 0.00085253171 4.2834976e-54)
(0.10428846 4.577505e-05 0)
(0.093261193 6.3481593e-06 0)
(0.089641046 2.5398924e-06 0)
(0.087336793 1.7964319e-06 0)
(0.085413404 1.5235573e-06 0)
(0.08372126 1.3356163e-06 0)
(0.082214909 1.1823103e-06 0)
(0.080862575 1.056436e-06 0)
(0.07963519 9.5359926e-07 0)
(0.078510306 8.6796517e-07 0)
(0.07747184 7.9490428e-07 0)
(0.076507851 7.3148117e-07 0)
(0.075608912 6.7583138e-07 0)
(0.074767264 6.2661568e-07 0)
(0.073976448 5.8280556e-07 0)
(0.073230974 5.4359752e-07 0)
(0.072526146 5.0835944e-07 0)
(0.071857851 4.7657122e-07 0)
(0.07122253 4.4776499e-07 0)
(0.0706171 4.2157343e-07 0)
(0.070038808 3.9765356e-07 0)
(0.069485337 3.7572036e-07 0)
(0.06895457 3.5558885e-07 0)
(0.068444576 3.3703125e-07 0)
(0.067953754 3.1985755e-07 0)
(0.067480608 3.0396795e-07 0)
(0.067023727 2.8922506e-07 0)
(0.066581918 2.7548277e-07 0)
(0.066154122 2.6266642e-07 0)
(0.065739294 2.5071535e-07 0)
(0.065336484 2.3951919e-07 0)
(0.064944919 2.2899436e-07 0)
(0.064563852 2.1911781e-07 0)
(0.064192524 2.0984422e-07 0)
(0.063830275 2.0109176e-07 0)
(0.063476564 1.9280956e-07 0)
(0.063130855 1.8499044e-07 0)
(0.062792584 1.7760958e-07 0)
(0.062461253 1.7060481e-07 0)
(0.062136473 1.6393762e-07 0)
(0.06181785 1.5760746e-07 0)
(0.06150496 1.5160035e-07 0)
(0.061197417 1.4587974e-07 0)
(0.060894901 1.4041265e-07 0)
(0.060597125 1.3518757e-07 0)
(0.060303783 1.3020353e-07 0)
(0.060014557 1.2544767e-07 0)
(0.059729161 1.2088767e-07 0)
(0.059447386 1.1650511e-07 0)
(0.059169003 1.1230396e-07 0)
(0.058893755 1.0828008e-07 0)
(0.0586214 1.0441709e-07 0)
(0.058351732 1.00695e-07 0)
(0.058084581 9.7105804e-08 0)
(0.057819757 9.3652912e-08 0)
(0.057557047 9.033371e-08 0)
(0.057296246 8.7132165e-08 0)
(0.057037201 8.4034548e-08 0)
(0.056779762 8.1040594e-08 0)
(0.056523757 7.8152458e-08 0)
(0.056268995 7.5366948e-08 0)
(0.056015296 7.26697e-08 0)
(0.055762536 7.0051654e-08 0)
(0.055510573 6.7517036e-08 0)
(0.055259232 6.5066768e-08 0)
(0.055008335 6.2694818e-08 0)
(0.054757724 6.039125e-08 0)
(0.05450727 5.8151564e-08 0)
(0.054256829 5.5979934e-08 0)
(0.054006212 5.3877591e-08 0)
(0.053755232 5.1835058e-08 0)
(0.053503754 4.9845159e-08 0)
(0.053251631 4.7911307e-08 0)
(0.052998669 4.6035805e-08 0)
(0.052744662 4.4214017e-08 0)
(0.052489427 4.2439019e-08 0)
(0.052232803 4.0709724e-08 0)
(0.051974587 3.9029352e-08 0)
(0.051714538 3.7395908e-08 0)
(0.051452436 3.5802935e-08 0)
(0.051188086 3.4249379e-08 0)
(0.050921239 3.2738623e-08 0)
(0.0506516 3.1268122e-08 0)
(0.050378906 2.9832665e-08 0)
(0.050102894 2.8432857e-08 0)
(0.049823232 2.7071604e-08 0)
(0.04953953 2.5741632e-08 0)
(0.049251537 2.4451144e-08 0)
(0.048965155 2.3231146e-08 0)
(0.048689439 2.20977e-08 0)
(0.048426987 2.104997e-08 0)
(0.048176785 2.0083855e-08 0)
(0.04793786 1.9193856e-08 0)
(0.047709331 1.8370953e-08 0)
(0.047490445 1.7606823e-08 0)
(0.047280524 1.6897757e-08 0)
(0.047078906 1.6240555e-08 0)
(0.046884989 1.5628611e-08 0)
(0.046698273 1.5056141e-08 0)
(0.046518297 1.4521051e-08 0)
(0.046344612 1.4021978e-08 0)
(0.04617679 1.3557953e-08 0)
(0.046014406 1.3124692e-08 0)
(0.045857136 1.2725461e-08 0)
(0.045704476 1.2349534e-08 0)
(0.045556363 1.2048476e-08 0)
(0.045411037 1.1718013e-08 0)
(0.045270982 1.173619e-08 0)
(0.045125215 1.1168712e-08 0)
(0.044998971 1.3786728e-08 0)
(0.044788868 8.656809e-09 0)
(1 1.3224977e-09 0)
(0.99998935 3.8101322e-09 0)
(0.99997165 5.6163347e-09 0)
(0.999952 7.050571e-09 0)
(0.9999303 8.9069902e-09 0)
(0.99990597 1.1291716e-08 0)
(0.99987881 1.4239955e-08 0)
(0.99984866 1.7904014e-08 0)
(0.99981518 2.252497e-08 0)
(0.99977791 2.8405125e-08 0)
(0.99973623 3.5931868e-08 0)
(0.9996894 4.5637169e-08 0)
(0.99963642 5.8269965e-08 0)
(0.99957597 7.495463e-08 0)
(0.99950614 9.728209e-08 0)
(0.99942439 1.2821936e-07 0)
(0.99932622 1.7102577e-07 0)
(0.99920687 2.3831486e-07 0)
(0.99904984 3.2887175e-07 0)
(0.998855 5.3696741e-07 0)
(0.99851784 7.5255201e-07 0)
(0.99814784 2.2720041e-06 0)
(0.99650237 1.2791752e-06 0)
(0.99700114 0.0010287963 0)
(0.24530431 0.0010978238 0)
(0.1366718 7.6703287e-05 0)
(0.12223986 1.1011675e-05 0)
(0.11748986 4.4068825e-06 4.4909509e-21)
(0.11446794 3.1164863e-06 0)
(0.11194768 2.6419924e-06 0)
(0.10973113 2.3157704e-06 0)
(0.10775802 2.0499634e-06 0)
(0.10598653 1.8317546e-06 0)
(0.10437868 1.6534473e-06 0)
(0.1029051 1.5049605e-06 0)
(0.10154471 1.3782822e-06 0)
(0.10028186 1.2683201e-06 0)
(0.099104201 1.1718358e-06 0)
(0.09800158 1.0865058e-06 0)
(0.096965536 1.0105474e-06 0)
(0.095988878 9.4256808e-07 0)
(0.095065458 8.814719e-07 0)
(0.094189889 8.2635636e-07 0)
(0.093357509 7.7641133e-07 0)
(0.09256428 7.3099881e-07 0)
(0.0918066 6.8952524e-07 0)
(0.09108143 6.5149658e-07 0)
(0.090386 6.1659029e-07 0)
(0.089717783 5.8441359e-07 0)
(0.089074677 5.5463692e-07 0)
(0.088454724 5.2708543e-07 0)
(0.08785608 5.0152229e-07 0)
(0.087277179 4.7769483e-07 0)
(0.086716633 4.5547234e-07 0)
(0.086173076 4.3474937e-07 0)
(0.085645263 4.1533606e-07 0)
(0.085132179 3.9708718e-07 0)
(0.084632848 3.7996148e-07 0)
(0.084146276 3.6388094e-07 0)
(0.083671598 3.4870472e-07 0)
(0.083208102 3.3434414e-07 0)
(0.082755091 3.2078578e-07 0)
(0.082311824 3.0798704e-07 0)
(0.081877648 2.9584103e-07 0)
(0.081452053 2.8428064e-07 0)
(0.081034524 2.7330408e-07 0)
(0.080624507 2.6288745e-07 0)
(0.080221494 2.5296784e-07 0)
(0.079825067 2.4348812e-07 0)
(0.079434847 2.3442792e-07 0)
(0.079050437 2.2578536e-07 0)
(0.07867142 2.1753837e-07 0)
(0.07829742 2.0963137e-07 0)
(0.077928162 2.0203215e-07 0)
(0.077563347 1.9474718e-07 0)
(0.077202639 1.8776949e-07 0)
(0.076845722 1.8107086e-07 0)
(0.076492324 1.7461675e-07 0)
(0.076142222 1.6839308e-07 0)
(0.075795168 1.6240556e-07 0)
(0.075450884 1.5664977e-07 0)
(0.075109099 1.5109815e-07 0)
(0.074769614 1.4572687e-07 0)
(0.074432231 1.4053524e-07 0)
(0.074096727 1.3552699e-07 0)
(0.07376285 1.3069665e-07 0)
(0.073430365 1.2601952e-07 0)
(0.073099108 1.2147978e-07 0)
(0.072768894 1.1708458e-07 0)
(0.072439494 1.1283558e-07 0)
(0.072110675 1.0872242e-07 0)
(0.071782227 1.0472793e-07 0)
(0.071453985 1.0084422e-07 0)
(0.071125757 9.7078421e-08 0)
(0.070797298 9.3432724e-08 0)
(0.07046836 8.9890827e-08 0)
(0.070138769 8.6440249e-08 0)
(0.069808329 8.3086779e-08 0)
(0.069476788 7.9834453e-08 0)
(0.069143876 7.6675296e-08 0)
(0.068809353 7.3597322e-08 0)
(0.068473006 7.0598579e-08 0)
(0.068134571 6.7684622e-08 0)
(0.067793732 6.4852047e-08 0)
(0.0674502 6.208969e-08 0)
(0.067103718 5.9395671e-08 0)
(0.066753962 5.6775829e-08 0)
(0.066400544 5.4225806e-08 0)
(0.066043119 5.1736573e-08 0)
(0.065681342 4.9309135e-08 0)
(0.065314777 4.6948531e-08 0)
(0.064942916 4.4642188e-08 0)
(0.064565426 4.2404341e-08 0)
(0.064190044 4.0288698e-08 0)
(0.06382864 3.8323119e-08 0)
(0.063484621 3.65062e-08 0)
(0.063156655 3.4830808e-08 0)
(0.062843469 3.3287404e-08 0)
(0.062543908 3.1860361e-08 0)
(0.062256986 3.053524e-08 0)
(0.061981812 2.9305592e-08 0)
(0.061717521 2.8165873e-08 0)
(0.061463323 2.7104647e-08 0)
(0.061218564 2.6111881e-08 0)
(0.060982638 2.5183924e-08 0)
(0.060754958 2.4318414e-08 0)
(0.060534963 2.3513674e-08 0)
(0.060322096 2.2762287e-08 0)
(0.060115932 2.2069895e-08 0)
(0.05991581 2.1417899e-08 0)
(0.059721649 2.0895596e-08 0)
(0.059531147 2.0322359e-08 0)
(0.059347547 2.0353057e-08 0)
(0.059156498 1.9377033e-08 0)
(0.058991 2.3918495e-08 -3.0724801e-22)
(0.058715564 1.5010029e-08 4.6339064e-23)
(1 1.6611126e-09 0)
(0.99998928 4.788372e-09 0)
(0.99997143 7.0613999e-09 0)
(0.9999516 8.8656542e-09 0)
(0.9999297 1.1199713e-08 0)
(0.99990515 1.4197593e-08 0)
(0.99987776 1.7903494e-08 0)
(0.99984734 2.2508572e-08 0)
(0.99981358 2.8315539e-08 0)
(0.99977599 3.5703973e-08 0)
(0.99973398 4.5160195e-08 0)
(0.99968678 5.7351928e-08 0)
(0.99963339 7.3219105e-08 0)
(0.99957249 9.4172735e-08 0)
(0.99950216 1.222089e-07 0)
(0.99941985 1.6105048e-07 0)
(0.99932104 2.1478419e-07 0)
(0.99920095 2.9923704e-07 0)
(0.99904301 4.1286275e-07 0)
(0.99884714 6.7393153e-07 0)
(0.99850837 9.442722e-07 0)
(0.99813685 2.8503665e-06 0)
(0.99648477 1.6085759e-06 0)
(0.99698044 0.0012445119 0)
(0.29924413 0.0013488177 0)
(0.17097908 0.00011655053 0)
(0.15296989 1.7325657e-05 0)
(0.14701545 6.9418989e-06 0)
(0.14323374 4.9069638e-06 0)
(0.14008298 4.1579817e-06 0)
(0.13731279 3.6440816e-06 0)
(0.13484689 3.2258411e-06 0)
(0.13263275 2.8825602e-06 0)
(0.13062301 2.6019925e-06 0)
(0.12878104 2.3683329e-06 0)
(0.12708051 2.1689998e-06 0)
(0.12550184 1.9959774e-06 0)
(0.12402962 1.8441616e-06 0)
(0.12265115 1.7098943e-06 0)
(0.12135587 1.5903712e-06 0)
(0.12013479 1.4834027e-06 0)
(0.11898024 1.3872644e-06 0)
(0.11788549 1.3005354e-06 0)
(0.11684471 1.2219423e-06 -6.1998508e-33)
(0.11585285 1.1504798e-06 0)
(0.11490543 1.0852156e-06 0)
(0.11399863 1.0253725e-06 0)
(0.11312901 9.7044053e-07 0)
(0.11229339 9.1980459e-07 0)
(0.11148916 8.729461e-07 0)
(0.11071387 8.2958726e-07 0)
(0.10996522 7.8935737e-07 0)
(0.10924124 7.5185996e-07 0)
(0.1085402 7.168874e-07 0)
(0.1078604 6.8427337e-07 0)
(0.10720029 6.5372137e-07 0)
(0.10655858 6.2500241e-07 0)
(0.10593406 5.9804965e-07 0)
(0.10532549 5.7274115e-07 0)
(0.10473179 5.4885686e-07 0)
(0.10415207 5.2625651e-07 0)
(0.10358546 5.0491756e-07 0)
(0.10303102 4.8477354e-07 0)
(0.10248795 4.6565772e-07 0)
(0.10195561 4.4746392e-07 0)
(0.10143335 4.3018807e-07 0)
(0.10092048 4.1379303e-07 0)
(0.10041637 3.9818059e-07 0)
(0.099920489 3.8326094e-07 0)
(0.099432367 3.690013e-07 0)
(0.098951508 3.5539843e-07 0)
(0.09847739 3.42418e-07 0)
(0.098009545 3.299732e-07 0)
(0.097547625 3.18013e-07 0)
(0.097091258 3.0654688e-07 0)
(0.096640026 2.9556414e-07 0)
(0.096193532 2.8502077e-07 0)
(0.095751435 2.7486255e-07 0)
(0.095313457 2.6506699e-07 0)
(0.094879289 2.5564277e-07 0)
(0.09444858 2.4658314e-07 0)
(0.094020996 2.3784508e-07 0)
(0.093596284 2.2939105e-07 0)
(0.093174199 2.212196e-07 0)
(0.092754459 2.1333658e-07 0)
(0.092336752 2.0573353e-07 0)
(0.091920783 1.9837184e-07 0)
(0.091506346 1.9122649e-07 0)
(0.091093209 1.8430842e-07 0)
(0.090681087 1.7762036e-07 0)
(0.090269687 1.7114615e-07 0)
(0.08985875 1.6485885e-07 0)
(0.089448064 1.587459e-07 0)
(0.089037393 1.528184e-07 0)
(0.088626429 1.4707986e-07 0)
(0.088214863 1.4150482e-07 0)
(0.087802473 1.3607359e-07 0)
(0.087389018 1.3079508e-07 0)
(0.086974181 1.2567569e-07 0)
(0.086557624 1.2070299e-07 0)
(0.086139047 1.1585814e-07 0)
(0.085718184 1.1113796e-07 0)
(0.085294702 1.0655115e-07 0)
(0.084868209 1.0209244e-07 0)
(0.084438341 9.7744303e-08 0)
(0.084004775 9.350371e-08 0)
(0.083567108 8.9379805e-08 0)
(0.083124854 8.536581e-08 0)
(0.08267758 8.1447526e-08 0)
(0.082224854 7.7626469e-08 0)
(0.081766132 7.3910569e-08 0)
(0.081300775 7.0280104e-08 0)
(0.080828368 6.6757488e-08 0)
(0.080358591 6.3427174e-08 0)
(0.079906302 6.0333035e-08 0)
(0.079475764 5.7472924e-08 0)
(0.079065311 5.4835573e-08 0)
(0.078673351 5.2405995e-08 0)
(0.078298438 5.0159581e-08 0)
(0.077939339 4.8073611e-08 0)
(0.07759494 4.6137897e-08 0)
(0.077264158 4.4343728e-08 0)
(0.076946007 4.2673132e-08 0)
(0.076639665 4.1110309e-08 0)
(0.076344376 3.9649482e-08 0)
(0.076059406 3.8286941e-08 0)
(0.075784052 3.7020046e-08 0)
(0.075517618 3.5837142e-08 0)
(0.075259571 3.4747071e-08 0)
(0.075009088 3.3720579e-08 0)
(0.074766063 3.2897984e-08 0)
(0.074527625 3.1995416e-08 0)
(0.074297818 3.2042198e-08 0)
(0.074058735 3.0505281e-08 0)
(0.073851579 3.7666035e-08 0)
(0.073506805 2.3622393e-08 -2.6421596e-23)
(1 2.0273087e-09 0)
(0.9999892 5.8476701e-09 0)
(0.99997118 8.6278076e-09 0)
(0.99995116 1.0833687e-08 0)
(0.99992903 1.3685508e-08 0)
(0.99990423 1.7347829e-08 0)
(0.99987657 2.187457e-08 0)
(0.99984586 2.7498831e-08 0)
(0.99981177 3.4589934e-08 0)
(0.99977384 4.3610965e-08 0)
(0.99973144 5.5155113e-08 0)
(0.99968382 7.0036686e-08 0)
(0.99962998 8.9401798e-08 0)
(0.99956857 1.1497082e-07 0)
(0.99949768 1.491769e-07 0)
(0.99941474 1.9655847e-07 0)
(0.99931521 2.620935e-07 0)
(0.9991943 3.650762e-07 0)
(0.99903535 5.0359198e-07 0)
(0.99883832 8.217963e-07 0)
(0.99849776 1.1511362e-06 0)
(0.99812455 3.474132e-06 0)
(0.99646519 1.9656471e-06 0)
(0.99695744 0.0014588832 0)
(0.3536809 0.0016073861 0)
(0.20759286 0.00016670725 0)
(0.18581348 2.5652097e-05 0)
(0.17856647 1.0296502e-05 -1.1792361e-20)
(0.17397705 7.2718624e-06 6.5021494e-21)
(0.17015786 6.1588429e-06 0)
(0.16680107 5.3969423e-06 0)
(0.16381289 4.7776442e-06 0)
(0.16112939 4.2694445e-06 0)
(0.15869337 3.8539903e-06 0)
(0.15646053 3.5079657e-06 0)
(0.15439899 3.212783e-06 0)
(0.15248505 2.9565694e-06 0)
(0.15070002 2.7317553e-06 0)
(0.14902855 2.5329207e-06 0)
(0.14745785 2.3559154e-06 0)
(0.14597704 2.1974995e-06 0)
(0.14457683 2.0551196e-06 0)
(0.14324907 1.926671e-06 0)
(0.14198671 1.8102703e-06 6.6554802e-33)
(0.14078362 1.7044268e-06 0)
(0.13963438 1.6077626e-06 0)
(0.13853437 1.5191269e-06 0)
(0.13747941 1.4377611e-06 0)
(0.13646567 1.3627586e-06 0)
(0.13548997 1.2933517e-06 0)
(0.13454934 1.229125e-06 0)
(0.133641 1.1695324e-06 0)
(0.13276256 1.1139885e-06 0)
(0.13191194 1.0621829e-06 0)
(0.13108706 1.0138688e-06 0)
(0.13028604 9.6861031e-07 0)
(0.12950733 9.2606778e-07 0)
(0.12874947 8.8613925e-07 0)
(0.12801094 8.4864541e-07 0)
(0.12729044 8.1326274e-07 0)
(0.12658688 7.7978239e-07 0)
(0.1258992 7.4816883e-07 0)
(0.1252263 7.1832453e-07 0)
(0.12456718 6.900047e-07 0)
(0.12392106 6.6305125e-07 0)
(0.12328716 6.3745629e-07 0)
(0.12266465 6.1316548e-07 0)
(0.12205276 5.9003458e-07 0)
(0.12145084 5.6793062e-07 0)
(0.12085833 5.4680408e-07 0)
(0.12027462 5.2664971e-07 0)
(0.11969909 5.0741722e-07 0)
(0.11913116 4.8897902e-07 0)
(0.11857041 4.71259e-07 0)
(0.11801639 4.5427021e-07 0)
(0.1174686 4.3799719e-07 0)
(0.11692655 4.2237529e-07 0)
(0.11638982 4.0732446e-07 0)
(0.11585809 3.9281085e-07 0)
(0.11533097 3.788469e-07 0)
(0.11480805 3.6542288e-07 0)
(0.11428891 3.5247561e-07 0)
(0.11377325 3.3994943e-07 0)
(0.11326076 3.2784165e-07 0)
(0.11275112 3.161609e-07 0)
(0.11224394 3.0489486e-07 0)
(0.11173885 2.9398673e-07 0)
(0.11123562 2.8339928e-07 0)
(0.11073396 2.7314822e-07 0)
(0.11023353 2.632378e-07 0)
(0.10973396 2.5364428e-07 0)
(0.10923494 2.4432789e-07 0)
(0.10873623 2.3526981e-07 0)
(0.10823752 2.2648627e-07 0)
(0.10773844 2.1798258e-07 0)
(0.10723863 2.0972133e-07 0)
(0.10673781 2.0167325e-07 0)
(0.10623568 1.9385126e-07 0)
(0.10573187 1.8626493e-07 0)
(0.10522596 1.78896e-07 0)
(0.10471759 1.7171659e-07 0)
(0.10420643 1.6472185e-07 0)
(0.10369208 1.5792459e-07 0)
(0.10317406 1.5131715e-07 0)
(0.10265194 1.4487363e-07 0)
(0.10212531 1.385894e-07 0)
(0.10159369 1.3247797e-07 0)
(0.10105649 1.2652942e-07 0)
(0.10051318 1.2072272e-07 0)
(0.09996324 1.1506002e-07 0)
(0.099406001 1.0955307e-07 0)
(0.098840691 1.0417275e-07 0)
(0.098266802 9.8952282e-08 0)
(0.097696097 9.4016705e-08 0)
(0.097146623 8.9431054e-08 0)
(0.096623564 8.5192246e-08 0)
(0.096124896 8.1283555e-08 0)
(0.095648686 7.7682737e-08 0)
(0.095193179 7.4353383e-08 0)
(0.094756877 7.1261808e-08 0)
(0.094338428 6.8392869e-08 0)
(0.093936518 6.5733669e-08 0)
(0.093549948 6.3257631e-08 0)
(0.093177721 6.0941322e-08 0)
(0.092818919 5.8776142e-08 0)
(0.09247265 5.6756596e-08 0)
(0.092138063 5.487878e-08 0)
(0.09181431 5.3125451e-08 0)
(0.091500746 5.1509654e-08 0)
(0.09119637 4.9988072e-08 0)
(0.090901055 4.8768256e-08 0)
(0.090611321 4.7430325e-08 0)
(0.090332061 4.7497104e-08 0)
(0.090041592 4.521673e-08 -4.1787721e-23)
(0.089789849 5.5846176e-08 0)
(0.089370855 3.5008325e-08 0)
(1 2.4272532e-09 0)
(0.99998912 7.0063005e-09 0)
(0.9999709 1.0343093e-08 0)
(0.99995065 1.2989451e-08 0)
(0.99992827 1.6408274e-08 0)
(0.9999032 2.0797948e-08 0)
(0.99987523 2.6223013e-08 0)
(0.99984418 3.296229e-08 0)
(0.99980973 4.1457791e-08 0)
(0.9997714 5.2263738e-08 0)
(0.99972858 6.6089885e-08 0)
(0.99968049 8.3910367e-08 0)
(0.99962613 1.0709602e-07 0)
(0.99956415 1.3770433e-07 0)
(0.99949263 1.786445e-07 0)
(0.99940899 2.3534336e-07 0)
(0.99930865 3.1374799e-07 0)
(0.99918681 4.3692958e-07 0)
(0.99902673 6.0255936e-07 0)
(0.9988284 9.8297962e-07 0)
(0.99848584 1.3764924e-06 0)
(0.99811075 4.1532897e-06 0)
(0.99644336 2.3566059e-06 0)
(0.99693183 0.001672246 -1.3418621e-54)
(0.40854188 0.0018750037 1.0657411e-53)
(0.24682088 0.00022824311 -5.9519328e-19)
(0.22107086 3.6452622e-05 0)
(0.21243714 1.4665889e-05 -1.376857e-20)
(0.20699061 1.0344208e-05 0)
(0.20246464 8.7560028e-06 0)