/*--------------------------------*- C++ -*----------------------------------*\
  =========                 |
  \\      /  F ield         | OpenFOAM: The Open Source CFD Toolbox
   \\    /   O peration     | Website:  https://openfoam.org
    \\  /    A nd           | Version:  12
     \\/     M anipulation  |
\*---------------------------------------------------------------------------*/
FoamFile
{
    format      ascii;
    class       volVectorField;
    location    "400";
    object      U;
}
// * * * * * * * * * * * * * * * * * * * * * * * * * * * * * * * * * * * * * //

dimensions      [0 1 -1 0 0 0 0];

internalField   nonuniform List<vector> 
7480
(
(0.98683291 0.0005330214 1.034406e-16)
(0.97532631 0.0012563566 0)
(0.96256759 0.0017337436 0)
(0.94883087 0.0020078145 0)
(0.93434875 0.0021847952 0)
(0.91932489 0.0023138135 0)
(0.90383671 0.0024163529 0)
(0.88790945 0.0025129749 0)
(0.87158655 0.0026183819 0)
(0.85499439 0.002740055 0)
(0.83832656 0.0028783848 0)
(0.82186343 0.0030269941 0)
(0.80598598 0.0031614012 0)
(0.7911527 0.003231966 0)
(0.77779774 0.0031596345 0)
(0.76615024 0.0029421708 0)
(0.75623195 0.0030171057 0)
(0.74789641 0.0021349373 0)
(0.74087108 0.0013481159 1.8973616e-17)
(0.73481328 0.0019359565 -7.4926426e-17)
(0.7295705 0.0011721795 -9.1473844e-17)
(0.72493598 0.00048237514 0)
(0.72067036 0.00033794907 0)
(0.71663381 9.041702e-05 0)
(0.71275717 -2.2483571e-05 0)
(0.70899579 -6.1662185e-05 0)
(0.70533429 -4.5572587e-05 0)
(0.70177076 -1.2477017e-05 0)
(0.69830976 2.4493744e-05 0)
(0.69496052 5.737066e-05 0)
(0.69172684 8.2612839e-05 0)
(0.68859981 0.00010058659 0)
(0.68556188 0.00010984088 0)
(0.6825499 0.00011200564 0)
(0.67952177 0.00011427863 0)
(0.67647251 0.0001188963 0)
(0.67342028 0.00012390976 0)
(0.67040078 0.00012659156 0)
(0.66745053 0.00012543513 0)
(0.66459513 0.00012070413 0)
(0.6618456 0.00011371807 0)
(0.65920238 0.00010579332 0)
(0.65665994 9.7870686e-05 0)
(0.65420694 8.996965e-05 0)
(0.65183213 8.1569338e-05 0)
(0.64948639 6.9911761e-05 0)
(0.64709128 4.6653163e-05 0)
(0.64451445 -4.0962785e-06 0)
(0.64154288 -7.9974618e-05 0)
(0.63797897 -0.00014999103 0)
(0.63403129 -0.00016845423 0)
(0.63017991 -0.00015175551 0)
(0.62669853 -0.00011806833 0)
(0.62364264 -9.2031025e-05 0)
(0.62091697 -7.3373782e-05 0)
(0.61841303 -5.8125441e-05 0)
(0.61604507 -4.3666492e-05 0)
(0.61374025 -3.0350326e-05 0)
(0.61151035 -1.9142009e-05 0)
(0.60934132 -1.0083725e-05 0)
(0.60722416 -2.6273402e-06 0)
(0.60514758 3.7375611e-06 0)
(0.60310125 9.0103154e-06 0)
(0.60107813 1.320255e-05 0)
(0.59907258 1.6411412e-05 0)
(0.59708013 1.8736636e-05 0)
(0.59509892 2.028276e-05 0)
(0.593128 2.1184383e-05 0)
(0.59116572 2.157876e-05 0)
(0.58921007 2.1570153e-05 0)
(0.58725918 2.1239657e-05 0)
(0.5853113 2.064489e-05 0)
(0.58336494 1.9825558e-05 0)
(0.58141873 1.8824432e-05 0)
(0.57947123 1.7674424e-05 0)
(0.57752109 1.6401919e-05 0)
(0.57556697 1.5128058e-05 0)
(0.57360746 1.3957503e-05 0)
(0.5716414 1.2832456e-05 0)
(0.56966754 1.1712132e-05 0)
(0.56768485 1.0567012e-05 0)
(0.56569305 9.3908919e-06 0)
(0.56369316 8.1740375e-06 0)
(0.56170048 7.2567541e-06 0)
(0.55986719 1.7926592e-05 0)
(0.5593426 0.00027241427 0)
(0.57008886 0.00038258636 0)
(0.57556396 0.00035067604 0)
(0.57885824 0.00029534039 0)
(0.58009791 0.00023251961 0)
(0.58027329 0.00018250308 0)
(0.57985571 0.00014385414 0)
(0.57910517 0.00011360896 0)
(0.57815094 9.0209038e-05 0)
(0.57707206 7.2860045e-05 0)
(0.57589827 6.0354069e-05 0)
(0.57469752 5.1775346e-05 0)
(0.57335778 8.2352969e-05 6.8625744e-20)
(0.57221019 3.7947156e-05 -1.4905851e-19)
(0.56992396 5.9847185e-05 -1.0537808e-17)
(0.99589767 0.0022870825 0)
(0.99632247 0.0034462893 0)
(0.99686893 0.0040222641 0)
(0.9971411 0.0040891837 0)
(0.99714592 0.0041211896 0)
(0.99699924 0.0041172879 0)
(0.99673399 0.0040957224 0)
(0.99631004 0.004049624 0)
(0.99567423 0.0039740017 0)
(0.99473237 0.0038555117 0)
(0.99335754 0.0036772177 0)
(0.99137437 0.003424879 0)
(0.98855441 0.0030910948 0)
(0.98463982 0.0026890006 0)
(0.97941401 0.0022657006 0)
(0.97280282 0.0018635205 0)
(0.96488392 0.0015683868 0)
(0.95584965 0.0014658334 0)
(0.94593699 0.0013133397 0)
(0.93543488 0.0011799809 0)
(0.92457884 0.001200786 0)
(0.91370939 0.0011440303 0)
(0.90309874 0.0010639005 0)
(0.89293601 0.0010510081 0)
(0.88333329 0.0010080541 0)
(0.8743474 0.00093713826 0)
(0.86599906 0.00085064054 0)
(0.85826963 0.00076750002 0)
(0.85110394 0.00069304698 0)
(0.84442229 0.00062876149 0)
(0.83813947 0.00057639935 0)
(0.8321797 0.00053658277 0)
(0.82647041 0.00050980018 0)
(0.82099137 0.00049348327 0)
(0.81573478 0.00048054351 0)
(0.81068833 0.00046566194 0)
(0.80583389 0.00044726931 0)
(0.80114862 0.00042586709 0)
(0.79660868 0.0004024757 0)
(0.79219797 0.00037848414 0)
(0.78790836 0.00035524277 0)
(0.7837372 0.00033348287 0)
(0.77968295 0.00031356537 0)
(0.7757429 0.00029559945 0)
(0.77191453 0.00028046185 0)
(0.76820669 0.00027065904 0)
(0.76464043 0.0002702278 0)
(0.76126247 0.00028405565 0)
(0.75816282 0.00031085789 0)
(0.75541021 0.00033363327 0)
(0.75283945 0.00033139896 0)
(0.75018175 0.00030550101 0)
(0.74733452 0.00026867187 0)
(0.74432738 0.00023575654 0)
(0.74125264 0.00021151953 0)
(0.73818174 0.00019508626 0)
(0.73514741 0.00018394298 0)
(0.73215622 0.00017479428 0)
(0.72921534 0.0001657672 0)
(0.7263288 0.00015737435 0)
(0.72349776 0.00014967598 0)
(0.72072047 0.00014270677 0)
(0.71799405 0.00013636155 0)
(0.71531602 0.00013056085 0)
(0.71268333 0.00012527421 0)
(0.71009303 0.00012039349 0)
(0.70754388 0.00011580055 0)
(0.70503485 0.00011147541 0)
(0.70256445 0.00010742439 0)
(0.7001311 0.00010362901 0)
(0.69773333 0.0001000757 0)
(0.69536971 9.6743245e-05 0)
(0.69303894 9.3603443e-05 0)
(0.69073989 9.0651434e-05 0)
(0.6884714 8.7872745e-05 0)
(0.68623242 8.5251513e-05 0)
(0.68402195 8.2777914e-05 0)
(0.68183894 8.0413264e-05 0)
(0.67968251 7.8145744e-05 0)
(0.67755165 7.6001756e-05 0)
(0.67544537 7.3948097e-05 0)
(0.67336312 7.196437e-05 0)
(0.67130399 6.9923565e-05 0)
(0.66926854 6.6451002e-05 0)
(0.66725518 4.3744129e-05 0)
(0.66499988 -0.00013181774 0)
(0.66050494 -0.00016574161 0)
(0.65866667 -8.6236245e-05 0)
(0.65725442 -4.4112429e-05 0)
(0.65594671 -9.8356373e-06 0)
(0.65452024 8.7713337e-06 0)
(0.65297374 1.8642581e-05 0)
(0.65135125 2.3676837e-05 0)
(0.64968642 2.6488775e-05 0)
(0.64800454 2.8150409e-05 0)
(0.64630134 2.8706559e-05 0)
(0.64462634 2.9137918e-05 0)
(0.64283839 3.1353744e-05 0)
(0.64130827 3.1353897e-05 0)
(0.63850184 3.3653349e-05 0)
(0.99617322 0.0021847956 0)
(0.99654093 0.0028425447 0)
(0.99711241 0.0030009968 0)
(0.99757808 0.0029795012 0)
(0.99788963 0.0029840247 0)
(0.99814085 0.003008095 0)
(0.99837977 0.0030362433 0)
(0.99860527 0.0030651762 0)
(0.99881335 0.0030964037 0)
(0.99900685 0.0031283427 0)
(0.99918843 0.0031570693 0)
(0.99935293 0.0031798532 0)
(0.99948454 0.0031942275 0)
(0.99955866 0.0032006298 0)
(0.99954081 0.0032058365 0)
(0.99938676 0.0032110341 0)
(0.99904624 0.0032003462 0)
(0.99845139 0.0031574032 0)
(0.99751999 0.0031148118 0)
(0.99617827 0.0030203413 0)
(0.99427319 0.0029038825 0)
(0.9916111 0.0028022912 0)
(0.9881084 0.0026903066 0)
(0.98370642 0.0025550689 0)
(0.97839353 0.0024125065 0)
(0.97221278 0.0022734838 0)
(0.96523013 0.0021268362 0)
(0.95765267 0.0019656877 0)
(0.94968389 0.0018058468 0)
(0.94152447 0.0016517738 0)
(0.93336406 0.0015053009 0)
(0.92535905 0.00136786 0)
(0.9176273 0.0012458083 0)
(0.9102371 0.0011444806 0)
(0.90320601 0.0010605827 0)
(0.89651267 0.00098971066 0)
(0.89011613 0.00092873337 0)
(0.88396843 0.00087511884 0)
(0.87802946 0.00082644512 0)
(0.87227271 0.00078068397 0)
(0.86668281 0.00073669295 0)
(0.86125135 0.00069438374 0)
(0.85596903 0.00065424874 0)
(0.85082708 0.0006163581 0)
(0.84582193 0.00058148206 0)
(0.84096559 0.00055123999 0)
(0.83627343 0.00052724289 0)
(0.83176871 0.00051256714 0)
(0.8274867 0.0005054907 0)
(0.82345226 0.00049979369 0)
(0.81962009 0.00048432781 0)
(0.81589428 0.00045904812 0)
(0.81220177 0.00042980504 0)
(0.80850681 0.00040162833 0)
(0.80481296 0.00037634827 0)
(0.80114059 0.00035420524 0)
(0.79750871 0.00033562279 0)
(0.79393011 0.00031893594 0)
(0.79041341 0.00030283596 0)
(0.78696187 0.00028783617 0)
(0.7835755 0.00027388004 0)
(0.78025406 0.00026100548 0)
(0.77699695 0.00024912963 0)
(0.77380338 0.00023812323 0)
(0.770671 0.00022791427 0)
(0.76759759 0.00021831673 0)
(0.76458233 0.00020918186 0)
(0.76162349 0.00020050396 0)
(0.75871912 0.00019228645 0)
(0.75586749 0.00018449605 0)
(0.75306711 0.0001771135 0)
(0.75031646 0.00017011045 0)
(0.74761412 0.00016344698 0)
(0.74495876 0.00015711458 0)
(0.74234905 0.00015109018 0)
(0.73978381 0.0001453493 0)
(0.7372619 0.00013986334 0)
(0.73478211 0.00013459751 0)
(0.73234344 0.00012956456 0)
(0.72994471 0.00012477521 0)
(0.72758478 0.00012017583 0)
(0.72526284 0.00011575345 0)
(0.72297741 0.00011150633 0)
(0.72072479 0.00010623819 0)
(0.71847376 9.0608525e-05 0)
(0.7158589 7.6281514e-06 0)
(0.71115426 -5.1215536e-05 0)
(0.70800881 -2.194338e-05 0)
(0.70546223 1.0360918e-05 0)
(0.7032991 3.5977525e-05 0)
(0.70124397 5.0141926e-05 0)
(0.69921087 5.7001311e-05 0)
(0.69718094 5.9751095e-05 0)
(0.69515649 6.0269433e-05 0)
(0.69314692 5.9579051e-05 0)
(0.69113876 5.8011952e-05 0)
(0.68917657 5.72824e-05 0)
(0.68710865 5.5369286e-05 0)
(0.68533669 6.0301584e-05 0)
(0.68216205 5.4885414e-05 4.0181429e-20)
(0.99636938 0.0020428953 0)
(0.99666472 0.0026450591 0)
(0.99717671 0.0029790186 0)
(0.99763008 0.0031498079 0)
(0.99794947 0.0032869673 0)
(0.99820803 0.0034021437 0)
(0.99845411 0.0034845689 0)
(0.99869053 0.0035397545 0)
(0.99891398 0.003574411 0)
(0.99912845 0.0035928653 0)
(0.99933877 0.0035828157 0)
(0.99954545 0.0035472934 0)
(0.9997421 0.0034780136 0)
(0.99991882 0.003374245 0)
(1.000065 0.0032367812 0)
(1.0001744 0.0030773044 0)
(1.0002484 0.0029121588 0)
(1.0002888 0.0027527695 0)
(1.0003008 0.0026232832 0)
(1.0002982 0.0025389853 0)
(1.0002739 0.002473347 0)
(1.0002098 0.0024354486 0)
(1.0000886 0.0024162918 0)
(0.99987247 0.0024023266 0)
(0.9995093 0.0023927502 0)
(0.99892687 0.0023814714 0)
(0.99804427 0.0023659454 0)
(0.99668634 0.0023441665 0)
(0.99471468 0.0023120652 0)
(0.99201869 0.0022676614 0)
(0.98852089 0.0022118725 0)
(0.98419526 0.0021497968 0)
(0.97906518 0.0020733885 0)
(0.97327908 0.0019765638 0)
(0.96700295 0.0018687242 0)
(0.96041398 0.0017546194 0)
(0.95367945 0.0016379147 0)
(0.94693894 0.0015231044 0)
(0.94029418 0.0014166941 0)
(0.93379986 0.0013217313 0)
(0.92747109 0.0012371088 0)
(0.92129872 0.0011617398 0)
(0.91526696 0.00109461 0)
(0.90936559 0.0010340012 0)
(0.90359103 0.00097815576 0)
(0.89794862 0.00092620596 0)
(0.89244971 0.00087882786 0)
(0.88710894 0.00083715862 0)
(0.88193999 0.00080284364 0)
(0.87695037 0.0007732621 0)
(0.87213038 0.00074263534 0)
(0.86745185 0.00070808769 0)
(0.86288681 0.00067125919 0)
(0.85841086 0.00063469175 0)
(0.85400917 0.00060000185 0)
(0.8496774 0.00056789787 0)
(0.84541869 0.00053909986 0)
(0.84123722 0.00051241023 0)
(0.83713406 0.0004866675 0)
(0.83310876 0.00046234562 0)
(0.8291615 0.00043961544 0)
(0.82529228 0.00041854429 0)
(0.82150032 0.00039887817 0)
(0.81778459 0.00038045881 0)
(0.81414276 0.00036323153 0)
(0.81057293 0.00034696655 0)
(0.80707409 0.00033150219 0)
(0.80364363 0.00031684418 0)
(0.80027929 0.00030297306 0)
(0.79697922 0.00028982551 0)
(0.79374173 0.00027736638 0)
(0.79056508 0.00026555272 0)
(0.78744758 0.00025432607 0)
(0.78438766 0.00024366742 0)
(0.78138371 0.00023353914 0)
(0.77843428 0.00022390211 0)
(0.77553795 0.00021475268 0)
(0.77269329 0.00020605459 0)
(0.76989904 0.00019777184 0)
(0.76715381 0.00018990639 0)
(0.76445625 0.00018238167 0)
(0.76180537 0.00017517714 0)
(0.75919959 0.000168299 0)
(0.75663554 0.00016097771 0)
(0.75408993 0.00014634742 0)
(0.75134324 7.6636179e-05 0)
(0.74758603 1.8610259e-05 0)
(0.74440502 3.3622892e-05 0)
(0.74158741 5.5252546e-05 0)
(0.73907432 7.518029e-05 0)
(0.73669846 8.7128572e-05 0)
(0.73438035 9.3081298e-05 0)
(0.7320892 9.5117235e-05 0)
(0.72981769 9.4623251e-05 0)
(0.72757061 9.2930489e-05 0)
(0.72533249 9.0447447e-05 0)
(0.72314696 8.9442e-05 0)
(0.72085841 8.6147196e-05 0)
(0.71889327 9.6075443e-05 0)
(0.71540567 8.1700113e-05 -3.3223802e-20)
(0.99655568 0.001982239 0)
(0.9968034 0.0025641747 0)
(0.99724926 0.0029217698 0)
(0.99766153 0.0030774747 0)
(0.99796303 0.0031644087 0)
(0.99820932 0.0032259716 0)
(0.99844595 0.0032634437 0)
(0.9986767 0.0032823303 0)
(0.99889719 0.0032905576 0)
(0.99910996 0.0032875662 0)
(0.99931938 0.0032729746 0)
(0.99952561 0.0032394556 0)
(0.99972288 0.0031827615 0)
(0.99990287 0.0031031974 0)
(1.0000568 0.0030069915 0)
(1.0001777 0.0029053148 0)
(1.000267 0.0028126878 0)
(1.000328 0.0027350055 0)
(1.0003689 0.0026819401 0)
(1.0004054 0.0026513094 0)
(1.0004391 0.0026234193 0)
(1.0004688 0.0026017069 0)
(1.0005 0.0025812049 0)
(1.0005314 0.0025594635 0)
(1.0005607 0.0025375919 0)
(1.0005854 0.0025149639 0)
(1.0005998 0.0024918735 0)
(1.0005939 0.0024678532 0)
(1.0005512 0.002443099 0)
(1.0004457 0.0024179315 0)
(1.0002366 0.0023922225 0)
(0.99986217 0.0023644395 0)
(0.99924861 0.0023345163 0)
(0.99824387 0.0023025307 0)
(0.99671293 0.0022653742 0)
(0.9945386 0.0022204553 0)
(0.99164034 0.0021676248 0)
(0.98798318 0.002105113 0)
(0.98360981 0.0020257488 0)
(0.97864497 0.0019313048 0)
(0.97323763 0.0018299467 0)
(0.96754091 0.001725309 0)
(0.96169329 0.001621616 0)
(0.9558022 0.001524271 0)
(0.94993011 0.0014355254 0)
(0.94410441 0.0013551384 0)
(0.93833797 0.0012831253 0)
(0.93264364 0.0012195132 0)
(0.92703889 0.0011638046 0)
(0.92154114 0.0011133801 0)
(0.91615965 0.0010639035 0)
(0.91089307 0.0010127631 0)
(0.90573456 0.00096097533 0)
(0.90067614 0.00091071664 0)
(0.89571154 0.00086334109 0)
(0.89083669 0.00081921112 0)
(0.88605173 0.00077867851 0)
(0.88135642 0.00074051874 0)
(0.8767471 0.0007037099 0)
(0.87222156 0.00066878089 0)
(0.86778067 0.00063586606 0)
(0.86342499 0.00060502978 0)
(0.8591539 0.0005760537 0)
(0.85496632 0.00054879509 0)
(0.85086105 0.00052320453 0)
(0.8468364 0.00049902654 0)
(0.84289027 0.00047606579 0)
(0.83902074 0.00045431584 0)
(0.83522585 0.00043373781 0)
(0.83150379 0.0004142359 0)
(0.82785286 0.00039575556 0)
(0.82427127 0.00037823658 0)
(0.82075728 0.00036159977 0)
(0.81730924 0.00034581294 0)
(0.81392545 0.00033082162 0)
(0.81060433 0.00031656971 0)
(0.80734435 0.00030303963 0)
(0.80414392 0.0002901784 0)
(0.80100168 0.0002779425 0)
(0.79791608 0.00026632952 0)
(0.79488566 0.00025524213 0)
(0.79190931 0.00024465555 0)
(0.78898544 0.00023462166 0)
(0.78611165 0.00022461852 0)
(0.7832737 0.00020882573 0)
(0.78035371 0.00014574862 0)
(0.77700204 9.1657187e-05 0)
(0.77385439 9.5520564e-05 0)
(0.77091215 0.00010934395 0)
(0.76817828 0.00012377264 0)
(0.76556685 0.00013265727 0)
(0.76302001 0.00013656628 0)
(0.76050884 0.00013685024 0)
(0.75802295 0.00013489674 0)
(0.75556528 0.00013200763 0)
(0.75312004 0.00012801575 0)
(0.75073092 0.00012624134 0)
(0.74824004 0.00012084403 4.9922188e-20)
(0.74609703 0.00013670794 0)
(0.74231344 0.00011087855 0)
(0.99672899 0.0019374383 0)
(0.99693662 0.0024695922 0)
(0.99732027 0.0028117409 0)
(0.99769432 0.0029724785 0)
(0.99798452 0.0030715585 0)
(0.99822688 0.0031568404 0)
(0.99845964 0.0032253129 0)
(0.99868709 0.0032754974 0)
(0.99890433 0.0033100789 0)
(0.99911339 0.0033368905 0)
(0.99931814 0.003334733 0)
(0.99951833 0.0033175855 0)
(0.99970932 0.0032740692 0)
(0.99988362 0.0032055969 0)
(1.0000331 0.0031170178 0)
(1.0001523 0.0030173547 0)
(1.0002422 0.0029178732 0)
(1.0003056 0.0028233713 0)
(1.0003497 0.002743694 0)
(1.0003888 0.0026791889 0)
(1.0004254 0.0026183478 0)
(1.0004595 0.002568773 0)
(1.000496 0.0025283437 0)
(1.0005347 0.002493584 0)
(1.0005747 0.0024641512 0)
(1.0006158 0.002438013 0)
(1.0006576 0.0024139334 0)
(1.0006986 0.0023905772 0)
(1.0007376 0.0023685732 0)
(1.0007741 0.0023482207 0)
(1.0008069 0.0023296649 0)
(1.0008343 0.0023138128 0)
(1.0008527 0.0023011812 0)
(1.0008546 0.0022908216 0)
(1.0008248 0.0022810002 0)
(1.0007362 0.0022696492 0)
(1.0005434 0.0022549283 0)
(1.000182 0.002235206 0)
(0.99954527 0.0022106249 0)
(0.99848725 0.0021807639 0)
(0.99687741 0.0021438236 0)
(0.99461532 0.0021000003 0)
(0.99164298 0.002047526 0)
(0.98798252 0.0019806788 0)
(0.98373532 0.0019011858 0)
(0.97903183 0.001815172 0)
(0.97401064 0.0017257793 0)
(0.96879727 0.0016387989 0)
(0.96348754 0.0015595681 0)
(0.958142 0.0014871607 0)
(0.95279143 0.0014183003 0)
(0.94745243 0.0013505731 0)
(0.94213799 0.0012841497 0)
(0.93686234 0.0012202105 0)
(0.93163851 0.0011595975 0)
(0.92647471 0.0011024741 0)
(0.92137721 0.0010490889 0)
(0.91635063 0.00099843591 0)
(0.91139661 0.00094966998 0)
(0.90651595 0.00090322561 0)
(0.90171064 0.00085916837 0)
(0.89698288 0.00081760321 0)
(0.89233429 0.00077834824 0)
(0.88776562 0.00074126588 0)
(0.88327803 0.00070631037 0)
(0.87887117 0.00067322635 0)
(0.8745432 0.00064181086 0)
(0.8702936 0.00061203328 0)
(0.86612148 0.00058382443 0)
(0.86202572 0.00055706656 0)
(0.85800517 0.00053169199 0)
(0.85405849 0.00050762445 0)
(0.85018435 0.00048476433 0)
(0.8463814 0.00046306655 0)
(0.84264818 0.00044245984 0)
(0.83898331 0.0004228709 0)
(0.83538539 0.00040426954 0)
(0.83185296 0.00038658604 0)
(0.82838469 0.00036976609 0)
(0.82497913 0.00035380131 0)
(0.82163481 0.00033857252 0)
(0.81835067 0.00032404868 0)
(0.81512521 0.00031031248 0)
(0.81195684 0.00029698461 0)
(0.80883724 0.00027880644 0)
(0.80570307 0.00021892768 0)
(0.80240474 0.00016525762 0)
(0.79919128 0.00016179315 0)
(0.79610252 0.00016937898 0)
(0.793159 0.00017887314 0)
(0.79032121 0.00018437124 0)
(0.78755065 0.00018584441 0)
(0.78482313 0.00018418595 0)
(0.78212688 0.00018042547 0)
(0.77946311 0.00017584877 0)
(0.77681549 0.00017005891 0)
(0.77422754 0.00016734205 0)
(0.77153906 0.00015927557 0)
(0.76922251 0.00018211839 3.5545699e-20)
(0.76514854 0.00014270779 0)
(0.99688911 0.0018995603 0)
(0.99706444 0.0023817308 0)
(0.99739509 0.0027142886 0)
(0.99773448 0.0028929807 0)
(0.99801258 0.0030080795 0)
(0.99824901 0.0031032146 0)
(0.99847511 0.0031758672 0)
(0.99869655 0.0032238331 0)
(0.99890871 0.0032529033 0)
(0.99911331 0.0032653663 0)
(0.99931362 0.0032611681 0)
(0.99950865 0.0032360504 0)
(0.99969467 0.0031877687 0)
(0.99986487 0.0031171868 0)
(1.0000118 0.0030285766 0)
(1.0001305 0.0029304556 0)
(1.0002217 0.0028333508 0)
(1.0002876 0.0027431514 0)
(1.0003354 0.0026697526 0)
(1.000377 0.002614222 0)
(1.0004156 0.0025672838 0)
(1.0004517 0.0025328457 0)
(1.0004895 0.0025070426 0)
(1.000529 0.002485274 0)
(1.0005696 0.0024662905 0)
(1.0006116 0.0024482211 0)
(1.0006544 0.0024300102 0)
(1.0006971 0.0024108782 0)
(1.000739 0.0023915287 0)
(1.0007796 0.0023722516 0)
(1.0008189 0.002353343 0)
(1.0008568 0.0023356817 0)
(1.0008944 0.0023192467 0)
(1.000932 0.0023033285 0)
(1.0009694 0.0022875427 0)
(1.0010063 0.0022712885 0)
(1.0010408 0.0022544529 0)
(1.0010698 0.0022376855 0)
(1.0010867 0.0022213295 0)
(1.0010793 0.0022050721 0)
(1.0010242 0.0021884295 0)
(1.0008811 0.0021704255 0)
(1.0005893 0.0021499967 0)
(1.0000421 0.002126989 0)
(0.99909595 0.0021004649 0)
(0.997619 0.0020685479 0)
(0.99551194 0.0020318299 0)
(0.99272002 0.0019851395 0)
(0.9893011 0.0019258493 0)
(0.98535815 0.0018586954 0)
(0.98101816 0.0017833453 0)
(0.97640478 0.0017022663 0)
(0.97161606 0.0016212728 0)
(0.96671663 0.0015435743 0)
(0.96174466 0.0014705364 0)
(0.9567253 0.0014021773 0)
(0.95168208 0.0013379909 0)
(0.94663784 0.0012764426 0)
(0.94161004 0.0012167048 0)
(0.93661026 0.0011592889 0)
(0.93164735 0.0011043393 0)
(0.92672941 0.0010520661 0)
(0.92186371 0.0010023645 0)
(0.91705588 0.00095512223 0)
(0.9123109 0.00091033831 0)
(0.90763221 0.00086782124 0)
(0.90302144 0.00082737307 0)
(0.89848022 0.00078893588 0)
(0.89400977 0.00075243619 0)
(0.8896109 0.00071774718 0)
(0.88528407 0.00068479663 0)
(0.88102929 0.00065349885 0)
(0.87684637 0.00062373887 0)
(0.87273492 0.00059546315 0)
(0.86869431 0.00056858696 0)
(0.86472384 0.0005430223 0)
(0.86082272 0.00051873006 0)
(0.85698995 0.00049562583 0)
(0.85322464 0.0004736433 0)
(0.84952567 0.00045276817 0)
(0.84589188 0.00043285922 0)
(0.84232244 0.00041387838 0)
(0.83881611 0.00039592666 0)
(0.83537203 0.00037870298 0)
(0.83198531 0.0003571504 0)
(0.82861948 0.00029704091 0)
(0.82521003 0.00024190049 0)
(0.82185552 0.00023335971 0)
(0.81858885 0.00023583373 0)
(0.8154308 0.00024075005 0)
(0.81236592 0.00024262258 0)
(0.80937038 0.00024124426 0)
(0.80642529 0.0002372249 0)
(0.80351854 0.00023130913 0)
(0.80064976 0.00022476707 0)
(0.79780165 0.00021692559 0)
(0.79501727 0.00021307855 0)
(0.79213376 0.00020189297 0)
(0.78964601 0.00023269336 3.4331792e-20)
(0.78528573 0.00017763901 0)
(0.99703743 0.0018683964 0)
(0.99718727 0.0023054822 0)
(0.99747284 0.0026268218 0)
(0.99777922 0.0028162769 0)
(0.99804297 0.002939129 0)
(0.99827197 0.0030370154 0)
(0.9984911 0.0031123767 0)
(0.99870659 0.0031641295 0)
(0.99891451 0.0031972181 0)
(0.99911533 0.0032162637 0)
(0.99931142 0.0032177277 0)
(0.99950195 0.0031998561 0)
(0.99968352 0.0031604641 0)
(0.99984996 0.0030999197 0)
(0.99999456 0.0030220333 0)
(1.0001129 0.0029345339 0)
(1.0002052 0.0028467431 0)
(1.0002736 0.0027644963 0)
(1.0003245 0.0026963026 0)
(1.0003685 0.0026427187 0)
(1.0004086 0.0025960318 0)
(1.0004461 0.0025587231 0)
(1.0004845 0.0025277848 0)
(1.0005242 0.0024998882 0)
(1.000565 0.0024745629 0)
(1.0006069 0.0024505922 0)
(1.0006495 0.0024272686 0)
(1.0006919 0.0024040492 0)
(1.0007335 0.0023814339 0)
(1.0007741 0.0023597056 0)
(1.0008135 0.002339143 0)
(1.0008522 0.0023203863 0)
(1.0008909 0.0023033703 0)
(1.0009301 0.0022876017 0)
(1.0009704 0.0022727318 0)
(1.0010114 0.0022579195 0)
(1.0010525 0.0022426757 0)
(1.0010929 0.0022269335 0)
(1.0011321 0.0022103739 0)
(1.0011696 0.0021931319 0)
(1.0012044 0.0021758726 0)
(1.0012359 0.0021592368 0)
(1.001262 0.002143938 0)
(1.0012768 0.0021301219 0)
(1.001267 0.0021172391 0)
(1.0012071 0.0021045035 0)
(1.0010492 0.0020906008 0)
(1.0007253 0.0020757754 0)
(1.0000963 0.0020600817 0)
(0.9990228 0.0020401894 0)
(0.99738484 0.0020127795 0)
(0.99510101 0.0019720617 0)
(0.99218919 0.0019155169 0)
(0.98873409 0.0018483853 0)
(0.98485272 0.0017748509 0)
(0.98066381 0.0016994935 0)
(0.97626282 0.0016266636 0)
(0.97171288 0.001556353 0)
(0.96705244 0.0014882936 0)
(0.96231016 0.0014228741 0)
(0.95751334 0.0013597712 0)
(0.95268684 0.001298913 0)
(0.9478504 0.0012403002 0)
(0.94301897 0.0011839547 0)
(0.93820529 0.0011300244 0)
(0.93342036 0.0010784593 0)
(0.92867262 0.0010291332 0)
(0.92396875 0.00098203045 0)
(0.9193142 0.00093710844 0)
(0.91471356 0.00089425554 0)
(0.91017051 0.00085341859 0)
(0.90568783 0.00081452165 0)
(0.90126769 0.00077744922 0)
(0.89691173 0.00074215153 0)
(0.89262103 0.00070853997 0)
(0.88839641 0.00067651966 0)
(0.88423832 0.00064604943 0)
(0.88014687 0.00061703523 0)
(0.87612211 0.00058940256 0)
(0.87216371 0.00056313466 0)
(0.86827123 0.00053807041 0)
(0.86444443 0.00051416646 0)
(0.86068261 0.00049153679 0)
(0.85698567 0.00046992361 0)
(0.85335083 0.00044427477 0)
(0.84975448 0.00038184365 0)
(0.84616872 0.00032421319 0)
(0.84263578 0.00031136538 0)
(0.83917562 0.00030929553 0)
(0.83580359 0.00030982257 0)
(0.83251553 0.00030787178 0)
(0.82929798 0.00030325276 0)
(0.82613727 0.00029644193 0)
(0.82302203 0.00028799118 0)
(0.81995071 0.00027916793 0)
(0.81690507 0.00026898048 0)
(0.81392748 0.00026378169 0)
(0.81085221 0.00024904022 -2.0648141e-20)
(0.80819612 0.00028873263 0)
(0.80355446 0.00021596939 1.0817131e-20)
(0.99717525 0.001841594 0)
(0.99730486 0.0022381371 0)
(0.99755203 0.002545252 0)
(0.99782747 0.0027403351 0)
(0.99807594 0.0028699893 0)
(0.99829708 0.0029723134 0)
(0.99850932 0.0030528719 0)
(0.99871866 0.0031101748 0)
(0.99892183 0.0031478033 0)
(0.99911827 0.0031696972 0)
(0.99930966 0.0031733249 0)
(0.99949539 0.0031576352 0)
(0.99967226 0.0031209438 0)
(0.99983474 0.003063773 0)
(0.99997682 0.0029898494 0)
(1.0000945 0.002906311 0)
(1.0001877 0.0028215653 0)
(1.0002584 0.0027414891 0)
(1.0003123 0.002673721 0)
(1.0003585 0.0026190603 0)
(1.0004005 0.0025718038 0)
(1.0004396 0.0025338504 0)
(1.0004793 0.0025028735 0)
(1.0005198 0.0024760346 0)
(1.0005612 0.0024525916 0)
(1.0006035 0.0024310955 0)
(1.0006463 0.0024105718 0)
(1.000689 0.0023902953 0)
(1.0007307 0.0023704627 0)
(1.0007714 0.0023512892 0)
(1.000811 0.0023329844 0)
(1.0008498 0.0023160507 0)
(1.0008885 0.0023004882 0)
(1.0009276 0.0022858702 0)
(1.0009674 0.0022717698 0)
(1.0010079 0.0022573788 0)
(1.0010488 0.0022422251 0)
(1.0010895 0.002226265 0)
(1.0011297 0.0022094151 0)
(1.0011689 0.0021920713 0)
(1.0012071 0.0021748883 0)
(1.0012441 0.0021582382 0)
(1.0012797 0.0021423304 0)
(1.0013143 0.0021269494 0)
(1.0013476 0.0021121343 0)
(1.0013788 0.0020982818 0)
(1.001407 0.0020861187 0)
(1.0014296 0.002076562 0)
(1.0014385 0.0020696708 0)
(1.0014154 0.0020635109 0)
(1.0013201 0.0020540739 0)
(1.0010874 0.0020389569 0)
(1.0005887 0.002018629 0)
(0.99967742 0.0019932125 0)
(0.99822726 0.0019631794 0)
(0.9961529 0.0019240219 0)
(0.99347693 0.001872934 0)
(0.99027982 0.0018127546 0)
(0.98667243 0.0017457089 0)
(0.98276247 0.0016765213 0)
(0.97863173 0.0016083995 0)
(0.97433287 0.0015422099 0)
(0.96990202 0.0014782001 0)
(0.96537107 0.0014160934 0)
(0.96077024 0.0013557562 0)
(0.95612495 0.0012972303 0)
(0.95145493 0.0012405643 0)
(0.94677623 0.0011859112 0)
(0.94210258 0.0011333525 0)
(0.93744548 0.0010828615 0)
(0.93281439 0.0010344594 0)
(0.92821705 0.00098812191 0)
(0.92365995 0.00094376646 0)
(0.9191484 0.0009013749 0)
(0.91468663 0.00086087569 0)
(0.91027816 0.00082218436 0)
(0.90592579 0.00078527192 0)
(0.90163163 0.00075004578 0)
(0.89739745 0.00071643283 0)
(0.89322446 0.00068442205 0)
(0.88911348 0.0006538383 0)
(0.8850654 0.00062463832 0)
(0.88108052 0.00059694964 0)
(0.87715975 0.00057054005 0)
(0.87330193 0.00054028016 0)
(0.8694898 0.0004744139 0)
(0.86571173 0.00041350516 0)
(0.86199029 0.00039636065 0)
(0.85833618 0.00038990571 0)
(0.85475859 0.0003861035 0)
(0.85125771 0.0003801652 0)
(0.84782691 0.00037198356 0)
(0.84445732 0.00036200479 0)
(0.84113917 0.00035065964 0)
(0.8378705 0.00033923587 0)
(0.83463234 0.000326406 0)
(0.83146648 0.00031963502 0)
(0.82820415 0.00030089712 0)
(0.82538372 0.00035043861 3.40961e-20)
(0.82046714 0.0002578733 0)
(0.99730382 0.0018181928 0)
(0.99741721 0.002178526 0)
(0.99763182 0.0024698495 0)
(0.99787887 0.0026673623 0)
(0.99811169 0.0028030207 0)
(0.99832433 0.0029094412 0)
(0.99852935 0.0029938859 0)
(0.99873208 0.003055062 0)
(0.99892992 0.0030956839 0)
(0.99912165 0.0031194974 0)
(0.99930831 0.003125571 0)
(0.99948932 0.0031129403 0)
(0.99966167 0.0030804227 0)
(0.99982037 0.0030286925 0)
(0.99996005 0.0029612234 0)
(1.0000771 0.00288444 0)
(1.0001711 0.0028058535 0)
(1.0002438 0.0027311993 0)
(1.0003005 0.0026672724 0)
(1.000349 0.0026150252 0)
(1.0003928 0.0025701704 0)
(1.0004336 0.0025338669 0)
(1.0004744 0.0025040044 0)
(1.0005156 0.0024779713 0)
(1.0005575 0.0024548499 0)
(1.0006001 0.0024332602 0)
(1.000643 0.0024123261 0)
(1.0006857 0.0023914735 0)
(1.0007276 0.0023709053 0)
(1.0007684 0.0023509265 0)
(1.0008082 0.0023317967 0)
(1.0008473 0.0023139867 0)
(1.0008862 0.0022975603 0)
(1.0009254 0.0022821377 0)
(1.0009653 0.0022672931 0)
(1.0010058 0.0022523277 0)
(1.0010465 0.0022368117 0)
(1.0010871 0.0022207106 0)
(1.001127 0.0022039904 0)
(1.0011659 0.0021869526 0)
(1.0012038 0.0021700844 0)
(1.0012406 0.0021536681 0)
(1.0012767 0.0021378747 0)
(1.0013122 0.0021226227 0)
(1.0013473 0.0021081004 0)
(1.001382 0.0020946582 0)
(1.0014162 0.0020826785 0)
(1.0014502 0.0020724352 0)
(1.001485 0.0020640116 0)
(1.0015213 0.0020565575 0)
(1.001558 0.0020479273 0)
(1.0015911 0.0020370222 0)
(1.0016105 0.0020246001 0)
(1.0015971 0.0020115118 0)
(1.0015111 0.0019973515 0)
(1.0012883 0.0019817058 0)
(1.0007932 0.0019640611 0)
(0.99988022 0.001941913 0)
(0.99842352 0.0019129751 0)
(0.99635999 0.0018733283 0)
(0.99373031 0.001822219 0)
(0.99062375 0.0017631125 0)
(0.98714714 0.0016997823 0)
(0.98339236 0.0016359474 0)
(0.97942264 0.0015728678 0)
(0.97528066 0.0015111179 0)
(0.97100233 0.0014506533 0)
(0.9666214 0.0013914513 0)
(0.96216678 0.0013336298 0)
(0.95766148 0.0012773279 0)
(0.95312461 0.0012227478 0)
(0.9485726 0.0011700045 0)
(0.9440193 0.0011191202 0)
(0.93947618 0.0010701662 0)
(0.93495282 0.0010231312 0)
(0.93045732 0.00097797627 0)
(0.92599641 0.00093471398 0)
(0.92157561 0.0008932746 0)
(0.91719962 0.00085360496 0)
(0.91287215 0.00081571548 0)
(0.90859624 0.00077942867 0)
(0.90437465 0.00074471211 0)
(0.90020934 0.00071171337 0)
(0.89610275 0.00068021933 0)
(0.89205543 0.00064500214 0)
(0.88805377 0.00057508579 0)
(0.8840938 0.00051030142 0)
(0.88019255 0.00048862815 0)
(0.87635607 0.00047773776 0)
(0.87258867 0.00046957079 0)
(0.86889145 0.00045949554 0)
(0.86526193 0.00044748573 0)
(0.86169532 0.00043401347 0)
(0.85818404 0.00041944264 0)
(0.85472651 0.00040511048 0)
(0.85130352 0.00038934865 0)
(0.84795652 0.00038079069 0)
(0.84451374 0.00035760859 0)
(0.84153454 0.00041781061 0)
(0.83635146 0.00030350104 0)
(0.9974242 0.0017973347 0)
(0.99752444 0.0021254504 0)
(0.99771154 0.0024003439 0)
(0.99793288 0.0025975268 0)
(0.99814995 0.0027376225 0)
(0.99835348 0.0028472458 0)
(0.99855099 0.0029346283 0)
(0.99874685 0.0029991983 0)
(0.99893903 0.0030430075 0)
(0.99912589 0.0030694838 0)
(0.99930778 0.0030786065 0)
(0.99948405 0.0030694216 0)
(0.9996519 0.0030411198 0)
(0.99980684 0.0029944836 0)
(0.99994405 0.002932725 0)
(1.0000602 0.0028616392 0)
(1.0001548 0.0027880027 0)
(1.0002294 0.0027173813 0)
(1.0002885 0.0026558667 0)
(1.0003392 0.0026045973 0)
(1.0003847 0.0025604569 0)
(1.0004271 0.0025241381 0)
(1.0004689 0.0024938501 0)
(1.0005109 0.0024673697 0)
(1.0005533 0.0024438116 0)
(1.0005962 0.0024219553 0)
(1.0006394 0.002401002 0)
(1.0006823 0.002380427 0)
(1.0007244 0.0023603326 0)
(1.0007654 0.002340968 0)
(1.0008055 0.0023225374 0)
(1.0008448 0.0023054032 0)
(1.0008839 0.0022896071 0)
(1.0009233 0.0022747787 0)
(1.0009633 0.0022604853 0)
(1.0010038 0.0022460891 0)
(1.0010445 0.0022311571 0)