/*--------------------------------*- C++ -*----------------------------------*\
  =========                 |
  \\      /  F ield         | OpenFOAM: The Open Source CFD Toolbox
   \\    /   O peration     | Website:  https://openfoam.org
    \\  /    A nd           | Version:  12
     \\/     M anipulation  |
\*---------------------------------------------------------------------------*/
FoamFile
{
    format      ascii;
    class       volVectorField;
    location    "400";
    object      wallShearStress;
}
// * * * * * * * * * * * * * * * * * * * * * * * * * * * * * * * * * * * * * //

dimensions      [0 2 -2 0 0 0 0];

internalField   uniform (0 0 0);

boundaryField
{
    bottom
    {
        type            calculated;
        value           nonuniform List<vector> 
112
(
(-0.0057227483 -3.5235083e-05 0)
(-0.0028865108 -3.8555197e-07 -1.8643471e-17)
(-0.0025812337 -8.4190152e-08 -5.1879108e-19)
(-0.0024809919 -1.8676476e-08 -9.97723e-19)
(-0.0024174066 -1.3205772e-08 0)
(-0.0023642081 -1.1215897e-08 0)
(-0.0023173593 -9.8381714e-09 0)
(-0.0022756466 -8.7088903e-09 0)
(-0.0022382036 -7.7814812e-09 0)
(-0.0022042205 -7.0244744e-09 -7.4886418e-19)
(-0.0021730739 -6.3940518e-09 0)
(-0.0021443195 -5.8559461e-09 -6.2424249e-19)
(-0.0021176275 -5.388716e-09 5.7443523e-19)
(-0.0020927367 -4.9787325e-09 -5.3073069e-19)
(-0.0020694329 -4.6161722e-09 0)
(-0.0020475364 -4.2934476e-09 4.5767149e-19)
(-0.0020268957 -4.0046004e-09 0)
(-0.0020073807 -3.7449943e-09 -1.9960207e-19)
(-0.0019888774 -3.5108174e-09 0)
(-0.0019712873 -3.2985928e-09 -3.516164e-19)
(-0.0019545249 -3.105647e-09 3.3104719e-19)
(-0.001938514 -2.9294262e-09 0)
(-0.0019231905 -2.7678244e-09 0)
(-0.0019084957 -2.619534e-09 0)
(-0.0018943761 -2.4828159e-09 -2.6465459e-19)
(-0.0018807875 -2.3562781e-09 0)
(-0.0018676884 -2.2392325e-09 0)
(-0.0018550396 -2.1306274e-09 0)
(-0.0018428081 -2.0293748e-09 0)
(-0.0018309648 -1.9349544e-09 -2.06256e-19)
(-0.0018194805 -1.8469273e-09 1.9687115e-19)
(-0.0018083289 -1.7644404e-09 0)
(-0.0017974888 -1.6868904e-09 0)
(-0.0017869394 -1.6141358e-09 0)
(-0.0017766597 -1.5458284e-09 1.6477628e-19)
(-0.0017666312 -1.4813441e-09 0)
(-0.0017568393 -1.42032e-09 0)
(-0.0017472689 -1.3627213e-09 -1.4525952e-19)
(-0.0017379045 -1.3083571e-09 0)
(-0.0017287321 -1.2567505e-09 0)
(-0.0017197413 -1.2076252e-09 0)
(-0.0017109209 -1.1609965e-09 1.2375689e-19)
(-0.0017022593 -1.1167502e-09 -5.951995e-20)
(-0.0016937456 -1.0746104e-09 1.145477e-19)
(-0.0016853712 -1.0343314e-09 0)
(-0.0016771281 -9.9584e-10 0)
(-0.0016690077 -9.5913019e-10 -1.5335611e-19)
(-0.0016610013 -9.2410463e-10 0)
(-0.0016531009 -8.9051431e-10 9.4921651e-20)
(-0.0016453008 -8.5822792e-10 0)
(-0.0016375947 -8.2728645e-10 0)
(-0.0016299753 -7.9765264e-10 -4.2510245e-20)
(-0.0016224361 -7.6920303e-10 -4.0993336e-20)
(-0.0016149712 -7.4178749e-10 0)
(-0.0016075761 -7.1535164e-10 -7.624445e-20)
(-0.0016002454 -6.8992356e-10 0)
(-0.0015929733 -6.6548374e-10 0)
(-0.001585754 -6.4190702e-10 0)
(-0.0015785834 -6.1909242e-10 0)
(-0.0015714573 -5.970455e-10 0)
(-0.0015643708 -5.7577981e-10 0)
(-0.0015573189 -5.5527125e-10 0)
(-0.0015502963 -5.3540938e-10 0)
(-0.0015432998 -5.1612971e-10 0)
(-0.0015363254 -4.974683e-10 -5.3003916e-20)
(-0.0015293683 -4.7942879e-10 0)
(-0.0015224234 -4.6196543e-10 -2.4608001e-20)
(-0.0015154865 -4.450038e-10 0)
(-0.001508554 -4.2851295e-10 -2.2823525e-20)
(-0.0015016219 -4.1252547e-10 4.3941139e-20)
(-0.001494685 -3.970494e-10 4.2289647e-20)
(-0.001487738 -3.8201128e-10 -2.0342551e-20)
(-0.0014807773 -3.6735943e-10 0)
(-0.0014737988 -3.5312264e-10 0)
(-0.0014667971 -3.3931634e-10 3.6129377e-20)
(-0.0014597665 -3.2590463e-10 -3.469823e-20)
(-0.001452702 -3.1283646e-10 0)
(-0.0014455991 -3.0010517e-10 0)
(-0.0014384521 -2.8773463e-10 -3.0625307e-20)
(-0.0014312545 -2.7570945e-10 0)
(-0.0014240001 -2.6398148e-10 0)
(-0.0014166836 -2.5254329e-10 0)
(-0.001409298 -2.4142112e-10 0)
(-0.0014018351 -2.3059489e-10 0)
(-0.0013942878 -2.2002552e-10 0)
(-0.0013866487 -2.0971911e-10 0)
(-0.0013789087 -1.996965e-10 0)
(-0.0013710569 -1.8990318e-10 2.0187649e-20)
(-0.0013630865 -1.8039982e-10 -1.9174079e-20)
(-0.0013551607 -1.7141607e-10 0)
(-0.0013475302 -1.6306994e-10 0)
(-0.0013402668 -1.5535415e-10 0)
(-0.0013333425 -1.4823887e-10 0)
(-0.0013267304 -1.4168403e-10 0)
(-0.001320406 -1.3562251e-10 0)
(-0.0013143486 -1.2999324e-10 0)
(-0.0013085393 -1.2476953e-10 0)
(-0.0013029598 -1.199278e-10 -1.2726565e-20)
(-0.0012975934 -1.1541891e-10 0)
(-0.0012924264 -1.1120025e-10 0)
(-0.0012874459 -1.0725689e-10 0)
(-0.0012826396 -1.0357892e-10 0)
(-0.0012779955 -1.0015931e-10 0)
(-0.0012735019 -9.6966119e-11 0)
(-0.0012691498 -9.4023685e-11 0)
(-0.0012649252 -9.1253714e-11 0)
(-0.0012608265 -8.9037241e-11 0)
(-0.0012568045 -8.6607595e-11 0)
(-0.0012529288 -8.6742949e-11 0)
(-0.0012488924 -1.485217e-10 0)
(-0.0012453991 -1.0151253e-10 -1.0837352e-20)
(-0.0012395855 -1.1563236e-10 0)
)
;
    }
    back
    {
        type            empty;
    }
    front
    {
        type            empty;
    }
    inlet
    {
        type            calculated;
        value           uniform (0 0 0);
    }
    outlet
    {
        type            calculated;
        value           uniform (0 0 0);
    }
    top
    {
        type            calculated;
        value           uniform (0 0 0);
    }
    slipsurface
    {
        type            calculated;
        value           uniform (0 0 0);
    }
}


// ************************************************************************* //
