#      distance             U_x             U_y             U_z wallShearStr... wallShearStr... wallShearStr...               p         epsilon               k             nut
  3.0219182e-06     0.032818866   4.0850337e-09  -3.2587308e-23               0               0               0   0.00026028669        9.607201   0.00048055946   4.7450288e-09
  5.0865428e-06     0.054236225   1.0287842e-08  -1.3912552e-23               0               0               0   0.00026028709       6.4343811    0.0010130684   1.8839071e-08
  7.2269684e-06     0.074478207   1.9632266e-08  -2.5370331e-23               0               0               0   0.00026028758        5.439869    0.0016079004   4.7687644e-08
  9.4750924e-06     0.092961237   3.1810213e-08  -3.8051427e-23               0               0               0   0.00026028817       4.9889509    0.0021898873   9.0939635e-08
  1.1864417e-05      0.10960455   4.6623052e-08  -1.5428348e-23               0               0               0   0.00026028889       4.7068679    0.0027168379   1.4498175e-07
  1.4430548e-05      0.12469561   6.4137984e-08   3.1313986e-23               0               0               0   0.00026028974       4.4757856    0.0031779759   2.0653464e-07
  1.7211727e-05      0.13861324   8.4611575e-08   5.2459579e-23               0               0               0   0.00026029071       4.2583748    0.0035784586   2.7388933e-07
  2.0249401e-05      0.15168718   1.0843265e-07   1.2221892e-23               0               0               0   0.00026029181       4.0434335    0.0039274885    3.465376e-07
  2.3588836e-05      0.16417098   1.3610529e-07  -1.2352898e-23               0               0               0   0.00026029305       3.8281797    0.0042336434   4.2464998e-07
  2.7279799e-05      0.17625301   1.6824834e-07   -6.176449e-24               0               0               0   0.00026029443        3.612589    0.0045038108   5.0876874e-07
  3.1377293e-05       0.1880728   2.0560136e-07               0               0               0               0   0.00026029599       3.3975538    0.0047432794   5.9966107e-07
  3.5942381e-05      0.19973435   2.4903611e-07      1.9942e-23               0               0               0   0.00026029774       3.1842594    0.0049560811   6.9825575e-07
  4.1043091e-05      0.21131581   2.9957297e-07   2.9909801e-23               0               0               0   0.00026029971       2.9739573    0.0051453194    8.056203e-07
  4.6755437e-05      0.22287615   3.5840182e-07   3.5348808e-23               0               0               0   0.00026030194       2.7678724    0.0053134305   9.2295829e-07
  5.3164546e-05      0.23445998   4.2690729e-07    3.806744e-23               0               0               0   0.00026030446       2.5671552    0.0054623756   1.0516172e-06
  6.0365928e-05      0.24610089    5.066986e-07   -6.790459e-23               0               0               0   0.00026030732       2.3728519    0.0055937793   1.1931027e-06
    6.84669e-05      0.25782386   5.9964457e-07  -1.4537995e-22               0               0               0   0.00026031058        2.185883    0.0057090275   1.3490967e-06
  7.7588184e-05       0.2696471   7.0791442e-07  -8.1829528e-23               0               0               0   0.00026031428       2.0070272    0.0058093362   1.5214787e-06
   8.786571e-05      0.28158338   8.3402532e-07    2.087981e-23               0               0               0   0.00026031851       1.8369119    0.0058957978   1.7123506e-06
  9.9452634e-05      0.29364111    9.808975e-07   1.0752426e-22               0               0               0   0.00026032333       1.6760091     0.005969413   1.9240638e-06
  0.00011252163      0.30582516   1.1519185e-06   2.7392434e-23               0               0               0   0.00026032885       1.5246364    0.0060311118   2.1592493e-06
  0.00012726745      0.31813753   1.3510174e-06  -4.8051145e-23               0               0               0   0.00026033518       1.3829638    0.0060817658   2.4208513e-06
  0.00014390985       0.3305779   1.5827515e-06   -5.839722e-24               0               0               0   0.00026034243       1.2510238    0.0061221968   2.7121646e-06
  0.00016269684      0.34314409   1.8524062e-06   4.4160429e-23               0               0               0   0.00026035075       1.1287248    0.0061531807   3.0368751e-06
  0.00018390838      0.35583245    2.166112e-06   3.1110229e-22               0               0               0    0.0002603603       1.0158678    0.0061754496   3.3991059e-06
  0.00020786057      0.36863821   2.5309789e-06   3.7829685e-22               0               0               0   0.00026037129      0.91216214    0.0061896933   3.8034668e-06
  0.00023491035      0.38155573   2.9552537e-06   1.1135498e-22               0               0               0   0.00026038393       0.8172438    0.0061965591   4.2551099e-06
  0.00026546084      0.39457875   3.4485019e-06               0               0               0               0   0.00026039848      0.73069164    0.0061966525   4.7597902e-06
   0.0002999673      0.40770065   4.0218198e-06               0               0               0               0   0.00026041523      0.65204333    0.0061905365   5.3239323e-06
  0.00033894396      0.42091454   4.6880797e-06  -1.4961732e-22               0               0               0   0.00026043454       0.5808097     0.006178733   5.9547029e-06
  0.00038297165      0.43421353   5.4622166e-06  -2.9923465e-22               0               0               0   0.00026045679      0.51648739    0.0061617224   6.6600895e-06
  0.00043270649      0.44759074   6.3615603e-06   5.5552989e-22               0               0               0   0.00026048243      0.45856967    0.0061399446   7.4489854e-06
  0.00048888965      0.46103953   7.4062239e-06   1.1228866e-21               0               0               0   0.00026051199      0.40655539    0.0061138002   8.3312791e-06
  0.00055235838      0.47455353   8.6195553e-06   4.1773935e-22               0               0               0   0.00026054607      0.35995629    0.0060836507   9.3179496e-06
   0.0006240585      0.48812673   1.0028665e-05               0               0               0               0   0.00026058536       0.3183025    0.0060498197   1.0421163e-05
  0.00070505852      0.50175363   1.1665046e-05    2.226717e-22               0               0               0   0.00026063065      0.28114676    0.0060125936    1.165437e-05
  0.00079656552      0.51542922   1.3565294e-05    4.453434e-22               0               0               0   0.00026068285       0.2480672    0.0059722219   1.3032401e-05
  0.00089994316      0.52914914   1.5771961e-05    2.226717e-22               0               0               0   0.00026074301      0.21866913     0.005928917   1.4571546e-05
    0.001016732       0.5429097    1.833456e-05               0               0               0               0    0.0002608123      0.19258588    0.0058828544   1.6289627e-05
   0.0011486725      0.55670801    2.131075e-05   8.3465467e-22               0               0               0   0.00026089209      0.16947895    0.0058341711   1.8206033e-05
   0.0012977308      0.57054202   2.4767748e-05  -6.5472963e-22               0               0               0   0.00026098391      0.14903756    0.0057829641   2.0341713e-05
   0.0014661282      0.58441067   2.8784017e-05   -2.936312e-21               0               0               0   0.00026108952      0.13097774     0.005729288   2.2719111e-05
   0.0016563743      0.59831401   3.3451288e-05  -2.5050307e-21               0               0               0   0.00026121088      0.11504117    0.0056731506   2.5362003e-05
   0.0018713042       0.6122533   3.8877004e-05  -1.6222613e-21               0               0               0   0.00026135024      0.10099374    0.0056145087    2.829521e-05
   0.0021141207      0.62623123   4.5187301e-05  -5.6415831e-22               0               0               0   0.00026151007     0.088624011    0.0055532608   3.1544141e-05
   0.0023884425      0.64025208   5.2530641e-05  -4.2099932e-22               0               0               0   0.00026169317     0.077741575     0.005489239   3.5134103e-05
   0.0026983575        0.654322   6.1082307e-05   8.0380269e-22               0               0               0   0.00026190259     0.068175413    0.0054221974   3.9089308e-05
   0.0030484842      0.66844925   7.1049958e-05  -1.9642401e-21               0               0               0   0.00026214169     0.059772251    0.0053517986    4.343149e-05
   0.0034440402      0.68264453   8.2680572e-05  -4.5224948e-21               0               0               0   0.00026241407     0.052394975    0.0052775958   4.8178012e-05
   0.0038909203      0.69692135    9.626914e-05  -1.3334527e-21               0               0               0   0.00026272351     0.045921099      0.00519901   5.3339356e-05
    0.004395784      0.71129647   0.00011216962   3.3234462e-21               0               0               0   0.00026307384     0.040241313    0.0051153022   5.8915826e-05
   0.0049661549      0.72579037   0.00013080876  -2.7928383e-21               0               0               0   0.00026346876     0.035258107    0.0050255374   6.4893331e-05
   0.0056105328      0.74042777   0.00015270356  -1.1312199e-20               0               0               0   0.00026391142     0.030884481    0.0049285397   7.1238052e-05
   0.0063385204      0.75523829   0.00017848328   3.5842885e-21               0               0               0   0.00026440391     0.027042733    0.0048228347   7.7889866e-05
   0.0071609664      0.77025702   0.00020891779   1.4825569e-20               0               0               0   0.00026494653      0.02366332    0.0047065775   8.4754358e-05
   0.0080901272      0.78552522    0.0002449547    2.082445e-20               0               0               0   0.00026553675     0.020683773    0.0045774609    9.169334e-05
   0.0091398493       0.8010909    0.0002877589   2.2927605e-20               0               0               0   0.00026616587     0.018047676    0.0044325993   9.8513856e-05
    0.010325776      0.81700932   0.00033874488   1.2061555e-20               0               0               0   0.00026681649     0.015703669    0.0042683828   0.00010495575
     0.01166558      0.83334304   0.00039972049   3.9130351e-21               0               0               0   0.00026746147     0.013604496    0.0040802971   0.00011067804
    0.013179228       0.8501613   0.00047291797     1.11117e-20               0               0               0   0.00026805821     0.011706094    0.0038627068   0.00011524454
    0.014889277       0.8675377   0.00056100125   8.0826615e-21               0               0               0   0.00026853973    0.0099667876     0.003608614   0.00011810961
    0.016821209      0.88554469   0.00066724469   2.8415171e-20               0               0               0   0.00026880339    0.0083467611    0.0033094349   0.00011860579
    0.019003816      0.90424116   0.00079556665    4.604538e-20               0               0               0   0.00026869717    0.0068082794    0.0029549285   0.00011593725
    0.021469624      0.92364389   0.00095030209   1.9672095e-20               0               0               0   0.00026799803     0.005317969    0.0025336853   0.00010919074
    0.024255377      0.94365776    0.0011350549   2.0803818e-21               0               0               0   0.00026639144    0.0038549129    0.0020354829   9.7403791e-05
    0.027402591      0.96387163    0.0013535514  -2.9905719e-21               0               0               0   0.00026366945    0.0024364787    0.0014606669   7.9900693e-05
    0.030958166      0.98271602     0.001593348               0               0               0               0    0.0002593551    0.0012041039   0.00086561531   5.8288263e-05
    0.034975088      0.99661402    0.0017847563               0               0               0               0   0.00025230751    0.0004077281   0.00040563495   4.2780349e-05
    0.039513219       1.0033474      0.00187054   1.8742353e-20               0               0               0   0.00024288708   9.2651198e-05   0.00018661824   4.8138711e-05
    0.044640187       1.0052757    0.0018863985   2.6050269e-20               0               0               0   0.00023316752    2.489069e-05   0.00012988777   7.1828079e-05
    0.050432395       1.0056776    0.0018821609   2.0926628e-21               0               0               0   0.00022416781   1.4113659e-05   0.00012057377   9.5293179e-05
    0.056976161       1.0057789    0.0018729178  -8.3701276e-21               0               0               0   0.00021554851   1.1788978e-05   0.00011929024   0.00010904878
    0.064369002       1.0058104    0.0018617949  -3.1549079e-21               0               0               0   0.00020689088   1.1109608e-05   0.00011954015   0.00011584143
    0.072721087        1.005818     0.001848259               0               0               0               0   0.00019818229   1.0853466e-05   0.00012003517   0.00011950149
    0.082156882       1.0058118    0.0018322374               0               0               0               0   0.00018965014     1.07272e-05   0.00012045279   0.00012173665
    0.092817002       1.0057952    0.0018142923               0               0               0               0   0.00018156477   1.0652385e-05   0.00012074102     0.000123174
