#      distance             U_x             U_y             U_z wallShearStr... wallShearStr... wallShearStr...               p         epsilon               k             nut
              0      0.99960193               0               0               0               0               0    0.0072720389     0.002619636   7.3682751e-05   1.8652366e-07
   0.0021021021      0.99958986               0               0               0               0               0    0.0073050085    0.0026191911   7.3648151e-05    1.863802e-07
   0.0042042042      0.99957778               0               0               0               0               0    0.0073379782    0.0026187462   7.3613551e-05   1.8623673e-07
   0.0063063063      0.99956571               0               0               0               0               0    0.0073709478    0.0026183013   7.3578952e-05   1.8609327e-07
   0.0084084084      0.99955364               0               0               0               0               0    0.0074039175    0.0026178564   7.3544352e-05   1.8594981e-07
    0.010510511      0.99953954               0               0               0               0               0    0.0074412628     0.002617464   7.3512226e-05   1.8581524e-07
    0.012612613      0.99952419               0               0               0               0               0    0.0074813259    0.0026171042   7.3481636e-05   1.8568619e-07
    0.014714715      0.99950884               0               0               0               0               0    0.0075213889    0.0026167443   7.3451046e-05   1.8555715e-07
    0.016816817      0.99949349               0               0               0               0               0     0.007561452    0.0026163845   7.3420455e-05   1.8542811e-07
    0.018918919      0.99947813               0               0               0               0               0     0.007601515    0.0026160246   7.3389865e-05   1.8529906e-07
    0.021021021      0.99946223               0               0               0               0               0    0.0076426841    0.0026156753   7.3359716e-05   1.8517151e-07
    0.023123123      0.99944266               0               0               0               0               0    0.0076912885    0.0026153973    7.333253e-05   1.8505401e-07
    0.025225225      0.99942308               0               0               0               0               0     0.007739893    0.0026151193   7.3305345e-05    1.849365e-07
    0.027327327       0.9994035               0               0               0               0               0    0.0077884974    0.0026148413    7.327816e-05     1.84819e-07
    0.029429429      0.99938392               0               0               0               0               0    0.0078371019    0.0026145633   7.3250974e-05   1.8470149e-07
    0.031531532      0.99936294               0               0               0               0               0    0.0078883553    0.0026143067   7.3224567e-05   1.8458643e-07
    0.033633634      0.99933788               0               0               0               0               0    0.0079473458    0.0026141126   7.3200433e-05    1.844785e-07
    0.035735736      0.99931282               0               0               0               0               0    0.0080063363    0.0026139184   7.3176298e-05   1.8437057e-07
    0.037837838      0.99928775               0               0               0               0               0    0.0080653269    0.0026137243   7.3152163e-05   1.8426264e-07
     0.03993994      0.99926269               0               0               0               0               0    0.0081243174    0.0026135301   7.3128029e-05   1.8415472e-07
    0.042042042      0.99923103               0               0               0               0               0    0.0081949762    0.0026134188   7.3106538e-05   1.8405436e-07
    0.044144144      0.99919875               0               0               0               0               0    0.0082667286    0.0026133152   7.3085295e-05   1.8395472e-07
    0.046246246      0.99916647               0               0               0               0               0     0.008338481    0.0026132116   7.3064052e-05   1.8385507e-07
    0.048348348      0.99913385               0               0               0               0               0     0.008410819    0.0026131117   7.3042915e-05    1.837557e-07
     0.05045045      0.99909203               0               0               0               0               0    0.0084985295    0.0026131099   7.3024566e-05   1.8366355e-07
    0.052552553      0.99905022               0               0               0               0               0    0.0085862401     0.002613108   7.3006216e-05   1.8357139e-07
    0.054654655       0.9990084               0               0               0               0               0    0.0086739506    0.0026131062   7.2987867e-05   1.8347923e-07
    0.056756757      0.99895923               0               0               0               0               0    0.0087729608     0.002613171   7.2971238e-05   1.8339109e-07
    0.058858859      0.99890426               0               0               0               0               0    0.0088808794    0.0026132883   7.2955965e-05   1.8330611e-07
    0.060960961      0.99884928               0               0               0               0               0     0.008988798    0.0026134057   7.2940691e-05   1.8322112e-07
    0.063063063      0.99878683               0               0               0               0               0    0.0091080567    0.0026135836   7.2926863e-05   1.8313918e-07
    0.065165165      0.99871427               0               0               0               0               0    0.0092426471    0.0026138436   7.2914989e-05   1.8306135e-07
    0.067267267       0.9986417               0               0               0               0               0    0.0093772374    0.0026141036   7.2903114e-05   1.8298351e-07
    0.069369369       0.9985529               0               0               0               0               0    0.0095323265    0.0026144682   7.2893686e-05   1.8291068e-07
    0.071471471      0.99845254               0               0               0               0               0     0.009702031    0.0026149073   7.2886001e-05   1.8284141e-07
    0.073573574      0.99835218               0               0               0               0               0    0.0098717355    0.0026153465   7.2878317e-05   1.8277214e-07
    0.075675676      0.99821775               0               0               0               0               0     0.010093543    0.0026160507   7.2875332e-05     1.82708e-07
    0.077777778      0.99808294               0               0               0               0               0     0.010315942    0.0026167579     7.28724e-05   1.8264391e-07
     0.07987988      0.99790009               0               0               0               0               0     0.010580108    0.0026174817   7.2874401e-05   1.8260343e-07
    0.081981982      0.99768494               0               0               0               0               0     0.010872355    0.0026182165   7.2879719e-05   1.8257881e-07
    0.084084084      0.99744147               0               0               0               0               0     0.011220761    0.0026200504   7.2889149e-05   1.8249857e-07
    0.086186186       0.9971503               0               0               0               0               0     0.011663767    0.0026237355   7.2905504e-05   1.8232463e-07
    0.088288288      0.99671754               0  -1.0096777e-21               0               0               0      0.01215087    0.0026235843   7.2917946e-05   1.8240139e-07
     0.09039039      0.99591374               0  -4.6652703e-21               0               0               0     0.012753532    0.0026133797   7.2920135e-05   1.8313512e-07
    0.092492492      0.99519105               0   1.4910945e-17               0               0               0     0.013694569    0.0026926079   7.3056272e-05   1.8004576e-07
    0.094594595      0.99468222               0   6.9166561e-17               0               0               0     0.015527852    0.0030076576   7.3545614e-05   1.6687544e-07
    0.096696697      0.90673814               0   1.0517951e-16  -0.00068691191   -3.144889e-06               0     0.016940279       5.8948695   6.7445924e-05   1.4178366e-07
    0.098798799        0.646206               0   1.0518334e-16   -0.0027297163  -1.2497461e-05               0     0.017521977        23.41603   4.8340174e-05   9.3160162e-08
      0.1009009      0.38565102               0   8.1565289e-17   -0.0045647875  -1.7866803e-05  -1.6253658e-18     0.016751668       42.673831   2.9021506e-05   5.0695169e-08
       0.103003      0.12506559               0   2.6451403e-17    -0.006122881  -1.7925171e-05  -5.4178858e-18     0.014178683       64.247154   9.4189461e-06    1.644152e-08
     0.10510511               0               0               0   -0.0065578195  -1.3140544e-05  -5.8881808e-18     0.011926301       75.895901   1.1235971e-08    1.674837e-12
     0.10720721               0               0               0   -0.0059562452  -3.8865183e-06  -3.2925335e-18     0.009969792       78.385673   1.1925124e-08   1.4425027e-12
     0.10930931               0               0               0   -0.0055938603  -1.2288404e-07  -5.3950408e-19    0.0088985935       77.558128   1.1662582e-08   1.3065785e-12
     0.11141141               0               0               0     -0.00539353  -7.9077259e-08   2.3201542e-18    0.0084272072       74.483047   1.0755251e-08   1.2359737e-12
     0.11351351               0               0               0   -0.0052352859  -5.8143578e-08   1.6287905e-18    0.0080946045       71.647609   9.9546137e-09   1.1812346e-12
     0.11561562               0               0               0   -0.0050990973  -4.9196569e-08  -9.2348988e-19    0.0078347316       68.937755   9.2098899e-09     1.13481e-12
     0.11771772               0               0               0   -0.0049862576   -4.306238e-08  -1.0913688e-18    0.0075860827       66.635301   8.6052926e-09   1.0969517e-12
     0.11981982               0               0               0   -0.0048834477  -3.8136472e-08  -2.3500015e-19    0.0073422552       64.507849   8.0608882e-09   1.0627731e-12
     0.12192192               0               0               0   -0.0047936015  -3.4667731e-08               0    0.0071333275       62.635046   7.6011698e-09   1.0333147e-12
     0.12402402               0               0               0   -0.0047086581  -3.1750087e-08               0    0.0069375987        60.85855   7.1734795e-09   1.0056415e-12
     0.12612613               0               0               0   -0.0046328694  -2.9374827e-08               0    0.0067764791       59.276189   6.8066816e-09   9.8125169e-13
     0.12822823               0               0               0   -0.0045604034  -2.7196431e-08               0    0.0066279213       57.764291   6.4619855e-09   9.5805363e-13
     0.13033033               0               0               0   -0.0044952995   -2.530974e-08               0    0.0064990772       56.413219   6.1641912e-09   9.3743563e-13
     0.13243243               0               0               0   -0.0044330139  -2.3534715e-08               0    0.0063777796       55.123712   5.8843512e-09    9.178053e-13
     0.13453453               0               0               0   -0.0043765099  -2.1996964e-08  -3.9457661e-19    0.0062654401       53.961383   5.6393881e-09    9.001609e-13
     0.13663664               0               0               0   -0.0043225635  -2.0564177e-08  -9.6370658e-19    0.0061570635       52.855315   5.4098538e-09   8.8339503e-13
     0.13873874               0               0               0   -0.0042729302  -1.9314049e-08  -1.1666786e-18    0.0060561216       51.844246   5.2051274e-09   8.6808804e-13
     0.14084084               0               0               0   -0.0042256879  -1.8165174e-08  -1.1666787e-18    0.0059593009       50.885838   5.0141527e-09   8.5358974e-13
     0.14294294               0               0               0   -0.0041815673  -1.7136315e-08  -1.0986459e-18    0.0058702542       49.995775   4.8402843e-09   8.4013309e-13
     0.14504505               0               0               0   -0.0041397765  -1.6197032e-08  -9.7983642e-19    0.0057870096       49.156724   4.6791833e-09    8.274539e-13
     0.14714715               0               0               0   -0.0041001805  -1.5331846e-08  -7.3139221e-19    0.0057095531       48.365103   4.5294784e-09   8.1549715e-13
     0.14924925               0               0               0   -0.0040629595  -1.4546839e-08  -3.4267742e-19    0.0056383593       47.624803   4.3921044e-09   8.0432211e-13
     0.15135135               0               0               0    -0.004027156  -1.3809224e-08  -6.5919593e-20    0.0055694552       46.914856   4.2617463e-09    7.936078e-13
     0.15345345               0               0               0   -0.0039938124  -1.3153846e-08   1.6564236e-20     0.005504524       46.257576   4.1435624e-09   7.8369297e-13
     0.15555556               0               0               0   -0.0039612067   -1.252383e-08  -6.3079317e-21     0.005440627       45.616071   4.0289098e-09   7.7401564e-13
     0.15765766               0               0               0   -0.0039311035  -1.1979834e-08  -3.8652755e-19    0.0053802376       45.028073   3.9262345e-09   7.6514387e-13
     0.15975976               0               0               0   -0.0039011796  -1.1441407e-08  -7.0093658e-19    0.0053202925       44.443881    3.824388e-09   7.5632933e-13
     0.16186186               0               0               0   -0.0038738039  -1.0982112e-08  -8.0178422e-20    0.0052666608       43.913779   3.7343183e-09   7.4832808e-13
     0.16396396               0               0               0   -0.0038464283  -1.0522818e-08   5.4057974e-19    0.0052130291       43.383677   3.6442486e-09   7.4032684e-13
     0.16606607               0               0               0   -0.0038211285  -1.0120445e-08   6.1577544e-19    0.0051638843       42.897106   3.5633926e-09   7.3298207e-13
     0.16816817               0               0               0   -0.0037961149  -9.7259174e-09   6.1577551e-19    0.0051153579       42.416536   3.4838066e-09   7.2572779e-13
     0.17027027               0               0               0   -0.0037724711  -9.3675326e-09   3.5520437e-19    0.0050690305       41.964536   3.4101053e-09   7.1890302e-13
     0.17237237               0               0               0   -0.0037495137  -9.0272622e-09  -3.5961298e-20    0.0050238053       41.526854   3.3393533e-09   7.1229352e-13
     0.17447447               0               0               0   -0.0037273231  -8.7059916e-09  -2.6024505e-19    0.0049801771       41.105081   3.2717972e-09   7.0592258e-13
     0.17657658               0               0               0   -0.0037061628   -8.410256e-09  -2.6024508e-19    0.0049386955        40.70469   3.2085363e-09   6.9987227e-13
     0.17867868               0               0               0   -0.0036852558  -8.1203926e-09   -2.731634e-19    0.0048977152       40.309511   3.1462974e-09   6.9390016e-13
     0.18078078               0               0               0   -0.0036656847  -7.8615081e-09  -3.5423385e-19    0.0048593796       39.941831    3.089451e-09   6.8834063e-13
     0.18288288               0               0               0   -0.0036461136  -7.6026236e-09   -4.353043e-19    0.0048210441        39.57415   3.0326046e-09    6.827811e-13
     0.18498498               0               0               0   -0.0036277597  -7.3708042e-09  -2.9223764e-19    0.0047850037       39.231363   2.9805307e-09   6.7759482e-13
     0.18708709               0               0               0   -0.0036095985  -7.1432711e-09  -1.1367426e-19    0.0047493268       38.892519   2.9292127e-09   6.7246764e-13
     0.18918919               0               0               0   -0.0035921134  -6.9299026e-09   7.0713249e-20    0.0047149906       38.567415   2.8804728e-09    6.675464e-13
     0.19129129               0               0               0   -0.0035752103  -6.7287282e-09   2.6011467e-19    0.0046818088       38.254141   2.8339522e-09   6.6280245e-13
     0.19339339               0               0               0   -0.0035585112  -6.5316185e-09   3.8393386e-19    0.0046490014       37.944987   2.7881888e-09   6.5812024e-13
      0.1954955               0               0               0   -0.0035427381  -6.3529578e-09   2.1007988e-19    0.0046178937       37.654534   2.7458619e-09   6.5371826e-13
      0.1975976               0               0               0   -0.0035269649  -6.1742972e-09    3.622589e-20     0.004586786       37.364082    2.703535e-09   6.4931627e-13
      0.1996997               0               0               0   -0.0035119976  -6.0108907e-09               0    0.0045572515       37.089811   2.6641234e-09   6.4515667e-13
      0.2018018               0               0               0   -0.0034972423  -5.8514995e-09               0    0.0045281312       36.819798    2.625479e-09   6.4106087e-13
      0.2039039               0               0               0    -0.003482828  -5.6982077e-09   -4.795007e-20    0.0044996623       36.556588   2.5880369e-09   6.3706706e-13
     0.20600601               0               0               0   -0.0034689958  -5.5553256e-09  -1.7773249e-19    0.0044723053       36.304987   2.5526465e-09   6.3324728e-13
     0.20810811               0               0               0   -0.0034551636  -5.4124434e-09  -3.0751491e-19    0.0044449483       36.053386    2.517256e-09    6.294275e-13
     0.21021021               0               0               0   -0.0034420982  -5.2829143e-09  -3.1883024e-19    0.0044189398        35.81699   2.4845035e-09   6.2583571e-13
     0.21231231               0               0               0   -0.0034291061  -5.1546605e-09   -3.188303e-19    0.0043930602       35.582046   2.4520029e-09   6.2226569e-13
     0.21441441               0               0               0   -0.0034164353  -5.0317877e-09   -2.658423e-19    0.0043678335       35.353442   2.4205833e-09   6.1879071e-13
     0.21651652               0               0               0   -0.0034042076  -4.9163337e-09  -1.3979857e-19    0.0043435068       35.133577   2.3906541e-09   6.1544677e-13
     0.21861862               0               0               0     -0.00339198  -4.8008797e-09  -1.3754839e-20    0.0043191802       34.913712   2.3607249e-09   6.1210284e-13
     0.22072072               0               0               0    -0.003380376  -4.6952616e-09               0    0.0042960538        34.70607   2.3328448e-09   6.0894238e-13
     0.22282282               0               0               0   -0.0033688485  -4.5908484e-09               0    0.0042730745       34.499924   2.3052157e-09   6.0580441e-13
     0.22492492               0               0               0   -0.0033575287    -4.48963e-09               0    0.0042504443       34.297828   2.2782544e-09   6.0272725e-13
     0.22702703               0               0               0   -0.0033466448  -4.3951123e-09               0    0.0042285461       34.104227   2.2526937e-09   5.9977765e-13
     0.22912913               0               0               0   -0.0033357609  -4.3005946e-09               0     0.004206648       33.910625    2.227133e-09   5.9682805e-13
     0.23123123               0               0               0   -0.0033252995  -4.2123391e-09  -6.4457048e-20    0.0041855588       33.725225   2.2029038e-09   5.9400154e-13
     0.23333333               0               0               0   -0.0033150066  -4.1265809e-09  -1.5461929e-19    0.0041647922       33.543096   2.1792054e-09   5.9122413e-13
     0.23543544               0               0               0   -0.0033047494  -4.0413136e-09  -2.3337089e-19    0.0041440987       33.361656   2.1556174e-09   5.8845709e-13
     0.23753754               0               0               0   -0.0032950027  -3.9630497e-09  -1.4929084e-19    0.0041244475       33.190064   2.1336035e-09   5.8583802e-13
     0.23963964               0               0               0   -0.0032852561  -3.8847859e-09  -6.5210788e-20    0.0041047964       33.018472   2.1115896e-09   5.8321896e-13
     0.24174174               0               0               0   -0.0032756988  -3.8090423e-09   2.0060261e-20     0.004085461       32.850512   2.0901473e-09   5.8065454e-13
     0.24384384               0               0               0   -0.0032664598  -3.7375344e-09   1.0733301e-19    0.0040666564       32.688656   2.0696655e-09   5.7818195e-13
     0.24594595               0               0               0   -0.0032572208  -3.6660264e-09   1.9460575e-19    0.0040478518         32.5268   2.0491838e-09   5.7570936e-13
     0.24804805               0               0               0   -0.0032482811  -3.5984895e-09   1.7466454e-19    0.0040295613       32.370662    2.029589e-09   5.7332275e-13
     0.25015015               0               0               0   -0.0032395129  -3.5332263e-09   9.3336082e-20    0.0040115651       32.217799   2.0105019e-09   5.7098537e-13
     0.25225225               0               0               0   -0.0032307446   -3.467963e-09   1.2007623e-20     0.003993569       32.064936   1.9914149e-09   5.6864799e-13
     0.25435435               0               0               0   -0.0032223487  -3.4073682e-09               0    0.0039763686       31.919154   1.9734109e-09   5.6641713e-13
     0.25645646               0               0               0   -0.0032140174   -3.347582e-09               0    0.0039593061       31.774598   1.9555945e-09   5.6420472e-13
     0.25855856               0               0               0   -0.0032056945  -3.2878946e-09   1.3192693e-21    0.0039422592       31.630202    1.937802e-09   5.6199471e-13
     0.26066066               0               0               0   -0.0031977714  -3.2329063e-09   6.5377363e-20    0.0039259542       31.493361   1.9211491e-09   5.5989857e-13
     0.26276276               0               0               0   -0.0031898484  -3.1779181e-09   1.2943546e-19    0.0039096493        31.35652   1.9044961e-09   5.5780243e-13
     0.26486486               0               0               0   -0.0031819783  -3.1235455e-09    1.846068e-19    0.0038934239       31.220677   1.8879916e-09   5.5572134e-13
     0.26696697               0               0               0   -0.0031744376  -3.0729953e-09   1.8460685e-19    0.0038776924       31.091029    1.872408e-09   5.5373361e-13
     0.26906907               0               0               0   -0.0031668969  -3.0224451e-09   1.8460689e-19    0.0038619609        30.96138   1.8568245e-09   5.5174589e-13
     0.27117117               0               0               0   -0.0031594294  -2.9727352e-09   1.7195531e-19    0.0038463611       30.833103   1.8414422e-09   5.4977884e-13
     0.27327327               0               0               0   -0.0031522461  -2.9262883e-09   1.1017463e-19    0.0038312731       30.710153   1.8268416e-09   5.4789203e-13
     0.27537538               0               0               0   -0.0031450627  -2.8798414e-09   4.8393944e-20    0.0038161851       30.587203   1.8122409e-09   5.4600523e-13
     0.27747748               0               0               0   -0.0031379518  -2.8341801e-09  -1.1378132e-20    0.0038012521       30.465605   1.7978362e-09   5.4413881e-13
     0.27957958               0               0               0    -0.003131103  -2.7913585e-09  -6.3888966e-20    0.0037868796       30.348895   1.7841396e-09   5.4234611e-13
     0.28168168               0               0               0   -0.0031242542   -2.748537e-09   -1.163998e-19    0.0037725071       30.232186   1.7704431e-09   5.4055341e-13
     0.28378378               0               0               0   -0.0031174596  -2.7062704e-09  -1.5986552e-19    0.0037582317       30.116482   1.7568903e-09    5.387759e-13
     0.28588589               0               0               0   -0.0031109256  -2.6666703e-09  -1.5986556e-19    0.0037444228       30.005611   1.7440289e-09   5.3707142e-13
     0.28798799               0               0               0   -0.0031043916  -2.6270701e-09   -1.598656e-19    0.0037306139        29.89474   1.7311675e-09   5.3536694e-13
     0.29009009               0               0               0   -0.0030978782  -2.5876776e-09  -1.5636854e-19    0.0037168351       29.784249   1.7183596e-09   5.3366819e-13
     0.29219219               0               0               0   -0.0030916411  -2.5510764e-09  -1.0584279e-19    0.0037034617       29.678861   1.7062722e-09   5.3204657e-13
     0.29429429               0               0               0    -0.003085404  -2.5144753e-09  -5.5317042e-20    0.0036900883       29.573473   1.6941848e-09   5.3042495e-13
      0.2963964               0               0               0    -0.003079167  -2.4778741e-09  -4.7912911e-21    0.0036767148       29.468085   1.6820974e-09   5.2880333e-13
      0.2984985               0               0               0   -0.0030731828  -2.4438123e-09               0    0.0036637821       29.367353   1.6706593e-09   5.2725204e-13
      0.3006006               0               0               0   -0.0030672252  -2.4100166e-09               0    0.0036508955       29.267108   1.6592891e-09   5.2570813e-13
      0.3027027               0               0               0   -0.0030612675  -2.3762208e-09               0     0.003638009       29.166863    1.647919e-09   5.2416421e-13
      0.3048048               0               0               0   -0.0030554882   -2.344139e-09   2.7390335e-20    0.0036254927       29.069886   1.6369991e-09   5.2266969e-13
     0.30690691               0               0               0   -0.0030497937  -2.3128727e-09   6.7812524e-20    0.0036131526       28.974463   1.6262936e-09   5.2119867e-13
     0.30900901               0               0               0   -0.0030440992  -2.2816063e-09   1.0823471e-19    0.0036008124        28.87904    1.615588e-09   5.1972765e-13
     0.31111111               0               0               0   -0.0030385002  -2.2512025e-09   1.2587124e-19    0.0035886504       28.785359   1.6051196e-09     5.18283e-13
     0.31321321               0               0               0   -0.0030330545   -2.222183e-09   1.0693602e-19    0.0035767741       28.694472   1.5950318e-09   5.1688066e-13
     0.31531532               0               0               0   -0.0030276088  -2.1931634e-09   8.8000806e-20    0.0035648979       28.603585   1.5849441e-09   5.1547833e-13
     0.31741742               0               0               0   -0.0030221681  -2.1641878e-09   6.9397112e-20    0.0035530292       28.512789   1.5748685e-09   5.1407738e-13
     0.31951952               0               0               0   -0.0030169584  -2.1372406e-09   6.6112839e-20    0.0035415123       28.426184   1.5653571e-09   5.1273997e-13
     0.32162162               0               0               0   -0.0030117487  -2.1102934e-09   6.2828565e-20    0.0035299954        28.33958   1.5558456e-09   5.1140255e-13
     0.32372372               0               0               0    -0.003006539  -2.0833462e-09   5.9544292e-20    0.0035184784       28.252976   1.5463342e-09   5.1006514e-13
     0.32582583               0               0               0   -0.0030014605   -2.057554e-09   6.8829262e-20    0.0035071667       28.168744   1.5371382e-09   5.0876368e-13
     0.32792793               0               0               0   -0.0029964745  -2.0325758e-09    8.697216e-20    0.0034959995       28.086183   1.5281645e-09   5.0748755e-13
     0.33003003               0               0               0   -0.0029914884  -2.0075975e-09   1.0511506e-19    0.0034848324       28.003622   1.5191908e-09   5.0621141e-13
     0.33213213               0               0               0   -0.0029865186  -1.9827592e-09   1.1924349e-19    0.0034736959       27.921354   1.5102557e-09   5.0493973e-13
     0.33423423               0               0               0   -0.0029817441  -1.9595973e-09   8.5278392e-20    0.0034629268       27.842607   1.5017836e-09    5.037214e-13
     0.33633634               0               0               0   -0.0029769696  -1.9364354e-09   5.1313291e-20    0.0034521578       27.763859   1.4933116e-09   5.0250306e-13
     0.33843844               0               0               0   -0.0029721951  -1.9132736e-09   1.7348189e-20    0.0034413887       27.685112   1.4848395e-09   5.0128473e-13
     0.34054054               0               0               0   -0.0029675189  -1.8909045e-09  -2.1409753e-20    0.0034308214       27.608127   1.4765967e-09   5.0009313e-13
     0.34264264               0               0               0   -0.0029629452   -1.869363e-09  -6.5171461e-20    0.0034204647       27.532981   1.4685932e-09   4.9892946e-13
     0.34474474               0               0               0   -0.0029583714  -1.8478216e-09  -1.0893317e-19     0.003410108       27.457835   1.4605897e-09   4.9776579e-13
     0.34684685               0               0               0   -0.0029537977  -1.8262802e-09  -1.5269488e-19    0.0033997513       27.382689   1.4525863e-09   4.9660212e-13
     0.34894895               0               0               0   -0.0029493807  -1.8059534e-09   -1.605834e-19    0.0033896545       27.310341   1.4449427e-09   4.9548097e-13
     0.35105105               0               0               0   -0.0029449982  -1.7858936e-09  -1.6058346e-19    0.0033796149       27.238607   1.4373782e-09   4.9436917e-13
     0.35315315               0               0               0   -0.0029406157  -1.7658339e-09  -1.6058352e-19    0.0033695752       27.166873   1.4298137e-09   4.9325737e-13