#      distance             U_x             U_y             U_z wallShearStr... wallShearStr... wallShearStr...               p           omega               k             nut
    0.001215373      0.62966259   9.8642802e-05               0               0               0               0   0.00016017984       356.91824     0.004186138   1.5160201e-05
   0.0020572852      0.68699838   0.00011941258               0               0               0               0   0.00016427813       180.47876    0.0041284331   2.5066757e-05
   0.0029273097      0.72303791   0.00014407625               0               0               0               0   0.00016951123       119.73045    0.0039713737   3.4680861e-05
   0.0038263852      0.75019416   0.00017318165               0               0               0               0   0.00017544473       89.971049    0.0038430759   4.3783256e-05
   0.0047554818      0.77243512   0.00020655852               0               0               0               0   0.00018178101       72.469026    0.0037248952   5.2171652e-05
   0.0057156019      0.79159628   0.00024408785               0               0               0               0   0.00018830471       61.054255    0.0036076982   5.9648162e-05
   0.0067077814      0.80869507    0.0002857397               0               0               0               0    0.0001948397       53.114356     0.003487173   6.6050965e-05
   0.0077330908      0.82435977   0.00033155866               0               0               0               0   0.00020122403       47.357611    0.0033608584   7.1239779e-05
   0.0087926364      0.83901907   0.00038175774               0               0               0               0   0.00020730155       43.072057      0.00322689   7.5006857e-05
   0.0098875613      0.85301719     0.000436791               0               0               0               0   0.00021291015       39.821172    0.0030828387   7.6909125e-05
    0.011019047      0.86666157   0.00049736974               0               0               0               0   0.00021785451       37.303899    0.0029251312   7.6701265e-05
    0.012188314      0.88020177   0.00056457961               0               0               0               0     0.000221926       35.293476    0.0027491888   7.4567518e-05
    0.013396624      0.89382028   0.00063989346               0               0               0               0   0.00022497344       33.605396    0.0025496891   7.0735854e-05
    0.014645281      0.90764358   0.00072485103               0               0               0               0   0.00022694089       32.079134    0.0023212954   6.5466275e-05
    0.015935632      0.92171645   0.00082043545               0               0               0               0   0.00022785215       30.575454    0.0020603203   5.9218914e-05
    0.017269069      0.93592068   0.00092617055               0               0               0               0   0.00022777132       28.988067    0.0017679299   5.2721996e-05
    0.018647031      0.94987929    0.0010390115               0               0               0               0   0.00022677552       27.283931    0.0014550538   4.6777441e-05
    0.020071004      0.96303198     0.001153932               0               0               0               0   0.00022500289       25.488298    0.0011401794   4.1376005e-05
    0.021542526      0.97504734    0.0012670398               0               0               0               0   0.00022268557       23.533274    0.0008349589   3.4512288e-05
    0.023063183      0.98588344    0.0013758167               0               0               0               0   0.00022002784       21.087303   0.00054507875   2.5312942e-05
    0.024634616       0.9949476    0.0014704284               0               0               0               0   0.00021710739        17.52507   0.00029268114    1.582762e-05
    0.026258521       1.0008422    0.0015309685               0               0               0               0    0.0002140179       12.690866   0.00011664027   8.1279869e-06
     0.02793665       1.0032433    0.0015528315               0               0               0               0   0.00021099851       8.3026323   3.1262154e-05   3.1493842e-06
    0.029670814       1.0037287    0.0015545687               0               0               0               0   0.00020818238       6.2088554   5.6814008e-06   8.3624592e-07
    0.031462883       1.0037631    0.0015514955               0               0               0               0   0.00020546373       5.7843808   1.2889611e-06   2.2144007e-07
    0.033314791       1.0037609    0.0015476502               0               0               0               0   0.00020270092       5.7421474   8.3850936e-07   1.4601659e-07
    0.035228536       1.0037593    0.0015426461               0               0               0               0   0.00019978843       5.7389583   8.0336276e-07   1.3997961e-07
    0.037206184        1.003758    0.0015398067               0               0               0               0   0.00019673422       5.7387356   8.0085214e-07   1.3954729e-07
    0.039249867        1.003756    0.0015414833               0               0               0               0   0.00019368015       5.7387171   8.0068135e-07   1.3951795e-07
     0.04136179       1.0037535    0.0015429458               0               0               0               0   0.00019068607       5.7387113   8.0066946e-07   1.3951602e-07
    0.043544233       1.0037506    0.0015422466               0               0               0               0   0.00018769774       5.7387056   8.0066774e-07   1.3951586e-07
     0.04579955       1.0037476     0.001540182               0               0               0               0   0.00018466241       5.7386989   8.0066652e-07   1.3951581e-07
    0.048130175       1.0037453     0.001537786               0               0               0               0   0.00018154528       5.7386914   8.0066521e-07   1.3951576e-07
    0.050538621       1.0037469    0.0015362863               0               0               0               0   0.00017835377       5.7386835   8.0066397e-07   1.3951574e-07
    0.053027488       1.0037563    0.0015402979               0               0               0               0   0.00017519089       5.7386749   8.0066269e-07   1.3951572e-07
    0.055599461       1.0037685    0.0015518954               0               0               0               0   0.00017224392       5.7386635    8.006608e-07   1.3951567e-07
    0.058257315       1.0037769    0.0015625085               0               0               0               0   0.00016959564       5.7386501   8.0065846e-07   1.3951559e-07
    0.061003917       1.0037823    0.0015689319               0               0               0               0   0.00016717951       5.7386357   8.0065607e-07   1.3951552e-07
    0.063842231       1.0037866    0.0015735985               0               0               0               0   0.00016494285       5.7386201   8.0065354e-07   1.3951546e-07
     0.06677532         1.00379    0.0015761509               0               0               0               0   0.00016286368        5.738603    8.006508e-07    1.395154e-07
    0.069806347        1.003793    0.0015764951               0               0               0               0   0.00016093691       5.7385842   8.0064783e-07   1.3951534e-07
    0.072938584       1.0037956    0.0015740616               0               0               0               0   0.00015916438       5.7385634   8.0064456e-07   1.3951528e-07
    0.076175409       1.0037961    0.0015692949               0               0               0               0   0.00015750261       5.7385407   8.0064101e-07   1.3951521e-07
    0.079520315       1.0037936    0.0015624067               0               0               0               0   0.00015588468        5.738516   8.0063716e-07   1.3951514e-07
    0.082976911       1.0037891    0.0015546823               0               0               0               0   0.00015427904       5.7384891   8.0063297e-07   1.3951506e-07
    0.086548926       1.0037836     0.001547182               0               0               0               0   0.00015269133       5.7384599   8.0062842e-07   1.3951498e-07
    0.090240215       1.0037774    0.0015400571               0               0               0               0   0.00015112482       5.7384287   8.0062352e-07   1.3951488e-07
     0.09405476       1.0037718    0.0015331198               0               0               0               0   0.00014957264       5.7384017    8.006192e-07   1.3951478e-07
