# Selection     : all 
# Volume        : 2.33333000e+00
# Time          	minp	location	cell	mink	location	cell	minomega	location	cell	minnut	location	cell
0               	0.00000000e+00	-3.13296488e-01 1.00232707e-06 5.00000000e-01	0	1.50000000e-04	-3.13296488e-01 1.00232707e-06 5.00000000e-01	0	7.50000000e+02	-3.13296488e-01 1.00232707e-06 5.00000000e-01	0	2.00000000e-07	-3.13296488e-01 1.00232707e-06 5.00000000e-01	0
1               	2.12885792e-07	1.97852077e+00 9.42574530e-01 5.00000000e-01	13055	5.54854923e-05	1.97852077e+00 9.42574530e-01 5.00000000e-01	13055	1.91845685e+02	1.97852077e+00 9.42574530e-01 5.00000000e-01	13055	7.62526792e-11	2.00594380e-03 1.00232707e-06 5.00000000e-01	24
2               	1.60811452e-07	1.97852077e+00 1.00232707e-06 5.00000000e-01	135	2.94837189e-05	1.97852077e+00 9.42574530e-01 5.00000000e-01	13055	7.31564354e+01	1.97852077e+00 9.42574530e-01 5.00000000e-01	13055	1.58121740e-11	1.97852077e+00 1.00232707e-06 5.00000000e-01	135
3               	-3.20986470e-05	3.95627780e-02 2.07860567e-04 5.00000000e-01	3569	1.91892958e-05	1.97852077e+00 9.42574530e-01 5.00000000e-01	13055	4.00657276e+01	1.97852077e+00 9.42574530e-01 5.00000000e-01	13055	3.30626859e-12	1.97852077e+00 1.00232707e-06 5.00000000e-01	135
4               	-1.14883252e-04	2.66969903e-02 2.07860567e-04 5.00000000e-01	3566	1.11707900e-05	1.20526833e+00 1.00232707e-06 5.00000000e-01	117	2.67315950e+01	1.97852077e+00 9.42574530e-01 5.00000000e-01	13055	7.01427560e-13	1.20526833e+00 1.00232707e-06 5.00000000e-01	117
5               	-2.12514628e-04	1.83219665e-02 1.62696837e-04 5.00000000e-01	3292	2.42957369e-06	1.20526833e+00 1.00232707e-06 5.00000000e-01	117	1.98517147e+01	1.97852077e+00 9.42574530e-01 5.00000000e-01	13055	1.52555903e-13	1.20526833e+00 1.00232707e-06 5.00000000e-01	117
6               	-3.24949476e-04	1.41907466e-02 1.12521630e-04 5.00000000e-01	2883	5.54085010e-07	1.20526833e+00 1.00232707e-06 5.00000000e-01	117	1.57417466e+01	1.97852077e+00 9.42574530e-01 5.00000000e-01	13055	3.47916753e-14	1.20526833e+00 1.00232707e-06 5.00000000e-01	117
7               	-4.54276987e-04	1.41907466e-02 1.72117274e-05 5.00000000e-01	979	1.38975825e-07	6.03404640e-03 1.00232707e-06 5.00000000e-01	25	1.30638561e+01	1.97852077e+00 9.42574530e-01 5.00000000e-01	13055	8.72646196e-15	6.03404640e-03 1.00232707e-06 5.00000000e-01	25
8               	-5.84572889e-04	1.00952164e-02 1.44305481e-05 5.00000000e-01	842	4.17613790e-08	6.03404640e-03 1.00232707e-06 5.00000000e-01	25	1.12317947e+01	1.97852077e+00 9.42574530e-01 5.00000000e-01	13055	2.62224805e-15	6.03404640e-03 1.00232707e-06 5.00000000e-01	25
9               	-7.29753717e-04	1.00952164e-02 1.44305481e-05 5.00000000e-01	842	1.65008743e-08	1.07639292e+00 1.00232707e-06 5.00000000e-01	114	9.94779466e+00	1.97852077e+00 9.42574530e-01 5.00000000e-01	13055	1.03611008e-15	1.07639292e+00 1.00232707e-06 5.00000000e-01	114
10              	-8.72708601e-04	1.00952164e-02 1.18644168e-05 5.00000000e-01	706	8.68229913e-09	1.07639292e+00 1.00232707e-06 5.00000000e-01	114	9.03851596e+00	1.97852077e+00 9.42574530e-01 5.00000000e-01	13055	5.45172178e-16	1.07639292e+00 1.00232707e-06 5.00000000e-01	114
11              	-1.01090943e-03	1.00952164e-02 9.47509236e-06 5.00000000e-01	570	5.62299249e-09	1.07639292e+00 1.00232707e-06 5.00000000e-01	114	8.39034518e+00	1.97852077e+00 9.42574530e-01 5.00000000e-01	13055	3.53074574e-16	1.07639292e+00 1.00232707e-06 5.00000000e-01	114
12              	-1.14077586e-03	1.00952164e-02 7.22696841e-06 5.00000000e-01	434	4.11497540e-09	1.07639292e+00 1.00232707e-06 5.00000000e-01	114	7.92313961e+00	1.97852077e+00 9.42574530e-01 5.00000000e-01	13055	2.58384337e-16	1.07639292e+00 1.00232707e-06 5.00000000e-01	114
13              	-1.26044176e-03	1.00952164e-02 1.00232707e-06 5.00000000e-01	26	3.23261588e-09	1.07639292e+00 1.00232707e-06 5.00000000e-01	114	7.57933063e+00	1.97852077e+00 9.42574530e-01 5.00000000e-01	13055	2.02979904e-16	1.07639292e+00 1.00232707e-06 5.00000000e-01	114
14              	-1.36867208e-03	1.00952164e-02 1.00232707e-06 5.00000000e-01	26	2.65656417e-09	1.07639292e+00 1.00232707e-06 5.00000000e-01	114	7.31848053e+00	1.97852077e+00 9.42574530e-01 5.00000000e-01	13055	1.66808912e-16	1.07639292e+00 1.00232707e-06 5.00000000e-01	114
15              	-1.46473660e-03	1.00952164e-02 1.00232707e-06 5.00000000e-01	26	2.25320541e-09	1.07639292e+00 1.00232707e-06 5.00000000e-01	114	7.11331798e+00	1.97852077e+00 9.42574530e-01 5.00000000e-01	13055	1.41481523e-16	1.07639292e+00 1.00232707e-06 5.00000000e-01	114
16              	-1.54864724e-03	1.00952164e-02 1.00232707e-06 5.00000000e-01	26	1.95673717e-09	1.07639292e+00 1.00232707e-06 5.00000000e-01	114	6.94616774e+00	1.97852077e+00 9.42574530e-01 5.00000000e-01	13055	1.22865919e-16	1.07639292e+00 1.00232707e-06 5.00000000e-01	114
17              	-1.62132304e-03	1.00952164e-02 1.00232707e-06 5.00000000e-01	26	1.73073744e-09	1.07639292e+00 1.00232707e-06 5.00000000e-01	114	6.80583519e+00	1.97852077e+00 9.42574530e-01 5.00000000e-01	13055	1.08675120e-16	1.07639292e+00 1.00232707e-06 5.00000000e-01	114
18              	-1.68279713e-03	1.00952164e-02 1.00232707e-06 5.00000000e-01	26	1.55339639e-09	1.07639292e+00 1.00232707e-06 5.00000000e-01	114	6.68518989e+00	1.97852077e+00 9.42574530e-01 5.00000000e-01	13055	9.75396589e-17	1.07639292e+00 1.00232707e-06 5.00000000e-01	114
19              	-1.73398471e-03	1.00952164e-02 1.00232707e-06 5.00000000e-01	26	1.41092241e-09	1.37710220e+00 1.00232707e-06 5.00000000e-01	121	6.57951291e+00	1.97852077e+00 9.42574530e-01 5.00000000e-01	13055	8.85935430e-17	1.37710220e+00 1.00232707e-06 5.00000000e-01	121
20              	-1.77519802e-03	1.00952164e-02 1.00232707e-06 5.00000000e-01	26	1.29423869e-09	1.97852077e+00 1.00232707e-06 5.00000000e-01	135	6.48548381e+00	1.97852077e+00 9.42574530e-01 5.00000000e-01	13055	8.12668296e-17	1.97852077e+00 1.00232707e-06 5.00000000e-01	135
21              	-1.80714673e-03	1.00952164e-02 1.00232707e-06 5.00000000e-01	26	1.19718458e-09	1.97852077e+00 1.00232707e-06 5.00000000e-01	135	6.40060687e+00	1.97852077e+00 9.42574530e-01 5.00000000e-01	13055	7.51726836e-17	1.97852077e+00 1.00232707e-06 5.00000000e-01	135
22              	-1.82999377e-03	1.00952164e-02 1.00232707e-06 5.00000000e-01	26	1.11547172e-09	1.97852077e+00 1.00232707e-06 5.00000000e-01	135	6.32289579e+00	1.97852077e+00 9.42574530e-01 5.00000000e-01	13055	7.00418334e-17	1.97852077e+00 1.00232707e-06 5.00000000e-01	135
23              	-1.84430617e-03	1.00952164e-02 1.00232707e-06 5.00000000e-01	26	1.04604958e-09	1.97852077e+00 1.00232707e-06 5.00000000e-01	135	6.25069556e+00	1.97852077e+00 9.42574530e-01 5.00000000e-01	13055	6.56827319e-17	1.97852077e+00 1.00232707e-06 5.00000000e-01	135
24              	-1.85040887e-03	1.00952164e-02 1.00232707e-06 5.00000000e-01	26	9.86703147e-10	1.97852077e+00 1.00232707e-06 5.00000000e-01	135	6.18257681e+00	1.97852077e+00 9.42574530e-01 5.00000000e-01	13055	6.19562971e-17	1.97852077e+00 1.00232707e-06 5.00000000e-01	135
25              	-1.84901273e-03	1.00952164e-02 1.00232707e-06 5.00000000e-01	26	9.35796636e-10	1.97852077e+00 1.00232707e-06 5.00000000e-01	135	6.11727420e+00	1.97852077e+00 9.42574530e-01 5.00000000e-01	13055	5.87598150e-17	1.97852077e+00 1.00232707e-06 5.00000000e-01	135
26              	-1.84042171e-03	1.00952164e-02 1.00232707e-06 5.00000000e-01	26	8.92112541e-10	1.97852077e+00 1.00232707e-06 5.00000000e-01	135	6.05365768e+00	1.97852077e+00 9.42574530e-01 5.00000000e-01	13055	5.60168372e-17	1.97852077e+00 1.00232707e-06 5.00000000e-01	135
27              	-1.82569437e-03	1.00952164e-02 1.00232707e-06 5.00000000e-01	26	8.54750685e-10	1.97852077e+00 1.00232707e-06 5.00000000e-01	135	5.99073152e+00	1.97852077e+00 9.42574530e-01 5.00000000e-01	13055	5.36708406e-17	1.97852077e+00 1.00232707e-06 5.00000000e-01	135
28              	-1.80506787e-03	1.00952164e-02 1.00232707e-06 5.00000000e-01	26	8.23062461e-10	1.97852077e+00 1.00232707e-06 5.00000000e-01	135	5.92765602e+00	1.97852077e+00 9.42574530e-01 5.00000000e-01	13055	5.16810983e-17	1.97852077e+00 1.00232707e-06 5.00000000e-01	135
29              	-1.77915335e-03	1.00952164e-02 1.00232707e-06 5.00000000e-01	26	7.96605195e-10	1.97852077e+00 1.00232707e-06 5.00000000e-01	135	5.86378561e+00	1.97852077e+00 9.42574530e-01 5.00000000e-01	13055	5.00198142e-17	1.97852077e+00 1.00232707e-06 5.00000000e-01	135
30              	-1.74863054e-03	1.00952164e-02 1.00232707e-06 5.00000000e-01	26	7.75108537e-10	1.97852077e+00 1.00232707e-06 5.00000000e-01	135	5.79871516e+00	1.97852077e+00 9.42574530e-01 5.00000000e-01	13055	4.86700128e-17	1.97852077e+00 1.00232707e-06 5.00000000e-01	135
31              	-1.71390310e-03	1.00952164e-02 1.00232707e-06 5.00000000e-01	26	7.58448602e-10	1.97852077e+00 1.00232707e-06 5.00000000e-01	135	5.73232471e+00	1.97852077e+00 9.42574530e-01 5.00000000e-01	13055	4.76239151e-17	1.97852077e+00 1.00232707e-06 5.00000000e-01	135
32              	-1.67488871e-03	1.00952164e-02 1.00232707e-06 5.00000000e-01	26	7.46627221e-10	1.97852077e+00 1.00232707e-06 5.00000000e-01	135	5.66481157e+00	1.97852077e+00 9.42574530e-01 5.00000000e-01	13055	4.68816361e-17	1.97852077e+00 1.00232707e-06 5.00000000e-01	135
33              	-1.63173039e-03	1.00952164e-02 1.00232707e-06 5.00000000e-01	26	7.39754049e-10	1.97852077e+00 1.00232707e-06 5.00000000e-01	135	5.59669924e+00	1.97852077e+00 9.42574530e-01 5.00000000e-01	13055	4.64500612e-17	1.97852077e+00 1.00232707e-06 5.00000000e-01	135
34              	-1.58475600e-03	1.00952164e-02 1.00232707e-06 5.00000000e-01	26	7.38029495e-10	1.97852077e+00 1.00232707e-06 5.00000000e-01	135	5.52881407e+00	1.97852077e+00 9.42574530e-01 5.00000000e-01	13055	4.63417744e-17	1.97852077e+00 1.00232707e-06 5.00000000e-01	135
35              	-1.53415561e-03	1.00952164e-02 1.00232707e-06 5.00000000e-01	26	7.41726752e-10	1.97852077e+00 1.00232707e-06 5.00000000e-01	135	5.46222552e+00	1.97852077e+00 9.42574530e-01 5.00000000e-01	13055	4.65739297e-17	1.97852077e+00 1.00232707e-06 5.00000000e-01	135
36              	-1.48034884e-03	1.00952164e-02 1.00232707e-06 5.00000000e-01	26	7.51171907e-10	1.97852077e+00 1.00232707e-06 5.00000000e-01	135	5.39815136e+00	1.97852077e+00 9.42574530e-01 5.00000000e-01	13055	4.71670025e-17	1.97852077e+00 1.00232707e-06 5.00000000e-01	135
37              	-1.42334398e-03	1.00952164e-02 1.00232707e-06 5.00000000e-01	26	7.66721770e-10	1.97852077e+00 1.00232707e-06 5.00000000e-01	135	5.33783736e+00	1.97852077e+00 9.42574530e-01 5.00000000e-01	13055	4.81433974e-17	1.97852077e+00 1.00232707e-06 5.00000000e-01	135
38              	-1.36321222e-03	1.00952164e-02 1.00232707e-06 5.00000000e-01	26	7.88739873e-10	1.97852077e+00 1.00232707e-06 5.00000000e-01	135	5.28242700e+00	1.97852077e+00 9.42574530e-01 5.00000000e-01	13055	4.95259410e-17	1.97852077e+00 1.00232707e-06 5.00000000e-01	135
39              	-1.30011980e-03	1.00952164e-02 1.00232707e-06 5.00000000e-01	26	8.17571580e-10	1.97852077e+00 1.00232707e-06 5.00000000e-01	135	5.23284104e+00	1.97852077e+00 9.42574530e-01 5.00000000e-01	13055	5.13363192e-17	1.97852077e+00 1.00232707e-06 5.00000000e-01	135
40              	-1.23408633e-03	1.00952164e-02 1.00232707e-06 5.00000000e-01	26	8.53519524e-10	1.97852077e+00 1.00232707e-06 5.00000000e-01	135	5.18968629e+00	1.97852077e+00 9.42574530e-01 5.00000000e-01	13055	5.35935345e-17	1.97852077e+00 1.00232707e-06 5.00000000e-01	135
41              	-1.16550967e-03	1.00952164e-02 1.00232707e-06 5.00000000e-01	26	8.96820644e-10	1.97852077e+00 1.00232707e-06 5.00000000e-01	135	5.15320785e+00	1.97852077e+00 9.42574530e-01 5.00000000e-01	13055	5.63124648e-17	1.97852077e+00 1.00232707e-06 5.00000000e-01	135
42              	-1.09527072e-03	1.00952164e-02 1.00232707e-06 5.00000000e-01	26	9.47627203e-10	1.97852077e+00 1.00232707e-06 5.00000000e-01	135	5.12329045e+00	1.97852077e+00 9.42574530e-01 5.00000000e-01	13055	5.95026708e-17	1.97852077e+00 1.00232707e-06 5.00000000e-01	135
43              	-1.02312911e-03	1.00952164e-02 1.00232707e-06 5.00000000e-01	26	1.00599405e-09	1.97852077e+00 1.00232707e-06 5.00000000e-01	135	5.09950465e+00	1.97852077e+00 9.42574530e-01 5.00000000e-01	13055	6.31675964e-17	1.97852077e+00 1.00232707e-06 5.00000000e-01	135
44              	-9.50334144e-04	1.00952164e-02 1.00232707e-06 5.00000000e-01	26	1.07187311e-09	1.97852077e+00 1.00232707e-06 5.00000000e-01	135	5.08118558e+00	1.97852077e+00 9.42574530e-01 5.00000000e-01	13055	6.73042232e-17	1.97852077e+00 1.00232707e-06 5.00000000e-01	135
45              	-8.76734060e-04	1.00952164e-02 1.00232707e-06 5.00000000e-01	26	1.14511425e-09	1.97852077e+00 1.00232707e-06 5.00000000e-01	135	5.06752723e+00	1.97852077e+00 9.42574530e-01 5.00000000e-01	13055	7.19031236e-17	1.97852077e+00 1.00232707e-06 5.00000000e-01	135
46              	-8.02383332e-04	1.00952164e-02 1.00232707e-06 5.00000000e-01	26	1.22547076e-09	1.97852077e+00 1.00232707e-06 5.00000000e-01	135	5.05767539e+00	1.97852077e+00 9.42574530e-01 5.00000000e-01	13055	7.69488077e-17	1.97852077e+00 1.00232707e-06 5.00000000e-01	135
47              	-7.27232700e-04	1.00952164e-02 1.00232707e-06 5.00000000e-01	26	1.31260830e-09	1.97852077e+00 1.00232707e-06 5.00000000e-01	135	5.05080580e+00	1.97852077e+00 9.42574530e-01 5.00000000e-01	13055	8.24202800e-17	1.97852077e+00 1.00232707e-06 5.00000000e-01	135
48              	-6.51433565e-04	1.00952164e-02 1.00232707e-06 5.00000000e-01	26	1.40611622e-09	1.97852077e+00 1.00232707e-06 5.00000000e-01	135	5.04617983e+00	1.97852077e+00 9.42574530e-01 5.00000000e-01	13055	8.82917568e-17	1.97852077e+00 1.00232707e-06 5.00000000e-01	135
49              	-5.74649829e-04	1.00952164e-02 1.00232707e-06 5.00000000e-01	26	1.50552106e-09	1.97852077e+00 1.00232707e-06 5.00000000e-01	135	5.04317591e+00	1.97852077e+00 9.42574530e-01 5.00000000e-01	13055	9.45335081e-17	1.97852077e+00 1.00232707e-06 5.00000000e-01	135
50              	-4.97050475e-04	1.00952164e-02 1.00232707e-06 5.00000000e-01	26	1.61030110e-09	1.97852077e+00 1.00232707e-06 5.00000000e-01	135	5.04129937e+00	1.97852077e+00 9.42574530e-01 5.00000000e-01	13055	1.01112775e-16	1.97852077e+00 1.00232707e-06 5.00000000e-01	135
51              	-4.19106853e-04	1.00952164e-02 1.00232707e-06 5.00000000e-01	26	1.71990130e-09	1.97852077e+00 1.00232707e-06 5.00000000e-01	135	5.04017626e+00	1.97852077e+00 9.42574530e-01 5.00000000e-01	13055	1.07994706e-16	1.97852077e+00 1.00232707e-06 5.00000000e-01	135
52              	-3.40536678e-04	1.00952164e-02 1.00232707e-06 5.00000000e-01	26	1.83374749e-09	1.97852077e+00 1.00232707e-06 5.00000000e-01	135	5.03953722e+00	1.97852077e+00 9.42574530e-01 5.00000000e-01	13055	1.15143247e-16	1.97852077e+00 1.00232707e-06 5.00000000e-01	135
53              	-2.62065439e-04	1.00952164e-02 1.00232707e-06 5.00000000e-01	26	1.95125914e-09	1.97852077e+00 1.00232707e-06 5.00000000e-01	135	5.03919706e+00	1.97852077e+00 9.42574530e-01 5.00000000e-01	13055	1.22521947e-16	1.97852077e+00 1.00232707e-06 5.00000000e-01	135
54              	-1.83757253e-04	1.00952164e-02 1.00232707e-06 5.00000000e-01	26	2.07186012e-09	1.97852077e+00 1.00232707e-06 5.00000000e-01	135	5.03903410e+00	1.97852077e+00 9.42574530e-01 5.00000000e-01	13055	1.30094630e-16	1.97852077e+00 1.00232707e-06 5.00000000e-01	135
55              	-1.05177581e-04	1.00952164e-02 1.00232707e-06 5.00000000e-01	26	2.19498714e-09	1.97852077e+00 1.00232707e-06 5.00000000e-01	135	5.03897192e+00	1.97852077e+00 9.42574530e-01 5.00000000e-01	13055	1.37825927e-16	1.97852077e+00 1.00232707e-06 5.00000000e-01	135
56              	-2.58848496e-05	1.00952164e-02 1.00232707e-06 5.00000000e-01	26	2.32009559e-09	1.97852077e+00 1.00232707e-06 5.00000000e-01	135	5.03896468e+00	1.97852077e+00 9.42574530e-01 5.00000000e-01	13055	1.45681639e-16	1.97852077e+00 1.00232707e-06 5.00000000e-01	135
57              	-1.35147672e-05	1.97852077e+00 1.00232707e-06 5.00000000e-01	135	2.44666352e-09	1.97852077e+00 1.00232707e-06 5.00000000e-01	135	5.03898615e+00	1.97852077e+00 9.42574530e-01 5.00000000e-01	13055	1.53628994e-16	1.97852077e+00 1.00232707e-06 5.00000000e-01	135
58              	-1.43933868e-05	1.97852077e+00 1.00232707e-06 5.00000000e-01	135	2.57419443e-09	1.97852077e+00 1.00232707e-06 5.00000000e-01	135	5.03902201e+00	1.97852077e+00 9.42574530e-01 5.00000000e-01	13055	1.61636816e-16	1.97852077e+00 1.00232707e-06 5.00000000e-01	135
59              	-1.53140635e-05	1.97852077e+00 1.00232707e-06 5.00000000e-01	135	2.70221937e-09	1.97852077e+00 1.00232707e-06 5.00000000e-01	135	5.03906486e+00	1.97852077e+00 9.42574530e-01 5.00000000e-01	13055	1.69675658e-16	1.97852077e+00 1.00232707e-06 5.00000000e-01	135
60              	-1.62656698e-05	1.97852077e+00 1.00232707e-06 5.00000000e-01	135	2.83029860e-09	1.97852077e+00 1.00232707e-06 5.00000000e-01	135	5.03911108e+00	1.97852077e+00 9.42574530e-01 5.00000000e-01	13055	1.77717910e-16	1.97852077e+00 1.00232707e-06 5.00000000e-01	135
61              	-1.72373868e-05	1.97852077e+00 1.00232707e-06 5.00000000e-01	135	2.95802292e-09	1.97852077e+00 1.00232707e-06 5.00000000e-01	135	5.03915897e+00	1.97852077e+00 9.42574530e-01 5.00000000e-01	13055	1.85737876e-16	1.97852077e+00 1.00232707e-06 5.00000000e-01	135
62              	-1.82402618e-05	1.97852077e+00 1.00232707e-06 5.00000000e-01	135	3.08501446e-09	1.97852077e+00 1.00232707e-06 5.00000000e-01	135	5.03920781e+00	1.97852077e+00 9.42574530e-01 5.00000000e-01	13055	1.93711830e-16	1.97852077e+00 1.00232707e-06 5.00000000e-01	135
63              	-1.92845161e-05	1.97852077e+00 1.00232707e-06 5.00000000e-01	135	3.21092709e-09	1.97852077e+00 1.00232707e-06 5.00000000e-01	135	5.03925729e+00	1.97852077e+00 9.42574530e-01 5.00000000e-01	13055	2.01618038e-16	1.97852077e+00 1.00232707e-06 5.00000000e-01	135
64              	-2.03720770e-05	1.97852077e+00 1.00232707e-06 5.00000000e-01	135	3.33544626e-09	1.97852077e+00 1.00232707e-06 5.00000000e-01	135	5.03930728e+00	1.97852077e+00 9.42574530e-01 5.00000000e-01	13055	2.09436749e-16	1.97852077e+00 1.00232707e-06 5.00000000e-01	135
65              	-2.14728450e-05	1.97852077e+00 1.00232707e-06 5.00000000e-01	135	3.45828852e-09	1.97852077e+00 1.00232707e-06 5.00000000e-01	135	5.03935771e+00	1.97852077e+00 9.42574530e-01 5.00000000e-01	13055	2.17150165e-16	1.97852077e+00 1.00232707e-06 5.00000000e-01	135
66              	-2.25947313e-05	1.97852077e+00 1.00232707e-06 5.00000000e-01	135	3.57920063e-09	1.97852077e+00 1.00232707e-06 5.00000000e-01	135	5.03940853e+00	1.97852077e+00 9.42574530e-01 5.00000000e-01	13055	2.24742384e-16	1.97852077e+00 1.00232707e-06 5.00000000e-01	135
67              	-2.37516241e-05	1.97852077e+00 1.00232707e-06 5.00000000e-01	135	3.69795847e-09	1.97852077e+00 1.00232707e-06 5.00000000e-01	135	5.03945971e+00	1.97852077e+00 9.42574530e-01 5.00000000e-01	13055	2.32199334e-16	1.97852077e+00 1.00232707e-06 5.00000000e-01	135
68              	-2.49517652e-05	1.97852077e+00 1.00232707e-06 5.00000000e-01	135	3.81436578e-09	1.97852077e+00 1.00232707e-06 5.00000000e-01	135	5.03951120e+00	1.97852077e+00 9.42574530e-01 5.00000000e-01	13055	2.39508691e-16	1.97852077e+00 1.00232707e-06 5.00000000e-01	135
69              	-2.61890115e-05	1.97852077e+00 1.00232707e-06 5.00000000e-01	135	3.92825270e-09	1.97852077e+00 1.00232707e-06 5.00000000e-01	135	5.03956299e+00	1.97852077e+00 9.42574530e-01 5.00000000e-01	13055	2.46659790e-16	1.97852077e+00 1.00232707e-06 5.00000000e-01	135
70              	-2.74359854e-05	1.97852077e+00 1.00232707e-06 5.00000000e-01	135	4.03947431e-09	1.97852077e+00 1.00232707e-06 5.00000000e-01	135	5.03961503e+00	1.97852077e+00 9.42574530e-01 5.00000000e-01	13055	2.53643531e-16	1.97852077e+00 1.00232707e-06 5.00000000e-01	135
71              	-2.86991194e-05	1.97852077e+00 1.00232707e-06 5.00000000e-01	135	4.14790911e-09	1.97852077e+00 1.00232707e-06 5.00000000e-01	135	5.03966729e+00	1.97852077e+00 9.42574530e-01 5.00000000e-01	13055	2.60452284e-16	1.97852077e+00 1.00232707e-06 5.00000000e-01	135
72              	-2.99900584e-05	1.97852077e+00 1.00232707e-06 5.00000000e-01	135	4.25345739e-09	1.97852077e+00 1.00232707e-06 5.00000000e-01	135	5.03971975e+00	1.97852077e+00 9.42574530e-01 5.00000000e-01	13055	2.67079790e-16	1.97852077e+00 1.00232707e-06 5.00000000e-01	135
73              	-3.13189470e-05	1.97852077e+00 1.00232707e-06 5.00000000e-01	135	4.35603973e-09	1.97852077e+00 1.00232707e-06 5.00000000e-01	135	5.03977237e+00	1.97852077e+00 9.42574530e-01 5.00000000e-01	13055	2.73521061e-16	1.97852077e+00 1.00232707e-06 5.00000000e-01	135
74              	-3.26911015e-05	1.97852077e+00 1.00232707e-06 5.00000000e-01	135	4.45559538e-09	1.97852077e+00 1.00232707e-06 5.00000000e-01	135	5.03982514e+00	1.97852077e+00 9.42574530e-01 5.00000000e-01	13055	2.79772282e-16	1.97852077e+00 1.00232707e-06 5.00000000e-01	135
75              	-3.40764474e-05	1.97852077e+00 1.00232707e-06 5.00000000e-01	135	4.55208071e-09	1.97852077e+00 1.00232707e-06 5.00000000e-01	135	5.03987801e+00	1.97852077e+00 9.42574530e-01 5.00000000e-01	13055	2.85830714e-16	1.97852077e+00 1.00232707e-06 5.00000000e-01	135
76              	-3.54724769e-05	1.97852077e+00 1.00232707e-06 5.00000000e-01	135	4.64546765e-09	1.97852077e+00 1.00232707e-06 5.00000000e-01	135	5.03993097e+00	1.97852077e+00 9.42574530e-01 5.00000000e-01	13055	2.91694594e-16	1.97852077e+00 1.00232707e-06 5.00000000e-01	135
77              	-3.68821703e-05	1.97852077e+00 1.00232707e-06 5.00000000e-01	135	4.73574216e-09	1.97852077e+00 1.00232707e-06 5.00000000e-01	135	5.03998398e+00	1.97852077e+00 9.42574530e-01 5.00000000e-01	13055	2.97363041e-16	1.97852077e+00 1.00232707e-06 5.00000000e-01	135
78              	-3.83156041e-05	1.97852077e+00 1.00232707e-06 5.00000000e-01	135	4.82290277e-09	1.97852077e+00 1.00232707e-06 5.00000000e-01	135	5.04003702e+00	1.97852077e+00 9.42574530e-01 5.00000000e-01	13055	3.02835962e-16	1.97852077e+00 1.00232707e-06 5.00000000e-01	135
79              	-3.97820986e-05	1.97852077e+00 1.00232707e-06 5.00000000e-01	135	4.90695923e-09	1.97852077e+00 1.00232707e-06 5.00000000e-01	135	5.04009005e+00	1.97852077e+00 9.42574530e-01 5.00000000e-01	13055	3.08113970e-16	1.97852077e+00 1.00232707e-06 5.00000000e-01	135
80              	-4.12868179e-05	1.97852077e+00 1.00232707e-06 5.00000000e-01	135	4.98793041e-09	1.97852077e+00 1.00232707e-06 5.00000000e-01	135	5.04014306e+00	1.97852077e+00 9.42574530e-01 5.00000000e-01	13055	3.13198249e-16	1.97852077e+00 1.00232707e-06 5.00000000e-01	135
81              	-4.28069499e-05	1.97852077e+00 1.00232707e-06 5.00000000e-01	135	5.06583789e-09	1.97852077e+00 1.00232707e-06 5.00000000e-01	135	5.04019602e+00	1.97852077e+00 9.42574530e-01 5.00000000e-01	13055	3.18090155e-16	1.97852077e+00 1.00232707e-06 5.00000000e-01	135
82              	-4.43334391e-05	1.97852077e+00 1.00232707e-06 5.00000000e-01	135	5.14070003e-09	1.97852077e+00 1.00232707e-06 5.00000000e-01	135	5.04024890e+00	1.97852077e+00 9.42574530e-01 5.00000000e-01	13055	3.22790840e-16	1.97852077e+00 1.00232707e-06 5.00000000e-01	135
83              	-4.58676259e-05	1.97852077e+00 1.00232707e-06 5.00000000e-01	135	5.21253180e-09	1.97852077e+00 1.00232707e-06 5.00000000e-01	135	5.04030168e+00	1.97852077e+00 9.42574530e-01 5.00000000e-01	13055	3.27301245e-16	1.97852077e+00 1.00232707e-06 5.00000000e-01	135
84              	-4.74141942e-05	1.97852077e+00 1.00232707e-06 5.00000000e-01	135	5.28134994e-09	1.97852077e+00 1.00232707e-06 5.00000000e-01	135	5.04035435e+00	1.97852077e+00 9.42574530e-01 5.00000000e-01	13055	3.31622420e-16	1.97852077e+00 1.00232707e-06 5.00000000e-01	135
85              	-4.89811214e-05	1.97852077e+00 1.00232707e-06 5.00000000e-01	135	5.34717931e-09	1.97852077e+00 1.00232707e-06 5.00000000e-01	135	5.04040689e+00	1.97852077e+00 9.42574530e-01 5.00000000e-01	13055	3.35755927e-16	1.97852077e+00 1.00232707e-06 5.00000000e-01	135
86              	-5.05762206e-05	1.97852077e+00 1.00232707e-06 5.00000000e-01	135	5.41005730e-09	1.97852077e+00 1.00232707e-06 5.00000000e-01	135	5.04045926e+00	1.97852077e+00 9.42574530e-01 5.00000000e-01	13055	3.39704113e-16	1.97852077e+00 1.00232707e-06 5.00000000e-01	135
87              	-5.22017338e-05	1.97852077e+00 1.00232707e-06 5.00000000e-01	135	5.47003508e-09	1.97852077e+00 1.00232707e-06 5.00000000e-01	135	5.04051146e+00	1.97852077e+00 9.42574530e-01 5.00000000e-01	13055	3.43470191e-16	1.97852077e+00 1.00232707e-06 5.00000000e-01	135
88              	-5.38455601e-05	1.97852077e+00 1.00232707e-06 5.00000000e-01	135	5.52717634e-09	1.97852077e+00 1.00232707e-06 5.00000000e-01	135	5.04056346e+00	1.97852077e+00 9.42574530e-01 5.00000000e-01	13055	3.47058161e-16	1.97852077e+00 1.00232707e-06 5.00000000e-01	135
89              	-5.54840279e-05	1.97852077e+00 1.00232707e-06 5.00000000e-01	135	5.58155468e-09	1.97852077e+00 1.00232707e-06 5.00000000e-01	135	5.04061523e+00	1.97852077e+00 9.42574530e-01 5.00000000e-01	13055	3.50472643e-16	1.97852077e+00 1.00232707e-06 5.00000000e-01	135
90              	-5.71224648e-05	1.97852077e+00 1.00232707e-06 5.00000000e-01	135	5.63325056e-09	1.97852077e+00 1.00232707e-06 5.00000000e-01	135	5.04066678e+00	1.97852077e+00 9.42574530e-01 5.00000000e-01	13055	3.53718691e-16	1.97852077e+00 1.00232707e-06 5.00000000e-01	135
91              	-5.87731841e-05	1.97852077e+00 1.00232707e-06 5.00000000e-01	135	5.68234864e-09	1.97852077e+00 1.00232707e-06 5.00000000e-01	135	5.04071807e+00	1.97852077e+00 9.42574530e-01 5.00000000e-01	13055	3.56801619e-16	1.97852077e+00 1.00232707e-06 5.00000000e-01	135
92              	-6.04315943e-05	1.97852077e+00 1.00232707e-06 5.00000000e-01	135	5.72893566e-09	1.97852077e+00 1.00232707e-06 5.00000000e-01	135	5.04076909e+00	1.97852077e+00 9.42574530e-01 5.00000000e-01	13055	3.59726875e-16	1.97852077e+00 1.00232707e-06 5.00000000e-01	135
93              	-6.21004560e-05	1.97852077e+00 1.00232707e-06 5.00000000e-01	135	5.77309865e-09	1.97852077e+00 1.00232707e-06 5.00000000e-01	135	5.04081984e+00	1.97852077e+00 9.42574530e-01 5.00000000e-01	13055	3.62499923e-16	1.97852077e+00 1.00232707e-06 5.00000000e-01	135
94              	-6.37898578e-05	1.97852077e+00 1.00232707e-06 5.00000000e-01	135	5.81492404e-09	1.97852077e+00 1.00232707e-06 5.00000000e-01	135	5.04087029e+00	1.97852077e+00 9.42574530e-01 5.00000000e-01	13055	3.65126191e-16	1.97852077e+00 1.00232707e-06 5.00000000e-01	135
95              	-6.55045333e-05	1.97852077e+00 1.00232707e-06 5.00000000e-01	135	5.85449700e-09	1.97852077e+00 1.00232707e-06 5.00000000e-01	135	5.04092043e+00	1.97852077e+00 9.42574530e-01 5.00000000e-01	13055	3.67611025e-16	1.97852077e+00 1.00232707e-06 5.00000000e-01	135
96              	-6.72448180e-05	1.97852077e+00 1.00232707e-06 5.00000000e-01	135	5.89190094e-09	1.97852077e+00 1.00232707e-06 5.00000000e-01	135	5.04097025e+00	1.97852077e+00 9.42574530e-01 5.00000000e-01	13055	3.69959664e-16	1.97852077e+00 1.00232707e-06 5.00000000e-01	135
97              	-6.89837069e-05	1.97852077e+00 1.00232707e-06 5.00000000e-01	135	5.92721732e-09	1.97852077e+00 1.00232707e-06 5.00000000e-01	135	5.04101975e+00	1.97852077e+00 9.42574530e-01 5.00000000e-01	13055	3.72177223e-16	1.97852077e+00 1.00232707e-06 5.00000000e-01	135
98              	-7.07044353e-05	1.97852077e+00 1.00232707e-06 5.00000000e-01	135	5.96052558e-09	1.97852077e+00 1.00232707e-06 5.00000000e-01	135	5.04106889e+00	1.97852077e+00 9.42574530e-01 5.00000000e-01	13055	3.74268689e-16	1.97852077e+00 1.00232707e-06 5.00000000e-01	135
99              	-7.24129230e-05	1.97852077e+00 1.00232707e-06 5.00000000e-01	135	5.99190298e-09	1.97852077e+00 1.00232707e-06 5.00000000e-01	135	5.04111767e+00	1.97852077e+00 9.42574530e-01 5.00000000e-01	13055	3.76238915e-16	1.97852077e+00 1.00232707e-06 5.00000000e-01	135
100             	-7.41173620e-05	1.97852077e+00 1.00232707e-06 5.00000000e-01	135	6.02142478e-09	1.97852077e+00 1.00232707e-06 5.00000000e-01	135	5.04116606e+00	1.97852077e+00 9.42574530e-01 5.00000000e-01	13055	3.78092624e-16	1.97852077e+00 1.00232707e-06 5.00000000e-01	135
101             	-7.58272249e-05	1.97852077e+00 1.00232707e-06 5.00000000e-01	135	6.04916412e-09	1.97852077e+00 1.00232707e-06 5.00000000e-01	135	5.04121406e+00	1.97852077e+00 9.42574530e-01 5.00000000e-01	13055	3.79834411e-16	1.97852077e+00 1.00232707e-06 5.00000000e-01	135
102             	-7.75484771e-05	1.97852077e+00 1.00232707e-06 5.00000000e-01	135	6.07519212e-09	1.97852077e+00 1.00232707e-06 5.00000000e-01	135	5.04126164e+00	1.97852077e+00 9.42574530e-01 5.00000000e-01	13055	3.81468741e-16	1.97852077e+00 1.00232707e-06 5.00000000e-01	135
103             	-7.92757926e-05	1.97852077e+00 1.00232707e-06 5.00000000e-01	135	6.09957789e-09	1.97852077e+00 1.00232707e-06 5.00000000e-01	135	5.04130881e+00	1.97852077e+00 9.42574530e-01 5.00000000e-01	13055	3.82999954e-16	1.97852077e+00 1.00232707e-06 5.00000000e-01	135
104             	-8.10144902e-05	1.97852077e+00 1.00232707e-06 5.00000000e-01	135	6.12238858e-09	1.97852077e+00 1.00232707e-06 5.00000000e-01	135	5.04135554e+00	1.97852077e+00 9.42574530e-01 5.00000000e-01	13055	3.84432265e-16	1.97852077e+00 1.00232707e-06 5.00000000e-01	135
105             	-8.27572095e-05	1.97852077e+00 1.00232707e-06 5.00000000e-01	135	6.14368942e-09	1.97852077e+00 1.00232707e-06 5.00000000e-01	135	5.04140183e+00	1.97852077e+00 9.42574530e-01 5.00000000e-01	13055	3.85769771e-16	1.97852077e+00 1.00232707e-06 5.00000000e-01	135
106             	-8.45184059e-05	1.97852077e+00 1.00232707e-06 5.00000000e-01	135	6.16354374e-09	1.97852077e+00 1.00232707e-06 5.00000000e-01	135	5.04144768e+00	1.97852077e+00 9.42574530e-01 5.00000000e-01	13055	3.87016448e-16	1.97852077e+00 1.00232707e-06 5.00000000e-01	135
107             	-8.62966170e-05	1.97852077e+00 1.00232707e-06 5.00000000e-01	135	6.18201307e-09	1.97852077e+00 1.00232707e-06 5.00000000e-01	135	5.04149308e+00	1.97852077e+00 9.42574530e-01 5.00000000e-01	13055	3.88176160e-16	1.97852077e+00 1.00232707e-06 5.00000000e-01	135