/*--------------------------------*- C++ -*----------------------------------*\
  =========                 |
  \\      /  F ield         | OpenFOAM: The Open Source CFD Toolbox
   \\    /   O peration     | Website:  https://openfoam.org
    \\  /    A nd           | Version:  12
     \\/     M anipulation  |
\*---------------------------------------------------------------------------*/
FoamFile
{
    format      ascii;
    class       volScalarField;
    location    "1400";
    object      k;
}
// * * * * * * * * * * * * * * * * * * * * * * * * * * * * * * * * * * * * * //

dimensions      [0 2 -2 0 0 0 0];

internalField   nonuniform List<scalar> 
7480
(
0.00065080958
0.0016642896
0.0030109204
0.0044347101
0.0057281798
0.0067730471
0.0075316464
0.0080214685
0.0082888354
0.008387924
0.0083683723
0.0082701359
0.0081228876
0.0079474659
0.0077579275
0.0075635468
0.0073705829
0.0071835653
0.0070057128
0.0068395442
0.0066872116
0.0065506406
0.0064314787
0.0063309583
0.0062497452
0.006187475
0.0061418954
0.0061095975
0.0060858927
0.0060657229
0.0060449476
0.0060211663
0.005993762
0.0059634879
0.0059315369
0.0058988547
0.0058658403
0.0058324429
0.0057984543
0.0057637881
0.0057286028
0.0056932248
0.005657993
0.0056231264
0.0055887018
0.0055547221
0.0055211871
0.005488113
0.0054555184
0.0054234128
0.0053917926
0.0053606446
0.0053299552
0.0052997165
0.0052699216
0.0052405575
0.005211609
0.0051830666
0.0051549262
0.0051271735
0.0050997948
0.0050727783
0.0050461129
0.0050197896
0.0049938015
0.0049681409
0.0049428002
0.0049177723
0.0048930493
0.0048686238
0.0048444888
0.0048206369
0.0047970614
0.0047737556
0.004750713
0.0047279276
0.0047053933
0.004683104
0.0046610542
0.0046392383
0.0046176508
0.0045962865
0.0045751402
0.004554207
0.0045334818
0.0045129598
0.004492636
0.0044725052
0.0044525629
0.0044328022
0.0044132199
0.0043938022
0.0043745558
0.004355431
0.0043364975
0.0043175228
0.0042989167
0.0042793567
0.0042629786
0.0042325143
0.00015514019
0.00017481616
0.00021667557
0.0002877766
0.00039306902
0.00052336269
0.00066442609
0.00080393174
0.00093342327
0.0010486658
0.0011494683
0.0012388035
0.0013215571
0.0014042155
0.0014951329
0.0016045518
0.0017493223
0.0019376379
0.0021482624
0.0023805827
0.0026377927
0.0029218615
0.0032312417
0.0035620825
0.0039055378
0.0042466667
0.0045670176
0.0048479077
0.0050738646
0.0052386915
0.0053468367
0.0054102251
0.0054436522
0.0054602744
0.0054688367
0.0054730783
0.0054733447
0.0054689047
0.0054595961
0.0054464016
0.0054310065
0.0054149471
0.0053991143
0.0053836373
0.0053682681
0.005352791
0.0053371702
0.0053214624
0.0053056889
0.0052898028
0.0052737411
0.0052574755
0.0052410102
0.0052243501
0.005207487
0.0051904133
0.0051731351
0.0051556671
0.005138002
0.005120186
0.00510222
0.0050841087
0.005065866
0.0050475095
0.0050290555
0.0050105186
0.0049919116
0.0049732459
0.004954532
0.0049357803
0.0049170003
0.0048982015
0.0048793928
0.0048605826
0.0048417788
0.0048229887
0.004804219
0.0047854763
0.0047667662
0.0047480943
0.0047294655
0.0047108846
0.0046923558
0.0046738829
0.0046554694
0.0046371185
0.004618833
0.0046006155
0.004582468
0.0045643925
0.0045463897
0.0045284609
0.0045106039
0.0044928195
0.0044750965
0.0044574405
0.0044398328
0.0044219757
0.0044060386
0.0043778639
0.00014810948
0.00014929993
0.00015086149
0.00015268454
0.00015478305
0.00015711535
0.00015958893
0.00016210924
0.00016459726
0.00016699197
0.00016927113
0.00017147606
0.00017372232
0.00017621628
0.00017931211
0.00018349616
0.0001898345
0.00019896398
0.00021560888
0.00024253476
0.00028204801
0.00033687753
0.00041087826
0.0005085
0.00063712479
0.00080695793
0.0010454272
0.0013341381
0.0016628482
0.0020195119
0.0023879206
0.0027490375
0.0030828926
0.0033729975
0.0036100289
0.0037938102
0.0039316152
0.0040349324
0.0041155074
0.0041824423
0.0042409021
0.0042927423
0.0043381246
0.0043770719
0.0044102121
0.0044386587
0.0044635159
0.0044855057
0.0045049503
0.0045219897
0.0045367789
0.0045495267
0.004560433
0.004569643
0.00457726
0.0045833795
0.0045881005
0.004591517
0.0045937048
0.0045947154
0.0045946358
0.0045935454
0.0045915133
0.0045886023
0.0045848709
0.0045803733
0.0045751592
0.0045692749
0.0045627631
0.0045556646
0.0045480174
0.0045398576
0.0045312194
0.004522135
0.0045126349
0.0045027477
0.0044925001
0.0044819176
0.004471024
0.0044598418
0.0044483922
0.0044366951
0.0044247692
0.004412632
0.0044003002
0.0043877891
0.0043751134
0.0043622869
0.0043493224
0.0043362323
0.0043230268
0.0043097188
0.0042963117
0.0042828287
0.0042692437
0.0042556353
0.0042418661
0.0042280399
0.0042152772
0.0041930366
0.00014753912
0.00014779223
0.00014805722
0.00014830234
0.00014851679
0.00014869095
0.0001488118
0.00014886506
0.00014883487
0.00014870791
0.00014847284
0.00014811972
0.0001476408
0.00014704007
0.000146324
0.00014550204
0.00014460111
0.00014364116
0.00014269015
0.00014192654
0.00014125768
0.00014140198
0.00014212238
0.00014400502
0.00014764716
0.00015391646
0.00016516862
0.00018354129
0.00021636197
0.00027046644
0.00035207762
0.00046811553
0.00062669043
0.00084945162
0.0011178167
0.0014153079
0.0017261902
0.0020331819
0.0023191866
0.0025713428
0.0027838552
0.0029582233
0.003101142
0.0032211769
0.0033257531
0.0034194681
0.0035042831
0.0035807641
0.0036493281
0.0037107896
0.0037662118
0.0038165253
0.0038623436
0.0039040496
0.0039419625
0.0039764081
0.0040076943
0.0040360793
0.004061776
0.004084966
0.004105826
0.0041245229
0.0041412069
0.0041560151
0.0041690733
0.0041804967
0.0041903907
0.0041988524
0.0042059718
0.0042118323
0.004216512
0.0042200834
0.0042226149
0.0042241704
0.0042248098
0.0042245892
0.0042235615
0.004221776
0.0042192794
0.0042161155
0.0042123253
0.0042079478
0.0042030193
0.0041975741
0.0041916443
0.0041852605
0.0041784512
0.0041712436
0.0041636629
0.0041557338
0.0041474776
0.0041389189
0.0041300703
0.0041209686
0.0041115909
0.0041020479
0.0040921611
0.0040822424
0.0040727384
0.0040561443
0.00014741033
0.0001475131
0.0001476082
0.00014768378
0.000147737
0.00014776609
0.00014776825
0.00014774051
0.00014767948
0.00014758132
0.00014744261
0.00014726056
0.00014703123
0.00014674635
0.00014640245
0.00014599775
0.00014553216
0.00014500653
0.00014442588
0.00014380312
0.00014314563
0.00014248727
0.00014184475
0.00014124363
0.0001407034
0.0001402753
0.00013994501
0.00014004414
0.00014053596
0.00014194059
0.00014476997
0.00014982195
0.00015833181
0.00017311119
0.00019856955
0.00024324586
0.00031392877
0.00041729511
0.00056294369
0.00076082222
0.00099400554
0.0012483748
0.0015090963
0.0017610949
0.0019923988
0.0021966657
0.0023733766
0.0025263294
0.002661007
0.0027821077
0.0028924335
0.002993212
0.0030850643
0.0031687148
0.0032450985
0.0033151167
0.0033794546
0.0034386076
0.0034929933
0.0035430032
0.0035889965
0.0036312879
0.0036701526
0.0037058396
0.0037385761
0.003768568
0.003796001
0.0038210452
0.0038438562
0.0038645773
0.0038833406
0.0039002684
0.0039154745
0.0039290645
0.0039411369
0.0039517836
0.0039610905
0.0039691377
0.0039760006
0.0039817497
0.0039864511
0.003990167
0.0039929555
0.0039948716
0.0039959665
0.0039962888
0.0039958842
0.0039947956
0.0039930637
0.0039907271
0.0039878208
0.0039843821
0.0039804359
0.003976031
0.003971155
0.0039659365
0.0039601843
0.0039543506
0.0039483148
0.0039375616
0.00014735811
0.00014741593
0.00014746347
0.00014749494
0.00014751147
0.00014751385
0.00014750149
0.00014747323
0.0001474278
0.00014736374
0.00014727949
0.00014717241
0.00014704191
0.00014688581
0.0001467017
0.00014648739
0.00014624106
0.00014596122
0.00014564683
0.00014529781
0.00014491489
0.00014449968
0.0001440558
0.00014358528
0.000143097
0.00014260601
0.00014211631
0.00014165436
0.00014122542
0.00014089052
0.00014057912
0.00014059037
0.00014075459
0.00014129548
0.00014242572
0.00014466023
0.00014867376
0.00015540825
0.00016669865
0.00018543927
0.00021877029
0.00027378042
0.00035709172
0.00047724276
0.00064155787
0.00083697152
0.0010524247
0.0012752824
0.0014932329
0.001696853
0.0018814063
0.0020466667
0.0021952726
0.0023304815
0.0024546632
0.0025690556
0.0026743415
0.0027712056
0.0028604613
0.002942889
0.0030191156
0.0030896404
0.0031549062
0.0032153255
0.0032712721
0.0033230758
0.0033710311
0.0034154067
0.0034564471
0.0034943751
0.0035293946
0.0035616931
0.0035914433
0.003618805
0.003643926
0.0036669437
0.0036879859
0.0037071715
0.0037246118
0.0037404104
0.0037546645
0.0037674648
0.0037788966
0.0037890396
0.0037979687
0.0038057543
0.0038124626
0.003818156
0.003822893
0.0038267293
0.0038297162
0.0038319057
0.0038333376
0.0038340735
0.0038341156
0.0038336054
0.003832351
0.0038309222
0.0038286465
0.0038241262
0.00014733057
0.0001473679
0.00014739503
0.000147409
0.00014741219
0.00014740609
0.00014739059
0.00014736507
0.00014732892
0.00014728143
0.00014722183
0.000147149
0.00014706206
0.00014696004
0.00014684176
0.00014670596
0.00014655136
0.00014637675
0.00014618099
0.0001459631
0.00014572242
0.00014545847
0.00014517138
0.00014486127
0.00014452919
0.00014417815
0.00014381052
0.00014343108
0.00014304247
0.00014265522
0.00014226497
0.00014191272
0.00014159662
0.0001413469
0.00014111414
0.00014111536
0.00014123261
0.00014162045
0.00014242709
0.00014383575
0.00014632327
0.00015063666
0.00015778828
0.00016967068
0.00018913468
0.00022326795
0.00027852505
0.00036096997
0.00048193284
0.00063481253
0.0008120136
0.0010038619
0.0011995982
0.0013897054
0.0015680413
0.0017323753
0.0018833958
0.002022875
0.0021522861
0.0022724648
0.0023839565
0.0024873558
0.0025833351
0.0026725227
0.0027554452
0.0028325581
0.0029042821
0.0029710063
0.0030330823
0.0030908274
0.0031445321
0.0031944631
0.0032408654
0.0032839643
0.0033239677
0.0033610683
0.0033954449
0.0034272632
0.0034566778
0.0034838326
0.003508862
0.0035318914
0.0035530381
0.0035724119
0.0035901158
0.0036062463
0.0036208941
0.0036341445
0.0036460774
0.0036567688
0.0036662888
0.003674707
0.0036820807
0.0036884858
0.0036939423
0.0036986039
0.0037022832
0.003705664
0.0037074968
0.0037097241
0.0001473144
0.0001473395
0.00014735536
0.00014736028
0.00014735679
0.00014734654
0.00014732969
0.00014730594
0.00014727492
0.00014723624
0.00014718941
0.00014713384
0.00014706889
0.00014699391
0.00014690821
0.00014681099
0.00014670142
0.00014657862
0.00014644174
0.00014628992
0.00014612242
0.00014593852
0.00014573774
0.00014551967
0.00014528409
0.00014503136
0.00014476209
0.00014447752
0.0001441787
0.00014386853
0.00014354718
0.00014322203
0.00014289749
0.00014258206
0.00014226705
0.00014199047
0.0001417509
0.00014156893
0.00014143524
0.00014145503
0.00014158099
0.00014195307
0.00014268146
0.00014395768
0.0001460007
0.00014945175
0.00015523133
0.0001646418
0.00018015717
0.00020646212
0.00024974936
0.00031586966
0.00041438229
0.00054230082
0.00069438084
0.00086298406
0.0010389186
0.0012136053
0.0013810349
0.0015385211
0.0016858505
0.0018237634
0.0019529206
0.0020737278
0.0021865636
0.0022919076
0.0023902791
0.0024821551
0.0025679604
0.0026480911
0.0027229211
0.0027927961
0.002858034
0.0029189292
0.0029757547
0.0030287638
0.0030781915
0.0031242565
0.0031671622
0.0032070983
0.0032442417
0.0032787577
0.0033108005
0.0033405146
0.0033680355
0.00339349
0.0034169971
0.0034386687
0.0034586097
0.0034769193
0.0034936896
0.0035090107
0.0035229597
0.0035356296
0.0035470603
0.0035574194
0.0035665253
0.0035751828
0.0035815201
0.0035911001
0.0001473047
0.0001473213
0.00014732997
0.00014732942
0.00014732186
0.00014730896
0.0001472911
0.00014726818
0.00014724
0.0001472063
0.00014716676
0.00014712097
0.00014706847
0.00014700881
0.00014694148
0.00014686596
0.00014678164
0.00014668792
0.00014658414
0.00014646965
0.0001463438
0.00014620598
0.00014605561
0.00014589218
0.00014571524
0.00014552453
0.00014531994
0.00014510165
0.00014486988
0.00014462547
0.00014436877
0.00014410156
0.00014382581
0.00014354519
0.00014325883
0.00014297426
0.00014269606
0.00014243036
0.00014217691
0.00014195947
0.00014177737
0.00014165007
0.00014159861
0.00014165865
0.0001418585
0.00014228583
0.00014307423
0.00014438976
0.00014648645
0.00014988675
0.00015547316
0.00016448636
0.00017919907
0.00020375304
0.00024369439
0.00030495012
0.0003948051
0.00051070218
0.00064879878
0.00080253661
0.0009637745
0.0011250473
0.0012813029
0.0014302484
0.0015713764
0.0017047775
0.0018305726
0.001948907
0.0020600477
0.0021643557
0.002262206
0.0023539561
0.0024399529
0.0025205331
0.002596017
0.0026667064
0.0027328856
0.002794822
0.0028527666
0.0029069548
0.002957607
0.0030049302
0.0030491183
0.0030903531
0.0031288053
0.0031646352
0.0031979932
0.0032290208
0.0032578509
0.0032846087
0.0033094114
0.0033323718
0.00335359
0.0033731776
0.0033911975
0.0034078332
0.003422909
0.0034373617
0.0034486421
0.0034662561
0.00014730014
0.00014731001
0.00014731351
0.00014730928
0.00014729901
0.00014728419
0.00014726536
0.00014724262
0.0001472159
0.00014718505
0.00014714982
0.00014710992
0.00014706501
0.00014701473
0.0001469587
0.00014689651
0.00014682773
0.00014675189
0.00014666849
0.00014657702
0.00014647696
0.0001463678
0.00014624903
0.00014612016
0.00014598073
0.00014583033
0.00014566865
0.00014549549
0.00014531071
0.00014511442
0.0001449067
0.00014468798
0.00014445894
0.00014422106
0.00014397476
0.0001437221
0.00014346544
0.00014320788
0.00014295033
0.00014269921
0.00014245758
0.00014223072
0.0001420269
0.00014185698
0.00014173128
0.00014165329
0.00014168476
0.00014182084
0.00014213143
0.00014270197
0.00014366289
0.00014520539
0.00014761717
0.00015145869
0.00015765213
0.00016760163
0.00018359693
0.00021017694
0.00025224633
0.00031653859
0.00040562889
0.00051806341
0.00064999125
0.00079496655
0.00094566624
0.0010959945
0.0012422437
0.001382756
0.0015169185
0.0016444588
0.0017652602
0.001879378
0.0019870044
0.0020883914
0.0021838108
0.0022735463
0.0023578861
0.0024371144
0.0025115066
0.002581328
0.0026468319
0.0027082597
0.0027658402
0.00281979
0.0028703139
0.0029176054
0.002961847
0.0030032107
0.0030418589
0.0030779448
0.0031116121
0.0031429988
0.0031722295
0.0031994372
0.0032247091
0.003248247
0.0032698811
0.0032906931
0.0033073945
0.0033337911
0.00014730057
0.00014730471
0.00014730399
0.00014729698
0.00014728474
0.00014726845
0.0001472487
0.00014722573
0.0001471996
0.00014717026
0.00014713756
0.00014710126
0.00014706111
0.00014701681
0.00014696807
0.00014691454
0.00014685589
0.00014679174
0.0001467217
0.00014664535
0.00014656228
0.00014647206
0.00014637427
0.00014626846
0.00014615423
0.00014603117
0.00014589891
0.00014575714
0.00014560559
0.00014544409
0.00014527251
0.00014509085
0.00014489924
0.00014469816
0.00014448795
0.00014426933
0.00014404332
0.00014381145
0.00014357466
0.00014333522
0.00014309525
0.00014285711
0.00014262406
0.00014240047
0.00014219144
0.00014199854
0.00014183922
0.00014172047
0.00014164257
0.00014166375
0.00014177019
0.00014203283
0.00014251294
0.00014330375
0.00014456582
0.00014654395
0.0001495707
0.00015438483
0.00016204022
0.00017429502
0.00019414005
0.00022599937
0.00027536612
0.00034678532
0.0004405474
0.00055491333
0.00068513558
0.00082466953
0.00096728531
0.0011086004
0.0012461882
0.0013788406
0.0015059001
0.0016269981
0.0017420001
0.0018509446
0.0019539649
0.002051246
0.0021430058
0.0022294812
0.0023109166
0.0023875568
0.0024596436
0.0025274128
0.0025910918
0.0026508995
0.0027070447
0.0027597269
0.0028091356
0.0028554507
0.0028988427
0.0029394743
0.0029774959
0.0030130626
0.0030462869
0.0030773913
0.0031062104
0.0031339847
0.0031566199
0.0031926081
0.00014730581
0.00014730503
0.00014730066
0.00014729127
0.00014727743
0.00014725996
0.00014723938
0.00014721598
0.00014718993
0.00014716127
0.00014712994
0.00014709577
0.00014705857
0.00014701811
0.00014697413
0.00014692638
0.00014687454
0.00014681832
0.00014675738
0.0001466914
0.00014662001
0.00014654287
0.00014645961
0.00014636985
0.00014627324
0.00014616941
0.000146058
0.00014593868
0.00014581115
0.00014567513
0.0001455304
0.00014537678
0.00014521416
0.00014504258
0.00014486214
0.00014467308
0.00014447576
0.0001442709
0.00014405908
0.00014384131
0.00014361876
0.00014339273
0.00014316483
0.00014293709
0.00014271224
0.00014249152
0.00014228041
0.00014208426
0.00014190355
0.00014175624
0.00014164579
0.00014157684
0.00014159889
0.00014170185
0.00014194738
0.00014239624
0.00014311748
0.00014425403
0.00014601538
0.00014871325
0.00015288555
0.00015944305
0.00016982608
0.00018637345
0.00021291871
0.00025428577
0.00031495258
0.0003964442
0.00049834954
0.00061710959
0.00074698479
0.00088204767
0.0010177753
0.0011513685
0.001281233
0.0014064205
0.0015263641
0.00164078
0.0017495822
0.001852805
0.0019505574
0.0020429985
0.0021303178
0.0022127224
0.0022904277
0.0023636519
0.0024326118
0.0024975201
0.0025585834
0.0026160016
0.002669966
0.0027206616
0.0027682617
0.0028129424
0.002854841
0.0028942011
0.0029308592
0.0029662288
0.0029953387
0.0030417784
0.0001473155
0.00014731061
0.00014730304
0.00014729152
0.00014727625
0.00014725776
0.00014723643
0.00014721255
0.00014718633
0.00014715786
0.00014712717
0.00014709416
0.00014705871
0.00014702064
0.00014697976
0.00014693583
0.00014688861
0.00014683784
0.00014678323
0.00014672451
0.00014666137
0.00014659351
0.00014652062
0.00014644238
0.00014635846
0.00014626855
0.00014617233
0.00014606948
0.00014595969
0.00014584267
0.00014571816
0.0001455859
0.00014544569
0.00014529738
0.00014514089
0.0001449762
0.0001448034
0.00014462273
0.00014443448
0.00014423909
0.00014403718
0.00014382945
0.00014361677
0.0001434002
0.00014318123
0.00014296086
0.0001427412
0.00014252525
0.00014231397
0.00014211336
0.00014192781
0.00014175899
0.00014162371
0.00014152439
0.00014147044
0.00014149722
0.00014161681
0.00014187164
0.00014231936
0.00014303704
0.00014414724
0.00014584638
0.00014843215
0.00015236508
0.00015848012
0.00016808004
0.00018323994
0.00020732843
0.0002448632
0.00029963809
0.00037395394
0.00046799781
0.00057883692
0.00070131947
0.00082995509
0.00096038829
0.0010897449
0.0012162496
0.0013387864
0.0014566654
0.0015695046
0.0016771313
0.0017795078
0.0018766861
0.0019687782
0.0020559352
0.0021383326
0.0022161599
0.002289614
0.002358894
0.0024241981
0.0024857217
0.0025436533
0.0025981842
0.0026494719
0.0026977792
0.0027429399
0.0027865528
0.0028226938
0.0028804822
0.00014732919
0.00014732093
0.00014731063
0.0001472972
0.00014728063
0.00014726121
0.00014723922
0.00014721487
0.00014718838
0.00014715986
0.00014712939
0.00014709694
0.00014706245
0.0001470258
0.00014698684
0.0001469454
0.00014690126
0.00014685421
0.00014680401
0.00014675041
0.00014669315
0.00014663197
0.00014656661
0.00014649677
0.00014642218
0.00014634256
0.00014625762
0.00014616707
0.00014607063
0.00014596801
0.00014585894
0.00014574314
0.00014562037
0.0001454904
0.00014535306
0.00014520819
0.00014505573
0.00014489567
0.00014472808
0.00014455312
0.00014437105
0.00014418222
0.0001439871
0.00014378624
0.00014358046
0.00014337046
0.00014315723
0.00014294238
0.00014272685
0.00014251301
0.00014230368
0.00014210011
0.0001419085
0.00014173256
0.00014157632
0.00014145231
0.00014136742
0.00014133612
0.00014137822
0.00014151911
0.00014180464
0.00014228619
0.00014304554
0.00014419834
0.00014593867
0.00014856819
0.00015254472
0.00015866515
0.00016820749
0.00018317873
0.00020672183
0.00024297385
0.00029534894
0.00036642074
0.00045637329
0.00056242284
0.00067977157
0.00080338092
0.00092922019
0.0010545315
0.0011775201
0.0012970176
0.0014122873
0.0015229
0.0016286345
0.0017294096
0.0018252396
0.0019162041
0.0020024258
0.0020840561
0.0021612637
0.0022342286
0.0023031341
0.0023681722
0.002429509
0.0024874191
0.0025417246
0.0025942197
0.002637944
0.0027079933
0.00014734642
0.00014733544
0.00014732286
0.00014730776
0.00014729002
0.00014726978
0.00014724719
0.00014722243
0.00014719566
0.00014716701
0.00014713656
0.00014710435
0.00014707034
0.00014703448
0.00014699667
0.00014695677
0.00014691463
0.00014687007
0.00014682289
0.00014677287
0.00014671979
0.00014666342
0.00014660354
0.00014653988
0.00014647221
0.00014640028
0.00014632382
0.00014624259
0.00014615631
0.00014606473
0.00014596757
0.00014586458
0.00014575549
0.00014564004
0.00014551802
0.00014538921
0.00014525345
0.00014511061
0.00014496062
0.00014480347
0.00014463921
0.00014446797
0.00014428995
0.00014410543
0.00014391481
0.00014371854
0.00014351714
0.00014331147
0.00014310223
0.00014289054
0.00014267802
0.00014246569
0.00014225618
0.00014205208
0.00014185555
0.00014167185
0.00014150531
0.00014136344
0.00014125455
0.00014117733
0.00014117967
0.00014125225
0.00014143412
0.00014176595
0.00014230469
0.00014314129
0.00014439908
0.00014627939
0.00014909536
0.0001533451
0.00015984816
0.00016988978
0.00018557679
0.00021006733
0.00024693142
0.00029961465
0.00037044699
0.00045921323
0.00056293206
0.00067701602
0.0007968701
0.00091886604
0.0010404716
0.0011599828
0.0012762694
0.0013886098
0.0014965708
0.0015999164
0.0016985472
0.0017924584
0.0018817106
0.0019664088
0.0020466878
0.0021227071
0.0021946165
0.0022626845
0.0023267047
0.0023886702
0.0024404947
0.0025236946
0.00014736677
0.00014735362
0.00014733916
0.00014732265
0.0001473039
0.00014728293
0.00014725983
0.00014723471
0.00014720771
0.00014717892
0.00014714844
0.00014711632
0.00014708255
0.00014704712
0.00014700997
0.00014697101
0.00014693013
0.00014688719
0.00014684202
0.00014679446
0.00014674431
0.00014669138
0.00014663546
0.00014657634
0.0001465138
0.00014644762
0.00014637757
0.00014630342
0.00014622494
0.00014614188
0.00014605399
0.00014596102
0.00014586271
0.00014575882
0.00014564908
0.00014553328
0.00014541119
0.00014528263
0.00014514744
0.00014500551
0.00014485676
0.00014470118
0.0001445388
0.00014436971
0.00014419408
0.00014401215
0.00014382419
0.00014363064
0.00014343195
0.00014322871
0.00014302184
0.00014281207
0.00014260069
0.00014238928
0.00014217924
0.00014197309
0.00014177343
0.00014158391
0.00014140953
0.00014125055
0.00014112441
0.00014103398
0.00014099097
0.00014101533
0.00014112446
0.00014136104
0.00014176277
0.00014239429
0.00014335242
0.00014477973
0.00014690116
0.00015005146
0.00015479064
0.00016204493
0.00017317994
0.00019049521
0.00021702786
0.00025626506
0.00031150474
0.00038444461
0.00047415846
0.00057731352
0.00068948965
0.00080655284
0.0009253156
0.0010435284
0.0011596491
0.001272647
0.0013818587
0.0014868798
0.0015874859
0.0016835797
0.0017751528
0.0018622629
0.0019449912
0.0020235621
0.0020977081
0.0021696137
0.0022299696
0.0023271257
0.00014738988
0.000147375
0.00014735903
0.00014734134
0.00014732173
0.00014730014
0.00014727662
0.00014725122
0.00014722405
0.00014719517
0.00014716468
0.00014713261
0.00014709898
0.00014706381
0.00014702706
0.00014698867
0.00014694858
0.00014690668
0.00014686284
0.00014681693
0.0001467688
0.00014671829
0.00014666521
0.00014660938
0.00014655062
0.00014648873
0.00014642351
0.00014635475
0.00014628224
0.00014620576
0.00014612509
0.00014603999
0.00014595021
0.00014585552
0.00014575565
0.00014565038
0.00014553947
0.0001454227
0.00014529987
0.0001451708
0.00014503535
0.00014489341
0.0001447449
0.0001445898
0.00014442812
0.00014425993
0.00014408536
0.00014390461
0.00014371791
0.0001435256
0.00014332815
0.00014312606
0.00014292002
0.00014271097
0.00014249981
0.00014228791
0.00014207684
0.00014186856
0.00014166607
0.00014147008
0.00014128761
0.00014112263
0.00014098146
0.00014087249
0.00014079501
0.00014079266
0.00014085678
0.00014102261
0.00014132764
0.00014182228
0.00014258209
0.00014371483
0.00014538568
0.00014786147
0.00015152767
0.00015704798
0.00016541403
0.00017829792
0.00019811013
0.00022798048
0.00027138331
0.00033109771
0.00040789319
0.00049996828
0.00060364614
0.00071474017
0.00082961624
0.00094553743
0.0010605617
0.0011733491
0.0012830032
0.0013889446
0.0014908205
0.0015884403
0.0016817086
0.0017707269
0.0018551044
0.0019371869
0.0020063344
0.0021180685
0.00014741542
0.00014739918
0.00014738199
0.00014736335
0.00014734302
0.00014732094
0.00014729708
0.00014727148
0.0001472442
0.0001472153
0.00014718484
0.00014715285
0.00014711936
0.00014708439
0.00014704792
0.00014700993
0.00014697036
0.00014692915
0.0001468862
0.00014684141
0.00014679467
0.00014674583
0.00014669476
0.0001466413
0.0001465853
0.00014652657
0.00014646496
0.00014640028
0.00014633233
0.00014626093
0.00014618587
0.00014610694
0.0001460239
0.00014593652
0.00014584458
0.00014574783
0.00014564603
0.00014553896
0.0001454264
0.00014530813
0.00014518397
0.00014505376
0.00014491734
0.00014477462
0.00014462551
0.00014446997
0.00014430802
0.00014413969
0.00014396509
0.00014378437
0.00014359775
0.00014340554
0.0001432081
0.00014300598
0.00014279975
0.0001425902
0.00014237827
0.00014216512
0.00014195251
0.00014174129
0.00014153455
0.00014133517
0.00014114661
0.00014097387
0.00014081772
0.00014069471
0.0001406079
0.00014056954
0.00014059828
0.00014071597
0.0001409534
0.00014135295
0.00014197437
0.00014290932
0.00014428309
0.00014630392
0.00014926845
0.00015367539
0.00016028838
0.00017035528
0.00018578182
0.00020922868
0.00024398388
0.00029326617
0.00035898906
0.00044075643
0.00053590568
0.00064057504
0.00075094249
0.00086390048
0.00097715138
0.0010890657
0.0011985225
0.0013047759
0.0014073301
0.0015060023
0.0016001553
0.0016922223
0.001770106
0.0018966928
0.00014744311
0.00014742581
0.00014740765
0.00014738824
0.00014736735
0.00014734487
0.00014732077
0.00014729504
0.00014726773
0.00014723886
0.00014720848
0.00014717663
0.00014714331
0.00014710856
0.00014707235
0.00014703468
0.00014699552
0.00014695481
0.0001469125
0.0001468685
0.00014682272
0.00014677507
0.00014672543
0.00014667368
0.00014661967
0.00014656328
0.00014650435
0.00014644273
0.00014637824
0.00014631073
0.00014624001
0.00014616588
0.00014608814
0.00014600658
0.00014592097
0.00014583109
0.0001457367
0.00014563758
0.00014553351
0.00014542426
0.00014530962
0.00014518939
0.00014506339
0.00014493146
0.00014479346
0.00014464929
0.00014449885
0.00014434211
0.00014417905
0.0001440097
0.00014383414
0.00014365251
0.00014346499
0.00014327187
0.0001430735
0.00014287031
0.0001426629
0.00014245194
0.00014223848
0.00014202325
0.00014180778
0.00014159391
0.0001413837
0.00014118022
0.00014098448
0.0001408036
0.00014064182
0.00014050528
0.00014040212
0.00014034327
0.00014034504
0.0001404265
0.00014061356
0.00014094431
0.00014146832
0.00014226244
0.00014343094
0.00014513769
0.00014762626
0.0001512893
0.00015674003
0.00016495971
0.00017747239
0.00019652136
0.00022507869
0.0002664224
0.00032312182
0.00039587615
0.00048305387
0.0005813441
0.00068696932
0.00079659404
0.00090763566
0.0010182142
0.001126989
0.0012331669
0.0013356183
0.0014367043
0.0015227027
0.0016637905
0.00014747272
0.00014745459
0.00014743568
0.00014741565
0.00014739431
0.00014737154
0.00014734727
0.00014732149
0.0001472942
0.00014726543
0.0001472352
0.00014720353
0.00014717044
0.00014713594
0.00014710002
0.00014706268
0.00014702389
0.00014698362
0.00014694181
0.00014689843
0.00014685339
0.00014680661
0.00014675802
0.00014670751
0.00014665498
0.00014660031
0.00014654337
0.00014648404
0.00014642218
0.00014635764
0.00014629025
0.00014621986
0.00014614627
0.00014606929
0.00014598872
0.00014590434
0.00014581595
0.00014572332
0.00014562623
0.00014552445
0.00014541778
0.00014530598
0.00014518888
0.00014506626
0.00014493796
0.00014480381
0.00014466369
0.00014451747
0.00014436507
0.00014420644
0.00014404155
0.00014387043
0.00014369312
0.00014350976
0.00014332052
0.00014312564
0.00014292545
0.00014272035
0.00014251095
0.0001422978
0.00014208173
0.00014186386
0.00014164548
0.00014142849
0.00014121389
0.00014100503
0.00014080504
0.00014061755
0.00014044709
0.00014030022
0.0001401843
0.00014010938
0.00014008986
0.00014014346
0.00014029305
0.00014057232
0.00014102522
0.0001417161
0.00014273612
0.00014422292
0.00014638356
0.00014954061
0.000154203
0.00016117313
0.0001717132
0.00018773118
0.00021187602
0.00024730472
0.0002969015
0.00036212876
0.00044225073
0.00053458389
0.00063555735
0.00074174706
0.00085034862
0.00095939814
0.0010668135
0.0011745613
0.0012670425
0.0014211758
0.00014750401
0.00014748526
0.00014746576
0.00014744527
0.00014742359
0.0001474006
0.00014737624
0.00014735046
0.00014732325
0.00014729463
0.0001472646
0.00014723317
0.00014720036
0.00014716616
0.00014713058
0.00014709359
0.00014705519
0.00014701534
0.00014697402
0.00014693117
0.00014688674
0.00014684068
0.00014679292
0.00014674337
0.00014669195
0.00014663858
0.00014658316
0.00014652557
0.0001464657
0.00014640343
0.00014633861
0.00014627111
0.00014620076
0.00014612738
0.0001460508
0.00014597083
0.00014588726
0.00014579988
0.0001457085
0.00014561288
0.00014551283
0.00014540811
0.00014529853
0.00014518387
0.00014506393
0.00014493854
0.00014480751
0.00014467069
0.00014452794
0.00014437915
0.00014422422
0.0001440631
0.00014389575
0.00014372218
0.00014354244
0.00014335664
0.00014316493
0.00014296754
0.00014276479
0.00014255705
0.0001423448
0.00014212871
0.00014190959
0.00014168859
0.00014146659
0.0001412453
0.00014102678
0.00014081337
0.0001406078
0.00014041387
0.00014023594
0.00014008028
0.00013995357
0.00013986551
0.00013982909
0.00013986082
0.00013998178
0.00014022167
0.0001406205
0.00014123537
0.00014214788
0.0001434786
0.0001454088
0.00014821521
0.00015233135
0.00015844179
0.00016762728
0.00018154384
0.00020255808
0.00023364423
0.00027779439
0.00033695926
0.00041110624
0.00049815437
0.00059479811
0.00069776585
0.00080349625
0.00091305424
0.0010085836
0.0011723599
0.0001475368
0.00014751757
0.00014749764
0.0001474768
0.00014745488
0.00014743176
0.00014740736
0.00014738163
0.00014735456
0.00014732613
0.00014729634
0.0001472652
0.00014723271
0.00014719887
0.00014716366
0.00014712707
0.0001470891
0.0001470497
0.00014700886
0.00014696654
0.00014692269
0.00014687726
0.00014683021
0.00014678146
0.00014673097
0.00014667864
0.0001466244
0.00014656817
0.00014650985
0.00014644934
0.00014638652
0.00014632127
0.00014625345
0.00014618291
0.00014610949
0.00014603301
0.00014595331
0.00014587018
0.00014578343
0.00014569287
0.00014559828
0.00014549946
0.00014539619
0.00014528827
0.00014517549
0.00014505765
0.00014493454
0.000144806
0.00014467185
0.00014453193
0.00014438611
0.00014423426
0.00014407628
0.00014391212
0.00014374174
0.00014356513
0.00014338234
0.00014319345
0.00014299863
0.00014279808
0.00014259206
0.00014238097
0.00014216528
0.00014194572
0.00014172293
0.00014149788
0.00014127188