/*--------------------------------*- C++ -*----------------------------------*\
  =========                 |
  \\      /  F ield         | OpenFOAM: The Open Source CFD Toolbox
   \\    /   O peration     | Website:  https://openfoam.org
    \\  /    A nd           | Version:  12
     \\/     M anipulation  |
\*---------------------------------------------------------------------------*/
FoamFile
{
    format      ascii;
    class       volScalarField;
    location    "1400";
    object      nut;
}
// * * * * * * * * * * * * * * * * * * * * * * * * * * * * * * * * * * * * * //

dimensions      [0 2 -1 0 0 0 0];

internalField   nonuniform List<scalar> 
7480
(
2.2953823e-06
3.6706364e-06
4.9371475e-06
5.9918212e-06
6.8098007e-06
7.4048803e-06
7.8085591e-06
8.0584747e-06
8.1916737e-06
8.2404916e-06
8.2308818e-06
8.182428e-06
8.1092575e-06
8.021216e-06
7.9249902e-06
7.8250772e-06
7.7246142e-06
7.6259843e-06
7.5309896e-06
7.4411397e-06
7.3578073e-06
7.2822865e-06
7.2157469e-06
7.1591357e-06
7.1130689e-06
7.0775442e-06
7.0514278e-06
7.0328629e-06
7.0192062e-06
7.0075651e-06
6.9955542e-06
6.9817802e-06
6.9658739e-06
6.9482595e-06
6.9296209e-06
6.9105037e-06
6.8911383e-06
6.8714928e-06
6.8514416e-06
6.8309301e-06
6.8100483e-06
6.7889874e-06
6.7679483e-06
6.7470628e-06
6.7263784e-06
6.7058987e-06
6.6856256e-06
6.6655707e-06
6.6457473e-06
6.6261634e-06
6.6068188e-06
6.5877076e-06
6.5688233e-06
6.5501632e-06
6.5317248e-06
6.5135019e-06
6.4954869e-06
6.4776755e-06
6.460067e-06
6.4426539e-06
6.4254292e-06
6.408387e-06
6.3915217e-06
6.3748291e-06
6.358306e-06
6.3419489e-06
6.3257542e-06
6.3097187e-06
6.2938383e-06
6.2781097e-06
6.2625292e-06
6.2470934e-06
6.2317988e-06
6.2166422e-06
6.2016204e-06
6.1867304e-06
6.1719692e-06
6.1573337e-06
6.142821e-06
6.1284285e-06
6.1141534e-06
6.0999929e-06
6.0859445e-06
6.0720057e-06
6.0581737e-06
6.0444462e-06
6.0308204e-06
6.0172937e-06
6.0038635e-06
5.990526e-06
5.9772795e-06
5.9641153e-06
5.9510385e-06
5.9380157e-06
5.9250951e-06
5.912118e-06
5.8993652e-06
5.8859288e-06
5.8746548e-06
5.8536262e-06
9.3794202e-06
2.6901922e-06
1.2664554e-06
9.4879301e-07
9.5815897e-07
1.0767508e-06
1.2384621e-06
1.4212961e-06
1.6125261e-06
1.8047019e-06
1.9971234e-06
2.1914805e-06
2.3891832e-06
2.5956861e-06
2.8218632e-06
3.0838197e-06
3.4095135e-06
3.8217701e-06
4.2907816e-06
4.8140401e-06
5.3957933e-06
6.0390835e-06
6.7420194e-06
7.5054718e-06
8.3132508e-06
9.1360084e-06
9.9396244e-06
1.068796e-05
1.1347581e-05
1.1903191e-05
1.2360495e-05
1.2738536e-05
1.3060701e-05
1.3345841e-05
1.3604062e-05
1.383699e-05
1.4042217e-05
1.4218368e-05
1.4367806e-05
1.449641e-05
1.4611104e-05
1.4717143e-05
1.4817387e-05
1.4912032e-05
1.5000608e-05
1.508319e-05
1.516052e-05
1.5233456e-05
1.5302511e-05
1.5367811e-05
1.542935e-05
1.5487229e-05
1.5541662e-05
1.5592843e-05
1.5640865e-05
1.5685795e-05
1.5727736e-05
1.5766819e-05
1.5803054e-05
1.5836699e-05
1.5867791e-05
1.5896392e-05
1.5922599e-05
1.5946525e-05
1.5968269e-05
1.5987922e-05
1.6005572e-05
1.6021298e-05
1.6035176e-05
1.6047281e-05
1.6057682e-05
1.6066452e-05
1.6073655e-05
1.607936e-05
1.6083629e-05
1.6086522e-05
1.6088099e-05
1.6088415e-05
1.6087527e-05
1.6085485e-05
1.6082341e-05
1.6078144e-05
1.6072939e-05
1.6066773e-05
1.6059688e-05
1.6051725e-05
1.6042926e-05
1.6033328e-05
1.6022968e-05
1.6011884e-05
1.6000106e-05
1.5987679e-05
1.5974609e-05
1.5960987e-05
1.5946701e-05
1.5932116e-05
1.5916576e-05
1.5901064e-05
1.5886815e-05
1.5856212e-05
7.8887271e-05
3.3202763e-05
1.6009055e-05
9.0057936e-06
5.7234614e-06
3.9636497e-06
2.9245499e-06
2.2694375e-06
1.8363237e-06
1.5396465e-06
1.3311859e-06
1.1821463e-06
1.07451e-06
9.9677288e-07
9.4175399e-07
9.049648e-07
8.8589901e-07
8.7969469e-07
9.1808569e-07
1.0114058e-06
1.1643589e-06
1.3829322e-06
1.6751197e-06
2.0292774e-06
2.4729997e-06
3.0452829e-06
3.8247387e-06
4.7859478e-06
5.8915912e-06
7.0996346e-06
8.3677654e-06
9.6434924e-06
1.086488e-05
1.1982922e-05
1.2970698e-05
1.3827321e-05
1.4572443e-05
1.523577e-05
1.5844628e-05
1.6416054e-05
1.6955254e-05
1.7460185e-05
1.7927309e-05
1.8357504e-05
1.8755739e-05
1.9128429e-05
1.948062e-05
1.981484e-05
2.013189e-05
2.0432339e-05
2.0717326e-05
2.0988344e-05
2.1246659e-05
2.1493074e-05
2.1728122e-05
2.1952338e-05
2.2166302e-05
2.2370558e-05
2.2565512e-05
2.2751338e-05
2.2928525e-05
2.3097512e-05
2.3258667e-05
2.3412317e-05
2.3558762e-05
2.3698282e-05
2.383114e-05
2.3957581e-05
2.4077834e-05
2.4192124e-05
2.4300662e-05
2.4403651e-05
2.450129e-05
2.4593769e-05
2.4681273e-05
2.4763978e-05
2.4842057e-05
2.4915675e-05
2.4984993e-05
2.5050167e-05
2.5111348e-05
2.5168682e-05
2.5222309e-05
2.5272367e-05
2.5318989e-05
2.5362301e-05
2.5402428e-05
2.5439492e-05
2.5473609e-05
2.5504897e-05
2.5533459e-05
2.5559424e-05
2.5582849e-05
2.5603969e-05
2.5622607e-05
2.5639538e-05
2.5653307e-05
2.5667731e-05
2.5675644e-05
2.5686667e-05
0.00016863428
0.0001141857
7.5008636e-05
5.1156829e-05
3.6674993e-05
2.7473986e-05
2.1330127e-05
1.7051129e-05
1.3967462e-05
1.1682369e-05
9.9490848e-06
8.6072404e-06
7.5485573e-06
6.6982988e-06
6.0025912e-06
5.4221263e-06
4.9266743e-06
4.4922991e-06
4.1012637e-06
3.7439523e-06
3.4006012e-06
3.0897414e-06
2.7859445e-06
2.4975985e-06
2.228374e-06
1.9917635e-06
1.8003661e-06
1.6751324e-06
1.7000628e-06
1.9081637e-06
2.2799243e-06
2.8280403e-06
3.5937104e-06
4.6594978e-06
5.9620589e-06
7.4048322e-06
8.9288503e-06
1.0458828e-05
1.1919193e-05
1.3260005e-05
1.4463901e-05
1.5543228e-05
1.6527571e-05
1.74475e-05
1.8322863e-05
1.9159673e-05
1.9955393e-05
2.0706821e-05
2.1414981e-05
2.2084918e-05
2.2722475e-05
2.3331576e-05
2.3913944e-05
2.4470507e-05
2.5002584e-05
2.5511932e-05
2.600017e-05
2.6468482e-05
2.6917776e-05
2.7348842e-05
2.7762545e-05
2.8159714e-05
2.8541078e-05
2.8907298e-05
2.9258994e-05
2.9596737e-05
2.9921056e-05
3.0232438e-05
3.0531343e-05
3.0818206e-05
3.109344e-05
3.1357435e-05
3.1610567e-05
3.1853195e-05
3.2085666e-05
3.2308312e-05
3.2521454e-05
3.27254e-05
3.2920452e-05
3.31069e-05
3.3285026e-05
3.3455104e-05
3.3617398e-05
3.3772165e-05
3.3919656e-05
3.4060114e-05
3.4193775e-05
3.4320871e-05
3.4441624e-05
3.4556259e-05
3.4664978e-05
3.4768018e-05
3.4865522e-05
3.4957847e-05
3.5044834e-05
3.5127596e-05
3.5203894e-05
3.5281053e-05
3.5338532e-05
3.5438523e-05
0.00020920925
0.00018082711
0.00014767806
0.0001185162
9.557691e-05
7.8123251e-05
6.4847338e-05
5.4631484e-05
4.6653462e-05
4.0330526e-05
3.5250265e-05
3.1117376e-05
2.7716077e-05
2.4884609e-05
2.2502164e-05
2.0476589e-05
1.8735552e-05
1.7221539e-05
1.5888275e-05
1.4696965e-05
1.361587e-05
1.2618463e-05
1.1680409e-05
1.078024e-05
9.8950895e-06
9.0161459e-06
8.1139334e-06
7.2120648e-06
6.2995483e-06
5.4285075e-06
4.6229076e-06
3.9086238e-06
3.3260615e-06
2.8868797e-06
2.6538034e-06
2.7368143e-06
3.0651458e-06
3.6629104e-06
4.5759731e-06
5.8457519e-06
7.3466838e-06
8.9886731e-06
1.0684983e-05
1.2345643e-05
1.3910005e-05
1.5353991e-05
1.6686164e-05
1.7932827e-05
1.9120135e-05
2.0262344e-05
2.1361246e-05
2.2413343e-05
2.3417275e-05
2.4376132e-05
2.5295051e-05
2.6178044e-05
2.7027135e-05
2.7843502e-05
2.8628623e-05
2.9384273e-05
3.0112061e-05
3.0813254e-05
3.1488953e-05
3.2140239e-05
3.2768145e-05
3.3373598e-05
3.3957432e-05
3.452043e-05
3.5063323e-05
3.5586795e-05
3.6091489e-05
3.6578011e-05
3.7046939e-05
3.7498821e-05
3.7934183e-05
3.8353528e-05
3.8757338e-05
3.9146081e-05
3.9520207e-05
3.9880153e-05
4.0226344e-05
4.0559189e-05
4.0879089e-05
4.1186431e-05
4.1481595e-05
4.176495e-05
4.2036855e-05
4.2297663e-05
4.2547717e-05
4.2787357e-05
4.3016904e-05
4.3236706e-05
4.3447012e-05
4.3648307e-05
4.3840469e-05
4.4024966e-05
4.4198587e-05
4.437333e-05
4.4509154e-05
4.4748836e-05
0.00022266952
0.00021192333
0.00019435362
0.00017361673
0.00015305195
0.00013440097
0.00011819351
0.00010436577
9.2638994e-05
8.2692493e-05
7.4229878e-05
6.6996672e-05
6.0783769e-05
5.5418565e-05
5.0759691e-05
4.669154e-05
4.3118858e-05
3.9962579e-05
3.7156583e-05
3.4644055e-05
3.2377058e-05
3.0312732e-05
2.8413837e-05
2.6646223e-05
2.4979373e-05
2.3388512e-05
2.1843416e-05
2.0318145e-05
1.878589e-05
1.7239735e-05
1.5648798e-05
1.4059827e-05
1.2443945e-05
1.082872e-05
9.2476395e-06
7.7899082e-06
6.4890655e-06
5.3933764e-06
4.5497687e-06
3.9555744e-06
3.7647086e-06
3.9298628e-06
4.4443642e-06
5.3472734e-06
6.6625718e-06
8.2357531e-06
9.9823345e-06
1.1797525e-05
1.3591011e-05
1.5304927e-05
1.6920961e-05
1.8450505e-05
1.9915635e-05
2.1332149e-05
2.2703979e-05
2.4028202e-05
2.5302796e-05
2.6529772e-05
2.7713199e-05
2.8856266e-05
2.9960618e-05
3.1027444e-05
3.2058264e-05
3.3054756e-05
3.4018373e-05
3.4950317e-05
3.5851712e-05
3.6723649e-05
3.756714e-05
3.8383113e-05
3.9172436e-05
3.9935934e-05
4.0674382e-05
4.1388515e-05
4.2079035e-05
4.2746608e-05
4.3391877e-05
4.4015459e-05
4.461795e-05
4.5199926e-05
4.5761947e-05
4.6304555e-05
4.682828e-05
4.7333635e-05
4.7821123e-05
4.8291236e-05
4.8744454e-05
4.9181251e-05
4.9602085e-05
5.0007417e-05
5.0397678e-05
5.0773337e-05
5.1134747e-05
5.1482522e-05
5.1816578e-05
5.2138778e-05
5.24447e-05
5.2752271e-05
5.2995908e-05
5.3426698e-05
0.00022727843
0.0002237481
0.00021641765
0.00020548108
0.00019220435
0.0001780028
0.00016392633
0.00015058545
0.0001382656
0.00012705599
0.00011693939
0.0001078466
9.9687801e-05
9.2368085e-05
8.579541e-05
7.988439e-05
7.4557595e-05
6.9745621e-05
6.5386667e-05
6.1425282e-05
5.7812036e-05
5.4502123e-05
5.1454888e-05
4.8633033e-05
4.6001717e-05
4.3529275e-05
4.1184741e-05
3.8936946e-05
3.6754406e-05
3.4609254e-05
3.2473767e-05
3.0331818e-05
2.8167737e-05
2.5972472e-05
2.3708695e-05
2.1442806e-05
1.9128848e-05
1.6820365e-05
1.4569933e-05
1.2407694e-05
1.0420894e-05
8.6604101e-06
7.1822453e-06
6.0462596e-06
5.2494508e-06
4.9859646e-06
5.1365738e-06
5.7294374e-06
6.8198524e-06
8.2850995e-06
1.0011885e-05
1.1894798e-05
1.3827501e-05
1.5730463e-05
1.7565284e-05
1.9329167e-05
2.1036044e-05
2.2697504e-05
2.4315422e-05
2.5886273e-05
2.740804e-05
2.8882296e-05
3.0311877e-05
3.1698714e-05
3.3043873e-05
3.4348458e-05
3.5613852e-05
3.68414e-05
3.8032248e-05
3.9187459e-05
4.0308073e-05
4.139508e-05
4.2449405e-05
4.3471924e-05
4.4463476e-05
4.5424862e-05
4.635685e-05
4.7260179e-05
4.8135564e-05
4.8983696e-05
4.9805247e-05
5.0600869e-05
5.1371197e-05
5.2116854e-05
5.2838448e-05
5.3536576e-05
5.4211823e-05
5.4864766e-05
5.5495972e-05
5.6106003e-05
5.6695396e-05
5.7264725e-05
5.7814444e-05
5.8345286e-05
5.8857196e-05
5.935247e-05
5.9825238e-05
6.0300529e-05
6.0681651e-05
6.1354703e-05
0.0002293422
0.00022823322
0.00022556288
0.00022077184
0.00021384507
0.00020521377
0.00019548579
0.00018523181
0.00017489236
0.00016476898
0.00015504958
0.00014583957
0.00013718874
0.00012911075
0.00012159668
0.0001146241
0.00010816304
0.00010217971
9.663897e-05
9.1505494e-05
8.6744735e-05
8.2323238e-05
7.8208783e-05
7.4370448e-05
7.0778344e-05
6.7403719e-05
6.4218723e-05
6.119568e-05
5.8306655e-05
5.5523994e-05
5.2820626e-05
5.0173659e-05
4.7548858e-05
4.4919653e-05
4.2259326e-05
3.9566631e-05
3.68225e-05
3.4022129e-05
3.1162659e-05
2.8287408e-05
2.5379768e-05
2.2485372e-05
1.9640089e-05
1.6906543e-05
1.4319281e-05
1.1999431e-05
9.9750637e-06
8.3397859e-06
7.1020378e-06
6.4255724e-06
6.2877196e-06
6.6671208e-06
7.6126688e-06
9.0066473e-06
1.0731613e-05
1.2673885e-05
1.4716801e-05
1.6769259e-05
1.8783249e-05
2.074837e-05
2.2670915e-05
2.4555239e-05
2.6398656e-05
2.8196582e-05
2.9947385e-05
3.1652122e-05
3.3312122e-05
3.4928072e-05
3.6500574e-05
3.8030537e-05
3.9518975e-05
4.0966811e-05
4.2374923e-05
4.3744199e-05
4.5075506e-05
4.636968e-05
4.7627531e-05
4.8849852e-05
5.0037415e-05
5.1190968e-05
5.2311246e-05
5.3398966e-05
5.4454831e-05
5.5479531e-05
5.6473746e-05
5.7438146e-05
5.8373392e-05
5.9280139e-05
6.0159031e-05
6.1010711e-05
6.1835801e-05
6.2634958e-05
6.340872e-05
6.4157921e-05
6.4882518e-05
6.5585267e-05
6.625864e-05
6.6935795e-05
6.7483897e-05
6.8449658e-05
0.00023085119
0.00023044816
0.00022950775
0.00022762645
0.00022450336
0.00022005006
0.00021438363
0.00020774784
0.00020042741
0.00019269015
0.00018476016
0.00017681148
0.0001689724
0.00016133324
0.00015395462
0.00014687465
0.00014011479
0.00013368432
0.00012758381
0.0001218075
0.00011634517
0.00011118345
0.00010630668
0.00010169763
9.7337863e-05
9.3208004e-05
8.9288075e-05
8.5557465e-05
8.1994785e-05
7.8577921e-05
7.5284197e-05
7.2092382e-05
6.8977361e-05
6.5913452e-05
6.2874852e-05
5.9842645e-05
5.6797975e-05
5.3725835e-05
5.0604193e-05
4.7422346e-05
4.4174726e-05
4.0865253e-05
3.7498258e-05
3.4092185e-05
3.0668855e-05
2.727783e-05
2.3941633e-05
2.0727774e-05
1.7667791e-05
1.4878227e-05
1.2427924e-05
1.0412481e-05
8.8585695e-06
7.9407779e-06
7.6387606e-06
7.93899e-06
8.8707682e-06
1.0281651e-05
1.2073697e-05
1.4115812e-05
1.6281203e-05
1.8477317e-05
2.0658193e-05
2.2811852e-05
2.4937363e-05
2.7030924e-05
2.9085925e-05
3.1097762e-05
3.3065075e-05
3.4987783e-05
3.6865719e-05
3.8698781e-05
4.0487251e-05
4.2231633e-05
4.3932472e-05
4.5590356e-05
4.7205929e-05
4.877986e-05
5.031283e-05
5.1805527e-05
5.3258641e-05
5.4672867e-05
5.6048896e-05
5.738742e-05
5.8689127e-05
5.9954707e-05
6.1184847e-05
6.2380233e-05
6.3541548e-05
6.4669478e-05
6.5764692e-05
6.6827901e-05
6.7859696e-05
6.8860988e-05
6.9831719e-05
7.0775115e-05
7.1681808e-05
7.2593966e-05
7.3338062e-05
7.4645966e-05
0.00023237454
0.00023214958
0.00023175941
0.00023101988
0.0002297133
0.00022765671
0.00022475246
0.00022100062
0.00021647983
0.00021131554
0.0002056509
0.00019962647
0.00019336888
0.00018698614
0.00018056686
0.00017418165
0.0001678853
0.00016171931
0.00015571412
0.00014989116
0.00014426453
0.00013884241
0.00013362815
0.00012862119
0.00012381775
0.0001192113
0.00011479308
0.00011055248
0.00010647713
0.00010255314
9.8765183e-05
9.5097512e-05
9.1532605e-05
8.8051153e-05
8.4632397e-05
8.1256641e-05
7.7904756e-05
7.455947e-05
7.1201761e-05
6.7813395e-05
6.4379672e-05
6.0891545e-05
5.7343069e-05
5.3737698e-05
5.0050835e-05
4.6290262e-05
4.2485507e-05
3.8636139e-05
3.4768301e-05
3.0940173e-05
2.7180854e-05
2.3563704e-05
2.0128944e-05
1.7002482e-05
1.4267387e-05
1.2022896e-05
1.0314245e-05
9.3666609e-06
9.0680808e-06
9.4741464e-06
1.052057e-05
1.2079211e-05
1.4029184e-05
1.622491e-05
1.8539249e-05
2.089167e-05
2.3246429e-05
2.5590724e-05
2.7915685e-05
3.0211551e-05
3.2470705e-05
3.4689144e-05
3.6864875e-05
3.8996452e-05
4.1082849e-05
4.3123588e-05
4.5118547e-05
4.7067786e-05
4.8971512e-05
5.0830055e-05
5.2643828e-05
5.4413301e-05
5.6138994e-05
5.7821465e-05
5.9461297e-05
6.10591e-05
6.26155e-05
6.4131141e-05
6.5606674e-05
6.7042772e-05
6.8440097e-05
6.9799362e-05
7.1121172e-05
7.240647e-05
7.3655153e-05
7.4870903e-05
7.6042361e-05
7.7221448e-05
7.8189801e-05
7.988801e-05
0.00023405602
0.00023386667
0.00023362727
0.00023327264
0.0002326985
0.00023177979
0.00023039939
0.00022847349
0.00022596406
0.00022287785
0.00021925683
0.00021516573
0.00021068064
0.00020588036
0.00020084066
0.00019563094
0.00019031271
0.00018493907
0.00017955498
0.00017419778
0.00016889787
0.00016367953
0.00015856159
0.00015355812
0.000148679
0.0001439304
0.00013931524
0.00013483365
0.00013048321
0.00012625928
0.00012215514
0.00011816255
0.00011427157
0.00011047036
0.00010674513
0.00010308099
9.9462373e-05
9.5873831e-05
9.2299332e-05
8.8722139e-05
8.5126017e-05
8.149713e-05
7.7823291e-05
7.4098915e-05
7.0308387e-05
6.644273e-05
6.2505568e-05
5.8497582e-05
5.4414402e-05
5.0271664e-05
4.605036e-05
4.1802253e-05
3.754753e-05
3.3337878e-05
2.9228512e-05
2.5294533e-05
2.1587792e-05
1.8265327e-05
1.5407876e-05
1.3094296e-05
1.1497725e-05
1.0675317e-05
1.0610793e-05
1.1299934e-05
1.2614876e-05
1.4445896e-05
1.663483e-05
1.9029847e-05
2.1523113e-05
2.4056621e-05
2.6603269e-05
2.9146261e-05
3.1671275e-05
3.4167434e-05
3.6628044e-05
3.9048991e-05
4.1427315e-05
4.3760916e-05
4.6048455e-05
4.8289103e-05
5.0482366e-05
5.2628016e-05
5.4726025e-05
5.6776516e-05
5.8779726e-05
6.0735985e-05
6.2645694e-05
6.4509314e-05
6.6327352e-05
6.8100358e-05
6.9828904e-05
7.1513627e-05
7.315508e-05
7.4754174e-05
7.6310711e-05
7.7828799e-05
7.9294943e-05
8.077145e-05
8.1991308e-05
8.4126436e-05
0.00023592684
0.00023573992
0.00023553427
0.00023529175
0.00023497315
0.00023451798
0.00023385162
0.00023289792
0.00023159199
0.00022988915
0.00022776841
0.0002252313
0.00022229779
0.00021900114
0.00021538289
0.00021148869
0.00020736511
0.00020305749
0.00019860848
0.00019405718
0.00018943868
0.00018478397
0.0001801199
0.00017546935
0.00017085144
0.00016628167
0.00016177227
0.00015733243
0.00015296853
0.00014868443
0.0001444816
0.00014035948
0.00013631555
0.00013234532
0.00012844225
0.00012459791
0.00012080238
0.00011704467
0.00011331285
0.00010959397
0.00010587432
0.00010214047
9.8379282e-05
9.458085e-05
9.07328e-05
8.6822964e-05
8.2843973e-05
7.879077e-05
7.4657828e-05
7.0445301e-05
6.6142238e-05
6.1747463e-05
5.7296502e-05
5.2765712e-05
4.8177328e-05
4.3568891e-05
3.8966438e-05
3.4439051e-05
3.0065162e-05
2.5899025e-05
2.2064956e-05
1.8693973e-05
1.5882258e-05
1.377095e-05
1.2514008e-05
1.2069456e-05
1.2459156e-05
1.3575154e-05
1.5312246e-05
1.7499917e-05
1.9968829e-05
2.2592114e-05
2.5294463e-05
2.8035488e-05
3.0789648e-05
3.3537395e-05
3.6264499e-05
3.8961642e-05
4.1622576e-05
4.4242783e-05
4.6819039e-05
4.9349116e-05
5.1831468e-05
5.4265037e-05
5.6649147e-05
5.8983404e-05
6.1267632e-05
6.3501826e-05
6.5686115e-05
6.7820743e-05
6.9906028e-05
7.1942398e-05
7.3930243e-05
7.5870341e-05
7.776232e-05
7.9610649e-05
8.1399557e-05
8.320227e-05
8.4699566e-05
8.7316349e-05
0.00023799275
0.00023780221
0.00023760067
0.00023738523
0.00023714396
0.00023685341
0.00023647788
0.00023597199
0.00023528613
0.00023437279
0.0002331922
0.00023171599
0.00022992867
0.00022782722
0.00022541939
0.00022272148
0.00021975602
0.00021654959
0.00021313103
0.00020952998
0.0002057758
0.00020189673
0.00019791933
0.00019386811
0.00018976526
0.00018563053
0.00018148115
0.00017733188
0.00017319506
0.00016908072
0.00016499669
0.00016094872
0.0001569406
0.0001529742
0.0001490494
0.00014516407
0.00014131425
0.00013749437
0.00013369744
0.00012991516
0.00012613792
0.00012235537
0.00011855644
0.00011473101
0.00011086838
0.00010695719
0.00010298732
9.8950176e-05
9.4837883e-05
9.0644962e-05
8.6362595e-05
8.1982512e-05
7.7513462e-05
7.2948092e-05
6.8278833e-05
6.352872e-05
5.8698796e-05
5.3813851e-05
4.8884089e-05
4.3941242e-05
3.9043478e-05
3.4271468e-05
2.9709034e-05
2.5456213e-05
2.1674756e-05
1.8462356e-05
1.5973582e-05
1.4384723e-05
1.3673742e-05
1.3859433e-05
1.4862355e-05
1.6568278e-05
1.8793393e-05
2.1356503e-05
2.4119114e-05
2.6994409e-05
2.9931524e-05
3.289706e-05
3.586661e-05
3.8822926e-05
4.1754338e-05
4.4652673e-05
4.7512006e-05
5.0328069e-05
5.3097796e-05
5.5818969e-05
5.8490005e-05
6.1109796e-05
6.3677598e-05
6.6192954e-05
6.8655618e-05
7.1065555e-05
7.3422783e-05
7.5727772e-05
7.797984e-05
8.01837e-05
8.2321134e-05
8.4476738e-05
8.6275706e-05
8.9416564e-05
0.00024025516
0.00024006065
0.00023985703
0.00023964567
0.00023942387
0.00023918414
0.0002389125
0.0002385877
0.00023818192
0.00023766293
0.00023699715
0.00023615292
0.00023510326
0.0002338277
0.00023231319
0.00023055401
0.00022855124
0.00022631178
0.00022384719
0.00022117256
0.0002183055
0.00021526512
0.0002120713
0.00020874401
0.00020530279
0.00020176632
0.00019815211
0.00019447631
0.0001907535
0.00018699671
0.00018321728
0.00017942495
0.00017562779
0.00017183226
0.00016804307
0.00016426318
0.00016049376
0.00015673428
0.0001529826
0.0001492351
0.00014548667
0.00014173093
0.00013796032
0.00013416686
0.00013034205
0.00012647662
0.00012256112
0.0001185865
0.00011454407
0.0001104263
0.00010622479
0.00010192984
9.7538562e-05
9.3045702e-05
8.8443422e-05
8.3733616e-05
7.8913374e-05
7.3989983e-05
6.8964927e-05
6.3844521e-05
5.8658098e-05
5.3429585e-05
4.8172266e-05
4.2940623e-05
3.7825201e-05
3.2913775e-05
2.8317645e-05
2.4211537e-05
2.0693787e-05
1.7962883e-05
1.6159602e-05
1.5308091e-05
1.5409762e-05
1.6412765e-05
1.8174795e-05
2.0498443e-05
2.3195365e-05
2.6122096e-05
2.918591e-05
3.2328985e-05
3.551208e-05
3.8707159e-05
4.1894674e-05
4.5061066e-05
4.8196626e-05
5.129429e-05
5.434891e-05
5.7356704e-05
6.0314883e-05
6.3221406e-05
6.6074787e-05
6.8873997e-05
7.1618272e-05
7.4307443e-05
7.694025e-05
7.9521444e-05
8.2030113e-05
8.4562582e-05
8.6685209e-05
9.0389604e-05
0.00024271535
0.00024251737
0.00024231085
0.00024209829
0.00024187959
0.00024165282
0.00024141342
0.00024115309
0.00024085917
0.00024051453
0.00024009833
0.00023958745
0.00023895819
0.00023818809
0.00023725739
0.00023615016
0.00023485484
0.00023336448
0.00023167658
0.0002297927
0.00022771787
0.00022546008
0.00022302955
0.00022043823
0.00021769916
0.00021482606
0.00021183283
0.00020873323
0.0002055406
0.00020226765
0.00019892624
0.00019552734
0.00019208083
0.00018859552
0.00018507893
0.00018153729
0.00017797536
0.00017439643
0.00017080232
0.0001671934
0.00016356859
0.00015992543
0.00015626008
0.00015256769
0.00014884254
0.00014507802
0.0001412668
0.00013740114
0.00013347312
0.00012947514
0.00012539935
0.00012123669
0.00011698033
0.00011262382
0.00010815911
0.00010358129
9.8884517e-05
9.4068919e-05
8.9131389e-05
8.40554e-05
7.8883473e-05
7.3591229e-05
6.8193959e-05
6.2708723e-05
5.717511e-05
5.162197e-05
4.6084102e-05
4.0666017e-05
3.5446836e-05
3.0578655e-05
2.622703e-05
2.2509126e-05
1.967151e-05
1.7787254e-05
1.6926266e-05
1.7088448e-05
1.8214668e-05
2.0128694e-05
2.2621286e-05
2.5501182e-05
2.8625651e-05
3.19008e-05
3.5265222e-05
3.8676326e-05
4.2104082e-05
4.5527539e-05
4.8931865e-05
5.2306313e-05
5.5643021e-05
5.8936189e-05
6.2181496e-05
6.5375735e-05
6.8516462e-05
7.1602177e-05
7.4630513e-05
7.7605848e-05
8.050417e-05
8.3433754e-05
8.5898953e-05
9.0202382e-05
0.00024537487
0.00024517389
0.00024496468
0.00024475001
0.0002445304
0.00024430556
0.00024407425
0.00024383375
0.00024357919
0.000243303
0.00024299461
0.00024264068
0.00024222556
0.00024173225
0.00024114332
0.00024044201
0.00023961308
0.00023864355
0.00023752313
0.00023624447
0.00023480323
0.00023319789
0.00023142959
0.00022950173
0.00022741967
0.00022519036
0.00022282191
0.00022032332
0.00021770409
0.00021497403
0.00021214298
0.00020922062
0.00020621631
0.00020313892
0.0001999967
0.0001967971
0.00019354664
0.00019025081
0.00018691398
0.00018353932
0.00018012878
0.00017668305
0.00017320155
0.00016968247
0.00016612301
0.0001625193
0.00015886656
0.00015515921
0.00015139106
0.00014755564
0.00014364617
0.00013965493
0.00013557457
0.00013139807
0.00012711763
0.0001227263
0.00011821675
0.00011358401
0.00010882364
0.00010392344
9.8893221e-05
9.3724786e-05
8.8416048e-05
8.2971972e-05
7.7400364e-05
7.1726209e-05
6.5951806e-05
6.0118892e-05
5.4277008e-05
4.8453164e-05
4.2759058e-05
3.7283669e-05
3.2216866e-05
2.7702209e-05
2.3917e-05
2.1087494e-05
1.9268496e-05
1.8544214e-05
1.8927607e-05
2.0300121e-05
2.2461628e-05
2.5193618e-05
2.8307322e-05
3.1665888e-05
3.517791e-05
3.8781427e-05
4.2433073e-05
4.6102432e-05
4.9768066e-05
5.341456e-05
5.7030665e-05
6.0608088e-05
6.4140605e-05
6.7623842e-05
7.1053164e-05
7.4431724e-05
7.7731651e-05
8.1073141e-05
8.3895382e-05
8.8827726e-05
0.00024823548
0.00024803188
0.00024782023
0.00024760346
0.00024738218
0.00024715647
0.00024692609
0.00024669031
0.00024644754
0.00024619494
0.00024592795
0.0002456401
0.00024532289
0.00024496594
0.00024455734
0.00024408423
0.00024353335
0.00024289171
0.00024214715
0.00024128881
0.00024030754
0.00023919609
0.00023794921
0.00023656368
0.00023503821
0.0002333733
0.00023157103
0.00022963483
0.00022756928
0.00022537986
0.00022307277
0.00022065468
0.0002181326
0.00021551366
0.00021280496
0.00021001338
0.00020714545
0.00020420716
0.00020120385
0.00019814006
0.00019501951
0.00019184493
0.000188618
0.00018533936
0.00018200862
0.00017862439
0.00017518428
0.00017168501
0.00016812244
0.00016449182
0.00016078786
0.00015700451
0.00015313528
0.00014917362
0.00014511243
0.00014094457
0.00013666257
0.00013225958
0.00012772969
0.00012306281
0.00011825694
0.00011330602
0.00010820561
0.00010295089
9.7527331e-05
9.1978169e-05
8.6265922e-05
8.0415458e-05
7.4451728e-05
6.8383285e-05
6.2254042e-05
5.6113911e-05
5.0033823e-05
4.4097107e-05
3.8432492e-05
3.3237132e-05
2.8662449e-05
2.4959438e-05
2.224713e-05
2.0653542e-05
2.0254803e-05
2.1006207e-05
2.2740846e-05
2.5236168e-05
2.8270302e-05
3.1663975e-05
3.5290466e-05
3.9063548e-05
4.2923441e-05
4.6828213e-05
5.074835e-05
5.4662766e-05
5.8556113e-05
6.2417387e-05
6.6236996e-05
7.0014944e-05
7.3717936e-05
7.7477527e-05
8.0664464e-05
8.6247156e-05
0.00025129908
0.00025109312
0.00025087926
0.00025066052
0.00025043751
0.00025021036
0.00024997905
0.00024974347
0.00024950319
0.00024925729
0.0002490041
0.00024874091
0.00024846375
0.00024816725
0.00024784462
0.00024748773
0.00024708736
0.00024663353
0.00024611587
0.00024552403
0.00024484806
0.00024407878
0.00024320803
0.00024222887
0.00024113573
0.00023992446
0.00023859229
0.00023713786
0.00023556103
0.00023386283
0.00023204532
0.00023011144
0.00022806486
0.00022590985
0.00022365114
0.0002212937
0.00021884265
0.00021630306
0.00021367983
0.00021097753
0.00020820028
0.00020535164
0.00020243445
0.0001994508
0.00019640194
0.00019328829
0.00019010936
0.0001868638
0.00018354942
0.00018016325
0.00017670166
0.00017316024
0.00016953396
0.00016581733
0.0001620043
0.00015808848
0.00015406296
0.00014992073
0.00014565526
0.00014125788
0.00013672251
0.00013204242
0.00012721099
0.00012222179
0.00011706257
0.0001117441
0.00010625227
0.00010058647
9.4757202e-05
8.8765591e-05
8.2624912e-05
7.6356482e-05
6.9992437e-05
6.3570769e-05
5.7151757e-05
5.0835664e-05
4.4699169e-05
3.8928193e-05
3.3684253e-05
2.9205552e-05
2.5685075e-05
2.3269502e-05
2.2098403e-05
2.2196855e-05
2.3446211e-05
2.5638998e-05
2.8535896e-05
3.1921565e-05
3.5632615e-05
3.9554903e-05
4.3609372e-05
4.7740673e-05
5.1909836e-05
5.6089438e-05
6.0258157e-05
6.4408215e-05
6.8497376e-05
7.2666717e-05
7.6214844e-05
8.2455803e-05
0.00025456761
0.0002543595
0.00025414359
0.00025392301
0.00025369834
0.00025346968
0.00025323707
0.0002530005
0.0002527599
0.00025251504
0.0002522654
0.00025200999
0.0002517472
0.00025147461
0.00025118885
0.00025088552
0.00025055918
0.00025020339
0.00024981088
0.00024937375
0.0002488837
0.00024833231
0.00024771132
0.00024701284
0.0002462296
0.0002453551
0.00024438374
0.00024331089
0.00024213298
0.00024084742
0.00023945265
0.00023794808
0.00023633399
0.00023461147
0.00023278233
0.00023084897
0.00022881424
0.00022668136
0.00022445374
0.00022213488
0.00021972821
0.00021723699
0.00021466416
0.00021201221
0.00020928312
0.00020647829
0.00020359841
0.00020064348
0.00019761277
0.00019450481
0.00019131744
0.00018804777
0.00018469223
0.00018124663
0.00017770618
0.00017406553
0.0001703188
0.00016645962
0.00016248163
0.00015837727
0.00015413953
0.00014976121
0.00014523491
0.0001405534
0.00013570563
0.00013069015
0.00012549843
0.0001201236
0.00011456314
0.00010881356
0.00010287747
9.6758732e-05
9.0468607e-05
8.4022065e-05
7.7442711e-05
7.0779017e-05
6.4069641e-05
5.7403999e-05
5.0882555e-05
4.4623985e-05
3.8813651e-05
3.366375e-05
2.9413805e-05
2.6244475e-05
2.4344362e-05
2.3796354e-05
2.45376e-05
2.6389112e-05
2.9108258e-05
3.2452672e-05
3.6224458e-05
4.0279926e-05
4.4518555e-05
4.8870312e-05
5.3284281e-05
5.7732962e-05
6.2156659e-05
6.6700862e-05
7.0587108e-05
7.7471183e-05
0.00025804311
0.00025783299
0.00025761517
0.00025739283
0.00025716655
0.00025693642
0.00025670245
0.00025646464
0.000256223
0.0002559775
0.00025572801
0.00025547421
0.00025521555
0.00025495104
0.00025467923
0.00025439801
0.00025410457
0.00025379531
0.00025346583
0.00025311097
0.0002527249
0.00025230125
0.00025183325
0.00025131396
0.00025073637
0.00025009368
0.00024937938
0.00024858744
0.00024771241
0.00024674953
0.00024569474
0.0002445448
0.00024329723
0.00024195035
0.00024050321
0.00023895557
0.00023730783
0.00023556092
0.00023371625
0.00023177556
0.00022974087
0.00022761431
0.00022539804
0.0002230941
0.00022070433
0.00021823025
0.00021567299
0.00021303319
0.00021031096
0.00020750581
0.00020461667
0.00020164182
0.00019857892
0.000195425
0.00019217646
0.00018882911
0.00018537816
0.00018181824
0.00017814365
0.00017434789
0.00017042421
0.00016636561
0.00016216469
0.00015781405
0.00015330392
0.00014862803
0.00014377837
0.00013874628
0.00013352468
0.0001281078
0.00012248879
0.00011666373
0.00011063474
0.00010440322
9.7974151e-05
9.1366925e-05
8.4598232e-05
7.7706097e-05
7.0744048e-05
6.3772009e-05
5.6886809e-05
5.0222429e-05
4.3924827e-05
3.8202641e-05
3.3298676e-05
2.9448282e-05
2.6878023e-05
2.5717045e-05
2.5957457e-05
2.7455966e-05
2.997709e-05
3.3260434e-05
3.7077861e-05
4.1256878e-05
4.5672856e-05
5.02479e-05
5.4883322e-05
5.9715159e-05
6.387966e-05
7.1349559e-05
0.00026172767
0.00026151565
0.00026129599
0.00026107195
0.00026084411
0.00026061254
0.00026037721
0.00026013812
0.00025989528
0.0002596487
0.00025939835
0.00025914415
0.00025888593
0.00025862335
0.00025835582
0.00025808246
0.00025780197
0.00025751254
0.00025721184
0.0002568969
0.00025656414
0.00025620937
0.00025582784
0.00025541432
0.00025496322
0.00025446869
0.00025392476
0.00025332546
0.000252665
0.00025193781
0.0002511387
0.00025026294
0.00024930634
0.00024826525
0.00024713667
0.00024591819
0.00024460802
0.00024320496
0.00024170835
0.000240118
0.00023843418
0.00023665746
0.00023478868
0.00023282883
0.00023077894
0.00022864
0.00022641288
0.00022409819
0.00022169623
0.00021920695
0.00021662984
0.00021396391
0.00021120765
0.00020835902
0.00020541541
0.00020237362
0.00019922991
0.00019597991
0.00019261879
0.00018914107
0.00018554074
0.00018181141
0.00017794616
0.00017393788
0.00016977796
0.00016545869
0.0001609719
0.00015630863
0.00015146004
0.00014641798
0.00014117355
0.00013571977
0.00013004923
0.00012415727
0.00011804163
0.00011170504
0.00010515042
9.839023e-05
9.1447663e-05
8.4350679e-05
7.7143518e-05
6.9896467e-05
6.2689925e-05
5.5641821e-05
4.8912292e-05
4.2690238e-05
3.7217814e-05
3.2767134e-05
2.9592836e-05
2.7869815e-05
2.7640388e-05
2.879856e-05
3.1122082e-05
3.4340253e-05
3.8197848e-05
4.2504286e-05
4.7072594e-05
5.1993584e-05
5.6302301e-05
6.4217904e-05
0.00026562341
0.00026540956
0.00026518813
0.00026496242
0.00026473304
0.00026450003
0.00026426335
0.00026402298
0.00026377891
0.00026353114