/*--------------------------------*- C++ -*----------------------------------*\
  =========                 |
  \\      /  F ield         | OpenFOAM: The Open Source CFD Toolbox
   \\    /   O peration     | Website:  https://openfoam.org
    \\  /    A nd           | Version:  12
     \\/     M anipulation  |
\*---------------------------------------------------------------------------*/
FoamFile
{
    format      ascii;
    class       volScalarField;
    location    "1400";
    object      p;
}
// * * * * * * * * * * * * * * * * * * * * * * * * * * * * * * * * * * * * * //

dimensions      [0 2 -2 0 0 0 0];

internalField   nonuniform List<scalar> 
7480
(
0.0087632759
0.0080243725
0.0069027178
0.0063272192
0.0060161432
0.0057328939
0.0054656336
0.0052375403
0.0050390845
0.0048600173
0.004693718
0.004538029
0.0043933014
0.0042543018
0.0041212975
0.0039927329
0.003868456
0.0037511503
0.0036418696
0.0035400786
0.0034464981
0.0033619364
0.0032871693
0.0032229938
0.0031697841
0.0031264759
0.0030929519
0.0030675511
0.0030459343
0.0030249895
0.0030021837
0.0029764187
0.0029476174
0.0029176507
0.0028873916
0.0028558276
0.0028229559
0.0027885949
0.0027529153
0.0027169237
0.0026808042
0.0026440941
0.0026070136
0.0025698369
0.0025330868
0.0024965892
0.0024598529
0.0024228904
0.0023862481
0.0023499536
0.0023134343
0.0022767102
0.0022401515
0.0022037563
0.0021670966
0.0021302296
0.0020933909
0.0020565011
0.0020192608
0.0019818589
0.0019443358
0.0019064741
0.0018683126
0.0018299246
0.0017911791
0.001752053
0.0017126137
0.0016727478
0.0016324539
0.0015917586
0.0015505649
0.0015088953
0.001466721
0.0014240188
0.0013807834
0.0013369652
0.0012925689
0.0012475699
0.0012019553
0.001155714
0.001108836
0.001061315
0.0010131489
0.00096434104
0.00091490316
0.0008648544
0.00081423446
0.00076308552
0.00071151793
0.00065958135
0.00060762948
0.00055550785
0.0005046669
0.00045323945
0.00040841421
0.00035737878
0.00033862586
0.00025772685
0.00055712038
-0.0004614302
0.0082834778
0.007620026
0.0067879662
0.0063266371
0.0060668307
0.0058156245
0.0055661872
0.0053436162
0.0051468312
0.0049643273
0.004792664
0.0046307008
0.0044798109
0.0043350165
0.0041968031
0.0040641316
0.0039365687
0.0038151218
0.0037011131
0.0035952004
0.0034977683
0.0034093169
0.0033305569
0.0032621521
0.0032041322
0.0031552465
0.0031157427
0.0030847076
0.0030583139
0.0030337687
0.0030087935
0.0029821953
0.0029535054
0.002924193
0.0028946837
0.0028635971
0.0028308681
0.0027964151
0.0027605494
0.0027243705
0.0026880726
0.0026511834
0.0026139185
0.0025765384
0.0025395691
0.0025028423
0.0024658753
0.0024286854
0.0023918193
0.0023553017
0.0023185602
0.00228162
0.0022448531
0.0022082566
0.002171401
0.0021343458
0.002097327
0.0020602639
0.0020228573
0.0019852971
0.0019476223
0.001909615
0.0018713147
0.0018327942
0.0017939221
0.0017546751
0.0017151204
0.0016751442
0.0016347451
0.0015939494
0.0015526599
0.0015108988
0.0014686373
0.001425852
0.0013825372
0.0013386433
0.0012941748
0.0012491069
0.0012034265
0.0011571224
0.0011101845
0.0010626063
0.0010143857
0.00096552578
0.00091603819
0.00086594199
0.00081527677
0.00076408461
0.00071247581
0.00066049991
0.00060851066
0.00055635331
0.00050547888
0.00045401903
0.00040916539
0.00035810116
0.00033930965
0.00025851441
0.00055796088
-0.00046077202
0.0080004199
0.0075284118
0.0068517515
0.0063755737
0.0060733626
0.005795215
0.0055283394
0.0052934581
0.005089179
0.0049031317
0.0047311936
0.0045718109
0.0044235009
0.0042836758
0.0041509543
0.0040244725
0.0039036866
0.0037888839
0.0036815412
0.0035827685
0.003492768
0.0034118549
0.0033405158
0.0032791589
0.0032277146
0.0031850832
0.0031496554
0.0031197044
0.0030927369
0.0030660131
0.0030376346
0.0030068338
0.0029733923
0.0029393754
0.0029059515
0.0028720698
0.0028376024
0.002802315
0.0027662743
0.0027303145
0.0026943041
0.0026575432
0.0026202186
0.0025826567
0.002545466
0.0025085126
0.0024713286
0.0024339383
0.0023968844
0.0023601811
0.0023232554
0.0022861406
0.0022492089
0.0022124531
0.0021754398
0.002138232
0.0021010669
0.0020638616
0.0020263158
0.0019886224
0.001950819
0.0019126869
0.0018742668
0.0018356313
0.0017966478
0.0017572937
0.0017176361
0.0016775606
0.0016370661
0.0015961788
0.001554801
0.0015129553
0.0014706124
0.001427749
0.0013843591
0.0013403933
0.0012958556
0.0012507214
0.0012049774
0.0011586123
0.0011116159
0.0010639816
0.0010157071
0.00096679552
0.0009172584
0.0008671147
0.00081640396
0.00076516815
0.00071351756
0.00066150159
0.0006094741
0.00055727999
0.00050637106
0.00045487723
0.00040999435
0.00035889679
0.00034008737
0.00025937553
0.00055884802
-0.0004601222
0.0077553169
0.0073643699
0.0067705947
0.0063184132
0.0060248349
0.0057661874
0.005519038
0.0053002267
0.0051077509
0.0049305904
0.0047647136
0.0046096354
0.0044621003
0.0043230731
0.0041897838
0.0040618884
0.0039390477
0.003821572
0.0037110069
0.0036084679
0.0035142119
0.0034286732
0.0033524968
0.0032863787
0.0032307349
0.0031851732
0.0031475662
0.0031163797
0.0030902173
0.0030660295
0.0030414377
0.0030151443
0.0029867407
0.0029563613
0.002924248
0.0028904529
0.0028548755
0.0028174819
0.002778703
0.0027400347
0.0027018804
0.0026637238
0.00262565
0.0025878407
0.0025507187
0.0025138991
0.0024767474
0.0024392721
0.0024020753
0.0023652013
0.0023280928
0.0022908053
0.0022537098
0.0022167912
0.0021796148
0.0021422516
0.0021049391
0.0020675912
0.0020299046
0.0019920765
0.0019541433
0.0019158849
0.0018773435
0.0018385912
0.0017994942
0.0017600307
0.001720268
0.0016800904
0.0016394976
0.0015985158
0.0015570466
0.001515113
0.0014726855
0.0014297407
0.0013862725
0.0013422313
0.0012976213
0.0012524174
0.0012066066
0.0011601772
0.0011131191
0.0010654256
0.0010170942
0.00096812807
0.00091853858
0.00086834463
0.00081758568
0.00076630364
0.00071460874
0.00066255025
0.00061048212
0.00055824892
0.00050730302
0.00045577295
0.00041085773
0.00035972386
0.0003408978
0.00026013196
0.00055972349
-0.00045953815
0.007531181
0.0071943188
0.0066893205
0.0062867572
0.0060075013
0.0057587183
0.0055167576
0.0052992714
0.0051051203
0.0049257643
0.0047576901
0.0046004718
0.0044517768
0.0043121588
0.0041789119
0.0040516464
0.0039300309
0.0038142803
0.0037056645
0.0036051324
0.0035129784
0.0034296271
0.0033555944
0.0032913829
0.0032372126
0.0031924584
0.0031549016
0.0031230476
0.0030954282
0.0030690722
0.0030419612
0.0030134074
0.0029837911
0.0029527584
0.0029207607
0.0028886558
0.0028558672
0.0028220036
0.0027869409
0.002750747
0.0027135231
0.002675389
0.0026364236
0.002597048
0.0025582474
0.0025200525
0.0024819892
0.0024440075
0.0024066531
0.0023698002
0.0023327009
0.0022953635
0.0022581774
0.0022211413
0.002183831
0.0021463373
0.0021088975
0.0020714202
0.0020336022
0.001995649
0.0019575941
0.0019192156
0.001880558
0.0018416932
0.0018024861
0.0017629156
0.0017230495
0.0016827708
0.0016420802
0.0016010037
0.0015594422
0.0015174197
0.0014749058
0.0014318775
0.0013883288
0.0013442095
0.0012995243
0.0012542478
0.0012083669
0.00116187
0.0011147468
0.0010669906
0.0010185989
0.00096957462
0.00091992922
0.00086968147
0.0008188708
0.00076753903
0.00071579632
0.0006636919
0.00061157968
0.00055930402
0.00050831759
0.00045674802
0.00041179605
0.00036062244
0.00034177228
0.00026091502
0.00056062856
-0.00045884928
0.0073316362
0.0070442451
0.0066145929
0.0062513746
0.0059802527
0.0057368846
0.0055019845
0.0052893851
0.0050985296
0.0049222646
0.0047571542
0.0046025874
0.0044564987
0.004318784
0.0041872859
0.0040615221
0.0039412383
0.0038266313
0.0037187917
0.0036186148
0.0035264956
0.0034429312
0.0033683942
0.0033033068
0.0032478453
0.0032014721
0.0031623235
0.0031289525
0.0030999381
0.0030726027
0.0030450364
0.0030164986
0.0029869152
0.0029556692
0.0029231931
0.0028901703
0.0028560741
0.0028209972
0.0027852356
0.0027486581
0.0027118094
0.0026752272
0.0026386604
0.0026019731
0.0025650372
0.0025276686
0.0024897965
0.002451289
0.0024129839
0.0023751942
0.0023373613
0.0022995306
0.0022621189
0.0022250303
0.0021876962
0.00215016
0.0021126571
0.0020750982
0.0020371862
0.0019991411
0.0019609915
0.0019225137
0.0018837578
0.0018447965
0.001805493
0.0017658277
0.0017258689
0.0016854984
0.0016447182
0.0016035541
0.0015619065
0.0015198001
0.0014772043
0.0014340961
0.0013904696
0.0013462746
0.0013015158
0.0012561678
0.0012102176
0.0011636534
0.0011164651
0.0010686458
0.0010201931
0.00097110981
0.00092140737
0.00087110455
0.00082024069
0.00076885759
0.00071706537
0.00066491318
0.0006127549
0.0005604348
0.00050940545
0.00045779426
0.00041280206
0.00036158608
0.00034270565
0.00026175736
0.00056154152
-0.00045800468
0.0071518729
0.0069083132
0.0065414046
0.0062116134
0.0059498582
0.0057136048
0.0054869955
0.0052800045
0.0050927345
0.0049192
0.0047563559
0.0046034742
0.0044587767
0.0043219481
0.004191325
0.0040663684
0.0039468965
0.0038331019
0.0037259384
0.0036262678
0.0035345188
0.0034511557
0.0033766213
0.0033113106
0.0032553357
0.0032082489
0.0031683972
0.0031342487
0.0031043772
0.0030763314
0.0030482328
0.0030192194
0.0029891333
0.00295752
0.0029248038
0.0028915911
0.0028574835
0.002822552
0.0027868569
0.0027501812
0.0027130491
0.0026759013
0.0026386741
0.0026014784
0.0025641284
0.0025269383
0.0024901712
0.0024535512
0.0024168957
0.0023800177
0.0023427363
0.0023048959
0.0022670511
0.0022294208
0.0021915954
0.0021536953
0.0021160063
0.002078382
0.0020404338
0.0020023527
0.001964155
0.0019256165
0.0018867973
0.00184777
0.001808395
0.001768656
0.0017286233
0.0016881772
0.0016473217
0.0016060828
0.0015643604
0.0015221802
0.0014795113
0.0014363311
0.0013926339
0.0013483691
0.001303542
0.001258127
0.0012121112
0.0011654831
0.0011182323
0.0010703521
0.0010218401
0.00097269912
0.00092294063
0.00087258338
0.00082166671
0.0007702324
0.00071839053
0.00066619024
0.00061398529
0.00056162002
0.00051054658
0.00045889273
0.00041385773
0.0003625976
0.00034368234
0.00026263906
0.00056242582
-0.00045699306
0.0069875447
0.0067808486
0.0064675652
0.0061692597
0.0059189865
0.005690694
0.0054719916
0.0052703064
0.0050863694
0.0049153745
0.004754612
0.0046033411
0.0044600564
0.0043243194
0.0041947742
0.0040708531
0.0039524095
0.0038396268
0.0037333365
0.0036343455
0.0035430924
0.0034600201
0.0033855577
0.0033200691
0.0032636389
0.003215831
0.0031751226
0.003140013
0.0031091026
0.0030801515
0.003051348
0.0030217828
0.0029912808
0.0029594413
0.0029265864
0.002893245
0.0028590695
0.0028240611
0.0027882586
0.002751534
0.0027143769
0.0026771995
0.0026399773
0.0026027288
0.0025652688
0.0025279003
0.0024907982
0.0024538903
0.0024167893
0.0023796304
0.0023428547
0.0023062267
0.0022695649
0.0022326898
0.0021954068
0.0021576521
0.0021197946
0.0020818685
0.0020436129
0.0020053045
0.0019669906
0.0019283986
0.0018895491
0.001850492
0.0018110796
0.0017712987
0.0017312211
0.0016907246
0.0016498156
0.001608521
0.0015667404
0.0015245013
0.0014817724
0.0014385319
0.0013947744
0.0013504491
0.0013055619
0.0012600873
0.0012140124
0.0011673259
0.0011200176
0.0010720808
0.0010235131
0.00097431767
0.00092450579
0.00087409633
0.00082312865
0.00077164456
0.00071975414
0.00066750654
0.00061525539
0.0005628452
0.00051172732
0.00046003063
0.00041495087
0.0003636455
0.00034469125
0.00026354478
0.00056325202
-0.00045579392
0.0068364493
0.0066602408
0.0063926392
0.0061240431
0.0058867154
0.0056670554
0.0054562186
0.0052599589
0.0050795131
0.0049111782
0.0047525947
0.0046030482
0.004461265
0.0043267286
0.0041983124
0.0040754651
0.0039580635
0.003846286
0.0037408602
0.0036425356
0.0035517583
0.0034689593
0.0033945514
0.0033288664
0.0032719629
0.0032234121
0.0031818242
0.003145759
0.0031138517
0.0030840174
0.0030545138
0.0030244285
0.002993539
0.002961451
0.0029284082
0.0028948811
0.002860561
0.0028254282
0.0027895419
0.0027528088
0.002715659
0.0026784828
0.0026412591
0.0026039888
0.0025665345
0.0025291518
0.0024919987
0.0024549818
0.0024177567
0.0023805185
0.0023436012
0.0023068171
0.0022698018
0.0022326386
0.0021956762
0.0021587434
0.0021216856
0.0020843218
0.0020464896
0.0020083264
0.0019699524
0.0019311842
0.0018921487
0.0018529659
0.0018134885
0.0017736764
0.0017335774
0.0016930571
0.0016521216
0.0016107974
0.0015689821
0.0015267049
0.0014839343
0.0014406497
0.0013968462
0.0013524732
0.0013075375
0.0012620133
0.0012158885
0.0011691518
0.0011217932
0.0010738062
0.0010251886
0.00097594362
0.0009260827
0.00087562479
0.00082460935
0.00077307826
0.00072114159
0.00066884861
0.00061655272
0.0005640988
0.000512937
0.00046119805
0.00041607215
0.00036472109
0.00034572391
0.00026446561
0.00056399311
-0.00045437844
0.0066970495
0.0065458751
0.0063167805
0.0060756697
0.0058522169
0.0056419247
0.0054392291
0.0052487419
0.0050721081
0.0049066461
0.0047503803
0.0046026609
0.0044624286
0.0043291429
0.0042018709
0.0040801025
0.0039637343
0.0038529421
0.0037483663
0.0036507018
0.0035603974
0.0034778726
0.0034035208
0.0033376443
0.0032802788
0.003231007
0.0031885631
0.003151567
0.0031186866
0.0030879771
0.0030577735
0.0030271613
0.0029958652
0.0029635045
0.0029302565
0.0028965318
0.0028620649
0.0028268231
0.0027908669
0.0027541166
0.0027169545
0.0026797499
0.0026424881
0.0026051781
0.0025677112
0.0025303124
0.0024931359
0.0024560924
0.0024188786
0.002381651
0.0023446846
0.0023077828
0.0022706481
0.0022334297
0.0021964004
0.0021593462
0.0021220022
0.0020844822
0.0020470034
0.0020094003
0.0019715264
0.0019332061
0.0018944671
0.0018553924
0.0018158646
0.0017759393
0.0017357393
0.0016951574
0.001654193
0.0016128527
0.0015710224
0.0015287296
0.0014859399
0.0014426322
0.0013988017
0.001354398
0.0013094287
0.0012638685
0.0012177058
0.0011709296
0.0011235304
0.0010755019
0.0010268421
0.00097755444
0.00092765061
0.00087714968
0.00082609125
0.00077451733
0.00072253803
0.00067020278
0.00061786471
0.00056536926
0.00051416493
0.00046238513
0.00041721236
0.00036581579
0.00034677207
0.00026539326
0.00056462159
-0.00045271399
0.0065678426
0.0064372594
0.0062404339
0.0060243908
0.0058152797
0.0056149467
0.0054206784
0.0052363309
0.005063874
0.0049015496
0.0047477866
0.0046020342
0.0044634399
0.0043314854
0.0042054055
0.0040847461
0.0039694238
0.0038596146
0.0037558874
0.0036588858
0.0035690573
0.0034868091
0.0034125158
0.003346453
0.0032886375
0.0032386656
0.0031953812
0.0031574659
0.0031236239
0.0030920417
0.0030611317
0.003029979
0.0029982629
0.0029656151
0.0029321533
0.0028982289
0.0028636134
0.0028282612
0.0027922277
0.0027554476
0.0027182637
0.0026810232
0.002643724
0.0026063791
0.0025688952
0.002531475
0.0024942646
0.0024571842
0.002419951
0.002382698
0.0023456914
0.0023087562
0.0022716325
0.002234425
0.002197344
0.0021601843
0.0021227509
0.0020851993
0.0020476954
0.0020099181
0.0019718095
0.0019335611
0.0018951563
0.0018564688
0.0018173167
0.0017777196
0.0017377104
0.0016971629
0.0016561479
0.001614741
0.0015728632
0.0015305476
0.0014877469
0.0014444315
0.0014005927
0.0013561774
0.0013111931
0.0012656138
0.0012194284
0.0011726264
0.0011251988
0.0010771398
0.0010284478
0.00097912637
0.00092918761
0.00087865083
0.00082755578
0.0007759447
0.00072392775
0.0006715546
0.00061917808
0.00056664434
0.00051539984
0.0004635815
0.00041836179
0.00036692057
0.00034782713
0.00026631854
0.00056510957
-0.00045076421
0.0064475245
0.0063339672
0.0061641184
0.0059707053
0.0057759934
0.0055859832
0.0054003388
0.0052224526
0.0050545359
0.0048956417
0.0047446058
0.004601002
0.0044641766
0.0043336676
0.0042088586
0.0040893614
0.0039751164
0.0038663029
0.003763432
0.0036671011
0.0035777533
0.0034957845
0.0034215513
0.003355306
0.0032970504
0.003246395
0.0032022823
0.0031634581
0.003128667
0.0030962161
0.0030645945
0.0030328908
0.0030007453
0.0029677976
0.0029341115
0.0028999824
0.0028652118
0.0028297433
0.0027936266
0.0027568106
0.0027196021
0.002682325
0.0026449885
0.002607607
0.0025701013
0.0025326542
0.0024954022
0.0024582753
0.0024210153
0.0023837392
0.0023466959
0.0023097288
0.0022725911
0.0022353573
0.0021982305
0.0021610418
0.0021236192
0.0020860696
0.0020484975
0.0020106315
0.0019724836
0.0019342325
0.0018957325
0.001856851
0.0018176656
0.0017782495
0.0017385078
0.001698269
0.0016575611
0.0016163658
0.0015745645
0.0015322373
0.001489398
0.001446053
0.0014022002
0.0013577797
0.0013127932
0.0012672107
0.0012210193
0.0011742077
0.0011267666
0.0010786906
0.0010299785
0.00098063434
0.00093067058
0.00088010686
0.00082898324
0.00077734219
0.00072529401
0.00067288868
0.00062047866
0.00056791103
0.00051662972
0.00046477608
0.00041951014
0.00036802582
0.00034887999
0.00026723135
0.00056541544
-0.00044848868
0.0063350032
0.006235604
0.0060882924
0.0059151463
0.0057345731
0.0055550459
0.005378127
0.005206954
0.0050439065
0.0048887297
0.0047406562
0.0045994018
0.0044645013
0.0043355731
0.0042121351
0.0040938722
0.0039807525
0.0038729621
0.0037709666
0.0036753226
0.0035864669
0.0035047853
0.0034306181
0.0033641971
0.0033055129
0.0032541916
0.0032092647
0.0031695443
0.0031338179
0.0031005044
0.0030681678
0.0030359044
0.0030033204
0.0029700596
0.002936138
0.0029017981
0.0028668654
0.0028312753
0.0027950714
0.0027582144
0.0027209776
0.0026836623
0.0026462866
0.0026088664
0.002571336
0.00253386
0.0024965651
0.0024593902
0.002422101
0.0023847996
0.0023477137
0.0023107025
0.0022735338
0.0022362728
0.0021991124
0.0021618992
0.0021244655
0.0020868906
0.002049274
0.0020113932
0.0019732577
0.0019349806
0.0018964121
0.0018574819
0.0018183021
0.0017788169
0.0017389169
0.0016986382
0.0016580224
0.0016170051
0.0015754721
0.0015334194
0.0014907745
0.001447515
0.0014036713
0.0013592324
0.0013142312
0.0012686435
0.0012224527
0.0011756429
0.0011282023
0.0010801238
0.0010314057
0.00098205186
0.00093207501
0.00088149516
0.00083035271
0.00077869049
0.00072661898
0.00067418855
0.00062175126
0.00056915532
0.00051784165
0.00046595696
0.00042064629
0.00036912116
0.00034992083
0.00026812151
0.00056549872
-0.00044584587
0.0062293538
0.0061417912
0.0060133191
0.0058582101
0.005691285
0.0055222373
0.0053540619
0.0051897802
0.0050318798
0.0048806825
0.0047357981
0.0045970952
0.004464285
0.0043370828
0.0042151295
0.0040981869
0.0039862547
0.0038795286
0.0037784394
0.003683508
0.0035951645
0.0035137854
0.0034396962
0.0033731115
0.0033140142
0.0032620472
0.0032163238
0.0031757222
0.0031390762
0.0031049079
0.0030718546
0.0030390237
0.0030059925
0.002972406
0.0029382381
0.002903681
0.0028685798
0.0028328633
0.002796568
0.0027596643
0.002722395
0.0026850391
0.0026476221
0.0026101617
0.0025726043
0.0025350977
0.0024977593
0.0024605359
0.0024232157
0.0023858863
0.0023487555
0.002311697
0.0022744948
0.0022372056
0.0022000067
0.0021627562
0.0021252935
0.0020876899
0.0020500442
0.00201215
0.001974003
0.0019356971
0.001897102
0.0018581688
0.0018189819
0.0017794537
0.0017395124
0.0016992402
0.0016585497
0.0016173991
0.0015758379
0.0015338404
0.0014913397
0.001448316
0.0014047113
0.0013604364
0.0013155096
0.0012699376
0.0012237426
0.0011769296
0.001129491
0.0010814173
0.0010327039
0.00098335289
0.00093337571
0.00088279198
0.00083164208
0.0007799691
0.00072788367
0.00067543663
0.00062297962
0.00057036216
0.00051902172
0.00046711127
0.00042175823
0.00037019532
0.00035093905
0.0002689769
0.00056532097
-0.00044278654
0.0061297872
0.0060521692
0.0059394718
0.0058003374
0.0056464089
0.0054877035
0.0053282176
0.005170937
0.0050184088
0.0048714218
0.0047299357
0.0045939774
0.0044634229
0.0043380935
0.004217745
0.0041022169
0.0039915439
0.0038859338
0.0037857914
0.0036916074
0.0036038043
0.0035227503
0.003448758
0.0033820274
0.0033225374
0.003269949
0.00322345
0.0031819855
0.0031444374
0.0031094242
0.0030756544
0.00304225
0.0030087636
0.00297484
0.0029404153
0.002905635
0.0028703591
0.0028345112
0.00279812
0.0027611638
0.0027238577
0.0026864586
0.0026489985
0.0026114965
0.0025739098
0.0025363708
0.0024989881
0.0024617156
0.0024243624
0.0023870028
0.0023498263
0.0023127198
0.0022754832
0.0022381636
0.0022009229
0.002163631
0.0021261366
0.002088503
0.0020508223
0.0020129004
0.001974727
0.0019363928
0.0018977803
0.0018588373
0.0018196341
0.0017800883
0.0017401364
0.0016998517
0.0016591371
0.0016179672
0.0015763909
0.0015343092
0.0014917194
0.0014486642
0.0014051005
0.0013609774
0.0013162618
0.001270885
0.0012248187
0.0011780654
0.0011306449
0.0010825756
0.0010338667
0.00098452243
0.0009345528
0.00088397547
0.00083282938
0.00078115686
0.00072906816
0.00067661434
0.00062414646
0.0005715155
0.000520155
0.00046822509
0.00042283296
0.00037123604
0.00035192319
0.00026978365
0.00056484281
-0.00043925468
0.0060356284
0.0059664019
0.0058669473
0.0057419094
0.0056002188
0.0054516088
0.0053006965
0.005150466
0.0050034844
0.0048609065
0.0047230081
0.0045899748
0.0044618358
0.0043385232
0.0042199006
0.0041058846
0.0039965477
0.0038921122
0.0037929641
0.0036995689
0.003612341
0.0035316413
0.003457771
0.0033909185
0.0033310611
0.0032778794
0.0032306301
0.0031883241
0.0031498939
0.0031140481
0.0030795644
0.0030455821
0.0030116338
0.0029773627
0.0029426716
0.0029076621
0.0028722057
0.0028362214
0.0027997299
0.0027627157
0.0027253684
0.0026879236
0.0026504184
0.0026128733
0.0025752549
0.0025376818
0.0025002538
0.0024629316
0.0024255434
0.002388152
0.0023509291
0.0023137739
0.0022765012
0.0022391493
0.0022018654
0.0021645313
0.0021270042
0.0020893388
0.0020516192
0.0020136652
0.001975463
0.0019370976
0.001898459
0.0018594928
0.0018202644
0.0017807002
0.0017407377
0.0017004385
0.0016597191
0.0016185434
0.0015769475
0.0015348492
0.0014922613
0.00144916
0.0014055054
0.0013613207
0.0013165877
0.00127128
0.0012253636
0.0011787922
0.0011315268
0.0010835548
0.0010348914
0.00098556486
0.00093560461
0.00088503624
0.00083389959
0.00078223576
0.00073015343
0.00067770289
0.00062523381
0.00057259842
0.00052122565
0.00046928363
0.00042385659
0.00037223009
0.00035286087
0.00027052767
0.00056402155
-0.00043519412
0.005946298
0.0058841804
0.0057958796
0.0056832493
0.0055529748
0.0054141244
0.0052716153
0.0051284295
0.0049871215
0.0048491202
0.0047149785
0.0045850367
0.0044594654
0.0043383082
0.0042215306
0.0041091249
0.0040012034
0.0038980048
0.0037999031
0.0037073424
0.0036207296
0.0035404186
0.0034667009
0.0033997556
0.003339561
0.0032858183
0.0032378477
0.0031947253
0.0031554358
0.0031187721
0.0030835792
0.0030490167
0.0030146011
0.0029799735
0.0029450069
0.0029097627
0.0028741204
0.0028379949
0.002801399
0.0027643214
0.0027269286
0.0026894357
0.0026518835
0.0026142938
0.0025766414
0.0025390324
0.0025015583
0.0024641858
0.0024267608
0.0023893359
0.0023520659
0.0023148612
0.0022775507
0.0022401649
0.0022028371
0.0021654598
0.0021278985
0.0020901995
0.0020524396
0.0020144524
0.0019762204
0.0019378215
0.0018991525
0.0018601595
0.0018209028
0.0017813139
0.0017413306
0.0017010094
0.0016602737
0.0016190856
0.0015774779
0.0015353787
0.0014927909
0.001449676
0.0014060092
0.0013618008
0.0013170098
0.0012716398
0.0012256812
0.0011791216
0.0011319431
0.0010841154
0.0010356054
0.00098639767
0.0009365072
0.0008859723
0.00083485216
0.00078320004
0.00073112836
0.00067868759
0.00062622536
0.00057359427
0.0005222175
0.0004702714
0.00042481448
0.00037316335
0.00035373897
0.00027119336
0.0005627995
-0.00043054428
0.0058612971
0.0058052226
0.0057263524
0.0056246266
0.005504919
0.0053754229
0.0052410989
0.0051049035
0.0049693505
0.0048360622
0.0047058257
0.0045791276
0.0044562679
0.0043373986
0.004222582
0.0041118839
0.0040054577
0.0039035607
0.0038065598
0.0037148825
0.0036289278
0.0035490439
0.0034755137
0.0034085091
0.0033480116
0.0032937437
0.0032450846
0.0032011744
0.0031610508
0.0031235867
0.0030876919
0.0030525487
0.0030176619
0.00298267
0.00294742
0.0029119361
0.0028761028
0.0028398318
0.0028031274
0.0027659815
0.0027285391
0.0026909955
0.0026533946
0.0026157589
0.0025780704
0.0025404238
0.0025029028
0.0024654793
0.0024280159
0.0023905558
0.002353238
0.0023159831
0.0022786335
0.0022412123
0.0022038397
0.0021664182
0.0021288212
0.0020910872
0.0020532863
0.0020152646
0.0019770014
0.0019385674
0.0018998666
0.0018608456
0.0018215591
0.0017819423
0.0017419345
0.0017015877
0.0016608291
0.0016196213
0.0015779951
0.0015358824
0.0014932812
0.0014501586
0.0014064923
0.0013622814
0.0013174839
0.0012720973
0.0012261032
0.0011794937
0.0011322671
0.0010844205
0.0010359499
0.00098684387
0.0009370877
0.00088667659
0.00083564232
0.0007840379
0.00073199045
0.00067956433
0.00062711267
0.00057449102
0.00052311648
0.00047117353
0.00042569189
0.00037402113
0.00035454379
0.0002717636
0.00056112127
-0.00042524114
0.0057801934
0.0057292729
0.0056584099
0.0055662624
0.0054562733
0.0053356745
0.0052092762
0.005079973
0.0049502132
0.0048217432
0.0046955396
0.0045722226
0.0044522089
0.0043357539
0.0042230108
0.004114116
0.0040092651
0.0039087355
0.0038128916
0.0037221482
0.0036368973
0.0035574815
0.003484177
0.0034171502
0.0033563875
0.0033016334
0.0032523219
0.0032076554
0.0031667259
0.0031284811
0.003091894
0.0030561717
0.0030208114
0.0029854488
0.0029499082
0.0029141801
0.0028781514
0.0028417308
0.0028049143
0.0027676953
0.0027301994
0.0026926031
0.0026549518
0.0026172688
0.0025795422
0.0025418565
0.0025042879
0.002466813
0.0024293096
0.0023918128
0.0023544466
0.0023171408
0.0022797506
0.0022422926
0.0022048745
0.0021674078
0.0021297738
0.0020920037
0.0020541609
0.0020161034
0.0019778077
0.0019393376
0.0019006038
0.0018615536
0.0018222358
0.0017825898
0.0017425562
0.0017021818
0.0016613982
0.0016201677
0.0015785188
0.0015363857
0.0014937651
0.0014506274
0.0014069494
0.0013627289
0.0013179275
0.0012725391
0.0012265422
0.0011799244
0.0011326759
0.0010847923
0.0010362779
0.00098714094
0.00093739402
0.00088704811
0.00083612232
0.00078463472
0.0007326798
0.00068031128
0.0006278896
0.00057528463
0.00052391581
0.00047197985
0.00042647655
0.00037478956
0.00035526191
0.00027222022
0.00055893234
-0.00041922003
0.0057026108
0.0056561007
0.0055920669
0.0055083348
0.0054072379
0.0052950447
0.005176278
0.0050537297
0.0049297611
0.004806183
0.0046841183
0.0045643043
0.0044472612
0.0043333398
0.0042227787
0.0041157811
0.0040125851
0.0039134895
0.0038188602
0.0037291025
0.0036446026
0.0035656984
0.0034926603
0.0034256512
0.0033646639
0.0033094651
0.0032595403
0.003214152
0.0031724467
0.0031334435
0.0030961762
0.0030598785
0.0030240437
0.0029883055
0.0029524683
0.002916492
0.002880264
0.0028436902
0.0028067582
0.0027694617
0.0027319088
0.0026942576
0.0026565545
0.0026188231
0.0025810566
0.0025433304
0.0025057136
0.002468187
0.0024306422
0.0023931071
0.002355692
0.0023183348
0.0022809028
0.0022434067
0.0022059424
0.0021684297
0.0021307574
0.0020929499
0.0020550644
0.00201697
0.0019786406
0.0019401335
0.0019013657
0.0018622851
0.0018229349
0.0017832585
0.0017431978
0.0017027948
0.0016619848
0.0016207303
0.0015790566
0.001536901
0.0014942588
0.0014511015
0.0014074053
0.0013631683
0.0013183539
0.0012729554
0.0012269524
0.0011803315
0.0011330812
0.0010851934
0.0010366661
0.00098750285
0.0009377195
0.00088734018
0.00083640678
0.00078495719
0.00073308519
0.00068081982
0.0006284886
0.00057594526
0.00052460531
0.00047268534
0.00042716256
0.00037545914
0.00035588265
0.00027254559
0.00055618037
-0.00041241953
0.0056282205
0.0055854979
0.0055273155
0.0054509842
0.005357991
0.0052536915
0.0051422349
0.0050262705
0.0049080531
0.0047894098
0.0046715674
0.0045553617
0.0044414025
0.0043301269
0.0042218515
0.004116843
0.0040153809
0.0039177865
0.0038244302
0.0037357113
0.0036520111
0.0035736636
0.0035009348
0.0034339858
0.0033728168
0.0033172173
0.0032667205
0.0032206475
0.003178199
0.0031384617
0.0031005284
0.0030636611
0.0030273526
0.0029912351
0.0029550963
0.0029188685
0.0028824378
0.0028457073
0.0028086568
0.0027712789
0.0027336656
0.0026959576
0.0026582016
0.0026204207
0.0025826129
0.002544845
0.0025071795
0.0024696009
0.0024320136
0.0023944391
0.0023569745
0.0023195655
0.0022820904
0.0022445549
0.0022070437
0.0021694843
0.0021317726
0.0020939268
0.0020559978
0.0020178654
0.0019795012
0.0019409562
0.0019021534
0.0018630412
0.0018236578
0.00178395
0.0017438611
0.0017034283
0.0016625909
0.0016213111
0.0015796115
0.0015374321
0.001494767
0.001451588
0.0014078716
0.0013636151
0.0013187831
0.0012733684
0.0012273517
0.0011807199
0.001133462
0.0010855701
0.0010370406
0.00098787464
0.00093808325
0.00088768558
0.00083672305
0.00078524168
0.00073335315
0.00068110667
0.00062883541
0.00057637826
0.00052511666
0.00047325517
0.0004277365
0.00037602286
0.00035640074
0.00027272595
0.0005528232
-0.0004047886
0.005556734
0.0055172772
0.0054641322
0.0053943194
0.0053086888
0.0052117644
0.0051072753
0.0049976952
0.0048851549
0.0047714591
0.0046578996
0.00454539
0.0044346157
0.0043260893
0.0042201984
0.0041172679
0.0040176177
0.003921592
0.0038295681
0.0037419421
0.0036590916
0.0035813476
0.003508973
0.0034421285
0.0033808229
0.0033248684
0.0032738435
0.0032271251
0.003183968
0.0031435232
0.0031049403
0.0030675111
0.0030307313
0.0029942323
0.0029577879
0.0029213057
0.0028846695
0.0028477795
0.0028106076
0.0027731447
0.0027354679
0.0026977016
0.0026598914
0.0026220604
0.00258421
0.0025463994
0.002508685
0.0024710543
0.0024334234
0.0023958082
0.0023582939
0.0023208327
0.0022833136
0.0022457376
0.0022081789
0.0021705721
0.0021328198
0.0020949346
0.0020569616
0.0020187902
0.0019803901
0.0019418065
0.0019029676
0.0018638229
0.0018244054
0.0017846652
0.0017445471
0.0017040837
0.0016632178
0.0016219117
0.0015801852
0.001537981
0.0014952917
0.0014520899
0.001408352
0.0013640746
0.001319223
0.0012737898
0.0012277559
0.0011811084
0.0011338367
0.0010859333
0.0010373951
0.00098822384
0.00093842952
0.00088802935
0.00083706108
0.00078556616
0.00073365388
0.00068137798
0.00062908466
0.00057663217
0.00052540685
0.00047361145
0.0004281344
0.00037644332
0.00035680143
0.00027274463
0.00054884693
-0.00039630009
0.0054878973
0.0054512695
0.0054024819
0.0053384218
0.0052594666
0.0051694025
0.0050715244
0.004968105
0.0048611377
0.004752373
0.0046431338
0.0045343902
0.0044268883
0.0043212054
0.0042177913
0.0041170244
0.0040192626
0.003924873
0.0038342415
0.0037477634
0.0036658138
0.0035887216
0.0035167479
0.0034500544
0.0033886592
0.0033323975
0.0032808901
0.0032335679
0.0031897388
0.003148615
0.0031094012
0.0030714199
0.0030341728
0.0029972916
0.0029605386
0.0029238
0.0028869557
0.0028499036
0.0028126078
0.0027750566
0.0027373136
0.0026994873
0.0026616221
0.0026237404
0.0025858463