/*--------------------------------*- C++ -*----------------------------------*\
  =========                 |
  \\      /  F ield         | OpenFOAM: The Open Source CFD Toolbox
   \\    /   O peration     | Website:  https://openfoam.org
    \\  /    A nd           | Version:  12
     \\/     M anipulation  |
\*---------------------------------------------------------------------------*/
FoamFile
{
    format      ascii;
    class       surfaceScalarField;
    location    "1400";
    object      phi;
}
// * * * * * * * * * * * * * * * * * * * * * * * * * * * * * * * * * * * * * //

dimensions      [0 3 -1 0 0 0 0];

internalField   nonuniform List<scalar> 
14782
(
0.00078668096
7.064809e-06
-0.00079374577
0.00077717168
9.5092838e-06
0.00076673641
1.0435269e-05
0.00075604206
1.069435e-05
0.00074520648
1.083558e-05
0.00073432854
1.0877945e-05
0.00072348436
1.0844172e-05
0.00071272237
1.0761997e-05
0.00070206857
1.0653799e-05
0.00069154742
1.052115e-05
0.00068117857
1.0368845e-05
0.00067097985
1.019872e-05
0.00066097503
1.0004828e-05
0.00065118522
9.7898073e-06
0.0006416425
9.5427231e-06
0.00063238936
9.2531362e-06
0.00062348752
8.9018364e-06
0.00061500658
8.4809435e-06
0.0006070058
8.0007793e-06
0.00059953596
7.4698431e-06
0.00059264154
6.89442e-06
0.00058635719
6.2843462e-06
0.00058070702
5.6501679e-06
0.0005757001
5.0069209e-06
0.00057131949
4.3806159e-06
0.0005675158
3.803683e-06
0.00056421523
3.3005749e-06
0.00056132526
2.889973e-06
0.00055874179
2.5834637e-06
0.00055636749
2.3743076e-06
0.00055412399
2.243491e-06
0.00055195805
2.1659409e-06
0.00054983735
2.120706e-06
0.00054774609
2.0912615e-06
0.00054567615
2.0699361e-06
0.00054361841
2.0577415e-06
0.00054156314
2.0552653e-06
0.000539501
2.0621417e-06
0.00053742641
2.0745872e-06
0.00053534106
2.0853561e-06
0.00053325197
2.0890907e-06
0.00053116747
2.0844959e-06
0.00052909469
2.0727769e-06
0.00052703744
2.0572555e-06
0.00052499804
2.0393942e-06
0.00052297836
2.0196839e-06
0.00052098003
1.9983292e-06
0.00051900441
1.9756248e-06
0.00051705293
1.9514784e-06
0.00051512672
1.9262106e-06
0.00051322576
1.9009529e-06
0.00051134973
1.8760342e-06
0.00050949862
1.8511109e-06
0.00050767266
1.8259582e-06
0.00050587143
1.8012328e-06
0.00050409431
1.7771198e-06
0.00050234092
1.7533842e-06
0.00050061096
1.7299613e-06
0.00049890368
1.7072834e-06
0.00049721861
1.6850712e-06
0.00049555533
1.6632755e-06
0.00049391318
1.6421576e-06
0.00049229156
1.6216187e-06
0.00049069009
1.60147e-06
0.00048910826
1.5818287e-06
0.00048754555
1.5627088e-06
0.00048600159
1.5439602e-06
0.00048447586
1.5257274e-06
0.00048296788
1.5079806e-06
0.00048147725
1.4906309e-06
0.00048000346
1.4737882e-06
0.00047854609
1.4573681e-06
0.0004771047
1.44139e-06
0.00047567886
1.4258413e-06
0.00047426819
1.4106765e-06
0.00047287225
1.3959335e-06
0.00047149069
1.3815666e-06
0.0004701231
1.3675831e-06
0.00046876914
1.3539667e-06
0.00046742843
1.3407072e-06
0.00046610063
1.3277949e-06
0.00046478541
1.3152208e-06
0.00046348244
1.3029779e-06
0.00046219137
1.2910608e-06
0.00046091191
1.2794655e-06
0.00045964372
1.2681935e-06
0.00045838647
1.257244e-06
0.00045713983
1.2466382e-06
0.00045590346
1.2363702e-06
0.00045467692
1.2265393e-06
0.00045345987
1.2170585e-06
0.00045225147
1.2083965e-06
0.00045105159
1.199876e-06
0.00044985763
1.1939635e-06
0.00044867153
1.1861014e-06
0.00044748111
1.1904204e-06
0.00044630168
1.1794268e-06
0.0004450473
1.2543801e-06
0.00044399224
1.0550648e-06
1.5970253e-06
0.00082509996
6.7866694e-06
-0.00082482182
0.00082533649
9.2727544e-06
0.00082525378
1.0517985e-05
0.00082483721
1.1110916e-05
0.00082403196
1.1640834e-05
0.00082279786
1.2112042e-05
0.00082112615
1.2515887e-05
0.00081900855
1.2879597e-05
0.00081644117
1.3221179e-05
0.00081342215
1.3540163e-05
0.00080995356
1.3837438e-05
0.00080603552
1.4116764e-05
0.00080167379
1.4366555e-05
0.00079686804
1.4595556e-05
0.00079162088
1.4789885e-05
0.00078592994
1.4944071e-05
0.00077979924
1.5032539e-05
0.00077326674
1.501344e-05
0.00076638917
1.4878351e-05
0.00075922193
1.4637088e-05
0.00075183131
1.4285035e-05
0.00074429865
1.3817005e-05
0.00073671583
1.3232991e-05
0.00072918283
1.2539924e-05
0.00072181035
1.1753091e-05
0.00071472154
1.0892497e-05
0.00070803784
9.9842722e-06
0.00070184364
9.0841765e-06
0.00069616852
8.2585765e-06
0.00069099252
7.5503091e-06
0.00068625916
6.9768547e-06
0.00068189107
6.5340307e-06
0.00067780603
6.2057502e-06
0.00067393615
5.9611346e-06
0.00067023453
5.7715626e-06
0.00066667155
5.6207145e-06
0.00066323133
5.4954865e-06
0.00065990389
5.3895807e-06
0.00065667973
5.2987516e-06
0.00065354859
5.2164911e-06
0.00065049898
5.1387057e-06
0.00064751882
5.0646578e-06
0.00064459811
4.9934791e-06
0.00064173015
4.925222e-06
0.00063891226
4.8572798e-06
0.00063614398
4.7879655e-06
0.00063342472
4.7175855e-06
0.00063075284
4.6475127e-06
0.00062812653
4.5777888e-06
0.00062554454
4.5081997e-06
0.00062300572
4.4397664e-06
0.00062050911
4.3726521e-06
0.00061805391
4.3063033e-06
0.00061563945
4.2404229e-06
0.00061326457
4.1761127e-06
0.00061092809
4.1136007e-06
0.00060862909
4.0523822e-06
0.0006063668
3.9922515e-06
0.00060414002
3.9340646e-06
0.00060194766
3.8774275e-06
0.00059978888
3.8220621e-06
0.00059766269
3.7683398e-06
0.00059556818
3.7161328e-06
0.00059350452
3.6651286e-06
0.00059147084
3.6155134e-06
0.00058946624
3.5673087e-06
0.00058748996
3.5202388e-06
0.00058554116
3.4745208e-06
0.00058361905
3.4300975e-06
0.00058172288
3.3867993e-06
0.00057985187
3.3447923e-06
0.00057800531
3.3039301e-06
0.00057618247
3.264229e-06
0.00057438266
3.2256541e-06
0.00057260522
3.1881149e-06
0.00057084949
3.1516605e-06
0.00056911486
3.1162064e-06
0.00056740069
3.0817496e-06
0.0005657064
3.0482524e-06
0.00056403142
3.0156859e-06
0.0005623752
2.9840232e-06
0.00056073718
2.9532388e-06
0.00055911684
2.9233113e-06
0.00055751368
2.8942234e-06
0.00055592719
2.8659619e-06
0.00055435686
2.8385224e-06
0.0005528022
2.8119044e-06
0.0005512627
2.7861341e-06
0.00054973784
2.7612306e-06
0.00054822706
2.7373155e-06
0.00054672971
2.7144104e-06
0.0005452451
2.6930054e-06
0.00054377211
2.6728696e-06
0.00054230973
2.6563431e-06
0.00054085517
2.6406622e-06
0.00053940583
2.6397598e-06
0.00053795037
2.6348891e-06
0.00053649843
2.7063161e-06
0.00053492765
2.6258424e-06
3.099011e-06
0.0008528799
6.4937877e-06
-0.00085258701
0.00085331843
8.8342199e-06
0.00085369398
1.0142439e-05
0.0008539865
1.0818387e-05
0.00085423523
1.1392109e-05
0.00085443187
1.1915402e-05
0.00085458465
1.236311e-05
0.00085469676
1.2767481e-05
0.00085476767
1.3150276e-05
0.00085479172
1.3516112e-05
0.0008547633
1.3865855e-05
0.00085467383
1.4206232e-05
0.00085451305
1.4527336e-05
0.00085426696
1.4841644e-05
0.00085391732
1.5139527e-05
0.00085344114
1.5420249e-05
0.00085279636
1.5677324e-05
0.00085190735
1.5902443e-05
0.00085069273
1.6092974e-05
0.00084908052
1.6249297e-05
0.00084699519
1.637037e-05
0.00084435627
1.6455921e-05
0.00084108309
1.6506175e-05
0.00083710047
1.6522539e-05
0.00083234781
1.6505751e-05
0.00082678195
1.6458356e-05
0.0008204363
1.6329922e-05
0.00081343685
1.6083626e-05
0.00080596285
1.5732577e-05
0.0007982434
1.5269763e-05
0.00079052261
1.4697642e-05
0.00078302516
1.4031486e-05
0.00077593305
1.3297859e-05
0.00076936271
1.2531474e-05
0.00076333988
1.1794392e-05
0.00075781524
1.1145351e-05
0.00075270416
1.0606569e-05
0.00074791482
1.0178923e-05
0.00074336999
9.8435761e-06
0.00073901856
9.5679229e-06
0.00073483156
9.3257053e-06
0.00073079283
9.1033862e-06
0.00072689141
8.8948999e-06
0.00072311639
8.7002398e-06
0.00071945653
8.5171455e-06
0.00071590036
8.3441297e-06
0.00071243703
8.1809204e-06
0.00070905736
8.0271782e-06
0.00070575512
7.8800377e-06
0.00070252642
7.7368914e-06
0.00069936798
7.5982138e-06
0.00069627632
7.464312e-06
0.00069324809
7.3345293e-06
0.00069028046
7.2080539e-06
0.00068737081
7.0857591e-06
0.00068451688
6.9675344e-06
0.00068171671
6.852547e-06
0.00067896854
6.7404285e-06
0.00067627033
6.6322709e-06
0.00067362031
6.5274539e-06
0.00067101692
6.4254442e-06
0.00066845859
6.3266708e-06
0.00066594379
6.2309396e-06
0.00066347114
6.1377724e-06
0.00066103929
6.0473646e-06
0.00065864689
5.9597119e-06
0.00065629273
5.874397e-06
0.00065397559
5.7916642e-06
0.00065169428
5.7114057e-06
0.00064944772
5.6333575e-06
0.0006472348
5.557709e-06
0.00064505449
5.4842448e-06
0.00064290576
5.4129594e-06
0.00064078763
5.3437827e-06
0.00063869917
5.2765706e-06
0.00063663947
5.211366e-06
0.00063460763
5.1480395e-06
0.00063260282
5.0865657e-06
0.00063062419
5.0268763e-06
0.00062867096
4.9689153e-06
0.00062674236
4.9126297e-06
0.00062483763
4.8579696e-06
0.00062295605
4.804892e-06
0.00062109691
4.7533602e-06
0.00061925953
4.7033454e-06
0.00061744322
4.6548306e-06
0.00061564731
4.6078118e-06
0.00061387113
4.5623118e-06
0.00061211398
4.5183818e-06
0.00061037516
4.4761388e-06
0.00060865379
4.4357751e-06
0.00060694914
4.397659e-06
0.00060525964
4.3623745e-06
0.00060358467
4.3313089e-06
0.00060191978
4.3055559e-06
0.00060026535
4.2941891e-06
0.00059860045
4.2997834e-06
0.00059696972
4.3370448e-06
0.00059509271
4.5028547e-06
4.667028e-06
0.00088142429
6.2668333e-06
-0.00088119734
0.00088183841
8.4201023e-06
0.00088222751
9.7533413e-06
0.00088253227
1.0513627e-05
0.00088279201
1.113237e-05
0.00088301511
1.1692301e-05
0.00088320778
1.2170441e-05
0.00088337804
1.2597217e-05
0.00088353188
1.2996439e-05
0.00088367121
1.3376779e-05
0.00088379754
1.3739528e-05
0.00088391381
1.4089963e-05
0.00088401838
1.4422763e-05
0.00088411329
1.4746738e-05
0.00088419716
1.505565e-05
0.00088426919
1.5348221e-05
0.00088432713
1.5619388e-05
0.00088436689
1.5862682e-05
0.00088438319
1.6076676e-05
0.00088436962
1.6262863e-05
0.00088431745
1.6422535e-05
0.00088421482
1.6558556e-05
0.00088404598
1.6675016e-05
0.00088378963
1.6778886e-05
0.00088341435
1.6881035e-05
0.00088287526
1.6997447e-05
0.00088206999
1.7135193e-05
0.00088085393
1.7299682e-05
0.00087908769
1.7498818e-05
0.00087663
1.772745e-05
0.00087335541
1.7972236e-05
0.000869177
1.820989e-05
0.00086406107
1.841379e-05
0.00085808844
1.8504111e-05
0.00085146451
1.8418316e-05
0.00084444762
1.8162241e-05
0.00083731232
1.7741876e-05
0.0008303089
1.7182335e-05
0.00082362972
1.6522755e-05
0.00081737906
1.5818585e-05
0.00081156522
1.5139545e-05
0.00080613435
1.4534263e-05
0.00080100982
1.4019424e-05
0.00079612239
1.3587671e-05
0.00079142618
1.3213357e-05
0.0007868964
1.2873911e-05
0.00078251994
1.2557374e-05
0.00077828695
1.2260172e-05
0.00077418735
1.1979639e-05
0.00077021033
1.1713908e-05
0.00076634482
1.1463731e-05
0.00076258099
1.1228134e-05
0.00075891136
1.1004161e-05
0.00075533048
1.0788939e-05
0.00075183359
1.0582647e-05
0.00074841618
1.038494e-05
0.00074507411
1.0194623e-05
0.00074180372
1.0010813e-05
0.00073860165
9.8343466e-06
0.000735465
9.664101e-06
0.00073239117
9.499276e-06
0.00072937753
9.3403053e-06
0.00072642167
9.1868014e-06
0.00072352144
9.038001e-06
0.00072067478
8.8940279e-06
0.0007178797
8.7547942e-06
0.0007151344
8.61969e-06
0.00071243714
8.4889292e-06
0.00070978623
8.362311e-06
0.00070718015
8.2394444e-06
0.00070461735
8.1205044e-06
0.00070209641
8.0051819e-06
0.00069961595
7.8934244e-06
0.00069717463
7.7851055e-06
0.00069477119
7.6800104e-06
0.0006924044
7.5781569e-06
0.00069007308
7.4793571e-06
0.0006877761
7.3835477e-06
0.00068551235
7.2906178e-06
0.0006832808
7.200472e-06
0.00068108041
7.1130209e-06
0.0006789102
7.0281795e-06
0.00067676921
6.9458741e-06
0.00067465654
6.8660396e-06
0.00067257126
6.7886231e-06
0.0006705125
6.713587e-06
0.00066847939
6.6409179e-06
0.00066647108
6.5706269e-06
0.00066448667
6.5027967e-06
0.00066252528
6.4375253e-06
0.00066058585
6.3751997e-06
0.00065866751
6.3160034e-06
0.00065676839
6.2614973e-06
0.00065488794
6.211755e-06
0.00065302083
6.1726635e-06
0.00065116879
6.1462327e-06
0.00064930561
6.1629586e-06
0.00064749645
6.1462129e-06
0.00064535885
6.6404469e-06
6.3429396e-06
0.00091093937
6.0882596e-06
-0.0009107608
0.00091130057
8.0589044e-06
0.0009116675
9.3864103e-06
0.00091196872
1.0212406e-05
0.00091222723
1.087386e-05
0.0009124571
1.1462433e-05
0.00091266029
1.1967254e-05
0.00091284289
1.2414609e-05
0.00091300943
1.2829903e-05
0.00091316299
1.3223222e-05
0.00091330533
1.3597185e-05
0.00091343851
1.3956786e-05
0.00091356208
1.429919e-05
0.00091367852
1.4630301e-05
0.0009137878
1.4946369e-05
0.0009138907
1.5245316e-05
0.00091398711
1.5522982e-05
0.00091407577
1.5774026e-05
0.00091415549
1.5996957e-05
0.00091422538
1.6192972e-05
0.00091428431
1.6363599e-05
0.00091433065
1.6512226e-05
0.00091436228
1.6643384e-05
0.00091437711
1.676405e-05
0.0009143732
1.6884951e-05
0.00091434933
1.7021313e-05
0.00091430177
1.718275e-05
0.00091422374
1.7377715e-05
0.00091410569
1.7616865e-05
0.00091393205
1.7901096e-05
0.00091367925
1.8225037e-05
0.00091330895
1.8580187e-05
0.00091276088
1.8961855e-05
0.00091190762
1.9357371e-05
0.00091057109
1.9754846e-05
0.00090858376
2.0149571e-05
0.00090579753
2.0528112e-05
0.00090210753
2.0872336e-05
0.00089748844
2.1141845e-05
0.00089204814
2.1258885e-05
0.00088600797
2.1179706e-05
0.00087963199
2.0910248e-05
0.0008731835
2.0467918e-05
0.00086688059
1.989058e-05
0.00086085545
1.9238494e-05
0.00085514524
1.8584121e-05
0.00084972453
1.7978078e-05
0.00084454303
1.7441681e-05
0.00083955611
1.6966552e-05
0.00083473603
1.6533994e-05
0.00083006817
1.6131587e-05
0.00082554384
1.5752464e-05
0.00082115506
1.5392936e-05
0.00081689294
1.5051066e-05
0.00081274781
1.4727773e-05
0.00080871088
1.4421867e-05
0.00080477515
1.4130358e-05
0.0008009351
1.3850863e-05
0.00079718569
1.3583751e-05
0.00079352235
1.3327442e-05
0.00078994088
1.3080753e-05
0.00078643732
1.2843857e-05
0.00078300818
1.2615941e-05
0.00077965034
1.2395851e-05
0.00077636079
1.2183573e-05
0.00077313674
1.1978847e-05
0.00076997565
1.1780773e-05
0.00076687512
1.1589465e-05
0.00076383286
1.1404574e-05
0.00076084677
1.1225531e-05
0.00075791482
1.1052451e-05
0.00075503511
1.0884893e-05
0.00075220581
1.0722725e-05
0.00074942518
1.0565734e-05
0.00074669158
1.0413611e-05
0.00074400341
1.0266325e-05
0.00074135916
1.0123609e-05
0.00073875736
9.9853455e-06
0.00073619662
9.8513635e-06
0.00073367557
9.721514e-06
0.00073119294
9.5956572e-06
0.00072874746
9.4736615e-06
0.00072633792
9.3554105e-06
0.00072396316
9.2408e-06
0.00072162204
9.1297434e-06
0.00071931345
9.0221732e-06
0.00071703631
8.9180584e-06
0.00071478955
8.8173901e-06
0.00071257207
8.7202782e-06
0.0007103828
8.6267909e-06
0.00070822048
8.5375192e-06
0.00070608406
8.4524286e-06
0.00070397142
8.374136e-06
0.00070188196
8.3012176e-06
0.00069980976
8.244864e-06
0.00069775726
8.1987282e-06
0.00069569459
8.225627e-06
0.00069370217
8.1386338e-06
0.0006913163
9.0263209e-06
8.1466371e-06
0.00094144889
5.9457044e-06
-0.00094130633
0.00094176222
7.7455693e-06
0.00094210381
9.0448231e-06
0.00094240041
9.9158108e-06
0.00094265948
1.0614787e-05
0.00094289263
1.1229284e-05
0.00094310136
1.1758525e-05
0.00094328972
1.2226247e-05
0.00094346178
1.2657846e-05
0.00094362067
1.3064328e-05
0.00094376842
1.3449432e-05
0.0009439072
1.3818014e-05
0.00094403734
1.4169043e-05
0.00094416075
1.4506892e-05
0.00094427781
1.4829309e-05
0.00094438908
1.5134048e-05
0.00094449451
1.5417548e-05
0.00094459333
1.5675213e-05
0.00094468475
1.590553e-05
0.00094476804
1.6109685e-05
0.00094484231
1.6289332e-05
0.00094490705
1.6447484e-05
0.00094496181
1.6588629e-05
0.00094500602
1.671984e-05
0.00094503967
1.6851302e-05
0.00094506364
1.6997336e-05
0.00094507829
1.7168107e-05
0.00094508402
1.7371976e-05
0.00094508186
1.7619028e-05
0.00094507165
1.7911304e-05
0.00094505202
1.8244674e-05
0.00094502003
1.8612173e-05
0.00094497192
1.9009968e-05
0.00094489948
1.9429812e-05
0.00094478798
1.986634e-05
0.00094461701
2.0320541e-05
0.00094435653
2.0788595e-05
0.00094396118
2.1267687e-05
0.00094334886
2.1754161e-05
0.00094237222
2.2235529e-05
0.00094085156
2.270037e-05
0.00093862257
2.3139236e-05
0.00093555511
2.3535377e-05
0.00093159487
2.385082e-05
0.00092682004
2.4013324e-05
0.00092142281
2.3981356e-05
0.00091564332
2.3757565e-05
0.00090972809
2.3356909e-05
0.0009038753
2.2819343e-05
0.00089819729
2.2212006e-05
0.00089272703
2.1601845e-05
0.00088745103
2.1028463e-05
0.000882343
2.050097e-05
0.00087738301
2.0011057e-05
0.00087256045
1.9550336e-05
0.00086786984
1.9112474e-05
0.00086330627
1.8693925e-05
0.00085886346
1.8293671e-05
0.00085453407
1.791315e-05
0.00085031143
1.7550074e-05
0.00084619012
1.7202068e-05
0.00084216532
1.6868654e-05
0.0008382326
1.6548666e-05
0.00083438779
1.6240656e-05
0.00083062697
1.5944398e-05
0.00082694651
1.5659305e-05
0.00082334317
1.5384107e-05
0.00081981386
1.5118779e-05
0.00081635566
1.4862776e-05
0.00081296589
1.4615299e-05
0.00080964199
1.4376353e-05
0.00080638155
1.414533e-05
0.00080318229
1.3921987e-05
0.00080004203
1.3705996e-05
0.00079695872
1.3496923e-05
0.00079393037
1.3294668e-05
0.00079095512
1.3098865e-05
0.00078803114
1.2909319e-05
0.00078515672
1.2725785e-05
0.00078233019
1.2548044e-05
0.00077954996
1.2375893e-05
0.00077681448
1.2209141e-05
0.00077412227
1.2047615e-05
0.00077147191
1.1891163e-05
0.000768862
1.1739653e-05
0.00076629119
1.1592978e-05
0.00076375817
1.1451081e-05
0.00076126164
1.1313925e-05
0.00075880027
1.118164e-05
0.00075637281
1.1054257e-05
0.00075397776
1.0932572e-05
0.00075161387
1.0816314e-05
0.00074927881
1.0709196e-05
0.00074697183
1.0608196e-05
0.00074468658
1.0530121e-05
0.00074242592
1.0459387e-05
0.00074015696
1.0494579e-05
0.00073797318
1.0322418e-05
0.0007353386
1.1660897e-05
1.009275e-05
0.00097298633
5.828733e-06
-0.00097286935
0.00097325955
7.4723422e-06
0.00097357413
8.7302508e-06
0.00097386165
9.6282912e-06
0.00097411931
1.0357119e-05
0.00097435425
1.0994351e-05
0.00097456709
1.1545686e-05
0.00097476031
1.2033024e-05
0.00097493745
1.2480704e-05
0.0009751014
1.2900375e-05
0.00097525418
1.3296652e-05
0.00097539776
1.3674432e-05
0.00097553285
1.4033956e-05
0.000975661
1.4378746e-05
0.00097578281
1.4707494e-05
0.00097589877
1.5018094e-05
0.00097600885
1.5307468e-05
0.0009761124
1.5571657e-05
0.00097620876
1.5809175e-05
0.00097629738
1.6021065e-05
0.00097637767
1.6209036e-05
0.00097644915
1.6376002e-05
0.0009765114
1.6526384e-05
0.00097656417
1.6667073e-05
0.00097660753
1.6807935e-05
0.00097664258
1.6962288e-05
0.00097667049
1.7140193e-05
0.00097669247
1.7350001e-05
0.00097671038
1.7601119e-05
0.00097672552
1.7896166e-05
0.00097673842
1.8231772e-05
0.00097674893
1.8601662e-05
0.00097675681
1.9002086e-05
0.00097676074
1.9425886e-05
0.00097675861
1.9868469e-05
0.00097674807
2.0331077e-05
0.00097672546
2.0811206e-05
0.00097668605
2.1307095e-05
0.00097662299
2.1817223e-05
0.00097652267
2.2335848e-05
0.00097636321
2.2859832e-05
0.00097611336
2.3389081e-05
0.00097572665
2.3922092e-05
0.00097512056
2.4456909e-05
0.0009741518
2.4982085e-05
0.00097264723
2.5485927e-05
0.00097044919
2.59556e-05
0.0009674329
2.6373198e-05
0.00096357874
2.6673508e-05
0.00095899655
2.6794193e-05
0.0009538734
2.6724996e-05
0.00094843737
2.6464496e-05
0.00094289996
2.6038374e-05
0.00093740647
2.5504545e-05
0.00093202652
2.4930291e-05
0.00092677713
2.436186e-05
0.00092165317
2.3817891e-05
0.0009166475
2.3299334e-05
0.00091175716
2.2803494e-05
0.00090698166
2.2325571e-05
0.00090231957
2.1864165e-05
0.00089776725
2.1420969e-05
0.0008933202
2.0995719e-05
0.00088897421
2.0586646e-05
0.00088472548
2.0193132e-05
0.00088057037
1.9814408e-05
0.00087650542
1.9449061e-05
0.00087252717
1.9097032e-05
0.00086863237
1.8757574e-05
0.00086481802
1.8429651e-05
0.00086108118
1.8113188e-05
0.0008574191
1.7807414e-05
0.00085382912
1.7511967e-05
0.00085030872
1.7226395e-05
0.00084685551
1.6950135e-05
0.00084346717
1.6683007e-05
0.0008401415
1.6424536e-05
0.00083687637
1.6174442e-05
0.00083366976
1.5932395e-05
0.00083051971
1.5698099e-05
0.00082742432
1.5471277e-05
0.0008243818
1.5251669e-05
0.00082139037
1.503904e-05
0.00081844836
1.4833179e-05
0.00081555411
1.4633903e-05
0.00081270603
1.4441056e-05
0.00080990256
1.4254548e-05
0.00080714218
1.4074308e-05
0.00080442334
1.3900481e-05
0.00080174454
1.3733052e-05
0.00079910409
1.3573022e-05
0.00079650053
1.3419875e-05
0.00079393129
1.3278438e-05
0.00079139545
1.3144035e-05
0.00078888627
1.3039301e-05
0.00078640691
1.2938747e-05
0.00078392177
1.2979721e-05
0.00078153633
1.2707856e-05
0.0007786462
1.4551026e-05
1.2194283e-05
0.0010055863
5.7306492e-06
-0.0010054882
0.0010058252
7.2334953e-06
0.0010061124
8.4429679e-06
0.0010063873
9.353476e-06
0.0010066408
1.0103601e-05
0.0010068757
1.0759404e-05
0.0010070913
1.1330141e-05
0.0010072885
1.1835772e-05
0.0010074703
1.2298979e-05
0.001007639
1.2731652e-05
0.0010077965
1.313908e-05
0.0010079447
1.352624e-05
0.0010080844
1.3894294e-05
0.0010082169
1.4246258e-05
0.0010083429
1.458148e-05
0.0010084629
1.4898124e-05
0.0010085768
1.5193533e-05
0.0010086841
1.5464315e-05
0.0010087843
1.5709064e-05
0.0010088766
1.5928679e-05
0.0010089608
1.6124868e-05
0.0010090363
1.6300489e-05
0.0010091028
1.6459901e-05
0.0010091601
1.6609787e-05
0.0010092084
1.6759598e-05
0.0010092489
1.6921808e-05
0.0010092828
1.7106352e-05
0.0010093113
1.7321445e-05
0.0010093365
1.757595e-05
0.0010093599
1.7872779e-05
0.0010093825
1.8209156e-05
0.0010094046
1.8579516e-05
0.0010094265
1.8980196e-05
0.0010094477
1.9404746e-05
0.0010094673
1.9848815e-05
0.0010094851
2.0313324e-05
0.0010095001
2.0796215e-05
0.0010095113
2.1295808e-05
0.0010095178
2.1810764e-05
0.0010095171
2.2336503e-05
0.001009506
2.2870956e-05
0.00100948
2.3415095e-05
0.0010094331
2.3969042e-05
0.0010093565
2.4533461e-05
0.0010092336
2.5105008e-05
0.0010090377
2.5681853e-05
0.0010087297
2.6263552e-05
0.0010082526
2.6850326e-05
0.001007494
2.7432096e-05
0.0010062939
2.7994305e-05
0.001004494
2.8524898e-05
0.001001952
2.9006461e-05
0.00099860958
2.9380804e-05
0.00099452743
2.9586695e-05
0.00098985308
2.9604647e-05
0.00098478984
2.9425099e-05
0.00097953829
2.906944e-05
0.00097424561
2.8592012e-05
0.00096899363
2.8055469e-05
0.00096381545
2.7503754e-05
0.0009587211
2.6958513e-05
0.00095371514
2.6426935e-05
0.00094880251
2.5908344e-05
0.00094398729
2.5401869e-05
0.00093927072
2.4909697e-05
0.00093465182
2.4433309e-05
0.00093012881
2.397207e-05
0.00092569965
2.3526199e-05
0.00092136212
2.3095101e-05
0.00091711386
2.2677908e-05
0.00091295231
2.2274739e-05
0.00090887492
2.18848e-05
0.00090487917
2.1507725e-05
0.00090096253
2.114303e-05
0.00089712257
2.0790094e-05
0.00089335687
2.0448704e-05
0.0008896631
2.0118308e-05
0.00088603897
1.9798573e-05
0.00088248226
1.9489103e-05
0.00087899083
1.9189537e-05
0.00087556257
1.8899535e-05
0.00087219546
1.8618777e-05
0.00086888753
1.8346968e-05
0.00086563687
1.8083842e-05
0.00086244161
1.7829163e-05
0.00085929994
1.7582729e-05
0.00085621007
1.7344415e-05
0.00085317027
1.7114112e-05
0.00085017877
1.6891978e-05
0.00084723387
1.6677955e-05
0.00084433364
1.6473244e-05
0.00084147644
1.6277082e-05
0.00083865945
1.6095421e-05
0.00083588158
1.5921906e-05
0.00083313574
1.5785143e-05
0.00083042529
1.5649201e-05
0.00082771205
1.5692957e-05
0.00082511309
1.5306813e-05
0.0008219568
1.7707325e-05
1.4463894e-05
0.0010392824
5.6469522e-06
-0.0010391987
0.0010394915
7.0243519e-06
0.0010397527
8.1817173e-06
0.0010400129
9.0933291e-06
0.0010402597
9.8567576e-06
0.0010404926
1.0526575e-05
0.0010407091
1.1113624e-05
0.0010409092
1.1635702e-05
0.0010410947
1.2113473e-05
0.0010412676
1.2558687e-05
0.0010414296
1.2977074e-05
0.0010415822
1.3373648e-05
0.0010417263
1.3750239e-05
0.001041863
1.4109548e-05
0.0010419931
1.4451404e-05
0.0010421169
1.477428e-05
0.0010422345
1.5075907e-05
0.0010423455
1.5353395e-05
0.0010424491
1.5605455e-05
0.0010425449
1.5832869e-05
0.0010426324
1.6037317e-05
0.0010427113
1.6221604e-05
0.0010427812
1.6390016e-05
0.001042842
1.6549025e-05
0.0010428939
1.6707656e-05
0.0010429381
1.6877617e-05
0.0010429758
1.7068663e-05
0.0010430084
1.728886e-05
0.0010430377
1.7546569e-05
0.0010430656
1.7844937e-05
0.001043093
1.818175e-05
0.0010431204
1.8552062e-05
0.0010431483
1.8952337e-05
0.0010431763
1.9376753e-05
0.001043204
1.9821132e-05
0.0010432313
2.0286003e-05
0.0010432579
2.0769582e-05
0.0010432836
2.127018e-05
0.0010433079
2.1786466e-05
0.00104333
2.2314372e-05
0.0010433489
2.2852025e-05
0.0010433635
2.3400478e-05
0.0010433724
2.3960133e-05
0.0010433741
2.4531832e-05
0.0010433655
2.5113562e-05
0.0010433424
2.5704966e-05
0.0010432985
2.6307412e-05
0.0010432261
2.6922814e-05
0.0010431103
2.7547819e-05
0.0010429259
2.8178785e-05
0.0010426349
2.8815822e-05
0.0010421832
2.9458153e-05
0.0010414682
3.0095826e-05
0.0010403419
3.0713021e-05
0.0010386502
3.1296294e-05
0.0010362548
3.1820553e-05
0.0010330961
3.2228092e-05
0.0010292224
3.2465792e-05
0.0010247665
3.2511356e-05
0.0010199156
3.2354636e-05
0.0010148516
3.2022485e-05
0.0010097076
3.1570935e-05
0.0010045605
3.1055413e-05
0.00099944756
3.0514858e-05
0.00099438727
2.9969988e-05
0.00098939273
2.9427843e-05
0.00098447431
2.8890496e-05
0.00097963857
2.836194e-05
0.00097488875
2.7844916e-05
0.00097022619
2.7340469e-05
0.00096565114
2.6849789e-05
0.00096116321
2.6372733e-05
0.00095676139
2.5909538e-05
0.00095244429
2.546013e-05
0.00094821027
2.5024121e-05
0.00094405748
2.4601489e-05
0.000939984
2.4191786e-05
0.00093598782
2.3794761e-05
0.00093206686
2.3410055e-05
0.00092821908
2.3037322e-05
0.00092444239
2.2676224e-05
0.00092073474
2.2326427e-05
0.00091709409
2.1987618e-05
0.00091351843
2.16595e-05
0.00091000578
2.1341813e-05
0.00090655419
2.1034323e-05
0.00090316172
2.0736886e-05
0.00089982646
2.0449366e-05
0.0008965465
2.0171945e-05
0.00089331993
1.9904525e-05
0.00089014466
1.9648513e-05
0.00088701883
1.9402909e-05
0.00088393946
1.9174794e-05
0.00088090523
1.8956132e-05
0.00087790876
1.8781611e-05
0.00087495356
1.8604399e-05
0.00087199897
1.8647551e-05
0.00086917346
1.8132318e-05
0.00086573797
2.1142816e-05
1.6914393e-05
0.0010741071
5.5740427e-06
-0.0010740342
0.0010742913
6.8401664e-06
0.0010745289
7.9440946e-06
0.001074774
8.8482678e-06
0.0010750125
9.6182278e-06
0.0010752414
1.0297704e-05
0.0010754572
1.0897836e-05
0.0010756587
1.143417e-05
0.001075847
1.1925186e-05
0.0010760235
1.2382195e-05
0.0010761894
1.2811136e-05
0.0010763461
1.3216981e-05
0.0010764943
1.3602023e-05
0.0010766351
1.3968755e-05
0.0010767691
1.4317364e-05
0.0010768968
1.4646631e-05
0.001077018
1.495464e-05
0.0010771325
1.5238952e-05
0.0010772395
1.549841e-05
0.0010773387
1.5733711e-05
0.0010774295
1.5946498e-05
0.0010775116
1.6139515e-05
0.0010775846
1.6316962e-05
0.0010776486
1.64851e-05
0.0010777037
1.6652534e-05
0.001077751
1.6830267e-05
0.0010777919
1.7027821e-05
0.0010778276
1.7253107e-05
0.0010778602
1.7514043e-05
0.0010778911
1.7813952e-05
0.0010779217
1.815115e-05
0.0010779525
1.8521269e-05
0.0010779839
1.8920938e-05
0.0010780158
1.9344886e-05
0.0010780478
1.9789123e-05
0.00107808
2.0253834e-05
0.0010781122
2.0737405e-05
0.0010781442
2.1238139e-05
0.001078176
2.1754688e-05
0.001078207
2.228336e-05
0.0010782367
2.2822337e-05
0.0010782646
2.3372557e-05
0.0010782902
2.3934505e-05
0.0010783131
2.4508975e-05
0.0010783323
2.5094379e-05
0.0010783466
2.5690656e-05
0.0010783545
2.6299501e-05
0.0010783543
2.6922989e-05
0.0010783432
2.7558906e-05
0.0010783165
2.8205472e-05
0.0010782675
2.8864882e-05
0.0010781871
2.9538503e-05
0.0010780597
3.0223303e-05
0.0010778576
3.0915081e-05
0.0010775407
3.1613145e-05
0.0010770468
3.23145e-05
0.001076268
3.3006929e-05
0.0010750604
3.367338e-05
0.001073273
3.4298768e-05
0.0010707874
3.484015e-05
0.0010675687
3.5241186e-05
0.0010636764
3.5463268e-05
0.0010592517
3.5480116e-05
0.0010544717
3.5294844e-05
0.0010494943
3.4947438e-05
0.0010444295
3.4492569e-05
0.0010393414
3.397867e-05
0.0010342652
3.3438132e-05
0.0010292242
3.2885883e-05
0.0010242358
3.2328919e-05
0.0010193118
3.1773717e-05
0.00101446
3.122454e-05
0.001009685
3.0684607e-05
0.0010049894
3.0155644e-05
0.0010003751
2.9638509e-05
0.00099584234
2.91342e-05
0.00099139116
2.8642971e-05
0.00098702083
2.8165086e-05
0.00098273033
2.7700553e-05
0.00097851835
2.7249303e-05
0.00097438338
2.6811196e-05
0.00097032377
2.6386038e-05
0.00096633777
2.5973617e-05
0.00096242357
2.5573708e-05
0.00095857928
2.5186095e-05
0.00095480303
2.4810578e-05
0.00095109287
2.444704e-05
0.00094744688
2.4095362e-05
0.00094386305
2.3755774e-05
0.0009403394
2.3428171e-05
0.00093687373
2.3114183e-05
0.00093346404
2.28126e-05
0.0009301072
2.2531635e-05
0.00092680173
2.2261601e-05
0.00092354
2.2043346e-05
0.00092032564
2.1818759e-05
0.00091711555
2.1857637e-05
0.00091404965
2.119822e-05
0.00091032038
2.4872085e-05
1.9558927e-05
0.0011100952
5.5091046e-06
-0.0011100303
0.0011102587
6.676652e-06
0.0011104755
7.7273152e-06
0.0011107061
8.6176948e-06
0.0011109356
9.3886568e-06
0.0011111594
1.0073944e-05
0.0011113731
1.068409e-05
0.0011115749
1.1232406e-05
0.0011117649
1.1735145e-05
0.0011119442
1.2202985e-05
0.0011121134
1.2641879e-05
0.0011122737
1.3056677e-05
0.0011124258
1.3449971e-05
0.0011125704
1.38241e-05
0.0011127083
1.4179509e-05
0.0011128396
1.4515271e-05
0.0011129645
1.4829789e-05
0.0011130824
1.5121017e-05
0.0011131929
1.538795e-05
0.0011132954
1.5631218e-05
0.0011133895
1.5852422e-05
0.0011134747
1.6054245e-05
0.0011135509
1.6240787e-05
0.0011136179
1.641809e-05
0.0011136761
1.6594353e-05
0.0011137264
1.6779928e-05
0.0011137702
1.6984063e-05
0.0011138088
1.7214501e-05
0.0011138441
1.7478771e-05
0.0011138777
1.7780326e-05
0.0011139109
1.8117976e-05
0.0011139442
1.8487901e-05
0.0011139782
1.8886929e-05
0.0011140128
1.9310281e-05
0.0011140478
1.9754171e-05
0.0011140831
2.0218495e-05
0.0011141188
2.0701755e-05
0.0011141547
2.1202255e-05
0.0011141907
2.1718633e-05
0.0011142266
2.2247515e-05
0.0011142618
2.2787118e-05
0.0011142961
2.333823e-05
0.0011143293
2.3901332e-05
0.0011143611
2.4477146e-05
0.0011143912
2.5064332e-05
0.0011144189
2.56629e-05
0.0011144439
2.6274546e-05
0.0011144656
2.6901296e-05
0.0011144831
2.7541412e-05
0.001114495
2.8193591e-05
0.0011144995
2.8860348e-05
0.0011144945
2.9543455e-05
0.0011144767
3.0241138e-05
0.0011144404
3.0951381e-05
0.0011143777
3.1675879e-05
0.0011142771
3.2415037e-05
0.0011141187
3.3165351e-05
0.0011138695
3.3922591e-05
0.0011134825
3.4685794e-05
0.0011128765
3.5446084e-05
0.0011119299
3.6187778e-05
0.0011104984
3.6894782e-05
0.0011084442
3.753439e-05
0.0011056847