/*--------------------------------*- C++ -*----------------------------------*\
  =========                 |
  \\      /  F ield         | OpenFOAM: The Open Source CFD Toolbox
   \\    /   O peration     | Website:  https://openfoam.org
    \\  /    A nd           | Version:  12
     \\/     M anipulation  |
\*---------------------------------------------------------------------------*/
FoamFile
{
    format      ascii;
    class       volVectorField;
    location    "1400";
    object      U;
}
// * * * * * * * * * * * * * * * * * * * * * * * * * * * * * * * * * * * * * //

dimensions      [0 1 -1 0 0 0 0];

internalField   nonuniform List<vector> 
13056
(
(1 4.2578625e-10 2.7367864e-24)
(0.99996798 1.3784448e-09 0)
(0.99990482 2.2689467e-09 0)
(0.99982792 3.0328733e-09 0)
(0.9997395 3.9027556e-09 0)
(0.99964019 4.9246847e-09 0)
(0.99953042 6.1395417e-09 0)
(0.99941006 7.6055734e-09 0)
(0.99927857 9.3915855e-09 0)
(0.99913508 1.1580903e-08 0)
(0.9989784 1.4278561e-08 0)
(0.99880695 1.7625824e-08 0)
(0.99861859 2.1804221e-08 0)
(0.99841056 2.7097132e-08 0)
(0.99817854 3.3821682e-08 0)
(0.99791792 4.2752555e-08 0)
(0.99761747 5.4194837e-08 0)
(0.99727269 7.1633765e-08 0)
(0.99683961 9.2025646e-08 0)
(0.99634941 1.3890052e-07 0)
(0.99554902 1.7646176e-07 0)
(0.99479136 4.686499e-07 0)
(0.99164649 3.6922141e-07 -1.4565682e-20)
(0.99174393 0.00012020116 1.8804518e-16)
(0.038904433 0.00012399948 0)
(0.029746609 1.1569747e-07 -3.6257313e-20)
(0.027401978 4.3395885e-08 0)
(0.025856496 3.561714e-08 0)
(0.024754549 2.7600903e-08 0)
(0.023868748 2.3081651e-08 0)
(0.023115472 1.9848324e-08 0)
(0.022467012 1.715168e-08 0)
(0.021904909 1.4933194e-08 0)
(0.021411536 1.3147411e-08 0)
(0.020972934 1.1693602e-08 0)
(0.020579238 1.0474728e-08 0)
(0.020223655 9.4390288e-09 0)
(0.019900111 8.5738482e-09 0)
(0.019602945 7.8419538e-09 0)
(0.019328445 7.2037424e-09 0)
(0.019073733 6.6497245e-09 0)
(0.018836028 6.1653016e-09 0)
(0.018613248 5.7366024e-09 0)
(0.018403634 5.3560222e-09 0)
(0.018205683 5.0150544e-09 0)
(0.018018168 4.7087372e-09 0)
(0.017839959 4.4321138e-09 0)
(0.017670168 4.1797867e-09 0)
(0.017508021 3.9500618e-09 0)
(0.017352781 3.7389067e-09 0)
(0.017203924 3.543332e-09 0)
(0.017060929 3.3637477e-09 0)
(0.016923252 3.1979199e-09 0)
(0.016790494 3.0435552e-09 0)
(0.016662285 2.9005676e-09 0)
(0.016538229 2.7680828e-09 0)
(0.016417997 2.6440833e-09 0)
(0.016301347 2.5275055e-09 0)
(0.016188027 2.4186154e-09 0)
(0.016077766 2.3165124e-09 0)
(0.015970365 2.2198484e-09 0)
(0.015865665 2.128391e-09 0)
(0.015763482 2.0423865e-09 0)
(0.01566362 1.9612257e-09 0)
(0.015565935 1.8839574e-09 0)
(0.015470313 1.8104274e-09 0)
(0.015376621 1.7408258e-09 0)
(0.015284711 1.6749137e-09 0)
(0.015194464 1.6119266e-09 0)
(0.015105799 1.5515331e-09 0)
(0.015018629 1.4939882e-09 0)
(0.014932836 1.4393981e-09 0)
(0.014848309 1.3871183e-09 0)
(0.014764993 1.3366988e-09 0)
(0.014682822 1.2883968e-09 0)
(0.014601711 1.2422681e-09 0)
(0.014521569 1.1981527e-09 0)
(0.014442324 1.1556164e-09 0)
(0.014363933 1.1144955e-09 0)
(0.014286343 1.074985e-09 0)
(0.014209475 1.0371861e-09 0)
(0.014133253 1.0007842e-09 0)
(0.014057635 9.6547484e-10 0)
(0.013982579 9.3134977e-10 0)
(0.013908031 8.9849508e-10 0)
(0.013833923 8.6692203e-10 0)
(0.013760192 8.3633843e-10 0)
(0.013686808 8.0655886e-10 0)
(0.013613735 7.7773847e-10 0)
(0.013540914 7.4994682e-10 0)
(0.013468283 7.230713e-10 0)
(0.013395798 6.9691327e-10 0)
(0.013323425 6.7144299e-10 0)
(0.013251125 6.4677002e-10 0)
(0.013178833 6.2294597e-10 0)
(0.013106487 5.9978321e-10 0)
(0.013034055 5.771461e-10 0)
(0.012961501 5.5514845e-10 0)
(0.012888761 5.3385257e-10 0)
(0.01281577 5.131324e-10 0)
(0.012742486 4.9286976e-10 0)
(0.012668868 4.7312039e-10 0)
(0.012594854 4.5395164e-10 0)
(0.012520371 4.3529839e-10 0)
(0.012445362 4.170615e-10 0)
(0.012369777 3.9926862e-10 0)
(0.01229354 3.819825e-10 0)
(0.012216564 3.651235e-10 0)
(0.012138786 3.486205e-10 0)
(0.012060136 3.3252763e-10 0)
(0.011980514 3.1687761e-10 0)
(0.011899813 3.0156493e-10 0)
(0.011817968 2.8669042e-10 0)
(0.011736656 2.7264262e-10 0)
(0.011658431 2.596004e-10 0)
(0.011584017 2.4753883e-10 0)
(0.011513115 2.3642393e-10 0)
(0.011445438 2.2619208e-10 0)
(0.011380727 2.1672261e-10 0)
(0.011318768 2.0792e-10 0)
(0.011259364 1.9975844e-10 0)
(0.011202318 1.9220499e-10 0)
(0.011147457 1.8517147e-10 0)
(0.011094635 1.7859355e-10 0)
(0.011043717 1.724611e-10 0)
(0.010994568 1.6675705e-10 0)
(0.010947064 1.6148203e-10 0)
(0.010901071 1.5657645e-10 0)
(0.010856499 1.5211728e-10 0)
(0.010813169 1.4794842e-10 0)
(0.010771094 1.4477025e-10 0)
(0.010729663 1.4133142e-10 0)
(0.010689688 1.4153994e-10 0)
(0.010648119 6.7365523e-10 0)
(0.01061153 1.640104e-10 2.2616609e-22)
(0.010552131 5.1732099e-10 0)
(1 1.2838951e-09 0)
(0.99996796 4.1585912e-09 0)
(0.99990472 6.8464029e-09 0)
(0.99982771 9.1525221e-09 0)
(0.99973913 1.1778074e-08 0)
(0.99963965 1.4862202e-08 0)
(0.99952969 1.8528276e-08 0)
(0.99940912 2.2951984e-08 0)
(0.99927741 2.8340842e-08 0)
(0.9991337 3.4946134e-08 0)
(0.99897677 4.3084607e-08 0)
(0.99880508 5.3182235e-08 0)
(0.99861646 6.5786394e-08 0)
(0.99840817 8.1751564e-08 0)
(0.99817588 1.0203392e-07 0)
(0.99791498 1.2896929e-07 0)
(0.99761424 1.6347746e-07 0)
(0.99726915 2.1606663e-07 0)
(0.99683575 2.7755985e-07 0)
(0.99634523 4.1889697e-07 0)
(0.99554444 5.3214315e-07 0)
(0.99478651 1.4130816e-06 0)
(0.99164089 1.1138916e-06 5.1992052e-20)
(0.99173755 0.00035367516 -7.4891821e-20)
(0.11342999 0.00035907931 0)
(0.088202758 5.5847454e-06 0)
(0.081331161 1.9491092e-06 0)
(0.076829248 1.3290606e-06 0)
(0.07361642 9.9144831e-07 0)
(0.071031474 8.1097442e-07 0)
(0.068830874 6.8749089e-07 0)
(0.066934288 5.8823646e-07 0)
(0.065288525 5.0794464e-07 0)
(0.063842678 4.4404199e-07 0)
(0.062556302 3.9248337e-07 0)
(0.061400777 3.4961686e-07 0)
(0.060356392 3.1345945e-07 0)
(0.059405528 2.8332199e-07 0)
(0.058531721 2.5797035e-07 0)
(0.057724142 2.3602926e-07 0)
(0.056974416 2.1700105e-07 0)
(0.056274449 2.0044892e-07 0)
(0.055618159 1.8586608e-07 0)
(0.055000416 1.729514e-07 0)
(0.054416832 1.6143102e-07 0)
(0.053863822 1.5111058e-07 0)
(0.053338091 1.4181667e-07 0)
(0.052837038 1.3337522e-07 0)
(0.0523584 1.2570191e-07 0)
(0.051900023 1.1867469e-07 0)
(0.051460374 1.1219105e-07 0)
(0.051037929 1.0624355e-07 0)
(0.050631095 1.007692e-07 0)
(0.050238702 9.5688966e-08 0)
(0.049859668 9.0989768e-08 0)
(0.049492834 8.6645229e-08 0)
(0.04913723 8.2590252e-08 0)
(0.048792147 7.8788224e-08 0)
(0.048456848 7.5241005e-08 0)
(0.04813054 7.192298e-08 0)
(0.047812635 6.8790362e-08 0)
(0.047502667 6.5832281e-08 0)
(0.047200096 6.3054507e-08 0)
(0.046904348 6.0438631e-08 0)
(0.046614997 5.7954757e-08 0)
(0.046331708 5.5595098e-08 0)
(0.046054093 5.3365078e-08 0)
(0.045781716 5.1256664e-08 0)
(0.045514224 4.9246836e-08 0)
(0.045251382 4.7323523e-08 0)
(0.044992932 4.5493676e-08 0)
(0.044738527 4.3759937e-08 0)
(0.044487843 4.2103283e-08 0)
(0.044240712 4.0509411e-08 0)
(0.043996946 3.8983904e-08 0)
(0.043756287 3.752984e-08 0)
(0.043518474 3.6141079e-08 0)
(0.043283292 3.4805106e-08 0)
(0.043050613 3.3515911e-08 0)
(0.042820279 3.2278924e-08 0)
(0.042592062 3.1097017e-08 0)
(0.042365732 2.996089e-08 0)
(0.042141165 2.8861385e-08 0)
(0.041918243 2.7799956e-08 0)
(0.0416968 2.6779831e-08 0)
(0.041476638 2.580066e-08 0)
(0.041257568 2.4854135e-08 0)
(0.041039504 2.3934377e-08 0)
(0.040822337 2.3045328e-08 0)
(0.040605893 2.2189383e-08 0)
(0.040389989 2.1362935e-08 0)
(0.04017449 2.0560262e-08 0)
(0.039959303 1.9779933e-08 0)
(0.039744303 1.902519e-08 0)
(0.039529303 1.8297393e-08 0)
(0.039314118 1.7591175e-08 0)
(0.039098652 1.6902371e-08 0)
(0.038882798 1.6233985e-08 0)
(0.038666363 1.5587881e-08 0)
(0.038449156 1.4960439e-08 0)
(0.038231052 1.4348181e-08 0)
(0.03801193 1.3752369e-08 0)
(0.037791601 1.3174956e-08 0)
(0.03756985 1.2614136e-08 0)
(0.037346505 1.2066988e-08 0)
(0.037121418 1.1534081e-08 0)
(0.036894362 1.101713e-08 0)
(0.036665078 1.0514003e-08 0)
(0.036433378 1.0022573e-08 0)
(0.036199048 9.5441531e-09 0)
(0.035961797 9.0797894e-09 0)
(0.035721297 8.6263942e-09 0)
(0.035477357 8.1867647e-09 0)
(0.035234975 7.7721809e-09 0)
(0.035001766 7.3882315e-09 0)
(0.034779892 7.0340758e-09 0)
(0.034568467 6.7082823e-09 0)
(0.034366635 6.4088809e-09 0)
(0.03417363 6.1322889e-09 0)
(0.033988815 5.8756093e-09 0)
(0.033811604 5.6379393e-09 0)
(0.033641415 5.418213e-09 0)
(0.033477727 5.2139202e-09 0)
(0.033320112 5.0231535e-09 0)
(0.033168166 4.8454497e-09 0)
(0.033021489 4.680301e-09 0)
(0.032879709 4.5276462e-09 0)
(0.032742431 4.3857794e-09 0)
(0.032609385 4.2569219e-09 0)
(0.032480038 4.1361686e-09 0)
(0.032354429 4.0441645e-09 0)
(0.032230739 3.942865e-09 0)
(0.032111383 3.9488247e-09 0)
(0.031987279 3.8036602e-09 0)
(0.031878018 4.6385842e-09 -3.4253901e-22)
(0.031700633 2.9070946e-09 2.5469423e-23)
(1 2.1619205e-09 0)
(0.99996794 7.0041686e-09 0)
(0.9999046 1.1533441e-08 0)
(0.99982744 1.542017e-08 0)
(0.99973867 1.9844554e-08 0)
(0.99963897 2.5041097e-08 0)
(0.99952877 3.1217656e-08 0)
(0.99940795 3.8670088e-08 0)
(0.99927596 4.7747799e-08 0)
(0.99913196 5.8873875e-08 0)
(0.99897473 7.2581583e-08 0)
(0.99880273 8.9588063e-08 0)
(0.99861379 1.1081479e-07 0)
(0.99840517 1.3770024e-07 0)
(0.99817253 1.7185398e-07 0)
(0.99791128 2.1720808e-07 0)
(0.99761018 2.7531073e-07 0)
(0.99726472 3.6385042e-07 0)
(0.99683091 4.6737954e-07 0)
(0.99633999 7.053046e-07 0)
(0.99553871 8.9594898e-07 0)
(0.99478043 2.3787464e-06 0)
(0.99163395 1.8766401e-06 -2.750509e-20)
(0.99172973 0.00057094721 7.8849874e-54)
(0.18094747 0.00058368081 -9.5029196e-54)
(0.14104658 1.6339889e-05 0)
(0.13023222 5.694387e-06 0)
(0.12332035 3.8290664e-06 0)
(0.11839677 2.8525826e-06 0)
(0.11443394 2.3332484e-06 0)
(0.11105572 1.9791124e-06 0)
(0.10813889 1.6947639e-06 0)
(0.10560316 1.4646163e-06 0)
(0.10337158 1.2813246e-06 0)
(0.10138292 1.1333413e-06 0)
(0.099593829 1.0102078e-06 0)
(0.097974578 9.0625796e-07 0)
(0.096498454 8.1954979e-07 0)
(0.095140322 7.4657696e-07 0)
(0.093883717 6.8338865e-07 0)
(0.092715914 6.2855107e-07 0)
(0.091624537 5.8083052e-07 0)
(0.090600301 5.3876919e-07 0)
(0.089635368 5.0150129e-07 0)
(0.088723022 4.682446e-07 0)
(0.087857777 4.3844005e-07 0)
(0.087034577 4.115901e-07 0)
(0.08624944 3.8719507e-07 0)
(0.085498893 3.6501153e-07 0)
(0.084779626 3.4469e-07 0)
(0.084089288 3.2593454e-07 0)
(0.083425544 3.0872384e-07 0)
(0.082785933 2.9287855e-07 0)
(0.082168658 2.7816989e-07 0)
(0.081572056 2.6456028e-07 0)
(0.080994334 2.5197513e-07 0)
(0.080433992 2.4022614e-07 0)
(0.07988994 2.2920727e-07 0)
(0.079361042 2.1892424e-07 0)
(0.078846065 2.0930392e-07 0)
(0.078344103 2.0021924e-07 0)
(0.077854439 1.9163862e-07 0)
(0.077376234 1.8357935e-07 0)
(0.076908597 1.7598855e-07 0)
(0.076450869 1.6877946e-07 0)
(0.076002532 1.6192933e-07 0)
(0.075562983 1.5545439e-07 0)
(0.075131542 1.4933158e-07 0)
(0.074707662 1.4349417e-07 0)
(0.074290975 1.3790689e-07 0)
(0.073881086 1.3259018e-07 0)
(0.073477449 1.27552e-07 0)
(0.073079558 1.2273717e-07 0)
(0.072687151 1.1810405e-07 0)
(0.072299939 1.1366876e-07 0)
(0.071917515 1.0944069e-07 0)
(0.071539471 1.0540195e-07 0)
(0.071165468 1.0151622e-07 0)
(0.070795308 9.7765906e-08 0)
(0.070428743 9.416692e-08 0)
(0.070065415 9.0727766e-08 0)
(0.069704961 8.7421439e-08 0)
(0.069347185 8.422127e-08 0)
(0.068991902 8.113139e-08 0)
(0.06863885 7.8161417e-08 0)
(0.068287716 7.5310322e-08 0)
(0.0679382 7.2553979e-08 0)
(0.067590167 6.9875219e-08 0)
(0.067243445 6.7285515e-08 0)
(0.066897755 6.4791975e-08 0)
(0.066552806 6.2384094e-08 0)
(0.066208385 6.0045217e-08 0)
(0.065864342 5.7771125e-08 0)
(0.065520478 5.5571337e-08 0)
(0.065176495 5.344985e-08 0)
(0.064832092 5.1391045e-08 0)
(0.064487122 4.9382766e-08 0)
(0.064141406 4.7433759e-08 0)
(0.063794638 4.5549519e-08 0)
(0.063446511 4.3719515e-08 0)
(0.063096819 4.1933598e-08 0)
(0.062745371 4.0195425e-08 0)
(0.062391859 3.8510736e-08 0)
(0.062035935 3.6874295e-08 0)
(0.061677323 3.5277567e-08 0)
(0.06131578 3.3722205e-08 0)
(0.060950938 3.2213242e-08 0)
(0.060582377 3.0744479e-08 0)
(0.060209791 2.9309701e-08 0)
(0.059832832 2.7912737e-08 0)
(0.059451022 2.655667e-08 0)
(0.059063834 2.5232478e-08 0)
(0.058670948 2.3948317e-08 0)
(0.058280416 2.2737174e-08 0)
(0.057904515 2.1615458e-08 0)
(0.057546748 2.0580706e-08 0)
(0.057205707 1.9628712e-08 0)
(0.056880027 1.8753756e-08 0)
(0.05656849 1.7945386e-08 0)
(0.056270079 1.7195149e-08 0)
(0.055983859 1.6500417e-08 0)
(0.055708902 1.5858087e-08 0)
(0.055444373 1.5260838e-08 0)
(0.055189591 1.4703097e-08 0)
(0.05494391 1.4183511e-08 0)
(0.05470669 1.3700612e-08 0)
(0.054477335 1.3254225e-08 0)
(0.054255209 1.2839363e-08 0)
(0.054039885 1.2462556e-08 0)
(0.053830501 1.2109382e-08 0)
(0.053627125 1.1840471e-08 0)
(0.053426813 1.1543968e-08 0)
(0.053233482 1.1562311e-08 0)
(0.053032411 1.1066044e-08 0)
(0.05285536 1.3593761e-08 0)
(0.052567862 8.4417161e-09 0)
(1 3.0729656e-09 5.617607e-24)
(0.9999679 9.9583394e-09 0)
(0.99990446 1.6402003e-08 0)
(0.99982711 2.1932717e-08 0)
(0.99973811 2.8227315e-08 0)
(0.99963815 3.5619449e-08 0)
(0.99952765 4.4404768e-08 0)
(0.99940651 5.5003849e-08 0)
(0.99927419 6.7913317e-08 0)
(0.99912983 8.3734478e-08 0)
(0.99897224 1.0322519e-07 0)
(0.99879986 1.2740457e-07 0)
(0.99861052 1.5758207e-07 0)
(0.9984015 1.9580175e-07 0)
(0.99816845 2.443507e-07 0)
(0.99790677 3.0881633e-07 0)
(0.99760522 3.9139792e-07 0)
(0.9972593 5.1723012e-07 0)
(0.99682501 6.6435971e-07 0)
(0.9963336 1.0024547e-06 0)
(0.99553171 1.2733759e-06 0)
(0.99477302 3.3801562e-06 0)
(0.99162554 2.668053e-06 0)
(0.99172036 0.00077883797 -4.1059709e-54)
(0.23895141 0.00080491549 4.2214406e-54)
(0.18500574 3.2355621e-05 0)
(0.17085099 1.1135732e-05 0)
(0.16213862 7.3892404e-06 0)
(0.15597542 5.49721e-06 0)
(0.15102702 4.4974105e-06 0)
(0.14681054 3.8183259e-06 0)
(0.14316777 3.2736154e-06 0)
(0.13999797 2.832443e-06 0)
(0.13720549 2.4808098e-06 0)
(0.13471427 2.1966725e-06 0)
(0.13247067 1.9599816e-06 0)
(0.13043805 1.7599252e-06 0)
(0.12858338 1.5929107e-06 0)
(0.12687535 1.4522618e-06 0)
(0.12529361 1.3303625e-06 0)
(0.12382244 1.2244839e-06 0)
(0.12244643 1.1322918e-06 0)
(0.12115407 1.0509764e-06 0)
(0.11993562 9.7887943e-07 0)
(0.11878273 9.1450357e-07 0)
(0.1176886 8.5677615e-07 0)
(0.11664693 8.0474188e-07 0)
(0.11565277 7.5743792e-07 0)
(0.1147018 7.1439967e-07 0)
(0.11378988 6.7495376e-07 0)
(0.11291411 6.3852625e-07 0)
(0.11207158 6.0508256e-07 0)
(0.1112592 5.7427849e-07 0)
(0.11047475 5.4566864e-07 0)
(0.10971616 5.1918448e-07 0)
(0.10898117 4.9468531e-07 0)
(0.10826792 4.7180362e-07 0)
(0.10757504 4.5033345e-07 0)
(0.10690112 4.3028946e-07 0)
(0.10624461 4.1153089e-07 0)
(0.10560437 3.9380868e-07 0)
(0.10497951 3.7706226e-07 0)
(0.10436899 3.6132815e-07 0)
(0.10377167 3.465038e-07 0)
(0.10318674 3.3241898e-07 0)
(0.10261354 3.1902982e-07 0)
(0.10205133 3.0637003e-07 0)
(0.10149924 2.9439531e-07 0)
(0.10095658 2.8297448e-07 0)
(0.1004229 2.7203835e-07 0)
(0.099897693 2.6162847e-07 0)
(0.099380276 2.5176151e-07 0)
(0.098870002 2.4232882e-07 0)
(0.098366549 2.3324836e-07 0)
(0.097869551 2.2455266e-07 0)
(0.097378493 2.1626115e-07 0)
(0.096892855 2.0833871e-07 0)
(0.096412208 2.007138e-07 0)
(0.095936302 1.9335179e-07 0)
(0.095464826 1.8628475e-07 0)
(0.094997319 1.7952994e-07 0)
(0.094533318 1.7303409e-07 0)
(0.094072577 1.6674456e-07 0)
(0.093614859 1.6066972e-07 0)
(0.09315983 1.5482909e-07 0)
(0.092707088 1.4922085e-07 0)
(0.092256246 1.4379728e-07 0)
(0.091807133 1.3852446e-07 0)
(0.091359528 1.3342538e-07 0)
(0.090913071 1.2851442e-07 0)
(0.090467388 1.2377084e-07 0)
(0.0900222 1.1916168e-07 0)
(0.089577316 1.1467865e-07 0)
(0.089132478 1.1034087e-07 0)
(0.088687297 1.0615641e-07 0)
(0.088241384 1.0209433e-07 0)
(0.087794544 9.8130549e-08 0)
(0.087346548 9.4282573e-08 0)
(0.086896992 9.0561456e-08 0)
(0.086445476 8.6946346e-08 0)
(0.08599173 8.3417126e-08 0)
(0.0855355 7.9981112e-08 0)
(0.085076384 7.6649843e-08 0)
(0.084613924 7.3412987e-08 0)
(0.084147754 7.0253589e-08 0)
(0.083677552 6.7174991e-08 0)
(0.083202835 6.4187299e-08 0)
(0.082723046 6.1278245e-08 0)
(0.082237777 5.843548e-08 0)
(0.081746568 5.5666665e-08 0)
(0.081248784 5.2978039e-08 0)
(0.080743724 5.035162e-08 0)
(0.080230962 4.780364e-08 0)
(0.079720998 4.5399816e-08 0)
(0.07922988 4.317281e-08 0)
(0.078762216 4.1117722e-08 0)
(0.078316196 3.9226334e-08 0)
(0.077890067 3.7487422e-08 0)
(0.077482258 3.588037e-08 0)
(0.077091464 3.4388434e-08 0)
(0.076716479 3.3006502e-08 0)
(0.076356105 3.1728502e-08 0)
(0.076009266 3.0539912e-08 0)
(0.075675082 2.9429681e-08 0)
(0.075352717 2.8395183e-08 0)
(0.075041347 2.7433563e-08 0)
(0.074740196 2.6544545e-08 0)
(0.074448443 2.5718196e-08 0)
(0.074165532 2.4967723e-08 0)
(0.073890339 2.4264136e-08 0)
(0.073622962 2.3729438e-08 0)
(0.073359518 2.3138494e-08 0)
(0.073105204 2.3180273e-08 0)
(0.072840558 2.2223198e-08 0)
(0.072607521 2.7270938e-08 0)
(0.072229013 1.6940146e-08 0)
(1 4.030837e-09 0)
(0.99996787 1.3066395e-08 0)
(0.99990428 2.1527438e-08 0)
(0.99982671 2.8791545e-08 0)
(0.99973744 3.7057145e-08 0)
(0.99963716 4.6762375e-08 0)
(0.99952631 5.8295351e-08 0)
(0.99940479 7.2207816e-08 0)
(0.99927207 8.9151166e-08 0)
(0.99912728 1.0991404e-07 0)
(0.99896925 1.3549032e-07 0)
(0.99879641 1.6721648e-07 0)
(0.99860661 2.0680959e-07 0)
(0.9983971 2.5695006e-07 0)
(0.99816355 3.2063665e-07 0)
(0.99790136 4.0519601e-07 0)
(0.99759929 5.1351085e-07 0)
(0.99725282 6.785394e-07 0)
(0.99681794 8.7148956e-07 0)
(0.99632594 1.3148388e-06 0)
(0.99552335 1.6700681e-06 0)
(0.99476416 4.4323476e-06 0)
(0.99161554 3.5001171e-06 0)
(0.99170931 0.00098220845 0)
(0.28906995 0.0010254685 0)
(0.22160956 5.3720185e-05 0)
(0.20441168 1.809225e-05 0)
(0.1942231 1.1818071e-05 0)
(0.1870865 8.7656647e-06 0)
(0.18138188 7.1655932e-06 0)
(0.17653075 6.0845509e-06 0)
(0.17234245 5.2195746e-06 0)
(0.1686985 4.5193158e-06 0)
(0.16548802 3.9611647e-06 0)
(0.16262322 3.5100435e-06 0)
(0.16004236 3.1340191e-06 0)
(0.15770354 2.8159497e-06 0)
(0.15556887 2.5503049e-06 0)
(0.1536023 2.3265268e-06 0)
(0.15178053 2.1324557e-06 0)
(0.15008559 1.9638022e-06 0)
(0.14849975 1.8169006e-06 0)
(0.14700982 1.6872684e-06 0)
(0.14560466 1.5722809e-06 0)
(0.14427469 1.4695659e-06 0)
(0.1430121 1.3774225e-06 0)
(0.14180966 1.2943341e-06 0)
(0.14066171 1.2187666e-06 0)
(0.1395633 1.1499904e-06 0)
(0.13850967 1.086932e-06 0)
(0.13749749 1.0286714e-06 0)
(0.13652345 9.7516499e-07 0)
(0.13558398 9.2586562e-07 0)
(0.13467655 8.8005718e-07 0)
(0.13379878 8.3763813e-07 0)
(0.13294809 7.9838931e-07 0)
(0.13212231 7.6171842e-07 0)
(0.13131991 7.272957e-07 0)
(0.13053924 6.9515112e-07 0)
(0.12977853 6.6506057e-07 0)
(0.12903648 6.3662124e-07 0)
(0.12831206 6.0973778e-07 0)
(0.12760407 5.8447351e-07 0)
(0.12691121 5.606641e-07 0)
(0.12623254 5.3803402e-07 0)
(0.12556731 5.1651388e-07 0)
(0.12491466 4.9616135e-07 0)
(0.12427359 4.7690613e-07 0)
(0.12364331 4.5853543e-07 0)
(0.1230233 4.4093756e-07 0)
(0.12241298 4.2418228e-07 0)
(0.12181156 4.0829823e-07 0)
(0.12121828 3.9310868e-07 0)
(0.12063279 3.7848067e-07 0)
(0.12005466 3.6446853e-07 0)
(0.11948329 3.5110512e-07 0)
(0.11891808 3.3833365e-07 0)
(0.11835854 3.2603791e-07 0)
(0.11780438 3.1416186e-07 0)
(0.11725524 3.0275885e-07 0)
(0.11671058 2.9185767e-07 0)
(0.11616986 2.8137158e-07 0)
(0.11563281 2.7121509e-07 0)
(0.11509914 2.6140229e-07 0)
(0.11456847 2.5196576e-07 0)
(0.11404033 2.4290283e-07 0)
(0.11351426 2.3413572e-07 0)
(0.11299007 2.2560929e-07 0)
(0.11246751 2.1736165e-07 0)
(0.11194614 2.0941661e-07 0)
(0.11142554 2.017404e-07 0)
(0.11090537 1.9427936e-07 0)
(0.11038541 1.8702007e-07 0)
(0.10986537 1.7999425e-07 0)
(0.10934477 1.7321524e-07 0)
(0.10882316 1.6663248e-07 0)
(0.10830033 1.602068e-07 0)
(0.10777598 1.5396711e-07 0)
(0.10724966 1.4793163e-07 0)
(0.10672087 1.4206636e-07 0)
(0.10618932 1.3633851e-07 0)
(0.10565468 1.3076016e-07 0)
(0.1051165 1.2535036e-07 0)
(0.10457422 1.2009231e-07 0)
(0.1040274 1.1495831e-07 0)
(0.10347568 1.0995392e-07 0)
(0.10291846 1.0509584e-07 0)
(0.1023551 1.0036407e-07 0)
(0.1017851 9.5738432e-08 0)
(0.1012079 9.1231557e-08 0)
(0.10062277 8.6853797e-08 0)
(0.10002885 8.2575658e-08 0)
(0.099425637 7.8423671e-08 0)
(0.098825479 7.4505451e-08 0)
(0.098247269 7.0874361e-08 0)
(0.097696455 6.7522303e-08 0)
(0.097170937 6.4436071e-08 0)
(0.096668675 6.1597708e-08 0)
(0.096187838 5.8973715e-08 0)
(0.095726909 5.6536893e-08 0)
(0.095284483 5.4279104e-08 0)
(0.094859162 5.2190594e-08 0)
(0.094449691 5.0247694e-08 0)
(0.094055042 4.8432414e-08 0)
(0.093674244 4.6740588e-08 0)
(0.09330633 4.5167667e-08 0)
(0.092950395 4.3713338e-08 0)
(0.092605475 4.2361338e-08 0)
(0.092270922 4.1133678e-08 0)
(0.091945409 3.9982403e-08 0)
(0.091629067 3.9109664e-08 0)
(0.091317272 3.8142362e-08 0)
(0.091016253 3.8221576e-08 0)
(0.090702783 3.6659679e-08 0)
(0.090426813 4.4989188e-08 -3.0921454e-22)
(0.089978498 2.7934992e-08 2.3032662e-23)
(1 5.050114e-09 0)
(0.99996783 1.6376295e-08 0)
(0.99990408 2.6989858e-08 0)
(0.99982625 3.6104726e-08 0)
(0.99973665 4.6473618e-08 0)
(0.999636 5.8646156e-08 0)
(0.99952473 7.3109049e-08 0)
(0.99940276 9.0553662e-08 0)
(0.99926955 1.1179607e-07 0)
(0.99912427 1.3782418e-07 0)
(0.99896572 1.6988293e-07 0)
(0.99879234 2.0964623e-07 0)
(0.99860197 2.5926462e-07 0)
(0.9983919 3.2209506e-07 0)
(0.99815776 4.0189289e-07 0)
(0.99789497 5.0783395e-07 0)
(0.99759226 6.4352681e-07 0)
(0.99724515 8.5024782e-07 0)
(0.99680959 1.0919299e-06 0)
(0.9963169 1.6471977e-06 0)
(0.99551346 2.0920338e-06 0)
(0.9947537 5.5510805e-06 0)
(0.99160378 4.3856034e-06 0)
(0.99169646 0.0011844479 0)
(0.33377744 0.0012490839 0)
(0.25335135 8.1278469e-05 0)
(0.23321503 2.6744288e-05 0)
(0.2216894 1.7174509e-05 0)
(0.21370401 1.2684581e-05 0)
(0.20735367 1.0351853e-05 0)
(0.20196753 8.7855317e-06 0)
(0.19732295 7.5367388e-06 0)
(0.19328459 6.5270283e-06 0)
(0.18972791 5.7226723e-06 0)
(0.18655479 5.0727248e-06 0)
(0.1836964 4.5308833e-06 0)
(0.18110628 4.0723856e-06 0)
(0.17874239 3.6894361e-06 0)
(0.17656459 3.3668376e-06 0)
(0.17454708 3.0869642e-06 0)
(0.17267 2.8436889e-06 0)
(0.17091365 2.6317723e-06 0)
(0.16926342 2.4447224e-06 0)
(0.16770697 2.2787677e-06 -3.9531062e-33)
(0.16623369 2.1304961e-06 0)
(0.16483495 1.9974601e-06 0)
(0.16350273 1.8774742e-06 0)
(0.16223076 1.7683227e-06 0)
(0.16101358 1.6689665e-06 0)
(0.15984589 1.5778543e-06 0)
(0.15872403 1.4936493e-06 0)
(0.15764433 1.4163029e-06 0)
(0.15660284 1.3450254e-06 0)
(0.15559675 1.2787746e-06 0)
(0.15462347 1.2174143e-06 0)
(0.1536801 1.1606348e-06 0)
(0.15276426 1.1075725e-06 0)
(0.15187425 1.0577495e-06 0)
(0.15100827 1.0112182e-06 0)
(0.15016433 9.6765528e-07 0)
(0.14934098 9.2647164e-07 0)
(0.14853713 8.8753144e-07 0)
(0.14775142 8.5093271e-07 0)
(0.14698241 8.1643699e-07 0)
(0.14622906 7.8364127e-07 0)
(0.14549056 7.5244638e-07 0)
(0.14476594 7.2294067e-07 0)
(0.14405411 6.9502297e-07 0)
(0.14335416 6.6838156e-07 0)
(0.14266554 6.4285368e-07 0)
(0.14198762 6.1854463e-07 0)
(0.1413195 5.9549822e-07 0)
(0.14066035 5.7345485e-07 0)
(0.14000978 5.5222019e-07 0)
(0.13936731 5.3187606e-07 0)
(0.13873229 5.1247197e-07 0)
(0.13810404 4.9392497e-07 0)
(0.13748201 4.7606477e-07 0)
(0.13686589 4.5880963e-07 0)
(0.13625528 4.4223941e-07 0)
(0.13564958 4.2639701e-07 0)
(0.13504819 4.1115507e-07 0)
(0.13445079 3.9638847e-07 0)
(0.13385709 3.8211858e-07 0)
(0.13326666 3.6839412e-07 0)
(0.13267896 3.5521153e-07 0)
(0.13209349 3.4245648e-07 0)
(0.13151004 3.3004831e-07 0)
(0.13092833 3.1804389e-07 0)
(0.13034787 3.0647846e-07 0)
(0.12976817 2.953025e-07 0)
(0.12918888 2.8443732e-07 0)
(0.12860975 2.7386338e-07 0)
(0.12803044 2.6362789e-07 0)
(0.12745043 2.5375063e-07 0)
(0.12686921 2.4415715e-07 0)
(0.12628652 2.3479022e-07 0)
(0.12570208 2.2569271e-07 0)
(0.12511533 2.1689153e-07 0)
(0.12452575 2.0833678e-07 0)
(0.12393298 1.9998041e-07 0)
(0.12333668 1.918403e-07 0)
(0.12273631 1.8394465e-07 0)
(0.12213128 1.7626888e-07 0)
(0.12152108 1.6877226e-07 0)
(0.12090528 1.6146311e-07 0)
(0.12028324 1.5436617e-07 0)
(0.11965422 1.4745211e-07 0)
(0.11901766 1.4069128e-07 0)
(0.11837294 1.3410238e-07 0)
(0.11771921 1.2770077e-07 0)
(0.11705552 1.2144299e-07 0)
(0.11638131 1.153679e-07 0)
(0.11571035 1.0963371e-07 0)
(0.11506378 1.043187e-07 0)
(0.11444771 9.9410732e-08 0)
(0.1138598 9.4890608e-08 0)
(0.11329779 9.0732479e-08 0)
(0.11275965 8.6887424e-08 0)
(0.11224368 8.3315746e-08 0)
(0.11174834 8.0005764e-08 0)
(0.11127205 7.6943357e-08 0)
(0.11081343 7.4093888e-08 0)
(0.11037133 7.1431056e-08 0)
(0.10994468 6.894891e-08 0)
(0.10953239 6.6640911e-08 0)
(0.10913347 6.450677e-08 0)
(0.10874682 6.2522582e-08 0)
(0.10837174 6.0721247e-08 0)
(0.10800672 5.903155e-08 0)
(0.10765195 5.7753927e-08 0)
(0.10730218 5.6333667e-08 0)
(0.1069645 5.6465523e-08 0)
(0.10661261 5.4164079e-08 0)
(0.10630294 6.6484611e-08 0)
(0.10579986 4.1262727e-08 -1.1030971e-23)
(1 6.146368e-09 0)
(0.99996778 1.9939444e-08 0)
(0.99990384 3.2875469e-08 0)
(0.99982571 4.3988834e-08 0)
(0.99973573 5.6627452e-08 0)
(0.99963463 7.1461209e-08 0)
(0.99952288 8.9083111e-08 0)
(0.99940038 1.1033475e-07 0)
(0.99926661 1.3620929e-07 0)
(0.99912074 1.679089e-07 0)
(0.99896157 2.0694832e-07 0)
(0.99878756 2.5536419e-07 0)
(0.99859655 3.1577275e-07 0)
(0.9983858 3.9225802e-07 0)
(0.99815098 4.8938804e-07 0)
(0.99788747 6.1832556e-07 0)
(0.99758404 7.834582e-07 0)
(0.99723618 1.0349997e-06 0)
(0.99679981 1.329062e-06 0)
(0.99630632 2.0045958e-06 0)
(0.9955019 2.545668e-06 0)
(0.99474146 6.753155e-06 0)
(0.99159009 5.3381256e-06 0)
(0.99168162 0.0013880568 0)
(0.37491178 0.0014801305 0)
(0.28200563 0.00011529991 0)
(0.25893601 3.7372314e-05 0)
(0.24612645 2.358896e-05 0)
(0.23735235 1.7335153e-05 0)
(0.23041239 1.4116731e-05 0)
(0.22454292 1.1970031e-05 0)
(0.2194887 1.0265614e-05 0)
(0.21509779 8.8898401e-06 0)
(0.21123276 7.7948017e-06 0)
(0.20778579 6.9104283e-06 0)
(0.20468148 6.1732204e-06 0)
(0.20186915 5.5493164e-06 0)
(0.19930297 5.0282761e-06 0)
(0.19693909 4.5894142e-06 0)
(0.19474943 4.208601e-06 0)
(0.1927124 3.8775595e-06 0)
(0.19080651 3.5892044e-06 0)
(0.18901587 3.3346573e-06 0)
(0.18732707 3.1087975e-06 3.5624281e-33)
(0.18572858 2.9069887e-06 0)
(0.18421099 2.7259038e-06 0)
(0.18276559 2.5625689e-06 0)
(0.18138559 2.4139628e-06 0)
(0.18006503 2.2786886e-06 0)
(0.17879815 2.1546302e-06 0)
(0.17758099 2.0399544e-06 0)
(0.17640955 1.9346122e-06 0)
(0.17527954 1.8375274e-06 0)
(0.17418793 1.747269e-06 0)
(0.1731319 1.6636652e-06 0)
(0.17210831 1.5863022e-06 0)
(0.17111455 1.5139933e-06 0)
(0.17014881 1.4460859e-06 0)
(0.16920912 1.3826623e-06 0)
(0.1682933 1.3232827e-06 0)
(0.16739982 1.2671355e-06 0)
(0.16652746 1.2140379e-06 0)
(0.16567476 1.1641315e-06 0)
(0.16484016 1.11709e-06 0)
(0.16402252 1.0723584e-06 0)
(0.16322097 1.0298029e-06 0)
(0.16243446 9.8954997e-07 0)
(0.16166179 9.5146239e-07 0)
(0.160902 9.1511015e-07 0)
(0.16015447 8.8026994e-07 0)
(0.15941853 8.4709078e-07 0)
(0.1586932 8.1563521e-07 0)
(0.15797757 7.8554435e-07 0)
(0.15727122 7.5655093e-07 0)
(0.15657365 7.287706e-07 0)
(0.15588413 7.022731e-07 0)
(0.15520193 6.7694432e-07 0)
(0.15452645 6.5254949e-07 0)
(0.15385735 6.2897649e-07 0)
(0.15319421 6.0633744e-07 0)
(0.15253637 5.8469217e-07 0)
(0.15188317 5.6386479e-07 0)
(0.15123428 5.4368313e-07 0)
(0.15058938 5.2417758e-07 0)
(0.14994798 5.0541637e-07 0)
(0.14930952 4.8739499e-07 0)
(0.14867345 4.6995538e-07 0)
(0.14803953 4.5298674e-07 0)
(0.14740746 4.3656868e-07 0)
(0.14677672 4.2075004e-07 0)
(0.14614677 4.0546253e-07 0)
(0.14551722 3.9059767e-07 0)
(0.14488781 3.7612881e-07 0)
(0.14425815 3.6212177e-07 0)
(0.14362769 3.4860397e-07 0)
(0.14299588 3.3547247e-07 0)
(0.14236243 3.2264868e-07 0)
(0.14172701 3.1019233e-07 0)
(0.14108905 2.9814057e-07 0)
(0.14044796 2.8642462e-07 0)
(0.13980334 2.749784e-07 0)
(0.13915484 2.638267e-07 0)
(0.13850187 2.5300862e-07 0)
(0.13784375 2.4249033e-07 0)
(0.13717996 2.3221569e-07 0)
(0.13651002 2.2219629e-07 0)
(0.13583322 2.1246646e-07 0)
(0.13514876 2.0298581e-07 0)
(0.13445602 1.9371352e-07 0)
(0.13375434 1.8467548e-07 0)
(0.13304277 1.7589301e-07 0)
(0.13232028 1.6730606e-07 0)
(0.13158624 1.5896792e-07 0)
(0.13085567 1.510967e-07 0)
(0.13015156 1.4380014e-07 0)
(0.12948058 1.3706107e-07 0)
(0.1288402 1.3085316e-07 0)
(0.12822796 1.2514136e-07 0)
(0.12764165 1.1985866e-07 0)
(0.12707944 1.1495068e-07 0)
(0.12653963 1.1040162e-07 0)
(0.12602055 1.0619222e-07 0)
(0.12552067 1.0227494e-07 0)
(0.12503876 9.8613729e-08 0)
(0.12457363 9.5200555e-08 0)
(0.12412412 9.2026567e-08 0)
(0.12368914 8.9091552e-08 0)
(0.12326751 8.6362562e-08 0)
(0.12285845 8.3885613e-08 0)
(0.12246033 8.1561606e-08 0)
(0.12207335 7.9808644e-08 0)
(0.12169175 7.7854277e-08 0)
(0.12132338 7.8055232e-08 0)
(0.12093925 7.488031e-08 -2.8326844e-23)
(0.12060136 9.1920177e-08 0)
(0.12005246 5.7029609e-08 0)
(1 7.3364222e-09 0)
(0.99996772 2.3811619e-08 0)
(0.99990357 3.9278189e-08 0)
(0.99982509 5.257121e-08 0)
(0.99973467 6.7683467e-08 0)
(0.99963305 8.5415848e-08 0)
(0.99952073 1.0647707e-07 0)
(0.99939761 1.3187188e-07 0)
(0.9992632 1.6278567e-07 0)
(0.99911664 2.0065308e-07 0)
(0.99895676 2.4728158e-07 0)
(0.99878202 3.051012e-07 0)
(0.99859024 3.7723325e-07 0)
(0.99837872 4.6855013e-07 0)
(0.99814309 5.8450098e-07 0)
(0.99787877 7.3840302e-07 0)
(0.99757449 9.3548759e-07 0)
(0.99722575 1.2356592e-06 0)
(0.99678846 1.5865447e-06 0)
(0.99629404 2.3925036e-06 0)
(0.99548849 3.0379108e-06 0)
(0.99472726 8.0566031e-06 0)
(0.99157427 6.3724109e-06 0)
(0.99166464 0.0015949566 -1.0743063e-53)
(0.41370139 0.0017212643 6.8820891e-54)
(0.30871765 0.00015781247 -6.9146621e-20)
(0.28265371 5.0338137e-05 0)
(0.26856576 3.1235302e-05 0)
(0.25902992 2.2827122e-05 0)
(0.25152943 1.8543188e-05 0)
(0.24520473 1.5705633e-05 0)
(0.2397668 1.3462885e-05 0)
(0.23504685 1.1656122e-05 0)
(0.23089484 1.0219502e-05 0)
(0.22719359 9.0600366e-06 0)
(0.22386136 8.0937575e-06 0)
(0.22084343 7.2759816e-06 0)
(0.21809038 6.5931752e-06 0)
(0.21555484 6.0181981e-06 0)
(0.21320655 5.5192292e-06 0)
(0.21102231 5.0854791e-06 0)
(0.20897894 4.7077066e-06 0)
(0.20705934 4.3742158e-06 0)