/*--------------------------------*- C++ -*----------------------------------*\
  =========                 |
  \\      /  F ield         | OpenFOAM: The Open Source CFD Toolbox
   \\    /   O peration     | Website:  https://openfoam.org
    \\  /    A nd           | Version:  12
     \\/     M anipulation  |
\*---------------------------------------------------------------------------*/
FoamFile
{
    format      ascii;
    class       volScalarField;
    location    "1400";
    object      yPlus;
}
// * * * * * * * * * * * * * * * * * * * * * * * * * * * * * * * * * * * * * //

dimensions      [];

internalField   uniform 0;

boundaryField
{
    inlet
    {
        type            calculated;
        value           uniform 0;
    }
    top
    {
        type            calculated;
        value           uniform 0;
    }
    outlet
    {
        type            calculated;
        value           uniform 0;
    }
    slipsurface
    {
        type            calculated;
        value           uniform 0;
    }
    bottom
    {
        type            calculated;
        value           nonuniform List<scalar> 
100
(
116.34929
115.20058
113.92873
112.57885
111.1918
109.79561
108.40056
107.01115
105.63158
104.26544
102.91564
101.58455
100.27479
98.989289
97.731545
96.506197
95.320045
94.183004
93.103516
92.088973
91.145958
90.280037
89.495265
88.794468
88.177701
87.640686
87.17523
86.770244
86.412361
86.08781
85.784693
85.494359
85.211392
84.932879
84.657491
84.384257
84.111909
83.839061
83.564625
83.28831
83.010781
82.733197
82.456696
82.181995
81.909431
81.639236
81.371661
81.106931
80.845229
80.586722
80.331498
80.079532
79.830782
79.585272
79.34301
79.103928
78.867943
78.635021
78.405096
78.178093
77.953947
77.732594
77.513951
77.297951
77.084542
76.873657
76.665237
76.459226
76.255559
76.054179
75.855026
75.658042
75.463169
75.27035
75.079533
74.890666
74.703696
74.518574
74.335252
74.153682
73.973817
73.795614
73.619029
73.444019
73.270541
73.098554
72.928015
72.758879
72.591107
72.424636
72.259442
72.095383
71.932557
71.770405
71.60978
71.447982
71.289796
71.121103
70.982044
70.719215
)
;
    }
    frontandback
    {
        type            empty;
    }
}


// ************************************************************************* //
