/*--------------------------------*- C++ -*----------------------------------*\
  =========                 |
  \\      /  F ield         | OpenFOAM: The Open Source CFD Toolbox
   \\    /   O peration     | Website:  https://openfoam.org
    \\  /    A nd           | Version:  12
     \\/     M anipulation  |
\*---------------------------------------------------------------------------*/
FoamFile
{
    format      ascii;
    class       volScalarField;
    location    "3000";
    object      nut;
}
// * * * * * * * * * * * * * * * * * * * * * * * * * * * * * * * * * * * * * //

dimensions      [0 2 -1 0 0 0 0];

internalField   nonuniform List<scalar> 
66675
(
2.6732946e-06
2.5817963e-06
2.5510527e-06
2.532484e-06
2.5140289e-06
2.4953425e-06
2.4777285e-06
2.4619201e-06
2.4480888e-06
2.4361274e-06
2.4258302e-06
2.4169762e-06
2.4093602e-06
2.4028026e-06
2.3971495e-06
2.3922708e-06
2.3880569e-06
2.3844156e-06
2.3812694e-06
2.3785536e-06
2.3762135e-06
2.3742029e-06
2.3724809e-06
2.3710035e-06
2.369717e-06
2.3684918e-06
2.3671027e-06
2.3647189e-06
2.3587602e-06
2.3369223e-06
2.2870822e-06
2.0244284e-06
1.5757389e-06
4.883076e-07
2.7949407e-08
2.6732946e-06
2.5817963e-06
2.5510527e-06
2.532484e-06
2.5140289e-06
2.4953425e-06
2.4777285e-06
2.4619201e-06
2.4480888e-06
2.4361274e-06
2.4258302e-06
2.4169762e-06
2.4093602e-06
2.4028026e-06
2.3971495e-06
2.3922708e-06
2.3880569e-06
2.3844156e-06
2.3812694e-06
2.3785534e-06
2.3762132e-06
2.3742023e-06
2.3724796e-06
2.3710005e-06
2.3697099e-06
2.3684765e-06
2.3670612e-06
2.3646313e-06
2.3586008e-06
2.3370623e-06
2.284873e-06
2.054709e-06
1.5205485e-06
7.6747805e-07
6.2377555e-08
2.6732946e-06
2.5817963e-06
2.5510527e-06
2.532484e-06
2.5140289e-06
2.4953425e-06
2.4777285e-06
2.4619201e-06
2.4480888e-06
2.4361274e-06
2.4258302e-06
2.4169762e-06
2.4093602e-06
2.4028026e-06
2.3971495e-06
2.3922708e-06
2.3880569e-06
2.3844156e-06
2.3812694e-06
2.3785534e-06
2.3762132e-06
2.3742023e-06
2.3724795e-06
2.3710004e-06
2.3697097e-06
2.3684788e-06
2.3670647e-06
2.3646605e-06
2.3588772e-06
2.3387385e-06
2.290975e-06
2.1132786e-06
1.5679068e-06
9.7504442e-07
1.7966145e-07
2.6732946e-06
2.5817963e-06
2.5510527e-06
2.532484e-06
2.5140289e-06
2.4953425e-06
2.4777285e-06
2.4619201e-06
2.4480888e-06
2.4361274e-06
2.4258302e-06
2.4169762e-06
2.4093602e-06
2.4028026e-06
2.3971495e-06
2.3922708e-06
2.3880569e-06
2.3844156e-06
2.3812694e-06
2.3785534e-06
2.3762131e-06
2.374202e-06
2.372479e-06
2.3709995e-06
2.3697076e-06
2.3684766e-06
2.3670615e-06
2.3646537e-06
2.3592058e-06
2.3401741e-06
2.2918885e-06
2.1529815e-06
1.6724864e-06
1.1149336e-06
4.5663397e-07
2.6732946e-06
2.5817963e-06
2.5510527e-06
2.532484e-06
2.5140289e-06
2.4953425e-06
2.4777285e-06
2.4619201e-06
2.4480888e-06
2.4361274e-06
2.4258302e-06
2.4169762e-06
2.4093602e-06
2.4028026e-06
2.3971495e-06
2.3922708e-06
2.3880569e-06
2.3844156e-06
2.3812693e-06
2.3785533e-06
2.376213e-06
2.3742017e-06
2.3724783e-06
2.3709983e-06
2.3697051e-06
2.3684739e-06
2.3670628e-06
2.36465e-06
2.3596305e-06
2.341697e-06
2.2955407e-06
2.1768237e-06
1.8015263e-06
1.1701762e-06
7.5494868e-07
2.6732946e-06
2.5817963e-06
2.5510527e-06
2.532484e-06
2.5140289e-06
2.4953425e-06
2.4777285e-06
2.4619201e-06
2.4480888e-06
2.4361274e-06
2.4258302e-06
2.4169762e-06
2.4093602e-06
2.4028026e-06
2.3971495e-06
2.3922708e-06
2.3880569e-06
2.3844156e-06
2.3812693e-06
2.3785532e-06
2.3762128e-06
2.3742014e-06
2.3724776e-06
2.3709972e-06
2.3697033e-06
2.3684728e-06
2.3670736e-06
2.3646759e-06
2.360075e-06
2.3433689e-06
2.3038205e-06
2.2020766e-06
1.9351843e-06
1.3680238e-06
9.4790305e-07
2.6732946e-06
2.5817963e-06
2.5510527e-06
2.532484e-06
2.5140289e-06
2.4953425e-06
2.4777285e-06
2.4619201e-06
2.4480888e-06
2.4361274e-06
2.4258302e-06
2.4169762e-06
2.4093603e-06
2.4028026e-06
2.3971495e-06
2.3922708e-06
2.3880569e-06
2.3844156e-06
2.3812693e-06
2.3785532e-06
2.3762126e-06
2.374201e-06
2.3724769e-06
2.3709961e-06
2.3697023e-06
2.3684735e-06
2.3670939e-06
2.3647339e-06
2.36049e-06
2.3451411e-06
2.3125376e-06
2.2245489e-06
2.0360464e-06
1.6131633e-06
1.1707948e-06
2.6732946e-06
2.5817962e-06
2.5510527e-06
2.532484e-06
2.5140289e-06
2.4953425e-06
2.4777285e-06
2.4619201e-06
2.4480888e-06
2.4361274e-06
2.4258302e-06
2.4169762e-06
2.4093603e-06
2.4028026e-06
2.3971495e-06
2.3922709e-06
2.388057e-06
2.3844156e-06
2.3812693e-06
2.3785531e-06
2.3762124e-06
2.3742006e-06
2.3724762e-06
2.3709952e-06
2.369702e-06
2.3684753e-06
2.367125e-06
2.3647986e-06
2.3610309e-06
2.3469002e-06
2.3201654e-06
2.2483786e-06
2.1086096e-06
1.8125482e-06
1.4353455e-06
2.6732946e-06
2.5817962e-06
2.5510527e-06
2.532484e-06
2.5140289e-06
2.4953425e-06
2.4777285e-06
2.4619201e-06
2.4480888e-06
2.4361274e-06
2.4258302e-06
2.4169762e-06
2.4093603e-06
2.4028026e-06
2.3971496e-06
2.3922709e-06
2.388057e-06
2.3844156e-06
2.3812693e-06
2.378553e-06
2.3762122e-06
2.3742002e-06
2.3724756e-06
2.3709943e-06
2.3697024e-06
2.368478e-06
2.3671675e-06
2.364846e-06
2.3619429e-06
2.3486456e-06
2.3268782e-06
2.2712802e-06
2.1659302e-06
1.9644898e-06
1.6847826e-06
2.6732946e-06
2.5817962e-06
2.5510526e-06
2.5324839e-06
2.5140289e-06
2.4953425e-06
2.4777285e-06
2.4619201e-06
2.4480888e-06
2.4361274e-06
2.4258302e-06
2.4169763e-06
2.4093603e-06
2.4028027e-06
2.3971496e-06
2.3922709e-06
2.388057e-06
2.3844156e-06
2.3812692e-06
2.3785529e-06
2.376212e-06
2.3741998e-06
2.3724748e-06
2.3709933e-06
2.3697032e-06
2.368482e-06
2.3672137e-06
2.3649482e-06
2.3622853e-06
2.3511627e-06
2.3335562e-06
2.2911881e-06
2.2128163e-06
2.0770406e-06
1.8847741e-06
2.6732946e-06
2.5817962e-06
2.5510526e-06
2.5324839e-06
2.5140289e-06
2.4953425e-06
2.4777285e-06
2.4619201e-06
2.4480888e-06
2.4361274e-06
2.4258303e-06
2.4169763e-06
2.4093603e-06
2.4028027e-06
2.3971496e-06
2.392271e-06
2.388057e-06
2.3844156e-06
2.3812692e-06
2.3785528e-06
2.3762117e-06
2.3741993e-06
2.372474e-06
2.3709924e-06
2.3697038e-06
2.3684881e-06
2.3672692e-06
2.3649368e-06
2.3642262e-06
2.354227e-06
2.3384887e-06
2.3068885e-06
2.2503473e-06
2.1594292e-06
2.0334241e-06
2.6732945e-06
2.5817961e-06
2.5510526e-06
2.5324839e-06
2.5140289e-06
2.4953425e-06
2.4777284e-06
2.4619201e-06
2.4480888e-06
2.4361274e-06
2.4258303e-06
2.4169763e-06
2.4093604e-06
2.4028027e-06
2.3971497e-06
2.392271e-06
2.3880571e-06
2.3844157e-06
2.3812692e-06
2.3785527e-06
2.3762115e-06
2.3741988e-06
2.3724731e-06
2.3709916e-06
2.3697035e-06
2.3685021e-06
2.3672755e-06
2.3653456e-06
2.3628395e-06
2.3567346e-06
2.3439287e-06
2.3206336e-06
2.2804398e-06
2.2197423e-06
2.1392936e-06
2.6732945e-06
2.5817961e-06
2.5510526e-06
2.5324839e-06
2.5140289e-06
2.4953425e-06
2.4777284e-06
2.4619201e-06
2.4480888e-06
2.4361274e-06
2.4258303e-06
2.4169763e-06
2.4093604e-06
2.4028028e-06
2.3971497e-06
2.3922711e-06
2.3880572e-06
2.3844157e-06
2.3812692e-06
2.3785526e-06
2.3762112e-06
2.3741982e-06
2.3724721e-06
2.3709907e-06
2.369703e-06
2.368517e-06
2.3672927e-06
2.3656195e-06
2.3629827e-06
2.3580089e-06
2.3484649e-06
2.3312123e-06
2.3032602e-06
2.2631995e-06
2.2125213e-06
2.6732945e-06
2.581796e-06
2.5510525e-06
2.5324839e-06
2.5140288e-06
2.4953425e-06
2.4777284e-06
2.4619201e-06
2.4480888e-06
2.4361274e-06
2.4258303e-06
2.4169763e-06
2.4093604e-06
2.4028028e-06
2.3971498e-06
2.3922711e-06
2.3880572e-06
2.3844158e-06
2.3812692e-06
2.3785525e-06
2.3762108e-06
2.3741975e-06
2.3724708e-06
2.3709894e-06
2.3697028e-06
2.3685294e-06
2.3673281e-06
2.3658023e-06
2.3634372e-06
2.3592794e-06
2.3519404e-06
2.3394552e-06
2.3202661e-06
2.2940659e-06
2.2623294e-06
2.6732945e-06
2.581796e-06
2.5510525e-06
2.5324838e-06
2.5140288e-06
2.4953425e-06
2.4777284e-06
2.4619201e-06
2.4480888e-06
2.4361274e-06
2.4258303e-06
2.4169764e-06
2.4093605e-06
2.4028029e-06
2.3971498e-06
2.3922712e-06
2.3880573e-06
2.3844158e-06
2.3812692e-06
2.3785524e-06
2.3762104e-06
2.3741966e-06
2.3724694e-06
2.3709879e-06
2.3697027e-06
2.3685399e-06
2.3673708e-06
2.3659575e-06
2.3638902e-06
2.3604792e-06
2.3548264e-06
2.3458355e-06
2.3327638e-06
2.3157346e-06
2.2959041e-06
2.6732945e-06
2.5817959e-06
2.5510524e-06
2.5324838e-06
2.5140288e-06
2.4953424e-06
2.4777284e-06
2.4619201e-06
2.4480888e-06
2.4361274e-06
2.4258303e-06
2.4169764e-06
2.4093605e-06
2.4028029e-06
2.3971499e-06
2.3922713e-06
2.3880574e-06
2.3844159e-06
2.3812692e-06
2.3785522e-06
2.3762099e-06
2.3741957e-06
2.3724678e-06
2.3709859e-06
2.3697024e-06
2.3685492e-06
2.3674137e-06
2.3661016e-06
2.3643001e-06
2.3615271e-06
2.3572078e-06
2.3507588e-06
2.3418865e-06
2.3308435e-06
2.31844e-06
2.6732944e-06
2.5817959e-06
2.5510524e-06
2.5324838e-06
2.5140288e-06
2.4953424e-06
2.4777284e-06
2.4619201e-06
2.4480888e-06
2.4361274e-06
2.4258304e-06
2.4169764e-06
2.4093606e-06
2.402803e-06
2.39715e-06
2.3922714e-06
2.3880575e-06
2.384416e-06
2.3812692e-06
2.378552e-06
2.3762094e-06
2.3741946e-06
2.372466e-06
2.3709836e-06
2.3697016e-06
2.3685576e-06
2.3674542e-06
2.3662343e-06
2.364663e-06
2.3624128e-06
2.359128e-06
2.3545145e-06
2.3484979e-06
2.3413291e-06
2.3335396e-06
2.6732944e-06
2.5817958e-06
2.5510523e-06
2.5324837e-06
2.5140287e-06
2.4953424e-06
2.4777284e-06
2.4619201e-06
2.4480888e-06
2.4361275e-06
2.4258304e-06
2.4169765e-06
2.4093606e-06
2.4028031e-06
2.3971501e-06
2.3922716e-06
2.3880577e-06
2.3844161e-06
2.3812692e-06
2.3785518e-06
2.3762088e-06
2.3741933e-06
2.3724639e-06
2.3709808e-06
2.3697001e-06
2.3685646e-06
2.3674908e-06
2.366353e-06
2.3649775e-06
2.363146e-06
2.3606465e-06
2.3573421e-06
2.3532508e-06
2.3485747e-06
2.3436465e-06
2.6732944e-06
2.5817957e-06
2.5510523e-06
2.5324837e-06
2.5140287e-06
2.4953423e-06
2.4777283e-06
2.46192e-06
2.4480888e-06
2.4361275e-06
2.4258304e-06
2.4169765e-06
2.4093607e-06
2.4028032e-06
2.3971503e-06
2.3922717e-06
2.3880578e-06
2.3844162e-06
2.3812692e-06
2.3785516e-06
2.3762082e-06
2.3741919e-06
2.3724615e-06
2.3709775e-06
2.3696978e-06
2.36857e-06
2.3675226e-06
2.366456e-06
2.3652431e-06
2.3637404e-06
2.3618259e-06
2.3594434e-06
2.3566393e-06
2.3535595e-06
2.3504045e-06
2.6732944e-06
2.5817956e-06
2.5510522e-06
2.5324836e-06
2.5140286e-06
2.4953423e-06
2.4777283e-06
2.46192e-06
2.4480888e-06
2.4361275e-06
2.4258305e-06
2.4169766e-06
2.4093608e-06
2.4028034e-06
2.3971504e-06
2.3922719e-06
2.388058e-06
2.3844163e-06
2.3812692e-06
2.3785513e-06
2.3762074e-06
2.3741903e-06
2.3724587e-06
2.3709736e-06
2.3696945e-06
2.3685733e-06
2.3675489e-06
2.3665423e-06
2.3654611e-06
2.3642116e-06
2.3627252e-06
2.3609836e-06
2.3590333e-06
2.3569717e-06
2.3549152e-06
2.6732943e-06
2.5817955e-06
2.5510521e-06
2.5324835e-06
2.5140286e-06
2.4953423e-06
2.4777283e-06
2.46192e-06
2.4480888e-06
2.4361275e-06
2.4258305e-06
2.4169767e-06
2.4093609e-06
2.4028035e-06
2.3971506e-06
2.3922721e-06
2.3880582e-06
2.3844165e-06
2.3812693e-06
2.378551e-06
2.3762065e-06
2.3741885e-06
2.3724556e-06
2.3709692e-06
2.3696901e-06
2.3685743e-06
2.367569e-06
2.3666116e-06
2.3656343e-06
2.3645757e-06
2.363397e-06
2.3620954e-06
2.3607067e-06
2.3592918e-06
2.3579156e-06
2.6732943e-06
2.5817954e-06
2.551052e-06
2.5324835e-06
2.5140285e-06
2.4953422e-06
2.4777283e-06
2.46192e-06
2.4480888e-06
2.4361275e-06
2.4258306e-06
2.4169768e-06
2.4093611e-06
2.4028037e-06
2.3971508e-06
2.3922724e-06
2.3880585e-06
2.3844167e-06
2.3812693e-06
2.3785507e-06
2.3762056e-06
2.3741865e-06
2.3724521e-06
2.370964e-06
2.3696844e-06
2.3685726e-06
2.3675827e-06
2.3666643e-06
2.3657669e-06
2.364849e-06
2.3638874e-06
2.3628834e-06
2.3618607e-06
2.3608546e-06
2.359899e-06
2.6732943e-06
2.5817953e-06
2.5510519e-06
2.5324834e-06
2.5140285e-06
2.4953422e-06
2.4777282e-06
2.46192e-06
2.4480888e-06
2.4361276e-06
2.4258306e-06
2.4169769e-06
2.4093612e-06
2.4028039e-06
2.3971511e-06
2.3922726e-06
2.3880587e-06
2.3844169e-06
2.3812694e-06
2.3785504e-06
2.3762046e-06
2.3741843e-06
2.3724481e-06
2.3709581e-06
2.3696775e-06
2.3685682e-06
2.3675899e-06
2.3667012e-06
2.3658634e-06
2.3650466e-06
2.3642351e-06
2.3634295e-06
2.3626428e-06
2.3618933e-06
2.3611968e-06
2.6732942e-06
2.5817952e-06
2.5510519e-06
2.5324833e-06
2.5140284e-06
2.4953421e-06
2.4777282e-06
2.46192e-06
2.4480888e-06
2.4361276e-06
2.4258307e-06
2.416977e-06
2.4093614e-06
2.4028041e-06
2.3971514e-06
2.392273e-06
2.3880591e-06
2.3844172e-06
2.3812695e-06
2.3785501e-06
2.3762034e-06
2.3741819e-06
2.3724438e-06
2.3709515e-06
2.3696692e-06
2.368561e-06
2.3675909e-06
2.3667239e-06
2.3659288e-06
2.3651826e-06
2.3644726e-06
2.3637967e-06
2.3631601e-06
2.3625701e-06
2.3620323e-06
2.6732942e-06
2.5817951e-06
2.5510518e-06
2.5324833e-06
2.5140283e-06
2.4953421e-06
2.4777281e-06
2.4619199e-06
2.4480889e-06
2.4361277e-06
2.4258308e-06
2.4169772e-06
2.4093616e-06
2.4028044e-06
2.3971517e-06
2.3922733e-06
2.3880595e-06
2.3844175e-06
2.3812696e-06
2.3785497e-06
2.3762022e-06
2.3741792e-06
2.3724391e-06
2.3709442e-06
2.3696595e-06
2.3685511e-06
2.3675861e-06
2.3667338e-06
2.3659681e-06
2.3652695e-06
2.3646262e-06
2.3640333e-06
2.3634905e-06
2.3629983e-06
2.3625565e-06
2.6732941e-06
2.581795e-06
2.5510517e-06
2.5324832e-06
2.5140283e-06
2.495342e-06
2.4777281e-06
2.4619199e-06
2.4480889e-06
2.4361277e-06
2.4258309e-06
2.4169773e-06
2.4093618e-06
2.4028047e-06
2.3971521e-06
2.3922738e-06
2.3880599e-06
2.3844179e-06
2.3812697e-06
2.3785494e-06
2.3762009e-06
2.3741764e-06
2.3724339e-06
2.3709362e-06
2.3696486e-06
2.3685387e-06
2.367576e-06
2.3667329e-06
2.3659862e-06
2.3653182e-06
2.3647171e-06
2.3641758e-06
2.3636901e-06
2.3632567e-06
2.362872e-06
2.6732941e-06
2.5817948e-06
2.5510516e-06
2.5324831e-06
2.5140282e-06
2.495342e-06
2.4777281e-06
2.4619199e-06
2.4480889e-06
2.4361278e-06
2.4258311e-06
2.4169775e-06
2.4093621e-06
2.402805e-06
2.3971525e-06
2.3922743e-06
2.3880605e-06
2.3844184e-06
2.3812699e-06
2.378549e-06
2.3761995e-06
2.3741733e-06
2.3724284e-06
2.3709275e-06
2.3696366e-06
2.3685241e-06
2.3675615e-06
2.366723e-06
2.3659874e-06
2.3653378e-06
2.3647621e-06
2.3642515e-06
2.3637993e-06
2.3634e-06
2.3630484e-06
2.673294e-06
2.5817947e-06
2.5510514e-06
2.532483e-06
2.5140281e-06
2.4953419e-06
2.4777281e-06
2.4619199e-06
2.448089e-06
2.4361279e-06
2.4258312e-06
2.4169778e-06
2.4093624e-06
2.4028055e-06
2.397153e-06
2.3922749e-06
2.3880611e-06
2.3844189e-06
2.3812702e-06
2.3785486e-06
2.376198e-06
2.37417e-06
2.3724225e-06
2.3709182e-06
2.3696235e-06
2.3685077e-06
2.3675432e-06
2.366706e-06
2.3659757e-06
2.3653361e-06
2.3647744e-06
2.3642807e-06
2.3638471e-06
2.3634667e-06
2.3631333e-06
2.6732939e-06
2.5817945e-06
2.5510513e-06
2.5324829e-06
2.5140281e-06
2.4953419e-06
2.477728e-06
2.4619199e-06
2.448089e-06
2.436128e-06
2.4258314e-06
2.416978e-06
2.4093628e-06
2.4028059e-06
2.3971536e-06
2.3922756e-06
2.3880618e-06
2.3844195e-06
2.3812705e-06
2.3785483e-06
2.3761965e-06
2.3741666e-06
2.3724164e-06
2.3709085e-06
2.3696096e-06
2.3684897e-06
2.3675221e-06
2.3666836e-06
2.3659547e-06
2.3653191e-06
2.364764e-06
2.3642786e-06
2.3638542e-06
2.3634832e-06
2.3631589e-06
2.6732939e-06
2.5817944e-06
2.5510512e-06
2.5324828e-06
2.514028e-06
2.4953418e-06
2.477728e-06
2.46192e-06
2.4480891e-06
2.4361281e-06
2.4258316e-06
2.4169784e-06
2.4093632e-06
2.4028065e-06
2.3971543e-06
2.3922763e-06
2.3880626e-06
2.3844202e-06
2.3812709e-06
2.378548e-06
2.376195e-06
2.3741631e-06
2.37241e-06
2.3708984e-06
2.3695951e-06
2.3684707e-06
2.367499e-06
2.3666575e-06
2.3659272e-06
2.3652919e-06
2.3647385e-06
2.3642561e-06
2.3638352e-06
2.363468e-06
2.3631475e-06
2.6732938e-06
2.5817942e-06
2.5510511e-06
2.5324827e-06
2.5140279e-06
2.4953418e-06
2.477728e-06
2.46192e-06
2.4480892e-06
2.4361283e-06
2.4258319e-06
2.4169787e-06
2.4093637e-06
2.4028071e-06
2.3971551e-06
2.3922772e-06
2.3880635e-06
2.3844211e-06
2.3812714e-06
2.3785478e-06
2.3761935e-06
2.3741596e-06
2.3724036e-06
2.3708882e-06
2.3695804e-06
2.3684511e-06
2.3674747e-06
2.3666292e-06
2.3658957e-06
2.3652584e-06
2.3647039e-06
2.3642211e-06
2.3638004e-06
2.3634337e-06
2.3631138e-06
2.6732938e-06
2.581794e-06
2.5510509e-06
2.5324826e-06
2.5140278e-06
2.4953417e-06
2.477728e-06
2.46192e-06
2.4480893e-06
2.4361285e-06
2.4258322e-06
2.4169792e-06
2.4093643e-06
2.4028079e-06
2.397156e-06
2.3922782e-06
2.3880646e-06
2.3844221e-06
2.381272e-06
2.3785477e-06
2.376192e-06
2.3741561e-06
2.3723971e-06
2.3708779e-06
2.3695655e-06
2.3684313e-06
2.3674499e-06
2.3665998e-06
2.3658622e-06
2.3652215e-06
2.3646643e-06
2.3641794e-06
2.363757e-06
2.3633889e-06
2.363068e-06
2.6732937e-06
2.5817939e-06
2.5510508e-06
2.5324825e-06
2.5140277e-06
2.4953417e-06
2.477728e-06
2.4619201e-06
2.4480894e-06
2.4361287e-06
2.4258325e-06
2.4169797e-06
2.409365e-06
2.4028087e-06
2.397157e-06
2.3922794e-06
2.3880658e-06
2.3844232e-06
2.3812728e-06
2.3785477e-06
2.3761907e-06
2.3741526e-06
2.3723907e-06
2.3708677e-06
2.3695509e-06
2.3684118e-06
2.3674254e-06
2.3665704e-06
2.3658283e-06
2.3651836e-06
2.3646229e-06
2.3641349e-06
2.3637099e-06
2.3633396e-06
2.3630167e-06
2.6732936e-06
2.5817937e-06
2.5510507e-06
2.5324824e-06
2.5140277e-06
2.4953416e-06
2.477728e-06
2.4619202e-06
2.4480896e-06
2.436129e-06
2.425833e-06
2.4169802e-06
2.4093657e-06
2.4028097e-06
2.3971582e-06
2.3922807e-06
2.3880672e-06
2.3844245e-06
2.3812738e-06
2.3785479e-06
2.3761895e-06
2.3741493e-06
2.3723845e-06
2.3708579e-06
2.3695368e-06
2.3683929e-06
2.3674016e-06
2.3665418e-06
2.3657952e-06
2.3651463e-06
2.3645818e-06
2.3640904e-06
2.3636625e-06
2.3632895e-06
2.3629643e-06
2.6732936e-06
2.5817935e-06
2.5510505e-06
2.5324823e-06
2.5140276e-06
2.4953416e-06
2.477728e-06
2.4619203e-06
2.4480898e-06
2.4361294e-06
2.4258334e-06
2.4169809e-06
2.4093666e-06
2.4028108e-06
2.3971595e-06
2.3922822e-06
2.3880688e-06
2.3844261e-06
2.3812749e-06
2.3785482e-06
2.3761885e-06
2.3741463e-06
2.3723787e-06
2.3708486e-06
2.3695234e-06
2.368375e-06
2.3673791e-06
2.3665147e-06
2.3657637e-06
2.3651107e-06
2.3645425e-06
2.3640478e-06
2.3636168e-06
2.3632412e-06
2.3629137e-06
2.6732935e-06
2.5817933e-06
2.5510504e-06
2.5324822e-06
2.5140275e-06
2.4953416e-06
2.477728e-06
2.4619204e-06
2.44809e-06
2.4361297e-06
2.425834e-06
2.4169817e-06
2.4093676e-06
2.402812e-06
2.397161e-06
2.392284e-06
2.3880707e-06
2.3844278e-06
2.3812763e-06
2.3785489e-06
2.3761878e-06
2.3741436e-06
2.3723734e-06
2.3708399e-06
2.3695109e-06
2.3683584e-06
2.3673583e-06
2.3664896e-06
2.3657345e-06
2.3650777e-06
2.364506e-06
2.3640082e-06
2.3635744e-06
2.3631963e-06
2.3628666e-06
2.6732934e-06
2.5817932e-06
2.5510502e-06
2.5324821e-06
2.5140274e-06
2.4953415e-06
2.4777281e-06
2.4619205e-06
2.4480903e-06
2.4361302e-06
2.4258346e-06
2.4169825e-06
2.4093687e-06
2.4028134e-06
2.3971627e-06
2.3922859e-06
2.3880727e-06
2.3844299e-06
2.381278e-06
2.3785498e-06
2.3761875e-06
2.3741414e-06
2.3723687e-06
2.3708321e-06
2.3694997e-06
2.3683434e-06
2.3673393e-06
2.3664668e-06
2.3657081e-06
2.3650479e-06
2.364473e-06
2.3639723e-06
2.363536e-06
2.3631556e-06
2.3628239e-06
2.6732934e-06
2.581793e-06
2.5510501e-06
2.532482e-06
2.5140274e-06
2.4953415e-06
2.4777282e-06
2.4619207e-06
2.4480906e-06
2.4361307e-06
2.4258354e-06
2.4169835e-06
2.40937e-06
2.402815e-06
2.3971646e-06
2.3922881e-06
2.3880751e-06
2.3844322e-06
2.3812801e-06
2.3785511e-06
2.3761876e-06
2.3741397e-06
2.3723647e-06
2.3708254e-06
2.3694897e-06
2.3683301e-06
2.3673226e-06
2.3664466e-06
2.3656847e-06
2.3650214e-06
2.3644438e-06
2.3639406e-06
2.363502e-06
2.3631196e-06
2.3627861e-06
2.6732933e-06
2.5817928e-06
2.55105e-06
2.5324819e-06
2.5140273e-06
2.4953415e-06
2.4777283e-06
2.461921e-06
2.448091e-06
2.4361313e-06
2.4258362e-06
2.4169847e-06
2.4093715e-06
2.4028169e-06
2.3971668e-06
2.3922906e-06
2.3880778e-06
2.3844349e-06
2.3812825e-06
2.3785529e-06
2.3761882e-06
2.3741387e-06
2.3723615e-06
2.3708197e-06
2.3694812e-06
2.3683186e-06
2.3673081e-06
2.3664292e-06
2.3656644e-06
2.3649985e-06
2.3644185e-06
2.3639131e-06
2.3634726e-06
2.3630885e-06
2.3627535e-06
2.6732933e-06
2.5817927e-06
2.5510499e-06
2.5324818e-06
2.5140273e-06
2.4953416e-06
2.4777284e-06
2.4619212e-06
2.4480915e-06
2.436132e-06
2.4258372e-06
2.416986e-06
2.4093732e-06
2.4028189e-06
2.3971692e-06
2.3922933e-06
2.3880808e-06
2.3844379e-06
2.3812853e-06
2.3785551e-06
2.3761894e-06
2.3741384e-06
2.3723593e-06
2.3708153e-06
2.3694743e-06
2.3683091e-06
2.3672959e-06
2.3664145e-06
2.3656473e-06
2.3649792e-06
2.3643972e-06
2.3638899e-06
2.3634477e-06
2.3630621e-06
2.3627258e-06
2.6732933e-06
2.5817926e-06
2.5510497e-06
2.5324817e-06
2.5140272e-06
2.4953416e-06
2.4777286e-06
2.4619216e-06
2.448092e-06
2.4361328e-06
2.4258383e-06
2.4169874e-06
2.409375e-06
2.4028212e-06
2.3971719e-06
2.3922965e-06
2.3880842e-06
2.3844414e-06
2.3812886e-06
2.3785578e-06
2.3761912e-06
2.3741389e-06
2.3723582e-06
2.3708121e-06
2.3694691e-06
2.3683016e-06
2.3672862e-06
2.3664027e-06
2.3656334e-06
2.3649634e-06
2.3643797e-06
2.3638708e-06
2.3634273e-06
2.3630404e-06
2.362703e-06
2.6732933e-06
2.5817925e-06
2.5510497e-06
2.5324816e-06
2.5140272e-06
2.4953417e-06
2.4777288e-06
2.4619219e-06
2.4480926e-06
2.4361337e-06
2.4258395e-06
2.4169891e-06
2.4093771e-06
2.4028238e-06
2.397175e-06
2.3923e-06
2.388088e-06
2.3844453e-06
2.3812924e-06
2.3785612e-06
2.3761937e-06
2.3741403e-06
2.3723581e-06
2.3708104e-06
2.3694655e-06
2.3682962e-06
2.3672789e-06
2.3663935e-06
2.3656226e-06
2.364951e-06
2.3643658e-06
2.3638557e-06
2.363411e-06
2.3630231e-06
2.3626848e-06
2.6732933e-06
2.5817925e-06
2.5510496e-06
2.5324816e-06
2.5140272e-06
2.4953418e-06
2.477729e-06
2.4619224e-06
2.4480933e-06
2.4361347e-06
2.425841e-06
2.416991e-06
2.4093795e-06
2.4028267e-06
2.3971784e-06
2.3923039e-06
2.3880923e-06
2.3844498e-06
2.3812967e-06
2.3785652e-06
2.3761971e-06
2.3741426e-06
2.3723592e-06
2.3708101e-06
2.3694637e-06
2.3682927e-06
2.3672739e-06
2.3663871e-06
2.3656147e-06
2.3649418e-06
2.3643555e-06
2.3638443e-06
2.3633986e-06
2.3630099e-06
2.3626708e-06
2.6732933e-06
2.5817925e-06
2.5510495e-06
2.5324815e-06
2.5140273e-06
2.4953419e-06
2.4777293e-06
2.4619229e-06
2.4480942e-06
2.4361359e-06
2.4258426e-06
2.4169931e-06
2.4093822e-06
2.4028299e-06
2.3971822e-06
2.3923082e-06
2.388097e-06
2.3844548e-06
2.3813017e-06
2.3785699e-06
2.3762012e-06
2.374146e-06
2.3723615e-06
2.3708112e-06
2.3694635e-06
2.3682913e-06
2.3672712e-06
2.3663831e-06
2.3656096e-06
2.3649357e-06
2.3643484e-06
2.3638363e-06
2.3633899e-06
2.3630004e-06
2.3626608e-06
2.6732933e-06
2.5817926e-06
2.5510495e-06
2.5324815e-06
2.5140273e-06
2.4953421e-06
2.4777297e-06
2.4619235e-06
2.4480951e-06
2.4361372e-06
2.4258444e-06
2.4169954e-06
2.4093851e-06
2.4028336e-06
2.3971865e-06
2.392313e-06
2.3881023e-06
2.3844603e-06
2.3813073e-06
2.3785753e-06
2.3762062e-06
2.3741504e-06
2.3723651e-06
2.3708138e-06
2.3694651e-06
2.3682918e-06
2.3672707e-06
2.3663816e-06
2.3656072e-06
2.3649324e-06
2.3643443e-06
2.3638316e-06
2.3633845e-06
2.3629945e-06
2.3626544e-06
2.6732934e-06
2.5817927e-06
2.5510495e-06
2.5324815e-06
2.5140274e-06
2.4953423e-06
2.4777301e-06
2.4619242e-06
2.4480962e-06
2.4361388e-06
2.4258464e-06
2.4169981e-06
2.4093884e-06
2.4028375e-06
2.3971912e-06
2.3923183e-06
2.3881081e-06
2.3844665e-06
2.3813136e-06
2.3785815e-06
2.3762122e-06
2.3741558e-06
2.3723699e-06
2.3708178e-06
2.3694683e-06
2.3682942e-06
2.3672723e-06
2.3663824e-06
2.3656073e-06
2.3649318e-06
2.3643431e-06
2.3638298e-06
2.3633822e-06
2.3629918e-06
2.3626512e-06
2.6732935e-06
2.5817928e-06
2.5510495e-06
2.5324815e-06
2.5140275e-06
2.4953426e-06
2.4777306e-06
2.4619251e-06
2.4480974e-06
2.4361405e-06
2.4258487e-06
2.417001e-06
2.4093921e-06
2.402842e-06
2.3971963e-06
2.3923242e-06
2.3881145e-06
2.3844733e-06
2.3813207e-06
2.3785886e-06
2.376219e-06
2.3741623e-06
2.3723759e-06
2.3708233e-06
2.3694731e-06
2.3682984e-06
2.3672758e-06
2.3663853e-06
2.3656096e-06
2.3649336e-06
2.3643444e-06
2.3638307e-06
2.3633827e-06
2.3629919e-06
2.362651e-06
2.6732936e-06
2.5817931e-06
2.5510496e-06
2.5324816e-06
2.5140276e-06
2.4953429e-06
2.4777312e-06
2.461926e-06
2.4480988e-06
2.4361424e-06
2.4258513e-06
2.4170043e-06
2.4093962e-06
2.4028468e-06
2.397202e-06
2.3923306e-06
2.3881215e-06
2.3844808e-06
2.3813285e-06
2.3785965e-06
2.3762268e-06
2.3741699e-06
2.3723831e-06
2.3708301e-06
2.3694795e-06
2.3683042e-06
2.3672812e-06
2.3663902e-06
2.3656141e-06
2.3649377e-06
2.3643481e-06
2.363834e-06
2.3633857e-06
2.3629947e-06
2.3626536e-06
2.6732938e-06
2.5817934e-06
2.5510497e-06
2.5324817e-06
2.5140278e-06
2.4953433e-06
2.4777318e-06
2.461927e-06
2.4481003e-06
2.4361445e-06
2.4258541e-06
2.4170079e-06
2.4094007e-06
2.4028522e-06
2.3972082e-06
2.3923375e-06
2.3881292e-06
2.384489e-06
2.381337e-06
2.3786052e-06
2.3762356e-06
2.3741785e-06
2.3723915e-06
2.3708382e-06
2.3694873e-06
2.3683117e-06
2.3672883e-06
2.366397e-06
2.3656205e-06
2.3649438e-06
2.3643539e-06
2.3638396e-06
2.363391e-06
2.3629998e-06
2.3626585e-06
2.673294e-06
2.5817937e-06
2.5510498e-06
2.5324818e-06
2.5140281e-06
2.4953437e-06
2.4777326e-06
2.4619282e-06
2.4481021e-06
2.4361469e-06
2.4258573e-06
2.417012e-06
2.4094056e-06
2.402858e-06
2.3972149e-06
2.3923451e-06
2.3881375e-06
2.3844979e-06
2.3813463e-06
2.3786148e-06
2.3762453e-06
2.3741882e-06
2.3724011e-06
2.3708476e-06
2.3694965e-06
2.3683206e-06
2.367297e-06
2.3664055e-06
2.3656287e-06
2.3649518e-06
2.3643617e-06
2.3638472e-06
2.3633985e-06
2.3630071e-06
2.3626656e-06
2.6732942e-06
2.5817941e-06
2.55105e-06
2.532482e-06
2.5140283e-06
2.4953442e-06
2.4777335e-06
2.4619296e-06
2.448104e-06
2.4361496e-06
2.4258608e-06
2.4170164e-06
2.409411e-06
2.4028644e-06
2.3972223e-06
2.3923534e-06
2.3881465e-06
2.3845075e-06
2.3813564e-06
2.3786252e-06
2.3762559e-06
2.3741989e-06
2.3724118e-06
2.3708583e-06
2.369507e-06
2.368331e-06
2.3673072e-06
2.3664155e-06
2.3656386e-06
2.3649615e-06
2.3643712e-06
2.3638566e-06
2.3634078e-06
2.3630162e-06
2.3626747e-06
2.6732944e-06
2.5817946e-06
2.5510502e-06
2.5324821e-06
2.5140287e-06
2.4953448e-06
2.4777345e-06
2.4619311e-06
2.4481062e-06
2.4361526e-06
2.4258647e-06
2.4170212e-06
2.4094168e-06
2.4028713e-06
2.3972302e-06
2.3923622e-06
2.3881562e-06
2.3845178e-06
2.3813673e-06
2.3786365e-06
2.3762674e-06
2.3742106e-06
2.3724236e-06
2.37087e-06
2.3695187e-06
2.3683426e-06
2.3673187e-06
2.3664269e-06
2.3656499e-06
2.3649727e-06
2.3643824e-06
2.3638677e-06
2.3634187e-06
2.3630271e-06
2.3626855e-06
2.6732947e-06
2.5817951e-06
2.5510504e-06
2.5324823e-06
2.514029e-06
2.4953455e-06
2.4777356e-06
2.4619328e-06
2.4481086e-06
2.4361558e-06
2.4258689e-06
2.4170265e-06
2.4094232e-06
2.4028788e-06
2.3972387e-06
2.3923717e-06
2.3881665e-06
2.3845289e-06
2.3813789e-06
2.3786485e-06
2.3762798e-06
2.3742232e-06
2.3724363e-06
2.3708828e-06
2.3695315e-06
2.3683555e-06
2.3673315e-06
2.3664397e-06
2.3656626e-06
2.3649854e-06
2.364395e-06
2.3638802e-06
2.3634312e-06
2.3630396e-06
2.3626979e-06
2.6732949e-06
2.5817956e-06
2.5510506e-06
2.5324826e-06
2.5140294e-06
2.4953463e-06
2.4777368e-06
2.4619347e-06
2.4481113e-06
2.4361595e-06
2.4258736e-06
2.4170323e-06
2.4094301e-06
2.4028869e-06
2.3972479e-06
2.3923819e-06
2.3881776e-06
2.3845408e-06
2.3813914e-06
2.3786615e-06
2.3762931e-06
2.3742367e-06
2.37245e-06
2.3708967e-06
2.3695454e-06
2.3683694e-06
2.3673455e-06
2.3664537e-06
2.3656766e-06
2.3649994e-06
2.364409e-06
2.3638941e-06
2.3634451e-06
2.3630535e-06
2.3627118e-06
2.6732952e-06
2.581796e-06
2.5510508e-06
2.5324828e-06
2.5140299e-06
2.4953471e-06
2.4777383e-06
2.4619368e-06
2.4481143e-06
2.4361635e-06
2.4258787e-06
2.4170386e-06
2.4094377e-06
2.4028957e-06
2.3972578e-06
2.3923929e-06
2.3881895e-06
2.3845534e-06
2.3814047e-06
2.3786753e-06
2.3763073e-06
2.3742513e-06
2.3724648e-06
2.3709116e-06
2.3695605e-06
2.3683846e-06
2.3673607e-06
2.3664689e-06
2.3656919e-06
2.3650146e-06
2.3644242e-06
2.3639094e-06
2.3634604e-06
2.3630687e-06
2.362727e-06
2.6732953e-06
2.5817963e-06
2.5510511e-06
2.5324832e-06
2.5140305e-06
2.4953482e-06
2.4777399e-06
2.4619393e-06
2.4481177e-06
2.436168e-06
2.4258844e-06
2.4170455e-06
2.4094459e-06
2.4029051e-06
2.3972684e-06
2.3924045e-06
2.3882021e-06
2.3845668e-06
2.3814187e-06
2.3786899e-06
2.3763223e-06
2.3742666e-06
2.3724804e-06
2.3709274e-06
2.3695764e-06
2.3684006e-06
2.3673768e-06
2.3664851e-06
2.3657081e-06
2.3650309e-06
2.3644405e-06
2.3639257e-06
2.3634767e-06
2.363085e-06
2.3627433e-06
2.6732952e-06
2.5817963e-06
2.5510512e-06
2.5324834e-06
2.5140311e-06
2.4953493e-06
2.4777417e-06
2.4619419e-06
2.4481214e-06
2.4361728e-06
2.4258904e-06
2.4170529e-06
2.4094546e-06
2.402915e-06
2.3972795e-06
2.3924167e-06
2.3882152e-06
2.3845807e-06
2.3814333e-06
2.378705e-06
2.3763379e-06
2.3742825e-06
2.3724966e-06
2.3709438e-06
2.369593e-06
2.3684173e-06
2.3673937e-06
2.366502e-06
2.3657251e-06
2.3650479e-06
2.3644575e-06
2.3639427e-06
2.3634938e-06
2.3631021e-06
2.3627605e-06
2.6732951e-06
2.5817962e-06
2.5510513e-06
2.5324837e-06
2.5140317e-06
2.4953504e-06
2.4777436e-06
2.4619447e-06
2.4481253e-06
2.436178e-06
2.4258969e-06
2.4170607e-06
2.4094638e-06
2.4029255e-06
2.3972912e-06
2.3924295e-06
2.3882289e-06
2.3845952e-06
2.3814485e-06
2.3787208e-06
2.3763541e-06
2.3742991e-06
2.3725135e-06
2.370961e-06
2.3696104e-06
2.3684348e-06
2.3674113e-06
2.3665197e-06
2.3657428e-06
2.3650657e-06
2.3644754e-06
2.3639607e-06
2.3635117e-06
2.3631201e-06
2.3627785e-06
2.673295e-06
2.5817962e-06
2.5510516e-06
2.5324842e-06
2.5140326e-06
2.4953519e-06
2.4777459e-06
2.4619481e-06
2.4481298e-06
2.4361837e-06
2.4259041e-06
2.4170693e-06
2.4094738e-06
2.4029368e-06
2.3973038e-06
2.3924431e-06
2.3882435e-06
2.3846106e-06
2.3814646e-06
2.3787374e-06
2.3763712e-06
2.3743166e-06
2.3725312e-06
2.3709789e-06
2.3696285e-06
2.3684532e-06
2.3674297e-06
2.3665383e-06
2.3657615e-06
2.3650845e-06
2.3644942e-06
2.3639795e-06
2.3635306e-06
2.363139e-06
2.3627974e-06
2.6732949e-06
2.5817962e-06
2.551052e-06
2.5324849e-06
2.5140338e-06
2.4953537e-06
2.4777485e-06
2.4619518e-06
2.4481348e-06
2.4361901e-06
2.4259119e-06
2.4170786e-06
2.4094844e-06
2.4029488e-06
2.3973169e-06
2.3924573e-06
2.3882586e-06
2.3846266e-06
2.3814812e-06
2.3787546e-06
2.3763889e-06
2.3743346e-06
2.3725496e-06
2.3709976e-06
2.3696473e-06
2.3684722e-06
2.3674489e-06
2.3665575e-06
2.3657808e-06
2.3651039e-06
2.3645137e-06
2.363999e-06
2.3635502e-06
2.3631586e-06
2.362817e-06
2.6732948e-06
2.5817963e-06
2.5510525e-06
2.5324857e-06
2.514035e-06
2.4953557e-06
2.4777515e-06
2.4619559e-06
2.4481402e-06
2.436197e-06