/*--------------------------------*- C++ -*----------------------------------*\
  =========                 |
  \\      /  F ield         | OpenFOAM: The Open Source CFD Toolbox
   \\    /   O peration     | Website:  https://openfoam.org
    \\  /    A nd           | Version:  12
     \\/     M anipulation  |
\*---------------------------------------------------------------------------*/
FoamFile
{
    format      ascii;
    class       volVectorField;
    location    "3000";
    object      wallShearStress;
}
// * * * * * * * * * * * * * * * * * * * * * * * * * * * * * * * * * * * * * //

dimensions      [0 2 -2 0 0 0 0];

internalField   uniform (0 0 0);

boundaryField
{
    lowerWall
    {
        type            calculated;
        value           nonuniform List<vector> 
600
(
(-3.9507488 -0.81892294 0)
(-2.4145322 -0.36464367 0)
(-1.6323978 -0.13809945 0)
(-1.2501772 -0.06043498 0)
(-1.0630523 -0.021793425 0)
(-0.94317315 -0.013868638 0)
(-0.8573655 -0.010473193 0)
(-0.79042234 -0.008281957 0)
(-0.73645737 -0.006734113 0)
(-0.69174058 -0.0056089241 0)
(-0.65389483 -0.0047468508 0)
(-0.62134484 -0.0040786865 0)
(-0.59293868 -0.0035496488 0)
(-0.56785696 -0.0031196923 0)
(-0.54550374 -0.0027655882 0)
(-0.52541143 -0.0024719999 0)
(-0.50721336 -0.0022245315 0)
(-0.49062566 -0.0020136415 0)
(-0.47542075 -0.00183219 0)
(-0.46141488 -0.0016748723 0)
(-0.44845457 -0.0015378693 0)
(-0.43641162 -0.001417453 0)
(-0.4251807 -0.0013108751 0)
(-0.41467278 -0.0012160739 0)
(-0.40481194 -0.0011313569 0)
(-0.39553252 -0.0010553818 0)
(-0.3867777 -0.00098690704 0)
(-0.37849845 -0.00092494015 0)
(-0.37065192 -0.00086866161 0)
(-0.36320059 -0.00081735268 0)
(-0.35611158 -0.00077042176 0)
(-0.34935571 -0.00072740848 0)
(-0.34290664 -0.00068790674 0)
(-0.33674087 -0.00065150637 0)
(-0.33083759 -0.0006178704 0)
(-0.3251781 -0.0005867235 0)
(-0.3197455 -0.0005578245 0)
(-0.31452449 -0.00053095515 0)
(-0.30950126 -0.00050592668 0)
(-0.30466312 -0.000482587 0)
(-0.29999847 -0.00046077752 0)
(-0.29549676 -0.00044036384 0)
(-0.29114833 -0.00042122651 0)
(-0.28694433 -0.00040325646 0)
(-0.28287664 -0.00038635591 0)
(-0.27893781 -0.00037044089 0)
(-0.27512095 -0.00035544225 0)
(-0.27141953 -0.00034129796 0)
(-0.26782757 -0.00032793658 0)
(-0.26433955 -0.00031529864 0)
(-0.26095032 -0.00030333173 0)
(-0.25765512 -0.00029198829 0)
(-0.25444952 -0.0002812276 0)
(-0.25132932 -0.00027101016 0)
(-0.24829064 -0.00026129844 0)
(-0.24532985 -0.00025206015 0)
(-0.24244353 -0.00024326841 0)
(-0.23962842 -0.0002348933 0)
(-0.23688152 -0.00022690789 0)
(-0.23419999 -0.00021929009 0)
(-0.23158113 -0.00021201673 0)
(-0.22902243 -0.00020506597 0)
(-0.22652154 -0.000198419 0)
(-0.2240762 -0.00019205812 0)
(-0.22168433 -0.00018596799 0)
(-0.2193439 -0.00018013658 0)
(-0.21705298 -0.00017454966 0)
(-0.21480975 -0.00016919227 0)
(-0.21261251 -0.00016405112 0)
(-0.21045963 -0.00015911496 0)
(-0.20834958 -0.00015437337 0)
(-0.20628089 -0.0001498166 0)
(-0.20425217 -0.00014543517 0)
(-0.20226209 -0.00014122115 0)
(-0.20030937 -0.00013716583 0)
(-0.19839282 -0.00013326166 0)
(-0.19651126 -0.00012950224 0)
(-0.19466359 -0.00012587934 0)
(-0.19284877 -0.00012238672 0)
(-0.19106578 -0.00011901927 0)
(-0.18931367 -0.0001157706 0)
(-0.1875915 -0.00011263576 0)
(-0.1858984 -0.00010960954 0)
(-0.18423351 -0.00010668635 0)
(-0.18259603 -0.0001038615 0)
(-0.18098521 -0.00010113129 0)
(-0.17940029 -9.8492405e-05 0)
(-0.17784055 -9.5941046e-05 0)
(-0.17630529 -9.3473285e-05 0)
(-0.17479384 -9.1085511e-05 0)
(-0.17330559 -8.8774408e-05 0)
(-0.1718399 -8.6536963e-05 0)
(-0.17039618 -8.4369829e-05 0)
(-0.16897389 -8.2269568e-05 0)
(-0.16757249 -8.0234368e-05 0)
(-0.16619143 -7.8261801e-05 0)
(-0.16483024 -7.6349236e-05 0)
(-0.16348839 -7.4495299e-05 0)
(-0.16216543 -7.2697112e-05 0)
(-0.16086089 -7.095259e-05 0)
(-0.15957433 -6.9259382e-05 0)
(-0.15830533 -6.7615596e-05 0)
(-0.15705349 -6.6019412e-05 0)
(-0.15581841 -6.4469338e-05 0)
(-0.15459971 -6.2964092e-05 0)
(-0.15339701 -6.1501895e-05 0)
(-0.15220995 -6.0080858e-05 0)
(-0.15103819 -5.8699282e-05 0)
(-0.14988141 -5.7356501e-05 0)
(-0.14873925 -5.6050872e-05 0)
(-0.14761143 -5.4781167e-05 0)
(-0.14649763 -5.3546176e-05 0)
(-0.14539755 -5.2344583e-05 0)
(-0.14431091 -5.1175636e-05 0)
(-0.14323743 -5.003815e-05 0)
(-0.14217683 -4.8930995e-05 0)
(-0.14112886 -4.7853133e-05 0)
(-0.14009326 -4.6803586e-05 0)
(-0.13906978 -4.5781241e-05 0)
(-0.1380582 -4.478519e-05 0)
(-0.13705828 -4.381479e-05 0)
(-0.1360698 -4.2869522e-05 0)
(-0.13509253 -4.1948596e-05 0)
(-0.13412626 -4.1051304e-05 0)
(-0.13317077 -4.0176656e-05 0)
(-0.13222587 -3.9324074e-05 0)
(-0.13129136 -3.8492656e-05 0)
(-0.13036704 -3.7681913e-05 0)
(-0.12945274 -3.6891024e-05 0)
(-0.12854827 -3.6119508e-05 0)
(-0.12765347 -3.5366667e-05 0)
(-0.12676816 -3.4632263e-05 0)
(-0.12589217 -3.3915644e-05 0)
(-0.12502535 -3.321653e-05 0)
(-0.12416752 -3.2534242e-05 0)
(-0.12331853 -3.1868357e-05 0)
(-0.12247824 -3.1218156e-05 0)
(-0.12164648 -3.0583286e-05 0)
(-0.12082313 -2.9963218e-05 0)
(-0.12000805 -2.9357629e-05 0)
(-0.1192011 -2.8766128e-05 0)
(-0.11840214 -2.8188414e-05 0)
(-0.11761105 -2.762407e-05 0)
(-0.1168277 -2.7072804e-05 0)
(-0.11605196 -2.6534051e-05 0)
(-0.11528372 -2.6007587e-05 0)
(-0.11452286 -2.5493182e-05 0)
(-0.11376925 -2.4990281e-05 0)
(-0.1130228 -2.4498683e-05 0)
(-0.11228338 -2.401804e-05 0)
(-0.1115509 -2.3548224e-05 0)
(-0.11082525 -2.3088781e-05 0)
(-0.11010632 -2.2639701e-05 0)
(-0.10939402 -2.220045e-05 0)
(-0.10868823 -2.1770973e-05 0)
(-0.10798888 -2.1350767e-05 0)
(-0.10729585 -2.0939797e-05 0)
(-0.10660908 -2.0537515e-05 0)
(-0.10592846 -2.0144062e-05 0)
(-0.10525391 -1.9758992e-05 0)
(-0.10458534 -1.9382291e-05 0)
(-0.10392268 -1.9013629e-05 0)
(-0.10326582 -1.8653014e-05 0)
(-0.1026147 -1.8299975e-05 0)
(-0.10196922 -1.7954551e-05 0)
(-0.10132932 -1.7616312e-05 0)
(-0.10069492 -1.7285304e-05 0)
(-0.10006594 -1.6961069e-05 0)
(-0.099442314 -1.66436e-05 0)
(-0.098823973 -1.6332633e-05 0)
(-0.098210849 -1.6028017e-05 0)
(-0.097602876 -1.5729896e-05 0)
(-0.09699998 -1.5437926e-05 0)
(-0.096402094 -1.5152175e-05 0)
(-0.095809151 -1.4872189e-05 0)
(-0.095221086 -1.4598037e-05 0)
(-0.094637837 -1.432935e-05 0)
(-0.094059342 -1.4066195e-05 0)
(-0.093485547 -1.3808252e-05 0)
(-0.092916392 -1.3555588e-05 0)
(-0.092351822 -1.3307811e-05 0)
(-0.091791783 -1.3065131e-05 0)
(-0.091236219 -1.2827239e-05 0)
(-0.090685075 -1.259418e-05 0)
(-0.090138295 -1.2365785e-05 0)
(-0.089595826 -1.2142083e-05 0)
(-0.08905761 -1.1922768e-05 0)
(-0.088523597 -1.1707778e-05 0)
(-0.08799374 -1.1496968e-05 0)
(-0.087467992 -1.1290324e-05 0)
(-0.086946305 -1.1087669e-05 0)
(-0.086428637 -1.0888928e-05 0)
(-0.08591494 -1.069411e-05 0)
(-0.08540517 -1.050295e-05 0)
(-0.08489928 -1.0315692e-05 0)
(-0.084397224 -1.0131935e-05 0)
(-0.083898958 -9.9519694e-06 0)
(-0.083404441 -9.7752395e-06 0)
(-0.082913627 -9.6022106e-06 0)
(-0.082426475 -9.4322373e-06 0)
(-0.081942947 -9.265678e-06 0)
(-0.081463003 -9.1021013e-06 0)
(-0.080986609 -8.9417344e-06 0)
(-0.080513728 -8.7842438e-06 0)
(-0.080044321 -8.6299568e-06 0)
(-0.079578349 -8.4785583e-06 0)
(-0.079115772 -8.330051e-06 0)
(-0.078656555 -8.1843403e-06 0)
(-0.078200662 -8.0413527e-06 0)
(-0.077748057 -7.9010609e-06 0)
(-0.077298708 -7.7633812e-06 0)
(-0.076852579 -7.6282835e-06 0)
(-0.076409639 -7.495728e-06 0)
(-0.075969857 -7.3655456e-06 0)
(-0.075533203 -7.2377434e-06 0)
(-0.075099646 -7.1123933e-06 0)
(-0.074669155 -6.9892164e-06 0)
(-0.074241694 -6.8686619e-06 0)
(-0.07381723 -6.7500745e-06 0)
(-0.073395736 -6.6338882e-06 0)
(-0.072977181 -6.5196011e-06 0)
(-0.072561536 -6.4076694e-06 0)
(-0.072148774 -6.2974699e-06 0)
(-0.071738867 -6.1895524e-06 0)
(-0.07133179 -6.0832978e-06 0)
(-0.070927517 -5.9792542e-06 0)
(-0.070526022 -5.8767586e-06 0)
(-0.070127279 -5.7763796e-06 0)
(-0.069731259 -5.6778388e-06 0)
(-0.069337935 -5.5810397e-06 0)
(-0.068947277 -5.4860794e-06 0)
(-0.068559264 -5.3928453e-06 0)
(-0.068173868 -5.3012648e-06 0)
(-0.067791066 -5.2112183e-06 0)
(-0.067410836 -5.1228301e-06 0)
(-0.067033155 -5.0359711e-06 0)
(-0.066658001 -4.9507109e-06 0)
(-0.066285355 -4.8668701e-06 0)
(-0.065915196 -4.7845711e-06 0)
(-0.065547497 -4.7038144e-06 0)
(-0.065182233 -4.6244607e-06 0)
(-0.064819384 -4.5465787e-06 0)
(-0.064458923 -4.469901e-06 0)
(-0.064100832 -4.3948496e-06 0)
(-0.063745088 -4.3209343e-06 0)
(-0.063391671 -4.2485079e-06 0)
(-0.063040561 -4.1770585e-06 0)
(-0.062691741 -4.1071492e-06 0)
(-0.062345194 -4.0381377e-06 0)
(-0.062000903 -3.9706951e-06 0)
(-0.061658848 -3.9040977e-06 0)
(-0.06131901 -3.8388588e-06 0)
(-0.060981364 -3.7747891e-06 0)
(-0.06064589 -3.7118365e-06 0)
(-0.06031257 -3.6499812e-06 0)
(-0.059981385 -3.589192e-06 0)
(-0.059652318 -3.5294596e-06 0)
(-0.059325351 -3.4707739e-06 0)
(-0.059000466 -3.4131279e-06 0)
(-0.058677647 -3.3563404e-06 0)
(-0.058356881 -3.3006003e-06 0)
(-0.058038155 -3.2458241e-06 0)
(-0.057721454 -3.191833e-06 0)
(-0.057406758 -3.1390497e-06 0)
(-0.057094048 -3.0869575e-06 0)
(-0.056783306 -3.0360351e-06 0)
(-0.056474511 -2.9857509e-06 0)
(-0.056167654 -2.9365443e-06 0)
(-0.055862715 -2.8879745e-06 0)
(-0.05555968 -2.8404422e-06 0)
(-0.055258535 -2.7935071e-06 0)
(-0.054959263 -2.7476098e-06 0)
(-0.054661852 -2.7022412e-06 0)
(-0.054366294 -2.6576764e-06 0)
(-0.054072578 -2.6138969e-06 0)
(-0.053780686 -2.5708571e-06 0)
(-0.053490601 -2.5285976e-06 0)
(-0.053202305 -2.4870829e-06 0)
(-0.052915783 -2.4462916e-06 0)
(-0.052631023 -2.4061517e-06 0)
(-0.05234801 -2.3667176e-06 0)
(-0.05206673 -2.327987e-06 0)
(-0.051787172 -2.2899296e-06 0)
(-0.051509321 -2.2524144e-06 0)
(-0.051233165 -2.2155728e-06 0)
(-0.050958695 -2.1793077e-06 0)
(-0.050685902 -2.1436231e-06 0)
(-0.05041478 -2.1084762e-06 0)
(-0.05014531 -2.0741275e-06 0)
(-0.049877474 -2.0401963e-06 0)
(-0.049611259 -2.0069936e-06 0)
(-0.04934665 -1.9742609e-06 0)
(-0.04908364 -1.9421657e-06 0)
(-0.048822214 -1.9105142e-06 0)
(-0.048562361 -1.8794347e-06 0)
(-0.048304071 -1.8488488e-06 0)
(-0.048047329 -1.8188132e-06 0)
(-0.047792127 -1.789246e-06 0)
(-0.047538459 -1.760092e-06 0)
(-0.047286319 -1.7314452e-06 0)
(-0.047035697 -1.7032614e-06 0)
(-0.046786575 -1.675646e-06 0)
(-0.046538936 -1.6484555e-06 0)
(-0.046292772 -1.6217683e-06 0)
(-0.04604807 -1.5954549e-06 0)
(-0.045804821 -1.5696328e-06 0)
(-0.045563016 -1.5442174e-06 0)
(-0.045322643 -1.5192392e-06 0)
(-0.045083691 -1.494649e-06 0)
(-0.044846151 -1.4705527e-06 0)
(-0.044610014 -1.4467234e-06 0)
(-0.044375274 -1.4233357e-06 0)
(-0.04414193 -1.4002539e-06 0)
(-0.043909969 -1.3776203e-06 0)
(-0.043679375 -1.3553832e-06 0)
(-0.043450134 -1.3335583e-06 0)
(-0.043222236 -1.3120542e-06 0)
(-0.042995672 -1.2909184e-06 0)
(-0.042770435 -1.2700842e-06 0)
(-0.042546514 -1.2496779e-06 0)
(-0.0423239 -1.2295493e-06 0)
(-0.042102586 -1.2097799e-06 0)
(-0.041882559 -1.1902903e-06 0)
(-0.041663814 -1.1711542e-06 0)
(-0.041446345 -1.1522947e-06 0)
(-0.041230151 -1.1337018e-06 0)
(-0.041015223 -1.1154487e-06 0)
(-0.040801543 -1.0975654e-06 0)
(-0.040589097 -1.0799644e-06 0)
(-0.04037788 -1.0626132e-06 0)
(-0.040167881 -1.0456141e-06 0)
(-0.039959096 -1.0288218e-06 0)
(-0.039751513 -1.0123611e-06 0)
(-0.039545127 -9.9612859e-07 0)
(-0.039339928 -9.8020028e-07 0)
(-0.039135908 -9.6450273e-07 0)
(-0.038933058 -9.4911251e-07 0)
(-0.038731375 -9.3383247e-07 0)
(-0.038530861 -9.1884963e-07 0)
(-0.038331506 -9.0412647e-07 0)
(-0.03813329 -8.8971893e-07 0)
(-0.037936206 -8.7547601e-07 0)
(-0.037740244 -8.6153653e-07 0)
(-0.037545396 -8.4780179e-07 0)
(-0.03735166 -8.3424963e-07 0)
(-0.037159025 -8.2095215e-07 0)
(-0.036967486 -8.0788666e-07 0)
(-0.036777034 -7.9498936e-07 0)
(-0.036587662 -7.8234851e-07 0)
(-0.03639936 -7.6990793e-07 0)
(-0.036212123 -7.5759889e-07 0)
(-0.036025961 -7.4549982e-07 0)
(-0.03584086 -7.3362696e-07 0)
(-0.035656801 -7.2193592e-07 0)
(-0.03547378 -7.1049539e-07 0)
(-0.035291784 -6.9924015e-07 0)
(-0.035110811 -6.8813031e-07 0)
(-0.034930853 -6.7720919e-07 0)
(-0.034751908 -6.6643301e-07 0)
(-0.034573965 -6.5587811e-07 0)
(-0.03439702 -6.4545404e-07 0)
(-0.034221062 -6.3522957e-07 0)
(-0.034046089 -6.2519285e-07 0)
(-0.033872087 -6.1525935e-07 0)
(-0.03369907 -6.0547736e-07 0)
(-0.033527028 -5.9584233e-07 0)
(-0.033355943 -5.864096e-07 0)
(-0.033185805 -5.7720144e-07 0)
(-0.033016609 -5.6806001e-07 0)
(-0.032848349 -5.5908634e-07 0)
(-0.032681023 -5.5026808e-07 0)
(-0.032514624 -5.4157674e-07 0)
(-0.032349147 -5.3297902e-07 0)
(-0.032184584 -5.2461001e-07 0)
(-0.032020927 -5.1630544e-07 0)
(-0.031858173 -5.0816178e-07 0)
(-0.031696311 -5.0015536e-07 0)
(-0.031535348 -4.9218825e-07 0)
(-0.031375287 -4.8448522e-07 0)
(-0.0312161 -4.7684389e-07 0)
(-0.031057785 -4.6934367e-07 0)
(-0.030900331 -4.6196336e-07 0)
(-0.03074374 -4.5469955e-07 0)
(-0.030588004 -4.4751193e-07 0)
(-0.030433124 -4.4050176e-07 0)
(-0.030279086 -4.3354313e-07 0)
(-0.030125895 -4.267942e-07 0)
(-0.029973531 -4.2001149e-07 0)
(-0.029822003 -4.1348143e-07 0)
(-0.029671288 -4.0698686e-07 0)
(-0.029521408 -4.0053564e-07 0)
(-0.02937235 -3.9423523e-07 0)
(-0.029224104 -3.8808825e-07 0)
(-0.029076648 -3.8200224e-07 0)
(-0.028929995 -3.7602655e-07 0)
(-0.02878413 -3.7009267e-07 0)
(-0.028639061 -3.643136e-07 0)
(-0.02849477 -3.5860973e-07 0)
(-0.028351265 -3.5296713e-07 0)
(-0.02820853 -3.4751144e-07 0)
(-0.028066569 -3.4197019e-07 0)
(-0.02792537 -3.3667465e-07 0)
(-0.027784929 -3.3135965e-07 0)
(-0.027645248 -3.261837e-07 0)
(-0.027506338 -3.2103969e-07 0)
(-0.027368165 -3.1609197e-07 0)
(-0.027230731 -3.1114133e-07 0)
(-0.027094025 -3.0629897e-07 0)
(-0.026958062 -3.0147239e-07 0)
(-0.02682282 -2.9681292e-07 0)
(-0.026688313 -2.9211473e-07 0)
(-0.026554517 -2.8756365e-07 0)
(-0.026421449 -2.8309737e-07 0)
(-0.026289079 -2.7868006e-07 0)
(-0.026157433 -2.7430878e-07 0)
(-0.026026471 -2.7004825e-07 0)
(-0.02589623 -2.6576369e-07 0)
(-0.025766685 -2.6162181e-07 0)
(-0.02563784 -2.5758243e-07 0)
(-0.025509661 -2.5355417e-07 0)
(-0.025382177 -2.495893e-07 0)
(-0.025255361 -2.4574608e-07 0)
(-0.025129236 -2.4186009e-07 0)
(-0.025003768 -2.3809773e-07 0)
(-0.024878985 -2.3444264e-07 0)
(-0.024754853 -2.3068405e-07 0)
(-0.024631395 -2.2714287e-07 0)
(-0.024508583 -2.2354133e-07 0)
(-0.024386432 -2.2014052e-07 0)
(-0.024264923 -2.1663212e-07 0)
(-0.024144093 -2.1332224e-07 0)
(-0.024023881 -2.0991618e-07 0)
(-0.02390432 -2.0675353e-07 0)
(-0.023785372 -2.0346185e-07 0)
(-0.023667083 -2.0029991e-07 0)
(-0.0235494 -1.9718754e-07 0)
(-0.023432369 -1.9410895e-07 0)
(-0.023315936 -1.9105444e-07 0)
(-0.02320015 -1.8810765e-07 0)
(-0.023084953 -1.851725e-07 0)
(-0.022970398 -1.8230252e-07 0)
(-0.02285642 -1.7944203e-07 0)
(-0.022743085 -1.7662513e-07 0)
(-0.022630336 -1.7388889e-07 0)
(-0.02251821 -1.7116343e-07 0)
(-0.022406645 -1.685315e-07 0)
(-0.022295703 -1.6589555e-07 0)
(-0.022185323 -1.6331883e-07 0)
(-0.022075565 -1.6067726e-07 0)
(-0.02196636 -1.5828148e-07 0)
(-0.021857773 -1.5573987e-07 0)
(-0.021749731 -1.533673e-07 0)
(-0.021642302 -1.5088722e-07 0)
(-0.021535414 -1.4865027e-07 0)
(-0.021429128 -1.4620309e-07 0)
(-0.021323383 -1.4401408e-07 0)
(-0.021218254 -1.4164737e-07 0)
(-0.021113637 -1.394909e-07 0)
(-0.021009625 -1.3732877e-07 0)
(-0.020906125 -1.3519432e-07 0)
(-0.020803227 -1.3308427e-07 0)
(-0.020700838 -1.3100366e-07 0)
(-0.020599052 -1.2890946e-07 0)
(-0.020497766 -1.2689587e-07 0)
(-0.02039708 -1.2490427e-07 0)
(-0.020296886 -1.2296584e-07 0)
(-0.020197291 -1.2103451e-07 0)
(-0.020098178 -1.1914691e-07 0)
(-0.019999667 -1.1727277e-07 0)
(-0.019901645 -1.1539328e-07 0)
(-0.019804206 -1.1366714e-07 0)
(-0.019707244 -1.117367e-07 0)
(-0.019610874 -1.1010539e-07 0)
(-0.019514971 -1.0822009e-07 0)
(-0.019419659 -1.0664569e-07 0)
(-0.019324818 -1.0489809e-07 0)
(-0.019230567 -1.0328078e-07 0)
(-0.019136784 -1.0153929e-07 0)
(-0.01904359 -1.0009479e-07 0)
(-0.018950863 -9.8300772e-08 0)
(-0.018858722 -9.6818449e-08 0)
(-0.018767054 -9.5268393e-08 0)
(-0.018675983 -9.3735918e-08 0)
(-0.018585369 -9.2209365e-08 0)
(-0.018495356 -9.0735693e-08 0)
(-0.018405809 -8.9258582e-08 0)
(-0.018316863 -8.7798517e-08 0)
(-0.018228383 -8.636361e-08 0)
(-0.018140517 -8.4981524e-08 0)
(-0.01805313 -8.3530391e-08 0)
(-0.017966364 -8.2160788e-08 0)
(-0.017880091 -8.0748145e-08 0)
(-0.017794448 -7.9437118e-08 0)
(-0.017709314 -7.815264e-08 0)
(-0.017624827 -7.665514e-08 0)
(-0.017540887 -7.5461327e-08 0)
(-0.017457596 -7.3970195e-08 0)
(-0.017374897 -7.2745869e-08 0)
(-0.017292871 -7.1362872e-08 0)
(-0.017211493 -7.0155579e-08 0)
(-0.017130808 -6.8708748e-08 0)
(-0.017050858 -6.7451795e-08 0)
(-0.016971645 -6.5990039e-08 0)
(-0.016893274 -6.4724461e-08 0)
(-0.016815692 -6.3300266e-08 0)
(-0.016739108 -6.1881111e-08 0)
(-0.01666338 -6.0418057e-08 0)
(-0.016588865 -5.893361e-08 0)
(-0.016515302 -5.7350773e-08 0)
(-0.016443238 -5.575162e-08 0)
(-0.016372266 -5.4035363e-08 0)
(-0.016303174 -5.223887e-08 0)
(-0.016235381 -5.0315879e-08 0)
(-0.016169961 -4.8293255e-08 0)
(-0.016106182 -4.61265e-08 0)
(-0.016045358 -4.3722541e-08 0)
(-0.015986739 -4.1199871e-08 0)
(-0.015931631 -3.8328168e-08 0)
(-0.015879831 -3.5380419e-08 0)
(-0.015831819 -3.2028473e-08 0)
(-0.015788649 -2.9222125e-08 0)
(-0.015747683 -2.5708251e-08 0)
(-0.01571412 -2.1410006e-08 0)
(-0.015684646 -1.6791458e-08 0)
(-0.015664801 -7.3597954e-09 0)
(-0.015663454 3.6500851e-09 0)
(-0.015675503 1.3024071e-08 0)
(-0.015703865 2.564483e-08 0)
(-0.015755789 4.4497478e-08 0)
(-0.015844092 6.5758883e-08 0)
(-0.015964726 1.098424e-07 0)
(-0.016197722 1.7631547e-07 0)
(-0.016430337 6.2215364e-07 0)
(-0.016842725 7.4083616e-07 0)
(-0.01763761 9.9107968e-07 0)
(-0.018066151 4.7862891e-06 0)
(-0.018120348 4.1304865e-06 0)
(-0.032260297 8.3385492e-06 0)
(-0.046813839 5.6777661e-06 0)
(-0.051808993 3.2284371e-05 0)
(-0.053687373 2.6978918e-07 0)
(-0.05287906 -2.7224666e-07 0)
(-0.052734567 3.3125871e-08 0)
(-0.053008683 2.2459933e-07 0)
(-0.053566283 3.2744365e-07 0)
(-0.054219589 3.5512948e-07 0)
(-0.054888388 3.5465156e-07 0)
(-0.055556751 3.5576127e-07 0)
(-0.056241474 3.4906946e-07 0)
(-0.056899008 3.2417859e-07 0)
(-0.05750145 2.974563e-07 0)
(-0.058065882 2.6507987e-07 0)
(-0.058550634 2.2383391e-07 0)
(-0.058962554 1.8816615e-07 0)
(-0.05931029 1.5192646e-07 0)
(-0.059582901 1.1932876e-07 0)
(-0.059802163 9.1223228e-08 0)
(-0.059962431 6.3674298e-08 0)
(-0.060071044 4.1692714e-08 0)
(-0.060138191 2.1851847e-08 0)
(-0.060165644 5.8217412e-09 0)
(-0.060161427 -7.5933216e-09 0)
(-0.060133148 -1.7465183e-08 0)
(-0.060082661 -2.6824489e-08 0)
(-0.060013026 -3.4061958e-08 0)
(-0.059927371 -3.9960108e-08 0)
(-0.059830022 -4.4087593e-08 0)
(-0.059722162 -4.805789e-08 0)
(-0.059605145 -5.0212414e-08 0)
(-0.059484271 -5.1622896e-08 0)
(-0.059358473 -5.2745624e-08 0)
(-0.059228947 -5.3748968e-08 0)
(-0.059095779 -5.4303925e-08 0)
(-0.058961205 -5.420212e-08 0)
(-0.058825495 -5.4312591e-08 0)
(-0.058687675 -5.3997081e-08 0)
(-0.058550722 -5.3104309e-08 0)
(-0.058414346 -5.2397274e-08 0)
(-0.058278339 -5.15862e-08 0)
(-0.058143727 -5.0449262e-08 0)
(-0.058010509 -4.9539465e-08 0)
(-0.057878536 -4.8303888e-08 0)
(-0.057749024 -4.7011769e-08 0)
(-0.057621455 -4.5879664e-08 0)
(-0.057495062 -4.4878052e-08 0)
(-0.057371366 -4.324138e-08 0)
(-0.057250707 -4.2427842e-08 0)
(-0.057129847 -4.1262751e-08 0)
(-0.057013157 -3.9899383e-08 0)
(-0.056897655 -3.8958178e-08 0)
(-0.056784404 -3.8330498e-08 0)
(-0.056670145 -3.7221552e-08 0)
(-0.056561729 -3.6757861e-08 0)
(-0.056447183 -3.5770618e-08 0)
(-0.056343335 -3.7449144e-08 0)
(-0.056213754 -3.6351937e-08 0)
(-0.05611948 -4.6036001e-08 0)
(-0.055917844 -8.2058249e-08 0)
(-0.05578398 -2.077513e-07 0)
(-0.055523641 -1.5682715e-06 0)
)
;
    }
    lowerSymmetry
    {
        type            calculated;
        value           uniform (0 0 0);
    }
    upperSymmetry
    {
        type            calculated;
        value           uniform (0 0 0);
    }
    inlet
    {
        type            calculated;
        value           uniform (0 0 0);
    }
    outlet
    {
        type            calculated;
        value           uniform (0 0 0);
    }
    defaultFaces
    {
        type            empty;
    }
}


// ************************************************************************* //
