#      distance             U_x             U_y             U_z wallShearStr... wallShearStr... wallShearStr...               p           omega               k             nut
  5.5511169e-17       0.9994578   3.4849601e-22               0               0               0               0    0.0045210171       82.608692   1.4478256e-05   1.7503883e-07
   0.0021021021      0.99944178   3.4849601e-22               0               0               0               0    0.0045366021       81.764514   1.4318679e-05   1.7489778e-07
   0.0042042042      0.99942575   3.4849601e-22               0               0               0               0    0.0045521871       80.920336   1.4159103e-05   1.7475672e-07
   0.0063063063      0.99940973   3.4849601e-22               0               0               0               0    0.0045677721       80.076158   1.3999526e-05   1.7461567e-07
   0.0084084084      0.99939371   3.4849601e-22               0               0               0               0    0.0045833571        79.23198    1.383995e-05   1.7447461e-07
    0.010510511      0.99937768   3.4849601e-22               0               0               0               0    0.0045989421       78.387802   1.3680373e-05   1.7433356e-07
    0.012612613      0.99936166   3.4849601e-22               0               0               0               0    0.0046145271       77.543623   1.3520797e-05   1.7419251e-07
    0.014714715      0.99934563   3.4849601e-22               0               0               0               0    0.0046301121       76.699445    1.336122e-05   1.7405145e-07
    0.016816817      0.99932961   3.4849601e-22               0               0               0               0    0.0046456971       75.855267   1.3201644e-05    1.739104e-07
    0.018918919      0.99931359   3.4849601e-22               0               0               0               0    0.0046612821       75.011089   1.3042067e-05   1.7376935e-07
    0.021021021      0.99929756   3.4849601e-22               0               0               0               0    0.0046768671       74.166911   1.2882491e-05   1.7362829e-07
    0.023123123      0.99927092   5.6891938e-22               0               0               0               0      0.00470314       73.498658   1.2757386e-05   1.7349597e-07
    0.025225225      0.99924393   5.6891938e-22               0               0               0               0    0.0047297623       72.836158   1.2633407e-05   1.7336393e-07
    0.027327327      0.99921695   5.6891938e-22               0               0               0               0    0.0047563846       72.173658   1.2509429e-05   1.7323189e-07
    0.029429429      0.99918996   5.6891938e-22               0               0               0               0    0.0047830069       71.511158   1.2385451e-05   1.7309985e-07
    0.031531532      0.99916297   5.6891938e-22               0               0               0               0    0.0048096292       70.848658   1.2261473e-05   1.7296782e-07
    0.033633634      0.99913598   5.6891938e-22               0               0               0               0    0.0048362516       70.186158   1.2137494e-05   1.7283578e-07
    0.035735736        0.999109   5.6891938e-22               0               0               0               0    0.0048628739       69.523658   1.2013516e-05   1.7270374e-07
    0.037837838      0.99908201   5.6891938e-22               0               0               0               0    0.0048894962       68.861158   1.1889538e-05    1.725717e-07
     0.03993994      0.99905502   5.6891938e-22               0               0               0               0    0.0049161185       68.198658    1.176556e-05   1.7243966e-07
    0.042042042      0.99902803   5.6891938e-22               0               0               0               0    0.0049427409       67.536158   1.1641581e-05   1.7230762e-07
    0.044144144      0.99900105   5.6891938e-22               0               0               0               0    0.0049693632       66.873658   1.1517603e-05   1.7217559e-07
    0.046246246      0.99897406   5.6891938e-22               0               0               0               0    0.0049959855       66.211158   1.1393625e-05   1.7204355e-07
    0.048348348      0.99893319   1.0222479e-21               0               0               0               0    0.0050350683         65.6151   1.1282563e-05   1.7191564e-07
     0.05045045       0.9988855   1.0222479e-21               0               0               0               0    0.0050802689       65.051665   1.1177843e-05   1.7178977e-07
    0.052552553      0.99883782   1.0222479e-21               0               0               0               0    0.0051254694       64.488229   1.1073122e-05    1.716639e-07
    0.054654655      0.99879014   1.0222479e-21               0               0               0               0      0.00517067       63.924793   1.0968402e-05   1.7153802e-07
    0.056756757      0.99874245   1.0222479e-21               0               0               0               0    0.0052158706       63.361358   1.0863681e-05   1.7141215e-07
    0.058858859      0.99869477   1.0222479e-21               0               0               0               0    0.0052610712       62.797922   1.0758961e-05   1.7128627e-07
    0.060960961      0.99864708   1.0222479e-21               0               0               0               0    0.0053062718       62.234486    1.065424e-05    1.711604e-07
    0.063063063       0.9985994   1.0222479e-21               0               0               0               0    0.0053514723       61.671051    1.054952e-05   1.7103453e-07
    0.065165165      0.99855171   1.0222479e-21               0               0               0               0    0.0053966729       61.107615     1.04448e-05   1.7090865e-07
    0.067267267      0.99847837    1.527564e-21               0               0               0               0     0.005471078       60.594588   1.0349827e-05   1.7078642e-07
    0.069369369      0.99840067    1.527564e-21               0               0               0               0    0.0055504407       60.090119    1.025651e-05   1.7066481e-07
    0.071471471      0.99832298    1.527564e-21               0               0               0               0    0.0056298033       59.585649   1.0163192e-05    1.705432e-07
    0.073573574      0.99824528    1.527564e-21               0               0               0               0     0.005709166        59.08118   1.0069875e-05   1.7042159e-07
    0.075675676      0.99816758    1.527564e-21               0               0               0               0    0.0057885287        58.57671   9.9765576e-06   1.7029998e-07
    0.077777778      0.99808988    1.527564e-21               0               0               0               0    0.0058678914       58.072241   9.8832401e-06   1.7017837e-07
     0.07987988      0.99795707   3.7812893e-21               0               0               0               0     0.005983957       57.587631   9.7937508e-06   1.7005836e-07
    0.081981982      0.99777635   3.7812893e-21               0               0               0               0     0.006131914       57.120278   9.7075876e-06   1.6993973e-07
    0.084084084      0.99759564   3.7812893e-21               0               0               0               0     0.006279871       56.652925   9.6214245e-06    1.698211e-07
    0.086186186      0.99741493   3.7812893e-21               0               0               0               0    0.0064278281       56.185572   9.5352613e-06   1.6970248e-07
    0.088288288      0.99723381   7.7120947e-21               0               0               0               0    0.0065766141       55.718334     9.44912e-06   1.6958386e-07
     0.09039039      0.99696337   7.7120947e-21               0               0               0               0    0.0069054005       55.276023   9.3677137e-06   1.6946656e-07
    0.092492492      0.99669293   7.7120947e-21               0               0               0               0    0.0072341868       54.833711   9.2863074e-06   1.6934926e-07
    0.094594595      0.99642249   7.7120947e-21               0               0               0               0    0.0075629732         54.3914   9.2049011e-06   1.6923196e-07
    0.096696697      0.83436974    9.065547e-20               0  -0.00054359124   -5.755615e-07               0    0.0079294226       61.565311   9.1590002e-06   3.3090221e-07
    0.098798799      0.62033014    9.065547e-20               0   -0.0012618592  -1.3360729e-06               0    0.0083079747       71.186606   9.1245086e-06     5.44561e-07
      0.1009009      0.35479766    8.428131e-20               0   -0.0021426721  -2.7071479e-06               0    0.0084316515        83.29435   9.1680692e-06    8.079244e-07
       0.103003      0.02060798    8.428131e-20               0   -0.0032402118  -4.8923076e-06               0    0.0082154944        98.71736   9.3156994e-06   1.1375606e-06
     0.10510511   1.0765845e-16   1.5582601e-19               0    -0.003261985  -6.4370457e-06               0    0.0075394504       99.668428   9.6927586e-06   1.1498776e-06
     0.10720721   1.0618927e-16   1.9568518e-19               0   -0.0032126777  -7.7251382e-06               0    0.0069082372       99.668428   1.0333379e-05   1.1412295e-06
     0.10930931   1.0618927e-16   1.9568518e-19               0    -0.003162801  -8.6944781e-06               0    0.0063885256       99.668428   1.1343151e-05   1.1324156e-06
     0.11141141   1.0462327e-16   2.3108443e-19               0    -0.003113523  -9.6612631e-06               0    0.0060793412       191.92668   0.00045255378   1.1236068e-06
     0.11351351   1.0307214e-16   2.7583478e-19               0    -0.003064944  -1.0598977e-05               0    0.0058328145        314.5801    0.0010849016   1.1148795e-06
     0.11561562   1.0307214e-16   2.7583478e-19               0   -0.0030188244  -1.1412961e-05               0    0.0056564429       480.72493    0.0021248984   1.1065009e-06
     0.11771772   1.0157604e-16   3.0360247e-19               0   -0.0029744735  -1.1967354e-05               0    0.0055014363       608.84093    0.0031039632   1.0983885e-06
     0.11981982   1.0157604e-16   3.0360247e-19               0   -0.0029318543  -1.2267568e-05               0    0.0053673494        699.7209    0.0040233664   1.0905366e-06
     0.12192192   1.0013756e-16   3.0684696e-19               0   -0.0028917975  -1.2261566e-05               0    0.0052514205       764.60748    0.0047769409   1.0830767e-06
     0.12402402   1.0013756e-16   3.0684696e-19               0    -0.002852499  -1.2164926e-05               0    0.0051408662        821.8001    0.0054814307   1.0757328e-06
     0.12612613   9.8755315e-17   2.9961823e-19               0   -0.0028161003  -1.1913626e-05               0    0.0050457855       857.85411    0.0059753224   1.0688392e-06
     0.12822823   9.7419008e-17   2.8751856e-19               0   -0.0027801025  -1.1648061e-05               0    0.0049534019       891.54783    0.0064408065   1.0620079e-06
     0.13033033   9.7419008e-17   2.8751856e-19               0   -0.0027462396  -1.1311335e-05               0    0.0048757568       913.05314     0.006755506   1.0555083e-06
     0.13243243   9.6118098e-17   2.7075315e-19               0    -0.002712851  -1.0961604e-05               0     0.004801544        932.2737    0.0070384063   1.0490802e-06
     0.13453453   9.6118098e-17   2.7075315e-19               0   -0.0026809287  -1.0571676e-05               0    0.0047379394       944.43282    0.0072230257   1.0428731e-06
     0.13663664   9.4830276e-17   2.5127925e-19               0   -0.0026494263  -1.0183225e-05               0    0.0046760204       954.84489     0.007381661   1.0367253e-06
     0.13873874   9.4830276e-17   2.5127925e-19               0   -0.0026189635  -9.7984278e-06               0    0.0046182742       960.93215    0.0074759728   1.0307247e-06
     0.14084084   9.3545722e-17   2.3300784e-19               0   -0.0025888378  -9.4242153e-06               0    0.0045604812       965.94778    0.0075537666   1.0247699e-06
     0.14294294   9.3545722e-17   2.3300784e-19               0   -0.0025596196  -9.0784915e-06               0    0.0045025621       968.07903    0.0075871003   1.0189385e-06
     0.14504505   9.2260848e-17   2.1598713e-19               0   -0.0025306248  -8.7393585e-06               0    0.0044446368       969.71785     0.007612729   1.0131374e-06
     0.14714715   9.2260848e-17   2.1598713e-19               0   -0.0025025701  -8.4279474e-06               0    0.0043866855       969.28535    0.0076059483   1.0074636e-06
     0.14924925   9.0976172e-17   2.0000134e-19               0   -0.0024745723  -8.1179479e-06               0     0.004328803       968.77209    0.0075979056   1.0017977e-06
     0.15135135   9.0976172e-17   2.0000134e-19               0   -0.0024476712  -7.8351096e-06               0    0.0042722428       966.70499    0.0075655792   9.9628368e-07
     0.15345345   9.0976172e-17   2.0000134e-19               0     -0.00242077  -7.5522712e-06               0    0.0042156826       964.63789    0.0075332527   9.9076969e-07
     0.15555556   8.9694301e-17   1.8489801e-19               0   -0.0023948629   -7.288877e-06               0    0.0041608994       961.72285    0.0074878976   9.8539894e-07
     0.15765766   8.9694301e-17   1.8489801e-19               0   -0.0023691438  -7.0291616e-06               0    0.0041064523       958.64738    0.0074400775    9.800553e-07
     0.15975976   8.8419918e-17   1.7042681e-19               0   -0.0023441337  -6.7768532e-06               0    0.0040535532       955.24229     0.007387387   9.7481954e-07
     0.16186186   8.8419918e-17   1.7042681e-19               0   -0.0023196703  -6.5302579e-06               0    0.0040018478       951.58296    0.0073309399   9.6966699e-07
     0.16396396   8.7161132e-17   1.5580663e-19               0   -0.0022955184  -6.2856932e-06               0    0.0039511732       947.86206    0.0072736672   9.6456545e-07
     0.16606607   8.7161132e-17   1.5580663e-19               0   -0.0022724817  -6.0484017e-06               0    0.0039041898       943.92065    0.0072134379   9.5964666e-07
     0.16816817   8.7161132e-17   1.5580663e-19               0   -0.0022494451  -5.8111101e-06               0    0.0038572064       939.97925    0.0071532087   9.5472787e-07
     0.17027027   8.5934632e-17   1.4131121e-19               0   -0.0022275142  -5.5910553e-06               0    0.0038145183       936.02083    0.0070932095   9.4999427e-07
     0.17237237   8.5934632e-17   1.4131121e-19               0   -0.0022058599  -5.3753126e-06               0    0.0037729048       932.05817    0.0070332678     9.45307e-07
     0.17447447   8.4727164e-17   1.2835131e-19               0   -0.0021846221  -5.1665902e-06               0    0.0037318436       928.13205    0.0069740677   9.4069169e-07
     0.17657658   8.4727164e-17   1.2835131e-19               0   -0.0021643238  -4.9736985e-06               0    0.0036920283       924.28836    0.0069165395   9.3623865e-07
     0.17867868   8.4727164e-17   1.2835131e-19               0   -0.0021440254  -4.7808067e-06               0    0.0036522129       920.44468    0.0068590114   9.3178562e-07
     0.18078078   8.3558088e-17   1.1607886e-19               0   -0.0021248319  -4.5984975e-06               0     0.003612288       916.71345    0.0068035983   9.2753448e-07
     0.18288288   8.3558088e-17   1.1607886e-19               0   -0.0021060306  -4.4199456e-06               0    0.0035723242       913.02215    0.0067489363   9.2335504e-07
     0.18498498   8.2434616e-17   1.0429847e-19               0    -0.002087365  -4.2425783e-06               0     0.003532583       909.34683    0.0066945603   9.1920127e-07
     0.18708709   8.2434616e-17   1.0429847e-19               0   -0.0020700743  -4.0772194e-06               0    0.0034950988       905.83348    0.0066430836   9.1530779e-07
     0.18918919   8.2434616e-17   1.0429847e-19               0   -0.0020527835  -3.9118605e-06               0    0.0034576146       902.32013     0.006591607    9.114143e-07
     0.19129129   8.1362856e-17   9.3031759e-20               0   -0.0020360361  -3.7511958e-06               0    0.0034218479        898.8806    0.0065413935   9.0762715e-07
     0.19339339   8.1362856e-17   9.3031759e-20               0   -0.0020202537  -3.5988674e-06               0    0.0033891313       895.57216    0.0064934234   9.0402881e-07
      0.1954955   8.1362856e-17   9.3031759e-20               0   -0.0020044713   -3.446539e-06               0    0.0033564146       892.26373    0.0064454532   9.0043048e-07
      0.1975976   8.0349042e-17     8.23396e-20               0   -0.0019895064  -3.3014671e-06               0    0.0033263696        889.0906    0.0063996903   8.9699716e-07
      0.1996997   8.0349042e-17     8.23396e-20               0   -0.0019752189  -3.1624083e-06               0    0.0032985384        886.0296    0.0063557567    8.937006e-07
      0.2018018   8.0349042e-17     8.23396e-20               0   -0.0019609314  -3.0233495e-06               0    0.0032707072        882.9686     0.006311823   8.9040404e-07
      0.2039039   7.9398522e-17   7.2319486e-20               0   -0.0019475931   -2.892493e-06               0    0.0032460286       880.08729    0.0062707182   8.8730472e-07
     0.20600601   7.9398522e-17   7.2319486e-20               0   -0.0019347727  -2.7661113e-06               0    0.0032230698         877.304    0.0062311567   8.8431301e-07
     0.20810811   7.9398522e-17   7.2319486e-20               0   -0.0019219522  -2.6397295e-06               0     0.003200111       874.52072    0.0061915953   8.8132129e-07
     0.21021021    7.851605e-17   6.2892207e-20               0   -0.0019100735  -2.5210749e-06               0    0.0031799051       871.93013    0.0061549845   8.7853067e-07
     0.21231231    7.851605e-17   6.2892207e-20               0    -0.001898684  -2.4064348e-06               0    0.0031611294       869.43965    0.0061199068   8.7584451e-07
     0.21441441    7.851605e-17   6.2892207e-20               0   -0.0018872945  -2.2917947e-06               0    0.0031423537       866.94918     0.006084829   8.7315836e-07
     0.21651652   7.7706047e-17   5.4075092e-20               0   -0.0018766973  -2.1842843e-06               0    0.0031247225       864.62912    0.0060523016   8.7064553e-07
     0.21861862   7.7706047e-17   5.4075092e-20               0   -0.0018666801  -2.0819934e-06               0    0.0031079292       862.43382    0.0060216412   8.6825959e-07
     0.22072072   7.7706047e-17   5.4075092e-20               0   -0.0018566629  -1.9797024e-06               0    0.0030911359       860.23853    0.0059909808   8.6587365e-07
     0.22282282   7.6969831e-17    4.605253e-20               0   -0.0018471596  -1.8825034e-06               0    0.0030749001       858.15811    0.0059620071   8.6360249e-07
     0.22492492   7.6969831e-17    4.605253e-20               0   -0.0018384209  -1.7928808e-06               0    0.0030594939       856.24864    0.0059355429   8.6150213e-07
     0.22702703   7.6969831e-17    4.605253e-20               0   -0.0018296823  -1.7032582e-06               0    0.0030440876       854.33917    0.0059090788   8.5940176e-07
     0.22912913   7.6305809e-17   3.8804679e-20               0   -0.0018210941  -1.6151661e-06               0    0.0030290038       852.46414    0.0058831124   8.5733559e-07
     0.23123123   7.6305809e-17   3.8804679e-20               0   -0.0018135216  -1.5374089e-06               0    0.0030160976       850.82169    0.0058605061    8.555004e-07
     0.23333333   7.6305809e-17   3.8804679e-20               0   -0.0018059491  -1.4596517e-06               0    0.0030031914       849.17925    0.0058378999    8.536652e-07
     0.23543544   7.6305809e-17   3.8804679e-20               0   -0.0017983766  -1.3818945e-06               0    0.0029902852       847.53681    0.0058152937      8.5183e-07
     0.23753754   7.5711024e-17   3.2324124e-20               0   -0.0017915964  -1.3128935e-06               0    0.0029793537        846.0773    0.0057952947   8.5017787e-07
     0.23963964   7.5711024e-17   3.2324124e-20               0   -0.0017850728  -1.2467264e-06               0    0.0029690614         844.677    0.0057761395     8.48585e-07
     0.24174174   7.5711024e-17   3.2324124e-20               0   -0.0017785491  -1.1805593e-06               0     0.002958769        843.2767    0.0057569844   8.4699212e-07
     0.24384384   7.5181459e-17   2.6715903e-20               0    -0.001772284  -1.1175204e-06               0     0.002949038       841.93593     0.005738668   8.4545982e-07
     0.24594595   7.5181459e-17   2.6715903e-20               0   -0.0017666892  -1.0625921e-06               0    0.0029407622       840.74952    0.0057225266   8.4408457e-07
     0.24804805   7.5181459e-17   2.6715903e-20               0   -0.0017610945  -1.0076639e-06               0    0.0029324865        839.5631    0.0057063851   8.4270933e-07
     0.25015015   7.5181459e-17   2.6715903e-20               0   -0.0017554998  -9.5273564e-07               0    0.0029242107       838.37669    0.0056902436   8.4133408e-07
     0.25225225   7.4711914e-17   2.1964829e-20               0   -0.0017504683   -9.046238e-07               0    0.0029171963       837.31861    0.0056758932    8.400924e-07
     0.25435435   7.4711914e-17   2.1964829e-20               0   -0.0017456848  -8.5951241e-07               0    0.0029107372       836.31702    0.0056623312    8.389095e-07
     0.25645646   7.4711914e-17   2.1964829e-20               0   -0.0017409013  -8.1440102e-07               0     0.002904278       835.31543    0.0056487692   8.3772661e-07
     0.25855856   7.4296828e-17   1.7940454e-20               0   -0.0017361179  -7.6929182e-07               0    0.0028978193       834.31389    0.0056352078   8.3654376e-07
     0.26066066   7.4296828e-17   1.7940454e-20               0   -0.0017320425  -7.3220783e-07               0    0.0028930175       833.47052    0.0056238356   8.3553058e-07
     0.26276276   7.4296828e-17   1.7940454e-20               0    -0.001727967  -6.9512385e-07               0    0.0028882156       832.62716    0.0056124633   8.3451741e-07
     0.26486486   7.4296828e-17   1.7940454e-20               0   -0.0017238915  -6.5803987e-07               0    0.0028834138       831.78379    0.0056010911   8.3350423e-07
     0.26696697   7.3931826e-17   1.4521162e-20               0   -0.0017199351  -6.2229204e-07               0    0.0028786884       830.96659    0.0055900785   8.3251987e-07
     0.26906907   7.3931826e-17   1.4521162e-20               0   -0.0017164774  -5.9214199e-07               0     0.002874283       830.25903     0.005580572   8.3165622e-07
     0.27117117   7.3931826e-17   1.4521162e-20               0   -0.0017130197  -5.6199193e-07               0    0.0028698777       829.55147    0.0055710656   8.3079256e-07
     0.27327327   7.3931826e-17   1.4521162e-20               0   -0.0017095619  -5.3184188e-07               0    0.0028654724       828.84391    0.0055615591    8.299289e-07
     0.27537538   7.3612125e-17   1.1698144e-20               0   -0.0017062451  -5.0332721e-07               0    0.0028608743       828.16711    0.0055524726   8.2909963e-07
     0.27747748   7.3612125e-17   1.1698144e-20               0   -0.0017033131   -4.792761e-07               0    0.0028557501       827.57425    0.0055445323   8.2836422e-07
     0.27957958   7.3612125e-17   1.1698144e-20               0    -0.001700381  -4.5522499e-07               0    0.0028506259       826.98139     0.005536592   8.2762881e-07
     0.28168168   7.3612125e-17   1.1698144e-20               0   -0.0016974489  -4.3117388e-07               0    0.0028455017       826.38854    0.0055286517    8.268934e-07
     0.28378378   7.3331423e-17   9.3782206e-21               0   -0.0016946131  -4.0831458e-07               0    0.0028403197       825.81626    0.0055209912    8.261816e-07
     0.28588589   7.3331423e-17   9.3782206e-21               0   -0.0016921123   -3.896075e-07               0    0.0028349362       825.31569    0.0055143052   8.2555208e-07
     0.28798799   7.3331423e-17   9.3782206e-21               0   -0.0016896116  -3.7090042e-07               0    0.0028295526       824.81512    0.0055076193   8.2492256e-07
     0.29009009   7.3331423e-17   9.3782206e-21               0   -0.0016871109  -3.5219335e-07               0    0.0028241691       824.31454    0.0055009334   8.2429303e-07
     0.29219219     7.30828e-17   7.5630302e-21               0   -0.0016846285  -3.3375737e-07               0    0.0028188075       823.81771    0.0054942981   8.2366804e-07
     0.29429429     7.30828e-17   7.5630302e-21               0   -0.0016824703  -3.2010666e-07               0    0.0028138333       823.38677    0.0054885561   8.2312295e-07
      0.2963964     7.30828e-17   7.5630302e-21               0   -0.0016803121  -3.0645596e-07               0    0.0028088592       822.95583    0.0054828142   8.2257786e-07
      0.2984985     7.30828e-17   7.5630302e-21               0   -0.0016781538  -2.9280525e-07               0     0.002803885       822.52489    0.0054770723   8.2203277e-07
      0.3006006     7.30828e-17   7.5630302e-21               0   -0.0016759956  -2.7915454e-07               0    0.0027989108       822.09395    0.0054713304   8.2148769e-07
      0.3027027   7.2859349e-17   6.2867357e-21               0   -0.0016740369  -2.6883197e-07               0     0.002794336       821.70055     0.005466097   8.2099192e-07
      0.3048048   7.2859349e-17   6.2867357e-21               0   -0.0016721425  -2.5958286e-07               0    0.0027898899       821.31926    0.0054610276   8.2051207e-07
     0.30690691   7.2859349e-17   6.2867357e-21               0   -0.0016702481  -2.5033376e-07               0    0.0027854439       820.93796    0.0054559582   8.2003221e-07
     0.30900901   7.2859349e-17   6.2867357e-21               0   -0.0016683538  -2.4108465e-07               0    0.0027809978       820.55667    0.0054508889   8.1955236e-07
     0.31111111   7.2654724e-17   5.4533894e-21               0   -0.0016665262  -2.3279128e-07               0    0.0027767767       820.18667    0.0054459727   8.1908904e-07
     0.31321321   7.2654724e-17   5.4533894e-21               0   -0.0016648362  -2.2646853e-07               0    0.0027730192       819.83996    0.0054413724   8.1865982e-07
     0.31531532   7.2654724e-17   5.4533894e-21               0   -0.0016631463  -2.2014578e-07               0    0.0027692617       819.49326    0.0054367721    8.182306e-07
     0.31741742   7.2654724e-17   5.4533894e-21               0   -0.0016614564  -2.1382304e-07               0    0.0027655042       819.14655    0.0054321718   8.1780138e-07
     0.31951952   7.2654724e-17   5.4533894e-21               0   -0.0016597664  -2.0750029e-07               0    0.0027617467       818.79984    0.0054275715   8.1737217e-07
     0.32162162   7.2464911e-17   4.8438433e-21               0   -0.0016582014  -2.0266989e-07               0     0.002758002       818.47149     0.005423221   8.1697393e-07
     0.32372372   7.2464911e-17   4.8438433e-21               0   -0.0016566755  -1.9830821e-07               0    0.0027542615        818.1489     0.005418949   8.1658541e-07
     0.32582583   7.2464911e-17   4.8438433e-21               0   -0.0016551497  -1.9394654e-07               0    0.0027505209       817.82632    0.0054146769    8.161969e-07
     0.32792793   7.2464911e-17   4.8438433e-21               0   -0.0016536239  -1.8958486e-07               0    0.0027467803       817.50373    0.0054104049   8.1580839e-07
     0.33003003   7.2286926e-17   4.4626998e-21               0    -0.001652105   -1.853327e-07               0    0.0027429708       817.18204    0.0054061451   8.1542162e-07
     0.33213213   7.2286926e-17   4.4626998e-21               0   -0.0016507067  -1.8295828e-07               0    0.0027379799       816.87576    0.0054020965   8.1506474e-07
     0.33423423   7.2286926e-17   4.4626998e-21               0   -0.0016493084  -1.8058386e-07               0    0.0027329889       816.56947    0.0053980478   8.1470785e-07
     0.33633634   7.2286926e-17   4.4626998e-21               0     -0.00164791  -1.7820944e-07               0    0.0027279979       816.26319    0.0053939991   8.1435096e-07
     0.33843844   7.2286926e-17   4.4626998e-21               0   -0.0016465117  -1.7583502e-07               0     0.002723007        815.9569    0.0053899505   8.1399407e-07
     0.34054054   7.2116847e-17   4.3587945e-21               0   -0.0016451318  -1.7381163e-07               0    0.0027178176       815.65261    0.0053859296   8.1364172e-07
     0.34264264   7.2116847e-17   4.3587945e-21               0   -0.0016438232  -1.7315245e-07               0    0.0027118571       815.35606    0.0053820168     8.13307e-07
     0.34474474   7.2116847e-17   4.3587945e-21               0   -0.0016425147  -1.7249327e-07               0    0.0027058966       815.05951    0.0053781039   8.1297229e-07
     0.34684685   7.2116847e-17   4.3587945e-21               0   -0.0016412062  -1.7183409e-07               0     0.002699936       814.76296    0.0053741911   8.1263757e-07
     0.34894895   7.2116847e-17   4.3587945e-21               0   -0.0016398977  -1.7117491e-07               0    0.0026939755       814.46641    0.0053702783   8.1230285e-07
     0.35105105    7.195062e-17   4.4428832e-21               0   -0.0016386012  -1.7074798e-07               0    0.0026880497        814.1708    0.0053663794   8.1197107e-07
     0.35315315    7.195062e-17   4.4428832e-21               0   -0.0016373514  -1.7122075e-07               0    0.0026822581       813.87885    0.0053625342   8.1165066e-07