#      distance             U_x             U_y             U_z wallShearStr... wallShearStr... wallShearStr...               p           omega               k             nut
    0.034013023      0.99913624   5.1492677e-06               0               0               0               0    0.0048325166        69.03818   1.1919945e-05   1.7265714e-07
    0.056204344      0.99877569   9.2253743e-06               0               0               0               0    0.0051950146       62.950605   1.0786178e-05   1.7134344e-07
    0.072112662      0.99829231   1.3784129e-05               0               0               0               0    0.0056346414       59.102333   1.0073259e-05   1.7043755e-07
    0.083516877       0.9977908   3.4059555e-05               0               0               0               0     0.006202671       56.573569   9.6065448e-06   1.6980622e-07
     0.09169223      0.99665315    6.942616e-05               0               0               0               0    0.0069790769       54.867269   9.2924657e-06   1.6936263e-07
    0.097552904      0.99562594   0.00081266754               0  -1.3873113e-06  -1.4734072e-09               0    0.0083405281       53.719829   9.0778612e-06   1.6945769e-07
     0.10156632      0.98098941   0.00076022933               0  -4.1315039e-06  -5.6544597e-09               0    0.0087434786        99.64936    9.132264e-06   8.2085065e-08
     0.10474707       0.9680769    0.0014045034               0  -5.4260618e-06  -1.0278046e-08               0    0.0076982154       99.668428   9.5182319e-06   4.4797607e-08
     0.10802554      0.95486599    0.0017626623               0  -5.2982288e-06  -1.3466316e-08               0    0.0065747268       99.668428   1.0337508e-05   3.2891605e-08
     0.11140473      0.94078403    0.0020808389               0  -5.1661855e-06  -1.6047285e-08               0    0.0060522237        99.82091   1.3442437e-05   3.0181922e-08
     0.11488774      0.92683586    0.0024837701               0  -5.0352971e-06  -1.8491855e-08               0    0.0057161764       467.19027    0.0017675546   3.1758977e-06
     0.11847776      0.91338258    0.0027330642               0  -4.9096452e-06  -2.0057925e-08               0    0.0054574648       658.53725    0.0035110147   5.3244689e-06
     0.12217807      0.90044745    0.0027617856               0   -4.790091e-06  -2.0343346e-08               0    0.0052495842       782.35031    0.0049551784   6.3250459e-06
     0.12599207      0.88801806    0.0026964727               0  -4.6762863e-06  -1.9809886e-08               0    0.0050605771       862.94685    0.0060286581   6.9763754e-06
     0.12992323      0.87600173    0.0025874092               0  -4.5674073e-06  -1.8889895e-08               0     0.004898465       913.95608    0.0067624145   7.3885903e-06
     0.13397518      0.86430364    0.0024364143               0  -4.4622558e-06  -1.7724848e-08               0    0.0047641136       944.60315    0.0072235286   7.6362432e-06
     0.13815161       0.8527232    0.0022610942               0  -4.3594657e-06  -1.6446532e-08               0    0.0046480589       961.54353    0.0074849405   7.4785325e-06
     0.14245635      0.84117215    0.0020966301               0  -4.2581057e-06  -1.5205201e-08               0    0.0045299237       969.15935    0.0076039766   7.2088537e-06
     0.14689334      0.82961816    0.0019434223               0  -4.1578461e-06  -1.4054291e-08               0    0.0044062648       970.40578    0.0076235476   6.8880813e-06
     0.15146665      0.81806594    0.0017995287               0  -4.0586879e-06  -1.2981478e-08               0    0.0042808516       967.30676    0.0075749329   6.5481264e-06
     0.15618046      0.80653892    0.0016635796               0  -3.9608291e-06  -1.1971816e-08               0    0.0041559524       961.27589    0.0074807719   6.2094036e-06
     0.16103908      0.79507921    0.0015333132               0  -3.8646405e-06  -1.1000506e-08               0       0.0040327       953.30534    0.0073572298   5.8848099e-06
     0.16604698      0.78375975    0.0014017745               0  -3.7708034e-06   -1.004374e-08               0    0.0039132149       944.10437    0.0072158954   5.5827304e-06
     0.17120873      0.77273063    0.0012713109               0  -3.6798045e-06  -9.1208082e-09               0    0.0038054664       934.24195    0.0070659227   5.3126454e-06
     0.17652907      0.76187265    0.0011546587               0  -3.5917587e-06  -8.2627799e-09               0    0.0037058405       924.34917    0.0069170708    5.069285e-06
     0.18201286      0.75135995       0.0010442               0  -3.5071876e-06  -7.4587031e-09               0    0.0036009976       914.49111    0.0067703173   4.8578752e-06
     0.18766512      0.74125738   0.00093818111               0  -3.4267282e-06  -6.6914203e-09               0    0.0034943125       904.79872    0.0066275645   4.6739831e-06
     0.19349103      0.73161986   0.00083679455               0  -3.3507382e-06  -5.9609671e-09               0    0.0033964769       895.31149    0.0064893065   4.5149481e-06
     0.19949593      0.72250343   0.00074058868               0  -3.2795307e-06  -5.2705149e-09               0    0.0033102776       886.18298    0.0063576522   4.3800963e-06
     0.20568532      0.71395621   0.00065043828               0  -3.2133697e-06  -4.6223023e-09               0    0.0032350568       877.55895    0.0062345132   4.2689168e-06
     0.21206485      0.70602089   0.00056562965               0  -3.1524712e-06  -4.0156989e-09               0    0.0031729534       869.54522    0.0061211677   4.1805844e-06
     0.21864039      0.69873724   0.00048631712               0  -3.0969741e-06  -3.4530668e-09               0    0.0031192199        862.2142    0.0060183893    4.114474e-06
     0.22541793      0.69211711   0.00041415705               0  -3.0468587e-06  -2.9401355e-09               0    0.0030660976        855.6036    0.0059264571   4.0695027e-06
     0.23240371      0.68614615   0.00034897134               0  -3.0019388e-06  -2.4790963e-09               0    0.0030181261       849.71521    0.0058451644   4.0441837e-06
      0.2396041      0.68079777   0.00029068864               0  -2.9619278e-06  -2.0705639e-09               0    0.0029787472       844.52226    0.0057739382   4.0368136e-06
      0.2470257      0.67603584   0.00024025388               0   -2.926475e-06  -1.7163515e-09               0    0.0029462697        839.9773    0.0057119583   4.0455152e-06
     0.25467531      0.67181362   0.00019752932               0  -2.8951809e-06  -1.4147736e-09               0    0.0029191557       836.01827    0.0056582408   4.0682449e-06
     0.26255994      0.66808108   0.00016134087               0  -2.8676479e-06  -1.1593808e-09               0    0.0028983004        832.5776    0.0056117628   4.1029047e-06
      0.2706868      0.66479893   0.00013059382               0  -2.8435168e-06  -9.4407748e-10               0    0.0028823752       829.59611    0.0055716422   4.1474443e-06
     0.27906334      0.66192411   0.00010520863               0  -2.8224195e-06  -7.6520223e-10               0    0.0028635576       827.02413     0.005537148   4.2020615e-06
     0.28769723      0.65939997   8.4347001e-05               0  -2.8039301e-06  -6.1978059e-10               0    0.0028408157       824.80002    0.0055074051   4.2654087e-06
     0.29659637      0.65716431   6.8023107e-05               0  -2.7875858e-06   -5.063985e-10               0    0.0028186257       822.85026     0.005481397   4.3354488e-06
     0.30576892        0.655155   5.6544247e-05               0    -2.77293e-06    -4.23731e-10               0    0.0027980843       821.09647    0.0054580553   4.4098487e-06
     0.31522326        0.653315   4.9048278e-05               0  -2.7595681e-06  -3.6578049e-10               0     0.002779317       819.47277    0.0054364894   4.4862983e-06
     0.32496807       0.6516082   4.3564324e-05               0  -2.7472107e-06  -3.2478757e-10               0    0.0027639008       817.93106    0.0054160519   4.5634092e-06
     0.33501226      0.65000778   4.0133531e-05               0  -2.7356274e-06   -2.981861e-10               0    0.0027442817       816.43717    0.0053962852    4.640171e-06
     0.34536503      0.64847848   3.9196047e-05               0  -2.7245741e-06  -2.8587881e-10               0     0.002715695       814.96036    0.0053767799   4.7154703e-06
     0.35603587      0.64698385   3.9949228e-05               0  -2.7138049e-06  -2.8514816e-10               0    0.0026849222       813.47257    0.0053571654   4.7881981e-06
     0.36703454      0.64549634   4.1905595e-05               0  -2.7031198e-06  -2.9224824e-10               0    0.0026562612       811.95206    0.0053371567   4.8574803e-06
     0.37837111      0.64399651   4.4541995e-05               0  -2.6923829e-06  -3.0376549e-10               0    0.0026296051       810.38249    0.0053165418   4.9226045e-06
     0.39005597      0.64247489   4.7284662e-05               0  -2.6815142e-06  -3.1726957e-10               0     0.002603324       808.75557    0.0052952161   4.9830072e-06
     0.40209982       0.6409247   5.0271758e-05               0  -2.6704553e-06  -3.3301642e-10               0    0.0025722944       807.06803    0.0052731409   5.0383641e-06
     0.41451368      0.63933579   5.4024193e-05               0  -2.6591207e-06  -3.5253083e-10               0    0.0025358782       805.31648    0.0052502774   5.0881623e-06
     0.42730893      0.63768635   5.8402229e-05               0  -2.6473883e-06  -3.7507116e-10               0    0.0024990438       803.49009    0.0052264901   5.1339891e-06
     0.44049728      0.63596025   6.2671282e-05               0  -2.6351634e-06  -3.9739122e-10               0    0.0024642097       801.57828    0.0052016481   5.1754681e-06
      0.4540908      0.63415678   6.6302673e-05               0  -2.6224302e-06  -4.1688992e-10               0    0.0024307556       799.58168    0.0051757676   5.2118655e-06
     0.46810195      0.63228287   6.9406857e-05               0  -2.6092218e-06  -4.3321862e-10               0    0.0023928794       797.50961    0.0051489775   5.2427433e-06
     0.48254356      0.63034204   7.2093006e-05               0  -2.5955709e-06  -4.4654657e-10               0    0.0023496566        795.3711    0.0051214012   5.2680088e-06
     0.49742885      0.62833721   7.4139914e-05               0  -2.5815188e-06  -4.5581007e-10               0    0.0023067992        793.1735    0.0050931406   5.2879818e-06
     0.51277145      0.62628063   7.5147732e-05               0  -2.5671525e-06   -4.595184e-10               0    0.0022686395       790.92925    0.0050643605   5.3034167e-06
     0.52858541      0.62419298   7.5115674e-05               0  -2.5525952e-06  -4.5781487e-10               0    0.0022317698       788.65767    0.0050353134   5.3151324e-06
     0.54488522      0.62208972   7.4517062e-05               0  -2.5379465e-06  -4.5250737e-10               0    0.0021905877       786.37471    0.0050062049   5.3239616e-06
     0.56168579      0.61997556   7.3593103e-05               0  -2.5232527e-06  -4.4511644e-10               0    0.0021472862       784.08568     0.004977104   5.3308439e-06
     0.57900252      0.61785168    7.238748e-05               0  -2.5085385e-06  -4.3603722e-10               0    0.0021063098       781.79146    0.0049480221   5.3362943e-06
     0.59685126      0.61572487   7.0838161e-05               0  -2.4938433e-06  -4.2543799e-10               0    0.0020678733       779.49664    0.0049190183   5.3405925e-06
     0.61524836      0.61360303   6.9153704e-05               0  -2.4792075e-06  -4.1413518e-10               0    0.0020272573       777.20859    0.0048901848   5.3438202e-06
     0.63421066      0.61148679    6.754726e-05               0  -2.4646481e-06  -4.0269925e-10               0    0.0019833307       774.93072    0.0048615638   5.3459119e-06
     0.65375553      0.60937708   6.5774545e-05               0   -2.450183e-06  -3.9059505e-10               0    0.0019413432        772.6651    0.0048331802   5.3469412e-06
     0.67390086      0.60728191   6.3731309e-05               0  -2.4358536e-06   -3.774509e-10               0    0.0019016207       770.41764    0.0048051065   5.3471641e-06
     0.69466511      0.60520892   6.1606576e-05               0  -2.4216983e-06  -3.6393453e-10               0    0.0018602599       768.19448    0.0047774168   5.3467764e-06
     0.71606728      0.60315773   5.9589161e-05               0  -2.4077286e-06  -3.5056545e-10               0     0.001816785       765.99618    0.0047501153   5.3458275e-06
     0.73812698      0.60112874   5.7468628e-05               0  -2.3939519e-06  -3.3711115e-10               0    0.0017757439       763.82241    0.0047231955   5.3444264e-06
     0.76086441      0.59912657   5.5302944e-05               0  -2.3803795e-06   -3.238562e-10               0    0.0017353736       761.67369     0.004696661   5.3428776e-06
     0.78430038      0.59714897    5.338726e-05               0   -2.366999e-06  -3.1159149e-10               0    0.0016917805         759.547    0.0046704722   5.3412029e-06
     0.80845637      0.59518913   5.1641603e-05               0  -2.3537813e-06  -3.0024318e-10               0    0.0016479814       757.43697    0.0046445609   5.3392529e-06
     0.83335448      0.59324642   4.9885885e-05               0  -2.3407173e-06  -2.8924851e-10               0    0.0016059173       755.34304    0.0046189184   5.3369768e-06
     0.85901753      0.59132407   4.8168733e-05               0  -2.3278124e-06  -2.7864705e-10               0    0.0015625683        753.2686    0.0045935847   5.3343415e-06
       0.885469      0.58941978   4.6612339e-05               0   -2.315063e-06  -2.6848772e-10               0    0.0015167308       751.21342    0.0045685548   5.3312449e-06
     0.91273313      0.58753356   4.4963838e-05               0  -2.3024754e-06  -2.5829639e-10               0    0.0014733123       749.17777      0.00454383   5.3277682e-06
     0.94083488      0.58567188   4.3261804e-05               0   -2.290067e-06  -2.4819291e-10               0    0.0014298878       747.16662    0.0045194683   5.3240333e-06
     0.96979998      0.58383282   4.1768241e-05               0  -2.2778335e-06  -2.3869804e-10               0    0.0013827306       745.17812    0.0044954454   5.3200211e-06
     0.99965496      0.58201168   4.0298738e-05               0  -2.2657585e-06  -2.2963726e-10               0    0.0013372967       743.20696    0.0044716948    5.315783e-06
      1.0304272       0.5802106   3.8829827e-05               0  -2.2538364e-06  -2.2094826e-10               0    0.0012925309       741.25356    0.0044482201   5.3113978e-06
      1.0621447      0.57842714   3.7554374e-05               0  -2.2420565e-06  -2.1285024e-10               0    0.0012440033       739.31682    0.0044250065   5.3067381e-06
      1.0948368      0.57665796   3.6281424e-05               0    -2.23041e-06   -2.050037e-10               0    0.0011964965       737.39498    0.0044020313   5.3017539e-06
      1.1285332      0.57490744   3.4952869e-05               0   -2.218906e-06  -1.9722796e-10               0    0.0011498118       735.49177    0.0043793374   5.2965479e-06
      1.1632648      0.57317608   3.3746685e-05               0  -2.2075494e-06   -1.897536e-10               0     0.001099911       733.60858    0.0043569398    5.291085e-06
      1.1990635      0.57146189   3.2538484e-05               0  -2.1963375e-06   -1.824994e-10               0     0.001051092       731.74332     0.004334812   5.2854037e-06
       1.235962      0.56976723   3.1334307e-05               0  -2.1852691e-06  -1.7551243e-10               0    0.0010025405       729.89633    0.0043129562   5.2796111e-06
      1.2739941       0.5680892   3.0281774e-05               0   -2.174333e-06  -1.6899915e-10               0   0.00095063448       728.06514    0.0042913417   5.2736323e-06
      1.3131947      0.56642469   2.9238254e-05               0  -2.1635172e-06  -1.6276518e-10               0   0.00089964509       726.24749    0.0042699407   5.2674337e-06
      1.3535996      0.56477595   2.8199266e-05               0  -2.1528239e-06  -1.5666908e-10               0   0.00084855416        724.4455    0.0042487768   5.2610643e-06
      1.3952458      0.56314327   2.7216245e-05               0  -2.1422575e-06  -1.5076545e-10               0   0.00079558257       722.66023    0.0042278611   5.2545112e-06
      1.4381715      0.56152697   2.6233581e-05               0  -2.1318173e-06  -1.4507562e-10               0   0.00074297497        720.8918    0.0042071935   5.2478087e-06
       1.482416      0.55992611   2.5324606e-05               0  -2.1214974e-06  -1.3965694e-10               0   0.00068905182       719.13858    0.0041867538   5.2409694e-06
      1.5280198       0.5583389   2.4442875e-05               0  -2.1112908e-06  -1.3447938e-10               0   0.00063526029       717.39863    0.0041665181   5.2339956e-06
      1.5750246       0.5567659   2.3587388e-05               0  -2.1011935e-06  -1.2951542e-10               0   0.00058097314       715.67256    0.0041464923   5.2268933e-06
      1.6234735      0.55520576   2.2788885e-05               0   -2.091203e-06  -1.2476493e-10               0   0.00052524625       713.95987    0.0041266696   5.2196336e-06
      1.6734109      0.55365918   2.1988635e-05               0  -2.0813155e-06  -1.2019668e-10               0   0.00047081307       712.26134    0.0041070579    5.212239e-06
      1.7248825      0.55212423   2.1250744e-05               0  -2.0715294e-06  -1.1589076e-10               0   0.00041560505       710.57471    0.0040876298   5.2047371e-06
      1.7779355      0.55060337   2.0561944e-05               0  -2.0618158e-06  -1.1189655e-10               0   0.00036312924       708.90175    0.0040684049   5.1970463e-06
      1.8326183      0.54907562    1.994377e-05               0  -2.0522209e-06  -1.0763071e-10               0   0.00030823012       707.22382    0.0040491675    5.189321e-06
      1.8889812      0.54760994   1.8866688e-05               0  -2.0426209e-06  -1.4208162e-10               0   0.00027519546         705.601    0.0040306092   5.1814814e-06
      1.9470756      0.54601102   4.9780871e-05               0  -2.0330406e-06  -2.7173882e-10               0   0.00016382282       703.86213    0.0040107661   5.1729112e-06
      2.0069548      0.54461701   9.3788027e-05               0  -2.0227923e-06   -4.143108e-10               0   0.00036015121       702.32786     0.003993295     5.16105e-06
